<event>
 9    1  0.3846604E-005  0.9293409E+02  0.7546771E-02  0.1299994E+00
          1   -1    0    0  502    0  0.00000000000E+00  0.00000000000E+00  0.17807440568E+03  0.17807440568E+03  0.00000000000E+00 0. -1.
         -2   -1    0    0    0  501 -0.00000000000E+00 -0.00000000000E+00 -0.16377653001E+03  0.16377653001E+03  0.00000000000E+00 0.  1.
         23    2    1    2    0    0 -0.62852060157E+01  0.29648708999E+02 -0.69169672447E+01  0.94423067261E+02  0.89158967216E+02 0.  0.
        -24    2    1    2    0    0 -0.14705129635E+02 -0.22656540396E+02  0.11906398839E+03  0.14710867843E+03  0.82068083180E+02 0.  0.
         13    1    4    4    0    0 -0.45135075423E+02 -0.38380260140E+01  0.90948670178E+02  0.10160495108E+03  0.00000000000E+00 0. -1.
        -14    1    4    4    0    0  0.30429945788E+02 -0.18818514382E+02  0.28115318215E+02  0.45503727348E+02  0.00000000000E+00 0.  1.
        -11    1    3    3    0    0 -0.47177942786E+02  0.10406809451E+02 -0.91641058035E+01  0.49173578308E+02  0.00000000000E+00 0. -1.
         11    1    3    3    0    0  0.40892736770E+02  0.19241899549E+02  0.22471385587E+01  0.45249488953E+02  0.00000000000E+00 0.  1.
         21    1    1    2  502  501  0.20990335651E+02 -0.69921686033E+01 -0.97849145475E+02  0.10031919000E+03  0.00000000000E+00 0.  1.
<scales pt_clust_5="13000.00000" pt_clust_6="13000.00000" pt_clust_7="13000.00000" pt_clust_8="13000.00000" pt_clust_9="22.12430"></scales>
<clustering>
<clus scale="   22.124">  2  9  1 -1</clus>
<clus scale="   82.068">  5  6 -1 -1</clus>
<clus scale="   86.154">  1  5  2 -1</clus>
<clus scale="   89.159">  7  8 -1 -1</clus>
<clus scale="   86.154">  1  5  2 -1</clus>
</clustering>
</event>
<event>
 9    1  0.3846604E-005  0.1663395E+03  0.7546771E-02  0.1183525E+00
         -2   -1    0    0    0  501 -0.00000000000E+00  0.00000000000E+00  0.18069377979E+04  0.18069377979E+04  0.00000000000E+00 0.  1.
          1   -1    0    0  502    0  0.00000000000E+00 -0.00000000000E+00 -0.19855507625E+02  0.19855507625E+02  0.00000000000E+00 0. -1.
        -24    2    1    2    0    0  0.10913515451E+03  0.43009648328E+02  0.59658753243E+03  0.61323201698E+03  0.79853058734E+02 0.  0.
         23    2    1    2    0    0 -0.15729910960E+03 -0.35218286518E+02  0.98400534190E+03  0.10013860054E+04  0.92325951471E+02 0.  0.
         11    1    3    3    0    0  0.31723025389E+02  0.89218049248E+01  0.48377153563E+02  0.58534587466E+02  0.00000000000E+00 0. -1.
        -12    1    3    3    0    0  0.77412129124E+02  0.34087843403E+02  0.54821037887E+03  0.55469742951E+03  0.00000000000E+00 0.  1.
        -13    1    4    4    0    0 -0.12907551570E+03 -0.63371051615E+02  0.82644075949E+03  0.83885678628E+03  0.00000000000E+00 0.  1.
         13    1    4    4    0    0 -0.28223593897E+02  0.28152765097E+02  0.15756458241E+03  0.16252921911E+03  0.00000000000E+00 0. -1.
         21    1    1    2  502  501  0.48163955088E+02 -0.77913618104E+01  0.20648941596E+03  0.21217528318E+03  0.00000000000E+00 0.  1.
<scales pt_clust_5="13000.00000" pt_clust_6="13000.00000" pt_clust_7="13000.00000" pt_clust_8="13000.00000" pt_clust_9="48.79008"></scales>
<clustering>
<clus scale="   48.790">  2  9  1 -1</clus>
<clus scale="   79.853">  5  6 -1 -1</clus>
<clus scale="   92.326">  7  8 -1 -1</clus>
<clus scale="  159.754">  1  5  2 -1</clus>
<clus scale="   48.790">  2  5  1 -1</clus>
</clustering>
</event>
<event>
 9    1  0.3846604E-005  0.1133915E+03  0.7546771E-02  0.1258853E+00
         -2   -1    0    0    0  501 -0.00000000000E+00  0.00000000000E+00  0.18970090828E+03  0.18970090828E+03  0.00000000000E+00 0.  1.
          1   -1    0    0  502    0  0.00000000000E+00 -0.00000000000E+00 -0.24543988433E+03  0.24543988433E+03  0.00000000000E+00 0. -1.
         23    2    1    2    0    0 -0.59624544074E+02 -0.47998400274E+02  0.98561093548E+02  0.15482445278E+03  0.91637270440E+02 0.  0.
        -24    2    1    2    0    0  0.33263099974E+02  0.57320953514E+02 -0.20087654163E+03  0.22599135957E+03  0.79552398387E+02 0.  0.
         11    1    4    4    0    0  0.39869041677E+02 -0.10056930309E+01 -0.49081575948E+02  0.63242019261E+02  0.00000000000E+00 0. -1.
        -12    1    4    4    0    0 -0.66059417023E+01  0.58326646545E+02 -0.15179496568E+03  0.16274934030E+03  0.00000000000E+00 0.  1.
        -13    1    3    3    0    0 -0.81332248159E+02 -0.33057599331E+02  0.92996439897E+02  0.12789088043E+03  0.00000000000E+00 0.  1.
         13    1    3    3    0    0  0.21707704084E+02 -0.14940800943E+02  0.55646536509E+01  0.26933572353E+02  0.00000000000E+00 0. -1.
         21    1    1    2  502  501  0.26361444100E+02 -0.93225532402E+01  0.46576472026E+02  0.54324980261E+02  0.00000000000E+00 0.  1.
<scales pt_clust_5="13000.00000" pt_clust_6="13000.00000" pt_clust_7="13000.00000" pt_clust_8="13000.00000" pt_clust_9="27.96133"></scales>
<clustering>
<clus scale="   27.961">  1  9  2 -1</clus>
<clus scale="   79.552">  5  6 -1 -1</clus>
<clus scale="   91.637">  7  8 -1 -1</clus>
<clus scale="  103.869">  2  5  1 -1</clus>
<clus scale="  103.869">  2  5  1 -1</clus>
</clustering>
</event>
<event>
 9    1  0.3846604E-005  0.1362859E+03  0.7546771E-02  0.1222945E+00
         -2   -1    0    0    0  501 -0.00000000000E+00  0.00000000000E+00  0.26020559617E+03  0.26020559617E+03  0.00000000000E+00 0.  1.
          1   -1    0    0  502    0  0.00000000000E+00 -0.00000000000E+00 -0.89198333909E+02  0.89198333909E+02  0.00000000000E+00 0. -1.
         23    2    1    2    0    0  0.10190528339E+03 -0.17517783554E+02  0.65548368835E+02  0.15418872816E+03  0.93733749049E+02 0.  0.
        -24    2    1    2    0    0 -0.96393621856E+02 -0.62128500560E+01  0.45125806267E+02  0.13014906026E+03  0.74646564928E+02 0.  0.
         13    1    4    4    0    0 -0.87484495160E+02  0.23432171116E+02  0.28134411455E+02  0.94837485440E+02  0.00000000000E+00 0. -1.
        -14    1    4    4    0    0 -0.89091266956E+01 -0.29645021172E+02  0.16991394812E+02  0.35311574822E+02  0.00000000000E+00 0.  1.
        -11    1    3    3    0    0  0.55739219981E+02 -0.29611748033E+02 -0.10915759582E+02  0.64053649958E+02  0.00000000000E+00 0. -1.
         11    1    3    3    0    0  0.46166063409E+02  0.12093964480E+02  0.76464128418E+02  0.90135078200E+02  0.00000000000E+00 0.  1.
         21    1    1    2  502  501 -0.55116615330E+01  0.23730633610E+02  0.60333087162E+02  0.65066141663E+02  0.00000000000E+00 0. -1.
<scales pt_clust_5="13000.00000" pt_clust_6="13000.00000" pt_clust_7="13000.00000" pt_clust_8="13000.00000" pt_clust_9="24.36229"></scales>
<clustering>
<clus scale="   24.362">  1  9  2 -1</clus>
<clus scale="   74.647">  5  6 -1 -1</clus>
<clus scale="   93.734">  7  8 -1 -1</clus>
<clus scale="  123.935">  2  5  1 -1</clus>
<clus scale="  123.935">  2  5  1 -1</clus>
</clustering>
</event>
<event>
 9    1  0.3846604E-005  0.1101918E+03  0.7546771E-02  0.1266361E+00
          1   -1    0    0  502    0  0.00000000000E+00  0.00000000000E+00  0.24061730587E+03  0.24061730587E+03  0.00000000000E+00 0. -1.
         -2   -1    0    0    0  501 -0.00000000000E+00 -0.00000000000E+00 -0.18127607304E+03  0.18127607304E+03  0.00000000000E+00 0.  1.
        -24    2    1    2    0    0  0.14989800849E+02 -0.36452014246E+02 -0.12691674933E+03  0.15609900984E+03  0.81887704460E+02 0.  0.
         23    2    1    2    0    0 -0.39344569914E+02  0.38419488944E+02  0.20624755198E+03  0.23422526020E+03  0.96433228231E+02 0.  0.
         13    1    3    3    0    0  0.62886203971E+01 -0.43365183854E+02 -0.19250808872E+02  0.47861044278E+02  0.00000000000E+00 0. -1.
        -14    1    3    3    0    0  0.87011804524E+01  0.69131696082E+01 -0.10766594045E+03  0.10823796556E+03  0.00000000000E+00 0.  1.
        -11    1    4    4    0    0 -0.32815080203E+02 -0.28591117622E+02  0.87173528586E+02  0.97434622089E+02  0.00000000000E+00 0. -1.
         11    1    4    4    0    0 -0.65294897110E+01  0.67010606566E+02  0.11907402339E+03  0.13679063811E+03  0.00000000000E+00 0.  1.
         21    1    1    2  502  501  0.24354769065E+02 -0.19674746981E+01 -0.19989569821E+02  0.31569108865E+02  0.00000000000E+00 0.  1.
<scales pt_clust_5="13000.00000" pt_clust_6="13000.00000" pt_clust_7="13000.00000" pt_clust_8="13000.00000" pt_clust_9="24.43411"></scales>
<clustering>
<clus scale="   24.434">  2  9  1 -1</clus>
<clus scale="   81.888">  5  6 -1 -1</clus>
<clus scale="   96.433">  7  8 -1 -1</clus>
<clus scale="   97.716">  2  5  1 -1</clus>
<clus scale="  110.192">  1  5  2 -1</clus>
</clustering>
</event>
<event>
 9    1  0.3846604E-005  0.8050076E+02  0.7546771E-02  0.1332739E+00
         -4   -1    0    0    0  501 -0.00000000000E+00  0.00000000000E+00  0.45762159529E+03  0.45762159529E+03  0.00000000000E+00 0.  1.
          3   -1    0    0  502    0  0.00000000000E+00 -0.00000000000E+00 -0.37928932923E+03  0.37928932923E+03  0.00000000000E+00 0. -1.
        -24    2    1    2    0    0 -0.24574364152E+02 -0.21120723242E+02  0.33229632506E+03  0.34340880820E+03  0.80366520241E+02 0.  0.
         23    2    1    2    0    0  0.28488207556E+01 -0.37445785017E+01 -0.36773994762E+03  0.37503171791E+03  0.73443738408E+02 0.  0.
         13    1    3    3    0    0 -0.24197320781E+02  0.26011896835E+02  0.19597180611E+03  0.19916595567E+03  0.00000000000E+00 0. -1.
        -14    1    3    3    0    0 -0.37704337069E+00 -0.47132620077E+02  0.13632451896E+03  0.14424285253E+03  0.00000000000E+00 0.  1.
        -13    1    4    4    0    0  0.13932601053E+02  0.32436152497E+02 -0.19830583831E+03  0.20142350128E+03  0.00000000000E+00 0.  1.
         13    1    4    4    0    0 -0.11083780297E+02 -0.36180730999E+02 -0.16943410932E+03  0.17360821663E+03  0.00000000000E+00 0. -1.
         21    1    1    2  502  501  0.21725543396E+02  0.24865301744E+02  0.11377588862E+03  0.11847039841E+03  0.00000000000E+00 0. -1.
<scales pt_clust_5="13000.00000" pt_clust_6="13000.00000" pt_clust_7="13000.00000" pt_clust_8="13000.00000" pt_clust_9="33.01943"></scales>
<clustering>
<clus scale="   33.019">  1  9  2 -1</clus>
<clus scale="   73.444">  7  8 -1 -1</clus>
<clus scale="   73.591">  2  7  1 -1</clus>
<clus scale="   80.367">  5  6 -1 -1</clus>
<clus scale="   73.591">  2  5  1 -1</clus>
</clustering>
</event>
<event>
 9    1  0.3846604E-005  0.1573737E+03  0.7546771E-02  0.1193422E+00
         -2   -1    0    0    0  501 -0.00000000000E+00  0.00000000000E+00  0.25082580260E+02  0.25082580260E+02  0.00000000000E+00 0.  1.
          1   -1    0    0  502    0  0.00000000000E+00 -0.00000000000E+00 -0.14115614479E+04  0.14115614479E+04  0.00000000000E+00 0. -1.
         23    2    1    2    0    0  0.10466256198E+03  0.94029322206E+02 -0.66777948141E+03  0.68850750235E+03  0.91199669268E+02 0.  0.
        -24    2    1    2    0    0 -0.11603508504E+03 -0.39145185341E+02 -0.58637945541E+03  0.60443486663E+03  0.80648346392E+02 0.  0.
         13    1    4    4    0    0 -0.85638009644E+02  0.40490465040E+01 -0.45178795710E+03  0.45985065146E+03  0.00000000000E+00 0. -1.
        -14    1    4    4    0    0 -0.30397075398E+02 -0.43194231845E+02 -0.13459149831E+03  0.14458421517E+03  0.00000000000E+00 0.  1.
        -13    1    3    3    0    0 -0.14123395045E+02  0.17039025411E+02 -0.49364158895E+02  0.54098233409E+02  0.00000000000E+00 0.  1.
         13    1    3    3    0    0  0.11878595703E+03  0.76990296796E+02 -0.61841532252E+03  0.63440926894E+03  0.00000000000E+00 0. -1.
         21    1    1    2  502  501  0.11372523062E+02 -0.54884136865E+02 -0.13231993079E+03  0.14370165916E+03  0.00000000000E+00 0.  1.
<scales pt_clust_5="13000.00000" pt_clust_6="13000.00000" pt_clust_7="13000.00000" pt_clust_8="13000.00000" pt_clust_9="56.05000"></scales>
<clustering>
<clus scale="   56.050">  1  9  2 -1</clus>
<clus scale="   80.648">  5  6 -1 -1</clus>
<clus scale="   91.200">  7  8 -1 -1</clus>
<clus scale="  151.503">  2  5  1 -1</clus>
<clus scale="  151.503">  2  5  1 -1</clus>
</clustering>
</event>
<event>
 9    1  0.3846604E-005  0.9985247E+02  0.7546771E-02  0.1285136E+00
          1   -1    0    0  502    0  0.00000000000E+00  0.00000000000E+00  0.37444891035E+03  0.37444891035E+03  0.00000000000E+00 0. -1.
         -2   -1    0    0    0  501 -0.00000000000E+00 -0.00000000000E+00 -0.50548741766E+02  0.50548741766E+02  0.00000000000E+00 0.  1.
        -24    2    1    2    0    0 -0.25273168008E+02  0.56592023886E+02  0.84542199869E+02  0.13277297036E+03  0.81485507360E+02 0.  0.
         23    2    1    2    0    0  0.22045313854E+02 -0.26792892615E+02  0.24335295352E+03  0.26198617700E+03  0.90621421264E+02 0.  0.
         11    1    3    3    0    0 -0.17618362319E+02  0.77796966929E+02  0.63894121052E+02  0.10220192493E+03  0.00000000000E+00 0. -1.
        -12    1    3    3    0    0 -0.76548056893E+01 -0.21204943044E+02  0.20648078816E+02  0.30571045426E+02  0.00000000000E+00 0.  1.
        -11    1    4    4    0    0  0.13225130235E+02  0.32497344146E+02  0.11678171570E+03  0.12193830641E+03  0.00000000000E+00 0. -1.
         11    1    4    4    0    0  0.88201836197E+01 -0.59290236762E+02  0.12657123782E+03  0.14004787059E+03  0.00000000000E+00 0.  1.
         21    1    1    2  502  501  0.32278541538E+01 -0.29799131271E+02 -0.39949848042E+01  0.30238504767E+02  0.00000000000E+00 0.  1.
<scales pt_clust_5="13000.00000" pt_clust_6="13000.00000" pt_clust_7="13000.00000" pt_clust_8="13000.00000" pt_clust_9="29.97344"></scales>
<clustering>
<clus scale="   29.973">  2  9  1 -1</clus>
<clus scale="   81.486">  5  6 -1 -1</clus>
<clus scale="   90.621">  7  8 -1 -1</clus>
<clus scale="   91.641">  2  5  1 -1</clus>
<clus scale="   99.852">  1  5  2 -1</clus>
</clustering>
</event>
<event>
 9    1  0.3846604E-005  0.9444615E+02  0.7546771E-02  0.1295720E+00
         -2   -1    0    0    0  501 -0.00000000000E+00  0.00000000000E+00  0.13374884477E+03  0.13374884477E+03  0.00000000000E+00 0.  1.
          1   -1    0    0  502    0  0.00000000000E+00 -0.00000000000E+00 -0.20434023321E+03  0.20434023321E+03  0.00000000000E+00 0. -1.
        -24    2    1    2    0    0 -0.29383126989E+02  0.70836283831E+02  0.49553061291E+02  0.12208570776E+03  0.81044844982E+02 0.  0.
         23    2    1    2    0    0 -0.52518894771E+01 -0.30532075314E+02 -0.13235670902E+03  0.16147674491E+03  0.87158767533E+02 0.  0.
         11    1    3    3    0    0  0.15509773093E+02  0.21687122257E+02 -0.13946788298E+02  0.30089819491E+02  0.00000000000E+00 0. -1.
        -12    1    3    3    0    0 -0.44892900081E+02  0.49149161574E+02  0.63499849589E+02  0.91995888272E+02  0.00000000000E+00 0.  1.
        -11    1    4    4    0    0  0.32989915918E+02  0.29921396446E+01 -0.87879781917E+02  0.93915619157E+02  0.00000000000E+00 0. -1.
         11    1    4    4    0    0 -0.38241805395E+02 -0.33524214959E+02 -0.44476927108E+02  0.67561125756E+02  0.00000000000E+00 0.  1.
         21    1    1    2  502  501  0.34635016466E+02 -0.40304208517E+02  0.12212259301E+02  0.54526625303E+02  0.00000000000E+00 0.  1.
<scales pt_clust_5="13000.00000" pt_clust_6="13000.00000" pt_clust_7="13000.00000" pt_clust_8="13000.00000" pt_clust_9="53.14145"></scales>
<clustering>
<clus scale="   53.141">  1  9  2 -1</clus>
<clus scale="   81.045">  5  6 -1 -1</clus>
<clus scale="   87.159">  7  8 -1 -1</clus>
<clus scale="   88.835">  1  5  2 -1</clus>
<clus scale="   94.446">  2  5  1 -1</clus>
</clustering>
</event>
<event>
 9    1  0.4138534E-005  0.9346722E+02  0.7546771E-02  0.1299193E+00
         -2   -1    0    0    0  501 -0.00000000000E+00  0.00000000000E+00  0.92550116026E+02  0.92550116026E+02  0.00000000000E+00 0.  1.
          1   -1    0    0  502    0  0.00000000000E+00 -0.00000000000E+00 -0.30736623331E+03  0.30736623331E+03  0.00000000000E+00 0. -1.
        -24    2    1    2    0    0 -0.29768462452E+02 -0.10665852986E+02  0.48780356608E+02  0.10094014965E+03  0.82519505843E+02 0.  0.
         23    2    1    2    0    0  0.22398436730E+02 -0.84403913270E+01 -0.26231119712E+03  0.27845748171E+03  0.90324275846E+02 0.  0.
         13    1    3    3    0    0  0.11489975999E+02  0.28965537512E+02  0.17094351266E+02  0.35542070241E+02  0.00000000000E+00 0. -1.
        -14    1    3    3    0    0 -0.41258438451E+02 -0.39631390498E+02  0.31686005341E+02  0.65398079412E+02  0.00000000000E+00 0.  1.
        -11    1    4    4    0    0 -0.71363892189E+01 -0.41576061328E+02 -0.18067400769E+03  0.18553326921E+03  0.00000000000E+00 0. -1.
         11    1    4    4    0    0  0.29534825949E+02  0.33135670001E+02 -0.81637189430E+02  0.92924212497E+02  0.00000000000E+00 0.  1.
         21    1    1    2  502  501  0.73700257225E+01  0.19106244313E+02 -0.12852767623E+01  0.20518717973E+02  0.00000000000E+00 0.  1.
<scales pt_clust_5="13000.00000" pt_clust_6="13000.00000" pt_clust_7="13000.00000" pt_clust_8="13000.00000" pt_clust_9="20.47842"></scales>
<clustering>
<clus scale="   20.478">  1  9  2 -1</clus>
<clus scale="   82.520">  5  6 -1 -1</clus>
<clus scale="   85.948">  1  5  2 -1</clus>
<clus scale="   90.324">  7  8 -1 -1</clus>
<clus scale="   93.467">  2  5  1 -1</clus>
</clustering>
</event>
<event>
 9    1  0.3846604E-005  0.1237874E+03  0.7546771E-02  0.1240342E+00
          1   -1    0    0  502    0  0.00000000000E+00  0.00000000000E+00  0.12027921467E+03  0.12027921467E+03  0.00000000000E+00 0. -1.
         -2   -1    0    0    0  501 -0.00000000000E+00 -0.00000000000E+00 -0.38046162454E+03  0.38046162454E+03  0.00000000000E+00 0.  1.
         23    2    1    2    0    0 -0.51867800352E+02 -0.38767058407E+02 -0.28306342122E+03  0.30409055724E+03  0.90294036574E+02 0.  0.
        -24    2    1    2    0    0  0.87726751799E+02  0.82931488948E+01  0.63823749368E+02  0.13427375307E+03  0.78684245443E+02 0.  0.
         13    1    4    4    0    0  0.78571867603E+02 -0.14460365403E+02  0.17392285262E+02  0.81762657325E+02  0.00000000000E+00 0. -1.
        -14    1    4    4    0    0  0.91548841957E+01  0.22753514298E+02  0.46431464106E+02  0.52511095747E+02  0.00000000000E+00 0.  1.
        -13    1    3    3    0    0 -0.21896263877E+02  0.63299824580E+01 -0.86392381853E+01  0.24375222791E+02  0.00000000000E+00 0. -1.
         13    1    3    3    0    0 -0.29971536475E+02 -0.45097040865E+02 -0.27442418303E+03  0.27971533445E+03  0.00000000000E+00 0.  1.
         21    1    1    2  502  501 -0.35858951447E+02  0.30473909512E+02 -0.40942738019E+02  0.62376528890E+02  0.00000000000E+00 0.  1.
<scales pt_clust_5="13000.00000" pt_clust_6="13000.00000" pt_clust_7="13000.00000" pt_clust_8="13000.00000" pt_clust_9="47.05872"></scales>
<clustering>
<clus scale="   47.059">  2  9  1 -1</clus>
<clus scale="   78.684">  5  6 -1 -1</clus>
<clus scale="   90.294">  7  8 -1 -1</clus>
<clus scale="  115.592">  1  5  2 -1</clus>
<clus scale="  115.592">  1  5  2 -1</clus>
</clustering>
</event>
<event>
 9    1  0.3846604E-005  0.1023240E+03  0.7546771E-02  0.1280785E+00
         -2   -1    0    0    0  501 -0.00000000000E+00  0.00000000000E+00  0.24731070628E+03  0.24731070628E+03  0.00000000000E+00 0.  1.
          1   -1    0    0  502    0  0.00000000000E+00 -0.00000000000E+00 -0.20769713685E+03  0.20769713685E+03  0.00000000000E+00 0. -1.
         23    2    1    2    0    0  0.61006343834E+02 -0.27439474713E+02  0.14319355350E+03  0.18218837831E+03  0.90628431898E+02 0.  0.
        -24    2    1    2    0    0 -0.15141999883E+02  0.45052117912E+02 -0.16801577122E+03  0.19179037182E+03  0.79342761840E+02 0.  0.
         13    1    4    4    0    0 -0.18340433338E+02  0.65320771938E+02 -0.14940392449E+03  0.16408749921E+03  0.00000000000E+00 0. -1.
        -14    1    4    4    0    0  0.31984334550E+01 -0.20268654026E+02 -0.18611846721E+02  0.27702872612E+02  0.00000000000E+00 0.  1.
        -11    1    3    3    0    0  0.44295782703E+01 -0.45640811694E+02  0.31390836496E+02  0.55570580991E+02  0.00000000000E+00 0.  1.
         11    1    3    3    0    0  0.56576765564E+02  0.18201336982E+02  0.11180271700E+03  0.12661779732E+03  0.00000000000E+00 0. -1.
         21    1    1    2  502  501 -0.45864343951E+02 -0.17612643200E+02  0.64435787145E+02  0.81029092994E+02  0.00000000000E+00 0. -1.
<scales pt_clust_5="13000.00000" pt_clust_6="13000.00000" pt_clust_7="13000.00000" pt_clust_8="13000.00000" pt_clust_9="49.12986"></scales>
<clustering>
<clus scale="   49.130">  1  9  2 -1</clus>
<clus scale="   79.343">  5  6 -1 -1</clus>
<clus scale="   90.628">  7  8 -1 -1</clus>
<clus scale="   92.477">  2  5  1 -1</clus>
<clus scale="   92.477">  2  5  1 -1</clus>
</clustering>
</event>
<event>
 9    1  0.3846604E-005  0.1219092E+03  0.7546771E-02  0.1242593E+00
         -4   -1    0    0    0  501 -0.00000000000E+00  0.00000000000E+00  0.28924756146E+03  0.28924756146E+03  0.00000000000E+00 0.  1.
          3   -1    0    0  502    0  0.00000000000E+00 -0.00000000000E+00 -0.80386662391E+02  0.80386662391E+02  0.00000000000E+00 0. -1.
        -24    2    1    2    0    0 -0.57984846020E+02  0.18732963040E+02  0.10763631617E+03  0.14774871685E+03  0.80814234510E+02 0.  0.
         23    2    1    2    0    0  0.99495457304E+02  0.99989373537E+01  0.35234818482E+02  0.13879939530E+03  0.89579322005E+02 0.  0.
         11    1    3    3    0    0  0.19226309870E+02  0.14135673496E+02  0.25011540055E+02  0.34569428579E+02  0.00000000000E+00 0. -1.
        -12    1    3    3    0    0 -0.77211155889E+02  0.45972895439E+01  0.82624776118E+02  0.11317928827E+03  0.00000000000E+00 0.  1.
        -13    1    4    4    0    0  0.42483207356E+02 -0.40050243856E+02  0.14823457371E+02  0.60237694417E+02  0.00000000000E+00 0.  1.
         13    1    4    4    0    0  0.57012249948E+02  0.50049181210E+02  0.20411361111E+02  0.78561700887E+02  0.00000000000E+00 0. -1.
         21    1    1    2  502  501 -0.41510611285E+02 -0.28731900394E+02  0.65989764417E+02  0.83086111700E+02  0.00000000000E+00 0.  1.
<scales pt_clust_5="13000.00000" pt_clust_6="13000.00000" pt_clust_7="13000.00000" pt_clust_8="13000.00000" pt_clust_9="50.48419"></scales>
<clustering>
<clus scale="   50.484">  1  9  2 -1</clus>
<clus scale="   80.814">  5  6 -1 -1</clus>
<clus scale="   89.579">  7  8 -1 -1</clus>
<clus scale="  115.621">  1  5  2 -1</clus>
<clus scale="  121.909">  2  5  1 -1</clus>
</clustering>
</event>
<event>
 9    1  0.3846604E-005  0.9563504E+02  0.7546771E-02  0.1296234E+00
          1   -1    0    0  502    0  0.00000000000E+00  0.00000000000E+00  0.15256171135E+04  0.15256171135E+04  0.00000000000E+00 0. -1.
         -2   -1    0    0    0  501 -0.00000000000E+00 -0.00000000000E+00 -0.27976287111E+02  0.27976287111E+02  0.00000000000E+00 0.  1.
         23    2    1    2    0    0  0.85211474878E+01  0.27247052691E+02  0.75905589839E+02  0.12294630539E+03  0.92407378516E+02 0.  0.
        -24    2    1    2    0    0  0.46473840484E+02  0.36644654999E+01  0.97557343269E+03  0.98004713308E+03  0.81090161789E+02 0.  0.
         13    1    4    4    0    0  0.21133333259E+02 -0.31345212339E+02  0.21889297374E+03  0.22213346003E+03  0.00000000000E+00 0. -1.
        -14    1    4    4    0    0  0.25340507226E+02  0.35009677839E+02  0.75668045895E+03  0.75791367305E+03  0.00000000000E+00 0.  1.
        -11    1    3    3    0    0  0.21918969819E+02 -0.27580731797E+02  0.10943929745E+02  0.36890481193E+02  0.00000000000E+00 0. -1.
         11    1    3    3    0    0 -0.13397822332E+02  0.54827784489E+02  0.64961660094E+02  0.86055824192E+02  0.00000000000E+00 0.  1.
         21    1    1    2  502  501 -0.54994987972E+02 -0.30911518191E+02  0.44616180390E+03  0.45059996219E+03  0.00000000000E+00 0. -1.
<scales pt_clust_5="13000.00000" pt_clust_6="13000.00000" pt_clust_7="13000.00000" pt_clust_8="13000.00000" pt_clust_9="63.08701"></scales>
<clustering>
<clus scale="   63.087">  1  9  2 -1</clus>
<clus scale="   81.090">  5  6 -1 -1</clus>
<clus scale="   84.750">  1  5  2 -1</clus>
<clus scale="   92.407">  7  8 -1 -1</clus>
<clus scale="   63.087">  1  5  2 -1</clus>
</clustering>
</event>
<event>
 9    1  0.3846604E-005  0.4279031E+03  0.7546771E-02  0.1034616E+00
          1   -1    0    0  502    0  0.00000000000E+00  0.00000000000E+00  0.10832749036E+04  0.10832749036E+04  0.00000000000E+00 0. -1.
         -2   -1    0    0    0  501 -0.00000000000E+00 -0.00000000000E+00 -0.48921374515E+03  0.48921374515E+03  0.00000000000E+00 0.  1.
         23    2    1    2    0    0  0.41712197622E+03  0.13613800601E+03 -0.22301331905E+03  0.49999329693E+03  0.87943486267E+02 0.  0.
        -24    2    1    2    0    0 -0.39891767369E+03 -0.11849952533E+03  0.89506507559E+03  0.99048897382E+03  0.82155157175E+02 0.  0.
         11    1    4    4    0    0 -0.24375928502E+03 -0.37805982497E+02  0.57693926089E+03  0.62746059008E+03  0.00000000000E+00 0. -1.
        -12    1    4    4    0    0 -0.15515838867E+03 -0.80693542833E+02  0.31812581470E+03  0.36302838375E+03  0.00000000000E+00 0.  1.
        -13    1    3    3    0    0  0.34333517888E+03  0.91855001144E+02 -0.21039980609E+03  0.41301872196E+03  0.00000000000E+00 0.  1.
         13    1    3    3    0    0  0.73786797340E+02  0.44283004865E+02 -0.12613512966E+02  0.86974574968E+02  0.00000000000E+00 0. -1.
         21    1    1    2  502  501 -0.18204302535E+02 -0.17638480680E+02 -0.77990598114E+02  0.82006377958E+02  0.00000000000E+00 0.  1.
<scales pt_clust_5="13000.00000" pt_clust_6="13000.00000" pt_clust_7="13000.00000" pt_clust_8="13000.00000" pt_clust_9="25.34783"></scales>
<clustering>
<clus scale="   25.348">  2  9  1 -1</clus>
<clus scale="   82.155">  5  6 -1 -1</clus>
<clus scale="   87.943">  7  8 -1 -1</clus>
<clus scale="  426.751">  1  5  2 -1</clus>
<clus scale="  426.751">  1  5  2 -1</clus>
</clustering>
</event>
<event>
 9    1  0.3846604E-005  0.1205294E+03  0.7546771E-02  0.1247347E+00
         -2   -1    0    0    0  501 -0.00000000000E+00  0.00000000000E+00  0.12421150306E+03  0.12421150306E+03  0.00000000000E+00 0.  1.
          1   -1    0    0  502    0  0.00000000000E+00 -0.00000000000E+00 -0.22743879204E+03  0.22743879204E+03  0.00000000000E+00 0. -1.
         23    2    1    2    0    0 -0.27696478886E+02  0.12151058596E+02  0.44691738633E+02  0.10905837842E+03  0.94771489561E+02 0.  0.
        -24    2    1    2    0    0  0.56294374014E+02 -0.68164903251E+02 -0.13239855947E+03  0.17781325253E+03  0.79200149257E+02 0.  0.
         13    1    4    4    0    0  0.43100007179E+02 -0.85094605238E+02 -0.94580288686E+02  0.13432845368E+03  0.00000000000E+00 0. -1.
        -14    1    4    4    0    0  0.13194366835E+02  0.16929701987E+02 -0.37818270787E+02  0.43484798848E+02  0.00000000000E+00 0.  1.
        -13    1    3    3    0    0 -0.31429970363E+02  0.47276329416E+02  0.46940901640E+02  0.73663712959E+02  0.00000000000E+00 0.  1.
         13    1    3    3    0    0  0.37334914769E+01 -0.35125270820E+02 -0.22491630070E+01  0.35394665460E+02  0.00000000000E+00 0. -1.
         21    1    1    2  502  501 -0.28597895128E+02  0.56013844655E+02 -0.15520468145E+02  0.64778664159E+02  0.00000000000E+00 0. -1.
<scales pt_clust_5="13000.00000" pt_clust_6="13000.00000" pt_clust_7="13000.00000" pt_clust_8="13000.00000" pt_clust_9="62.89189"></scales>
<clustering>
<clus scale="   62.892">  1  9  2 -1</clus>
<clus scale="   79.200">  5  6 -1 -1</clus>
<clus scale="   94.771">  7  8 -1 -1</clus>
<clus scale="  108.712">  2  5  1 -1</clus>
<clus scale="  108.712">  2  5  1 -1</clus>
</clustering>
</event>
<event>
 9    1  0.3846604E-005  0.1052343E+03  0.7546771E-02  0.1274412E+00
         -2   -1    0    0    0  501 -0.00000000000E+00  0.00000000000E+00  0.17757985372E+03  0.17757985372E+03  0.00000000000E+00 0.  1.
          1   -1    0    0  502    0  0.00000000000E+00 -0.00000000000E+00 -0.35423799687E+03  0.35423799687E+03  0.00000000000E+00 0. -1.
         23    2    1    2    0    0 -0.59508450926E+02 -0.28895743778E+02  0.11730379876E+03  0.15181335140E+03  0.70077761946E+02 0.  0.
        -24    2    1    2    0    0  0.47486706361E+02  0.45546015793E+02 -0.32564030318E+03  0.34225171819E+03  0.82250864488E+02 0.  0.
         11    1    4    4    0    0 -0.13788331545E+02  0.41349567466E+02 -0.14857293182E+03  0.15483481807E+03  0.00000000000E+00 0. -1.
        -12    1    4    4    0    0  0.61275037906E+02  0.41964483273E+01 -0.17706737136E+03  0.18741690012E+03  0.00000000000E+00 0.  1.
        -13    1    3    3    0    0 -0.21636389988E+02  0.11352066357E+02  0.27024179439E+01  0.24582632996E+02  0.00000000000E+00 0. -1.
         13    1    3    3    0    0 -0.37872060938E+02 -0.40247810135E+02  0.11460138082E+03  0.12723071841E+03  0.00000000000E+00 0.  1.
         21    1    1    2  502  501  0.12021744565E+02 -0.16650272015E+02  0.31678361269E+02  0.37752781000E+02  0.00000000000E+00 0.  1.
<scales pt_clust_5="13000.00000" pt_clust_6="13000.00000" pt_clust_7="13000.00000" pt_clust_8="13000.00000" pt_clust_9="20.53665"></scales>
<clustering>
<clus scale="   20.537">  1  9  2 -1</clus>
<clus scale="   70.078">  7  8 -1 -1</clus>
<clus scale="   82.251">  5  6 -1 -1</clus>
<clus scale="   96.021">  1  7  2 -1</clus>
<clus scale="  105.234">  2  5  1 -1</clus>
</clustering>
</event>
<event>
 9    1  0.3846604E-005  0.2295783E+03  0.7546771E-02  0.1127662E+00
         -2   -1    0    0    0  501 -0.00000000000E+00  0.00000000000E+00  0.17086683723E+03  0.17086683723E+03  0.00000000000E+00 0.  1.
          1   -1    0    0  502    0  0.00000000000E+00 -0.00000000000E+00 -0.61194091390E+03  0.61194091390E+03  0.00000000000E+00 0. -1.
         23    2    1    2    0    0 -0.93090770300E+02 -0.11375375326E+03  0.25732429011E+02  0.17488838751E+03  0.91202973028E+02 0.  0.
        -24    2    1    2    0    0  0.16037597829E+03  0.16473764101E+03 -0.46330500024E+03  0.52342725414E+03  0.80409093710E+02 0.  0.
         11    1    4    4    0    0  0.16024826574E+03  0.12529729208E+03 -0.40189749636E+03  0.45044479757E+03  0.00000000000E+00 0. -1.
        -12    1    4    4    0    0  0.12771254507E+00  0.39440348936E+02 -0.61407503886E+02  0.72982456578E+02  0.00000000000E+00 0.  1.
        -11    1    3    3    0    0 -0.55902825885E+02 -0.66986508182E+02 -0.30904834801E+02  0.92560396685E+02  0.00000000000E+00 0. -1.
         11    1    3    3    0    0 -0.37187944415E+02 -0.46767245075E+02  0.56637263812E+02  0.82327990829E+02  0.00000000000E+00 0.  1.
         21    1    1    2  502  501 -0.67285207986E+02 -0.50983887758E+02 -0.35015054371E+01  0.84492109483E+02  0.00000000000E+00 0. -1.
<scales pt_clust_5="13000.00000" pt_clust_6="13000.00000" pt_clust_7="13000.00000" pt_clust_8="13000.00000" pt_clust_9="84.41952"></scales>
<clustering>
<clus scale="   80.409">  5  6 -1 -1</clus>
<clus scale="   84.420">  1  9  2 -1</clus>
<clus scale="   91.203">  7  8 -1 -1</clus>
<clus scale="  225.508">  2  5  1 -1</clus>
<clus scale="  225.508">  2  5  1 -1</clus>
</clustering>
</event>
<event>
 9    1  0.3846604E-005  0.9756712E+02  0.7546771E-02  0.1290097E+00
         -2   -1    0    0    0  501 -0.00000000000E+00  0.00000000000E+00  0.26424896352E+03  0.26424896352E+03  0.00000000000E+00 0.  1.
          1   -1    0    0  502    0  0.00000000000E+00 -0.00000000000E+00 -0.87442899675E+02  0.87442899675E+02  0.00000000000E+00 0. -1.
        -24    2    1    2    0    0  0.51164403562E+02 -0.16314560543E+02  0.18986130272E+03  0.21349190081E+03  0.81532302579E+02 0.  0.
         23    2    1    2    0    0 -0.27524442488E+02  0.20837721621E+02 -0.37664360183E+02  0.10377735938E+03  0.90329013699E+02 0.  0.
         11    1    3    3    0    0  0.17736825478E+01 -0.35051796211E+02  0.33773993263E+02  0.48707873987E+02  0.00000000000E+00 0. -1.
        -12    1    3    3    0    0  0.49390721014E+02  0.18737235668E+02  0.15608730946E+03  0.16478402683E+03  0.00000000000E+00 0.  1.
        -11    1    4    4    0    0 -0.10743550048E+02  0.52089737524E+02 -0.16273283003E+01  0.53211021606E+02  0.00000000000E+00 0.  1.
         11    1    4    4    0    0 -0.16780892440E+02 -0.31252015904E+02 -0.36037031883E+02  0.50566337776E+02  0.00000000000E+00 0. -1.
         21    1    1    2  502  501 -0.23639961075E+02 -0.45231610774E+01  0.24609121299E+02  0.34422602994E+02  0.00000000000E+00 0. -1.
<scales pt_clust_5="13000.00000" pt_clust_6="13000.00000" pt_clust_7="13000.00000" pt_clust_8="13000.00000" pt_clust_9="24.06879"></scales>
<clustering>
<clus scale="   24.069">  1  9  2 -1</clus>
<clus scale="   81.532">  5  6 -1 -1</clus>
<clus scale="   89.485">  1  5  2 -1</clus>
<clus scale="   90.329">  7  8 -1 -1</clus>
<clus scale="   97.567">  2  5  1 -1</clus>
</clustering>
</event>
<event>
 9    1  0.3846604E-005  0.1202555E+03  0.7546771E-02  0.1245826E+00
         -2   -1    0    0    0  501 -0.00000000000E+00  0.00000000000E+00  0.28312692806E+03  0.28312692806E+03  0.00000000000E+00 0.  1.
          1   -1    0    0  502    0  0.00000000000E+00 -0.00000000000E+00 -0.10907831698E+03  0.10907831698E+03  0.00000000000E+00 0. -1.
         23    2    1    2    0    0  0.45472312859E+02 -0.68965905621E+01  0.17582555861E+03  0.20408995505E+03  0.92858970997E+02 0.  0.
        -24    2    1    2    0    0 -0.68337529736E+02  0.48960066611E+02 -0.42175376874E+02  0.12547195631E+03  0.83050245711E+02 0.  0.
         11    1    4    4    0    0 -0.84649840639E+02  0.39032829846E+02 -0.48854221891E+02  0.10524206537E+03  0.00000000000E+00 0. -1.
        -12    1    4    4    0    0  0.16312310903E+02  0.99272367644E+01  0.66788450170E+01  0.20229890942E+02  0.00000000000E+00 0.  1.
        -11    1    3    3    0    0 -0.71282086951E+00  0.25964814069E+02  0.12591158580E+03  0.12856285281E+03  0.00000000000E+00 0.  1.
         11    1    3    3    0    0  0.46185133729E+02 -0.32861404631E+02  0.49913972810E+02  0.75527102245E+02  0.00000000000E+00 0. -1.
         21    1    1    2  502  501  0.22865216876E+02 -0.42063476049E+02  0.40398429341E+02  0.62643333670E+02  0.00000000000E+00 0.  1.
<scales pt_clust_5="13000.00000" pt_clust_6="13000.00000" pt_clust_7="13000.00000" pt_clust_8="13000.00000" pt_clust_9="47.87645"></scales>
<clustering>
<clus scale="   47.876">  1  9  2 -1</clus>
<clus scale="   83.050">  5  6 -1 -1</clus>
<clus scale="   92.859">  7  8 -1 -1</clus>
<clus scale="  112.854">  2  5  1 -1</clus>
<clus scale="  112.854">  2  5  1 -1</clus>
</clustering>
</event>
<event>
 9    1  0.3846604E-005  0.1142518E+03  0.7546771E-02  0.1253999E+00
         -2   -1    0    0    0  501 -0.00000000000E+00  0.00000000000E+00  0.42789220142E+03  0.42789220142E+03  0.00000000000E+00 0.  1.
          1   -1    0    0  502    0  0.00000000000E+00 -0.00000000000E+00 -0.11733482852E+03  0.11733482852E+03  0.00000000000E+00 0. -1.
         23    2    1    2    0    0  0.30552632434E+02  0.31305352035E+02  0.24340898558E+03  0.26318985807E+03  0.90041538833E+02 0.  0.
        -24    2    1    2    0    0 -0.50019819127E+02 -0.53907221840E+02 -0.75318266349E+02  0.13648112327E+03  0.86869355308E+02 0.  0.
         11    1    4    4    0    0 -0.27097209777E+02 -0.41020712569E+02 -0.92720524152E+02  0.10494785961E+03  0.00000000000E+00 0. -1.
        -12    1    4    4    0    0 -0.22922609350E+02 -0.12886509271E+02  0.17402257803E+02  0.31533263663E+02  0.00000000000E+00 0.  1.
        -13    1    3    3    0    0  0.47112112834E+02  0.99896136558E+01  0.22599134382E+03  0.23106585866E+03  0.00000000000E+00 0. -1.
         13    1    3    3    0    0 -0.16559480400E+02  0.21315738379E+02  0.17417641764E+02  0.32123999414E+02  0.00000000000E+00 0.  1.
         21    1    1    2  502  501  0.19467186693E+02  0.22601869805E+02  0.14246665367E+03  0.14555604860E+03  0.00000000000E+00 0. -1.
<scales pt_clust_5="13000.00000" pt_clust_6="13000.00000" pt_clust_7="13000.00000" pt_clust_8="13000.00000" pt_clust_9="29.82978"></scales>
<clustering>
<clus scale="   29.830">  1  9  2 -1</clus>
<clus scale="   86.869">  5  6 -1 -1</clus>
<clus scale="   90.042">  7  8 -1 -1</clus>
<clus scale="  111.769">  2  5  1 -1</clus>
<clus scale="  111.769">  2  5  1 -1</clus>
</clustering>
</event>
<event>
 9    1  0.5467401E-005  0.1123225E+03  0.7546771E-02  0.1260443E+00
          1   -1    0    0  502    0  0.00000000000E+00  0.00000000000E+00  0.62365533007E+03  0.62365533007E+03  0.00000000000E+00 0. -1.
         -2   -1    0    0    0  501 -0.00000000000E+00 -0.00000000000E+00 -0.67166349612E+02  0.67166349612E+02  0.00000000000E+00 0.  1.
        -24    2    1    2    0    0  0.77091297394E+02 -0.27157517429E+02  0.30061927287E+01  0.11470937574E+03  0.80427637045E+02 0.  0.
         23    2    1    2    0    0 -0.52949466399E+02  0.35570914303E+02  0.52933471217E+03  0.54094494971E+03  0.91418079027E+02 0.  0.
         13    1    3    3    0    0  0.38489493088E+02 -0.27990654972E+01  0.40277092202E+02  0.55781000368E+02  0.00000000000E+00 0. -1.
        -14    1    3    3    0    0  0.38601804306E+02 -0.24358451932E+02 -0.37270899473E+02  0.58928375370E+02  0.00000000000E+00 0.  1.
        -11    1    4    4    0    0 -0.10283975087E+02 -0.30057218220E+02  0.11644471984E+03  0.12070032845E+03  0.00000000000E+00 0.  1.
         11    1    4    4    0    0 -0.42665491313E+02  0.65628132523E+02  0.41288999233E+03  0.42024462126E+03  0.00000000000E+00 0. -1.
         21    1    1    2  502  501 -0.24141830994E+02 -0.84133968738E+01  0.24148075564E+02  0.35167354239E+02  0.00000000000E+00 0.  1.
<scales pt_clust_5="13000.00000" pt_clust_6="13000.00000" pt_clust_7="13000.00000" pt_clust_8="13000.00000" pt_clust_9="25.56586"></scales>
<clustering>
<clus scale="   25.566">  2  9  1 -1</clus>
<clus scale="   80.428">  5  6 -1 -1</clus>
<clus scale="   91.418">  7  8 -1 -1</clus>
<clus scale="  103.575">  2  5  1 -1</clus>
<clus scale="  112.323">  1  5  2 -1</clus>
</clustering>
</event>
<event>
 9    1  0.3846604E-005  0.1595526E+03  0.7546771E-02  0.1191976E+00
          1   -1    0    0  502    0  0.00000000000E+00  0.00000000000E+00  0.10477543445E+04  0.10477543445E+04  0.00000000000E+00 0. -1.
         -2   -1    0    0    0  501 -0.00000000000E+00 -0.00000000000E+00 -0.53851463434E+02  0.53851463434E+02  0.00000000000E+00 0.  1.
        -24    2    1    2    0    0 -0.81384958184E+02 -0.88670075132E+02  0.92092476256E+02  0.16804583221E+03  0.72611871605E+02 0.  0.
         23    2    1    2    0    0  0.10835991184E+03  0.78584075771E+02  0.88616860056E+03  0.90078740264E+03  0.90586029127E+02 0.  0.
         13    1    3    3    0    0 -0.64184160013E+02 -0.27702592341E+02  0.74796802499E+02  0.10237969370E+03  0.00000000000E+00 0. -1.
        -14    1    3    3    0    0 -0.17200798172E+02 -0.60967482791E+02  0.17295673756E+02  0.65666138506E+02  0.00000000000E+00 0.  1.
        -11    1    4    4    0    0  0.75707834688E+02  0.97805621771E+02  0.66839062927E+03  0.67973792684E+03  0.00000000000E+00 0. -1.
         11    1    4    4    0    0  0.32652077155E+02 -0.19221545999E+02  0.21777797129E+03  0.22104947580E+03  0.00000000000E+00 0.  1.
         21    1    1    2  502  501 -0.26974953658E+02  0.10085999361E+02  0.15641804297E+02  0.32772573131E+02  0.00000000000E+00 0.  1.
<scales pt_clust_5="13000.00000" pt_clust_6="13000.00000" pt_clust_7="13000.00000" pt_clust_8="13000.00000" pt_clust_9="28.79888"></scales>
<clustering>
<clus scale="   28.799">  2  9  1 -1</clus>
<clus scale="   72.612">  5  6 -1 -1</clus>
<clus scale="   90.586">  7  8 -1 -1</clus>
<clus scale="  150.079">  2  5  1 -1</clus>
<clus scale="  159.553">  1  5  2 -1</clus>
</clustering>
</event>
<event>
 9    1  0.3846604E-005  0.1051205E+03  0.7546771E-02  0.1274989E+00
          1   -1    0    0  502    0  0.00000000000E+00  0.00000000000E+00  0.87568268513E+02  0.87568268513E+02  0.00000000000E+00 0. -1.
         -2   -1    0    0    0  501 -0.00000000000E+00 -0.00000000000E+00 -0.16308732703E+03  0.16308732703E+03  0.00000000000E+00 0.  1.
         23    2    1    2    0    0 -0.43222512907E+01  0.50027453618E+02 -0.40585625441E+02  0.11176571072E+03  0.91230220483E+02 0.  0.
        -24    2    1    2    0    0 -0.15650189741E+02 -0.52591830839E+02  0.20611362845E+01  0.96770143681E+02  0.79683017735E+02 0.  0.
         11    1    4    4    0    0 -0.29884282483E+02 -0.49933760925E+02  0.29874216316E+02  0.65413451370E+02  0.00000000000E+00 0. -1.
        -12    1    4    4    0    0  0.14234092742E+02 -0.26580699141E+01 -0.27813080031E+02  0.31356692311E+02  0.00000000000E+00 0.  1.
        -11    1    3    3    0    0 -0.18860014040E+02 -0.17588761026E+02 -0.33450214265E+02  0.42237204907E+02  0.00000000000E+00 0.  1.
         11    1    3    3    0    0  0.14537762749E+02  0.67616214644E+02 -0.71354111763E+01  0.69528505817E+02  0.00000000000E+00 0. -1.
         21    1    1    2  502  501  0.19972441032E+02  0.25643772209E+01 -0.36994569362E+02  0.42119741138E+02  0.00000000000E+00 0. -1.
<scales pt_clust_5="13000.00000" pt_clust_6="13000.00000" pt_clust_7="13000.00000" pt_clust_8="13000.00000" pt_clust_9="20.13640"></scales>
<clustering>
<clus scale="   20.136">  2  9  1 -1</clus>
<clus scale="   79.683">  5  6 -1 -1</clus>
<clus scale="   91.230">  7  8 -1 -1</clus>
<clus scale="   95.272">  1  5  2 -1</clus>
<clus scale="   95.272">  1  5  2 -1</clus>
</clustering>
</event>
<event>
 9    1  0.3846604E-005  0.9354725E+02  0.7546771E-02  0.1299901E+00
          3   -1    0    0  502    0  0.00000000000E+00  0.00000000000E+00  0.13445692914E+03  0.13445692914E+03  0.00000000000E+00 0. -1.
         -4   -1    0    0    0  501 -0.00000000000E+00 -0.00000000000E+00 -0.23641917859E+03  0.23641917859E+03  0.00000000000E+00 0.  1.
        -24    2    1    2    0    0  0.38970932262E+01 -0.58291174029E+01 -0.10394606846E+02  0.82933375237E+02  0.81980064231E+02 0.  0.
         23    2    1    2    0    0 -0.12921857802E+02  0.24773271700E+02  0.74218136590E+02  0.12083422900E+03  0.91169565638E+02 0.  0.
         13    1    3    3    0    0  0.12088392676E+02  0.31596585172E+02  0.14961576051E+02  0.36990839270E+02  0.00000000000E+00 0. -1.
        -14    1    3    3    0    0 -0.81912994495E+01 -0.37425702575E+02 -0.25356182897E+02  0.45942535966E+02  0.00000000000E+00 0.  1.
        -13    1    4    4    0    0  0.58132101941E+01  0.38030269981E+02  0.86596545446E+02  0.94757883739E+02  0.00000000000E+00 0. -1.
         13    1    4    4    0    0 -0.18735067996E+02 -0.13256998281E+02 -0.12378408855E+02  0.26076345258E+02  0.00000000000E+00 0.  1.
         21    1    1    2  502  501  0.90247645754E+01 -0.18944154297E+02 -0.16578577919E+03  0.16710850349E+03  0.00000000000E+00 0.  1.
<scales pt_clust_5="13000.00000" pt_clust_6="13000.00000" pt_clust_7="13000.00000" pt_clust_8="13000.00000" pt_clust_9="20.98398"></scales>
<clustering>
<clus scale="   20.984">  2  9  1 -1</clus>
<clus scale="   81.980">  5  6 -1 -1</clus>
<clus scale="   84.616">  2  5  1 -1</clus>
<clus scale="   91.170">  7  8 -1 -1</clus>
<clus scale="   93.547">  1  5  2 -1</clus>
</clustering>
</event>
<event>
 9    1  0.3846604E-005  0.2981227E+03  0.7546771E-02  0.1086520E+00
         -2   -1    0    0    0  501 -0.00000000000E+00  0.00000000000E+00  0.18713999289E+03  0.18713999289E+03  0.00000000000E+00 0.  1.
          1   -1    0    0  502    0  0.00000000000E+00 -0.00000000000E+00 -0.15036492909E+04  0.15036492909E+04  0.00000000000E+00 0. -1.
         23    2    1    2    0    0 -0.12712984399E+03  0.18512086962E+03  0.31926252426E+02  0.24411115436E+03  0.90217717148E+02 0.  0.
        -24    2    1    2    0    0  0.20723890494E+03 -0.20564958539E+03 -0.13271350429E+04  0.13612813998E+04  0.80993281610E+02 0.  0.
         11    1    4    4    0    0  0.54127738441E+02 -0.10681596411E+03 -0.58116358579E+03  0.59337220672E+03  0.00000000000E+00 0. -1.
        -12    1    4    4    0    0  0.15311116649E+03 -0.98833621277E+02 -0.74597145710E+03  0.76790919308E+03  0.00000000000E+00 0.  1.
        -11    1    3    3    0    0 -0.45797583437E+02  0.70044196173E+02  0.56627150961E+02  0.10104574356E+03  0.00000000000E+00 0.  1.
         11    1    3    3    0    0 -0.81332260555E+02  0.11507667344E+03 -0.24700898535E+02  0.14306541080E+03  0.00000000000E+00 0. -1.
         21    1    1    2  502  501 -0.80109060944E+02  0.20528715771E+02 -0.21300507594E+02  0.85396729682E+02  0.00000000000E+00 0. -1.
<scales pt_clust_5="13000.00000" pt_clust_6="13000.00000" pt_clust_7="13000.00000" pt_clust_8="13000.00000" pt_clust_9="82.69758"></scales>
<clustering>
<clus scale="   80.993">  5  6 -1 -1</clus>
<clus scale="   82.698">  1  9  2 -1</clus>
<clus scale="   90.218">  7  8 -1 -1</clus>
<clus scale="  295.462">  2  5  1 -1</clus>
<clus scale="  295.462">  2  5  1 -1</clus>
</clustering>
</event>
<event>
 9    1  0.3846604E-005  0.9493711E+02  0.7546771E-02  0.1297828E+00
         -2   -1    0    0    0  501 -0.00000000000E+00  0.00000000000E+00  0.84985318735E+02  0.84985318735E+02  0.00000000000E+00 0.  1.
          1   -1    0    0  502    0  0.00000000000E+00 -0.00000000000E+00 -0.33048446313E+03  0.33048446313E+03  0.00000000000E+00 0. -1.
         23    2    1    2    0    0 -0.57342970252E+01  0.34206171616E+02  0.23411965705E+02  0.10045708822E+03  0.91326677901E+02 0.  0.
        -24    2    1    2    0    0  0.20178331531E+02 -0.16150624321E+02 -0.27779528022E+03  0.29024252208E+03  0.80015599608E+02 0.  0.
         13    1    4    4    0    0  0.43441488297E+02  0.12044302466E+02 -0.18718958263E+03  0.19254134095E+03  0.00000000000E+00 0. -1.
        -14    1    4    4    0    0 -0.23263156766E+02 -0.28194926787E+02 -0.90605697586E+02  0.97701181130E+02  0.00000000000E+00 0.  1.
        -11    1    3    3    0    0  0.13612279083E+02  0.19466115550E+02  0.55397106514E+02  0.60274896985E+02  0.00000000000E+00 0.  1.
         11    1    3    3    0    0 -0.19346576108E+02  0.14740056067E+02 -0.31985140809E+02  0.40182191236E+02  0.00000000000E+00 0. -1.
         21    1    1    2  502  501 -0.14444034506E+02 -0.18055547295E+02  0.88841701156E+01  0.24770171569E+02  0.00000000000E+00 0.  1.
<scales pt_clust_5="13000.00000" pt_clust_6="13000.00000" pt_clust_7="13000.00000" pt_clust_8="13000.00000" pt_clust_9="23.12213"></scales>
<clustering>
<clus scale="   23.122">  1  9  2 -1</clus>
<clus scale="   80.016">  5  6 -1 -1</clus>
<clus scale="   84.113">  2  5  1 -1</clus>
<clus scale="   91.327">  7  8 -1 -1</clus>
<clus scale="   84.113">  2  5  1 -1</clus>
</clustering>
</event>
<event>
 9    1  0.3846604E-005  0.9707749E+02  0.7546771E-02  0.1292034E+00
         -2   -1    0    0    0  501 -0.00000000000E+00  0.00000000000E+00  0.59938040792E+03  0.59938040792E+03  0.00000000000E+00 0.  1.
          1   -1    0    0  502    0  0.00000000000E+00 -0.00000000000E+00 -0.44568593067E+02  0.44568593067E+02  0.00000000000E+00 0. -1.
        -24    2    1    2    0    0  0.29727323819E+02  0.65089003708E+01  0.44566877813E+03  0.45426386967E+03  0.82516204019E+02 0.  0.
         23    2    1    2    0    0 -0.16512231700E+02 -0.25512491071E+02  0.22403653030E+02  0.99910436645E+02  0.92502057735E+02 0.  0.
         11    1    3    3    0    0  0.36900117706E+02  0.86628032421E+01  0.80067912750E+02  0.88586305369E+02  0.00000000000E+00 0. -1.
        -12    1    3    3    0    0 -0.71727938868E+01 -0.21539028712E+01  0.36560086538E+03  0.36567756430E+03  0.00000000000E+00 0.  1.
        -13    1    4    4    0    0 -0.88205493516E+01 -0.51531175022E+02 -0.14362025848E+02  0.54217449926E+02  0.00000000000E+00 0. -1.
         13    1    4    4    0    0 -0.76916823481E+01  0.26018683951E+02  0.36765678879E+02  0.45692986719E+02  0.00000000000E+00 0.  1.
         21    1    1    2  502  501 -0.13215092119E+02  0.19003590701E+02  0.86739383701E+02  0.89774694675E+02  0.00000000000E+00 0. -1.
<scales pt_clust_5="13000.00000" pt_clust_6="13000.00000" pt_clust_7="13000.00000" pt_clust_8="13000.00000" pt_clust_9="23.14682"></scales>
<clustering>
<clus scale="   23.147">  1  9  2 -1</clus>
<clus scale="   82.516">  5  6 -1 -1</clus>
<clus scale="   87.615">  1  5  2 -1</clus>
<clus scale="   92.502">  7  8 -1 -1</clus>
<clus scale="   97.077">  2  5  1 -1</clus>
</clustering>
</event>
<event>
 9    1  0.3846604E-005  0.1212881E+03  0.7546771E-02  0.1243837E+00
         -2   -1    0    0    0  501 -0.00000000000E+00  0.00000000000E+00  0.27665479039E+03  0.27665479039E+03  0.00000000000E+00 0.  1.
          1   -1    0    0  502    0  0.00000000000E+00 -0.00000000000E+00 -0.15233831342E+03  0.15233831342E+03  0.00000000000E+00 0. -1.
        -24    2    1    2    0    0  0.92311290770E+01 -0.84259350078E+02  0.22252081157E+03  0.25125690592E+03  0.80185219149E+02 0.  0.
         23    2    1    2    0    0  0.15156762986E+02  0.58741986573E+02 -0.91693564649E+02  0.14184336790E+03  0.89618540318E+02 0.  0.
         13    1    3    3    0    0 -0.28445127317E+02 -0.20689701854E+02  0.11884813126E+03  0.12394380717E+03  0.00000000000E+00 0. -1.
        -14    1    3    3    0    0  0.37676256394E+02 -0.63569648224E+02  0.10367268032E+03  0.12731309876E+03  0.00000000000E+00 0.  1.
        -13    1    4    4    0    0 -0.31365765417E+02  0.15795012407E+02 -0.65261971602E+01  0.35719531163E+02  0.00000000000E+00 0.  1.
         13    1    4    4    0    0  0.46522528403E+02  0.42946974166E+02 -0.85167367488E+02  0.10612383674E+03  0.00000000000E+00 0. -1.
         21    1    1    2  502  501 -0.24387892063E+02  0.25517363505E+02 -0.65107699594E+01  0.35892829994E+02  0.00000000000E+00 0. -1.
<scales pt_clust_5="13000.00000" pt_clust_6="13000.00000" pt_clust_7="13000.00000" pt_clust_8="13000.00000" pt_clust_9="35.29738"></scales>
<clustering>
<clus scale="   35.297">  2  9  1 -1</clus>
<clus scale="   80.185">  5  6 -1 -1</clus>
<clus scale="   89.619">  7  8 -1 -1</clus>
<clus scale="  114.495">  1  5  2 -1</clus>
<clus scale="   35.297">  2  5  1 -1</clus>
</clustering>
</event>
<event>
 9    1  0.3846604E-005  0.1096659E+03  0.7546771E-02  0.1266187E+00
          1   -1    0    0  502    0  0.00000000000E+00  0.00000000000E+00  0.76476708794E+02  0.76476708794E+02  0.00000000000E+00 0. -1.
         -2   -1    0    0    0  501 -0.00000000000E+00 -0.00000000000E+00 -0.58013143716E+03  0.58013143716E+03  0.00000000000E+00 0.  1.
         23    2    1    2    0    0 -0.24169622865E+02 -0.10147759260E+02 -0.36679007115E+03  0.37937700786E+03  0.93299571869E+02 0.  0.
        -24    2    1    2    0    0  0.55695176051E+02 -0.26796207339E+02  0.27712367611E+02  0.10563768171E+03  0.81063895268E+02 0.  0.
         13    1    4    4    0    0  0.70878215084E+02  0.29649891503E+00  0.18958779271E+02  0.73370597629E+02  0.00000000000E+00 0. -1.
        -14    1    4    4    0    0 -0.15183039032E+02 -0.27092706254E+02  0.87535883400E+01  0.32267084084E+02  0.00000000000E+00 0.  1.
        -11    1    3    3    0    0 -0.34497139332E+02 -0.44905302316E+02 -0.27323606396E+03  0.27904208544E+03  0.00000000000E+00 0. -1.
         11    1    3    3    0    0  0.10327516467E+02  0.34757543057E+02 -0.93554007193E+02  0.10033492242E+03  0.00000000000E+00 0.  1.
         21    1    1    2  502  501 -0.31525553186E+02  0.36943966599E+02 -0.16457702483E+03  0.17159345638E+03  0.00000000000E+00 0.  1.
<scales pt_clust_5="13000.00000" pt_clust_6="13000.00000" pt_clust_7="13000.00000" pt_clust_8="13000.00000" pt_clust_9="48.56663"></scales>
<clustering>
<clus scale="   48.567">  2  9  1 -1</clus>
<clus scale="   81.064">  5  6 -1 -1</clus>
<clus scale="   93.300">  7  8 -1 -1</clus>
<clus scale="   99.464">  1  5  2 -1</clus>
<clus scale="   99.464">  1  5  2 -1</clus>
</clustering>
</event>
<event>
 9    1  0.7055746E-005  0.1041626E+03  0.7546771E-02  0.1278169E+00
         -2   -1    0    0    0  501 -0.00000000000E+00  0.00000000000E+00  0.25627854290E+03  0.25627854290E+03  0.00000000000E+00 0.  1.
          1   -1    0    0  502    0  0.00000000000E+00 -0.00000000000E+00 -0.27270767156E+03  0.27270767156E+03  0.00000000000E+00 0. -1.
        -24    2    1    2    0    0 -0.35088121771E+02  0.39985663353E+02  0.20478237733E+03  0.22552636423E+03  0.78078738023E+02 0.  0.
         23    2    1    2    0    0  0.48138560861E+02 -0.10261369532E+02 -0.24294936575E+03  0.26439090923E+03  0.91954020135E+02 0.  0.
         11    1    3    3    0    0  0.24534981410E+02  0.12831488686E+02  0.78874906420E+02  0.83593440397E+02  0.00000000000E+00 0. -1.
        -12    1    3    3    0    0 -0.59623103180E+02  0.27154174667E+02  0.12590747091E+03  0.14193292383E+03  0.00000000000E+00 0.  1.
        -13    1    4    4    0    0 -0.14545700322E+02 -0.19917132555E+02 -0.17632855039E+02  0.30318099279E+02  0.00000000000E+00 0.  1.
         13    1    4    4    0    0  0.62684261183E+02  0.96557630228E+01 -0.22531651072E+03  0.23407280996E+03  0.00000000000E+00 0. -1.
         21    1    1    2  502  501 -0.13050439090E+02 -0.29724293821E+02  0.21737859768E+02  0.39068941001E+02  0.00000000000E+00 0. -1.
<scales pt_clust_5="13000.00000" pt_clust_6="13000.00000" pt_clust_7="13000.00000" pt_clust_8="13000.00000" pt_clust_9="32.46302"></scales>
<clustering>
<clus scale="   32.463">  1  9  2 -1</clus>
<clus scale="   78.079">  5  6 -1 -1</clus>
<clus scale="   91.954">  7  8 -1 -1</clus>
<clus scale="   92.144">  1  5  2 -1</clus>
<clus scale="  104.163">  2  5  1 -1</clus>
</clustering>
</event>
<event>
 9    1  0.3846604E-005  0.9813651E+02  0.7546771E-02  0.1287544E+00
          1   -1    0    0  502    0  0.00000000000E+00  0.00000000000E+00  0.58128657080E+03  0.58128657080E+03  0.00000000000E+00 0. -1.
         -2   -1    0    0    0  501 -0.00000000000E+00 -0.00000000000E+00 -0.46539835461E+02  0.46539835461E+02  0.00000000000E+00 0.  1.
        -24    2    1    2    0    0 -0.51552901626E+01  0.38405903712E+02  0.26614124239E+02  0.95473564631E+02  0.83098131614E+02 0.  0.
         23    2    1    2    0    0  0.33112480557E+02 -0.25391842161E+02  0.48171083107E+03  0.49174396633E+03  0.89585833925E+02 0.  0.
         11    1    3    3    0    0 -0.40143770404E+02  0.95364286328E+00  0.15408626781E+02  0.43009969963E+02  0.00000000000E+00 0. -1.
        -12    1    3    3    0    0  0.34988480241E+02  0.37452260849E+02  0.11205497458E+02  0.52463594669E+02  0.00000000000E+00 0.  1.
        -11    1    4    4    0    0  0.30401234841E+02  0.29033776960E+02  0.15893509609E+03  0.16440060843E+03  0.00000000000E+00 0.  1.
         11    1    4    4    0    0  0.27112457157E+01 -0.54425619121E+02  0.32277573498E+03  0.32734335790E+03  0.00000000000E+00 0. -1.
         21    1    1    2  502  501 -0.27957190394E+02 -0.13014061552E+02  0.26421780036E+02  0.40608875299E+02  0.00000000000E+00 0. -1.
<scales pt_clust_5="13000.00000" pt_clust_6="13000.00000" pt_clust_7="13000.00000" pt_clust_8="13000.00000" pt_clust_9="30.83781"></scales>
<clustering>
<clus scale="   30.838">  2  9  1 -1</clus>
<clus scale="   83.098">  5  6 -1 -1</clus>
<clus scale="   89.586">  7  8 -1 -1</clus>
<clus scale="   92.252">  2  5  1 -1</clus>
<clus scale="   98.137">  1  5  2 -1</clus>
</clustering>
</event>
<event>
 9    1  0.3846604E-005  0.1042939E+03  0.7546771E-02  0.1276459E+00
         -2   -1    0    0    0  501 -0.00000000000E+00  0.00000000000E+00  0.70436660535E+02  0.70436660535E+02  0.00000000000E+00 0.  1.
          1   -1    0    0  502    0  0.00000000000E+00 -0.00000000000E+00 -0.33428030475E+03  0.33428030475E+03  0.00000000000E+00 0. -1.
        -24    2    1    2    0    0  0.65389527174E+02 -0.46821910651E+02 -0.68227686514E+02  0.13130840669E+03  0.78222751669E+02 0.  0.
         23    2    1    2    0    0 -0.22804889467E+02  0.39263510968E+02 -0.20582760646E+03  0.22896917803E+03  0.89443807104E+02 0.  0.
         13    1    3    3    0    0  0.46458192125E+02 -0.68526250088E+02 -0.44495761174E+02  0.93989804389E+02  0.00000000000E+00 0. -1.
        -14    1    3    3    0    0  0.18931335049E+02  0.21704339437E+02 -0.23731925340E+02  0.37318602299E+02  0.00000000000E+00 0.  1.
        -13    1    4    4    0    0  0.95293447755E+01  0.60402461790E+02 -0.11446005396E+03  0.12977045024E+03  0.00000000000E+00 0.  1.
         13    1    4    4    0    0 -0.32334234243E+02 -0.21138950822E+02 -0.91367552496E+02  0.99198727789E+02  0.00000000000E+00 0. -1.
         21    1    1    2  502  501 -0.42584637706E+02  0.75583996824E+01  0.10211648764E+02  0.44439380563E+02  0.00000000000E+00 0. -1.
<scales pt_clust_5="13000.00000" pt_clust_6="13000.00000" pt_clust_7="13000.00000" pt_clust_8="13000.00000" pt_clust_9="43.25021"></scales>
<clustering>
<clus scale="   43.250">  1  9  2 -1</clus>
<clus scale="   78.223">  5  6 -1 -1</clus>
<clus scale="   89.444">  7  8 -1 -1</clus>
<clus scale="   94.846">  1  5  2 -1</clus>
<clus scale="  104.294">  2  5  1 -1</clus>
</clustering>
</event>
<event>
 9    1  0.3846604E-005  0.1033727E+03  0.7546771E-02  0.1278385E+00
          1   -1    0    0  502    0  0.00000000000E+00  0.00000000000E+00  0.20296523873E+03  0.20296523873E+03  0.00000000000E+00 0. -1.
         -2   -1    0    0    0  501 -0.00000000000E+00 -0.00000000000E+00 -0.88816070435E+02  0.88816070435E+02  0.00000000000E+00 0.  1.
        -24    2    1    2    0    0 -0.16835684665E+02  0.78076164121E+01 -0.11676574728E+02  0.10303782504E+03  0.10067796104E+03 0.  0.
         23    2    1    2    0    0 -0.13695151289E+02 -0.26808419305E+02  0.11795067634E+03  0.15193072642E+03  0.90908388324E+02 0.  0.
         11    1    3    3    0    0 -0.20987039287E+02 -0.12029748930E+02  0.40437955758E+02  0.47121109317E+02  0.00000000000E+00 0. -1.
        -12    1    3    3    0    0  0.41513546216E+01  0.19837365343E+02 -0.52114530486E+02  0.55916715718E+02  0.00000000000E+00 0.  1.
        -11    1    4    4    0    0  0.24984821850E+02  0.21440681949E+02  0.30912912954E+02  0.45161403351E+02  0.00000000000E+00 0. -1.
         11    1    4    4    0    0 -0.38679973140E+02 -0.48249101253E+02  0.87037763384E+02  0.10676932307E+03  0.00000000000E+00 0.  1.
         21    1    1    2  502  501  0.30530835955E+02  0.19000802893E+02  0.78750666819E+01  0.36812757706E+02  0.00000000000E+00 0.  1.
<scales pt_clust_5="13000.00000" pt_clust_6="13000.00000" pt_clust_7="13000.00000" pt_clust_8="13000.00000" pt_clust_9="35.96057"></scales>
<clustering>
<clus scale="   35.961">  2  9  1 -1</clus>
<clus scale="   90.908">  7  8 -1 -1</clus>
<clus scale="   93.884">  1  7  2 -1</clus>
<clus scale="  100.678">  5  6 -1 -1</clus>
<clus scale="   93.884">  1  5  2 -1</clus>
</clustering>
</event>
<event>
 9    1  0.3846604E-005  0.1037565E+03  0.7546771E-02  0.1281771E+00
          1   -1    0    0  502    0  0.00000000000E+00  0.00000000000E+00  0.68954068984E+02  0.68954068984E+02  0.00000000000E+00 0. -1.
         -2   -1    0    0    0  501 -0.00000000000E+00 -0.00000000000E+00 -0.43260780509E+03  0.43260780509E+03  0.00000000000E+00 0.  1.
         23    2    1    2    0    0  0.50673684751E+02  0.50881922641E+02 -0.25614143498E+03  0.28120038930E+03  0.91150599842E+02 0.  0.
        -24    2    1    2    0    0 -0.18327750734E+02 -0.43630832713E+02  0.20430348817E+02  0.88194320065E+02  0.71563139456E+02 0.  0.
         11    1    4    4    0    0 -0.34838168522E+02  0.20817371648E+01  0.18622453684E+02  0.39557899297E+02  0.00000000000E+00 0. -1.
        -12    1    4    4    0    0  0.16510417788E+02 -0.45712569878E+02  0.18078951324E+01  0.48636420769E+02  0.00000000000E+00 0.  1.
        -13    1    3    3    0    0  0.40622198673E+02  0.76620251354E+02 -0.21289137558E+03  0.22987727974E+03  0.00000000000E+00 0.  1.
         13    1    3    3    0    0  0.10051486078E+02 -0.25738328713E+02 -0.43250059404E+02  0.51323109569E+02  0.00000000000E+00 0. -1.
         21    1    1    2  502  501 -0.32345934017E+02 -0.72510899275E+01 -0.12794264994E+03  0.13216716471E+03  0.00000000000E+00 0.  1.
<scales pt_clust_5="13000.00000" pt_clust_6="13000.00000" pt_clust_7="13000.00000" pt_clust_8="13000.00000" pt_clust_9="33.14872"></scales>
<clustering>
<clus scale="   33.149">  2  9  1 -1</clus>
<clus scale="   71.563">  5  6 -1 -1</clus>
<clus scale="   87.053">  1  5  2 -1</clus>
<clus scale="   91.151">  7  8 -1 -1</clus>
<clus scale="   87.053">  1  5  2 -1</clus>
</clustering>
</event>
<event>
 9    1  0.3846604E-005  0.1009390E+03  0.7546771E-02  0.1282320E+00
          1   -1    0    0  502    0  0.00000000000E+00  0.00000000000E+00  0.38529777355E+03  0.38529777355E+03  0.00000000000E+00 0. -1.
         -2   -1    0    0    0  501 -0.00000000000E+00 -0.00000000000E+00 -0.43851933947E+02  0.43851933947E+02  0.00000000000E+00 0.  1.
        -24    2    1    2    0    0  0.35535750423E+02 -0.31660343826E+02  0.75525021523E+02  0.12098626164E+03  0.81660759854E+02 0.  0.
         23    2    1    2    0    0 -0.90272700018E+01  0.47013140941E+02  0.25665035277E+03  0.27615798632E+03  0.90011681486E+02 0.  0.
         11    1    3    3    0    0  0.33848297898E+02 -0.47680961053E+02  0.84336449120E+02  0.10262464601E+03  0.00000000000E+00 0. -1.
        -12    1    3    3    0    0  0.16874525248E+01  0.16020617227E+02 -0.88114275973E+01  0.18361615633E+02  0.00000000000E+00 0.  1.
        -13    1    4    4    0    0 -0.40233137544E+02  0.54652925760E+02  0.19766545637E+03  0.20899110099E+03  0.00000000000E+00 0. -1.
         13    1    4    4    0    0  0.31205867542E+02 -0.76397848187E+01  0.58984896405E+02  0.67166885330E+02  0.00000000000E+00 0.  1.
         21    1    1    2  502  501 -0.26508480421E+02 -0.15352797115E+02  0.92704653079E+01  0.32005459542E+02  0.00000000000E+00 0. -1.
<scales pt_clust_5="13000.00000" pt_clust_6="13000.00000" pt_clust_7="13000.00000" pt_clust_8="13000.00000" pt_clust_9="30.63344"></scales>
<clustering>
<clus scale="   30.633">  2  9  1 -1</clus>
<clus scale="   81.661">  5  6 -1 -1</clus>
<clus scale="   90.012">  7  8 -1 -1</clus>
<clus scale="   93.569">  2  5  1 -1</clus>
<clus scale="  100.939">  1  5  2 -1</clus>
</clustering>
</event>
<event>
 9    1  0.3846604E-005  0.1431465E+03  0.7546771E-02  0.1225777E+00
          1   -1    0    0  502    0  0.00000000000E+00  0.00000000000E+00  0.25578884149E+03  0.25578884149E+03  0.00000000000E+00 0. -1.
         -2   -1    0    0    0  501 -0.00000000000E+00 -0.00000000000E+00 -0.16057987741E+03  0.16057987741E+03  0.00000000000E+00 0.  1.
        -24    2    1    2    0    0 -0.10007291485E+03  0.42399201085E+01 -0.10052091609E+02  0.13030136375E+03  0.82733521862E+02 0.  0.
         23    2    1    2    0    0 -0.32081560703E+02  0.28327532744E+02  0.11084956034E+03  0.14984446508E+03  0.91291089591E+02 0.  0.
         11    1    3    3    0    0 -0.11327431160E+03  0.10640781711E+02 -0.25001630079E+01  0.11380046889E+03  0.00000000000E+00 0. -1.
        -12    1    3    3    0    0  0.13201396754E+02 -0.64008616022E+01 -0.75519286007E+01  0.16500894857E+02  0.00000000000E+00 0.  1.
        -11    1    4    4    0    0  0.97407596529E+01  0.49345121779E+02  0.37117462860E+02  0.62510235091E+02  0.00000000000E+00 0. -1.
         11    1    4    4    0    0 -0.41822320355E+02 -0.21017589035E+02  0.73732097481E+02  0.87334229989E+02  0.00000000000E+00 0.  1.
         21    1    1    2  502  501  0.13215447555E+03 -0.32567452852E+02 -0.55885046519E+01  0.13622289007E+03  0.00000000000E+00 0.  1.
<scales pt_clust_5="13000.00000" pt_clust_6="13000.00000" pt_clust_7="13000.00000" pt_clust_8="13000.00000" pt_clust_9="116.81649"></scales>
<clustering>
<clus scale="   82.734">  5  6 -1 -1</clus>
<clus scale="   91.291">  7  8 -1 -1</clus>
<clus scale="  100.825">  1  7  2 -1</clus>
<clus scale="  116.816">  1  9  2 -1</clus>
<clus scale="  100.825">  1  5  2 -1</clus>
</clustering>
</event>
<event>
 9    1  0.3846604E-005  0.9510560E+02  0.7546771E-02  0.1299714E+00
          3   -1    0    0  502    0  0.00000000000E+00  0.00000000000E+00  0.40002485510E+03  0.40002485510E+03  0.00000000000E+00 0. -1.
         -4   -1    0    0    0  501 -0.00000000000E+00 -0.00000000000E+00 -0.47405808147E+02  0.47405808147E+02  0.00000000000E+00 0.  1.
        -24    2    1    2    0    0 -0.12735700732E+02 -0.29628950427E+02  0.29501659027E+02  0.90764610930E+02  0.79547431984E+02 0.  0.
         23    2    1    2    0    0 -0.29319859344E+01  0.10697295901E+02  0.31768626400E+03  0.33149898941E+03  0.94042484873E+02 0.  0.
         11    1    3    3    0    0  0.25626371426E+01 -0.55611996609E+02  0.19890346123E+02  0.59117570526E+02  0.00000000000E+00 0. -1.
        -12    1    3    3    0    0 -0.15298337874E+02  0.25983046182E+02  0.96113129043E+01  0.31647040404E+02  0.00000000000E+00 0.  1.
        -11    1    4    4    0    0 -0.44091209354E+02  0.25160723275E+02  0.15757441205E+03  0.16554996851E+03  0.00000000000E+00 0.  1.
         11    1    4    4    0    0  0.41159223420E+02 -0.14463427373E+02  0.16011185195E+03  0.16594902090E+03  0.00000000000E+00 0. -1.
         21    1    1    2  502  501  0.15667686666E+02  0.18931654526E+02  0.54311239255E+01  0.25167062913E+02  0.00000000000E+00 0. -1.
<scales pt_clust_5="13000.00000" pt_clust_6="13000.00000" pt_clust_7="13000.00000" pt_clust_8="13000.00000" pt_clust_9="24.57405"></scales>
<clustering>
<clus scale="   24.574">  2  9  1 -1</clus>
<clus scale="   79.547">  5  6 -1 -1</clus>
<clus scale="   80.801">  2  5  1 -1</clus>
<clus scale="   94.042">  7  8 -1 -1</clus>
<clus scale="   95.106">  1  5  2 -1</clus>
</clustering>
</event>
<event>
 9    1  0.4160671E-005  0.1447395E+03  0.7546771E-02  0.1209368E+00
         -4   -1    0    0    0  501 -0.00000000000E+00  0.00000000000E+00  0.10302059721E+03  0.10302059721E+03  0.00000000000E+00 0.  1.
          3   -1    0    0  502    0  0.00000000000E+00 -0.00000000000E+00 -0.39934060901E+03  0.39934060901E+03  0.00000000000E+00 0. -1.
        -24    2    1    2    0    0  0.64214734040E+02 -0.76893303054E+02  0.27837744877E+02  0.13094453643E+03  0.79595348227E+02 0.  0.
         23    2    1    2    0    0 -0.59417490925E+02  0.98806184696E+02 -0.31426890909E+03  0.34690183284E+03  0.91010076625E+02 0.  0.
         11    1    3    3    0    0  0.93914875021E+01 -0.50052573134E+02 -0.18632465481E+02  0.54227565727E+02  0.00000000000E+00 0. -1.
        -12    1    3    3    0    0  0.54823246537E+02 -0.26840729921E+02  0.46470210358E+02  0.76716970706E+02  0.00000000000E+00 0.  1.
        -11    1    4    4    0    0  0.14525039553E+02  0.17646201391E+02 -0.13098058172E+02  0.26342443422E+02  0.00000000000E+00 0.  1.
         11    1    4    4    0    0 -0.73942530478E+02  0.81159983305E+02 -0.30117085092E+03  0.32055938942E+03  0.00000000000E+00 0. -1.
         21    1    1    2  502  501 -0.47972431145E+01 -0.21912881641E+02 -0.98888475864E+01  0.24514836934E+02  0.00000000000E+00 0. -1.
<scales pt_clust_5="13000.00000" pt_clust_6="13000.00000" pt_clust_7="13000.00000" pt_clust_8="13000.00000" pt_clust_9="22.43185"></scales>
<clustering>
<clus scale="   22.432">  1  9  2 -1</clus>
<clus scale="   79.595">  5  6 -1 -1</clus>
<clus scale="   91.010">  7  8 -1 -1</clus>
<clus scale="  137.848">  1  5  2 -1</clus>
<clus scale="  144.739">  2  5  1 -1</clus>
</clustering>
</event>
<event>
 9    1  0.3846604E-005  0.9456402E+02  0.7546771E-02  0.1299951E+00
          1   -1    0    0  502    0  0.00000000000E+00  0.00000000000E+00  0.45516755939E+02  0.45516755939E+02  0.00000000000E+00 0. -1.
         -2   -1    0    0    0  501 -0.00000000000E+00 -0.00000000000E+00 -0.54568266699E+03  0.54568266699E+03  0.00000000000E+00 0.  1.
        -24    2    1    2    0    0 -0.21406606576E+02 -0.28650521612E+02 -0.28774466226E+03  0.30039451669E+03  0.78490635139E+02 0.  0.
         23    2    1    2    0    0  0.21481272396E+02  0.48108473452E+01 -0.19329577848E+02  0.96247128107E+02  0.91680356528E+02 0.  0.
         11    1    3    3    0    0 -0.25978761046E+02  0.22814222316E+02 -0.11791461945E+03  0.12287897398E+03  0.00000000000E+00 0. -1.
        -12    1    3    3    0    0  0.45721544704E+01 -0.51464743928E+02 -0.16983004281E+03  0.17751554271E+03  0.00000000000E+00 0.  1.
        -11    1    4    4    0    0 -0.33042115958E+02 -0.49866268788E+01 -0.23254774672E+02  0.40711575991E+02  0.00000000000E+00 0.  1.
         11    1    4    4    0    0  0.54523388354E+02  0.97974742240E+01  0.39251968239E+01  0.55535552116E+02  0.00000000000E+00 0. -1.
         21    1    1    2  502  501 -0.74665819627E-01  0.23839674267E+02 -0.19309167094E+03  0.19455777813E+03  0.00000000000E+00 0. -1.
<scales pt_clust_5="13000.00000" pt_clust_6="13000.00000" pt_clust_7="13000.00000" pt_clust_8="13000.00000" pt_clust_9="23.83979"></scales>
<clustering>
<clus scale="   23.840">  2  9  1 -1</clus>
<clus scale="   78.491">  5  6 -1 -1</clus>
<clus scale="   81.840">  2  5  1 -1</clus>
<clus scale="   91.680">  7  8 -1 -1</clus>
<clus scale="   94.564">  1  5  2 -1</clus>
</clustering>
</event>
<event>
 9    1  0.3846604E-005  0.1225540E+03  0.7546771E-02  0.1240215E+00
         -2   -1    0    0    0  501 -0.00000000000E+00  0.00000000000E+00  0.66882016407E+02  0.66882016407E+02  0.00000000000E+00 0.  1.
          1   -1    0    0  502    0  0.00000000000E+00 -0.00000000000E+00 -0.37130228042E+03  0.37130228042E+03  0.00000000000E+00 0. -1.
        -24    2    1    2    0    0 -0.18554090599E+02 -0.53767533543E+02 -0.62330257198E+02  0.11708382775E+03  0.81168712058E+02 0.  0.
         23    2    1    2    0    0  0.68551950207E+01  0.11705668568E+03 -0.18386248623E+03  0.23430861987E+03  0.85707958447E+02 0.  0.
         11    1    3    3    0    0 -0.23303721191E+02 -0.26191501573E+02 -0.77639402087E+02  0.85187645422E+02  0.00000000000E+00 0. -1.
        -12    1    3    3    0    0  0.47496305928E+01 -0.27576031970E+02  0.15309144889E+02  0.31896182329E+02  0.00000000000E+00 0.  1.
        -13    1    4    4    0    0 -0.18135235951E+02  0.11875869285E+03 -0.15459234679E+03  0.19578382874E+03  0.00000000000E+00 0. -1.
         13    1    4    4    0    0  0.24990430972E+02 -0.17020071716E+01 -0.29270139439E+02  0.38524791126E+02  0.00000000000E+00 0.  1.
         21    1    1    2  502  501  0.11698895578E+02 -0.63289152136E+02 -0.58227520591E+02  0.86791849214E+02  0.00000000000E+00 0.  1.
<scales pt_clust_5="13000.00000" pt_clust_6="13000.00000" pt_clust_7="13000.00000" pt_clust_8="13000.00000" pt_clust_9="64.36133"></scales>
<clustering>
<clus scale="   64.361">  1  9  2 -1</clus>
<clus scale="   81.169">  5  6 -1 -1</clus>
<clus scale="   85.708">  7  8 -1 -1</clus>
<clus scale="  119.424">  1  5  2 -1</clus>
<clus scale="  122.554">  2  5  1 -1</clus>
</clustering>
</event>
<event>
 9    1  0.3846604E-005  0.9859177E+02  0.7546771E-02  0.1288292E+00
         -4   -1    0    0    0  501 -0.00000000000E+00  0.00000000000E+00  0.29047707445E+03  0.29047707445E+03  0.00000000000E+00 0.  1.
          3   -1    0    0  502    0  0.00000000000E+00 -0.00000000000E+00 -0.41214312074E+02  0.41214312074E+02  0.00000000000E+00 0. -1.
        -24    2    1    2    0    0  0.44287166767E+02 -0.30101216849E+01  0.11690287179E+03  0.14834579290E+03  0.79810894391E+02 0.  0.
         23    2    1    2    0    0 -0.34720417480E+02 -0.23233650715E+02  0.10401326350E+03  0.14354874013E+03  0.89678157276E+02 0.  0.
         13    1    3    3    0    0 -0.15733288304E+02  0.19464540454E+02  0.19405935158E+02  0.31670096547E+02  0.00000000000E+00 0. -1.
        -14    1    3    3    0    0  0.60020455071E+02 -0.22474662139E+02  0.97496936635E+02  0.11667569635E+03  0.00000000000E+00 0.  1.
        -11    1    4    4    0    0  0.28377536229E+02 -0.43270773448E+01  0.52852185296E+02  0.60144506411E+02  0.00000000000E+00 0.  1.
         11    1    4    4    0    0 -0.63097953709E+02 -0.18906573370E+02  0.51161078206E+02  0.83404233718E+02  0.00000000000E+00 0. -1.
         21    1    1    2  502  501 -0.95667492876E+01  0.26243772400E+02  0.28346627082E+02  0.39796853502E+02  0.00000000000E+00 0.  1.
<scales pt_clust_5="13000.00000" pt_clust_6="13000.00000" pt_clust_7="13000.00000" pt_clust_8="13000.00000" pt_clust_9="27.93310"></scales>
<clustering>
<clus scale="   27.933">  2  9  1 -1</clus>
<clus scale="   79.811">  5  6 -1 -1</clus>
<clus scale="   89.678">  7  8 -1 -1</clus>
<clus scale="   89.710">  1  5  2 -1</clus>
<clus scale="   27.933">  2  5  1 -1</clus>
</clustering>
</event>
<event>
 9    1  0.3846604E-005  0.1269956E+03  0.7546771E-02  0.1232270E+00
          1   -1    0    0  502    0  0.00000000000E+00  0.00000000000E+00  0.62698849637E+03  0.62698849637E+03  0.00000000000E+00 0. -1.
         -2   -1    0    0    0  501 -0.00000000000E+00 -0.00000000000E+00 -0.19565325546E+03  0.19565325546E+03  0.00000000000E+00 0.  1.
         23    2    1    2    0    0  0.68399521060E+02  0.70074891518E+02  0.18495356738E+03  0.22453943250E+03  0.81370447706E+02 0.  0.
        -24    2    1    2    0    0 -0.20488748198E+02 -0.10071265734E+03  0.40718228916E+03  0.42754161799E+03  0.80197196684E+02 0.  0.
         11    1    4    4    0    0 -0.11265652674E+02 -0.93204885816E+02  0.40462941654E+03  0.41537817757E+03  0.00000000000E+00 0. -1.
        -12    1    4    4    0    0 -0.92230955239E+01 -0.75077715255E+01  0.25528726227E+01  0.12163440424E+02  0.00000000000E+00 0.  1.
        -11    1    3    3    0    0  0.33456718166E+02  0.63172924209E+02  0.56147475889E+02  0.90899446601E+02  0.00000000000E+00 0. -1.
         11    1    3    3    0    0  0.34942802894E+02  0.69019673081E+01  0.12880609149E+03  0.13363998590E+03  0.00000000000E+00 0.  1.
         21    1    1    2  502  501 -0.47910772862E+02  0.30637765824E+02 -0.16080061563E+03  0.17056070133E+03  0.00000000000E+00 0.  1.
<scales pt_clust_5="13000.00000" pt_clust_6="13000.00000" pt_clust_7="13000.00000" pt_clust_8="13000.00000" pt_clust_9="56.86928"></scales>
<clustering>
<clus scale="   56.869">  2  9  1 -1</clus>
<clus scale="   80.197">  5  6 -1 -1</clus>
<clus scale="   81.370">  7  8 -1 -1</clus>
<clus scale="  126.247">  1  5  2 -1</clus>
<clus scale="  126.247">  1  5  2 -1</clus>
</clustering>
</event>
<event>
 9    1  0.3846604E-005  0.1107518E+03  0.7546771E-02  0.1263371E+00
          1   -1    0    0  502    0  0.00000000000E+00  0.00000000000E+00  0.30948322376E+03  0.30948322376E+03  0.00000000000E+00 0. -1.
         -2   -1    0    0    0  501 -0.00000000000E+00 -0.00000000000E+00 -0.26262311171E+03  0.26262311171E+03  0.00000000000E+00 0.  1.
        -24    2    1    2    0    0 -0.27341582041E+02  0.37827854721E+02 -0.20128318249E+03  0.22188263474E+03  0.80860839356E+02 0.  0.
         23    2    1    2    0    0  0.63906166900E+02  0.64811153335E+01  0.26720906793E+03  0.28969472083E+03  0.91631557178E+02 0.  0.
         13    1    3    3    0    0 -0.24846935895E+02 -0.21537039522E+01 -0.10706254162E+02  0.27140975337E+02  0.00000000000E+00 0. -1.
        -14    1    3    3    0    0 -0.24946461468E+01  0.39981558673E+02 -0.19057692833E+03  0.19474165940E+03  0.00000000000E+00 0.  1.
        -11    1    4    4    0    0 -0.68010376870E+01 -0.26235838379E+02  0.12126817877E+03  0.12425998757E+03  0.00000000000E+00 0. -1.
         11    1    4    4    0    0  0.70707204587E+02  0.32716953712E+02  0.14594088916E+03  0.16543473326E+03  0.00000000000E+00 0.  1.
         21    1    1    2  502  501 -0.36564584858E+02 -0.44308970055E+02 -0.19065773389E+02  0.60528979903E+02  0.00000000000E+00 0.  1.
<scales pt_clust_5="13000.00000" pt_clust_6="13000.00000" pt_clust_7="13000.00000" pt_clust_8="13000.00000" pt_clust_9="57.44783"></scales>
<clustering>
<clus scale="   57.448">  2  9  1 -1</clus>
<clus scale="   80.861">  5  6 -1 -1</clus>
<clus scale="   91.632">  7  8 -1 -1</clus>
<clus scale="  102.020">  2  5  1 -1</clus>
<clus scale="  110.752">  1  5  2 -1</clus>
</clustering>
</event>
<event>
 9    1  0.3846604E-005  0.1041699E+03  0.7546771E-02  0.1278021E+00
         -2   -1    0    0    0  501 -0.00000000000E+00  0.00000000000E+00  0.27044054201E+02  0.27044054201E+02  0.00000000000E+00 0.  1.
          1   -1    0    0  502    0  0.00000000000E+00 -0.00000000000E+00 -0.72414455533E+03  0.72414455533E+03  0.00000000000E+00 0. -1.
         23    2    1    2    0    0 -0.41126272478E+02  0.70664668623E+01 -0.11763734913E+03  0.15542500618E+03  0.92612533672E+02 0.  0.
        -24    2    1    2    0    0  0.70213959834E+02  0.85396450226E+00 -0.49217838539E+03  0.50341937088E+03  0.79125030956E+02 0.  0.
         13    1    4    4    0    0  0.85418280974E+02 -0.44053241819E+01 -0.34847526390E+03  0.35881847661E+03  0.00000000000E+00 0. -1.
        -14    1    4    4    0    0 -0.15204321141E+02  0.52592886842E+01 -0.14370312149E+03  0.14460089427E+03  0.00000000000E+00 0.  1.
        -13    1    3    3    0    0  0.11571308106E+02 -0.30550981372E+02 -0.20110349398E+02  0.38362531029E+02  0.00000000000E+00 0.  1.
         13    1    3    3    0    0 -0.52697580584E+02  0.37617448234E+02 -0.97526999736E+02  0.11706247515E+03  0.00000000000E+00 0. -1.
         21    1    1    2  502  501 -0.29087687355E+02 -0.79204313645E+01 -0.87284766607E+02  0.92344232470E+02  0.00000000000E+00 0. -1.
<scales pt_clust_5="13000.00000" pt_clust_6="13000.00000" pt_clust_7="13000.00000" pt_clust_8="13000.00000" pt_clust_9="30.14675"></scales>
<clustering>
<clus scale="   30.147">  2  9  1 -1</clus>
<clus scale="   79.125">  5  6 -1 -1</clus>
<clus scale="   92.385">  2  5  1 -1</clus>
<clus scale="   92.613">  7  8 -1 -1</clus>
<clus scale="   30.147">  2  5  1 -1</clus>
</clustering>
</event>
<event>
 9    1  0.3846604E-005  0.1016664E+03  0.7546771E-02  0.1279978E+00
         -2   -1    0    0    0  501 -0.00000000000E+00  0.00000000000E+00  0.54719003543E+03  0.54719003543E+03  0.00000000000E+00 0.  1.
          1   -1    0    0  502    0  0.00000000000E+00 -0.00000000000E+00 -0.75570445264E+02  0.75570445264E+02  0.00000000000E+00 0. -1.
        -24    2    1    2    0    0 -0.32716498667E+02 -0.51235230617E+02  0.41523254841E+03  0.42763666128E+03  0.82216948821E+02 0.  0.
         23    2    1    2    0    0 -0.17593465506E+00  0.48781150334E+02 -0.27326740966E+02  0.10514642171E+03  0.89047109133E+02 0.  0.
         11    1    3    3    0    0  0.15438201164E+02 -0.29883181819E+02  0.62347923072E+02  0.70842121101E+02  0.00000000000E+00 0. -1.
        -12    1    3    3    0    0 -0.48154699831E+02 -0.21352048798E+02  0.35288462533E+03  0.35679454018E+03  0.00000000000E+00 0.  1.
        -11    1    4    4    0    0 -0.26204518540E+02  0.52335210090E+02  0.10126465190E+02  0.59398622074E+02  0.00000000000E+00 0.  1.
         11    1    4    4    0    0  0.26028583884E+02 -0.35540597564E+01 -0.37453206156E+02  0.45747799632E+02  0.00000000000E+00 0. -1.
         21    1    1    2  502  501  0.32892433322E+02  0.24540802829E+01  0.83713782722E+02  0.89977397704E+02  0.00000000000E+00 0.  1.
<scales pt_clust_5="13000.00000" pt_clust_6="13000.00000" pt_clust_7="13000.00000" pt_clust_8="13000.00000" pt_clust_9="32.98385"></scales>
<clustering>
<clus scale="   32.984">  1  9  2 -1</clus>
<clus scale="   82.217">  5  6 -1 -1</clus>
<clus scale="   89.047">  7  8 -1 -1</clus>
<clus scale="   95.741">  1  5  2 -1</clus>
<clus scale="  101.666">  2  5  1 -1</clus>
</clustering>
</event>
<event>
 9    1  0.3846604E-005  0.1164642E+03  0.7546771E-02  0.1252305E+00
          1   -1    0    0  502    0  0.00000000000E+00  0.00000000000E+00  0.10274412581E+03  0.10274412581E+03  0.00000000000E+00 0. -1.
         -2   -1    0    0    0  501 -0.00000000000E+00 -0.00000000000E+00 -0.20511937457E+03  0.20511937457E+03  0.00000000000E+00 0.  1.
         23    2    1    2    0    0  0.17687282094E+01  0.73235241629E+02 -0.10894039373E+03  0.15892449148E+03  0.89568161702E+02 0.  0.
        -24    2    1    2    0    0 -0.24082340759E+02 -0.71641049061E+02  0.32570044013E+02  0.11463604213E+03  0.79801098621E+02 0.  0.
         11    1    4    4    0    0 -0.24138435130E+02  0.71832511886E+01  0.24939082168E+02  0.35443207636E+02  0.00000000000E+00 0. -1.
        -12    1    4    4    0    0  0.56094371115E-01 -0.78824300250E+02  0.76309618455E+01  0.79192834494E+02  0.00000000000E+00 0.  1.
        -11    1    3    3    0    0  0.29934515296E+02  0.45573950405E+02 -0.10616649132E+03  0.11934983888E+03  0.00000000000E+00 0.  1.
         11    1    3    3    0    0 -0.28165787087E+02  0.27661291225E+02 -0.27739024188E+01  0.39574652608E+02  0.00000000000E+00 0. -1.
         21    1    1    2  502  501  0.22313612550E+02 -0.15941925680E+01 -0.26004899042E+02  0.34302966769E+02  0.00000000000E+00 0. -1.
<scales pt_clust_5="13000.00000" pt_clust_6="13000.00000" pt_clust_7="13000.00000" pt_clust_8="13000.00000" pt_clust_9="22.37049"></scales>
<clustering>
<clus scale="   22.370">  2  9  1 -1</clus>
<clus scale="   79.801">  5  6 -1 -1</clus>
<clus scale="   89.568">  7  8 -1 -1</clus>
<clus scale="  109.131">  1  5  2 -1</clus>
<clus scale="  109.131">  1  5  2 -1</clus>
</clustering>
</event>
<event>
 9    1  0.3846604E-005  0.1981765E+03  0.7546771E-02  0.1152220E+00
         -2   -1    0    0    0  501 -0.00000000000E+00  0.00000000000E+00  0.29489558168E+03  0.29489558168E+03  0.00000000000E+00 0.  1.
          1   -1    0    0  502    0  0.00000000000E+00 -0.00000000000E+00 -0.26792207820E+03  0.26792207820E+03  0.00000000000E+00 0. -1.
        -24    2    1    2    0    0 -0.16588101365E+03  0.66471146559E+02  0.69342064906E+01  0.19613800056E+03  0.80542585179E+02 0.  0.
         23    2    1    2    0    0  0.15222520232E+03 -0.87625592452E+02 -0.11548193835E+03  0.22883918272E+03  0.90446319947E+02 0.  0.
         11    1    3    3    0    0 -0.51550126777E+02  0.32609569895E+02 -0.34286717729E+02  0.69974128305E+02  0.00000000000E+00 0. -1.
        -12    1    3    3    0    0 -0.11433088687E+03  0.33861576664E+02  0.41220924219E+02  0.12616387225E+03  0.00000000000E+00 0.  1.
        -13    1    4    4    0    0  0.15359571180E+03 -0.61723790145E+02 -0.77331614835E+02  0.18270645201E+03  0.00000000000E+00 0. -1.
         13    1    4    4    0    0 -0.13705094817E+01 -0.25901802307E+02 -0.38150323513E+02  0.46132730714E+02  0.00000000000E+00 0.  1.
         21    1    1    2  502  501  0.13655811333E+02  0.21154445893E+02  0.13552123533E+03  0.13784047660E+03  0.00000000000E+00 0. -1.
<scales pt_clust_5="13000.00000" pt_clust_6="13000.00000" pt_clust_7="13000.00000" pt_clust_8="13000.00000" pt_clust_9="25.17919"></scales>
<clustering>
<clus scale="   25.179">  1  9  2 -1</clus>
<clus scale="   80.543">  5  6 -1 -1</clus>
<clus scale="   90.446">  7  8 -1 -1</clus>
<clus scale="  193.857">  1  5  2 -1</clus>
<clus scale="  198.177">  2  5  1 -1</clus>
</clustering>
</event>
<event>
 9    1  0.3846604E-005  0.1158168E+03  0.7546771E-02  0.1253427E+00
         -2   -1    0    0    0  501 -0.00000000000E+00  0.00000000000E+00  0.13034627587E+03  0.13034627587E+03  0.00000000000E+00 0.  1.
          1   -1    0    0  502    0  0.00000000000E+00 -0.00000000000E+00 -0.39419510126E+03  0.39419510126E+03  0.00000000000E+00 0. -1.
        -24    2    1    2    0    0 -0.19632791655E+02 -0.36200313594E+02 -0.61559221071E+02  0.10980955910E+03  0.81072142920E+02 0.  0.
         23    2    1    2    0    0 -0.44412529458E+02  0.92132821528E+02 -0.27225350622E+03  0.30461734956E+03  0.90602585113E+02 0.  0.
         13    1    3    3    0    0 -0.42817370849E+02 -0.39876950145E+01 -0.54623704749E+02  0.69519623693E+02  0.00000000000E+00 0. -1.
        -14    1    3    3    0    0  0.23184579194E+02 -0.32212618580E+02 -0.69355163221E+01  0.40289935404E+02  0.00000000000E+00 0.  1.
        -11    1    4    4    0    0 -0.31205753247E+02  0.18502150636E+02 -0.19833421085E+02  0.41346018017E+02  0.00000000000E+00 0.  1.
         11    1    4    4    0    0 -0.13206776211E+02  0.73630670892E+02 -0.25242008513E+03  0.26327133154E+03  0.00000000000E+00 0. -1.
         21    1    1    2  502  501  0.64045321113E+02 -0.55932507934E+02  0.69963901899E+02  0.11011446848E+03  0.00000000000E+00 0.  1.
<scales pt_clust_5="13000.00000" pt_clust_6="13000.00000" pt_clust_7="13000.00000" pt_clust_8="13000.00000" pt_clust_9="85.03087"></scales>
<clustering>
<clus scale="   81.072">  5  6 -1 -1</clus>
<clus scale="   85.031">  1  9  2 -1</clus>
<clus scale="   90.603">  7  8 -1 -1</clus>
<clus scale="  108.524">  1  5  2 -1</clus>
<clus scale="  115.817">  2  5  1 -1</clus>
</clustering>
</event>
<event>
 9    1  0.3846604E-005  0.1051287E+03  0.7546771E-02  0.1272905E+00
         -2   -1    0    0    0  501 -0.00000000000E+00  0.00000000000E+00  0.37370514218E+03  0.37370514218E+03  0.00000000000E+00 0.  1.
          1   -1    0    0  502    0  0.00000000000E+00 -0.00000000000E+00 -0.46858712498E+02  0.46858712498E+02  0.00000000000E+00 0. -1.
        -24    2    1    2    0    0 -0.15001818184E+02  0.65543580387E+02  0.16316908847E+03  0.19491587237E+03  0.82746784784E+02 0.  0.
         23    2    1    2    0    0 -0.95339811060E+00 -0.48977730190E+02  0.58250233511E+02  0.11774121070E+03  0.89834158151E+02 0.  0.
         13    1    3    3    0    0  0.16448699204E+02  0.21926664288E+02  0.50090436849E+01  0.27864472558E+02  0.00000000000E+00 0. -1.
        -14    1    3    3    0    0 -0.31450517388E+02  0.43616916099E+02  0.15816004478E+03  0.16705139981E+03  0.00000000000E+00 0.  1.
        -11    1    4    4    0    0 -0.37221731139E+02  0.31057106741E+01  0.12076142858E+02  0.39254756835E+02  0.00000000000E+00 0.  1.
         11    1    4    4    0    0  0.36268333029E+02 -0.52083440864E+02  0.46174090653E+02  0.78486453867E+02  0.00000000000E+00 0. -1.
         21    1    1    2  502  501  0.15955216294E+02 -0.16565850196E+02  0.10542710770E+03  0.10790677161E+03  0.00000000000E+00 0. -1.
<scales pt_clust_5="13000.00000" pt_clust_6="13000.00000" pt_clust_7="13000.00000" pt_clust_8="13000.00000" pt_clust_9="22.99992"></scales>
<clustering>
<clus scale="   23.000">  1  9  2 -1</clus>
<clus scale="   82.747">  5  6 -1 -1</clus>
<clus scale="   89.834">  7  8 -1 -1</clus>
<clus scale="   99.141">  1  5  2 -1</clus>
<clus scale="  105.129">  2  5  1 -1</clus>
</clustering>
</event>
<event>
 9    1  0.3846604E-005  0.1551787E+03  0.7546771E-02  0.1207705E+00
         -2   -1    0    0    0  501 -0.00000000000E+00  0.00000000000E+00  0.38573072751E+03  0.38573072751E+03  0.00000000000E+00 0.  1.
          1   -1    0    0  502    0  0.00000000000E+00 -0.00000000000E+00 -0.31384275406E+03  0.31384275406E+03  0.00000000000E+00 0. -1.
         23    2    1    2    0    0 -0.12991486396E+03  0.22092926264E+01  0.19585332087E+03  0.25202259661E+03  0.90962151764E+02 0.  0.
        -24    2    1    2    0    0  0.23037249109E+02  0.80865160814E+02 -0.24175795188E+03  0.26810928711E+03  0.79785922679E+02 0.  0.
         11    1    4    4    0    0  0.11136937176E+02  0.66651283977E+02 -0.24017906516E+03  0.24950432535E+03  0.00000000000E+00 0. -1.
        -12    1    4    4    0    0  0.11900311933E+02  0.14213876837E+02 -0.15788867160E+01  0.18604961760E+02  0.00000000000E+00 0.  1.
        -13    1    3    3    0    0 -0.12003766671E+03 -0.17420993947E+02  0.19546800648E+03  0.23004406973E+03  0.00000000000E+00 0.  1.
         13    1    3    3    0    0 -0.98771972549E+01  0.19630286574E+02  0.38531438414E+00  0.21978526879E+02  0.00000000000E+00 0. -1.
         21    1    1    2  502  501  0.10687761486E+03 -0.83074453440E+02  0.11779260447E+03  0.17944159785E+03  0.00000000000E+00 0.  1.
<scales pt_clust_5="13000.00000" pt_clust_6="13000.00000" pt_clust_7="13000.00000" pt_clust_8="13000.00000" pt_clust_9="125.72311"></scales>
<clustering>
<clus scale="   79.786">  5  6 -1 -1</clus>
<clus scale="   90.962">  7  8 -1 -1</clus>
<clus scale="  115.912">  2  5  1 -1</clus>
<clus scale="  125.723">  2  9  1 -1</clus>
<clus scale="  115.912">  2  5  1 -1</clus>
</clustering>
</event>
<event>
 9    1  0.3846604E-005  0.1488511E+03  0.7546771E-02  0.1204302E+00
         -2   -1    0    0    0  501 -0.00000000000E+00  0.00000000000E+00  0.25367614174E+03  0.25367614174E+03  0.00000000000E+00 0.  1.
          1   -1    0    0  502    0  0.00000000000E+00 -0.00000000000E+00 -0.62352696949E+03  0.62352696949E+03  0.00000000000E+00 0. -1.
         23    2    1    2    0    0 -0.18872834549E+03  0.34286276705E+02 -0.30678412532E+02  0.21550814517E+03  0.93320193305E+02 0.  0.
        -24    2    1    2    0    0  0.10854999487E+03  0.52288427018E+01 -0.47787665421E+03  0.49668321349E+03  0.80732123396E+02 0.  0.
         13    1    4    4    0    0  0.99167979619E+02  0.32686826014E+02 -0.33522708832E+03  0.35111240012E+03  0.00000000000E+00 0. -1.
        -14    1    4    4    0    0  0.93820152535E+01 -0.27457983313E+02 -0.14264956588E+03  0.14557081337E+03  0.00000000000E+00 0.  1.
        -13    1    3    3    0    0 -0.19188882425E+02  0.36967000040E+02 -0.18308251501E+02  0.45496861141E+02  0.00000000000E+00 0. -1.
         13    1    3    3    0    0 -0.16953946306E+03 -0.26807233351E+01 -0.12370161030E+02  0.17001128403E+03  0.00000000000E+00 0.  1.
         21    1    1    2  502  501  0.80178350617E+02 -0.39515119406E+02  0.13870423900E+03  0.16501175257E+03  0.00000000000E+00 0.  1.
<scales pt_clust_5="13000.00000" pt_clust_6="13000.00000" pt_clust_7="13000.00000" pt_clust_8="13000.00000" pt_clust_9="89.38687"></scales>
<clustering>
<clus scale="   80.732">  5  6 -1 -1</clus>
<clus scale="   89.387">  1  9  2 -1</clus>
<clus scale="   93.320">  7  8 -1 -1</clus>
<clus scale="  141.300">  2  5  1 -1</clus>
<clus scale="  141.300">  2  5  1 -1</clus>
</clustering>
</event>
<event>
 9    1  0.3846604E-005  0.1052015E+03  0.7546771E-02  0.1276691E+00
         -2   -1    0    0    0  501 -0.00000000000E+00  0.00000000000E+00  0.12482310013E+03  0.12482310013E+03  0.00000000000E+00 0.  1.
          1   -1    0    0  502    0  0.00000000000E+00 -0.00000000000E+00 -0.52657521629E+03  0.52657521629E+03  0.00000000000E+00 0. -1.
        -24    2    1    2    0    0 -0.36536357548E+02 -0.16915816860E+01 -0.33316686778E+01  0.87950840439E+02  0.79915476889E+02 0.  0.
         23    2    1    2    0    0  0.39951499129E+01  0.51167325741E+02 -0.46325756942E+03  0.47563727256E+03  0.94811301953E+02 0.  0.
         13    1    3    3    0    0 -0.44713718203E+02  0.22632403251E+02  0.19331232269E+02  0.53714419046E+02  0.00000000000E+00 0. -1.
        -14    1    3    3    0    0  0.81773606552E+01 -0.24323984937E+02 -0.22662900947E+02  0.34236421393E+02  0.00000000000E+00 0.  1.
        -11    1    4    4    0    0  0.41578905059E+02 -0.20015934153E+01 -0.21433898775E+03  0.21834379632E+03  0.00000000000E+00 0.  1.
         11    1    4    4    0    0 -0.37583755146E+02  0.53168919156E+02 -0.24891858166E+03  0.25729347623E+03  0.00000000000E+00 0. -1.
         21    1    1    2  502  501  0.32541207635E+02 -0.49475744055E+02  0.64837121939E+02  0.87810203425E+02  0.00000000000E+00 0.  1.
<scales pt_clust_5="13000.00000" pt_clust_6="13000.00000" pt_clust_7="13000.00000" pt_clust_8="13000.00000" pt_clust_9="59.21807"></scales>
<clustering>
<clus scale="   59.218">  1  9  2 -1</clus>
<clus scale="   79.915">  5  6 -1 -1</clus>
<clus scale="   92.004">  1  5  2 -1</clus>
<clus scale="   94.811">  7  8 -1 -1</clus>
<clus scale="  105.202">  2  5  1 -1</clus>
</clustering>
</event>
<event>
 9    1  0.3846604E-005  0.2616543E+03  0.7546771E-02  0.1106678E+00
         -2   -1    0    0    0  501 -0.00000000000E+00  0.00000000000E+00  0.46663790593E+02  0.46663790593E+02  0.00000000000E+00 0.  1.
          1   -1    0    0  502    0  0.00000000000E+00 -0.00000000000E+00 -0.17587814004E+04  0.17587814004E+04  0.00000000000E+00 0. -1.
         23    2    1    2    0    0 -0.23168341725E+03  0.65203189890E+02 -0.67479944252E+03  0.72232065400E+03  0.92000966149E+02 0.  0.
        -24    2    1    2    0    0  0.24940209016E+03 -0.20924911790E+02 -0.90349728064E+03  0.94105924572E+03  0.81522471290E+02 0.  0.
         11    1    4    4    0    0  0.24866129757E+03 -0.64753446579E+01 -0.85533427367E+03  0.89076994264E+03  0.00000000000E+00 0. -1.
        -12    1    4    4    0    0  0.74079258831E+00 -0.14449567132E+02 -0.48163006972E+02  0.50289303083E+02  0.00000000000E+00 0.  1.
        -13    1    3    3    0    0 -0.16254522232E+03 -0.89160640826E-01 -0.42064747212E+03  0.45096036750E+03  0.00000000000E+00 0.  1.
         13    1    3    3    0    0 -0.69138194930E+02  0.65292350531E+02 -0.25415197039E+03  0.27136028650E+03  0.00000000000E+00 0. -1.
         21    1    1    2  502  501 -0.17718672905E+02 -0.44278278100E+02 -0.13382088669E+03  0.14206529131E+03  0.00000000000E+00 0.  1.
<scales pt_clust_5="13000.00000" pt_clust_6="13000.00000" pt_clust_7="13000.00000" pt_clust_8="13000.00000" pt_clust_9="47.69190"></scales>
<clustering>
<clus scale="   47.692">  1  9  2 -1</clus>
<clus scale="   81.522">  5  6 -1 -1</clus>
<clus scale="   92.001">  7  8 -1 -1</clus>
<clus scale="  258.156">  2  5  1 -1</clus>
<clus scale="  258.156">  2  5  1 -1</clus>
</clustering>
</event>
<event>
 9    1  0.3846604E-005  0.3488824E+03  0.7546771E-02  0.1063436E+00
          1   -1    0    0  502    0  0.00000000000E+00  0.00000000000E+00  0.45391775256E+03  0.45391775256E+03  0.00000000000E+00 0. -1.
         -2   -1    0    0    0  501 -0.00000000000E+00 -0.00000000000E+00 -0.30936539281E+03  0.30936539281E+03  0.00000000000E+00 0.  1.
        -24    2    1    2    0    0 -0.26955397590E+03  0.23067670389E+03  0.20290748308E+01  0.36347297017E+03  0.78977181875E+02 0.  0.
         23    2    1    2    0    0  0.24965544457E+03 -0.18760946437E+03  0.12915494572E+03  0.35052071220E+03  0.93051692917E+02 0.  0.
         11    1    3    3    0    0 -0.14967483765E+03  0.93441082712E+02  0.30427441003E+02  0.17905200956E+03  0.00000000000E+00 0. -1.
        -12    1    3    3    0    0 -0.11987913825E+03  0.13723562118E+03 -0.28398366172E+02  0.18442096060E+03  0.00000000000E+00 0.  1.
        -13    1    4    4    0    0  0.61522091374E+02 -0.19832449478E+01  0.23294440141E+02  0.65814374791E+02  0.00000000000E+00 0.  1.
         13    1    4    4    0    0  0.18813335320E+03 -0.18562621942E+03  0.10586050558E+03  0.28470633741E+03  0.00000000000E+00 0. -1.
         21    1    1    2  502  501  0.19898531323E+02 -0.43067239527E+02  0.13368339206E+02  0.49289462996E+02  0.00000000000E+00 0.  1.
<scales pt_clust_5="13000.00000" pt_clust_6="13000.00000" pt_clust_7="13000.00000" pt_clust_8="13000.00000" pt_clust_9="47.44195"></scales>
<clustering>
<clus scale="   47.442">  1  9  2 -1</clus>
<clus scale="   78.977">  5  6 -1 -1</clus>
<clus scale="   93.052">  7  8 -1 -1</clus>
<clus scale="  345.395">  2  5  1 -1</clus>
<clus scale="   47.442">  1  5  2 -1</clus>
</clustering>
</event>
<event>
 9    1  0.3846604E-005  0.2156281E+03  0.7546771E-02  0.1138161E+00
          1   -1    0    0  502    0  0.00000000000E+00  0.00000000000E+00  0.80289082109E+03  0.80289082109E+03  0.00000000000E+00 0. -1.
         -2   -1    0    0    0  501 -0.00000000000E+00 -0.00000000000E+00 -0.62907720224E+03  0.62907720224E+03  0.00000000000E+00 0.  1.
        -24    2    1    2    0    0  0.18607021794E+03 -0.16931734682E+03  0.27029265073E+03  0.37710046107E+03  0.76525490914E+02 0.  0.
         23    2    1    2    0    0 -0.11000015413E+03  0.13709492712E+03  0.45569641991E+03  0.49654626723E+03  0.89464604308E+02 0.  0.
         11    1    3    3    0    0  0.32694044330E+02  0.23109683589E+01  0.34596757042E+02  0.47656864219E+02  0.00000000000E+00 0. -1.
        -12    1    3    3    0    0  0.15337617361E+03 -0.17162831518E+03  0.23569589369E+03  0.32944359685E+03  0.00000000000E+00 0.  1.
        -13    1    4    4    0    0 -0.63712304365E+02  0.30800752657E+02  0.10055520807E+03  0.12296053823E+03  0.00000000000E+00 0. -1.
         13    1    4    4    0    0 -0.46287849769E+02  0.10629417446E+03  0.35514121184E+03  0.37358572900E+03  0.00000000000E+00 0.  1.
         21    1    1    2  502  501 -0.76070063808E+02  0.32222419698E+02 -0.55217545179E+03  0.55832129504E+03  0.00000000000E+00 0.  1.
<scales pt_clust_5="13000.00000" pt_clust_6="13000.00000" pt_clust_7="13000.00000" pt_clust_8="13000.00000" pt_clust_9="82.61319"></scales>
<clustering>
<clus scale="   76.525">  5  6 -1 -1</clus>
<clus scale="   82.613">  2  9  1 -1</clus>
<clus scale="   89.465">  7  8 -1 -1</clus>
<clus scale="  210.589">  2  5  1 -1</clus>
<clus scale="  215.628">  1  5  2 -1</clus>
</clustering>
</event>
<event>
 9    1  0.3846604E-005  0.2730670E+03  0.7546771E-02  0.1099945E+00
         -2   -1    0    0    0  501 -0.00000000000E+00  0.00000000000E+00  0.14693494649E+03  0.14693494649E+03  0.00000000000E+00 0.  1.
          1   -1    0    0  502    0  0.00000000000E+00 -0.00000000000E+00 -0.12435656804E+04  0.12435656804E+04  0.00000000000E+00 0. -1.
        -24    2    1    2    0    0 -0.11437178514E+03  0.24849348165E+03 -0.61565168671E+02  0.29189078438E+03  0.81117472553E+02 0.  0.
         23    2    1    2    0    0  0.82878503984E+02 -0.24168767402E+03 -0.10311423658E+04  0.10661516037E+04  0.90237936945E+02 0.  0.
         11    1    3    3    0    0 -0.10365991817E+02  0.85946226518E+02  0.75870352494E+01  0.86900924868E+02  0.00000000000E+00 0. -1.
        -12    1    3    3    0    0 -0.10400579332E+03  0.16254725514E+03 -0.69152203921E+02  0.20498985951E+03  0.00000000000E+00 0.  1.
        -11    1    4    4    0    0  0.48601484930E+01 -0.14670145668E+03 -0.50944597370E+03  0.53016991479E+03  0.00000000000E+00 0.  1.
         11    1    4    4    0    0  0.78018355490E+02 -0.94986217343E+02 -0.52169639214E+03  0.53598168891E+03  0.00000000000E+00 0. -1.
         21    1    1    2  502  501  0.31493281152E+02 -0.68058076357E+01 -0.39231994503E+01  0.32458238849E+02  0.00000000000E+00 0. -1.
<scales pt_clust_5="13000.00000" pt_clust_6="13000.00000" pt_clust_7="13000.00000" pt_clust_8="13000.00000" pt_clust_9="32.22027"></scales>
<clustering>
<clus scale="   32.220">  1  9  2 -1</clus>
<clus scale="   81.117">  5  6 -1 -1</clus>
<clus scale="   90.238">  7  8 -1 -1</clus>
<clus scale="  270.190">  1  5  2 -1</clus>
<clus scale="  273.067">  2  5  1 -1</clus>
</clustering>
</event>
<event>
 9    1  0.3846604E-005  0.2059508E+03  0.7546771E-02  0.1179362E+00
         -2   -1    0    0    0  501 -0.00000000000E+00  0.00000000000E+00  0.10027756146E+03  0.10027756146E+03  0.00000000000E+00 0.  1.
          1   -1    0    0  502    0  0.00000000000E+00 -0.00000000000E+00 -0.61357887737E+03  0.61357887737E+03  0.00000000000E+00 0. -1.
        -24    2    1    2    0    0 -0.18035534301E+02  0.19670805973E+03 -0.16950664739E+03  0.27086712918E+03  0.74947694436E+02 0.  0.
         23    2    1    2    0    0 -0.11362972149E+02 -0.13328329104E+02 -0.13437739030E+03  0.16308219254E+03  0.90729030685E+02 0.  0.
         13    1    3    3    0    0 -0.34781168292E+02  0.52717935141E+02 -0.30928285468E+02  0.70324029999E+02  0.00000000000E+00 0. -1.
        -14    1    3    3    0    0  0.16745633991E+02  0.14399012459E+03 -0.13857836192E+03  0.20054309918E+03  0.00000000000E+00 0.  1.
        -11    1    4    4    0    0  0.32046835227E+02  0.11237196432E+02 -0.90460462412E+02  0.96624890641E+02  0.00000000000E+00 0. -1.
         11    1    4    4    0    0 -0.43409807376E+02 -0.24565525536E+02 -0.43916927885E+02  0.66457301903E+02  0.00000000000E+00 0.  1.
         21    1    1    2  502  501  0.29398506450E+02 -0.18337973063E+03 -0.20941727823E+03  0.27990711710E+03  0.00000000000E+00 0. -1.
<scales pt_clust_5="13000.00000" pt_clust_6="13000.00000" pt_clust_7="13000.00000" pt_clust_8="13000.00000" pt_clust_9="191.82953"></scales>
<clustering>
<clus scale="   74.948">  5  6 -1 -1</clus>
<clus scale="   90.729">  7  8 -1 -1</clus>
<clus scale="   92.404">  2  7  1 -1</clus>
<clus scale="  191.830">  2  9  1 -1</clus>
<clus scale="   92.404">  2  5  1 -1</clus>
</clustering>
</event>
<event>
 9    1  0.3846604E-005  0.1211002E+03  0.7546771E-02  0.1245666E+00
         -2   -1    0    0    0  501 -0.00000000000E+00  0.00000000000E+00  0.11129520788E+03  0.11129520788E+03  0.00000000000E+00 0.  1.
          1   -1    0    0  502    0  0.00000000000E+00 -0.00000000000E+00 -0.24208073456E+03  0.24208073456E+03  0.00000000000E+00 0. -1.
         23    2    1    2    0    0 -0.81502497918E+02 -0.17247830059E+02 -0.95733500952E+01  0.12606015184E+03  0.94124216020E+02 0.  0.
        -24    2    1    2    0    0  0.62776010300E+02  0.41672525788E+02 -0.14932212280E+03  0.18563346610E+03  0.80531115116E+02 0.  0.
         13    1    4    4    0    0  0.37992418075E+02 -0.12367250721E+02 -0.10232603260E+03  0.10984985056E+03  0.00000000000E+00 0. -1.
        -14    1    4    4    0    0  0.24783592224E+02  0.54039776510E+02 -0.46996090208E+02  0.75783615536E+02  0.00000000000E+00 0.  1.
        -11    1    3    3    0    0 -0.33155902790E+02 -0.35966882720E+02 -0.42367951236E+02  0.64714556588E+02  0.00000000000E+00 0. -1.
         11    1    3    3    0    0 -0.48346595127E+02  0.18719052661E+02  0.32794601140E+02  0.61345595253E+02  0.00000000000E+00 0.  1.
         21    1    1    2  502  501  0.18726487618E+02 -0.24424695729E+02  0.28109946221E+02  0.41682324510E+02  0.00000000000E+00 0.  1.
<scales pt_clust_5="13000.00000" pt_clust_6="13000.00000" pt_clust_7="13000.00000" pt_clust_8="13000.00000" pt_clust_9="30.77738"></scales>
<clustering>
<clus scale="   30.777">  1  9  2 -1</clus>
<clus scale="   80.531">  5  6 -1 -1</clus>
<clus scale="   94.124">  7  8 -1 -1</clus>
<clus scale="  110.865">  2  5  1 -1</clus>
<clus scale="  110.865">  2  5  1 -1</clus>
</clustering>
</event>
<event>
 9    1  0.3846604E-005  0.1056990E+03  0.7546771E-02  0.1273122E+00
          3   -1    0    0  502    0  0.00000000000E+00  0.00000000000E+00  0.66856429457E+03  0.66856429457E+03  0.00000000000E+00 0. -1.
         -4   -1    0    0    0  501 -0.00000000000E+00 -0.00000000000E+00 -0.43433575773E+02  0.43433575773E+02  0.00000000000E+00 0.  1.
        -24    2    1    2    0    0  0.19865753118E+02  0.10192318095E+03  0.12858561942E+03  0.18404968078E+03  0.80975555020E+02 0.  0.
         23    2    1    2    0    0 -0.24483924188E+02 -0.35641472075E+02  0.38622112521E+03  0.39916165412E+03  0.91068608670E+02 0.  0.
         11    1    3    3    0    0  0.43196841596E+01  0.10489919053E+03  0.77295934244E+02  0.13037316172E+03  0.00000000000E+00 0. -1.
        -12    1    3    3    0    0  0.15546068958E+02 -0.29760095802E+01  0.51289685175E+02  0.53676519060E+02  0.00000000000E+00 0.  1.
        -11    1    4    4    0    0 -0.63781672262E+01 -0.62757069254E+02  0.30841990416E+03  0.31480465060E+03  0.00000000000E+00 0.  1.
         11    1    4    4    0    0 -0.18105756962E+02  0.27115597179E+02  0.77801221052E+02  0.84357003519E+02  0.00000000000E+00 0. -1.
         21    1    1    2  502  501  0.46181710702E+01 -0.66281708877E+02  0.11032397416E+03  0.12878653544E+03  0.00000000000E+00 0.  1.
<scales pt_clust_5="13000.00000" pt_clust_6="13000.00000" pt_clust_7="13000.00000" pt_clust_8="13000.00000" pt_clust_9="66.44240"></scales>
<clustering>
<clus scale="   66.442">  2  9  1 -1</clus>
<clus scale="   80.976">  5  6 -1 -1</clus>
<clus scale="   91.069">  7  8 -1 -1</clus>
<clus scale="   97.138">  2  5  1 -1</clus>
<clus scale="  105.699">  1  5  2 -1</clus>
</clustering>
</event>
<event>
 9    1  0.3846604E-005  0.1391580E+03  0.7546771E-02  0.1216385E+00
          1   -1    0    0  502    0  0.00000000000E+00  0.00000000000E+00  0.15461656786E+03  0.15461656786E+03  0.00000000000E+00 0. -1.
         -2   -1    0    0    0  501 -0.00000000000E+00 -0.00000000000E+00 -0.19227636098E+03  0.19227636098E+03  0.00000000000E+00 0.  1.
         23    2    1    2    0    0  0.97230948887E+02 -0.34370656732E+02 -0.30583903813E+02  0.14056856462E+03  0.90492799277E+02 0.  0.
        -24    2    1    2    0    0 -0.93083736557E+02  0.54348795524E+02  0.51158307139E+02  0.14461904002E+03  0.81725887939E+02 0.  0.
         11    1    4    4    0    0 -0.67899142430E+02  0.60829752072E+02  0.67917975890E+02  0.11368114940E+03  0.00000000000E+00 0. -1.
        -12    1    4    4    0    0 -0.25184594128E+02 -0.64809565479E+01 -0.16759668751E+02  0.30937890616E+02  0.00000000000E+00 0.  1.
        -11    1    3    3    0    0  0.45862003561E+02 -0.31278572953E+02  0.28346185365E+02  0.62331201828E+02  0.00000000000E+00 0. -1.
         11    1    3    3    0    0  0.51368945326E+02 -0.30920837789E+01 -0.58930089178E+02  0.78237362791E+02  0.00000000000E+00 0.  1.
         21    1    1    2  502  501 -0.41472123297E+01 -0.19978138792E+02 -0.58234196450E+02  0.61705324210E+02  0.00000000000E+00 0.  1.
<scales pt_clust_5="13000.00000" pt_clust_6="13000.00000" pt_clust_7="13000.00000" pt_clust_8="13000.00000" pt_clust_9="20.40405"></scales>
<clustering>
<clus scale="   20.404">  2  9  1 -1</clus>
<clus scale="   81.726">  5  6 -1 -1</clus>
<clus scale="   90.493">  7  8 -1 -1</clus>
<clus scale="  133.623">  1  5  2 -1</clus>
<clus scale="  133.623">  1  5  2 -1</clus>
</clustering>
</event>
<event>
 9    1  0.3846604E-005  0.1015870E+03  0.7546771E-02  0.1282761E+00
         -2   -1    0    0    0  501 -0.00000000000E+00  0.00000000000E+00  0.17068403037E+03  0.17068403037E+03  0.00000000000E+00 0.  1.
          1   -1    0    0  502    0  0.00000000000E+00 -0.00000000000E+00 -0.59313588969E+03  0.59313588969E+03  0.00000000000E+00 0. -1.
         23    2    1    2    0    0  0.43608697279E+02  0.47347606196E+01  0.12894932665E+03  0.16389876816E+03  0.91163265219E+02 0.  0.
        -24    2    1    2    0    0 -0.63859689048E+02 -0.70250107249E+02 -0.49767837538E+03  0.51280913385E+03  0.79223134126E+02 0.  0.
         11    1    4    4    0    0 -0.61896222112E+02 -0.13773513140E+02 -0.32470680934E+03  0.33084039054E+03  0.00000000000E+00 0. -1.
        -12    1    4    4    0    0 -0.19634669356E+01 -0.56476594109E+02 -0.17297156604E+03  0.18196874331E+03  0.00000000000E+00 0.  1.
        -13    1    3    3    0    0  0.58105764110E+02 -0.26772837402E+02  0.10003765014E+03  0.11874593084E+03  0.00000000000E+00 0.  1.
         13    1    3    3    0    0 -0.14497066830E+02  0.31507598021E+02  0.28911676507E+02  0.45152837322E+02  0.00000000000E+00 0. -1.
         21    1    1    2  502  501  0.20250991768E+02  0.65515346629E+02 -0.53722810590E+02  0.87112018053E+02  0.00000000000E+00 0. -1.
<scales pt_clust_5="13000.00000" pt_clust_6="13000.00000" pt_clust_7="13000.00000" pt_clust_8="13000.00000" pt_clust_9="68.57378"></scales>
<clustering>
<clus scale="   68.574">  2  9  1 -1</clus>
<clus scale="   79.223">  5  6 -1 -1</clus>
<clus scale="   91.025">  2  5  1 -1</clus>
<clus scale="   91.163">  7  8 -1 -1</clus>
<clus scale="   68.574">  2  5  1 -1</clus>
</clustering>
</event>
<event>
 9    1  0.3846604E-005  0.1910827E+03  0.7546771E-02  0.1159342E+00
         -2   -1    0    0    0  501 -0.00000000000E+00  0.00000000000E+00  0.26318830777E+03  0.26318830777E+03  0.00000000000E+00 0.  1.
          1   -1    0    0  502    0  0.00000000000E+00 -0.00000000000E+00 -0.88037401581E+03  0.88037401581E+03  0.00000000000E+00 0. -1.
         23    2    1    2    0    0  0.17317572209E+02  0.14246673394E+03  0.19993606839E+03  0.26331697246E+03  0.93620125814E+02 0.  0.
        -24    2    1    2    0    0  0.36226184595E+01 -0.16760649420E+03 -0.82608521276E+03  0.84632128412E+03  0.75748775174E+02 0.  0.
         11    1    4    4    0    0  0.32094653675E+02 -0.92773857353E+02 -0.34813968719E+03  0.36171576852E+03  0.00000000000E+00 0. -1.
        -12    1    4    4    0    0 -0.28472035215E+02 -0.74832636847E+02 -0.47794552557E+03  0.48460551559E+03  0.00000000000E+00 0.  1.
        -13    1    3    3    0    0 -0.36490574511E+02  0.85101405140E+02  0.10350341227E+03  0.13887680705E+03  0.00000000000E+00 0.  1.
         13    1    3    3    0    0  0.53808146720E+02  0.57365328801E+02  0.96432656115E+02  0.12444016541E+03  0.00000000000E+00 0. -1.
         21    1    1    2  502  501 -0.20940190668E+02  0.25139760258E+02  0.89634363322E+01  0.33924067002E+02  0.00000000000E+00 0. -1.
<scales pt_clust_5="13000.00000" pt_clust_6="13000.00000" pt_clust_7="13000.00000" pt_clust_8="13000.00000" pt_clust_9="32.71848"></scales>
<clustering>
<clus scale="   32.718">  1  9  2 -1</clus>
<clus scale="   75.749">  5  6 -1 -1</clus>
<clus scale="   93.620">  7  8 -1 -1</clus>
<clus scale="  182.991">  2  5  1 -1</clus>
<clus scale="  182.991">  2  5  1 -1</clus>
</clustering>
</event>
<event>
 9    1  0.3846604E-005  0.1130384E+03  0.7546771E-02  0.1259699E+00
         -2   -1    0    0    0  501 -0.00000000000E+00  0.00000000000E+00  0.36977935353E+03  0.36977935353E+03  0.00000000000E+00 0.  1.
          1   -1    0    0  502    0  0.00000000000E+00 -0.00000000000E+00 -0.81533811199E+02  0.81533811199E+02  0.00000000000E+00 0. -1.
         23    2    1    2    0    0  0.93042354822E+01 -0.81815615345E+02  0.23585204767E+03  0.26629028365E+03  0.92216934787E+02 0.  0.
        -24    2    1    2    0    0 -0.14713050785E+01  0.62722082213E+02 -0.25351077257E+02  0.10458572382E+03  0.79745044816E+02 0.  0.
         11    1    4    4    0    0  0.84056130420E+01  0.19577093421E+02 -0.49696551108E+02  0.54070917409E+02  0.00000000000E+00 0. -1.
        -12    1    4    4    0    0 -0.98769181205E+01  0.43144988793E+02  0.24345473852E+02  0.50514806409E+02  0.00000000000E+00 0.  1.
        -11    1    3    3    0    0 -0.12465394252E+02 -0.94188787433E+02  0.15651259114E+03  0.18309315912E+03  0.00000000000E+00 0.  1.
         11    1    3    3    0    0  0.21769629734E+02  0.12373172088E+02  0.79339456537E+02  0.83197124529E+02  0.00000000000E+00 0. -1.
         21    1    1    2  502  501 -0.78329304038E+01  0.19093533132E+02  0.77744571917E+02  0.80437157264E+02  0.00000000000E+00 0.  1.
<scales pt_clust_5="13000.00000" pt_clust_6="13000.00000" pt_clust_7="13000.00000" pt_clust_8="13000.00000" pt_clust_9="20.63778"></scales>
<clustering>
<clus scale="   20.638">  1  9  2 -1</clus>
<clus scale="   79.745">  5  6 -1 -1</clus>
<clus scale="   92.217">  7  8 -1 -1</clus>
<clus scale="  103.116">  2  5  1 -1</clus>
<clus scale="  103.116">  2  5  1 -1</clus>
</clustering>
</event>
<event>
 9    1  0.3846604E-005  0.1410266E+03  0.7546771E-02  0.1228281E+00
          1   -1    0    0  502    0  0.00000000000E+00  0.00000000000E+00  0.47934677135E+03  0.47934677135E+03  0.00000000000E+00 0. -1.
         -2   -1    0    0    0  501 -0.00000000000E+00 -0.00000000000E+00 -0.21606028463E+03  0.21606028463E+03  0.00000000000E+00 0.  1.
         23    2    1    2    0    0  0.14299143454E+02  0.57221941627E+02  0.44185121297E+02  0.11755657521E+03  0.91588248829E+02 0.  0.
        -24    2    1    2    0    0 -0.25188628907E+02  0.62833841128E+02  0.37080704150E+03  0.38408107137E+03  0.73741770686E+02 0.  0.
         13    1    4    4    0    0  0.92204698539E+01  0.64579355850E+02  0.25878800072E+03  0.26688338200E+03  0.00000000000E+00 0. -1.
        -14    1    4    4    0    0 -0.34409098761E+02 -0.17455147218E+01  0.11201904077E+03  0.11719768937E+03  0.00000000000E+00 0.  1.
        -13    1    3    3    0    0 -0.17751844109E+02 -0.18753704170E+02  0.51808791017E+01  0.26337632727E+02  0.00000000000E+00 0.  1.
         13    1    3    3    0    0  0.32050987563E+02  0.75975645797E+02  0.39004242195E+02  0.91218942481E+02  0.00000000000E+00 0. -1.
         21    1    1    2  502  501  0.10889485453E+02 -0.12005578275E+03 -0.15170567607E+03  0.19376940940E+03  0.00000000000E+00 0.  1.
<scales pt_clust_5="13000.00000" pt_clust_6="13000.00000" pt_clust_7="13000.00000" pt_clust_8="13000.00000" pt_clust_9="107.23851"></scales>
<clustering>
<clus scale="   73.742">  5  6 -1 -1</clus>
<clus scale="   91.588">  7  8 -1 -1</clus>
<clus scale="  100.102">  1  5  2 -1</clus>
<clus scale="  107.239">  2  9  1 -1</clus>
<clus scale="  100.102">  1  5  2 -1</clus>
</clustering>
</event>
<event>
 9    1  0.3846604E-005  0.1503998E+03  0.7546771E-02  0.1201904E+00
          1   -1    0    0  502    0  0.00000000000E+00  0.00000000000E+00  0.18313273884E+04  0.18313273884E+04  0.00000000000E+00 0. -1.
         -2   -1    0    0    0  501 -0.00000000000E+00 -0.00000000000E+00 -0.58288872025E+02  0.58288872025E+02  0.00000000000E+00 0.  1.
         23    2    1    2    0    0  0.32687486030E+02  0.60754201594E+02  0.16102075294E+03  0.19693488568E+03  0.89978450560E+02 0.  0.
        -24    2    1    2    0    0 -0.97235301780E+02 -0.88832498239E+02  0.16149301487E+04  0.16222307307E+04  0.79292127935E+02 0.  0.
         13    1    4    4    0    0 -0.44242817988E+02 -0.54392912105E+01  0.26803757714E+03  0.27171889075E+03  0.00000000000E+00 0. -1.
        -14    1    4    4    0    0 -0.52992483792E+02 -0.83393207029E+02  0.13468925716E+04  0.13505118399E+04  0.00000000000E+00 0.  1.
        -13    1    3    3    0    0  0.59787259104E+02  0.61974279819E+02  0.11811455463E+03  0.14617241780E+03  0.00000000000E+00 0.  1.
         13    1    3    3    0    0 -0.27099773074E+02 -0.12200782254E+01  0.42906198306E+02  0.50762467873E+02  0.00000000000E+00 0. -1.
         21    1    1    2  502  501  0.64547815750E+02  0.28078296645E+02 -0.29123853227E+01  0.70450644063E+02  0.00000000000E+00 0.  1.
<scales pt_clust_5="13000.00000" pt_clust_6="13000.00000" pt_clust_7="13000.00000" pt_clust_8="13000.00000" pt_clust_9="70.39042"></scales>
<clustering>
<clus scale="   70.390">  2  9  1 -1</clus>
<clus scale="   79.292">  5  6 -1 -1</clus>
<clus scale="   89.978">  7  8 -1 -1</clus>
<clus scale="  144.261">  1  5  2 -1</clus>
<clus scale="  144.261">  1  5  2 -1</clus>
</clustering>
</event>
<event>
 9    1  0.3846604E-005  0.2614394E+03  0.7546771E-02  0.1133807E+00
         -2   -1    0    0    0  501 -0.00000000000E+00  0.00000000000E+00  0.27245163806E+03  0.27245163806E+03  0.00000000000E+00 0.  1.
          1   -1    0    0  502    0  0.00000000000E+00 -0.00000000000E+00 -0.10368172051E+04  0.10368172051E+04  0.00000000000E+00 0. -1.
        -24    2    1    2    0    0 -0.17050114107E+03 -0.46224485852E+02 -0.31781066802E+03  0.37256321793E+03  0.81193524626E+02 0.  0.
         23    2    1    2    0    0 -0.69808105948E+02 -0.63585913924E+02 -0.61136104290E+03  0.62530889571E+03  0.91282803222E+02 0.  0.
         13    1    3    3    0    0 -0.86585934435E+02 -0.65145506821E+02 -0.18106773358E+03  0.21101323476E+03  0.00000000000E+00 0. -1.
        -14    1    3    3    0    0 -0.83915206639E+02  0.18921020968E+02 -0.13674293445E+03  0.16154998316E+03  0.00000000000E+00 0.  1.
        -13    1    4    4    0    0 -0.13852723003E+02  0.23693096954E+02 -0.14306753087E+03  0.14567628210E+03  0.00000000000E+00 0.  1.
         13    1    4    4    0    0 -0.55955382945E+02 -0.87279010878E+02 -0.46829351203E+03  0.47963261361E+03  0.00000000000E+00 0. -1.
         21    1    1    2  502  501  0.24030924702E+03  0.10981039978E+03  0.16480614388E+03  0.31139672953E+03  0.00000000000E+00 0.  1.
<scales pt_clust_5="13000.00000" pt_clust_6="13000.00000" pt_clust_7="13000.00000" pt_clust_8="13000.00000" pt_clust_9="248.51194"></scales>
<clustering>
<clus scale="   81.194">  5  6 -1 -1</clus>
<clus scale="   91.283">  7  8 -1 -1</clus>
<clus scale="  131.335">  2  7  1 -1</clus>
<clus scale="  248.512">  1  9  2 -1</clus>
<clus scale="  131.335">  2  5  1 -1</clus>
</clustering>
</event>
<event>
 9    1  0.3846604E-005  0.2199963E+03  0.7546771E-02  0.1134983E+00
         -2   -1    0    0    0  501 -0.00000000000E+00  0.00000000000E+00  0.78452545347E+03  0.78452545347E+03  0.00000000000E+00 0.  1.
          1   -1    0    0  502    0  0.00000000000E+00 -0.00000000000E+00 -0.11674823879E+03  0.11674823879E+03  0.00000000000E+00 0. -1.
        -24    2    1    2    0    0 -0.18944635427E+03  0.29261313375E+02  0.53763865667E+03  0.57603215242E+03  0.77534314146E+02 0.  0.
         23    2    1    2    0    0  0.19457311358E+03 -0.53287462571E+02  0.32118800287E+02  0.22419000641E+03  0.92364990378E+02 0.  0.
         13    1    3    3    0    0 -0.10311053310E+03  0.35146382007E+02  0.20296322035E+03  0.23034999244E+03  0.00000000000E+00 0. -1.
        -14    1    3    3    0    0 -0.86335821168E+02 -0.58850686323E+01  0.33467543632E+03  0.34568215998E+03  0.00000000000E+00 0.  1.
        -11    1    4    4    0    0  0.76145045071E+02  0.22500474883E+02  0.25645278341E+02  0.83438717392E+02  0.00000000000E+00 0. -1.
         11    1    4    4    0    0  0.11842806851E+03 -0.75787937454E+02  0.64735219468E+01  0.14075128902E+03  0.00000000000E+00 0.  1.
         21    1    1    2  502  501 -0.51267593117E+01  0.24026149196E+02  0.98019757721E+02  0.10105153344E+03  0.00000000000E+00 0. -1.
<scales pt_clust_5="13000.00000" pt_clust_6="13000.00000" pt_clust_7="13000.00000" pt_clust_8="13000.00000" pt_clust_9="24.56704"></scales>
<clustering>
<clus scale="   24.567">  1  9  2 -1</clus>
<clus scale="   77.534">  5  6 -1 -1</clus>
<clus scale="   92.365">  7  8 -1 -1</clus>
<clus scale="  214.193">  1  5  2 -1</clus>
<clus scale="  219.996">  2  5  1 -1</clus>
</clustering>
</event>
<event>
 9    1  0.3846604E-005  0.1334521E+03  0.7546771E-02  0.1224415E+00
          1   -1    0    0  502    0  0.00000000000E+00  0.00000000000E+00  0.22806040265E+03  0.22806040265E+03  0.00000000000E+00 0. -1.
         -2   -1    0    0    0  501 -0.00000000000E+00 -0.00000000000E+00 -0.21569551765E+03  0.21569551765E+03  0.00000000000E+00 0.  1.
         23    2    1    2    0    0  0.61401809923E+02  0.79664482568E+02 -0.15955555833E+03  0.20900103227E+03  0.90038010040E+02 0.  0.
        -24    2    1    2    0    0 -0.30714795691E+02 -0.80674977065E+02  0.16483980871E+03  0.20324537631E+03  0.81759830341E+02 0.  0.
         11    1    4    4    0    0 -0.35445988043E+02 -0.49189212004E+02  0.15992099113E+03  0.17102841883E+03  0.00000000000E+00 0. -1.
        -12    1    4    4    0    0  0.47311923519E+01 -0.31485765061E+02  0.49188175812E+01  0.32216957475E+02  0.00000000000E+00 0.  1.
        -13    1    3    3    0    0  0.53853892522E+02  0.13330670594E+02 -0.11792299043E+03  0.13032183313E+03  0.00000000000E+00 0. -1.
         13    1    3    3    0    0  0.75479174011E+01  0.66333811973E+02 -0.41632567907E+02  0.78679199148E+02  0.00000000000E+00 0.  1.
         21    1    1    2  502  501 -0.30687014231E+02  0.10104944971E+01  0.70806346244E+01  0.31509511711E+02  0.00000000000E+00 0.  1.
<scales pt_clust_5="13000.00000" pt_clust_6="13000.00000" pt_clust_7="13000.00000" pt_clust_8="13000.00000" pt_clust_9="30.70365"></scales>
<clustering>
<clus scale="   30.704">  1  9  2 -1</clus>
<clus scale="   81.760">  5  6 -1 -1</clus>
<clus scale="   90.038">  7  8 -1 -1</clus>
<clus scale="  128.013">  1  5  2 -1</clus>
<clus scale="   30.704">  1  5  2 -1</clus>
</clustering>
</event>
<event>
 9    1  0.3846604E-005  0.1313974E+03  0.7546771E-02  0.1227222E+00
         -2   -1    0    0    0  501 -0.00000000000E+00  0.00000000000E+00  0.57655841270E+02  0.57655841270E+02  0.00000000000E+00 0.  1.
          1   -1    0    0  502    0  0.00000000000E+00 -0.00000000000E+00 -0.91726912472E+03  0.91726912472E+03  0.00000000000E+00 0. -1.
         23    2    1    2    0    0  0.67801874528E+02  0.15676965405E+00 -0.27709465867E+02  0.11458861430E+03  0.88122739757E+02 0.  0.
        -24    2    1    2    0    0 -0.97029312322E+02  0.29414609325E+02 -0.79261123908E+03  0.80312956625E+03  0.80651206917E+02 0.  0.
         13    1    4    4    0    0 -0.11003442795E+03  0.19191204521E+02 -0.64565418256E+03  0.65524438274E+03  0.00000000000E+00 0. -1.
        -14    1    4    4    0    0  0.13005115629E+02  0.10223404805E+02 -0.14695705653E+03  0.14788518351E+03  0.00000000000E+00 0.  1.
        -13    1    3    3    0    0  0.33173728554E+02  0.32629403968E+02 -0.44353205664E+02  0.64283599169E+02  0.00000000000E+00 0. -1.
         13    1    3    3    0    0  0.34628145974E+02 -0.32472634313E+02  0.16643739797E+02  0.50305015131E+02  0.00000000000E+00 0.  1.
         21    1    1    2  502  501  0.29227437794E+02 -0.29571378979E+02 -0.39292578498E+02  0.57206785434E+02  0.00000000000E+00 0. -1.
<scales pt_clust_5="13000.00000" pt_clust_6="13000.00000" pt_clust_7="13000.00000" pt_clust_8="13000.00000" pt_clust_9="41.57775"></scales>
<clustering>
<clus scale="   41.578">  1  9  2 -1</clus>
<clus scale="   80.651">  5  6 -1 -1</clus>
<clus scale="   88.123">  7  8 -1 -1</clus>
<clus scale="  126.508">  2  5  1 -1</clus>
<clus scale="  126.508">  2  5  1 -1</clus>
</clustering>
</event>
<event>
 9    1  0.3846604E-005  0.1214194E+03  0.7546771E-02  0.1254856E+00
          1   -1    0    0  502    0  0.00000000000E+00  0.00000000000E+00  0.27163603699E+03  0.27163603699E+03  0.00000000000E+00 0. -1.
         -2   -1    0    0    0  501 -0.00000000000E+00 -0.00000000000E+00 -0.14849327292E+03  0.14849327292E+03  0.00000000000E+00 0.  1.
        -24    2    1    2    0    0 -0.54672009395E+02 -0.76207886435E+02 -0.45284086978E+02  0.12946832477E+03  0.76907268961E+02 0.  0.
         23    2    1    2    0    0 -0.12883597974E+02  0.96362470899E+01  0.17297335720E+03  0.19570723866E+03  0.90126004077E+02 0.  0.
         11    1    3    3    0    0 -0.22956375421E+02 -0.31295764302E+02  0.20369623639E+02  0.43833110805E+02  0.00000000000E+00 0. -1.
        -12    1    3    3    0    0 -0.31715633974E+02 -0.44912122134E+02 -0.65653710617E+02  0.85635213964E+02  0.00000000000E+00 0.  1.
        -11    1    4    4    0    0 -0.11326730619E+01  0.48898710007E+02  0.11229753597E+03  0.12248715595E+03  0.00000000000E+00 0.  1.
         11    1    4    4    0    0 -0.11750924913E+02 -0.39262462917E+02  0.60675821227E+02  0.73220082711E+02  0.00000000000E+00 0. -1.
         21    1    1    2  502  501  0.67555607369E+02  0.66571639346E+02 -0.45465061476E+01  0.94953746479E+02  0.00000000000E+00 0. -1.
<scales pt_clust_5="13000.00000" pt_clust_6="13000.00000" pt_clust_7="13000.00000" pt_clust_8="13000.00000" pt_clust_9="93.95708"></scales>
<clustering>
<clus scale="   76.907">  5  6 -1 -1</clus>
<clus scale="   90.126">  7  8 -1 -1</clus>
<clus scale="   91.551">  1  7  2 -1</clus>
<clus scale="   93.957">  1  9  2 -1</clus>
<clus scale="   91.551">  1  5  2 -1</clus>
</clustering>
</event>
<event>
 9    1  0.3846604E-005  0.1232872E+03  0.7546771E-02  0.1239888E+00
          1   -1    0    0  502    0  0.00000000000E+00  0.00000000000E+00  0.27206135350E+03  0.27206135350E+03  0.00000000000E+00 0. -1.
         -2   -1    0    0    0  501 -0.00000000000E+00 -0.00000000000E+00 -0.64291743036E+02  0.64291743036E+02  0.00000000000E+00 0.  1.
         23    2    1    2    0    0  0.53291725436E+02  0.77447095572E+02  0.11192431915E+03  0.17220450143E+03  0.91045463821E+02 0.  0.
        -24    2    1    2    0    0 -0.36387838481E+02 -0.63344688182E+02  0.81098666715E+02  0.13765176086E+03  0.83871265720E+02 0.  0.
         11    1    4    4    0    0 -0.12502265153E+02  0.16725113774E+02  0.38651952079E+02  0.43931872988E+02  0.00000000000E+00 0. -1.
        -12    1    4    4    0    0 -0.23885573329E+02 -0.80069801956E+02  0.42446714636E+02  0.93719887868E+02  0.00000000000E+00 0.  1.
        -13    1    3    3    0    0  0.56336912638E+02  0.35274161718E+01  0.41483749682E+02  0.70051351722E+02  0.00000000000E+00 0.  1.
         13    1    3    3    0    0 -0.30451872029E+01  0.73919679400E+02  0.70440569467E+02  0.10215314970E+03  0.00000000000E+00 0. -1.
         21    1    1    2  502  501 -0.16903886954E+02 -0.14102407390E+02  0.14746624597E+02  0.26496834251E+02  0.00000000000E+00 0.  1.
<scales pt_clust_5="13000.00000" pt_clust_6="13000.00000" pt_clust_7="13000.00000" pt_clust_8="13000.00000" pt_clust_9="22.01407"></scales>
<clustering>
<clus scale="   22.014">  2  9  1 -1</clus>
<clus scale="   83.871">  5  6 -1 -1</clus>
<clus scale="   91.045">  7  8 -1 -1</clus>
<clus scale="  118.088">  1  5  2 -1</clus>
<clus scale="  118.088">  1  5  2 -1</clus>
</clustering>
</event>
<event>
 9    1  0.3846604E-005  0.9482357E+02  0.7546771E-02  0.1296607E+00
          1   -1    0    0  502    0  0.00000000000E+00  0.00000000000E+00  0.45072026324E+03  0.45072026324E+03  0.00000000000E+00 0. -1.
         -2   -1    0    0    0  501 -0.00000000000E+00 -0.00000000000E+00 -0.13476217751E+03  0.13476217751E+03  0.00000000000E+00 0.  1.
         23    2    1    2    0    0  0.14446007497E+02 -0.58542615211E+02  0.64328541638E+02  0.12534784190E+03  0.89095427887E+02 0.  0.
        -24    2    1    2    0    0 -0.23130550697E+02  0.18128284007E+02  0.34640419954E+03  0.35673742882E+03  0.80012915264E+02 0.  0.
         13    1    4    4    0    0 -0.44769023855E+02  0.34430373219E+02  0.19876619122E+03  0.20663425386E+03  0.00000000000E+00 0. -1.
        -14    1    4    4    0    0  0.21638473158E+02 -0.16302089212E+02  0.14763800832E+03  0.15010317496E+03  0.00000000000E+00 0.  1.
        -11    1    3    3    0    0 -0.29637380426E+02 -0.54904418725E+02  0.45762459793E+02  0.77376173596E+02  0.00000000000E+00 0. -1.
         11    1    3    3    0    0  0.44083387923E+02 -0.36381964858E+01  0.18566081845E+02  0.47971668300E+02  0.00000000000E+00 0.  1.
         21    1    1    2  502  501  0.86845432006E+01  0.40414331203E+02 -0.94774655442E+02  0.10339717004E+03  0.00000000000E+00 0.  1.
<scales pt_clust_5="13000.00000" pt_clust_6="13000.00000" pt_clust_7="13000.00000" pt_clust_8="13000.00000" pt_clust_9="41.33690"></scales>
<clustering>
<clus scale="   41.337">  2  9  1 -1</clus>
<clus scale="   80.013">  5  6 -1 -1</clus>
<clus scale="   86.346">  1  5  2 -1</clus>
<clus scale="   89.095">  7  8 -1 -1</clus>
<clus scale="   86.346">  1  5  2 -1</clus>
</clustering>
</event>
<event>
 9    1  0.3846604E-005  0.1488390E+03  0.7546771E-02  0.1204118E+00
          1   -1    0    0  502    0  0.00000000000E+00  0.00000000000E+00  0.18898289856E+03  0.18898289856E+03  0.00000000000E+00 0. -1.
         -2   -1    0    0    0  501 -0.00000000000E+00 -0.00000000000E+00 -0.27620016070E+03  0.27620016070E+03  0.00000000000E+00 0.  1.
        -24    2    1    2    0    0  0.76097644306E+02  0.70633242329E+02 -0.20275584698E+03  0.24164941815E+03  0.80651109226E+02 0.  0.
         23    2    1    2    0    0 -0.73941626211E+02 -0.93157457739E+02  0.12807467687E+03  0.19766585617E+03  0.92320051030E+02 0.  0.
         13    1    3    3    0    0  0.41543336663E+02  0.11337890283E+01 -0.27110818944E+02  0.49619862983E+02  0.00000000000E+00 0. -1.
        -14    1    3    3    0    0  0.34554307643E+02  0.69499453300E+02 -0.17564502803E+03  0.19202955517E+03  0.00000000000E+00 0.  1.
        -13    1    4    4    0    0 -0.48900579164E+02 -0.10693952224E+03  0.81685306461E+02  0.14317757279E+03  0.00000000000E+00 0.  1.
         13    1    4    4    0    0 -0.25041047047E+02  0.13782064497E+02  0.46389370410E+02  0.54488283383E+02  0.00000000000E+00 0. -1.
         21    1    1    2  502  501 -0.21560180955E+01  0.22524215410E+02 -0.12536092028E+02  0.25867784930E+02  0.00000000000E+00 0. -1.
<scales pt_clust_5="13000.00000" pt_clust_6="13000.00000" pt_clust_7="13000.00000" pt_clust_8="13000.00000" pt_clust_9="22.62717"></scales>
<clustering>
<clus scale="   22.627">  2  9  1 -1</clus>
<clus scale="   80.651">  5  6 -1 -1</clus>
<clus scale="   92.320">  7  8 -1 -1</clus>
<clus scale="  141.897">  2  5  1 -1</clus>
<clus scale="  148.839">  1  5  2 -1</clus>
</clustering>
</event>
<event>
 9    1  0.3846604E-005  0.1086101E+03  0.7546771E-02  0.1273644E+00
         -2   -1    0    0    0  501 -0.00000000000E+00  0.00000000000E+00  0.94256239529E+02  0.94256239529E+02  0.00000000000E+00 0.  1.
          1   -1    0    0  502    0  0.00000000000E+00 -0.00000000000E+00 -0.18237541810E+03  0.18237541810E+03  0.00000000000E+00 0. -1.
        -24    2    1    2    0    0 -0.36474439804E+02 -0.27586751747E+02  0.25209286892E+02  0.89784604188E+02  0.73036657732E+02 0.  0.
         23    2    1    2    0    0  0.44194370986E+02  0.54047624109E+02 -0.10322625287E+03  0.15749011554E+03  0.96297399305E+02 0.  0.
         11    1    3    3    0    0 -0.34145365415E+02 -0.41699320922E+02 -0.71855594382E+01  0.54372526234E+02  0.00000000000E+00 0. -1.
        -12    1    3    3    0    0 -0.23290743889E+01  0.14112569175E+02  0.32394846330E+02  0.35412077953E+02  0.00000000000E+00 0.  1.
        -11    1    4    4    0    0  0.37689128416E+02  0.73443241185E+02 -0.10852965463E+03  0.13635639336E+03  0.00000000000E+00 0. -1.
         11    1    4    4    0    0  0.65052425701E+01 -0.19395617076E+02  0.53034017671E+01  0.21133722175E+02  0.00000000000E+00 0.  1.
         21    1    1    2  502  501 -0.77199311823E+01 -0.26460872362E+02 -0.10102212595E+02  0.29356937901E+02  0.00000000000E+00 0.  1.
<scales pt_clust_5="13000.00000" pt_clust_6="13000.00000" pt_clust_7="13000.00000" pt_clust_8="13000.00000" pt_clust_9="27.56402"></scales>
<clustering>
<clus scale="   27.564">  2  9  1 -1</clus>
<clus scale="   73.037">  5  6 -1 -1</clus>
<clus scale="   88.642">  1  5  2 -1</clus>
<clus scale="   96.297">  7  8 -1 -1</clus>
<clus scale="   27.564">  2  5  1 -1</clus>
</clustering>
</event>
<event>
 9    1  0.3846604E-005  0.9196274E+02  0.7546771E-02  0.1304130E+00
         -2   -1    0    0    0  501 -0.00000000000E+00  0.00000000000E+00  0.97821221385E+02  0.97821221385E+02  0.00000000000E+00 0.  1.
          1   -1    0    0  502    0  0.00000000000E+00 -0.00000000000E+00 -0.35801052136E+03  0.35801052136E+03  0.00000000000E+00 0. -1.
        -24    2    1    2    0    0 -0.11001037801E+02 -0.14183583294E+02  0.56434602904E+02  0.99569219991E+02  0.80043540008E+02 0.  0.
         23    2    1    2    0    0  0.96837174418E+01 -0.19685154131E+02 -0.30757548946E+03  0.32118118166E+03  0.89852045374E+02 0.  0.
         11    1    3    3    0    0  0.33794539690E+02 -0.14370233500E+02  0.19927906402E+02  0.41781526746E+02  0.00000000000E+00 0. -1.
        -12    1    3    3    0    0 -0.44795577491E+02  0.18665020641E+00  0.36506696502E+02  0.57787693245E+02  0.00000000000E+00 0.  1.
        -13    1    4    4    0    0  0.42586116881E+02  0.13386295691E+02 -0.17627033330E+03  0.18183509195E+03  0.00000000000E+00 0. -1.
         13    1    4    4    0    0 -0.32902399439E+02 -0.33071449822E+02 -0.13130515616E+03  0.13934608970E+03  0.00000000000E+00 0.  1.
         21    1    1    2  502  501  0.13173203591E+01  0.33868737425E+02 -0.90484134192E+01  0.35081341096E+02  0.00000000000E+00 0.  1.
<scales pt_clust_5="13000.00000" pt_clust_6="13000.00000" pt_clust_7="13000.00000" pt_clust_8="13000.00000" pt_clust_9="33.89435"></scales>
<clustering>
<clus scale="   33.894">  1  9  2 -1</clus>
<clus scale="   80.044">  5  6 -1 -1</clus>
<clus scale="   82.406">  1  5  2 -1</clus>
<clus scale="   89.852">  7  8 -1 -1</clus>
<clus scale="   91.963">  2  5  1 -1</clus>
</clustering>
</event>
<event>
 9    1  0.3846604E-005  0.1739597E+03  0.7546771E-02  0.1174820E+00
          1   -1    0    0  502    0  0.00000000000E+00  0.00000000000E+00  0.99477538181E+03  0.99477538181E+03  0.00000000000E+00 0. -1.
         -2   -1    0    0    0  501 -0.00000000000E+00 -0.00000000000E+00 -0.95359251350E+02  0.95359251350E+02  0.00000000000E+00 0.  1.
         23    2    1    2    0    0 -0.38395368270E+02 -0.16988713810E+03  0.18947986883E+03  0.27273765588E+03  0.90262751157E+02 0.  0.
        -24    2    1    2    0    0  0.71210724874E+02  0.12558278805E+03  0.73734606653E+03  0.75582571395E+03  0.82166197678E+02 0.  0.
         11    1    4    4    0    0  0.57278516115E+02  0.12217897539E+03  0.72319995045E+03  0.73568111215E+03  0.00000000000E+00 0. -1.
        -12    1    4    4    0    0  0.13932208759E+02  0.34038126662E+01  0.14146116080E+02  0.20144601801E+02  0.00000000000E+00 0.  1.
        -13    1    3    3    0    0 -0.67898645906E+02 -0.12844856847E+03  0.14169592806E+03  0.20294579791E+03  0.00000000000E+00 0.  1.
         13    1    3    3    0    0  0.29503277636E+02 -0.41438569631E+02  0.47783940768E+02  0.69791857975E+02  0.00000000000E+00 0. -1.
         21    1    1    2  502  501 -0.32815356604E+02  0.44304350050E+02 -0.27409804910E+02  0.61571263327E+02  0.00000000000E+00 0.  1.
<scales pt_clust_5="13000.00000" pt_clust_6="13000.00000" pt_clust_7="13000.00000" pt_clust_8="13000.00000" pt_clust_9="55.13368"></scales>
<clustering>
<clus scale="   55.134">  2  9  1 -1</clus>
<clus scale="   82.166">  5  6 -1 -1</clus>
<clus scale="   90.263">  7  8 -1 -1</clus>
<clus scale="  169.900">  1  5  2 -1</clus>
<clus scale="  169.900">  1  5  2 -1</clus>
</clustering>
</event>
<event>
 9    1  0.3846604E-005  0.1026692E+03  0.7546771E-02  0.1280996E+00
         -2   -1    0    0    0  501 -0.00000000000E+00  0.00000000000E+00  0.52875827495E+02  0.52875827495E+02  0.00000000000E+00 0.  1.
          1   -1    0    0  502    0  0.00000000000E+00 -0.00000000000E+00 -0.38910291718E+03  0.38910291718E+03  0.00000000000E+00 0. -1.
        -24    2    1    2    0    0 -0.28768689587E+02  0.40780612400E+02 -0.27253699882E+02  0.97506209997E+02  0.79208591594E+02 0.  0.
         23    2    1    2    0    0  0.46429433884E+02  0.41562399240E+01 -0.22549404815E+03  0.24803590746E+03  0.92202380549E+02 0.  0.
         11    1    3    3    0    0 -0.24374138522E+02  0.33668563830E+02 -0.54765233320E+02  0.68752466136E+02  0.00000000000E+00 0. -1.
        -12    1    3    3    0    0 -0.43945510648E+01  0.71120485697E+01  0.27511533438E+02  0.28753743861E+02  0.00000000000E+00 0.  1.
        -11    1    4    4    0    0  0.13543647920E+02 -0.22107001908E+02 -0.89305194002E+01  0.27420869955E+02  0.00000000000E+00 0. -1.
         11    1    4    4    0    0  0.32885785965E+02  0.26263241832E+02 -0.21656352875E+03  0.22061503751E+03  0.00000000000E+00 0.  1.
         21    1    1    2  502  501 -0.17660744298E+02 -0.44936852324E+02 -0.83479341649E+02  0.96436627212E+02  0.00000000000E+00 0. -1.
<scales pt_clust_5="13000.00000" pt_clust_6="13000.00000" pt_clust_7="13000.00000" pt_clust_8="13000.00000" pt_clust_9="48.28274"></scales>
<clustering>
<clus scale="   48.283">  2  9  1 -1</clus>
<clus scale="   79.209">  5  6 -1 -1</clus>
<clus scale="   91.179">  1  5  2 -1</clus>
<clus scale="   92.202">  7  8 -1 -1</clus>
<clus scale="   48.283">  2  5  1 -1</clus>
</clustering>
</event>
<event>
 9    1  0.3846604E-005  0.2804772E+03  0.7546771E-02  0.1131505E+00
         -2   -1    0    0    0  501 -0.00000000000E+00  0.00000000000E+00  0.47726580960E+03  0.47726580960E+03  0.00000000000E+00 0.  1.
          1   -1    0    0  502    0  0.00000000000E+00 -0.00000000000E+00 -0.38898689350E+03  0.38898689350E+03  0.00000000000E+00 0. -1.
         23    2    1    2    0    0  0.17181449021E+03 -0.15019359670E+03  0.10963102853E+03  0.26894045457E+03  0.90728552002E+02 0.  0.
        -24    2    1    2    0    0  0.52070168528E+02 -0.57131277839E+02 -0.21022981730E+03  0.23844913895E+03  0.81768761901E+02 0.  0.
         11    1    4    4    0    0  0.21791817356E+01 -0.61684233360E+02 -0.12913145754E+03  0.14312451504E+03  0.00000000000E+00 0. -1.
        -12    1    4    4    0    0  0.49890986793E+02  0.45529555211E+01 -0.81098359766E+02  0.95324623911E+02  0.00000000000E+00 0.  1.
        -13    1    3    3    0    0  0.39240422172E+02 -0.74555615770E+02  0.60288223359E+01  0.84467137241E+02  0.00000000000E+00 0. -1.
         13    1    3    3    0    0  0.13257406804E+03 -0.75637980934E+02  0.10360220620E+03  0.18447331732E+03  0.00000000000E+00 0.  1.
         21    1    1    2  502  501 -0.22388465874E+03  0.20732487454E+03  0.18887770488E+03  0.35886310959E+03  0.00000000000E+00 0. -1.
<scales pt_clust_5="13000.00000" pt_clust_6="13000.00000" pt_clust_7="13000.00000" pt_clust_8="13000.00000" pt_clust_9="265.39741"></scales>
<clustering>
<clus scale="   81.769">  5  6 -1 -1</clus>
<clus scale="   90.729">  7  8 -1 -1</clus>
<clus scale="  112.523">  2  5  1 -1</clus>
<clus scale="  265.397">  2  9  1 -1</clus>
<clus scale="  112.523">  2  5  1 -1</clus>
</clustering>
</event>
<event>
 9    1  0.3846604E-005  0.1475190E+03  0.7546771E-02  0.1205485E+00
          1   -1    0    0  502    0  0.00000000000E+00  0.00000000000E+00  0.44566178968E+02  0.44566178968E+02  0.00000000000E+00 0. -1.
         -2   -1    0    0    0  501 -0.00000000000E+00 -0.00000000000E+00 -0.10784807264E+04  0.10784807264E+04  0.00000000000E+00 0.  1.
        -24    2    1    2    0    0  0.39022114424E+02  0.79870218981E+02 -0.72729909363E+03  0.73720237961E+03  0.81248997645E+02 0.  0.
         23    2    1    2    0    0 -0.47701232859E+02 -0.11168041521E+03 -0.11277798901E+03  0.18922260826E+03  0.91314828557E+02 0.  0.
         11    1    3    3    0    0  0.49234090287E+01  0.41384001714E+02 -0.10783987547E+03  0.11561277739E+03  0.00000000000E+00 0. -1.
        -12    1    3    3    0    0  0.34098705395E+02  0.38486217266E+02 -0.61945921816E+03  0.62158960222E+03  0.00000000000E+00 0.  1.
        -11    1    4    4    0    0 -0.52227960435E+01 -0.27540330082E+02 -0.87148079769E+02  0.91545263050E+02  0.00000000000E+00 0.  1.
         11    1    4    4    0    0 -0.42478436815E+02 -0.84140085131E+02 -0.25629909240E+02  0.97677345212E+02  0.00000000000E+00 0. -1.
         21    1    1    2  502  501  0.86791184352E+01  0.31810196232E+02 -0.19383746482E+03  0.19662191752E+03  0.00000000000E+00 0. -1.
<scales pt_clust_5="13000.00000" pt_clust_6="13000.00000" pt_clust_7="13000.00000" pt_clust_8="13000.00000" pt_clust_9="32.97295"></scales>
<clustering>
<clus scale="   32.973">  2  9  1 -1</clus>
<clus scale="   81.249">  5  6 -1 -1</clus>
<clus scale="   91.315">  7  8 -1 -1</clus>
<clus scale="  141.509">  2  5  1 -1</clus>
<clus scale="  147.519">  1  5  2 -1</clus>
</clustering>
</event>
<event>
 9    1  0.3846604E-005  0.1117726E+03  0.7546771E-02  0.1261784E+00
          1   -1    0    0  502    0  0.00000000000E+00  0.00000000000E+00  0.52802640934E+03  0.52802640934E+03  0.00000000000E+00 0. -1.
         -2   -1    0    0    0  501 -0.00000000000E+00 -0.00000000000E+00 -0.11311644024E+03  0.11311644024E+03  0.00000000000E+00 0.  1.
         23    2    1    2    0    0 -0.59542728096E+02  0.13617125562E+02 -0.35224322186E+02  0.11492049580E+03  0.90748029747E+02 0.  0.
        -24    2    1    2    0    0  0.39664653648E+02 -0.53506063534E+02  0.46721988104E+03  0.47849204273E+03  0.78892548004E+02 0.  0.
         11    1    4    4    0    0  0.14427242489E+02 -0.69059502842E+02  0.37644738162E+03  0.38300129424E+03  0.00000000000E+00 0. -1.
        -12    1    4    4    0    0  0.25237411159E+02  0.15553439308E+02  0.90772499420E+02  0.95490748490E+02  0.00000000000E+00 0.  1.
        -13    1    3    3    0    0 -0.67747293350E+02  0.42089256621E+02 -0.25926468405E+02  0.83865267204E+02  0.00000000000E+00 0.  1.
         13    1    3    3    0    0  0.82045652537E+01 -0.28472131059E+02 -0.92978537808E+01  0.31055228593E+02  0.00000000000E+00 0. -1.
         21    1    1    2  502  501  0.19878074448E+02  0.39888937972E+02 -0.17085589758E+02  0.47730311058E+02  0.00000000000E+00 0. -1.
<scales pt_clust_5="13000.00000" pt_clust_6="13000.00000" pt_clust_7="13000.00000" pt_clust_8="13000.00000" pt_clust_9="44.56754"></scales>
<clustering>
<clus scale="   44.568">  2  9  1 -1</clus>
<clus scale="   78.893">  5  6 -1 -1</clus>
<clus scale="   90.748">  7  8 -1 -1</clus>
<clus scale="  102.381">  1  5  2 -1</clus>
<clus scale="  102.381">  1  5  2 -1</clus>
</clustering>
</event>
<event>
 9    1  0.3846604E-005  0.9214320E+02  0.7546771E-02  0.1305033E+00
         -2   -1    0    0    0  501 -0.00000000000E+00  0.00000000000E+00  0.84656878361E+03  0.84656878361E+03  0.00000000000E+00 0.  1.
          1   -1    0    0  502    0  0.00000000000E+00 -0.00000000000E+00 -0.30546473008E+02  0.30546473008E+02  0.00000000000E+00 0. -1.
        -24    2    1    2    0    0  0.40573374043E+02  0.15931729875E+02  0.59677796142E+03  0.60368217047E+03  0.79926272288E+02 0.  0.
         23    2    1    2    0    0 -0.46361531027E+01  0.74407178085E+01  0.63206605555E+02  0.11161364172E+03  0.91573313993E+02 0.  0.
         11    1    3    3    0    0  0.24190799994E+02  0.46248483761E+02  0.26291790942E+03  0.26804839889E+03  0.00000000000E+00 0. -1.
        -12    1    3    3    0    0  0.16382574050E+02 -0.30316753886E+02  0.33386005200E+03  0.33563377158E+03  0.00000000000E+00 0.  1.
        -11    1    4    4    0    0 -0.15028319265E+02 -0.38134116644E+02  0.12966643367E+02  0.42990639357E+02  0.00000000000E+00 0. -1.
         11    1    4    4    0    0  0.10392166163E+02  0.45574834453E+02  0.50239962189E+02  0.68623002365E+02  0.00000000000E+00 0.  1.
         21    1    1    2  502  501 -0.35937220941E+02 -0.23372447684E+02  0.15603774363E+03  0.16181944443E+03  0.00000000000E+00 0. -1.
<scales pt_clust_5="13000.00000" pt_clust_6="13000.00000" pt_clust_7="13000.00000" pt_clust_8="13000.00000" pt_clust_9="42.86905"></scales>
<clustering>
<clus scale="   42.869">  1  9  2 -1</clus>
<clus scale="   79.926">  5  6 -1 -1</clus>
<clus scale="   80.579">  1  5  2 -1</clus>
<clus scale="   91.573">  7  8 -1 -1</clus>
<clus scale="   92.143">  2  5  1 -1</clus>
</clustering>
</event>
<event>
 9    1  0.3846604E-005  0.9478639E+02  0.7546771E-02  0.1297029E+00
          3   -1    0    0  502    0  0.00000000000E+00  0.00000000000E+00  0.76834472030E+02  0.76834472030E+02  0.00000000000E+00 0. -1.
         -4   -1    0    0    0  501 -0.00000000000E+00 -0.00000000000E+00 -0.64504955613E+03  0.64504955613E+03  0.00000000000E+00 0.  1.
        -24    2    1    2    0    0  0.11988486058E+02 -0.67400299677E+01 -0.47940490007E+03  0.48661945607E+03  0.82342486060E+02 0.  0.
         23    2    1    2    0    0 -0.20404087270E+02 -0.14767746307E+02  0.40901202404E+02  0.10351309941E+03  0.91693185585E+02 0.  0.
         13    1    3    3    0    0  0.16930929480E+02 -0.43330129604E+02 -0.27475357294E+03  0.27866410309E+03  0.00000000000E+00 0. -1.
        -14    1    3    3    0    0 -0.49424434219E+01  0.36590099636E+02 -0.20465132713E+03  0.20795535298E+03  0.00000000000E+00 0.  1.
        -11    1    4    4    0    0 -0.16783498170E+01 -0.25139712662E+02 -0.24229046625E+02  0.34955238680E+02  0.00000000000E+00 0.  1.
         11    1    4    4    0    0 -0.18725737453E+02  0.10371966354E+02  0.65130249028E+02  0.68557860729E+02  0.00000000000E+00 0. -1.
         21    1    1    2  502  501  0.84156012118E+01  0.21507776275E+02 -0.12971138643E+03  0.13175147268E+03  0.00000000000E+00 0.  1.
<scales pt_clust_5="13000.00000" pt_clust_6="13000.00000" pt_clust_7="13000.00000" pt_clust_8="13000.00000" pt_clust_9="23.09560"></scales>
<clustering>
<clus scale="   23.096">  2  9  1 -1</clus>
<clus scale="   82.342">  5  6 -1 -1</clus>
<clus scale="   85.774">  2  5  1 -1</clus>
<clus scale="   91.693">  7  8 -1 -1</clus>
<clus scale="   94.786">  1  5  2 -1</clus>
</clustering>
</event>
<event>
 9    1  0.3846604E-005  0.1022338E+03  0.7546771E-02  0.1281464E+00
         -2   -1    0    0    0  501 -0.00000000000E+00  0.00000000000E+00  0.38476069607E+02  0.38476069607E+02  0.00000000000E+00 0.  1.
          1   -1    0    0  502    0  0.00000000000E+00 -0.00000000000E+00 -0.43891660162E+03  0.43891660162E+03  0.00000000000E+00 0. -1.
        -24    2    1    2    0    0 -0.36047592069E+02  0.19894999606E+02 -0.77749927255E+02  0.11901565023E+03  0.80152566451E+02 0.  0.
         23    2    1    2    0    0  0.14461066756E+02 -0.47121991896E+02 -0.29785955326E+03  0.31567024984E+03  0.92183450742E+02 0.  0.
         13    1    3    3    0    0 -0.36638259832E+02  0.48835412189E+02 -0.55473809923E+02  0.82490018515E+02  0.00000000000E+00 0. -1.
        -14    1    3    3    0    0  0.59066776319E+00 -0.28940412584E+02 -0.22276117332E+02  0.36525631717E+02  0.00000000000E+00 0.  1.
        -11    1    4    4    0    0  0.41862076443E+02 -0.50742825916E+02 -0.13155921136E+03  0.14708872806E+03  0.00000000000E+00 0.  1.
         11    1    4    4    0    0 -0.27401009687E+02  0.36208340208E+01 -0.16630034190E+03  0.16858152178E+03  0.00000000000E+00 0. -1.
         21    1    1    2  502  501  0.21586525313E+02  0.27226992290E+02 -0.24831051492E+02  0.42706771155E+02  0.00000000000E+00 0.  1.
<scales pt_clust_5="13000.00000" pt_clust_6="13000.00000" pt_clust_7="13000.00000" pt_clust_8="13000.00000" pt_clust_9="34.74604"></scales>
<clustering>
<clus scale="   34.746">  1  9  2 -1</clus>
<clus scale="   80.153">  5  6 -1 -1</clus>
<clus scale="   91.534">  1  5  2 -1</clus>
<clus scale="   92.183">  7  8 -1 -1</clus>
<clus scale="  102.234">  2  5  1 -1</clus>
</clustering>
</event>
<event>
 9    1  0.3846604E-005  0.1894827E+03  0.7546771E-02  0.1159741E+00
          3   -1    0    0  502    0  0.00000000000E+00  0.00000000000E+00  0.53154549158E+03  0.53154549158E+03  0.00000000000E+00 0. -1.
         -4   -1    0    0    0  501 -0.00000000000E+00 -0.00000000000E+00 -0.18543812176E+03  0.18543812176E+03  0.00000000000E+00 0.  1.
        -24    2    1    2    0    0 -0.11865011122E+03  0.88448223476E+02 -0.66618464282E+02  0.18219366960E+03  0.82798407792E+02 0.  0.
         23    2    1    2    0    0  0.10776888557E+03 -0.13158489236E+03  0.44156974681E+03  0.48176971576E+03  0.90495862528E+02 0.  0.
         13    1    3    3    0    0  0.82907394323E+01  0.23391783151E+02 -0.12929142049E+00  0.24817908768E+02  0.00000000000E+00 0. -1.
        -14    1    3    3    0    0 -0.12694085065E+03  0.65056440325E+02 -0.66489172861E+02  0.15737576084E+03  0.00000000000E+00 0.  1.
        -13    1    4    4    0    0  0.55827177082E+02 -0.64669089169E+01  0.15262827144E+03  0.16264649967E+03  0.00000000000E+00 0.  1.
         13    1    4    4    0    0  0.51941708491E+02 -0.12511798344E+03  0.28894147537E+03  0.31912321609E+03  0.00000000000E+00 0. -1.
         21    1    1    2  502  501  0.10881225644E+02  0.43136668883E+02 -0.28843912710E+02  0.53020227972E+02  0.00000000000E+00 0.  1.
<scales pt_clust_5="13000.00000" pt_clust_6="13000.00000" pt_clust_7="13000.00000" pt_clust_8="13000.00000" pt_clust_9="44.48790"></scales>
<clustering>
<clus scale="   44.488">  2  9  1 -1</clus>
<clus scale="   82.798">  5  6 -1 -1</clus>
<clus scale="   90.496">  7  8 -1 -1</clus>
<clus scale="  185.929">  2  5  1 -1</clus>
<clus scale="  189.483">  1  5  2 -1</clus>
</clustering>
</event>
<event>
 9    1  0.3846604E-005  0.1427621E+03  0.7546771E-02  0.1221855E+00
         -2   -1    0    0    0  501 -0.00000000000E+00  0.00000000000E+00  0.31248779427E+02  0.31248779427E+02  0.00000000000E+00 0.  1.
          1   -1    0    0  502    0  0.00000000000E+00 -0.00000000000E+00 -0.93937623370E+03  0.93937623370E+03  0.00000000000E+00 0. -1.
        -24    2    1    2    0    0 -0.60924870296E+02 -0.74181655270E+01 -0.16182681402E+03  0.18689890606E+03  0.70543705247E+02 0.  0.
         23    2    1    2    0    0  0.10006836105E+03 -0.11141592995E+02 -0.71275556911E+03  0.72893605959E+03  0.11484539909E+03 0.  0.
         11    1    3    3    0    0 -0.37277694621E+02 -0.36279048789E+02 -0.65796038899E+02  0.83874397954E+02  0.00000000000E+00 0. -1.
        -12    1    3    3    0    0 -0.23647175675E+02  0.28860883262E+02 -0.96030775122E+02  0.10302450811E+03  0.00000000000E+00 0.  1.
        -11    1    4    4    0    0  0.97800052877E+02  0.35532961984E+02 -0.43464787296E+03  0.44692976540E+03  0.00000000000E+00 0.  1.
         11    1    4    4    0    0  0.22683081711E+01 -0.46674554979E+02 -0.27810769615E+03  0.28200629419E+03  0.00000000000E+00 0. -1.
         21    1    1    2  502  501 -0.39143490752E+02  0.18559758522E+02 -0.33545071139E+02  0.54790047476E+02  0.00000000000E+00 0.  1.
<scales pt_clust_5="13000.00000" pt_clust_6="13000.00000" pt_clust_7="13000.00000" pt_clust_8="13000.00000" pt_clust_9="43.32064"></scales>
<clustering>
<clus scale="   43.321">  1  9  2 -1</clus>
<clus scale="   70.544">  5  6 -1 -1</clus>
<clus scale="  110.309">  1  5  2 -1</clus>
<clus scale="  114.845">  7  8 -1 -1</clus>
<clus scale="  142.762">  2  5  1 -1</clus>
</clustering>
</event>
<event>
 9    1  0.3846604E-005  0.1983396E+03  0.7546771E-02  0.1186263E+00
         -2   -1    0    0    0  501 -0.00000000000E+00  0.00000000000E+00  0.68789716183E+03  0.68789716183E+03  0.00000000000E+00 0.  1.
          1   -1    0    0  502    0  0.00000000000E+00 -0.00000000000E+00 -0.17548184361E+03  0.17548184361E+03  0.00000000000E+00 0. -1.
        -24    2    1    2    0    0 -0.44721184996E+01  0.37937834315E+02  0.19655617926E+03  0.21562472627E+03  0.80002574076E+02 0.  0.
         23    2    1    2    0    0  0.13789218517E+03 -0.11403130184E+03 -0.84690808545E+02  0.21876547927E+03  0.93104292810E+02 0.  0.
         13    1    3    3    0    0  0.20624815743E+02  0.29050839032E+02  0.28921137713E+02  0.45888631267E+02  0.00000000000E+00 0. -1.
        -14    1    3    3    0    0 -0.25096934243E+02  0.88869952821E+01  0.16763504155E+03  0.16973609501E+03  0.00000000000E+00 0.  1.
        -11    1    4    4    0    0 -0.11197005157E+02 -0.19900853375E+02  0.72734607842E+00  0.22846135819E+02  0.00000000000E+00 0.  1.
         11    1    4    4    0    0  0.14908919032E+03 -0.94130448461E+02 -0.85418154623E+02  0.19591934345E+03  0.00000000000E+00 0. -1.
         21    1    1    2  502  501 -0.13342006667E+03  0.76093467522E+02  0.40054994751E+03  0.42898879990E+03  0.00000000000E+00 0.  1.
<scales pt_clust_5="13000.00000" pt_clust_6="13000.00000" pt_clust_7="13000.00000" pt_clust_8="13000.00000" pt_clust_9="175.12908"></scales>
<clustering>
<clus scale="   80.003">  5  6 -1 -1</clus>
<clus scale="   88.655">  1  5  2 -1</clus>
<clus scale="   93.104">  7  8 -1 -1</clus>
<clus scale="  175.129">  1  9  2 -1</clus>
<clus scale="  198.340">  2  5  1 -1</clus>
</clustering>
</event>
<event>
 9    1  0.3846604E-005  0.3001538E+03  0.7546771E-02  0.1085368E+00
          1   -1    0    0  502    0  0.00000000000E+00  0.00000000000E+00  0.29205520812E+03  0.29205520812E+03  0.00000000000E+00 0. -1.
         -2   -1    0    0    0  501 -0.00000000000E+00 -0.00000000000E+00 -0.51815394622E+03  0.51815394622E+03  0.00000000000E+00 0.  1.
         23    2    1    2    0    0 -0.73160990918E+02 -0.30679441918E+03 -0.32086095388E+03  0.45789431142E+03  0.85088791690E+02 0.  0.
        -24    2    1    2    0    0  0.58000064265E+02  0.20850640166E+03  0.10323124586E+03  0.25250445991E+03  0.79138392499E+02 0.  0.
         11    1    4    4    0    0  0.42705916199E+02  0.20796553901E+03  0.10543260611E+03  0.23704323472E+03  0.00000000000E+00 0. -1.
        -12    1    4    4    0    0  0.15294148065E+02  0.54086264320E+00 -0.22013602523E+01  0.15461225191E+02  0.00000000000E+00 0.  1.
        -11    1    3    3    0    0 -0.19291989252E+02 -0.20894195553E+03 -0.24645786684E+03  0.32368256325E+03  0.00000000000E+00 0.  1.
         11    1    3    3    0    0 -0.53869001665E+02 -0.97852463655E+02 -0.74403087041E+02  0.13421174816E+03  0.00000000000E+00 0. -1.
         21    1    1    2  502  501  0.15160926653E+02  0.98288017526E+02 -0.84690300845E+01  0.99810383011E+02  0.00000000000E+00 0.  1.
<scales pt_clust_5="13000.00000" pt_clust_6="13000.00000" pt_clust_7="13000.00000" pt_clust_8="13000.00000" pt_clust_9="99.45043"></scales>
<clustering>
<clus scale="   79.138">  5  6 -1 -1</clus>
<clus scale="   85.089">  7  8 -1 -1</clus>
<clus scale="   99.450">  1  9  2 -1</clus>
<clus scale="  298.522">  1  5  2 -1</clus>
<clus scale="   99.450">  1  5  2 -1</clus>
</clustering>
</event>
<event>
 9    1  0.3846604E-005  0.1468367E+03  0.7546771E-02  0.1208710E+00
         -2   -1    0    0    0  501 -0.00000000000E+00  0.00000000000E+00  0.11798365599E+03  0.11798365599E+03  0.00000000000E+00 0.  1.
          1   -1    0    0  502    0  0.00000000000E+00 -0.00000000000E+00 -0.25342551130E+03  0.25342551130E+03  0.00000000000E+00 0. -1.
        -24    2    1    2    0    0  0.38635414179E+01  0.11329192260E+03  0.21471870675E+02  0.14211668899E+03  0.82982681208E+02 0.  0.
         23    2    1    2    0    0 -0.15755193624E+02 -0.81966495189E+02 -0.13654835360E+03  0.19008224766E+03  0.10256254455E+03 0.  0.
         11    1    3    3    0    0 -0.68295375222E+01  0.82903959582E+02 -0.23828038246E+02  0.86530251958E+02  0.00000000000E+00 0. -1.
        -12    1    3    3    0    0  0.10693078940E+02  0.30387963013E+02  0.45299908921E+02  0.55586437029E+02  0.00000000000E+00 0.  1.
        -11    1    4    4    0    0 -0.31782973042E+02 -0.48896687972E+02 -0.11104470694E+02  0.59366259267E+02  0.00000000000E+00 0.  1.
         11    1    4    4    0    0  0.16027779418E+02 -0.33069807217E+02 -0.12544388291E+03  0.13071598839E+03  0.00000000000E+00 0. -1.
         21    1    1    2  502  501  0.11891652206E+02 -0.31325427407E+02 -0.20365372377E+02  0.39210230635E+02  0.00000000000E+00 0. -1.
<scales pt_clust_5="13000.00000" pt_clust_6="13000.00000" pt_clust_7="13000.00000" pt_clust_8="13000.00000" pt_clust_9="33.50662"></scales>
<clustering>
<clus scale="   33.507">  2  9  1 -1</clus>
<clus scale="   82.983">  5  6 -1 -1</clus>
<clus scale="  102.563">  7  8 -1 -1</clus>
<clus scale="  133.896">  1  5  2 -1</clus>
<clus scale="   33.507">  2  5  1 -1</clus>
</clustering>
</event>
<event>
 9    1  0.3846604E-005  0.2121235E+03  0.7546771E-02  0.1140247E+00
          1   -1    0    0  502    0  0.00000000000E+00  0.00000000000E+00  0.54723704646E+03  0.54723704646E+03  0.00000000000E+00 0. -1.
         -2   -1    0    0    0  501 -0.00000000000E+00 -0.00000000000E+00 -0.17352257022E+03  0.17352257022E+03  0.00000000000E+00 0.  1.
        -24    2    1    2    0    0 -0.16922460541E+03  0.11165981572E+03  0.21007763897E+01  0.21905166026E+03  0.82911610044E+02 0.  0.
         23    2    1    2    0    0  0.16795590577E+03 -0.91408485283E+02  0.40860557847E+03  0.45951642804E+03  0.87362070781E+02 0.  0.
         13    1    3    3    0    0 -0.64204314591E+02  0.39863628436E+02 -0.39413241040E+02  0.85233247348E+02  0.00000000000E+00 0. -1.
        -14    1    3    3    0    0 -0.10502029082E+03  0.71796187282E+02  0.41514017430E+02  0.13381841291E+03  0.00000000000E+00 0.  1.
        -13    1    4    4    0    0  0.63229736000E+02 -0.40829517077E+02  0.26078562999E+03  0.27142990584E+03  0.00000000000E+00 0.  1.
         13    1    4    4    0    0  0.10472616977E+03 -0.50578968206E+02  0.14781994849E+03  0.18808652219E+03  0.00000000000E+00 0. -1.
         21    1    1    2  502  501  0.12686996378E+01 -0.20251330435E+02 -0.36991878624E+02  0.42191528383E+02  0.00000000000E+00 0.  1.
<scales pt_clust_5="13000.00000" pt_clust_6="13000.00000" pt_clust_7="13000.00000" pt_clust_8="13000.00000" pt_clust_9="20.29103"></scales>
<clustering>
<clus scale="   20.291">  2  9  1 -1</clus>
<clus scale="   82.912">  5  6 -1 -1</clus>
<clus scale="   87.362">  7  8 -1 -1</clus>
<clus scale="  210.330">  2  5  1 -1</clus>
<clus scale="  212.123">  1  5  2 -1</clus>
</clustering>
</event>
<event>
 9    1  0.3846604E-005  0.1683999E+03  0.7546771E-02  0.1184569E+00
          1   -1    0    0  502    0  0.00000000000E+00  0.00000000000E+00  0.90373207746E+03  0.90373207746E+03  0.00000000000E+00 0. -1.
         -2   -1    0    0    0  501 -0.00000000000E+00 -0.00000000000E+00 -0.40308762004E+02  0.40308762004E+02  0.00000000000E+00 0.  1.
        -24    2    1    2    0    0 -0.69731926628E+02 -0.94922495140E+02  0.24756056885E+03  0.28584448379E+03  0.80919787377E+02 0.  0.
         23    2    1    2    0    0  0.90779806201E+02  0.96879647164E+02  0.61292348890E+03  0.63685430998E+03  0.11082224347E+03 0.  0.
         11    1    3    3    0    0 -0.34762783134E+02 -0.12583811225E+01  0.28221642394E+02  0.44793924964E+02  0.00000000000E+00 0. -1.
        -12    1    3    3    0    0 -0.34969143494E+02 -0.93664114018E+02  0.21933892646E+03  0.24105055883E+03  0.00000000000E+00 0.  1.
        -13    1    4    4    0    0  0.59848720882E+02 -0.10870821968E+02  0.21237697858E+03  0.22091633075E+03  0.00000000000E+00 0. -1.
         13    1    4    4    0    0  0.30931085318E+02  0.10775046913E+03  0.40054651032E+03  0.41593797923E+03  0.00000000000E+00 0.  1.
         21    1    1    2  502  501 -0.21047879573E+02 -0.19571520235E+01  0.29392577081E+01  0.21342045695E+02  0.00000000000E+00 0. -1.
<scales pt_clust_5="13000.00000" pt_clust_6="13000.00000" pt_clust_7="13000.00000" pt_clust_8="13000.00000" pt_clust_9="21.13868"></scales>
<clustering>
<clus scale="   21.139">  2  9  1 -1</clus>
<clus scale="   80.920">  5  6 -1 -1</clus>
<clus scale="  110.822">  7  8 -1 -1</clus>
<clus scale="  150.416">  2  5  1 -1</clus>
<clus scale="  168.400">  1  5  2 -1</clus>
</clustering>
</event>
<event>
 9    1  0.3846604E-005  0.9347528E+02  0.7546771E-02  0.1300246E+00
          1   -1    0    0  502    0  0.00000000000E+00  0.00000000000E+00  0.84084688203E+02  0.84084688203E+02  0.00000000000E+00 0. -1.
         -2   -1    0    0    0  501 -0.00000000000E+00 -0.00000000000E+00 -0.19550174480E+03  0.19550174480E+03  0.00000000000E+00 0.  1.
        -24    2    1    2    0    0  0.10438683636E+02  0.26516546675E+02 -0.87618850492E+02  0.12310859596E+03  0.81649066586E+02 0.  0.
         23    2    1    2    0    0  0.11882411090E+02 -0.17693360002E+02  0.29424742904E+02  0.98093231245E+02  0.91116517930E+02 0.  0.
         11    1    3    3    0    0 -0.17253654658E+02 -0.23423184215E+02 -0.34378331355E+02  0.45035583982E+02  0.00000000000E+00 0. -1.
        -12    1    3    3    0    0  0.27692338294E+02  0.49939730890E+02 -0.53240519138E+02  0.78073011980E+02  0.00000000000E+00 0.  1.
        -13    1    4    4    0    0 -0.32525094178E+02 -0.13936976724E+02  0.38841466853E+02  0.52543131033E+02  0.00000000000E+00 0. -1.
         13    1    4    4    0    0  0.44407505268E+02 -0.37563832787E+01 -0.94167239486E+01  0.45550100212E+02  0.00000000000E+00 0.  1.
         21    1    1    2  502  501 -0.22321094726E+02 -0.88231866726E+01 -0.53222949012E+02  0.58384605799E+02  0.00000000000E+00 0.  1.
<scales pt_clust_5="13000.00000" pt_clust_6="13000.00000" pt_clust_7="13000.00000" pt_clust_8="13000.00000" pt_clust_9="24.00166"></scales>
<clustering>
<clus scale="   24.002">  2  9  1 -1</clus>
<clus scale="   81.649">  5  6 -1 -1</clus>
<clus scale="   84.273">  2  5  1 -1</clus>
<clus scale="   91.117">  7  8 -1 -1</clus>
<clus scale="   93.475">  1  5  2 -1</clus>
</clustering>
</event>
<event>
 9    1  0.3846604E-005  0.1303861E+03  0.7546771E-02  0.1236453E+00
          1   -1    0    0  502    0  0.00000000000E+00  0.00000000000E+00  0.28391812796E+03  0.28391812796E+03  0.00000000000E+00 0. -1.
         -2   -1    0    0    0  501 -0.00000000000E+00 -0.00000000000E+00 -0.13958050872E+03  0.13958050872E+03  0.00000000000E+00 0.  1.
        -24    2    1    2    0    0 -0.89197104494E+02 -0.18348194113E+02  0.91327164357E+02  0.15206945464E+03  0.80571014682E+02 0.  0.
         23    2    1    2    0    0  0.67779037502E+01 -0.51804604860E+02  0.10622499536E+03  0.15082185567E+03  0.93454938042E+02 0.  0.
         11    1    3    3    0    0 -0.92779223657E+02 -0.31070294136E+02  0.96918085803E+02  0.13771878186E+03  0.00000000000E+00 0. -1.
        -12    1    3    3    0    0  0.35821191633E+01  0.12722100023E+02 -0.55909214455E+01  0.14350672782E+02  0.00000000000E+00 0.  1.
        -13    1    4    4    0    0 -0.16911329773E+02 -0.54239682489E+02  0.11264123999E+03  0.12615857156E+03  0.00000000000E+00 0. -1.
         13    1    4    4    0    0  0.23689233524E+02  0.24350776290E+01 -0.64162446300E+01  0.24663284111E+02  0.00000000000E+00 0.  1.
         21    1    1    2  502  501  0.82419200743E+02  0.70152798973E+02 -0.53214540477E+02  0.12060732637E+03  0.00000000000E+00 0.  1.
<scales pt_clust_5="13000.00000" pt_clust_6="13000.00000" pt_clust_7="13000.00000" pt_clust_8="13000.00000" pt_clust_9="102.51262"></scales>
<clustering>
<clus scale="   80.571">  5  6 -1 -1</clus>
<clus scale="   93.455">  7  8 -1 -1</clus>
<clus scale="  107.068">  1  7  2 -1</clus>
<clus scale="  102.513">  2  9  1 -1</clus>
<clus scale="  107.068">  1  5  2 -1</clus>
</clustering>
</event>
<event>
 9    1  0.3846604E-005  0.1035971E+03  0.7546771E-02  0.1277876E+00
         -2   -1    0    0    0  501 -0.00000000000E+00  0.00000000000E+00  0.68035266156E+02  0.68035266156E+02  0.00000000000E+00 0.  1.
          1   -1    0    0  502    0  0.00000000000E+00 -0.00000000000E+00 -0.28269681968E+03  0.28269681968E+03  0.00000000000E+00 0. -1.
        -24    2    1    2    0    0 -0.35353063062E+02 -0.60980783759E+02 -0.48775421593E+02  0.11772589911E+03  0.80696037781E+02 0.  0.
         23    2    1    2    0    0 -0.10449150643E+02  0.42755545072E+02 -0.15014894333E+03  0.18126006406E+03  0.91505651506E+02 0.  0.
         11    1    3    3    0    0  0.26137519735E+02 -0.15532119378E+02 -0.17761558166E+02  0.35212066380E+02  0.00000000000E+00 0. -1.
        -12    1    3    3    0    0 -0.61490582797E+02 -0.45448664381E+02 -0.31013863427E+02  0.82513832728E+02  0.00000000000E+00 0.  1.
        -11    1    4    4    0    0 -0.35936652120E+02  0.18642807867E+02 -0.17597718274E+02  0.44143821076E+02  0.00000000000E+00 0.  1.
         11    1    4    4    0    0  0.25487501477E+02  0.24112737206E+02 -0.13255122506E+03  0.13711624299E+03  0.00000000000E+00 0. -1.
         21    1    1    2  502  501  0.45802213705E+02  0.18225238687E+02 -0.15737188597E+02  0.51746122661E+02  0.00000000000E+00 0.  1.
<scales pt_clust_5="13000.00000" pt_clust_6="13000.00000" pt_clust_7="13000.00000" pt_clust_8="13000.00000" pt_clust_9="49.29505"></scales>
<clustering>
<clus scale="   49.295">  1  9  2 -1</clus>
<clus scale="   80.696">  5  6 -1 -1</clus>
<clus scale="   91.506">  7  8 -1 -1</clus>
<clus scale="   94.186">  1  5  2 -1</clus>
<clus scale="  103.597">  2  5  1 -1</clus>
</clustering>
</event>
<event>
 9    1  0.3846604E-005  0.1697942E+03  0.7546771E-02  0.1180077E+00
          1   -1    0    0  502    0  0.00000000000E+00  0.00000000000E+00  0.31944880185E+03  0.31944880185E+03  0.00000000000E+00 0. -1.
         -2   -1    0    0    0  501 -0.00000000000E+00 -0.00000000000E+00 -0.17826101273E+03  0.17826101273E+03  0.00000000000E+00 0.  1.
        -24    2    1    2    0    0  0.14193555528E+03 -0.54419260050E+02 -0.79659605204E+02  0.18949513518E+03  0.80346722630E+02 0.  0.
         23    2    1    2    0    0 -0.13457591074E+03  0.34388073143E+02  0.23010683216E+03  0.28495204831E+03  0.94632448473E+02 0.  0.
         13    1    3    3    0    0  0.39110663001E+02 -0.33895453134E+01  0.13651204348E+02  0.41563064828E+02  0.00000000000E+00 0. -1.
        -14    1    3    3    0    0  0.10282489228E+03 -0.51029714736E+02 -0.93310809552E+02  0.14793207035E+03  0.00000000000E+00 0.  1.
        -13    1    4    4    0    0 -0.16663700060E+02  0.28536174082E+02  0.89155702617E+01  0.34226883061E+02  0.00000000000E+00 0.  1.
         13    1    4    4    0    0 -0.11791221068E+03  0.58518990612E+01  0.22119126189E+03  0.25072516524E+03  0.00000000000E+00 0. -1.
         21    1    1    2  502  501 -0.73596445443E+01  0.20031186906E+02 -0.92594378358E+01  0.23262631101E+02  0.00000000000E+00 0. -1.
<scales pt_clust_5="13000.00000" pt_clust_6="13000.00000" pt_clust_7="13000.00000" pt_clust_8="13000.00000" pt_clust_9="21.34040"></scales>
<clustering>
<clus scale="   21.340">  2  9  1 -1</clus>
<clus scale="   80.347">  5  6 -1 -1</clus>
<clus scale="   94.632">  7  8 -1 -1</clus>
<clus scale="  162.266">  2  5  1 -1</clus>
<clus scale="  169.794">  1  5  2 -1</clus>
</clustering>
</event>
<event>
 9    1  0.3846604E-005  0.2376338E+03  0.7546771E-02  0.1122071E+00
          1   -1    0    0  502    0  0.00000000000E+00  0.00000000000E+00  0.28941340973E+03  0.28941340973E+03  0.00000000000E+00 0. -1.
         -2   -1    0    0    0  501 -0.00000000000E+00 -0.00000000000E+00 -0.29028626199E+03  0.29028626199E+03  0.00000000000E+00 0.  1.
        -24    2    1    2    0    0 -0.59707147333E+02  0.25230301575E+03 -0.62015001665E+02  0.27834453873E+03  0.80050400438E+02 0.  0.
         23    2    1    2    0    0  0.32562570566E+02 -0.19913050414E+03  0.84821682364E+02  0.23713002637E+03  0.91228575169E+02 0.  0.
         13    1    3    3    0    0 -0.71444136260E+02  0.19032698583E+03 -0.24022471722E+02  0.20470883051E+03  0.00000000000E+00 0. -1.
        -14    1    3    3    0    0  0.11736988926E+02  0.61976029918E+02 -0.37992529943E+02  0.73635708219E+02  0.00000000000E+00 0.  1.
        -11    1    4    4    0    0 -0.36805478094E+01 -0.13230382479E+03  0.91364263159E+02  0.16082685431E+03  0.00000000000E+00 0. -1.
         11    1    4    4    0    0  0.36243118375E+02 -0.66826679350E+02 -0.65425807955E+01  0.76303172057E+02  0.00000000000E+00 0.  1.
         21    1    1    2  502  501  0.27144576768E+02 -0.53172511608E+02 -0.23679532965E+02  0.64225106618E+02  0.00000000000E+00 0.  1.
<scales pt_clust_5="13000.00000" pt_clust_6="13000.00000" pt_clust_7="13000.00000" pt_clust_8="13000.00000" pt_clust_9="59.70045"></scales>
<clustering>
<clus scale="   59.700">  2  9  1 -1</clus>
<clus scale="   80.050">  5  6 -1 -1</clus>
<clus scale="   91.229">  7  8 -1 -1</clus>
<clus scale="  233.571">  2  5  1 -1</clus>
<clus scale="  237.634">  1  5  2 -1</clus>
</clustering>
</event>
<event>
 9    1  0.3846604E-005  0.1035286E+03  0.7546771E-02  0.1279752E+00
         -2   -1    0    0    0  501 -0.00000000000E+00  0.00000000000E+00  0.27867168544E+02  0.27867168544E+02  0.00000000000E+00 0.  1.
          1   -1    0    0  502    0  0.00000000000E+00 -0.00000000000E+00 -0.91802908495E+03  0.91802908495E+03  0.00000000000E+00 0. -1.
        -24    2    1    2    0    0  0.32720911940E+02 -0.38569607010E+02 -0.17636240073E+03  0.20001770591E+03  0.79656221480E+02 0.  0.
         23    2    1    2    0    0  0.55253674880E+02  0.34849506703E+02 -0.52885548564E+03  0.54104285412E+03  0.93657827226E+02 0.  0.
         11    1    3    3    0    0  0.39744007707E+02 -0.59885244484E+02 -0.13183800485E+03  0.15015687856E+03  0.00000000000E+00 0. -1.
        -12    1    3    3    0    0 -0.70230957672E+01  0.21315637474E+02 -0.44524395881E+02  0.49860827346E+02  0.00000000000E+00 0.  1.
        -11    1    4    4    0    0  0.62548645585E+02 -0.12880761174E+02 -0.24937551803E+03  0.25742260209E+03  0.00000000000E+00 0. -1.
         11    1    4    4    0    0 -0.72949707046E+01  0.47730267877E+02 -0.27947996761E+03  0.28362025203E+03  0.00000000000E+00 0.  1.
         21    1    1    2  502  501 -0.87974586820E+02  0.37201003074E+01 -0.18494403004E+03  0.20483569347E+03  0.00000000000E+00 0.  1.
<scales pt_clust_5="13000.00000" pt_clust_6="13000.00000" pt_clust_7="13000.00000" pt_clust_8="13000.00000" pt_clust_9="88.05321"></scales>
<clustering>
<clus scale="   79.656">  5  6 -1 -1</clus>
<clus scale="   88.053">  1  9  2 -1</clus>
<clus scale="   91.058">  1  5  2 -1</clus>
<clus scale="   93.658">  7  8 -1 -1</clus>
<clus scale="  103.529">  2  5  1 -1</clus>
</clustering>
</event>
<event>
 9    1  0.3846604E-005  0.1323960E+03  0.7546771E-02  0.1241243E+00
          1   -1    0    0  502    0  0.00000000000E+00  0.00000000000E+00  0.27960801007E+03  0.27960801007E+03  0.00000000000E+00 0. -1.
         -2   -1    0    0    0  501 -0.00000000000E+00 -0.00000000000E+00 -0.35597973340E+03  0.35597973340E+03  0.00000000000E+00 0.  1.
         23    2    1    2    0    0 -0.97497618627E+01  0.12473977324E+02 -0.13385685097E+03  0.16286005425E+03  0.91406141764E+02 0.  0.
        -24    2    1    2    0    0  0.94664739858E+02  0.28361552409E+02  0.23605622313E+03  0.27082243886E+03  0.88636687010E+02 0.  0.
         13    1    4    4    0    0  0.56136138559E+02  0.58685846080E+02  0.12069079061E+03  0.14547013962E+03  0.00000000000E+00 0. -1.
        -14    1    4    4    0    0  0.38528601300E+02 -0.30324293670E+02  0.11536543252E+03  0.12535229924E+03  0.00000000000E+00 0.  1.
        -13    1    3    3    0    0 -0.18450574484E+01  0.38729698143E+02 -0.16151541066E+02  0.42003166953E+02  0.00000000000E+00 0. -1.
         13    1    3    3    0    0 -0.79047044143E+01 -0.26255720820E+02 -0.11770530990E+03  0.12085688730E+03  0.00000000000E+00 0.  1.
         21    1    1    2  502  501 -0.84914977996E+02 -0.40835529733E+02 -0.17857109549E+03  0.20190525036E+03  0.00000000000E+00 0.  1.
<scales pt_clust_5="13000.00000" pt_clust_6="13000.00000" pt_clust_7="13000.00000" pt_clust_8="13000.00000" pt_clust_9="98.34754"></scales>
<clustering>
<clus scale="   88.637">  5  6 -1 -1</clus>
<clus scale="   91.406">  7  8 -1 -1</clus>
<clus scale="   92.767">  2  7  1 -1</clus>
<clus scale="   98.348">  2  9  1 -1</clus>
<clus scale="  132.396">  1  5  2 -1</clus>
</clustering>
</event>
<event>
 9    1  0.3846604E-005  0.1003513E+03  0.7546771E-02  0.1284309E+00
         -2   -1    0    0    0  501 -0.00000000000E+00  0.00000000000E+00  0.10890205809E+03  0.10890205809E+03  0.00000000000E+00 0.  1.
          1   -1    0    0  502    0  0.00000000000E+00 -0.00000000000E+00 -0.44887089111E+03  0.44887089111E+03  0.00000000000E+00 0. -1.
        -24    2    1    2    0    0 -0.40219204207E+02 -0.28753073052E+02 -0.14918093173E+03  0.17686716551E+03  0.81133964823E+02 0.  0.
         23    2    1    2    0    0  0.20619966355E+02  0.34283468981E+02 -0.27600112385E+03  0.29329294956E+03  0.90794243400E+02 0.  0.
         11    1    3    3    0    0 -0.28130372429E+02 -0.80145125635E+01 -0.37741598954E+01  0.29492279457E+02  0.00000000000E+00 0. -1.
        -12    1    3    3    0    0 -0.12088831778E+02 -0.20738560488E+02 -0.14540677183E+03  0.14737488605E+03  0.00000000000E+00 0.  1.
        -13    1    4    4    0    0  0.74329506601E+01 -0.31281501107E+02 -0.81358372219E+02  0.87481231114E+02  0.00000000000E+00 0.  1.
         13    1    4    4    0    0  0.13187015695E+02  0.65564970087E+02 -0.19464275164E+03  0.20581171845E+03  0.00000000000E+00 0. -1.
         21    1    1    2  502  501  0.19599237852E+02 -0.55303959287E+01  0.85213222570E+02  0.87612834130E+02  0.00000000000E+00 0.  1.
<scales pt_clust_5="13000.00000" pt_clust_6="13000.00000" pt_clust_7="13000.00000" pt_clust_8="13000.00000" pt_clust_9="20.36456"></scales>
<clustering>
<clus scale="   20.365">  1  9  2 -1</clus>
<clus scale="   81.134">  5  6 -1 -1</clus>
<clus scale="   90.794">  7  8 -1 -1</clus>
<clus scale="   91.703">  1  5  2 -1</clus>
<clus scale="  100.351">  2  5  1 -1</clus>
</clustering>
</event>
<event>
 9    1  0.3846604E-005  0.9827989E+02  0.7546771E-02  0.1289460E+00
          1   -1    0    0  502    0  0.00000000000E+00  0.00000000000E+00  0.16268628249E+03  0.16268628249E+03  0.00000000000E+00 0. -1.
         -2   -1    0    0    0  501 -0.00000000000E+00 -0.00000000000E+00 -0.19595479068E+03  0.19595479068E+03  0.00000000000E+00 0.  1.
        -24    2    1    2    0    0 -0.24197203407E+02 -0.26461338341E+02 -0.15142121282E+03  0.17534584430E+03  0.80821249334E+02 0.  0.
         23    2    1    2    0    0  0.36745707601E+02  0.53894390740E+01  0.12366859417E+03  0.15815731062E+03  0.91326450928E+02 0.  0.
         13    1    3    3    0    0  0.24316903257E+02 -0.99510398025E+01 -0.97411899968E+02  0.10089307822E+03  0.00000000000E+00 0. -1.
        -14    1    3    3    0    0 -0.48514106663E+02 -0.16510298539E+02 -0.54009312851E+02  0.74452766086E+02  0.00000000000E+00 0.  1.
        -11    1    4    4    0    0  0.48119287304E+02 -0.29409666332E+02  0.99241203406E+02  0.11414556819E+03  0.00000000000E+00 0.  1.
         11    1    4    4    0    0 -0.11373579703E+02  0.34799105406E+02  0.24427390764E+02  0.44011742431E+02  0.00000000000E+00 0. -1.
         21    1    1    2  502  501 -0.12548504195E+02  0.21071899267E+02 -0.55158895439E+01  0.25137918245E+02  0.00000000000E+00 0. -1.
<scales pt_clust_5="13000.00000" pt_clust_6="13000.00000" pt_clust_7="13000.00000" pt_clust_8="13000.00000" pt_clust_9="24.52529"></scales>
<clustering>
<clus scale="   24.525">  2  9  1 -1</clus>
<clus scale="   80.821">  5  6 -1 -1</clus>
<clus scale="   88.603">  2  5  1 -1</clus>
<clus scale="   91.326">  7  8 -1 -1</clus>
<clus scale="   98.280">  1  5  2 -1</clus>
</clustering>
</event>
<event>
 9    1  0.3846604E-005  0.1315174E+03  0.7546771E-02  0.1227802E+00
         -2   -1    0    0    0  501 -0.00000000000E+00  0.00000000000E+00  0.88108069276E+02  0.88108069276E+02  0.00000000000E+00 0.  1.
          1   -1    0    0  502    0  0.00000000000E+00 -0.00000000000E+00 -0.47169422915E+03  0.47169422915E+03  0.00000000000E+00 0. -1.
         23    2    1    2    0    0  0.13661409644E+02  0.38798929166E+02 -0.29842428986E+01  0.98634403420E+02  0.89598263456E+02 0.  0.
        -24    2    1    2    0    0 -0.17893118112E+02 -0.10912727270E+03 -0.36428572488E+03  0.38884776374E+03  0.79180608074E+02 0.  0.
         13    1    4    4    0    0  0.50381695816E+01 -0.10975318129E+03 -0.32806616307E+03  0.34597478420E+03  0.00000000000E+00 0. -1.
        -14    1    4    4    0    0 -0.22931287693E+02  0.62590858298E+00 -0.36219561809E+02  0.42872979538E+02  0.00000000000E+00 0.  1.
        -13    1    3    3    0    0 -0.28897931281E+02  0.46590922074E+02 -0.65791052249E+01  0.55218557366E+02  0.00000000000E+00 0.  1.
         13    1    3    3    0    0  0.42559340925E+02 -0.77919929076E+01  0.35948623263E+01  0.43415846054E+02  0.00000000000E+00 0. -1.
         21    1    1    2  502  501  0.42317084674E+01  0.70328343538E+02 -0.16316192097E+02  0.72320131263E+02  0.00000000000E+00 0.  1.
<scales pt_clust_5="13000.00000" pt_clust_6="13000.00000" pt_clust_7="13000.00000" pt_clust_8="13000.00000" pt_clust_9="70.45554"></scales>
<clustering>
<clus scale="   70.456">  1  9  2 -1</clus>
<clus scale="   79.181">  5  6 -1 -1</clus>
<clus scale="   89.598">  7  8 -1 -1</clus>
<clus scale="  124.654">  2  5  1 -1</clus>
<clus scale="  124.654">  2  5  1 -1</clus>
</clustering>
</event>
<event>
 9    1  0.7413269E-005  0.1909918E+03  0.7546771E-02  0.1158743E+00
          1   -1    0    0  502    0  0.00000000000E+00  0.00000000000E+00  0.68106574895E+03  0.68106574895E+03  0.00000000000E+00 0. -1.
         -2   -1    0    0    0  501 -0.00000000000E+00 -0.00000000000E+00 -0.15508322681E+03  0.15508322681E+03  0.00000000000E+00 0.  1.
        -24    2    1    2    0    0 -0.82368118836E+02 -0.11823277396E+03 -0.73035905154E+02  0.18030273600E+03  0.80070826942E+02 0.  0.
         23    2    1    2    0    0  0.84249292094E+02  0.14837387882E+03  0.59461346450E+03  0.62532692274E+03  0.91410267520E+02 0.  0.
         11    1    3    3    0    0  0.16197834102E+02 -0.14262011765E+02 -0.95291845573E+01  0.23591951329E+02  0.00000000000E+00 0. -1.
        -12    1    3    3    0    0 -0.98565952938E+02 -0.10397076220E+03 -0.63506720596E+02  0.15671078467E+03  0.00000000000E+00 0.  1.
        -11    1    4    4    0    0  0.87303666139E+02  0.80638783678E+02  0.45280959227E+03  0.46814641983E+03  0.00000000000E+00 0. -1.
         11    1    4    4    0    0 -0.30543740451E+01  0.67735095138E+02  0.14180387223E+03  0.15718050291E+03  0.00000000000E+00 0.  1.
         21    1    1    2  502  501 -0.18811732576E+01 -0.30141104852E+02  0.44049627930E+01  0.30519317026E+02  0.00000000000E+00 0.  1.
<scales pt_clust_5="13000.00000" pt_clust_6="13000.00000" pt_clust_7="13000.00000" pt_clust_8="13000.00000" pt_clust_9="30.19975"></scales>
<clustering>
<clus scale="   30.200">  2  9  1 -1</clus>
<clus scale="   80.071">  5  6 -1 -1</clus>
<clus scale="   91.410">  7  8 -1 -1</clus>
<clus scale="  185.832">  2  5  1 -1</clus>
<clus scale="  190.992">  1  5  2 -1</clus>
</clustering>
</event>
<event>
 9    1  0.3846604E-005  0.1078991E+03  0.7546771E-02  0.1269222E+00
          1   -1    0    0  502    0  0.00000000000E+00  0.00000000000E+00  0.52396220704E+02  0.52396220704E+02  0.00000000000E+00 0. -1.
         -2   -1    0    0    0  501 -0.00000000000E+00 -0.00000000000E+00 -0.42513195832E+03  0.42513195832E+03  0.00000000000E+00 0.  1.
        -24    2    1    2    0    0  0.30905223389E+00 -0.73994879819E+02 -0.26035028172E+03  0.28223042407E+03  0.79977530136E+02 0.  0.
         23    2    1    2    0    0 -0.80328844667E+01  0.52687342755E+02 -0.30118096963E+02  0.10996553908E+03  0.91350077728E+02 0.  0.
         13    1    3    3    0    0  0.40061633856E+02 -0.34403782295E+02 -0.13034352934E+03  0.14063424329E+03  0.00000000000E+00 0. -1.
        -14    1    3    3    0    0 -0.39752581622E+02 -0.39591097524E+02 -0.13000675237E+03  0.14159618078E+03  0.00000000000E+00 0.  1.
        -11    1    4    4    0    0 -0.20777378560E+02  0.10575482639E+02 -0.54774527768E+02  0.59529733622E+02  0.00000000000E+00 0.  1.
         11    1    4    4    0    0  0.12744494094E+02  0.42111860116E+02  0.24656430805E+02  0.50435805457E+02  0.00000000000E+00 0. -1.
         21    1    1    2  502  501  0.77238322329E+01  0.21307537064E+02 -0.82267358940E+02  0.85332215880E+02  0.00000000000E+00 0. -1.
<scales pt_clust_5="13000.00000" pt_clust_6="13000.00000" pt_clust_7="13000.00000" pt_clust_8="13000.00000" pt_clust_9="22.66426"></scales>
<clustering>
<clus scale="   22.664">  2  9  1 -1</clus>
<clus scale="   79.978">  5  6 -1 -1</clus>
<clus scale="   91.350">  7  8 -1 -1</clus>
<clus scale="   98.457">  2  5  1 -1</clus>
<clus scale="  107.899">  1  5  2 -1</clus>
</clustering>
</event>
<event>
 9    1  0.3846604E-005  0.2227375E+03  0.7546771E-02  0.1132733E+00
          1   -1    0    0  502    0  0.00000000000E+00  0.00000000000E+00  0.26822564755E+03  0.26822564755E+03  0.00000000000E+00 0. -1.
         -2   -1    0    0    0  501 -0.00000000000E+00 -0.00000000000E+00 -0.84987006167E+03  0.84987006167E+03  0.00000000000E+00 0.  1.
        -24    2    1    2    0    0  0.16938990020E+03  0.16303386502E+03 -0.66083018724E+03  0.70599012967E+03  0.80327749863E+02 0.  0.
         23    2    1    2    0    0 -0.14893940271E+03 -0.13395891752E+03  0.19285723502E+03  0.29300571946E+03  0.92360712839E+02 0.  0.
         13    1    3    3    0    0  0.51176180327E+02  0.23664196861E+02 -0.86226393932E+02  0.10302420423E+03  0.00000000000E+00 0. -1.
        -14    1    3    3    0    0  0.11821371988E+03  0.13936966816E+03 -0.57460379330E+03  0.60296592545E+03  0.00000000000E+00 0.  1.
        -13    1    4    4    0    0 -0.14194100513E+03 -0.73773594364E+02  0.14193582538E+03  0.21385876341E+03  0.00000000000E+00 0.  1.
         13    1    4    4    0    0 -0.69983975792E+01 -0.60185323157E+02  0.50921409637E+02  0.79146956048E+02  0.00000000000E+00 0. -1.
         21    1    1    2  502  501 -0.20450497494E+02 -0.29074947502E+02 -0.11367146191E+03  0.11909986009E+03  0.00000000000E+00 0. -1.
<scales pt_clust_5="13000.00000" pt_clust_6="13000.00000" pt_clust_7="13000.00000" pt_clust_8="13000.00000" pt_clust_9="35.54681"></scales>
<clustering>
<clus scale="   35.547">  2  9  1 -1</clus>
<clus scale="   80.328">  5  6 -1 -1</clus>
<clus scale="   92.361">  7  8 -1 -1</clus>
<clus scale="  218.023">  2  5  1 -1</clus>
<clus scale="  222.738">  1  5  2 -1</clus>
</clustering>
</event>
<event>
 9    1  0.3846604E-005  0.9463927E+02  0.7546771E-02  0.1296534E+00
         -2   -1    0    0    0  501 -0.00000000000E+00  0.00000000000E+00  0.67264884785E+02  0.67264884785E+02  0.00000000000E+00 0.  1.
          1   -1    0    0  502    0  0.00000000000E+00 -0.00000000000E+00 -0.28215426911E+03  0.28215426911E+03  0.00000000000E+00 0. -1.
        -24    2    1    2    0    0 -0.19151114958E+02 -0.98452999524E+01 -0.23686459009E+01  0.84830638301E+02  0.82017873515E+02 0.  0.
         23    2    1    2    0    0  0.29843799809E+02  0.56006635066E+02 -0.14694258542E+03  0.18368303667E+03  0.90110704089E+02 0.  0.
         13    1    3    3    0    0  0.68339771912E+01 -0.27402647588E+02 -0.31303662024E+02  0.42160735231E+02  0.00000000000E+00 0. -1.
        -14    1    3    3    0    0 -0.25985092149E+02  0.17557347636E+02  0.28935016123E+02  0.42669903070E+02  0.00000000000E+00 0.  1.
        -11    1    4    4    0    0 -0.24416773526E+01  0.72088301917E+02 -0.80545592861E+02  0.10812158707E+03  0.00000000000E+00 0.  1.
         11    1    4    4    0    0  0.32285477162E+02 -0.16081666851E+02 -0.66396992560E+02  0.75561449597E+02  0.00000000000E+00 0. -1.
         21    1    1    2  502  501 -0.10692684852E+02 -0.46161335114E+02 -0.65578153007E+02  0.80905478928E+02  0.00000000000E+00 0. -1.
<scales pt_clust_5="13000.00000" pt_clust_6="13000.00000" pt_clust_7="13000.00000" pt_clust_8="13000.00000" pt_clust_9="47.38357"></scales>
<clustering>
<clus scale="   47.384">  2  9  1 -1</clus>
<clus scale="   82.018">  5  6 -1 -1</clus>
<clus scale="   86.969">  1  5  2 -1</clus>
<clus scale="   90.111">  7  8 -1 -1</clus>
<clus scale="   47.384">  2  5  1 -1</clus>
</clustering>
</event>
<event>
 9    1  0.4026996E-005  0.1170837E+03  0.7546771E-02  0.1252642E+00
         -2   -1    0    0    0  501 -0.00000000000E+00  0.00000000000E+00  0.52266870150E+03  0.52266870150E+03  0.00000000000E+00 0.  1.
          1   -1    0    0  502    0  0.00000000000E+00 -0.00000000000E+00 -0.16184024656E+03  0.16184024656E+03  0.00000000000E+00 0. -1.
         23    2    1    2    0    0  0.41621121363E+02  0.12763575740E+02  0.42055079299E+03  0.43247126883E+03  0.90957145250E+02 0.  0.
        -24    2    1    2    0    0 -0.43202644301E+02  0.38034517486E+02 -0.12330864110E+03  0.17063641741E+03  0.10294985663E+03 0.  0.
         13    1    4    4    0    0 -0.66140899359E+02 -0.76377293800E+01 -0.64123510429E+02  0.92437968756E+02  0.00000000000E+00 0. -1.
        -14    1    4    4    0    0  0.22938255058E+02  0.45672246866E+02 -0.59185130674E+02  0.78198448653E+02  0.00000000000E+00 0.  1.
        -13    1    3    3    0    0 -0.22946058053E+01 -0.34511696516E+02  0.11088357679E+03  0.11615287346E+03  0.00000000000E+00 0. -1.
         13    1    3    3    0    0  0.43915727169E+02  0.47275272256E+02  0.30966721620E+03  0.31631839537E+03  0.00000000000E+00 0.  1.
         21    1    1    2  502  501  0.15815229374E+01 -0.50798093226E+02  0.63586303055E+02  0.81401261823E+02  0.00000000000E+00 0. -1.
<scales pt_clust_5="13000.00000" pt_clust_6="13000.00000" pt_clust_7="13000.00000" pt_clust_8="13000.00000" pt_clust_9="50.82271"></scales>
<clustering>
<clus scale="   50.823">  1  9  2 -1</clus>
<clus scale="   90.957">  7  8 -1 -1</clus>
<clus scale="  102.950">  5  6 -1 -1</clus>
<clus scale="  106.692">  1  7  2 -1</clus>
<clus scale="  117.084">  2  5  1 -1</clus>
</clustering>
</event>
<event>
 9    1  0.3846604E-005  0.1045330E+03  0.7546771E-02  0.1275182E+00
          1   -1    0    0  502    0  0.00000000000E+00  0.00000000000E+00  0.47718940314E+03  0.47718940314E+03  0.00000000000E+00 0. -1.
         -2   -1    0    0    0  501 -0.00000000000E+00 -0.00000000000E+00 -0.86160495881E+02  0.86160495881E+02  0.00000000000E+00 0.  1.
         23    2    1    2    0    0  0.64212966296E+01 -0.35182346610E+02  0.31379834147E+02  0.10209324127E+03  0.90328873334E+02 0.  0.
        -24    2    1    2    0    0  0.24018853742E+01  0.55508611804E+02  0.40180961311E+03  0.41362770930E+03  0.80931709940E+02 0.  0.
         13    1    4    4    0    0 -0.63110058064E+01  0.65220261383E+02  0.18208460916E+03  0.19351567426E+03  0.00000000000E+00 0. -1.
        -14    1    4    4    0    0  0.87128911806E+01 -0.97116495797E+01  0.21972500395E+03  0.22011203504E+03  0.00000000000E+00 0.  1.
        -13    1    3    3    0    0 -0.28865622422E+02 -0.38979717026E+02 -0.79127242230E+01  0.49145230714E+02  0.00000000000E+00 0.  1.
         13    1    3    3    0    0  0.35286919052E+02  0.37973704159E+01  0.39292558370E+02  0.52948010553E+02  0.00000000000E+00 0. -1.
         21    1    1    2  502  501 -0.88231820038E+01 -0.20326265193E+02 -0.42160540002E+02  0.47628948452E+02  0.00000000000E+00 0.  1.
<scales pt_clust_5="13000.00000" pt_clust_6="13000.00000" pt_clust_7="13000.00000" pt_clust_8="13000.00000" pt_clust_9="22.15865"></scales>
<clustering>
<clus scale="   22.159">  2  9  1 -1</clus>
<clus scale="   80.932">  5  6 -1 -1</clus>
<clus scale="   90.329">  7  8 -1 -1</clus>
<clus scale="   96.529">  1  5  2 -1</clus>
<clus scale="   96.529">  1  5  2 -1</clus>
</clustering>
</event>
<event>
 9    1  0.3846604E-005  0.9941333E+02  0.7546771E-02  0.1286885E+00
         -2   -1    0    0    0  501 -0.00000000000E+00  0.00000000000E+00  0.47108177789E+02  0.47108177789E+02  0.00000000000E+00 0.  1.
          1   -1    0    0  502    0  0.00000000000E+00 -0.00000000000E+00 -0.44585680119E+03  0.44585680119E+03  0.00000000000E+00 0. -1.
        -24    2    1    2    0    0  0.66201832362E+01 -0.53558431686E+02 -0.86273326830E+02  0.13027588080E+03  0.81341168941E+02 0.  0.
         23    2    1    2    0    0  0.21548444930E+02  0.29073113302E+02 -0.30995475865E+03  0.32528113726E+03  0.91794795341E+02 0.  0.
         11    1    3    3    0    0 -0.26984530267E+02 -0.14193602947E+02 -0.97806949429E+00  0.30505407034E+02  0.00000000000E+00 0. -1.
        -12    1    3    3    0    0  0.33604713503E+02 -0.39364828739E+02 -0.85295257336E+02  0.99770473765E+02  0.00000000000E+00 0.  1.
        -13    1    4    4    0    0 -0.19769042144E+02  0.46520020785E+02 -0.20510742012E+03  0.21124389021E+03  0.00000000000E+00 0. -1.
         13    1    4    4    0    0  0.41317487074E+02 -0.17446907483E+02 -0.10484733852E+03  0.11403724705E+03  0.00000000000E+00 0.  1.
         21    1    1    2  502  501 -0.28168628166E+02  0.24485318384E+02 -0.25205379265E+01  0.37407960925E+02  0.00000000000E+00 0. -1.
<scales pt_clust_5="13000.00000" pt_clust_6="13000.00000" pt_clust_7="13000.00000" pt_clust_8="13000.00000" pt_clust_9="37.32295"></scales>
<clustering>
<clus scale="   37.323">  1  9  2 -1</clus>
<clus scale="   81.341">  5  6 -1 -1</clus>
<clus scale="   89.850">  1  5  2 -1</clus>
<clus scale="   91.795">  7  8 -1 -1</clus>
<clus scale="   99.413">  2  5  1 -1</clus>
</clustering>
</event>
<event>
 9    1  0.3846604E-005  0.1063257E+03  0.7546771E-02  0.1280412E+00
          3   -1    0    0  502    0  0.00000000000E+00  0.00000000000E+00  0.12364721867E+03  0.12364721867E+03  0.00000000000E+00 0. -1.
         -4   -1    0    0    0  501 -0.00000000000E+00 -0.00000000000E+00 -0.37164555939E+03  0.37164555939E+03  0.00000000000E+00 0.  1.
         23    2    1    2    0    0  0.11846673582E+02 -0.22425087431E+02 -0.14810101945E+03  0.18267704636E+03  0.10389303674E+03 0.  0.
        -24    2    1    2    0    0  0.25992220449E+02  0.52523564393E+00  0.86848519379E+02  0.12082054299E+03  0.79869060927E+02 0.  0.
         11    1    4    4    0    0  0.24921825782E+02  0.11732542344E+02  0.99874570425E+02  0.10360347372E+03  0.00000000000E+00 0. -1.
        -12    1    4    4    0    0  0.10703946664E+01 -0.11207306700E+02 -0.13026051046E+02  0.17217069264E+02  0.00000000000E+00 0.  1.
        -13    1    3    3    0    0 -0.44930565214E+02 -0.14298772164E+02 -0.86445226590E+02  0.98468206931E+02  0.00000000000E+00 0.  1.
         13    1    3    3    0    0  0.56777238796E+02 -0.81263152669E+01 -0.61655792862E+02  0.84208839433E+02  0.00000000000E+00 0. -1.
         21    1    1    2  502  501 -0.37838894031E+02  0.21899851787E+02 -0.18674584065E+03  0.19179518871E+03  0.00000000000E+00 0.  1.
<scales pt_clust_5="13000.00000" pt_clust_6="13000.00000" pt_clust_7="13000.00000" pt_clust_8="13000.00000" pt_clust_9="43.71939"></scales>
<clustering>
<clus scale="   43.719">  2  9  1 -1</clus>
<clus scale="   79.869">  5  6 -1 -1</clus>
<clus scale="   83.009">  1  5  2 -1</clus>
<clus scale="  103.893">  7  8 -1 -1</clus>
<clus scale="   83.009">  1  5  2 -1</clus>
</clustering>
</event>
<event>
 9    1  0.3846604E-005  0.3266357E+03  0.7546771E-02  0.1072724E+00
          1   -1    0    0  502    0  0.00000000000E+00  0.00000000000E+00  0.56204830695E+03  0.56204830695E+03  0.00000000000E+00 0. -1.
         -2   -1    0    0    0  501 -0.00000000000E+00 -0.00000000000E+00 -0.86767211423E+03  0.86767211423E+03  0.00000000000E+00 0.  1.
        -24    2    1    2    0    0 -0.50568907363E+02  0.30785892733E+03 -0.56153199288E+03  0.64826186751E+03  0.87125979564E+02 0.  0.
         23    2    1    2    0    0  0.31635308786E+03 -0.27334315011E+03  0.28184650637E+03  0.51219034915E+03  0.90031920411E+02 0.  0.
         13    1    3    3    0    0  0.23550816444E+02  0.60145886487E+02 -0.95202374849E+02  0.11504634194E+03  0.00000000000E+00 0. -1.
        -14    1    3    3    0    0 -0.74119723807E+02  0.24771304085E+03 -0.46632961803E+03  0.53321552557E+03  0.00000000000E+00 0.  1.
        -11    1    4    4    0    0  0.98147708946E+02 -0.13351268752E+03  0.13887451616E+03  0.21620532310E+03  0.00000000000E+00 0. -1.
         11    1    4    4    0    0  0.21820537892E+03 -0.13983046259E+03  0.14297199022E+03  0.29598502605E+03  0.00000000000E+00 0.  1.
         21    1    1    2  502  501 -0.26578418050E+03 -0.34515777224E+02 -0.25938320780E+02  0.26926820452E+03  0.00000000000E+00 0.  1.
<scales pt_clust_5="13000.00000" pt_clust_6="13000.00000" pt_clust_7="13000.00000" pt_clust_8="13000.00000" pt_clust_9="268.01599"></scales>
<clustering>
<clus scale="   87.126">  5  6 -1 -1</clus>
<clus scale="   90.032">  7  8 -1 -1</clus>
<clus scale="  268.016">  1  9  2 -1</clus>
<clus scale="  325.847">  2  5  1 -1</clus>
<clus scale="  268.016">  1  5  2 -1</clus>
</clustering>
</event>
<event>
 9    1  0.3846604E-005  0.2990614E+03  0.7546771E-02  0.1086125E+00
          1   -1    0    0  502    0  0.00000000000E+00  0.00000000000E+00  0.64232707883E+03  0.64232707883E+03  0.00000000000E+00 0. -1.
         -2   -1    0    0    0  501 -0.00000000000E+00 -0.00000000000E+00 -0.20975591901E+03  0.20975591901E+03  0.00000000000E+00 0.  1.
        -24    2    1    2    0    0 -0.32696036992E+03 -0.25953183208E+02  0.83193891903E+02  0.34763440674E+03  0.79698217568E+02 0.  0.
         23    2    1    2    0    0  0.26386676814E+03  0.47855473263E+02  0.33006113913E+03  0.43492430954E+03  0.91120699202E+02 0.  0.
         11    1    3    3    0    0 -0.23546421568E+03  0.17669336831E+02  0.60763922460E+02  0.24381931139E+03  0.00000000000E+00 0. -1.
        -12    1    3    3    0    0 -0.91496154233E+02 -0.43622520038E+02  0.22429969443E+02  0.10381509535E+03  0.00000000000E+00 0.  1.
        -13    1    4    4    0    0  0.15622329028E+03  0.52574377834E+02  0.25490158361E+03  0.30355328850E+03  0.00000000000E+00 0. -1.
         13    1    4    4    0    0  0.10764347785E+03 -0.47189045714E+01  0.75159555513E+02  0.13137102104E+03  0.00000000000E+00 0.  1.
         21    1    1    2  502  501  0.63093601781E+02 -0.21902290055E+02  0.19316128789E+02  0.69524281562E+02  0.00000000000E+00 0. -1.
<scales pt_clust_5="13000.00000" pt_clust_6="13000.00000" pt_clust_7="13000.00000" pt_clust_8="13000.00000" pt_clust_9="66.78707"></scales>
<clustering>
<clus scale="   66.787">  2  9  1 -1</clus>
<clus scale="   79.698">  5  6 -1 -1</clus>
<clus scale="   91.121">  7  8 -1 -1</clus>
<clus scale="  295.781">  2  5  1 -1</clus>
<clus scale="  299.061">  1  5  2 -1</clus>
</clustering>
</event>
<event>
 9    1  0.3846604E-005  0.1078125E+03  0.7546771E-02  0.1269355E+00
          1   -1    0    0  502    0  0.00000000000E+00  0.00000000000E+00  0.22484515591E+03  0.22484515591E+03  0.00000000000E+00 0. -1.
         -2   -1    0    0    0  501 -0.00000000000E+00 -0.00000000000E+00 -0.16512663737E+03  0.16512663737E+03  0.00000000000E+00 0.  1.
        -24    2    1    2    0    0 -0.43500517505E+02  0.31412411965E+02 -0.94128568356E+02  0.13531899598E+03  0.81067926109E+02 0.  0.
         23    2    1    2    0    0  0.29357371524E+02 -0.48398181391E+02  0.18626592751E+03  0.21541600121E+03  0.92221573413E+02 0.  0.
         11    1    3    3    0    0  0.17938519903E+02  0.10521304828E+02  0.23214917891E+00  0.20797649984E+02  0.00000000000E+00 0. -1.
        -12    1    3    3    0    0 -0.61439037408E+02  0.20891107137E+02 -0.94360717535E+02  0.11452134600E+03  0.00000000000E+00 0.  1.
        -11    1    4    4    0    0  0.37491464757E+02  0.16675561549E+02  0.54369404336E+02  0.68115463813E+02  0.00000000000E+00 0.  1.
         11    1    4    4    0    0 -0.81340932330E+01 -0.65073742941E+02  0.13189652317E+03  0.14730053740E+03  0.00000000000E+00 0. -1.
         21    1    1    2  502  501  0.14143145981E+02  0.16985769427E+02 -0.32418840612E+02  0.39236796096E+02  0.00000000000E+00 0.  1.
<scales pt_clust_5="13000.00000" pt_clust_6="13000.00000" pt_clust_7="13000.00000" pt_clust_8="13000.00000" pt_clust_9="22.10305"></scales>
<clustering>
<clus scale="   22.103">  2  9  1 -1</clus>
<clus scale="   81.068">  5  6 -1 -1</clus>
<clus scale="   92.222">  7  8 -1 -1</clus>
<clus scale="   98.441">  2  5  1 -1</clus>
<clus scale="  107.813">  1  5  2 -1</clus>
</clustering>
</event>
<event>
 9    1  0.3846604E-005  0.9716738E+02  0.7546771E-02  0.1289296E+00
         -2   -1    0    0    0  501 -0.00000000000E+00  0.00000000000E+00  0.86909373229E+02  0.86909373229E+02  0.00000000000E+00 0.  1.
          1   -1    0    0  502    0  0.00000000000E+00 -0.00000000000E+00 -0.39266902926E+03  0.39266902926E+03  0.00000000000E+00 0. -1.
        -24    2    1    2    0    0 -0.83675717070E+02  0.26610678191E+02 -0.62850714631E+01  0.12035741511E+03  0.82077106596E+02 0.  0.
         23    2    1    2    0    0  0.24729455467E+02 -0.26617823671E+02 -0.28221148683E+03  0.29779887124E+03  0.87868025510E+02 0.  0.
         13    1    3    3    0    0 -0.83936955849E+02  0.17379614894E+02 -0.33184712975E+02  0.91916748998E+02  0.00000000000E+00 0. -1.
        -14    1    3    3    0    0  0.26123877926E+00  0.92310632962E+01  0.26899641512E+02  0.28440666110E+02  0.00000000000E+00 0.  1.
        -11    1    4    4    0    0 -0.14777220343E+02  0.24278570943E+02 -0.11860284124E+03  0.12196085108E+03  0.00000000000E+00 0.  1.
         11    1    4    4    0    0  0.39506675809E+02 -0.50896394614E+02 -0.16360864559E+03  0.17583802015E+03  0.00000000000E+00 0. -1.
         21    1    1    2  502  501  0.58946261603E+02  0.71454799317E-02 -0.17263097738E+02  0.61422116144E+02  0.00000000000E+00 0.  1.
<scales pt_clust_5="13000.00000" pt_clust_6="13000.00000" pt_clust_7="13000.00000" pt_clust_8="13000.00000" pt_clust_9="58.94626"></scales>
<clustering>
<clus scale="   58.946">  1  9  2 -1</clus>
<clus scale="   82.077">  5  6 -1 -1</clus>
<clus scale="   87.868">  7  8 -1 -1</clus>
<clus scale="   91.964">  1  5  2 -1</clus>
<clus scale="   97.167">  2  5  1 -1</clus>
</clustering>
</event>
<event>
 9    1  0.3846604E-005  0.1251757E+03  0.7546771E-02  0.1239273E+00
         -2   -1    0    0    0  501 -0.00000000000E+00  0.00000000000E+00  0.12581213653E+02  0.12581213653E+02  0.00000000000E+00 0.  1.
          1   -1    0    0  502    0  0.00000000000E+00 -0.00000000000E+00 -0.15096658314E+04  0.15096658314E+04  0.00000000000E+00 0. -1.
         23    2    1    2    0    0 -0.37450913360E+02 -0.40293901314E+02 -0.39614921391E+03  0.41000944803E+03  0.90262829553E+02 0.  0.
        -24    2    1    2    0    0  0.56086711581E+02  0.56048997511E+02 -0.99472990794E+03  0.10032645573E+04  0.10375438694E+03 0.  0.
         13    1    4    4    0    0 -0.29284713964E+02  0.20002479591E+02 -0.19662079151E+03  0.19979346665E+03  0.00000000000E+00 0. -1.
        -14    1    4    4    0    0  0.85371425545E+02  0.36046517920E+02 -0.79810911643E+03  0.80347109064E+03  0.00000000000E+00 0.  1.
        -13    1    3    3    0    0 -0.51654177350E+02 -0.62084519916E+00 -0.30804732106E+03  0.31234866976E+03  0.00000000000E+00 0. -1.
         13    1    3    3    0    0  0.14203263990E+02 -0.39673056114E+02 -0.88101892845E+02  0.97660778270E+02  0.00000000000E+00 0.  1.
         21    1    1    2  502  501 -0.18635798221E+02 -0.15755096197E+02 -0.10620549591E+03  0.10897303976E+03  0.00000000000E+00 0.  1.
<scales pt_clust_5="13000.00000" pt_clust_6="13000.00000" pt_clust_7="13000.00000" pt_clust_8="13000.00000" pt_clust_9="24.40320"></scales>
<clustering>
<clus scale="   24.403">  1  9  2 -1</clus>
<clus scale="   90.263">  7  8 -1 -1</clus>
<clus scale="  103.754">  5  6 -1 -1</clus>
<clus scale="  114.243">  1  7  2 -1</clus>
<clus scale="  125.176">  2  5  1 -1</clus>
</clustering>
</event>
<event>
 9    1  0.3846604E-005  0.1253406E+03  0.7546771E-02  0.1238579E+00
         -2   -1    0    0    0  501 -0.00000000000E+00  0.00000000000E+00  0.19759329040E+02  0.19759329040E+02  0.00000000000E+00 0.  1.
          1   -1    0    0  502    0  0.00000000000E+00 -0.00000000000E+00 -0.10695429361E+04  0.10695429361E+04  0.00000000000E+00 0. -1.
         23    2    1    2    0    0 -0.76809604533E+02 -0.44046232041E+02 -0.27098541296E+03  0.30005407724E+03  0.93592570888E+02 0.  0.
        -24    2    1    2    0    0  0.66097731124E+02  0.26958673588E+02 -0.68384519502E+03  0.69217707520E+03  0.79807095830E+02 0.  0.
         13    1    4    4    0    0  0.73099920858E+02 -0.21182728805E+01 -0.38863677233E+03  0.39545748990E+03  0.00000000000E+00 0. -1.
        -14    1    4    4    0    0 -0.70021897347E+01  0.29076946468E+02 -0.29520842269E+03  0.29671958530E+03  0.00000000000E+00 0.  1.
        -11    1    3    3    0    0 -0.15015845788E+02  0.29168768405E+02 -0.77085454121E+02  0.83776249093E+02  0.00000000000E+00 0. -1.
         11    1    3    3    0    0 -0.61793758745E+02 -0.73215000446E+02 -0.19389995884E+03  0.21627782815E+03  0.00000000000E+00 0.  1.
         21    1    1    2  502  501  0.10711873409E+02  0.17087558454E+02 -0.94952999051E+02  0.97071112668E+02  0.00000000000E+00 0. -1.
<scales pt_clust_5="13000.00000" pt_clust_6="13000.00000" pt_clust_7="13000.00000" pt_clust_8="13000.00000" pt_clust_9="20.16752"></scales>
<clustering>
<clus scale="   20.168">  2  9  1 -1</clus>
<clus scale="   79.807">  5  6 -1 -1</clus>
<clus scale="   93.593">  7  8 -1 -1</clus>
<clus scale="  115.412">  2  5  1 -1</clus>
<clus scale="   20.168">  2  5  1 -1</clus>
</clustering>
</event>
<event>
 9    1  0.3846604E-005  0.1124071E+03  0.7546771E-02  0.1260110E+00
         -2   -1    0    0    0  501 -0.00000000000E+00  0.00000000000E+00  0.48676677618E+02  0.48676677618E+02  0.00000000000E+00 0.  1.
          1   -1    0    0  502    0  0.00000000000E+00 -0.00000000000E+00 -0.56815493237E+03  0.56815493237E+03  0.00000000000E+00 0. -1.
         23    2    1    2    0    0 -0.71648171826E+02  0.43455271654E+02 -0.59062620294E+02  0.13730102286E+03  0.91331027600E+02 0.  0.
        -24    2    1    2    0    0  0.56704252501E+02 -0.26931089267E+02 -0.42891601942E+03  0.44094827154E+03  0.80782242112E+02 0.  0.
         13    1    4    4    0    0  0.74929142218E+02 -0.22647626029E+02 -0.27583717332E+03  0.28672885711E+03  0.00000000000E+00 0. -1.
        -14    1    4    4    0    0 -0.18224889718E+02 -0.42834632380E+01 -0.15307884610E+03  0.15421941443E+03  0.00000000000E+00 0.  1.
        -13    1    3    3    0    0 -0.26113351213E+02  0.67164920196E+02 -0.40803735154E+02  0.82812912151E+02  0.00000000000E+00 0. -1.
         13    1    3    3    0    0 -0.45534820613E+02 -0.23709648542E+02 -0.18258885140E+02  0.54488110711E+02  0.00000000000E+00 0.  1.
         21    1    1    2  502  501  0.14943919325E+02 -0.16524182387E+02 -0.31499615043E+02  0.38582315589E+02  0.00000000000E+00 0. -1.
<scales pt_clust_5="13000.00000" pt_clust_6="13000.00000" pt_clust_7="13000.00000" pt_clust_8="13000.00000" pt_clust_9="22.27935"></scales>
<clustering>
<clus scale="   22.279">  1  9  2 -1</clus>
<clus scale="   80.782">  5  6 -1 -1</clus>
<clus scale="   91.331">  7  8 -1 -1</clus>
<clus scale="  104.018">  2  5  1 -1</clus>
<clus scale="  104.018">  2  5  1 -1</clus>
</clustering>
</event>
<event>
 9    1  0.3846604E-005  0.9284230E+02  0.7546771E-02  0.1309190E+00
         -2   -1    0    0    0  501 -0.00000000000E+00  0.00000000000E+00  0.29514043228E+02  0.29514043228E+02  0.00000000000E+00 0.  1.
          1   -1    0    0  502    0  0.00000000000E+00 -0.00000000000E+00 -0.73404836142E+03  0.73404836142E+03  0.00000000000E+00 0. -1.
         23    2    1    2    0    0 -0.47627084945E+01  0.90230338263E+01 -0.12092291118E+03  0.15238974332E+03  0.92174751920E+02 0.  0.
        -24    2    1    2    0    0  0.73567736429E+00  0.13986227129E+02 -0.58319412088E+03  0.58780993038E+03  0.72173234965E+02 0.  0.
         11    1    4    4    0    0  0.13212717464E+02  0.39098537181E+02 -0.24466205538E+03  0.24811850567E+03  0.00000000000E+00 0. -1.
        -12    1    4    4    0    0 -0.12477040099E+02 -0.25112310052E+02 -0.33853206550E+03  0.33969142471E+03  0.00000000000E+00 0.  1.
        -13    1    3    3    0    0  0.36879762154E+01 -0.23030871677E+02 -0.11665858685E+03  0.11896742455E+03  0.00000000000E+00 0. -1.
         13    1    3    3    0    0 -0.84506847099E+01  0.32053905504E+02 -0.42643243251E+01  0.33422318771E+02  0.00000000000E+00 0.  1.
         21    1    1    2  502  501  0.40270311302E+01 -0.23009260955E+02 -0.41728612871E+00  0.23362730944E+02  0.00000000000E+00 0.  1.
<scales pt_clust_5="13000.00000" pt_clust_6="13000.00000" pt_clust_7="13000.00000" pt_clust_8="13000.00000" pt_clust_9="23.35900"></scales>
<clustering>
<clus scale="   23.359">  1  9  2 -1</clus>
<clus scale="   72.173">  5  6 -1 -1</clus>
<clus scale="   73.024">  2  5  1 -1</clus>
<clus scale="   92.175">  7  8 -1 -1</clus>
<clus scale="   73.024">  2  5  1 -1</clus>
</clustering>
</event>
<event>
 9    1  0.3846604E-005  0.1596819E+03  0.7546771E-02  0.1213216E+00
          1   -1    0    0  502    0  0.00000000000E+00  0.00000000000E+00  0.12811225470E+04  0.12811225470E+04  0.00000000000E+00 0. -1.
         -2   -1    0    0    0  501 -0.00000000000E+00 -0.00000000000E+00 -0.32434919066E+02  0.32434919066E+02  0.00000000000E+00 0.  1.
         23    2    1    2    0    0  0.23282486943E+02  0.23331212427E+02  0.17582636431E+03  0.19964938021E+03  0.88648434608E+02 0.  0.
        -24    2    1    2    0    0 -0.77703100130E+02  0.10875555941E+03  0.52237763758E+03  0.54518957819E+03  0.80546486228E+02 0.  0.
         13    1    4    4    0    0 -0.84278419017E+02  0.10652202048E+03  0.52059071878E+03  0.53801904171E+03  0.00000000000E+00 0. -1.
        -14    1    4    4    0    0  0.65753188866E+01  0.22335389298E+01  0.17869188046E+01  0.71705364810E+01  0.00000000000E+00 0.  1.
        -13    1    3    3    0    0 -0.33314605443E+02  0.28662852704E+01  0.76888352372E+02  0.83844482571E+02  0.00000000000E+00 0. -1.
         13    1    3    3    0    0  0.56597092385E+02  0.20464927157E+02  0.98938011940E+02  0.11580489764E+03  0.00000000000E+00 0.  1.
         21    1    1    2  502  501  0.54420613187E+02 -0.13208677183E+03  0.55048362607E+03  0.56871850770E+03  0.00000000000E+00 0.  1.
<scales pt_clust_5="13000.00000" pt_clust_6="13000.00000" pt_clust_7="13000.00000" pt_clust_8="13000.00000" pt_clust_9="137.87888"></scales>
<clustering>
<clus scale="   80.546">  5  6 -1 -1</clus>
<clus scale="   88.648">  7  8 -1 -1</clus>
<clus scale="   94.578">  2  7  1 -1</clus>
<clus scale="  137.879">  1  9  2 -1</clus>
<clus scale="  137.879">  1  5  2 -1</clus>
</clustering>
</event>
<event>
 9    1  0.3846604E-005  0.1092724E+03  0.7546771E-02  0.1267886E+00
         -2   -1    0    0    0  501 -0.00000000000E+00  0.00000000000E+00  0.69984769549E+02  0.69984769549E+02  0.00000000000E+00 0.  1.
          1   -1    0    0  502    0  0.00000000000E+00 -0.00000000000E+00 -0.40665327893E+03  0.40665327893E+03  0.00000000000E+00 0. -1.
        -24    2    1    2    0    0  0.40179001549E+02 -0.18049914161E+01 -0.22454646411E+02  0.90921342032E+02  0.78389215661E+02 0.  0.
         23    2    1    2    0    0 -0.61455536262E+02 -0.11091339908E+02 -0.33506336680E+03  0.35325583615E+03  0.92857015054E+02 0.  0.
         11    1    3    3    0    0  0.35095163561E+02 -0.83296616044E+01 -0.50287132434E+02  0.61885777495E+02  0.00000000000E+00 0. -1.
        -12    1    3    3    0    0  0.50838379881E+01  0.65246701883E+01  0.27832486022E+02  0.29035564536E+02  0.00000000000E+00 0.  1.
        -11    1    4    4    0    0 -0.22584333145E+02  0.32161213894E+02 -0.22852705701E+03  0.23188146016E+03  0.00000000000E+00 0.  1.
         11    1    4    4    0    0 -0.38871203117E+02 -0.43252553802E+02 -0.10653630979E+03  0.12137437599E+03  0.00000000000E+00 0. -1.
         21    1    1    2  502  501  0.21276534713E+02  0.12896331324E+02  0.20849503826E+02  0.32460870302E+02  0.00000000000E+00 0.  1.
<scales pt_clust_5="13000.00000" pt_clust_6="13000.00000" pt_clust_7="13000.00000" pt_clust_8="13000.00000" pt_clust_9="24.87984"></scales>
<clustering>
<clus scale="   24.880">  1  9  2 -1</clus>
<clus scale="   78.389">  5  6 -1 -1</clus>
<clus scale="   92.857">  7  8 -1 -1</clus>
<clus scale="   97.277">  1  5  2 -1</clus>
<clus scale="  109.272">  2  5  1 -1</clus>
</clustering>
</event>
<event>
 9    1  0.3846604E-005  0.1473485E+03  0.7546771E-02  0.1207653E+00
          1   -1    0    0  502    0  0.00000000000E+00  0.00000000000E+00  0.35364642934E+03  0.35364642934E+03  0.00000000000E+00 0. -1.
         -2   -1    0    0    0  501 -0.00000000000E+00 -0.00000000000E+00 -0.11403073326E+03  0.11403073326E+03  0.00000000000E+00 0.  1.
         23    2    1    2    0    0  0.12907625515E+03 -0.32698202048E+02  0.21449070208E+02  0.16512531780E+03  0.95270435629E+02 0.  0.
        -24    2    1    2    0    0 -0.10426800071E+03  0.26111537569E+02  0.23678367513E+03  0.27084335760E+03  0.75736300279E+02 0.  0.
         13    1    4    4    0    0 -0.98321954408E+02  0.34424946146E+02  0.23870219113E+03  0.26044388971E+03  0.00000000000E+00 0. -1.
        -14    1    4    4    0    0 -0.59460462996E+01 -0.83134085767E+01 -0.19185159980E+01  0.10399467890E+02  0.00000000000E+00 0.  1.
        -13    1    3    3    0    0  0.18697147952E+02 -0.47670263342E+02  0.15817311080E+02  0.53593140218E+02  0.00000000000E+00 0. -1.
         13    1    3    3    0    0  0.11037910720E+03  0.14972061294E+02  0.56317591273E+01  0.11153217758E+03  0.00000000000E+00 0.  1.
         21    1    1    2  502  501 -0.24808254440E+02  0.65866644790E+01 -0.18617049257E+02  0.31708487198E+02  0.00000000000E+00 0.  1.
<scales pt_clust_5="13000.00000" pt_clust_6="13000.00000" pt_clust_7="13000.00000" pt_clust_8="13000.00000" pt_clust_9="25.66775"></scales>
<clustering>
<clus scale="   25.668">  2  9  1 -1</clus>
<clus scale="   75.736">  5  6 -1 -1</clus>
<clus scale="   95.270">  7  8 -1 -1</clus>
<clus scale="  135.540">  1  5  2 -1</clus>
<clus scale="  135.540">  1  5  2 -1</clus>
</clustering>
</event>
<event>
 9    1  0.3846604E-005  0.1248008E+03  0.7546771E-02  0.1238758E+00
          1   -1    0    0  502    0  0.00000000000E+00  0.00000000000E+00  0.14513085648E+03  0.14513085648E+03  0.00000000000E+00 0. -1.
         -2   -1    0    0    0  501 -0.00000000000E+00 -0.00000000000E+00 -0.21565256232E+03  0.21565256232E+03  0.00000000000E+00 0.  1.
         23    2    1    2    0    0 -0.68060668228E+02  0.32149829109E+02 -0.63000543558E+02  0.13412167510E+03  0.91398518438E+02 0.  0.
        -24    2    1    2    0    0  0.71404827750E+02 -0.52391548076E+02  0.75569214294E+02  0.14107598981E+03  0.79675623732E+02 0.  0.
         13    1    4    4    0    0 -0.82842515399E+00 -0.27541638217E+02  0.55705050527E+02  0.62147250769E+02  0.00000000000E+00 0. -1.
        -14    1    4    4    0    0  0.72233252904E+02 -0.24849909859E+02  0.19864163767E+02  0.78928739045E+02  0.00000000000E+00 0.  1.
        -13    1    3    3    0    0 -0.30062448287E+02 -0.28573995342E+02 -0.46584931551E+01  0.41736381794E+02  0.00000000000E+00 0.  1.
         13    1    3    3    0    0 -0.37998219941E+02  0.60723824451E+02 -0.58342050403E+02  0.92385293309E+02  0.00000000000E+00 0. -1.
         21    1    1    2  502  501 -0.33441595220E+01  0.20241718968E+02 -0.83090376576E+02  0.85585753891E+02  0.00000000000E+00 0. -1.
<scales pt_clust_5="13000.00000" pt_clust_6="13000.00000" pt_clust_7="13000.00000" pt_clust_8="13000.00000" pt_clust_9="20.51611"></scales>
<clustering>
<clus scale="   20.516">  2  9  1 -1</clus>
<clus scale="   79.676">  5  6 -1 -1</clus>
<clus scale="   91.399">  7  8 -1 -1</clus>
<clus scale="  116.489">  1  5  2 -1</clus>
<clus scale="  116.489">  1  5  2 -1</clus>
</clustering>
</event>
<event>
 9    1  0.3846604E-005  0.9156973E+02  0.7546771E-02  0.1307008E+00
          1   -1    0    0  502    0  0.00000000000E+00  0.00000000000E+00  0.65203442155E+02  0.65203442155E+02  0.00000000000E+00 0. -1.
         -2   -1    0    0    0  501 -0.00000000000E+00 -0.00000000000E+00 -0.27427464678E+03  0.27427464678E+03  0.00000000000E+00 0.  1.
        -24    2    1    2    0    0  0.16222975308E+02 -0.11263734623E+00 -0.18343239348E+03  0.20038091844E+03  0.79005518039E+02 0.  0.
         23    2    1    2    0    0  0.77438107108E+01  0.48875285509E+01  0.13605171487E+02  0.92866265349E+02  0.91406717526E+02 0.  0.
         13    1    3    3    0    0 -0.76443933231E+01  0.28886121939E+02 -0.13912283790E+03  0.14229549822E+03  0.00000000000E+00 0. -1.
        -14    1    3    3    0    0  0.23867368632E+02 -0.28998759285E+02 -0.44309555585E+02  0.58085420215E+02  0.00000000000E+00 0.  1.
        -13    1    4    4    0    0  0.33197946683E+02 -0.14039970832E+02 -0.24276657682E+02  0.43457801982E+02  0.00000000000E+00 0.  1.
         13    1    4    4    0    0 -0.25454135972E+02  0.18927499383E+02  0.37881829170E+02  0.49408463366E+02  0.00000000000E+00 0. -1.
         21    1    1    2  502  501 -0.23966786019E+02 -0.47748912047E+01 -0.39243982632E+02  0.46230905149E+02  0.00000000000E+00 0.  1.
<scales pt_clust_5="13000.00000" pt_clust_6="13000.00000" pt_clust_7="13000.00000" pt_clust_8="13000.00000" pt_clust_9="24.43781"></scales>
<clustering>
<clus scale="   24.438">  2  9  1 -1</clus>
<clus scale="   79.006">  5  6 -1 -1</clus>
<clus scale="   79.194">  2  5  1 -1</clus>
<clus scale="   91.407">  7  8 -1 -1</clus>
<clus scale="   91.570">  1  5  2 -1</clus>
</clustering>
</event>
<event>
 9    1  0.3846604E-005  0.1178220E+03  0.7546771E-02  0.1249931E+00
          1   -1    0    0  502    0  0.00000000000E+00  0.00000000000E+00  0.45192121821E+03  0.45192121821E+03  0.00000000000E+00 0. -1.
         -2   -1    0    0    0  501 -0.00000000000E+00 -0.00000000000E+00 -0.10743481663E+03  0.10743481663E+03  0.00000000000E+00 0.  1.
        -24    2    1    2    0    0  0.61894563472E+02  0.30926970348E+02 -0.94237425966E+01  0.10703417481E+03  0.81117773459E+02 0.  0.
         23    2    1    2    0    0 -0.76795731461E+02 -0.21096145532E+01  0.38766376922E+03  0.40550528171E+03  0.90825660939E+02 0.  0.
         13    1    3    3    0    0  0.15248263045E+02  0.13733951221E+02  0.34863351977E+02  0.40454718552E+02  0.00000000000E+00 0. -1.
        -14    1    3    3    0    0  0.46646300427E+02  0.17193019127E+02 -0.44287094574E+02  0.66579456261E+02  0.00000000000E+00 0.  1.
        -11    1    4    4    0    0 -0.63087042525E+02  0.32154245910E+02  0.32633750894E+03  0.33393119082E+03  0.00000000000E+00 0. -1.
         11    1    4    4    0    0 -0.13708688936E+02 -0.34263860463E+02  0.61326260282E+02  0.71574090887E+02  0.00000000000E+00 0.  1.
         21    1    1    2  502  501  0.14901167989E+02 -0.28817355794E+02 -0.33753625042E+02  0.46816578323E+02  0.00000000000E+00 0.  1.
<scales pt_clust_5="13000.00000" pt_clust_6="13000.00000" pt_clust_7="13000.00000" pt_clust_8="13000.00000" pt_clust_9="32.44202"></scales>
<clustering>
<clus scale="   32.442">  2  9  1 -1</clus>
<clus scale="   81.118">  5  6 -1 -1</clus>
<clus scale="   90.826">  7  8 -1 -1</clus>
<clus scale="  110.512">  2  5  1 -1</clus>
<clus scale="  117.822">  1  5  2 -1</clus>
</clustering>
</event>
<event>
 9    1  0.3846604E-005  0.1946735E+03  0.7546771E-02  0.1154820E+00
         -2   -1    0    0    0  501 -0.00000000000E+00  0.00000000000E+00  0.74496579985E+02  0.74496579985E+02  0.00000000000E+00 0.  1.
          1   -1    0    0  502    0  0.00000000000E+00 -0.00000000000E+00 -0.89844707111E+03  0.89844707111E+03  0.00000000000E+00 0. -1.
        -24    2    1    2    0    0 -0.12063921539E+03 -0.98297226833E+02 -0.84512801847E+02  0.19432717068E+03  0.80027935716E+02 0.  0.
         23    2    1    2    0    0  0.13823713931E+03  0.11475514478E+03 -0.72191457419E+03  0.74882370357E+03  0.85428547164E+02 0.  0.
         13    1    3    3    0    0 -0.33874309012E+02 -0.12302979416E+02 -0.59605032046E+02  0.69653370046E+02  0.00000000000E+00 0. -1.
        -14    1    3    3    0    0 -0.86764906382E+02 -0.85994247417E+02 -0.24907769801E+02  0.12467380064E+03  0.00000000000E+00 0.  1.
        -11    1    4    4    0    0  0.13020897957E+03  0.59612826109E+02 -0.52266932134E+03  0.54193291731E+03  0.00000000000E+00 0. -1.
         11    1    4    4    0    0  0.80281597431E+01  0.55142318671E+02 -0.19924525285E+03  0.20689078626E+03  0.00000000000E+00 0.  1.
         21    1    1    2  502  501 -0.17597923918E+02 -0.16457917948E+02 -0.17523115094E+02  0.29792776843E+02  0.00000000000E+00 0. -1.
<scales pt_clust_5="13000.00000" pt_clust_6="13000.00000" pt_clust_7="13000.00000" pt_clust_8="13000.00000" pt_clust_9="24.09460"></scales>
<clustering>
<clus scale="   24.095">  1  9  2 -1</clus>
<clus scale="   80.028">  5  6 -1 -1</clus>
<clus scale="   85.429">  7  8 -1 -1</clus>
<clus scale="  192.365">  1  5  2 -1</clus>
<clus scale="  194.674">  2  5  1 -1</clus>
</clustering>
</event>
<event>
 9    1  0.3846604E-005  0.1093715E+03  0.7546771E-02  0.1266590E+00
          1   -1    0    0  502    0  0.00000000000E+00  0.00000000000E+00  0.18114438210E+03  0.18114438210E+03  0.00000000000E+00 0. -1.
         -2   -1    0    0    0  501 -0.00000000000E+00 -0.00000000000E+00 -0.15221212728E+03  0.15221212728E+03  0.00000000000E+00 0.  1.
        -24    2    1    2    0    0 -0.57960954326E+02 -0.21378844397E+02 -0.86846087693E+02  0.13329842762E+03  0.80060606064E+02 0.  0.
         23    2    1    2    0    0  0.43594082893E+02  0.40169849281E+02  0.13190712824E+03  0.17142861114E+03  0.92055512503E+02 0.  0.
         13    1    3    3    0    0 -0.27001219623E+02 -0.28231425082E+02  0.18458051637E+01  0.39108646359E+02  0.00000000000E+00 0. -1.
        -14    1    3    3    0    0 -0.30959734703E+02  0.68525806854E+01 -0.88691892857E+02  0.94189781258E+02  0.00000000000E+00 0.  1.
        -13    1    4    4    0    0 -0.28755610496E+02  0.57174549415E+01  0.33339739780E+02  0.44397214717E+02  0.00000000000E+00 0.  1.
         13    1    4    4    0    0  0.72349693389E+02  0.34452394339E+02  0.98567388461E+02  0.12703139642E+03  0.00000000000E+00 0. -1.
         21    1    1    2  502  501  0.14366871433E+02 -0.18791004884E+02 -0.16128785732E+02  0.28629470629E+02  0.00000000000E+00 0. -1.
<scales pt_clust_5="13000.00000" pt_clust_6="13000.00000" pt_clust_7="13000.00000" pt_clust_8="13000.00000" pt_clust_9="23.65394"></scales>
<clustering>
<clus scale="   23.654">  2  9  1 -1</clus>
<clus scale="   80.061">  5  6 -1 -1</clus>
<clus scale="   92.056">  7  8 -1 -1</clus>
<clus scale="   99.487">  2  5  1 -1</clus>
<clus scale="  109.371">  1  5  2 -1</clus>
</clustering>
</event>
<event>
 9    1  0.3846604E-005  0.1488183E+03  0.7546771E-02  0.1203785E+00
         -2   -1    0    0    0  501 -0.00000000000E+00  0.00000000000E+00  0.15378788683E+03  0.15378788683E+03  0.00000000000E+00 0.  1.
          1   -1    0    0  502    0  0.00000000000E+00 -0.00000000000E+00 -0.45482941373E+03  0.45482941373E+03  0.00000000000E+00 0. -1.
         23    2    1    2    0    0 -0.14382185345E+03  0.55802726048E+01  0.55213069466E+02  0.17876088263E+03  0.90504724438E+02 0.  0.
        -24    2    1    2    0    0  0.11426095225E+03 -0.15832281240E+02 -0.36987814080E+03  0.39573089194E+03  0.80541128937E+02 0.  0.
         13    1    4    4    0    0  0.68180257200E+02  0.13433067032E+02 -0.29495519384E+03  0.30303062739E+03  0.00000000000E+00 0. -1.
        -14    1    4    4    0    0  0.46080695053E+02 -0.29265348271E+02 -0.74922946965E+02  0.92700264552E+02  0.00000000000E+00 0.  1.
        -13    1    3    3    0    0 -0.97229126990E+02 -0.39120600053E+02  0.26539571518E+02  0.10811231817E+03  0.00000000000E+00 0.  1.
         13    1    3    3    0    0 -0.46592726464E+02  0.44700872658E+02  0.28673497948E+02  0.70648564461E+02  0.00000000000E+00 0. -1.
         21    1    1    2  502  501  0.29560901202E+02  0.10252008635E+02  0.13623544434E+02  0.34125525986E+02  0.00000000000E+00 0.  1.
<scales pt_clust_5="13000.00000" pt_clust_6="13000.00000" pt_clust_7="13000.00000" pt_clust_8="13000.00000" pt_clust_9="31.28819"></scales>
<clustering>
<clus scale="   31.288">  1  9  2 -1</clus>
<clus scale="   80.541">  5  6 -1 -1</clus>
<clus scale="   90.505">  7  8 -1 -1</clus>
<clus scale="  142.978">  2  5  1 -1</clus>
<clus scale="  142.978">  2  5  1 -1</clus>
</clustering>
</event>
<event>
 9    1  0.3846604E-005  0.9939175E+02  0.7546771E-02  0.1287183E+00
          3   -1    0    0  502    0  0.00000000000E+00  0.00000000000E+00  0.24135136668E+03  0.24135136668E+03  0.00000000000E+00 0. -1.
         -4   -1    0    0    0  501 -0.00000000000E+00 -0.00000000000E+00 -0.17799553482E+03  0.17799553482E+03  0.00000000000E+00 0.  1.
         23    2    1    2    0    0 -0.62700738290E+02 -0.39251010263E+01 -0.10855398184E+03  0.15518664402E+03  0.91390035066E+02 0.  0.
        -24    2    1    2    0    0  0.35535401947E+02  0.12109685857E+02  0.20331291232E+03  0.22183889727E+03  0.80417328619E+02 0.  0.
         11    1    4    4    0    0  0.31062681565E+02 -0.31543902224E+02  0.11493030753E+03  0.12316202151E+03  0.00000000000E+00 0. -1.
        -12    1    4    4    0    0  0.44727203823E+01  0.43653588081E+02  0.88382604787E+02  0.98676875755E+02  0.00000000000E+00 0.  1.
        -11    1    3    3    0    0 -0.66675557504E+02  0.31015746247E+02 -0.58261938224E+02  0.93819294014E+02  0.00000000000E+00 0.  1.
         11    1    3    3    0    0  0.39748192141E+01 -0.34940847273E+02 -0.50292043614E+02  0.61367350006E+02  0.00000000000E+00 0. -1.
         21    1    1    2  502  501  0.27165336343E+02 -0.81845848306E+01 -0.31403098618E+02  0.42321360213E+02  0.00000000000E+00 0.  1.
<scales pt_clust_5="13000.00000" pt_clust_6="13000.00000" pt_clust_7="13000.00000" pt_clust_8="13000.00000" pt_clust_9="28.37152"></scales>
<clustering>
<clus scale="   28.372">  2  9  1 -1</clus>
<clus scale="   80.417">  5  6 -1 -1</clus>
<clus scale="   89.407">  1  5  2 -1</clus>
<clus scale="   91.390">  7  8 -1 -1</clus>
<clus scale="   89.407">  1  5  2 -1</clus>
</clustering>
</event>
<event>
 9    1  0.3846604E-005  0.2501961E+03  0.7546771E-02  0.1113769E+00
         -2   -1    0    0    0  501 -0.00000000000E+00  0.00000000000E+00  0.26066111322E+03  0.26066111322E+03  0.00000000000E+00 0.  1.
          1   -1    0    0  502    0  0.00000000000E+00 -0.00000000000E+00 -0.30097393829E+03  0.30097393829E+03  0.00000000000E+00 0. -1.
        -24    2    1    2    0    0 -0.21199169119E+03 -0.12449773296E+03  0.27894785379E+02  0.26011056821E+03  0.80244787976E+02 0.  0.
         23    2    1    2    0    0  0.19141819822E+03  0.11990721533E+03 -0.10011724505E+03  0.26328097083E+03  0.90965597610E+02 0.  0.
         13    1    3    3    0    0 -0.16875454204E+03 -0.11514105743E+03 -0.59991456150E+01  0.20438089029E+03  0.00000000000E+00 0. -1.
        -14    1    3    3    0    0 -0.43237149144E+02 -0.93566755336E+01  0.33893930994E+02  0.55729677923E+02  0.00000000000E+00 0.  1.
        -11    1    4    4    0    0  0.65835987679E+02 -0.54009608306E+01 -0.25080962904E+02  0.70658349484E+02  0.00000000000E+00 0. -1.
         11    1    4    4    0    0  0.12558221054E+03  0.12530817616E+03 -0.75036282145E+02  0.19262262135E+03  0.00000000000E+00 0.  1.
         21    1    1    2  502  501  0.20573492970E+02  0.45905176327E+01  0.31909634599E+02  0.38243512462E+02  0.00000000000E+00 0.  1.
<scales pt_clust_5="13000.00000" pt_clust_6="13000.00000" pt_clust_7="13000.00000" pt_clust_8="13000.00000" pt_clust_9="21.07941"></scales>
<clustering>
<clus scale="   21.079">  1  9  2 -1</clus>
<clus scale="   80.245">  5  6 -1 -1</clus>
<clus scale="   90.966">  7  8 -1 -1</clus>
<clus scale="  246.501">  1  5  2 -1</clus>
<clus scale="  250.196">  2  5  1 -1</clus>
</clustering>
</event>
<event>
 9    1  0.3846604E-005  0.1790223E+03  0.7546771E-02  0.1170094E+00
         -2   -1    0    0    0  501 -0.00000000000E+00  0.00000000000E+00  0.56832283211E+02  0.56832283211E+02  0.00000000000E+00 0.  1.
          1   -1    0    0  502    0  0.00000000000E+00 -0.00000000000E+00 -0.80569291890E+03  0.80569291890E+03  0.00000000000E+00 0. -1.
         23    2    1    2    0    0  0.11594157466E+03  0.11345063359E+03 -0.16247448414E+03  0.24721578365E+03  0.91674373149E+02 0.  0.
        -24    2    1    2    0    0 -0.90291365861E+02 -0.96792394651E+02 -0.51006785409E+03  0.53309073042E+03  0.80592882296E+02 0.  0.
         11    1    4    4    0    0 -0.75077431929E+02 -0.81593692192E+02 -0.49388132334E+03  0.50617478497E+03  0.00000000000E+00 0. -1.
        -12    1    4    4    0    0 -0.15213933933E+02 -0.15198702459E+02 -0.16186530746E+02  0.26915945455E+02  0.00000000000E+00 0.  1.
        -11    1    3    3    0    0  0.54992836648E+02  0.36785772368E+02 -0.12672210653E+03  0.14295417942E+03  0.00000000000E+00 0. -1.
         11    1    3    3    0    0  0.60948738010E+02  0.76664861220E+02 -0.35752377613E+02  0.10426160423E+03  0.00000000000E+00 0.  1.
         21    1    1    2  502  501 -0.25650208797E+02 -0.16658238937E+02 -0.76318297456E+02  0.82218688036E+02  0.00000000000E+00 0. -1.
<scales pt_clust_5="13000.00000" pt_clust_6="13000.00000" pt_clust_7="13000.00000" pt_clust_8="13000.00000" pt_clust_9="30.58480"></scales>
<clustering>
<clus scale="   30.585">  2  9  1 -1</clus>
<clus scale="   80.593">  5  6 -1 -1</clus>
<clus scale="   91.674">  7  8 -1 -1</clus>
<clus scale="  173.609">  2  5  1 -1</clus>
<clus scale="   30.585">  2  5  1 -1</clus>
</clustering>
</event>
<event>
 9    1  0.3846604E-005  0.1012668E+03  0.7546771E-02  0.1283374E+00
          1   -1    0    0  502    0  0.00000000000E+00  0.00000000000E+00  0.39552368169E+03  0.39552368169E+03  0.00000000000E+00 0. -1.
         -2   -1    0    0    0  501 -0.00000000000E+00 -0.00000000000E+00 -0.23714967796E+03  0.23714967796E+03  0.00000000000E+00 0.  1.
         23    2    1    2    0    0 -0.41930735074E+02 -0.51250289692E+02 -0.16317697398E+03  0.19827553877E+03  0.91113586808E+02 0.  0.
        -24    2    1    2    0    0  0.44052668160E+02 -0.60430995084E+01  0.35605013839E+03  0.36748573577E+03  0.79353061192E+02 0.  0.
         13    1    4    4    0    0  0.24953149813E+02 -0.38142525643E+02  0.26788145534E+03  0.27173145946E+03  0.00000000000E+00 0. -1.
        -14    1    4    4    0    0  0.19099518347E+02  0.32099426134E+02  0.88168683053E+02  0.95754276304E+02  0.00000000000E+00 0.  1.
        -13    1    3    3    0    0 -0.72838370878E+01  0.26419324801E+02 -0.35058555133E+02  0.44498733619E+02  0.00000000000E+00 0.  1.
         13    1    3    3    0    0 -0.34646897986E+02 -0.77669614493E+02 -0.12811841885E+03  0.15377680515E+03  0.00000000000E+00 0. -1.
         21    1    1    2  502  501 -0.21219330858E+01  0.57293389201E+02 -0.34499160684E+02  0.66912085112E+02  0.00000000000E+00 0.  1.
<scales pt_clust_5="13000.00000" pt_clust_6="13000.00000" pt_clust_7="13000.00000" pt_clust_8="13000.00000" pt_clust_9="57.33267"></scales>
<clustering>
<clus scale="   57.333">  2  9  1 -1</clus>
<clus scale="   79.353">  5  6 -1 -1</clus>
<clus scale="   90.831">  1  5  2 -1</clus>
<clus scale="   91.114">  7  8 -1 -1</clus>
<clus scale="   90.831">  1  5  2 -1</clus>
</clustering>
</event>
<event>
 9    1  0.4255760E-005  0.1273847E+03  0.7546771E-02  0.1234021E+00
          1   -1    0    0  502    0  0.00000000000E+00  0.00000000000E+00  0.90029760028E+03  0.90029760028E+03  0.00000000000E+00 0. -1.
         -2   -1    0    0    0  501 -0.00000000000E+00 -0.00000000000E+00 -0.53979549688E+02  0.53979549688E+02  0.00000000000E+00 0.  1.
         23    2    1    2    0    0  0.10680983426E+03  0.29748676733E+01  0.61423726124E+02  0.15284436162E+03  0.90395432494E+02 0.  0.
        -24    2    1    2    0    0 -0.87353250018E+02  0.11447257247E+02  0.74679009088E+03  0.75628315961E+03  0.80666893374E+02 0.  0.
         11    1    4    4    0    0 -0.84306398530E+02  0.37474165310E+02  0.53774203915E+03  0.54559910425E+03  0.00000000000E+00 0. -1.
        -12    1    4    4    0    0 -0.30468514875E+01 -0.26026908063E+02  0.20904805174E+03  0.21068405536E+03  0.00000000000E+00 0.  1.
        -13    1    3    3    0    0  0.22230096089E+02  0.18539682146E+02  0.60242769272E+02  0.66836279338E+02  0.00000000000E+00 0. -1.
         13    1    3    3    0    0  0.84579738174E+02 -0.15564814472E+02  0.11809568522E+01  0.86008082284E+02  0.00000000000E+00 0.  1.
         21    1    1    2  502  501 -0.19456584245E+02 -0.14422124920E+02  0.38104233589E+02  0.45149628737E+02  0.00000000000E+00 0. -1.
<scales pt_clust_5="13000.00000" pt_clust_6="13000.00000" pt_clust_7="13000.00000" pt_clust_8="13000.00000" pt_clust_9="24.21893"></scales>
<clustering>
<clus scale="   24.219">  2  9  1 -1</clus>
<clus scale="   80.667">  5  6 -1 -1</clus>
<clus scale="   90.395">  7  8 -1 -1</clus>
<clus scale="  120.676">  1  5  2 -1</clus>
<clus scale="  120.676">  1  5  2 -1</clus>
</clustering>
</event>
<event>
 9    1  0.3846604E-005  0.1661570E+03  0.7546771E-02  0.1189716E+00
          1   -1    0    0  502    0  0.00000000000E+00  0.00000000000E+00  0.41217225553E+03  0.41217225553E+03  0.00000000000E+00 0. -1.
         -2   -1    0    0    0  501 -0.00000000000E+00 -0.00000000000E+00 -0.20471837537E+03  0.20471837537E+03  0.00000000000E+00 0.  1.
        -24    2    1    2    0    0  0.11808446791E+03 -0.32730787467E+02  0.20336176546E+03  0.25044703320E+03  0.79702338583E+02 0.  0.
         23    2    1    2    0    0  0.16346524335E+02  0.11211189779E+03  0.10999971546E+03  0.17779187561E+03  0.81692883074E+02 0.  0.
         11    1    3    3    0    0  0.89635218985E+02 -0.56392081436E+02  0.17177946242E+03  0.20179871912E+03  0.00000000000E+00 0. -1.
        -12    1    3    3    0    0  0.28449248924E+02  0.23661293969E+02  0.31582303045E+02  0.48648314074E+02  0.00000000000E+00 0.  1.
        -11    1    4    4    0    0 -0.31072336113E+02  0.22937062495E+02  0.28146340424E+02  0.47789281086E+02  0.00000000000E+00 0.  1.
         11    1    4    4    0    0  0.47418860448E+02  0.89174835299E+02  0.81853375041E+02  0.13000259452E+03  0.00000000000E+00 0. -1.
         21    1    1    2  502  501 -0.13443099224E+03 -0.79381110327E+02 -0.10590760077E+03  0.18865172210E+03  0.00000000000E+00 0.  1.
<scales pt_clust_5="13000.00000" pt_clust_6="13000.00000" pt_clust_7="13000.00000" pt_clust_8="13000.00000" pt_clust_9="145.79328"></scales>
<clustering>
<clus scale="   79.702">  5  6 -1 -1</clus>
<clus scale="   81.693">  7  8 -1 -1</clus>
<clus scale="  139.678">  1  7  2 -1</clus>
<clus scale="  145.793">  2  9  1 -1</clus>
<clus scale="  139.678">  1  5  2 -1</clus>
</clustering>
</event>
<event>
 9    1  0.3846604E-005  0.1400149E+03  0.7546771E-02  0.1215991E+00
         -2   -1    0    0    0  501 -0.00000000000E+00  0.00000000000E+00  0.97962293746E+02  0.97962293746E+02  0.00000000000E+00 0.  1.
          1   -1    0    0  502    0  0.00000000000E+00 -0.00000000000E+00 -0.31198291536E+03  0.31198291536E+03  0.00000000000E+00 0. -1.
        -24    2    1    2    0    0  0.35968959446E+02  0.97801872659E+02 -0.17453248377E+02  0.12988739080E+03  0.75545655534E+02 0.  0.
         23    2    1    2    0    0 -0.66001916431E+01 -0.11145216320E+03 -0.20207139370E+03  0.24720741198E+03  0.88394056228E+02 0.  0.
         13    1    3    3    0    0  0.52955278278E+02  0.41788136811E+02  0.39281965933E+01  0.67571744125E+02  0.00000000000E+00 0. -1.
        -14    1    3    3    0    0 -0.16986318832E+02  0.56013735848E+02 -0.21381444971E+02  0.62315646672E+02  0.00000000000E+00 0.  1.
        -13    1    4    4    0    0  0.48922243788E+01 -0.55036382988E+02 -0.17513339839E+03  0.18364270893E+03  0.00000000000E+00 0. -1.
         13    1    4    4    0    0 -0.11492416022E+02 -0.56415780214E+02 -0.26937995312E+02  0.63564703056E+02  0.00000000000E+00 0.  1.
         21    1    1    2  502  501 -0.29368767803E+02  0.13650290543E+02  0.55040204653E+01  0.32850406321E+02  0.00000000000E+00 0.  1.
<scales pt_clust_5="13000.00000" pt_clust_6="13000.00000" pt_clust_7="13000.00000" pt_clust_8="13000.00000" pt_clust_9="32.38603"></scales>
<clustering>
<clus scale="   32.386">  1  9  2 -1</clus>
<clus scale="   75.546">  5  6 -1 -1</clus>
<clus scale="   88.394">  7  8 -1 -1</clus>
<clus scale="  132.279">  1  5  2 -1</clus>
<clus scale="  140.015">  2  5  1 -1</clus>
</clustering>
</event>
<event>
 9    1  0.3846604E-005  0.1962005E+03  0.7546771E-02  0.1154852E+00
         -2   -1    0    0    0  501 -0.00000000000E+00  0.00000000000E+00  0.15469810431E+03  0.15469810431E+03  0.00000000000E+00 0.  1.
          1   -1    0    0  502    0  0.00000000000E+00 -0.00000000000E+00 -0.32884712422E+03  0.32884712422E+03  0.00000000000E+00 0. -1.
         23    2    1    2    0    0 -0.57475455454E+00 -0.17779794585E+03 -0.16068389279E+02  0.20440153871E+03  0.99545748279E+02 0.  0.
        -24    2    1    2    0    0  0.19321609281E+02  0.16455064304E+03 -0.17191527007E+03  0.25234195775E+03  0.81678423404E+02 0.  0.
         11    1    4    4    0    0 -0.23451512052E+02  0.12190233977E+03 -0.12082211586E+03  0.17322857022E+03  0.00000000000E+00 0. -1.
        -12    1    4    4    0    0  0.42773121332E+02  0.42648303274E+02 -0.51093154205E+02  0.79113387535E+02  0.00000000000E+00 0.  1.
        -11    1    3    3    0    0  0.11504921298E+01 -0.14905436807E+03 -0.52437324515E+02  0.15801329462E+03  0.00000000000E+00 0. -1.
         11    1    3    3    0    0 -0.17252466843E+01 -0.28743577778E+02  0.36368935235E+02  0.46388244090E+02  0.00000000000E+00 0.  1.
         21    1    1    2  502  501 -0.18746854726E+02  0.13247302810E+02  0.13834639432E+02  0.26801732072E+02  0.00000000000E+00 0. -1.
<scales pt_clust_5="13000.00000" pt_clust_6="13000.00000" pt_clust_7="13000.00000" pt_clust_8="13000.00000" pt_clust_9="22.95508"></scales>
<clustering>
<clus scale="   22.955">  1  9  2 -1</clus>
<clus scale="   81.678">  5  6 -1 -1</clus>
<clus scale="   99.546">  7  8 -1 -1</clus>
<clus scale="  187.768">  2  5  1 -1</clus>
<clus scale="  187.768">  2  5  1 -1</clus>
</clustering>
</event>
<event>
 9    1  0.3846604E-005  0.1386813E+03  0.7546771E-02  0.1217458E+00
          1   -1    0    0  502    0  0.00000000000E+00  0.00000000000E+00  0.17264438421E+03  0.17264438421E+03  0.00000000000E+00 0. -1.
         -2   -1    0    0    0  501 -0.00000000000E+00 -0.00000000000E+00 -0.15828234135E+03  0.15828234135E+03  0.00000000000E+00 0.  1.
        -24    2    1    2    0    0 -0.10125716163E+03  0.65087944975E+02 -0.37006779483E+02  0.14911575310E+03  0.79853320113E+02 0.  0.
         23    2    1    2    0    0  0.89531957597E+02 -0.41494043419E+02  0.68485040948E+02  0.15039254571E+03  0.90498562984E+02 0.  0.
         13    1    3    3    0    0 -0.19194493259E+02  0.46153518619E+02  0.12364649588E+02  0.51492333525E+02  0.00000000000E+00 0. -1.
        -14    1    3    3    0    0 -0.82062668368E+02  0.18934426356E+02 -0.49371429071E+02  0.97623419575E+02  0.00000000000E+00 0.  1.
        -13    1    4    4    0    0 -0.14046848157E+02 -0.25378592853E+02  0.12963990377E+02  0.31771873801E+02  0.00000000000E+00 0.  1.
         13    1    4    4    0    0  0.10357880575E+03 -0.16115450566E+02  0.55521050571E+02  0.11862067191E+03  0.00000000000E+00 0. -1.
         21    1    1    2  502  501  0.11725204029E+02 -0.23593901556E+02 -0.17116218604E+02  0.31418426750E+02  0.00000000000E+00 0. -1.
<scales pt_clust_5="13000.00000" pt_clust_6="13000.00000" pt_clust_7="13000.00000" pt_clust_8="13000.00000" pt_clust_9="26.34678"></scales>
<clustering>
<clus scale="   26.347">  2  9  1 -1</clus>
<clus scale="   79.853">  5  6 -1 -1</clus>
<clus scale="   90.499">  7  8 -1 -1</clus>
<clus scale="  131.981">  2  5  1 -1</clus>
<clus scale="  138.681">  1  5  2 -1</clus>
</clustering>
</event>
<event>
 9    1  0.3846604E-005  0.1230553E+03  0.7546771E-02  0.1241100E+00
          1   -1    0    0  502    0  0.00000000000E+00  0.00000000000E+00  0.14770234339E+03  0.14770234339E+03  0.00000000000E+00 0. -1.
         -2   -1    0    0    0  501 -0.00000000000E+00 -0.00000000000E+00 -0.16469512528E+03  0.16469512528E+03  0.00000000000E+00 0.  1.
        -24    2    1    2    0    0 -0.56410280971E+02  0.47334156157E+01 -0.52313700968E+02  0.11135668291E+03  0.80368292864E+02 0.  0.
         23    2    1    2    0    0  0.94876812755E+02 -0.20215268778E+02  0.67267154594E+02  0.14869650424E+03  0.90418546741E+02 0.  0.
         11    1    3    3    0    0 -0.31496231686E+02  0.42546303381E+02 -0.30499549153E+02  0.61093559729E+02  0.00000000000E+00 0. -1.
        -12    1    3    3    0    0 -0.24914049284E+02 -0.37812887765E+02 -0.21814151815E+02  0.50263123185E+02  0.00000000000E+00 0.  1.
        -13    1    4    4    0    0  0.29485340632E+02 -0.49521624146E+02  0.13730681270E+02  0.59247853787E+02  0.00000000000E+00 0.  1.
         13    1    4    4    0    0  0.65391472123E+02  0.29306355368E+02  0.53536473323E+02  0.89448650449E+02  0.00000000000E+00 0. -1.
         21    1    1    2  502  501 -0.38466531784E+02  0.15481853162E+02 -0.31946235512E+02  0.52344281524E+02  0.00000000000E+00 0. -1.
<scales pt_clust_5="13000.00000" pt_clust_6="13000.00000" pt_clust_7="13000.00000" pt_clust_8="13000.00000" pt_clust_9="41.46519"></scales>
<clustering>
<clus scale="   41.465">  2  9  1 -1</clus>
<clus scale="   80.368">  5  6 -1 -1</clus>
<clus scale="   90.419">  7  8 -1 -1</clus>
<clus scale="  115.871">  2  5  1 -1</clus>
<clus scale="  123.055">  1  5  2 -1</clus>
</clustering>
</event>
<event>
 9    1  0.3846604E-005  0.1898944E+03  0.7546771E-02  0.1159864E+00
          1   -1    0    0  502    0  0.00000000000E+00  0.00000000000E+00  0.79635221806E+03  0.79635221806E+03  0.00000000000E+00 0. -1.
         -2   -1    0    0    0  501 -0.00000000000E+00 -0.00000000000E+00 -0.83891785139E+02  0.83891785139E+02  0.00000000000E+00 0.  1.
        -24    2    1    2    0    0 -0.64068138229E+02  0.16969977695E+03  0.22616433590E+03  0.30085005713E+03  0.80359874359E+02 0.  0.
         23    2    1    2    0    0  0.50449354835E+02 -0.15084465763E+03  0.51237925295E+03  0.54444658839E+03  0.92684090411E+02 0.  0.
         11    1    3    3    0    0 -0.45099303485E+02  0.32209004630E+02  0.94439411356E+02  0.10949963275E+03  0.00000000000E+00 0. -1.
        -12    1    3    3    0    0 -0.18968834744E+02  0.13749077232E+03  0.13172492455E+03  0.19135042439E+03  0.00000000000E+00 0.  1.
        -13    1    4    4    0    0  0.28658864932E+02 -0.23219806108E+02  0.38993672118E+02  0.53674914067E+02  0.00000000000E+00 0.  1.
         13    1    4    4    0    0  0.21790489903E+02 -0.12762485152E+03  0.47338558083E+03  0.49077167432E+03  0.00000000000E+00 0. -1.
         21    1    1    2  502  501  0.13618783394E+02 -0.18855119324E+02 -0.26083155928E+02  0.34947357683E+02  0.00000000000E+00 0.  1.
<scales pt_clust_5="13000.00000" pt_clust_6="13000.00000" pt_clust_7="13000.00000" pt_clust_8="13000.00000" pt_clust_9="23.25912"></scales>
<clustering>
<clus scale="   23.259">  2  9  1 -1</clus>
<clus scale="   80.360">  5  6 -1 -1</clus>
<clus scale="   92.684">  7  8 -1 -1</clus>
<clus scale="  184.194">  2  5  1 -1</clus>
<clus scale="  189.894">  1  5  2 -1</clus>
</clustering>
</event>
<event>
 9    1  0.3846604E-005  0.3150327E+03  0.7546771E-02  0.1078335E+00
          1   -1    0    0  502    0  0.00000000000E+00  0.00000000000E+00  0.58252588979E+03  0.58252588979E+03  0.00000000000E+00 0. -1.
         -2   -1    0    0    0  501 -0.00000000000E+00 -0.00000000000E+00 -0.37993455891E+03  0.37993455891E+03  0.00000000000E+00 0.  1.
        -24    2    1    2    0    0  0.21024895415E+03 -0.23829647661E+03 -0.43671742335E+02  0.33105117500E+03  0.81840246264E+02 0.  0.
         23    2    1    2    0    0 -0.24505685185E+03  0.16943168532E+03  0.37091577689E+03  0.48480693484E+03  0.93270005333E+02 0.  0.
         13    1    3    3    0    0  0.46945973143E+02 -0.10253349457E+03  0.60846330793E+01  0.11293389510E+03  0.00000000000E+00 0. -1.
        -14    1    3    3    0    0  0.16330298101E+03 -0.13576298203E+03 -0.49756375415E+02  0.21811727990E+03  0.00000000000E+00 0.  1.
        -11    1    4    4    0    0 -0.19378327337E+03  0.15684508005E+03  0.34591382620E+03  0.42639032744E+03  0.00000000000E+00 0. -1.
         11    1    4    4    0    0 -0.51273578482E+02  0.12586605275E+02  0.25001950688E+02  0.58416607407E+02  0.00000000000E+00 0.  1.
         21    1    1    2  502  501  0.34807897704E+02  0.68864791285E+02 -0.12465270368E+03  0.14660233885E+03  0.00000000000E+00 0. -1.
<scales pt_clust_5="13000.00000" pt_clust_6="13000.00000" pt_clust_7="13000.00000" pt_clust_8="13000.00000" pt_clust_9="77.16184"></scales>
<clustering>
<clus scale="   77.162">  2  9  1 -1</clus>
<clus scale="   81.840">  5  6 -1 -1</clus>
<clus scale="   93.270">  7  8 -1 -1</clus>
<clus scale="  311.840">  2  5  1 -1</clus>
<clus scale="  315.033">  1  5  2 -1</clus>
</clustering>
</event>
<event>
 9    1  0.3846604E-005  0.1841903E+03  0.7546771E-02  0.1164961E+00
         -2   -1    0    0    0  501 -0.00000000000E+00  0.00000000000E+00  0.35387267460E+03  0.35387267460E+03  0.00000000000E+00 0.  1.
          1   -1    0    0  502    0  0.00000000000E+00 -0.00000000000E+00 -0.22132262480E+03  0.22132262480E+03  0.00000000000E+00 0. -1.
         23    2    1    2    0    0  0.19644639411E+03 -0.78694724250E+01 -0.13045441083E+02  0.21780472852E+03  0.92820266534E+02 0.  0.
        -24    2    1    2    0    0 -0.13588632880E+03 -0.11929702970E+02 -0.37165065258E+02  0.16384225718E+03  0.82798737872E+02 0.  0.
         13    1    4    4    0    0 -0.89571541766E+02 -0.44294392478E+02 -0.79692905308E+01  0.10024252536E+03  0.00000000000E+00 0. -1.
        -14    1    4    4    0    0 -0.46314787036E+02  0.32364689508E+02 -0.29195774728E+02  0.63599731816E+02  0.00000000000E+00 0.  1.
        -13    1    3    3    0    0  0.13508168793E+03  0.31676352169E+02  0.15096559576E+02  0.13956489463E+03  0.00000000000E+00 0. -1.
         13    1    3    3    0    0  0.61364706175E+02 -0.39545824594E+02 -0.28142000659E+02  0.78239833895E+02  0.00000000000E+00 0.  1.
         21    1    1    2  502  501 -0.60560065303E+02  0.19799175395E+02  0.18276055615E+03  0.19354831371E+03  0.00000000000E+00 0.  1.
<scales pt_clust_5="13000.00000" pt_clust_6="13000.00000" pt_clust_7="13000.00000" pt_clust_8="13000.00000" pt_clust_9="63.71443"></scales>
<clustering>
<clus scale="   63.714">  1  9  2 -1</clus>
<clus scale="   82.799">  5  6 -1 -1</clus>
<clus scale="   92.820">  7  8 -1 -1</clus>
<clus scale="  179.349">  2  5  1 -1</clus>
<clus scale="  179.349">  2  5  1 -1</clus>
</clustering>
</event>
<event>
 9    1  0.3846604E-005  0.1353923E+03  0.7546771E-02  0.1221029E+00
         -2   -1    0    0    0  501 -0.00000000000E+00  0.00000000000E+00  0.70298950675E+02  0.70298950675E+02  0.00000000000E+00 0.  1.
          1   -1    0    0  502    0  0.00000000000E+00 -0.00000000000E+00 -0.47736418905E+03  0.47736418905E+03  0.00000000000E+00 0. -1.
         23    2    1    2    0    0 -0.67311232453E+02  0.56073417606E+02 -0.10219621114E+03  0.16023988812E+03  0.86935182725E+02 0.  0.
        -24    2    1    2    0    0  0.74261970930E+02 -0.83849752747E+02 -0.32451604252E+03  0.35269800475E+03  0.80867789248E+02 0.  0.
         13    1    4    4    0    0  0.48446104661E+02 -0.14720305414E+01 -0.81733700317E+02  0.95024153236E+02  0.00000000000E+00 0. -1.
        -14    1    4    4    0    0  0.25815866269E+02 -0.82377722206E+02 -0.24278234221E+03  0.25767385151E+03  0.00000000000E+00 0.  1.
        -11    1    3    3    0    0 -0.11789303844E+01  0.54433494455E+02 -0.29403621159E+02  0.61878656520E+02  0.00000000000E+00 0.  1.
         11    1    3    3    0    0 -0.66132302069E+02  0.16399231515E+01 -0.72792589982E+02  0.98361231597E+02  0.00000000000E+00 0. -1.
         21    1    1    2  502  501 -0.69507384767E+01  0.27776335141E+02  0.19647015293E+02  0.34725246855E+02  0.00000000000E+00 0.  1.
<scales pt_clust_5="13000.00000" pt_clust_6="13000.00000" pt_clust_7="13000.00000" pt_clust_8="13000.00000" pt_clust_9="28.63281"></scales>
<clustering>
<clus scale="   28.633">  1  9  2 -1</clus>
<clus scale="   80.868">  5  6 -1 -1</clus>
<clus scale="   86.935">  7  8 -1 -1</clus>
<clus scale="  131.579">  2  5  1 -1</clus>
<clus scale="  131.579">  2  5  1 -1</clus>
</clustering>
</event>
<event>
 9    1  0.3846604E-005  0.2141681E+03  0.7546771E-02  0.1172602E+00
          1   -1    0    0  502    0  0.00000000000E+00  0.00000000000E+00  0.41583752470E+03  0.41583752470E+03  0.00000000000E+00 0. -1.
         -2   -1    0    0    0  501 -0.00000000000E+00 -0.00000000000E+00 -0.17717191640E+03  0.17717191640E+03  0.00000000000E+00 0.  1.
        -24    2    1    2    0    0  0.27762964757E+02  0.19074271219E+03  0.11840034235E+03  0.24038237316E+03  0.81311006559E+02 0.  0.
         23    2    1    2    0    0 -0.29298745118E+02  0.11303602618E+02  0.11614972461E+03  0.15053300660E+03  0.90461260493E+02 0.  0.
         13    1    3    3    0    0  0.28711484230E+02  0.13110197413E+02  0.18314963103E+02  0.36491978247E+02  0.00000000000E+00 0. -1.
        -14    1    3    3    0    0 -0.94851947320E+00  0.17763251478E+03  0.10008537925E+03  0.20389039491E+03  0.00000000000E+00 0.  1.
        -11    1    4    4    0    0 -0.53916177787E+02 -0.56347890191E+01  0.36210493439E+02  0.65191294738E+02  0.00000000000E+00 0. -1.
         11    1    4    4    0    0  0.24617432669E+02  0.16938391637E+02  0.79939231175E+02  0.85341711861E+02  0.00000000000E+00 0.  1.
         21    1    1    2  502  501  0.15357803607E+01 -0.20204631481E+03  0.41155413248E+01  0.20209406134E+03  0.00000000000E+00 0. -1.
<scales pt_clust_5="13000.00000" pt_clust_6="13000.00000" pt_clust_7="13000.00000" pt_clust_8="13000.00000" pt_clust_9="198.13250"></scales>
<clustering>
<clus scale="   81.311">  5  6 -1 -1</clus>
<clus scale="   90.461">  7  8 -1 -1</clus>
<clus scale="   95.757">  1  7  2 -1</clus>
<clus scale="  198.132">  2  9  1 -1</clus>
<clus scale="   95.757">  1  5  2 -1</clus>
</clustering>
</event>
<event>
 9    1  0.3846604E-005  0.1692214E+03  0.7546771E-02  0.1181303E+00
         -4   -1    0    0    0  501 -0.00000000000E+00  0.00000000000E+00  0.50602032521E+02  0.50602032521E+02  0.00000000000E+00 0.  1.
          3   -1    0    0  502    0  0.00000000000E+00 -0.00000000000E+00 -0.85613746764E+03  0.85613746764E+03  0.00000000000E+00 0. -1.
         23    2    1    2    0    0 -0.15400593474E+03 -0.24711281678E+01 -0.21060336217E+03  0.27656650327E+03  0.91713249662E+02 0.  0.
        -24    2    1    2    0    0  0.13764490703E+03  0.17514539268E+02 -0.58550360606E+03  0.60603001792E+03  0.72145896655E+02 0.  0.
         11    1    4    4    0    0  0.81690981977E+02 -0.24468842299E+02 -0.35788826824E+03  0.36790780547E+03  0.00000000000E+00 0. -1.
        -12    1    4    4    0    0  0.55953925050E+02  0.41983381567E+02 -0.22761533782E+03  0.23812221246E+03  0.00000000000E+00 0.  1.
        -13    1    3    3    0    0 -0.66199699179E+02 -0.45342929402E+02 -0.78504193088E+02  0.11225546646E+03  0.00000000000E+00 0.  1.
         13    1    3    3    0    0 -0.87806235564E+02  0.42871801234E+02 -0.13209916908E+03  0.16431103681E+03  0.00000000000E+00 0. -1.
         21    1    1    2  502  501  0.16361027717E+02 -0.15043411100E+02 -0.94284668948E+01  0.24142978968E+02  0.00000000000E+00 0.  1.
<scales pt_clust_5="13000.00000" pt_clust_6="13000.00000" pt_clust_7="13000.00000" pt_clust_8="13000.00000" pt_clust_9="22.22583"></scales>
<clustering>
<clus scale="   22.226">  1  9  2 -1</clus>
<clus scale="   72.146">  5  6 -1 -1</clus>
<clus scale="   91.713">  7  8 -1 -1</clus>
<clus scale="  159.467">  2  5  1 -1</clus>
<clus scale="  159.467">  2  5  1 -1</clus>
</clustering>
</event>
<event>
 9    1  0.3846604E-005  0.1077837E+03  0.7546771E-02  0.1269520E+00
         -2   -1    0    0    0  501 -0.00000000000E+00  0.00000000000E+00  0.26932205083E+03  0.26932205083E+03  0.00000000000E+00 0.  1.
          1   -1    0    0  502    0  0.00000000000E+00 -0.00000000000E+00 -0.19758524333E+03  0.19758524333E+03  0.00000000000E+00 0. -1.
         23    2    1    2    0    0  0.51934281857E+02 -0.33648080230E+02  0.15818442339E+03  0.19288204395E+03  0.91388227584E+02 0.  0.
        -24    2    1    2    0    0 -0.21604871260E+02  0.53382802196E+02 -0.16238591260E+03  0.18990654061E+03  0.79867487274E+02 0.  0.
         11    1    4    4    0    0  0.18159715886E+02  0.33012273318E+02 -0.12827814889E+03  0.13369692949E+03  0.00000000000E+00 0. -1.
        -12    1    4    4    0    0 -0.39764587146E+02  0.20370528878E+02 -0.34107763706E+02  0.56209611123E+02  0.00000000000E+00 0.  1.
        -11    1    3    3    0    0  0.22297532181E+02  0.25269257920E+02  0.18579090071E+02  0.38482436579E+02  0.00000000000E+00 0. -1.
         11    1    3    3    0    0  0.29636749676E+02 -0.58917338150E+02  0.13960533332E+03  0.15439960737E+03  0.00000000000E+00 0.  1.
         21    1    1    2  502  501 -0.30329410596E+02 -0.19734721966E+02  0.75938296709E+02  0.84118709603E+02  0.00000000000E+00 0. -1.
<scales pt_clust_5="13000.00000" pt_clust_6="13000.00000" pt_clust_7="13000.00000" pt_clust_8="13000.00000" pt_clust_9="36.18470"></scales>
<clustering>
<clus scale="   36.185">  1  9  2 -1</clus>
<clus scale="   79.867">  5  6 -1 -1</clus>
<clus scale="   91.388">  7  8 -1 -1</clus>
<clus scale="   98.206">  2  5  1 -1</clus>
<clus scale="   98.206">  2  5  1 -1</clus>
</clustering>
</event>
<event>
 9    1  0.3846604E-005  0.1008644E+03  0.7546771E-02  0.1284407E+00
          1   -1    0    0  502    0  0.00000000000E+00  0.00000000000E+00  0.15937554141E+03  0.15937554141E+03  0.00000000000E+00 0. -1.
         -2   -1    0    0    0  501 -0.00000000000E+00 -0.00000000000E+00 -0.12221792570E+03  0.12221792570E+03  0.00000000000E+00 0.  1.
        -24    2    1    2    0    0 -0.11768626304E+02 -0.30461772114E+02 -0.37690494913E+02  0.94601624003E+02  0.80389512574E+02 0.  0.
         23    2    1    2    0    0  0.32196054920E+02  0.30158942941E+02  0.10756913707E+03  0.14841675895E+03  0.92251109998E+02 0.  0.
         11    1    3    3    0    0 -0.13854636387E+02 -0.57021834164E+02 -0.33680829921E+02  0.67659728236E+02  0.00000000000E+00 0. -1.
        -12    1    3    3    0    0  0.20860100832E+01  0.26560062050E+02 -0.40096649918E+01  0.26941895767E+02  0.00000000000E+00 0.  1.
        -13    1    4    4    0    0  0.36011651209E+01  0.36972162675E+02  0.25347941510E+00  0.37147993955E+02  0.00000000000E+00 0.  1.
         13    1    4    4    0    0  0.28594889800E+02 -0.68132197338E+01  0.10731565766E+03  0.11126876500E+03  0.00000000000E+00 0. -1.
         21    1    1    2  502  501 -0.20427428617E+02  0.30282917301E+00 -0.32721026455E+02  0.38575084156E+02  0.00000000000E+00 0. -1.
<scales pt_clust_5="13000.00000" pt_clust_6="13000.00000" pt_clust_7="13000.00000" pt_clust_8="13000.00000" pt_clust_9="20.42967"></scales>
<clustering>
<clus scale="   20.430">  2  9  1 -1</clus>
<clus scale="   80.390">  5  6 -1 -1</clus>
<clus scale="   90.143">  2  5  1 -1</clus>
<clus scale="   92.251">  7  8 -1 -1</clus>
<clus scale="  100.864">  1  5  2 -1</clus>
</clustering>
</event>
<event>
 9    1  0.3846604E-005  0.1172770E+03  0.7546771E-02  0.1253256E+00
          3   -1    0    0  502    0  0.00000000000E+00  0.00000000000E+00  0.34749239958E+03  0.34749239958E+03  0.00000000000E+00 0. -1.
         -4   -1    0    0    0  501 -0.00000000000E+00 -0.00000000000E+00 -0.10278723246E+03  0.10278723246E+03  0.00000000000E+00 0.  1.
        -24    2    1    2    0    0 -0.19227782585E+02  0.34281870298E+01 -0.12496640404E+02  0.83543256855E+02  0.80261134151E+02 0.  0.
         23    2    1    2    0    0  0.45285641455E+02 -0.70456764771E+02  0.26539378612E+03  0.29435577864E+03  0.95898475914E+02 0.  0.
         11    1    3    3    0    0 -0.39275210639E+02 -0.25016816790E+02  0.56426767883E-02  0.46565903028E+02  0.00000000000E+00 0. -1.
        -12    1    3    3    0    0  0.20047428053E+02  0.28445003819E+02 -0.12502283081E+02  0.36977353827E+02  0.00000000000E+00 0.  1.
        -11    1    4    4    0    0 -0.47012148543E+01  0.21371543975E+02  0.33931360840E+02  0.40375506950E+02  0.00000000000E+00 0.  1.
         11    1    4    4    0    0  0.49986856310E+02 -0.91828308745E+02  0.23146242528E+03  0.25398027169E+03  0.00000000000E+00 0. -1.
         21    1    1    2  502  501 -0.26057858870E+02  0.67028577741E+02 -0.81919785955E+01  0.72380596545E+02  0.00000000000E+00 0.  1.
<scales pt_clust_5="13000.00000" pt_clust_6="13000.00000" pt_clust_7="13000.00000" pt_clust_8="13000.00000" pt_clust_9="71.91552"></scales>
<clustering>
<clus scale="   71.916">  2  9  1 -1</clus>
<clus scale="   80.261">  5  6 -1 -1</clus>
<clus scale="   95.898">  7  8 -1 -1</clus>
<clus scale="  104.877">  2  5  1 -1</clus>
<clus scale="  117.277">  1  5  2 -1</clus>
</clustering>
</event>
<event>
 9    1  0.3846604E-005  0.1590349E+03  0.7546771E-02  0.1191516E+00
         -2   -1    0    0    0  501 -0.00000000000E+00  0.00000000000E+00  0.18122914172E+03  0.18122914172E+03  0.00000000000E+00 0.  1.
          1   -1    0    0  502    0  0.00000000000E+00 -0.00000000000E+00 -0.27908420283E+03  0.27908420283E+03  0.00000000000E+00 0. -1.
        -24    2    1    2    0    0  0.14270567625E+03 -0.80406721572E+02  0.60034216574E+02  0.19192631422E+03  0.80009074622E+02 0.  0.
         23    2    1    2    0    0 -0.10099826240E+03  0.69748073015E+02 -0.16492236013E+03  0.22476846309E+03  0.90862723022E+02 0.  0.
         13    1    3    3    0    0  0.52256881995E+02  0.40962704007E+01 -0.39877865437E+01  0.52568655951E+02  0.00000000000E+00 0. -1.
        -14    1    3    3    0    0  0.90448794259E+02 -0.84502991973E+02  0.64022003118E+02  0.13935765827E+03  0.00000000000E+00 0.  1.
        -13    1    4    4    0    0  0.61104452145E+01  0.41469303556E+02 -0.43752945381E+02  0.60591756103E+02  0.00000000000E+00 0.  1.
         13    1    4    4    0    0 -0.10710870761E+03  0.28278769459E+02 -0.12116941475E+03  0.16417670699E+03  0.00000000000E+00 0. -1.
         21    1    1    2  502  501 -0.41707413857E+02  0.10658648557E+02  0.70330824445E+01  0.43618567243E+02  0.00000000000E+00 0. -1.
<scales pt_clust_5="13000.00000" pt_clust_6="13000.00000" pt_clust_7="13000.00000" pt_clust_8="13000.00000" pt_clust_9="43.04782"></scales>
<clustering>
<clus scale="   43.048">  1  9  2 -1</clus>
<clus scale="   80.009">  5  6 -1 -1</clus>
<clus scale="   90.863">  7  8 -1 -1</clus>
<clus scale="  153.093">  1  5  2 -1</clus>
<clus scale="  159.035">  2  5  1 -1</clus>
</clustering>
</event>
<event>
 9    1  0.3846604E-005  0.9213848E+02  0.7546771E-02  0.1303688E+00
         -2   -1    0    0    0  501 -0.00000000000E+00  0.00000000000E+00  0.42853916613E+02  0.42853916613E+02  0.00000000000E+00 0.  1.
          1   -1    0    0  502    0  0.00000000000E+00 -0.00000000000E+00 -0.38540936607E+03  0.38540936607E+03  0.00000000000E+00 0. -1.
         23    2    1    2    0    0  0.44628910865E+01  0.95367478244E+01 -0.62800337804E+02  0.11116674708E+03  0.91122424638E+02 0.  0.
        -24    2    1    2    0    0  0.17451287591E+02  0.77008092423E+01 -0.27667035962E+03  0.28904514890E+03  0.81466313968E+02 0.  0.
         13    1    4    4    0    0  0.44392673478E+02 -0.14992062622E+02 -0.18495753407E+03  0.19080031658E+03  0.00000000000E+00 0. -1.
        -14    1    4    4    0    0 -0.26941385887E+02  0.22692871864E+02 -0.91712825548E+02  0.98244832317E+02  0.00000000000E+00 0.  1.
        -11    1    3    3    0    0  0.28474453013E+02 -0.29438838548E+02 -0.11774661853E+02  0.42615517728E+02  0.00000000000E+00 0. -1.
         11    1    3    3    0    0 -0.24011561926E+02  0.38975586373E+02 -0.51025675951E+02  0.68551229351E+02  0.00000000000E+00 0.  1.
         21    1    1    2  502  501 -0.21914178677E+02 -0.17237557067E+02 -0.30847520338E+01  0.28051386701E+02  0.00000000000E+00 0.  1.
<scales pt_clust_5="13000.00000" pt_clust_6="13000.00000" pt_clust_7="13000.00000" pt_clust_8="13000.00000" pt_clust_9="27.88126"></scales>
<clustering>
<clus scale="   27.881">  1  9  2 -1</clus>
<clus scale="   81.466">  5  6 -1 -1</clus>
<clus scale="   82.601">  2  5  1 -1</clus>
<clus scale="   91.122">  7  8 -1 -1</clus>
<clus scale="   82.601">  2  5  1 -1</clus>
</clustering>
</event>
<event>
 9    1  0.3846604E-005  0.9934424E+02  0.7546771E-02  0.1288063E+00
         -2   -1    0    0    0  501 -0.00000000000E+00  0.00000000000E+00  0.18348937085E+03  0.18348937085E+03  0.00000000000E+00 0.  1.
          1   -1    0    0  502    0  0.00000000000E+00 -0.00000000000E+00 -0.70751229912E+02  0.70751229912E+02  0.00000000000E+00 0. -1.
        -24    2    1    2    0    0 -0.77879909172E+01 -0.28380556480E+02  0.69470409725E+02  0.10924538305E+03  0.79008272358E+02 0.  0.
         23    2    1    2    0    0 -0.19921518602E+02  0.44783456451E+02  0.20953389634E+02  0.10581867007E+03  0.91411823763E+02 0.  0.
         13    1    3    3    0    0 -0.19815721294E+02 -0.47186879199E+02  0.19956993241E+02  0.54932194187E+02  0.00000000000E+00 0. -1.
        -14    1    3    3    0    0  0.12027730377E+02  0.18806322719E+02  0.49513416484E+02  0.54313188860E+02  0.00000000000E+00 0.  1.
        -13    1    4    4    0    0  0.13756398565E+02  0.62045087400E+02  0.23813243752E+02  0.67866795636E+02  0.00000000000E+00 0. -1.
         13    1    4    4    0    0 -0.33677917167E+02 -0.17261630948E+02 -0.28598541178E+01  0.37951874436E+02  0.00000000000E+00 0.  1.
         21    1    1    2  502  501  0.27709509519E+02 -0.16402899971E+02  0.22314341582E+02  0.39176547646E+02  0.00000000000E+00 0.  1.
<scales pt_clust_5="13000.00000" pt_clust_6="13000.00000" pt_clust_7="13000.00000" pt_clust_8="13000.00000" pt_clust_9="32.20050"></scales>
<clustering>
<clus scale="   32.200">  1  9  2 -1</clus>
<clus scale="   79.008">  5  6 -1 -1</clus>
<clus scale="   88.065">  1  5  2 -1</clus>
<clus scale="   91.412">  7  8 -1 -1</clus>
<clus scale="   99.344">  2  5  1 -1</clus>
</clustering>
</event>
<event>
 9    1  0.3846604E-005  0.1456057E+03  0.7546771E-02  0.1228407E+00
         -2   -1    0    0    0  501 -0.00000000000E+00  0.00000000000E+00  0.54647917786E+03  0.54647917786E+03  0.00000000000E+00 0.  1.
          1   -1    0    0  502    0  0.00000000000E+00 -0.00000000000E+00 -0.94686390972E+02  0.94686390972E+02  0.00000000000E+00 0. -1.
         23    2    1    2    0    0  0.36492739050E+01  0.10553757376E+02  0.23115978543E+03  0.24832253307E+03  0.90025191127E+02 0.  0.
        -24    2    1    2    0    0 -0.33616924835E+02  0.11273370924E+03  0.64692681424E+01  0.14391741595E+03  0.82652189021E+02 0.  0.
         11    1    4    4    0    0 -0.56629998333E+02  0.10534137213E+03  0.50717765100E+01  0.11970582405E+03  0.00000000000E+00 0. -1.
        -12    1    4    4    0    0  0.23013073498E+02  0.73923371088E+01  0.13974916324E+01  0.24211591906E+02  0.00000000000E+00 0.  1.
        -11    1    3    3    0    0 -0.27359409985E+02  0.39663012297E+02  0.12302453539E+03  0.13212391217E+03  0.00000000000E+00 0.  1.
         11    1    3    3    0    0  0.31008683890E+02 -0.29109254922E+02  0.10813525004E+03  0.11619862090E+03  0.00000000000E+00 0. -1.
         21    1    1    2  502  501  0.29967650930E+02 -0.12328746662E+03  0.21416373332E+03  0.24892561981E+03  0.00000000000E+00 0.  1.
<scales pt_clust_5="13000.00000" pt_clust_6="13000.00000" pt_clust_7="13000.00000" pt_clust_8="13000.00000" pt_clust_9="119.87347"></scales>
<clustering>
<clus scale="   82.652">  5  6 -1 -1</clus>
<clus scale="   90.025">  7  8 -1 -1</clus>
<clus scale="   90.715">  1  7  2 -1</clus>
<clus scale="  119.873">  1  9  2 -1</clus>
<clus scale="  145.606">  2  5  1 -1</clus>
</clustering>
</event>
<event>
 9    1  0.3846604E-005  0.9413910E+02  0.7546771E-02  0.1297989E+00
         -2   -1    0    0    0  501 -0.00000000000E+00  0.00000000000E+00  0.78051245220E+02  0.78051245220E+02  0.00000000000E+00 0.  1.
          1   -1    0    0  502    0  0.00000000000E+00 -0.00000000000E+00 -0.47615899740E+03  0.47615899740E+03  0.00000000000E+00 0. -1.
        -24    2    1    2    0    0 -0.17971921827E+02  0.25083481044E+02 -0.65400073852E+02  0.10859368251E+03  0.81013870570E+02 0.  0.
         23    2    1    2    0    0  0.30973075333E+02  0.15582352823E+02 -0.37404802587E+03  0.38618791069E+03  0.89593725210E+02 0.  0.
         13    1    3    3    0    0 -0.61463004608E+01  0.47979723398E+02 -0.12825671900E+02  0.50043268542E+02  0.00000000000E+00 0. -1.
        -14    1    3    3    0    0 -0.11825621366E+02 -0.22896242354E+02 -0.52574401952E+02  0.58550413963E+02  0.00000000000E+00 0.  1.
        -11    1    4    4    0    0  0.29244424244E+02 -0.34893840734E+02 -0.17216043695E+03  0.17807872563E+03  0.00000000000E+00 0.  1.
         11    1    4    4    0    0  0.17286510890E+01  0.50476193556E+02 -0.20188758891E+03  0.20810918506E+03  0.00000000000E+00 0. -1.
         21    1    1    2  502  501 -0.13001153506E+02 -0.40665833866E+02  0.41340347543E+02  0.59428649417E+02  0.00000000000E+00 0.  1.
<scales pt_clust_5="13000.00000" pt_clust_6="13000.00000" pt_clust_7="13000.00000" pt_clust_8="13000.00000" pt_clust_9="42.69356"></scales>
<clustering>
<clus scale="   42.694">  1  9  2 -1</clus>
<clus scale="   81.014">  5  6 -1 -1</clus>
<clus scale="   86.014">  1  5  2 -1</clus>
<clus scale="   89.594">  7  8 -1 -1</clus>
<clus scale="   94.139">  2  5  1 -1</clus>
</clustering>
</event>
<event>
 9    1  0.3846604E-005  0.1599640E+03  0.7546771E-02  0.1209043E+00
          1   -1    0    0  502    0  0.00000000000E+00  0.00000000000E+00  0.27153230513E+03  0.27153230513E+03  0.00000000000E+00 0. -1.
         -2   -1    0    0    0  501 -0.00000000000E+00 -0.00000000000E+00 -0.44027720846E+03  0.44027720846E+03  0.00000000000E+00 0.  1.
         23    2    1    2    0    0  0.48354076733E+02 -0.11389103844E+02 -0.66338036777E+02  0.12237017254E+03  0.90032747274E+02 0.  0.
        -24    2    1    2    0    0 -0.47061792459E+02 -0.12885012878E+03  0.19986205751E+03  0.25621987160E+03  0.82985616677E+02 0.  0.
         13    1    4    4    0    0 -0.56360694432E+02 -0.12634597969E+03  0.14459030917E+03  0.20011544660E+03  0.00000000000E+00 0. -1.
        -14    1    4    4    0    0  0.92989019729E+01 -0.25041490880E+01  0.55271748337E+02  0.56104425001E+02  0.00000000000E+00 0.  1.
        -13    1    3    3    0    0  0.49946197535E+02  0.22572898341E+02 -0.69169790944E+02  0.88253149331E+02  0.00000000000E+00 0.  1.
         13    1    3    3    0    0 -0.15921208023E+01 -0.33962002186E+02  0.28317541667E+01  0.34117023211E+02  0.00000000000E+00 0. -1.
         21    1    1    2  502  501 -0.12922842737E+01  0.14023923262E+03 -0.30226892407E+03  0.33321946945E+03  0.00000000000E+00 0.  1.
<scales pt_clust_5="13000.00000" pt_clust_6="13000.00000" pt_clust_7="13000.00000" pt_clust_8="13000.00000" pt_clust_9="136.75482"></scales>
<clustering>
<clus scale="   82.986">  5  6 -1 -1</clus>
<clus scale="   90.033">  7  8 -1 -1</clus>
<clus scale="  102.829">  2  7  1 -1</clus>
<clus scale="  136.755">  2  9  1 -1</clus>
<clus scale="  159.964">  1  5  2 -1</clus>
</clustering>
</event>
<event>
 9    1  0.3846604E-005  0.1636669E+03  0.7546771E-02  0.1210284E+00
          3   -1    0    0  502    0  0.00000000000E+00  0.00000000000E+00  0.10444763808E+03  0.10444763808E+03  0.00000000000E+00 0. -1.
         -4   -1    0    0    0  501 -0.00000000000E+00 -0.00000000000E+00 -0.48054477839E+03  0.48054477839E+03  0.00000000000E+00 0.  1.
         23    2    1    2    0    0 -0.67159042025E+02 -0.85382252829E+02 -0.12991928993E+03  0.19246275364E+03  0.91446288162E+02 0.  0.
        -24    2    1    2    0    0 -0.37317164227E+02 -0.28534798213E+02  0.92750499226E+01  0.93952107635E+02  0.80834191547E+02 0.  0.
         11    1    4    4    0    0  0.15786965995E+02 -0.18315437943E+02  0.27748130520E+02  0.36805465759E+02  0.00000000000E+00 0. -1.
        -12    1    4    4    0    0 -0.53104130222E+02 -0.10219360270E+02 -0.18473080597E+02  0.57146641876E+02  0.00000000000E+00 0.  1.
        -13    1    3    3    0    0  0.18322531921E+02 -0.20087261996E+02 -0.55073690008E+02  0.61419252695E+02  0.00000000000E+00 0.  1.
         13    1    3    3    0    0 -0.85481573946E+02 -0.65294990833E+02 -0.74845599924E+02  0.13104350095E+03  0.00000000000E+00 0. -1.
         21    1    1    2  502  501  0.10447620625E+03  0.11391705104E+03 -0.25545290030E+03  0.29857755519E+03  0.00000000000E+00 0.  1.
<scales pt_clust_5="13000.00000" pt_clust_6="13000.00000" pt_clust_7="13000.00000" pt_clust_8="13000.00000" pt_clust_9="135.73660"></scales>
<clustering>
<clus scale="   80.834">  5  6 -1 -1</clus>
<clus scale="   91.446">  7  8 -1 -1</clus>
<clus scale="   93.493">  1  5  2 -1</clus>
<clus scale="  135.737">  2  9  1 -1</clus>
<clus scale="   93.493">  1  5  2 -1</clus>
</clustering>
</event>
<event>
 9    1  0.3846604E-005  0.9199404E+02  0.7546771E-02  0.1302603E+00
          1   -1    0    0  502    0  0.00000000000E+00  0.00000000000E+00  0.46800301381E+03  0.46800301381E+03  0.00000000000E+00 0. -1.
         -2   -1    0    0    0  501 -0.00000000000E+00 -0.00000000000E+00 -0.35548437074E+02  0.35548437074E+02  0.00000000000E+00 0.  1.
        -24    2    1    2    0    0  0.25103675434E+01  0.13784631702E+02  0.72823146334E+02  0.10936520392E+03  0.80381709177E+02 0.  0.
         23    2    1    2    0    0 -0.33202172646E+02 -0.59451185356E+01  0.34781838633E+03  0.36037806929E+03  0.88073800054E+02 0.  0.
         13    1    3    3    0    0 -0.37292948576E+01 -0.28137436316E+02  0.41776084355E+01  0.28689290246E+02  0.00000000000E+00 0. -1.
        -14    1    3    3    0    0  0.62396624011E+01  0.41922068018E+02  0.68645537898E+02  0.80675913674E+02  0.00000000000E+00 0.  1.
        -11    1    4    4    0    0 -0.61973717655E+02 -0.55686830717E+01  0.27769296489E+03  0.28457887247E+03  0.00000000000E+00 0. -1.
         11    1    4    4    0    0  0.28771545009E+02 -0.37643546390E+00  0.70125421440E+02  0.75799196816E+02  0.00000000000E+00 0.  1.
         21    1    1    2  502  501  0.30691805102E+02 -0.78395131661E+01  0.11813044074E+02  0.33808177671E+02  0.00000000000E+00 0.  1.
<scales pt_clust_5="13000.00000" pt_clust_6="13000.00000" pt_clust_7="13000.00000" pt_clust_8="13000.00000" pt_clust_9="31.67720"></scales>
<clustering>
<clus scale="   31.677">  2  9  1 -1</clus>
<clus scale="   80.382">  5  6 -1 -1</clus>
<clus scale="   84.659">  2  5  1 -1</clus>
<clus scale="   88.074">  7  8 -1 -1</clus>
<clus scale="   91.994">  1  5  2 -1</clus>
</clustering>
</event>
<event>
 9    1  0.3846604E-005  0.9241384E+02  0.7546771E-02  0.1300742E+00
         -2   -1    0    0    0  501 -0.00000000000E+00  0.00000000000E+00  0.13093727446E+03  0.13093727446E+03  0.00000000000E+00 0.  1.
          1   -1    0    0  502    0  0.00000000000E+00 -0.00000000000E+00 -0.85837964719E+02  0.85837964719E+02  0.00000000000E+00 0. -1.
        -24    2    1    2    0    0  0.13391198739E+02  0.13760301507E+02  0.45331989309E+02  0.97840556995E+02  0.84552440752E+02 0.  0.
         23    2    1    2    0    0  0.57640818590E+01 -0.20079355111E+02 -0.14577811144E+02  0.94183156715E+02  0.90672759358E+02 0.  0.
         13    1    3    3    0    0 -0.33046093541E+02 -0.18346681162E+01  0.32412793944E+01  0.33255318334E+02  0.00000000000E+00 0. -1.
        -14    1    3    3    0    0  0.46437292279E+02  0.15594969623E+02  0.42090709915E+02  0.64585238661E+02  0.00000000000E+00 0.  1.
        -13    1    4    4    0    0  0.37806893925E+02  0.14721883666E+02  0.86471913521E+01  0.41483358172E+02  0.00000000000E+00 0.  1.
         13    1    4    4    0    0 -0.32042812066E+02 -0.34801238777E+02 -0.23225002496E+02  0.52699798543E+02  0.00000000000E+00 0. -1.
         21    1    1    2  502  501 -0.19155280598E+02  0.63190536037E+01  0.14345131579E+02  0.24751525473E+02  0.00000000000E+00 0. -1.
<scales pt_clust_5="13000.00000" pt_clust_6="13000.00000" pt_clust_7="13000.00000" pt_clust_8="13000.00000" pt_clust_9="20.17065"></scales>
<clustering>
<clus scale="   20.171">  1  9  2 -1</clus>
<clus scale="   84.552">  5  6 -1 -1</clus>
<clus scale="   86.417">  1  5  2 -1</clus>
<clus scale="   90.673">  7  8 -1 -1</clus>
<clus scale="   92.414">  2  5  1 -1</clus>
</clustering>
</event>
<event>
 9    1  0.3846604E-005  0.1104364E+03  0.7546771E-02  0.1265749E+00
          1   -1    0    0  502    0  0.00000000000E+00  0.00000000000E+00  0.81559208878E+03  0.81559208878E+03  0.00000000000E+00 0. -1.
         -2   -1    0    0    0  501 -0.00000000000E+00 -0.00000000000E+00 -0.26977121191E+02  0.26977121191E+02  0.00000000000E+00 0.  1.
        -24    2    1    2    0    0 -0.64510112266E+02 -0.30201081776E+01  0.16592096656E+03  0.19476141709E+03  0.78940273656E+02 0.  0.
         23    2    1    2    0    0  0.38236553677E+02  0.49953186517E+02  0.29730263665E+03  0.31800094981E+03  0.93693070404E+02 0.  0.
         13    1    3    3    0    0 -0.12836973705E+02  0.28254174973E+02  0.10286539516E+03  0.10744475705E+03  0.00000000000E+00 0. -1.
        -14    1    3    3    0    0 -0.51673138561E+02 -0.31274283150E+02  0.63055571407E+02  0.87316660041E+02  0.00000000000E+00 0.  1.
        -11    1    4    4    0    0  0.59843018464E+02  0.38526794714E+02  0.27768251289E+03  0.28665847055E+03  0.00000000000E+00 0.  1.
         11    1    4    4    0    0 -0.21606464787E+02  0.11426391803E+02  0.19620123759E+02  0.31342479266E+02  0.00000000000E+00 0. -1.
         21    1    1    2  502  501  0.26273558589E+02 -0.46933078340E+02  0.32539136438E+03  0.32980684307E+03  0.00000000000E+00 0.  1.
<scales pt_clust_5="13000.00000" pt_clust_6="13000.00000" pt_clust_7="13000.00000" pt_clust_8="13000.00000" pt_clust_9="53.78674"></scales>
<clustering>
<clus scale="   53.787">  1  9  2 -1</clus>
<clus scale="   78.940">  5  6 -1 -1</clus>
<clus scale="   93.693">  7  8 -1 -1</clus>
<clus scale="   98.231">  2  5  1 -1</clus>
<clus scale="   53.787">  1  5  2 -1</clus>
</clustering>
</event>
<event>
 9    1  0.3846604E-005  0.9421381E+02  0.7546771E-02  0.1296770E+00
          1   -1    0    0  502    0  0.00000000000E+00  0.00000000000E+00  0.36132029342E+03  0.36132029342E+03  0.00000000000E+00 0. -1.
         -2   -1    0    0    0  501 -0.00000000000E+00 -0.00000000000E+00 -0.11806774929E+03  0.11806774929E+03  0.00000000000E+00 0.  1.
         23    2    1    2    0    0  0.18726965644E+02  0.19774936705E+02  0.36376495117E+02  0.10088492767E+03  0.90070926885E+02 0.  0.
        -24    2    1    2    0    0 -0.27053540899E+02  0.16896477329E+02  0.28130742088E+03  0.29511154723E+03  0.83304113007E+02 0.  0.
         13    1    4    4    0    0 -0.30009052556E+02  0.48311216850E+02  0.16161388558E+03  0.17132882105E+03  0.00000000000E+00 0. -1.
        -14    1    4    4    0    0  0.29555116572E+01 -0.31414739521E+02  0.11969353530E+03  0.12378272618E+03  0.00000000000E+00 0.  1.
        -13    1    3    3    0    0  0.96768829823E+01 -0.36113264669E+02  0.12257587739E+02  0.39345373381E+02  0.00000000000E+00 0.  1.
         13    1    3    3    0    0  0.90500826614E+01  0.55888201374E+02  0.24118907379E+02  0.61539554289E+02  0.00000000000E+00 0. -1.
         21    1    1    2  502  501  0.83265752556E+01 -0.36671414034E+02 -0.74431371870E+02  0.83391567807E+02  0.00000000000E+00 0.  1.
<scales pt_clust_5="13000.00000" pt_clust_6="13000.00000" pt_clust_7="13000.00000" pt_clust_8="13000.00000" pt_clust_9="37.60485"></scales>
<clustering>
<clus scale="   37.605">  2  9  1 -1</clus>
<clus scale="   83.304">  5  6 -1 -1</clus>
<clus scale="   87.767">  1  5  2 -1</clus>
<clus scale="   90.071">  7  8 -1 -1</clus>
<clus scale="   87.767">  1  5  2 -1</clus>
</clustering>
</event>
<event>
 9    1  0.3846604E-005  0.1020869E+03  0.7546771E-02  0.1282067E+00
          1   -1    0    0  502    0  0.00000000000E+00  0.00000000000E+00  0.14057211978E+03  0.14057211978E+03  0.00000000000E+00 0. -1.
         -2   -1    0    0    0  501 -0.00000000000E+00 -0.00000000000E+00 -0.11223787958E+03  0.11223787958E+03  0.00000000000E+00 0.  1.
         23    2    1    2    0    0  0.61846189172E+01 -0.12997254711E+02 -0.37873998304E+02  0.10353765728E+03  0.95280788133E+02 0.  0.
        -24    2    1    2    0    0 -0.22194327463E+02  0.37909315723E+02  0.72797147977E+02  0.11893531388E+03  0.83165375873E+02 0.  0.
         13    1    4    4    0    0  0.15400788202E+02 -0.17866371409E+02  0.33699889891E+02  0.41134828105E+02  0.00000000000E+00 0. -1.
        -14    1    4    4    0    0 -0.37595115665E+02  0.55775687132E+02  0.39097258086E+02  0.77800485774E+02  0.00000000000E+00 0.  1.
        -13    1    3    3    0    0 -0.15420465753E+02  0.24950192196E+02 -0.50220994147E+02  0.58158843762E+02  0.00000000000E+00 0.  1.
         13    1    3    3    0    0  0.21605084670E+02 -0.37947446906E+02  0.12346995843E+02  0.45378813522E+02  0.00000000000E+00 0. -1.
         21    1    1    2  502  501  0.16009708545E+02 -0.24912061012E+02 -0.65889094821E+01  0.30337028196E+02  0.00000000000E+00 0.  1.
<scales pt_clust_5="13000.00000" pt_clust_6="13000.00000" pt_clust_7="13000.00000" pt_clust_8="13000.00000" pt_clust_9="29.61286"></scales>
<clustering>
<clus scale="   29.613">  2  9  1 -1</clus>
<clus scale="   83.165">  5  6 -1 -1</clus>
<clus scale="   90.883">  1  5  2 -1</clus>
<clus scale="   95.281">  7  8 -1 -1</clus>
<clus scale="   90.883">  1  5  2 -1</clus>
</clustering>
</event>
<event>
 9    1  0.3846604E-005  0.1120066E+03  0.7546771E-02  0.1259740E+00
          1   -1    0    0  502    0  0.00000000000E+00  0.00000000000E+00  0.99844420382E+02  0.99844420382E+02  0.00000000000E+00 0. -1.
         -2   -1    0    0    0  501 -0.00000000000E+00 -0.00000000000E+00 -0.30979919707E+03  0.30979919707E+03  0.00000000000E+00 0.  1.
        -24    2    1    2    0    0 -0.21682227098E+02 -0.50867852195E+02 -0.21271414750E+03  0.23568234189E+03  0.85095242956E+02 0.  0.
         23    2    1    2    0    0 -0.21103613871E+02  0.63395196105E+02  0.34459319639E+02  0.11925799149E+03  0.92578131413E+02 0.  0.
         13    1    3    3    0    0  0.30210435898E+02 -0.33137178786E+02 -0.11807803258E+03  0.12630583848E+03  0.00000000000E+00 0. -1.
        -14    1    3    3    0    0 -0.51892662996E+02 -0.17730673409E+02 -0.94636114923E+02  0.10937650342E+03  0.00000000000E+00 0.  1.
        -11    1    4    4    0    0 -0.27690271763E+02  0.40054492691E+02  0.64393777335E+02  0.80732100769E+02  0.00000000000E+00 0. -1.
         11    1    4    4    0    0  0.65866578925E+01  0.23340703414E+02 -0.29934457696E+02  0.38525890718E+02  0.00000000000E+00 0.  1.
         21    1    1    2  502  501  0.42785840969E+02 -0.12527343910E+02 -0.31699948829E+02  0.54703284075E+02  0.00000000000E+00 0. -1.
<scales pt_clust_5="13000.00000" pt_clust_6="13000.00000" pt_clust_7="13000.00000" pt_clust_8="13000.00000" pt_clust_9="44.58209"></scales>
<clustering>
<clus scale="   44.582">  2  9  1 -1</clus>
<clus scale="   85.095">  5  6 -1 -1</clus>
<clus scale="   92.578">  7  8 -1 -1</clus>
<clus scale="  105.905">  2  5  1 -1</clus>
<clus scale="  112.007">  1  5  2 -1</clus>
</clustering>
</event>
<event>
 9    1  0.3846604E-005  0.1025104E+03  0.7546771E-02  0.1278626E+00
         -2   -1    0    0    0  501 -0.00000000000E+00  0.00000000000E+00  0.34292113527E+03  0.34292113527E+03  0.00000000000E+00 0.  1.
          1   -1    0    0  502    0  0.00000000000E+00 -0.00000000000E+00 -0.75713700553E+02  0.75713700553E+02  0.00000000000E+00 0. -1.
        -24    2    1    2    0    0 -0.13779152750E+02 -0.31003697556E+02  0.25761468501E+03  0.27185482625E+03  0.79928882803E+02 0.  0.
         23    2    1    2    0    0  0.26978974039E+02  0.48910560251E+02 -0.23691598866E+02  0.10674578830E+03  0.87825187268E+02 0.  0.
         13    1    3    3    0    0  0.13571124351E+02  0.22765852525E+02  0.79445446763E+02  0.83749856529E+02  0.00000000000E+00 0. -1.
        -14    1    3    3    0    0 -0.27350277101E+02 -0.53769550081E+02  0.17816923825E+03  0.18810496972E+03  0.00000000000E+00 0.  1.
        -11    1    4    4    0    0  0.46572008166E+01 -0.23139703647E+02  0.80101468342E+01  0.24925847160E+02  0.00000000000E+00 0.  1.
         11    1    4    4    0    0  0.22321773222E+02  0.72050263898E+02 -0.31701745700E+02  0.81819941139E+02  0.00000000000E+00 0. -1.
         21    1    1    2  502  501 -0.13199821289E+02 -0.17906862695E+02  0.33284348569E+02  0.40034221277E+02  0.00000000000E+00 0. -1.
<scales pt_clust_5="13000.00000" pt_clust_6="13000.00000" pt_clust_7="13000.00000" pt_clust_8="13000.00000" pt_clust_9="22.24615"></scales>
<clustering>
<clus scale="   22.246">  1  9  2 -1</clus>
<clus scale="   79.929">  5  6 -1 -1</clus>
<clus scale="   87.825">  7  8 -1 -1</clus>
<clus scale="   95.832">  1  5  2 -1</clus>
<clus scale="  102.510">  2  5  1 -1</clus>
</clustering>
</event>
<event>
 9    1  0.3846604E-005  0.1075251E+03  0.7546771E-02  0.1269915E+00
         -2   -1    0    0    0  501 -0.00000000000E+00  0.00000000000E+00  0.15583865668E+03  0.15583865668E+03  0.00000000000E+00 0.  1.
          1   -1    0    0  502    0  0.00000000000E+00 -0.00000000000E+00 -0.24629086913E+03  0.24629086913E+03  0.00000000000E+00 0. -1.
        -24    2    1    2    0    0 -0.37262055233E+02  0.22747979529E+02 -0.45886081015E+02  0.10233346173E+03  0.80378315650E+02 0.  0.
         23    2    1    2    0    0  0.25179059464E+02 -0.64993200279E+02 -0.14796335446E+03  0.18744997739E+03  0.91576408777E+02 0.  0.
         11    1    3    3    0    0 -0.22465841083E+01  0.47761156445E+02 -0.18179355181E+02  0.51153339675E+02  0.00000000000E+00 0. -1.
        -12    1    3    3    0    0 -0.35015471125E+02 -0.25013176916E+02 -0.27706725835E+02  0.51180122059E+02  0.00000000000E+00 0.  1.
        -11    1    4    4    0    0  0.38861613417E+02 -0.81545119761E+02 -0.13477966894E+03  0.16225101144E+03  0.00000000000E+00 0. -1.
         11    1    4    4    0    0 -0.13682553953E+02  0.16551919482E+02 -0.13183685515E+02  0.25198965950E+02  0.00000000000E+00 0.  1.
         21    1    1    2  502  501  0.12082995769E+02  0.42245220750E+02  0.10339722303E+03  0.11234608668E+03  0.00000000000E+00 0.  1.
<scales pt_clust_5="13000.00000" pt_clust_6="13000.00000" pt_clust_7="13000.00000" pt_clust_8="13000.00000" pt_clust_9="43.93925"></scales>
<clustering>
<clus scale="   43.939">  1  9  2 -1</clus>
<clus scale="   80.378">  5  6 -1 -1</clus>
<clus scale="   91.576">  7  8 -1 -1</clus>
<clus scale="   98.164">  1  5  2 -1</clus>
<clus scale="  107.525">  2  5  1 -1</clus>
</clustering>
</event>
<event>
 9    1  0.3846604E-005  0.4175643E+03  0.7546771E-02  0.1038029E+00
         -2   -1    0    0    0  501 -0.00000000000E+00  0.00000000000E+00  0.23167697770E+03  0.23167697770E+03  0.00000000000E+00 0.  1.
          1   -1    0    0  502    0  0.00000000000E+00 -0.00000000000E+00 -0.86531815759E+03  0.86531815759E+03  0.00000000000E+00 0. -1.
        -24    2    1    2    0    0 -0.32312250463E+03 -0.24046938749E+03 -0.17704271637E+03  0.44724513259E+03  0.80314418930E+02 0.  0.
         23    2    1    2    0    0  0.35202986105E+03  0.21316296531E+03 -0.42937031861E+03  0.60155614601E+03  0.90263245320E+02 0.  0.
         13    1    3    3    0    0 -0.15602681947E+02 -0.41746569683E+02 -0.19803083484E+02  0.48768656735E+02  0.00000000000E+00 0. -1.
        -14    1    3    3    0    0 -0.30751982269E+03 -0.19872281781E+03 -0.15723963289E+03  0.39847647586E+03  0.00000000000E+00 0.  1.
        -11    1    4    4    0    0  0.16554999537E+03  0.11207034108E+03 -0.14583321772E+03  0.24745482357E+03  0.00000000000E+00 0.  1.
         11    1    4    4    0    0  0.18647986568E+03  0.10109262423E+03 -0.28353710089E+03  0.35410132245E+03  0.00000000000E+00 0. -1.
         21    1    1    2  502  501 -0.28907356414E+02  0.27306422178E+02 -0.27228144901E+02  0.48193856681E+02  0.00000000000E+00 0.  1.
<scales pt_clust_5="13000.00000" pt_clust_6="13000.00000" pt_clust_7="13000.00000" pt_clust_8="13000.00000" pt_clust_9="39.76526"></scales>
<clustering>
<clus scale="   39.765">  1  9  2 -1</clus>
<clus scale="   80.314">  5  6 -1 -1</clus>
<clus scale="   90.263">  7  8 -1 -1</clus>
<clus scale="  415.527">  1  5  2 -1</clus>
<clus scale="  417.564">  2  5  1 -1</clus>
</clustering>
</event>
<event>
 9    1  0.3846604E-005  0.3164221E+03  0.7546771E-02  0.1077722E+00
         -2   -1    0    0    0  501 -0.00000000000E+00  0.00000000000E+00  0.14445048822E+03  0.14445048822E+03  0.00000000000E+00 0.  1.
          1   -1    0    0  502    0  0.00000000000E+00 -0.00000000000E+00 -0.82599365149E+03  0.82599365149E+03  0.00000000000E+00 0. -1.
        -24    2    1    2    0    0  0.11418641286E+03  0.30520130053E+03 -0.24811616517E+03  0.41734919125E+03  0.80201903318E+02 0.  0.
         23    2    1    2    0    0 -0.10768969067E+03 -0.26761121781E+03 -0.40323784541E+03  0.50444716681E+03  0.93023388223E+02 0.  0.
         13    1    3    3    0    0  0.26557964028E+02  0.18388344442E+03 -0.13141437971E+03  0.22757017770E+03  0.00000000000E+00 0. -1.
        -14    1    3    3    0    0  0.87628448830E+02  0.12131785611E+03 -0.11670178545E+03  0.18977901355E+03  0.00000000000E+00 0.  1.
        -13    1    4    4    0    0 -0.12445839350E+03 -0.23191985660E+03 -0.34092586923E+03  0.43070542127E+03  0.00000000000E+00 0.  1.
         13    1    4    4    0    0  0.16768702839E+02 -0.35691361211E+02 -0.62311976181E+02  0.73741745542E+02  0.00000000000E+00 0. -1.
         21    1    1    2  502  501 -0.64967221919E+01 -0.37590082718E+02 -0.30189152699E+02  0.48647781642E+02  0.00000000000E+00 0. -1.
<scales pt_clust_5="13000.00000" pt_clust_6="13000.00000" pt_clust_7="13000.00000" pt_clust_8="13000.00000" pt_clust_9="38.14737"></scales>
<clustering>
<clus scale="   38.147">  1  9  2 -1</clus>
<clus scale="   80.202">  5  6 -1 -1</clus>
<clus scale="   93.023">  7  8 -1 -1</clus>
<clus scale="  312.893">  1  5  2 -1</clus>
<clus scale="  316.422">  2  5  1 -1</clus>
</clustering>
</event>
<event>
 9    1  0.3846604E-005  0.1090854E+03  0.7546771E-02  0.1267860E+00
         -4   -1    0    0    0  501 -0.00000000000E+00  0.00000000000E+00  0.29194898148E+03  0.29194898148E+03  0.00000000000E+00 0.  1.
          3   -1    0    0  502    0  0.00000000000E+00 -0.00000000000E+00 -0.14345223127E+03  0.14345223127E+03  0.00000000000E+00 0. -1.
         23    2    1    2    0    0  0.77176017504E+02  0.22452713538E+01  0.23016853445E+03  0.25994012945E+03  0.92898534594E+02 0.  0.
        -24    2    1    2    0    0 -0.55297801230E+02  0.65390094776E+01 -0.10456265483E+03  0.14260059191E+03  0.79378678255E+02 0.  0.
         11    1    4    4    0    0 -0.55066008861E+02 -0.20205057800E+02 -0.35552935746E+02  0.68589510370E+02  0.00000000000E+00 0. -1.
        -12    1    4    4    0    0 -0.23179236867E+00  0.26744067278E+02 -0.69009719087E+02  0.74011081540E+02  0.00000000000E+00 0.  1.
        -11    1    3    3    0    0  0.10381179336E+01 -0.25563297987E+02  0.14199011231E+02  0.29260413748E+02  0.00000000000E+00 0. -1.
         11    1    3    3    0    0  0.76137899571E+02  0.27808569340E+02  0.21596952322E+03  0.23067971571E+03  0.00000000000E+00 0.  1.
         21    1    1    2  502  501 -0.21878216274E+02 -0.87842808314E+01  0.22890870595E+02  0.32860491379E+02  0.00000000000E+00 0. -1.
<scales pt_clust_5="13000.00000" pt_clust_6="13000.00000" pt_clust_7="13000.00000" pt_clust_8="13000.00000" pt_clust_9="23.57583"></scales>
<clustering>
<clus scale="   23.576">  1  9  2 -1</clus>
<clus scale="   79.379">  5  6 -1 -1</clus>
<clus scale="   92.899">  7  8 -1 -1</clus>
<clus scale="   97.829">  2  5  1 -1</clus>
<clus scale="   97.829">  2  5  1 -1</clus>
</clustering>
</event>
<event>
 9    1  0.3846604E-005  0.1266127E+03  0.7546771E-02  0.1236839E+00
         -2   -1    0    0    0  501 -0.00000000000E+00  0.00000000000E+00  0.30571771385E+02  0.30571771385E+02  0.00000000000E+00 0.  1.
          1   -1    0    0  502    0  0.00000000000E+00 -0.00000000000E+00 -0.62869096330E+03  0.62869096330E+03  0.00000000000E+00 0. -1.
        -24    2    1    2    0    0 -0.22014714575E+02  0.70811925769E+02 -0.17017177606E+03  0.20095167739E+03  0.76968609119E+02 0.  0.
         23    2    1    2    0    0  0.32576863821E+02 -0.89767448933E+02 -0.40721520440E+03  0.42829946875E+03  0.92177900248E+02 0.  0.
         11    1    3    3    0    0 -0.33716273165E+02 -0.83258907017E+00 -0.44747723767E+02  0.56034266864E+02  0.00000000000E+00 0. -1.
        -12    1    3    3    0    0  0.11701558590E+02  0.71644514839E+02 -0.12542405229E+03  0.14491741052E+03  0.00000000000E+00 0.  1.
        -11    1    4    4    0    0 -0.26870920064E+02 -0.38467291153E+01 -0.10830885683E+03  0.11165864113E+03  0.00000000000E+00 0.  1.
         11    1    4    4    0    0  0.59447783885E+02 -0.85920719817E+02 -0.29890634757E+03  0.31664082763E+03  0.00000000000E+00 0. -1.
         21    1    1    2  502  501 -0.10562149246E+02  0.18955523163E+02 -0.20732211460E+02  0.30011588547E+02  0.00000000000E+00 0.  1.
<scales pt_clust_5="13000.00000" pt_clust_6="13000.00000" pt_clust_7="13000.00000" pt_clust_8="13000.00000" pt_clust_9="21.69956"></scales>
<clustering>
<clus scale="   21.700">  1  9  2 -1</clus>
<clus scale="   76.969">  5  6 -1 -1</clus>
<clus scale="   92.178">  7  8 -1 -1</clus>
<clus scale="  116.009">  1  5  2 -1</clus>
<clus scale="  126.613">  2  5  1 -1</clus>
</clustering>
</event>
<event>
 9    1  0.3846604E-005  0.1093435E+03  0.7546771E-02  0.1266779E+00
          1   -1    0    0  502    0  0.00000000000E+00  0.00000000000E+00  0.68117376370E+03  0.68117376370E+03  0.00000000000E+00 0. -1.
         -2   -1    0    0    0  501 -0.00000000000E+00 -0.00000000000E+00 -0.65872381132E+02  0.65872381132E+02  0.00000000000E+00 0.  1.
         23    2    1    2    0    0 -0.42716555995E+02  0.84234401800E+01  0.24025242210E+02  0.10476227230E+03  0.92207716239E+02 0.  0.
        -24    2    1    2    0    0  0.58368236706E+02  0.17055050399E+02  0.60215001331E+03  0.61046611484E+03  0.79915662015E+02 0.  0.
         11    1    4    4    0    0  0.11675506062E+01  0.39094679803E+02  0.23070492134E+03  0.23399683308E+03  0.00000000000E+00 0. -1.
        -12    1    4    4    0    0  0.57200686099E+02 -0.22039629404E+02  0.37144509197E+03  0.37646928176E+03  0.00000000000E+00 0.  1.
        -13    1    3    3    0    0 -0.43148569060E+02 -0.32321784581E+02  0.32765611085E+02  0.63087891392E+02  0.00000000000E+00 0.  1.
         13    1    3    3    0    0  0.43201306487E+00  0.40745224761E+02 -0.87403688751E+01  0.41674380910E+02  0.00000000000E+00 0. -1.
         21    1    1    2  502  501 -0.15651680710E+02 -0.25478490579E+02 -0.10873872957E+02  0.31817757689E+02  0.00000000000E+00 0.  1.
<scales pt_clust_5="13000.00000" pt_clust_6="13000.00000" pt_clust_7="13000.00000" pt_clust_8="13000.00000" pt_clust_9="29.90198"></scales>
<clustering>
<clus scale="   29.902">  2  9  1 -1</clus>
<clus scale="   79.916">  5  6 -1 -1</clus>
<clus scale="   92.208">  7  8 -1 -1</clus>
<clus scale="   99.198">  1  5  2 -1</clus>
<clus scale="   99.198">  1  5  2 -1</clus>
</clustering>
</event>
<event>
 9    1  0.3846604E-005  0.1231564E+03  0.7546771E-02  0.1240832E+00
          1   -1    0    0  502    0  0.00000000000E+00  0.00000000000E+00  0.14108014152E+03  0.14108014152E+03  0.00000000000E+00 0. -1.
         -2   -1    0    0    0  501 -0.00000000000E+00 -0.00000000000E+00 -0.17100355451E+03  0.17100355451E+03  0.00000000000E+00 0.  1.
        -24    2    1    2    0    0  0.41546727789E+02 -0.62057979587E+02 -0.68018626177E+02  0.12996382168E+03  0.81772477139E+02 0.  0.
         23    2    1    2    0    0 -0.61854109514E+02  0.59728544233E+02  0.70418586771E+02  0.14387570485E+03  0.91367451656E+02 0.  0.
         13    1    3    3    0    0  0.21413181151E+01 -0.47416353863E+02 -0.73578966647E+02  0.87560037630E+02  0.00000000000E+00 0. -1.
        -14    1    3    3    0    0  0.39405409674E+02 -0.14641625724E+02  0.55603404695E+01  0.42403784047E+02  0.00000000000E+00 0.  1.
        -11    1    4    4    0    0 -0.18579838828E+02  0.68828710955E+02  0.69620920890E+02  0.99647752048E+02  0.00000000000E+00 0. -1.
         11    1    4    4    0    0 -0.43274270686E+02 -0.91001667225E+01  0.79766588062E+00  0.44227952798E+02  0.00000000000E+00 0.  1.
         21    1    1    2  502  501  0.20307381725E+02  0.23294353542E+01 -0.32323373577E+02  0.38244169503E+02  0.00000000000E+00 0.  1.
<scales pt_clust_5="13000.00000" pt_clust_6="13000.00000" pt_clust_7="13000.00000" pt_clust_8="13000.00000" pt_clust_9="20.44055"></scales>
<clustering>
<clus scale="   20.441">  2  9  1 -1</clus>
<clus scale="   81.772">  5  6 -1 -1</clus>
<clus scale="   91.367">  7  8 -1 -1</clus>
<clus scale="  116.216">  2  5  1 -1</clus>
<clus scale="  123.156">  1  5  2 -1</clus>
</clustering>
</event>
<event>
 9    1  0.3846604E-005  0.1174809E+03  0.7546771E-02  0.1250161E+00
          1   -1    0    0  502    0  0.00000000000E+00  0.00000000000E+00  0.15436272045E+03  0.15436272045E+03  0.00000000000E+00 0. -1.
         -2   -1    0    0    0  501 -0.00000000000E+00 -0.00000000000E+00 -0.21278318670E+03  0.21278318670E+03  0.00000000000E+00 0.  1.
        -24    2    1    2    0    0  0.57013829340E+02 -0.27055725669E+02 -0.14266461760E+03  0.17775369411E+03  0.85209117048E+02 0.  0.
         23    2    1    2    0    0 -0.73253157874E+02  0.18819826115E+01  0.10021931256E+03  0.15544167686E+03  0.93534150432E+02 0.  0.
         11    1    3    3    0    0  0.42016383939E+01 -0.23645727217E+02  0.16188886377E+01  0.24070624861E+02  0.00000000000E+00 0. -1.
        -12    1    3    3    0    0  0.52812190946E+02 -0.34099984530E+01 -0.14428350624E+03  0.15368306925E+03  0.00000000000E+00 0.  1.
        -13    1    4    4    0    0  0.19210873807E+02  0.15860695668E+02  0.26431475177E+02  0.36321374141E+02  0.00000000000E+00 0.  1.
         13    1    4    4    0    0 -0.92464031680E+02 -0.13978713057E+02  0.73787837386E+02  0.11912030272E+03  0.00000000000E+00 0. -1.
         21    1    1    2  502  501  0.16239328534E+02  0.25173743058E+02 -0.15975161208E+02  0.33950536173E+02  0.00000000000E+00 0.  1.
<scales pt_clust_5="13000.00000" pt_clust_6="13000.00000" pt_clust_7="13000.00000" pt_clust_8="13000.00000" pt_clust_9="29.95719"></scales>
<clustering>
<clus scale="   29.957">  2  9  1 -1</clus>
<clus scale="   85.209">  5  6 -1 -1</clus>
<clus scale="   93.534">  7  8 -1 -1</clus>
<clus scale="  110.967">  2  5  1 -1</clus>
<clus scale="  117.481">  1  5  2 -1</clus>
</clustering>
</event>
<event>
 9    1  0.3846604E-005  0.8582182E+02  0.7546771E-02  0.1318555E+00
          1   -1    0    0  502    0  0.00000000000E+00  0.00000000000E+00  0.37171692615E+03  0.37171692615E+03  0.00000000000E+00 0. -1.
         -2   -1    0    0    0  501 -0.00000000000E+00 -0.00000000000E+00 -0.43041502878E+03  0.43041502878E+03  0.00000000000E+00 0.  1.
        -24    2    1    2    0    0  0.14623269822E+01 -0.54278168802E+02 -0.52679438368E+02  0.10869347449E+03  0.78044155200E+02 0.  0.
         23    2    1    2    0    0 -0.19012124956E+01 -0.51953126163E+01  0.33572563138E+03  0.34655744721E+03  0.85789036424E+02 0.  0.
         11    1    3    3    0    0 -0.26477503743E+02 -0.54921037293E+02 -0.16854579377E+02  0.63257058008E+02  0.00000000000E+00 0. -1.
        -12    1    3    3    0    0  0.27939830726E+02  0.64286849060E+00 -0.35824858991E+02  0.45436416481E+02  0.00000000000E+00 0.  1.
        -11    1    4    4    0    0 -0.18762985987E+02  0.34687010857E+02  0.11359461817E+03  0.12024548076E+03  0.00000000000E+00 0.  1.
         11    1    4    4    0    0  0.16861773492E+02 -0.39882323473E+02  0.22213101321E+03  0.22631196646E+03  0.00000000000E+00 0. -1.
         21    1    1    2  502  501  0.43888551336E+00  0.59473481419E+02 -0.34174429564E+03  0.34688103323E+03  0.00000000000E+00 0.  1.
<scales pt_clust_5="13000.00000" pt_clust_6="13000.00000" pt_clust_7="13000.00000" pt_clust_8="13000.00000" pt_clust_9="59.47510"></scales>
<clustering>
<clus scale="   59.475">  2  9  1 -1</clus>
<clus scale="   78.044">  5  6 -1 -1</clus>
<clus scale="   78.080">  2  5  1 -1</clus>
<clus scale="   85.789">  7  8 -1 -1</clus>
<clus scale="   85.822">  1  5  2 -1</clus>
</clustering>
</event>
<event>
 9    1  0.3846604E-005  0.1046540E+03  0.7546771E-02  0.1275169E+00
          1   -1    0    0  502    0  0.00000000000E+00  0.00000000000E+00  0.33136428315E+03  0.33136428315E+03  0.00000000000E+00 0. -1.
         -2   -1    0    0    0  501 -0.00000000000E+00 -0.00000000000E+00 -0.52427259155E+02  0.52427259155E+02  0.00000000000E+00 0.  1.
         23    2    1    2    0    0  0.34629448531E+02  0.22262017987E+02  0.99736283601E+02  0.14202650544E+03  0.92354782388E+02 0.  0.
        -24    2    1    2    0    0 -0.32872812286E+02 -0.43913909378E+02  0.19230779866E+03  0.21639408600E+03  0.82674408417E+02 0.  0.
         11    1    4    4    0    0 -0.36498795619E+02 -0.20039211091E+02  0.18711731582E+03  0.19169408427E+03  0.00000000000E+00 0. -1.
        -12    1    4    4    0    0  0.36259833336E+01 -0.23874698288E+02  0.51904828331E+01  0.24700001731E+02  0.00000000000E+00 0.  1.
        -13    1    3    3    0    0 -0.10023819082E+02  0.39150088242E+02  0.12023988601E+02  0.42163760034E+02  0.00000000000E+00 0.  1.
         13    1    3    3    0    0  0.44653267613E+02 -0.16888070255E+02  0.87712295000E+02  0.99862745404E+02  0.00000000000E+00 0. -1.
         21    1    1    2  502  501 -0.17566362451E+01  0.21651891391E+02 -0.13107058261E+02  0.25370950869E+02  0.00000000000E+00 0. -1.
<scales pt_clust_5="13000.00000" pt_clust_6="13000.00000" pt_clust_7="13000.00000" pt_clust_8="13000.00000" pt_clust_9="21.72303"></scales>
<clustering>
<clus scale="   21.723">  2  9  1 -1</clus>
<clus scale="   82.674">  5  6 -1 -1</clus>
<clus scale="   92.355">  7  8 -1 -1</clus>
<clus scale="   96.219">  1  5  2 -1</clus>
<clus scale="   96.219">  1  5  2 -1</clus>
</clustering>
</event>
<event>
 9    1  0.6069772E-005  0.9218828E+02  0.7546771E-02  0.1304943E+00
         -2   -1    0    0    0  501 -0.00000000000E+00  0.00000000000E+00  0.13298835559E+03  0.13298835559E+03  0.00000000000E+00 0.  1.
          1   -1    0    0  502    0  0.00000000000E+00 -0.00000000000E+00 -0.37753343730E+03  0.37753343730E+03  0.00000000000E+00 0. -1.
        -24    2    1    2    0    0 -0.13939897386E+02  0.14947818323E+02  0.98678655976E+02  0.12847771103E+03  0.79694962661E+02 0.  0.
         23    2    1    2    0    0  0.26425696894E+01  0.12997386133E+02 -0.33930128175E+03  0.35164754052E+03  0.91404145073E+02 0.  0.
         11    1    3    3    0    0  0.17971123360E+02 -0.21991748224E+02  0.59335397257E+02  0.65782122438E+02  0.00000000000E+00 0. -1.
        -12    1    3    3    0    0 -0.31911020746E+02  0.36939566547E+02  0.39343258720E+02  0.62695588588E+02  0.00000000000E+00 0.  1.
        -11    1    4    4    0    0  0.23942546239E+02  0.41139023411E+02 -0.26679233941E+03  0.27100519762E+03  0.00000000000E+00 0.  1.
         11    1    4    4    0    0 -0.21299976549E+02 -0.28141637279E+02 -0.72508942336E+02  0.80642342900E+02  0.00000000000E+00 0. -1.
         21    1    1    2  502  501  0.11297327697E+02 -0.27945204456E+02 -0.39224559303E+01  0.30396541344E+02  0.00000000000E+00 0.  1.
<scales pt_clust_5="13000.00000" pt_clust_6="13000.00000" pt_clust_7="13000.00000" pt_clust_8="13000.00000" pt_clust_9="30.14240"></scales>
<clustering>
<clus scale="   30.142">  1  9  2 -1</clus>
<clus scale="   79.695">  5  6 -1 -1</clus>
<clus scale="   80.593">  1  5  2 -1</clus>
<clus scale="   91.404">  7  8 -1 -1</clus>
<clus scale="   92.188">  2  5  1 -1</clus>
</clustering>
</event>
<event>
 9    1  0.3846604E-005  0.1313747E+03  0.7546771E-02  0.1227836E+00
          1   -1    0    0  502    0  0.00000000000E+00  0.00000000000E+00  0.55162853544E+03  0.55162853544E+03  0.00000000000E+00 0. -1.
         -2   -1    0    0    0  501 -0.00000000000E+00 -0.00000000000E+00 -0.55381462640E+02  0.55381462640E+02  0.00000000000E+00 0.  1.
        -24    2    1    2    0    0  0.11027262699E+03  0.37112194346E+02  0.12705855193E+03  0.19036340687E+03  0.80975204998E+02 0.  0.
         23    2    1    2    0    0 -0.82944580537E+02 -0.29792880494E+02  0.36714769689E+03  0.38828183419E+03  0.90542433496E+02 0.  0.
         11    1    3    3    0    0  0.61254989205E+02  0.49500861034E+02  0.11326866036E+03  0.13795759626E+03  0.00000000000E+00 0. -1.
        -12    1    3    3    0    0  0.49017637788E+02 -0.12388666688E+02  0.13789891569E+02  0.52405810614E+02  0.00000000000E+00 0.  1.
        -11    1    4    4    0    0 -0.71447116583E+02 -0.60311675199E+02  0.26134756121E+03  0.27756933618E+03  0.00000000000E+00 0. -1.
         11    1    4    4    0    0 -0.11497463955E+02  0.30518794705E+02  0.10580013568E+03  0.11071249801E+03  0.00000000000E+00 0.  1.
         21    1    1    2  502  501 -0.27328046455E+02 -0.73193138526E+01  0.20408239870E+01  0.28364757021E+02  0.00000000000E+00 0. -1.
<scales pt_clust_5="13000.00000" pt_clust_6="13000.00000" pt_clust_7="13000.00000" pt_clust_8="13000.00000" pt_clust_9="28.29124"></scales>
<clustering>
<clus scale="   28.291">  2  9  1 -1</clus>
<clus scale="   80.975">  5  6 -1 -1</clus>
<clus scale="   90.542">  7  8 -1 -1</clus>
<clus scale="  124.973">  2  5  1 -1</clus>
<clus scale="  131.375">  1  5  2 -1</clus>
</clustering>
</event>
<event>
 9    1  0.3846604E-005  0.1033627E+03  0.7546771E-02  0.1278126E+00
         -2   -1    0    0    0  501 -0.00000000000E+00  0.00000000000E+00  0.16273637496E+03  0.16273637496E+03  0.00000000000E+00 0.  1.
          1   -1    0    0  502    0  0.00000000000E+00 -0.00000000000E+00 -0.22173274901E+03  0.22173274901E+03  0.00000000000E+00 0. -1.
        -24    2    1    2    0    0 -0.22182908543E+02 -0.36287558738E+02  0.11242269759E+03  0.14471312108E+03  0.80586327178E+02 0.  0.
         23    2    1    2    0    0 -0.74401183895E+01  0.50298139567E+02 -0.17807461477E+03  0.20631775601E+03  0.90946081912E+02 0.  0.
         13    1    3    3    0    0 -0.34900587195E+01 -0.35069661699E+02  0.49130489116E+01  0.35583700357E+02  0.00000000000E+00 0. -1.
        -14    1    3    3    0    0 -0.18692849824E+02 -0.12178970396E+01  0.10750964868E+03  0.10912942072E+03  0.00000000000E+00 0.  1.
        -11    1    4    4    0    0 -0.27750319364E+02  0.21181767341E+02 -0.12657795571E+02  0.37134448713E+02  0.00000000000E+00 0.  1.
         11    1    4    4    0    0  0.20310200974E+02  0.29116372226E+02 -0.16541681920E+03  0.16918330730E+03  0.00000000000E+00 0. -1.
         21    1    1    2  502  501  0.29623026933E+02 -0.14010580829E+02  0.66555431318E+01  0.33438246877E+02  0.00000000000E+00 0. -1.
<scales pt_clust_5="13000.00000" pt_clust_6="13000.00000" pt_clust_7="13000.00000" pt_clust_8="13000.00000" pt_clust_9="32.76919"></scales>
<clustering>
<clus scale="   32.769">  1  9  2 -1</clus>
<clus scale="   80.586">  5  6 -1 -1</clus>
<clus scale="   90.946">  7  8 -1 -1</clus>
<clus scale="   94.376">  1  5  2 -1</clus>
<clus scale="  103.363">  2  5  1 -1</clus>
</clustering>
</event>
<event>
 9    1  0.3846604E-005  0.1224044E+03  0.7546771E-02  0.1244565E+00
          1   -1    0    0  502    0  0.00000000000E+00  0.00000000000E+00  0.41088385600E+03  0.41088385600E+03  0.00000000000E+00 0. -1.
         -2   -1    0    0    0  501 -0.00000000000E+00 -0.00000000000E+00 -0.55861131317E+02  0.55861131317E+02  0.00000000000E+00 0.  1.
        -24    2    1    2    0    0  0.62157519647E+02  0.38492710699E+02  0.35623645618E+02  0.11409893498E+03  0.80026725605E+02 0.  0.
         23    2    1    2    0    0 -0.60836578320E+02 -0.58920868387E+02  0.28478260604E+03  0.31242970346E+03  0.96635546804E+02 0.  0.
         11    1    3    3    0    0 -0.65490841186E+01  0.22858944610E+02  0.36580323682E+02  0.43629599266E+02  0.00000000000E+00 0. -1.
        -12    1    3    3    0    0  0.68706603766E+02  0.15633766089E+02 -0.95667806367E+00  0.70469335714E+02  0.00000000000E+00 0.  1.
        -11    1    4    4    0    0 -0.54997507655E+02  0.10630460380E+02  0.15902041056E+03  0.16859781585E+03  0.00000000000E+00 0.  1.
         11    1    4    4    0    0 -0.58390706651E+01 -0.69551328767E+02  0.12576219548E+03  0.14383188760E+03  0.00000000000E+00 0. -1.
         21    1    1    2  502  501 -0.13209413272E+01  0.20428157688E+02  0.34616473022E+02  0.40216348877E+02  0.00000000000E+00 0.  1.
<scales pt_clust_5="13000.00000" pt_clust_6="13000.00000" pt_clust_7="13000.00000" pt_clust_8="13000.00000" pt_clust_9="20.47082"></scales>
<clustering>
<clus scale="   20.471">  1  9  2 -1</clus>
<clus scale="   80.027">  5  6 -1 -1</clus>
<clus scale="   96.636">  7  8 -1 -1</clus>
<clus scale="  109.767">  2  5  1 -1</clus>
<clus scale="   20.471">  1  5  2 -1</clus>
</clustering>
</event>
<event>
 9    1  0.3846604E-005  0.9678388E+02  0.7546771E-02  0.1293361E+00
         -2   -1    0    0    0  501 -0.00000000000E+00  0.00000000000E+00  0.71348121050E+02  0.71348121050E+02  0.00000000000E+00 0.  1.
          1   -1    0    0  502    0  0.00000000000E+00 -0.00000000000E+00 -0.28928292413E+03  0.28928292413E+03  0.00000000000E+00 0. -1.
        -24    2    1    2    0    0 -0.22036179681E+02 -0.37779566620E+02 -0.41568799740E+02  0.99123771973E+02  0.78642661384E+02 0.  0.
         23    2    1    2    0    0  0.18338876033E+01  0.33500430587E+02 -0.20487793762E+03  0.22630252912E+03  0.90067882010E+02 0.  0.
         13    1    3    3    0    0 -0.29284832035E+02  0.66896894574E+01 -0.44814522638E+02  0.53950855152E+02  0.00000000000E+00 0. -1.
        -14    1    3    3    0    0  0.72486523536E+01 -0.44469256077E+02  0.32457228984E+01  0.45172916821E+02  0.00000000000E+00 0.  1.
        -11    1    4    4    0    0 -0.31400362740E+02 -0.14221452030E+02 -0.48834569122E+02  0.59774974858E+02  0.00000000000E+00 0.  1.
         11    1    4    4    0    0  0.33234250343E+02  0.47721882617E+02 -0.15604336849E+03  0.16652755426E+03  0.00000000000E+00 0. -1.
         21    1    1    2  502  501  0.20202292078E+02  0.42791360327E+01  0.28511934275E+02  0.35204744090E+02  0.00000000000E+00 0.  1.
<scales pt_clust_5="13000.00000" pt_clust_6="13000.00000" pt_clust_7="13000.00000" pt_clust_8="13000.00000" pt_clust_9="20.65051"></scales>
<clustering>
<clus scale="   20.651">  1  9  2 -1</clus>
<clus scale="   78.643">  5  6 -1 -1</clus>
<clus scale="   86.253">  1  5  2 -1</clus>
<clus scale="   90.068">  7  8 -1 -1</clus>
<clus scale="   96.784">  2  5  1 -1</clus>
</clustering>
</event>
<event>
 9    1  0.3846604E-005  0.1920195E+03  0.7546771E-02  0.1183815E+00
          1   -1    0    0  502    0  0.00000000000E+00  0.00000000000E+00  0.42095929729E+03  0.42095929729E+03  0.00000000000E+00 0. -1.
         -2   -1    0    0    0  501 -0.00000000000E+00 -0.00000000000E+00 -0.21150351541E+03  0.21150351541E+03  0.00000000000E+00 0.  1.
        -24    2    1    2    0    0 -0.11496315105E+02 -0.19984198798E+03  0.65900005717E+02  0.22629237204E+03  0.82440532939E+02 0.  0.
         23    2    1    2    0    0 -0.11806929384E+02  0.38152433874E+02  0.20670786284E+03  0.23102838643E+03  0.95136549145E+02 0.  0.
         13    1    3    3    0    0  0.22869969360E+02 -0.12979242598E+03  0.67871666778E+02  0.14824193905E+03  0.00000000000E+00 0. -1.
        -14    1    3    3    0    0 -0.34366284465E+02 -0.70049561994E+02 -0.19716610602E+01  0.78050432995E+02  0.00000000000E+00 0.  1.
        -11    1    4    4    0    0 -0.49683454648E+02  0.14717528140E+02  0.15136353001E+03  0.15998740424E+03  0.00000000000E+00 0. -1.
         11    1    4    4    0    0  0.37876525264E+02  0.23434905734E+02  0.55344332829E+02  0.71040982180E+02  0.00000000000E+00 0.  1.
         21    1    1    2  502  501  0.23303244489E+02  0.16168955410E+03 -0.63152086669E+02  0.17514205423E+03  0.00000000000E+00 0.  1.
<scales pt_clust_5="13000.00000" pt_clust_6="13000.00000" pt_clust_7="13000.00000" pt_clust_8="13000.00000" pt_clust_9="173.42156"></scales>
<clustering>
<clus scale="   82.441">  5  6 -1 -1</clus>
<clus scale="   95.137">  7  8 -1 -1</clus>
<clus scale="  103.179">  1  7  2 -1</clus>
<clus scale="  173.422">  2  9  1 -1</clus>
<clus scale="  103.179">  1  5  2 -1</clus>
</clustering>
</event>
<event>
 9    1  0.3846604E-005  0.1766099E+03  0.7546771E-02  0.1171940E+00
          1   -1    0    0  502    0  0.00000000000E+00  0.00000000000E+00  0.51508741895E+03  0.51508741895E+03  0.00000000000E+00 0. -1.
         -2   -1    0    0    0  501 -0.00000000000E+00 -0.00000000000E+00 -0.12905104908E+03  0.12905104908E+03  0.00000000000E+00 0.  1.
        -24    2    1    2    0    0 -0.21932522574E+02 -0.14608865523E+03  0.86020255304E+02  0.18962518659E+03  0.82068851157E+02 0.  0.
         23    2    1    2    0    0  0.10783864104E+01  0.15518396838E+03  0.35364424918E+03  0.39625869760E+03  0.88732595419E+02 0.  0.
         13    1    3    3    0    0 -0.24886246847E+02 -0.15545318611E+03  0.73585898606E+02  0.17378119239E+03  0.00000000000E+00 0. -1.
        -14    1    3    3    0    0  0.29537242723E+01  0.93645308769E+01  0.12434356698E+02  0.15843994197E+02  0.00000000000E+00 0.  1.
        -13    1    4    4    0    0  0.65640015146E+01  0.41926877744E+02  0.26526730373E+02  0.50046144881E+02  0.00000000000E+00 0.  1.
         13    1    4    4    0    0 -0.54856151043E+01  0.11325709063E+03  0.32711751881E+03  0.34621255272E+03  0.00000000000E+00 0. -1.
         21    1    1    2  502  501  0.20854136164E+02 -0.90953131421E+01 -0.53628134610E+02  0.58254583837E+02  0.00000000000E+00 0.  1.
<scales pt_clust_5="13000.00000" pt_clust_6="13000.00000" pt_clust_7="13000.00000" pt_clust_8="13000.00000" pt_clust_9="22.75126"></scales>
<clustering>
<clus scale="   22.751">  2  9  1 -1</clus>
<clus scale="   82.069">  5  6 -1 -1</clus>
<clus scale="   88.733">  7  8 -1 -1</clus>
<clus scale="  173.358">  2  5  1 -1</clus>
<clus scale="  176.610">  1  5  2 -1</clus>
</clustering>
</event>
<event>
 9    1  0.3846604E-005  0.1300945E+03  0.7546771E-02  0.1229785E+00
         -2   -1    0    0    0  501 -0.00000000000E+00  0.00000000000E+00  0.89369257527E+02  0.89369257527E+02  0.00000000000E+00 0.  1.
          1   -1    0    0  502    0  0.00000000000E+00 -0.00000000000E+00 -0.53232761121E+03  0.53232761121E+03  0.00000000000E+00 0. -1.
         23    2    1    2    0    0  0.58949636358E+02  0.78041087649E+01 -0.66390400107E+01  0.10768324356E+03  0.89530108626E+02 0.  0.
        -24    2    1    2    0    0 -0.10025932752E+03 -0.80474157095E+01 -0.45195646375E+03  0.46984270438E+03  0.79817467234E+02 0.  0.
         13    1    4    4    0    0 -0.60437466286E+02  0.31820885225E+02 -0.19027316878E+03  0.20216116052E+03  0.00000000000E+00 0. -1.
        -14    1    4    4    0    0 -0.39821861233E+02 -0.39868300935E+02 -0.26168329498E+03  0.26768154386E+03  0.00000000000E+00 0.  1.
        -11    1    3    3    0    0  0.56354105765E+02  0.40657928812E+02  0.10917521793E+02  0.70342339270E+02  0.00000000000E+00 0.  1.
         11    1    3    3    0    0  0.25955305924E+01 -0.32853820047E+02 -0.17556561803E+02  0.37340904288E+02  0.00000000000E+00 0. -1.
         21    1    1    2  502  501  0.41309691161E+02  0.24330694463E+00  0.15637150077E+02  0.44170920803E+02  0.00000000000E+00 0.  1.
<scales pt_clust_5="13000.00000" pt_clust_6="13000.00000" pt_clust_7="13000.00000" pt_clust_8="13000.00000" pt_clust_9="41.31041"></scales>
<clustering>
<clus scale="   41.310">  1  9  2 -1</clus>
<clus scale="   79.817">  5  6 -1 -1</clus>
<clus scale="   89.530">  7  8 -1 -1</clus>
<clus scale="  123.611">  2  5  1 -1</clus>
<clus scale="  123.611">  2  5  1 -1</clus>
</clustering>
</event>
<event>
 9    1  0.3846604E-005  0.1130387E+03  0.7546771E-02  0.1259338E+00
         -2   -1    0    0    0  501 -0.00000000000E+00  0.00000000000E+00  0.11632607661E+03  0.11632607661E+03  0.00000000000E+00 0.  1.
          1   -1    0    0  502    0  0.00000000000E+00 -0.00000000000E+00 -0.17281123716E+03  0.17281123716E+03  0.00000000000E+00 0. -1.
         23    2    1    2    0    0  0.55997824305E+02 -0.25210250459E+02  0.49436902036E+01  0.11147748241E+03  0.92905736946E+02 0.  0.
        -24    2    1    2    0    0 -0.41699302505E+02  0.53613614000E+02 -0.86734448364E+02  0.13702029326E+03  0.81476651853E+02 0.  0.
         11    1    4    4    0    0 -0.51745970914E+01  0.28319816408E+02  0.10076967180E+02  0.30501372493E+02  0.00000000000E+00 0. -1.
        -12    1    4    4    0    0 -0.36524705413E+02  0.25293797593E+02 -0.96811415544E+02  0.10651892077E+03  0.00000000000E+00 0.  1.
        -11    1    3    3    0    0  0.25878076781E+02 -0.42227051202E+02 -0.33475744031E+02  0.59778124339E+02  0.00000000000E+00 0. -1.
         11    1    3    3    0    0  0.30119747524E+02  0.17016800743E+02  0.38419434235E+02  0.51699358075E+02  0.00000000000E+00 0.  1.
         21    1    1    2  502  501 -0.14298521800E+02 -0.28403363542E+02  0.25305597615E+02  0.40639538098E+02  0.00000000000E+00 0. -1.
<scales pt_clust_5="13000.00000" pt_clust_6="13000.00000" pt_clust_7="13000.00000" pt_clust_8="13000.00000" pt_clust_9="31.79935"></scales>
<clustering>
<clus scale="   31.799">  1  9  2 -1</clus>
<clus scale="   81.477">  5  6 -1 -1</clus>
<clus scale="   92.906">  7  8 -1 -1</clus>
<clus scale="  103.850">  2  5  1 -1</clus>
<clus scale="  103.850">  2  5  1 -1</clus>
</clustering>
</event>
<event>
 9    1  0.3846604E-005  0.9704104E+02  0.7546771E-02  0.1287887E+00
          1   -1    0    0  502    0  0.00000000000E+00  0.00000000000E+00  0.10228836262E+04  0.10228836262E+04  0.00000000000E+00 0. -1.
         -2   -1    0    0    0  501 -0.00000000000E+00 -0.00000000000E+00 -0.35838917227E+02  0.35838917227E+02  0.00000000000E+00 0.  1.
         23    2    1    2    0    0 -0.31138577603E+02  0.10000299326E+02  0.80028578046E+02  0.12785538023E+03  0.94195583488E+02 0.  0.
        -24    2    1    2    0    0 -0.21615183582E+02  0.68763300737E+02  0.58702784618E+03  0.59713198916E+03  0.82275832382E+02 0.  0.
         11    1    4    4    0    0 -0.34048751081E+02  0.82532897567E+02  0.44238662765E+03  0.45130579983E+03  0.00000000000E+00 0. -1.
        -12    1    4    4    0    0  0.12433567499E+02 -0.13769596829E+02  0.14464121853E+03  0.14582618933E+03  0.00000000000E+00 0.  1.
        -13    1    3    3    0    0 -0.58603117803E+02 -0.16870744461E+02  0.53908039261E+02  0.81394251221E+02  0.00000000000E+00 0.  1.
         13    1    3    3    0    0  0.27464540200E+02  0.26871043787E+02  0.26120538786E+02  0.46461129012E+02  0.00000000000E+00 0. -1.
         21    1    1    2  502  501  0.52753761185E+02 -0.78763600064E+02  0.31998828472E+03  0.33373517401E+03  0.00000000000E+00 0.  1.
<scales pt_clust_5="13000.00000" pt_clust_6="13000.00000" pt_clust_7="13000.00000" pt_clust_8="13000.00000" pt_clust_9="94.79802"></scales>
<clustering>
<clus scale="   82.276">  5  6 -1 -1</clus>
<clus scale="   94.196">  7  8 -1 -1</clus>
<clus scale="   94.798">  1  9  2 -1</clus>
<clus scale="   94.798">  1  5  2 -1</clus>
<clus scale="   94.798">  1  5  2 -1</clus>
</clustering>
</event>
<event>
 9    1  0.3846604E-005  0.1322432E+03  0.7546771E-02  0.1227001E+00
         -4   -1    0    0    0  501 -0.00000000000E+00  0.00000000000E+00  0.33694875666E+03  0.33694875666E+03  0.00000000000E+00 0.  1.
          3   -1    0    0  502    0  0.00000000000E+00 -0.00000000000E+00 -0.37687328305E+03  0.37687328305E+03  0.00000000000E+00 0. -1.
         23    2    1    2    0    0 -0.82338852547E+02  0.58521356328E+02  0.27692083071E+03  0.30867638846E+03  0.91605297487E+02 0.  0.
        -24    2    1    2    0    0  0.82616806355E+02  0.66145340571E+02 -0.15061670319E+03  0.19736252404E+03  0.71174657303E+02 0.  0.
         13    1    4    4    0    0  0.74101630586E+02  0.24599059080E+02 -0.64135438396E+02  0.10104216853E+03  0.00000000000E+00 0. -1.
        -14    1    4    4    0    0  0.85151757687E+01  0.41546281491E+02 -0.86481264797E+02  0.96320355507E+02  0.00000000000E+00 0.  1.
        -11    1    3    3    0    0 -0.96489069702E+02  0.26402268214E+02  0.18559023204E+03  0.21083395023E+03  0.00000000000E+00 0.  1.
         11    1    3    3    0    0  0.14150217155E+02  0.32119088114E+02  0.91330598669E+02  0.97842438236E+02  0.00000000000E+00 0. -1.
         21    1    1    2  502  501 -0.27795380782E+00 -0.12466669690E+03 -0.16622865391E+03  0.20778312721E+03  0.00000000000E+00 0. -1.
<scales pt_clust_5="13000.00000" pt_clust_6="13000.00000" pt_clust_7="13000.00000" pt_clust_8="13000.00000" pt_clust_9="124.66701"></scales>
<clustering>
<clus scale="   71.175">  5  6 -1 -1</clus>
<clus scale="   91.605">  7  8 -1 -1</clus>
<clus scale="  124.667">  2  9  1 -1</clus>
<clus scale="  124.667">  2  5  1 -1</clus>
<clus scale="  124.667">  2  5  1 -1</clus>
</clustering>
</event>
<event>
 9    1  0.3846604E-005  0.1202981E+03  0.7546771E-02  0.1257474E+00
         -2   -1    0    0    0  501 -0.00000000000E+00  0.00000000000E+00  0.19633303083E+03  0.19633303083E+03  0.00000000000E+00 0.  1.
          1   -1    0    0  502    0  0.00000000000E+00 -0.00000000000E+00 -0.29543566704E+03  0.29543566704E+03  0.00000000000E+00 0. -1.
        -24    2    1    2    0    0  0.98085565633E+01  0.36352383365E+02  0.33659432519E+02  0.95512989773E+02  0.81068306136E+02 0.  0.
         23    2    1    2    0    0 -0.37794724031E+02  0.64809197704E+02 -0.22647125998E+03  0.25554926341E+03  0.91583410942E+02 0.  0.
         11    1    3    3    0    0 -0.50138030393E-01  0.61427807706E+02  0.16631577734E+02  0.63639511715E+02  0.00000000000E+00 0. -1.
        -12    1    3    3    0    0  0.98586945937E+01 -0.25075424341E+02  0.17027854785E+02  0.31873478059E+02  0.00000000000E+00 0.  1.
        -13    1    4    4    0    0 -0.24669554259E+02  0.85281707487E+02 -0.20382093292E+03  0.22231628198E+03  0.00000000000E+00 0. -1.
         13    1    4    4    0    0 -0.13125169772E+02 -0.20472509783E+02 -0.22650327062E+02  0.33232981425E+02  0.00000000000E+00 0.  1.
         21    1    1    2  502  501  0.27986167468E+02 -0.10116158107E+03  0.93709191248E+02  0.14070644469E+03  0.00000000000E+00 0.  1.
<scales pt_clust_5="13000.00000" pt_clust_6="13000.00000" pt_clust_7="13000.00000" pt_clust_8="13000.00000" pt_clust_9="78.00069"></scales>
<clustering>
<clus scale="   81.068">  5  6 -1 -1</clus>
<clus scale="   89.386">  1  5  2 -1</clus>
<clus scale="   78.001">  1  9  2 -1</clus>
<clus scale="   91.583">  7  8 -1 -1</clus>
<clus scale="  120.298">  2  5  1 -1</clus>
</clustering>
</event>
<event>
 9    1  0.3846604E-005  0.1670535E+03  0.7546771E-02  0.1183745E+00
          1   -1    0    0  502    0  0.00000000000E+00  0.00000000000E+00  0.51994043438E+03  0.51994043438E+03  0.00000000000E+00 0. -1.
         -2   -1    0    0    0  501 -0.00000000000E+00 -0.00000000000E+00 -0.65600520569E+02  0.65600520569E+02  0.00000000000E+00 0.  1.
         23    2    1    2    0    0  0.13671113581E+03 -0.24047256000E+02  0.18870345750E+03  0.25442360821E+03  0.99268184046E+02 0.  0.
        -24    2    1    2    0    0 -0.12421720787E+03  0.45660127085E+02  0.26381092083E+03  0.30608642563E+03  0.81104476266E+02 0.  0.
         11    1    4    4    0    0 -0.34194814711E+02  0.28095243408E+01  0.15396309959E+03  0.15773970590E+03  0.00000000000E+00 0. -1.
        -12    1    4    4    0    0 -0.90022393156E+02  0.42850602744E+02  0.10984782123E+03  0.14834671973E+03  0.00000000000E+00 0.  1.
        -13    1    3    3    0    0  0.61261017702E+02 -0.60270777816E+02  0.81705485764E+02  0.11858020641E+03  0.00000000000E+00 0.  1.
         13    1    3    3    0    0  0.75450118104E+02  0.36223521816E+02  0.10699797174E+03  0.13584340179E+03  0.00000000000E+00 0. -1.
         21    1    1    2  502  501 -0.12493927938E+02 -0.21612871085E+02  0.18255354749E+01  0.25030921111E+02  0.00000000000E+00 0. -1.
<scales pt_clust_5="13000.00000" pt_clust_6="13000.00000" pt_clust_7="13000.00000" pt_clust_8="13000.00000" pt_clust_9="24.96426"></scales>
<clustering>
<clus scale="   24.964">  2  9  1 -1</clus>
<clus scale="   81.104">  5  6 -1 -1</clus>
<clus scale="   99.268">  7  8 -1 -1</clus>
<clus scale="  156.941">  1  5  2 -1</clus>
<clus scale="  156.941">  1  5  2 -1</clus>
</clustering>
</event>
<event>
 9    1  0.3846604E-005  0.1314337E+03  0.7546771E-02  0.1235920E+00
         -2   -1    0    0    0  501 -0.00000000000E+00  0.00000000000E+00  0.40928071280E+02  0.40928071280E+02  0.00000000000E+00 0.  1.
          1   -1    0    0  502    0  0.00000000000E+00 -0.00000000000E+00 -0.85644605576E+03  0.85644605576E+03  0.00000000000E+00 0. -1.
        -24    2    1    2    0    0  0.74967107601E+02  0.21173295015E+02 -0.21240949630E+03  0.23979093998E+03  0.79457693988E+02 0.  0.
         23    2    1    2    0    0  0.42381501941E+02  0.32368770565E+02 -0.42332754301E+03  0.43631719963E+03  0.91228071368E+02 0.  0.
         11    1    3    3    0    0  0.81913253900E+02  0.25348922945E+02 -0.21484864747E+03  0.23132723656E+03  0.00000000000E+00 0. -1.
        -12    1    3    3    0    0 -0.69461462983E+01 -0.41756279298E+01  0.24391511693E+01  0.84637034112E+01  0.00000000000E+00 0.  1.
        -11    1    4    4    0    0  0.14431207828E+01  0.57517615661E+02 -0.22169402732E+03  0.22903842572E+03  0.00000000000E+00 0.  1.
         11    1    4    4    0    0  0.40938381158E+02 -0.25148845095E+02 -0.20163351570E+03  0.20727877391E+03  0.00000000000E+00 0. -1.
         21    1    1    2  502  501 -0.11734860954E+03 -0.53542065581E+02 -0.17978094517E+03  0.22126598743E+03  0.00000000000E+00 0.  1.
<scales pt_clust_5="13000.00000" pt_clust_6="13000.00000" pt_clust_7="13000.00000" pt_clust_8="13000.00000" pt_clust_9="104.69623"></scales>
<clustering>
<clus scale="   79.458">  5  6 -1 -1</clus>
<clus scale="   91.228">  7  8 -1 -1</clus>
<clus scale="  105.672">  2  7  1 -1</clus>
<clus scale="  104.696">  2  9  1 -1</clus>
<clus scale="  105.672">  2  5  1 -1</clus>
</clustering>
</event>
<event>
 9    1  0.3846604E-005  0.1296779E+03  0.7546771E-02  0.1232009E+00
         -2   -1    0    0    0  501 -0.00000000000E+00  0.00000000000E+00  0.49073227593E+03  0.49073227593E+03  0.00000000000E+00 0.  1.
          1   -1    0    0  502    0  0.00000000000E+00 -0.00000000000E+00 -0.23246461546E+03  0.23246461546E+03  0.00000000000E+00 0. -1.
         23    2    1    2    0    0  0.89748167433E+02 -0.38385921079E+02  0.34212733196E+03  0.36694405549E+03  0.89825475716E+02 0.  0.
        -24    2    1    2    0    0 -0.91667040722E+02  0.18094386616E+02 -0.20300141263E+03  0.23538024625E+03  0.73919101839E+02 0.  0.
         13    1    4    4    0    0 -0.22670046052E+02  0.21262510658E+02 -0.13471233754E+03  0.13825136250E+03  0.00000000000E+00 0. -1.
        -14    1    4    4    0    0 -0.68996994670E+02 -0.31681240420E+01 -0.68289075088E+02  0.97128883757E+02  0.00000000000E+00 0.  1.
        -11    1    3    3    0    0  0.18933876012E+02 -0.40975815248E+02  0.22936767072E+03  0.23376705813E+03  0.00000000000E+00 0.  1.
         11    1    3    3    0    0  0.70814291421E+02  0.25898941692E+01  0.11275966124E+03  0.13317699736E+03  0.00000000000E+00 0. -1.
         21    1    1    2  502  501  0.19188732888E+01  0.20291534463E+02  0.11914174114E+03  0.12087258964E+03  0.00000000000E+00 0. -1.
<scales pt_clust_5="13000.00000" pt_clust_6="13000.00000" pt_clust_7="13000.00000" pt_clust_8="13000.00000" pt_clust_9="20.38206"></scales>
<clustering>
<clus scale="   20.382">  1  9  2 -1</clus>
<clus scale="   73.919">  5  6 -1 -1</clus>
<clus scale="   89.825">  7  8 -1 -1</clus>
<clus scale="  119.213">  2  5  1 -1</clus>
<clus scale="  119.213">  2  5  1 -1</clus>
</clustering>
</event>
<event>
 9    1  0.3846604E-005  0.1329580E+03  0.7546771E-02  0.1225115E+00
         -2   -1    0    0    0  501 -0.00000000000E+00  0.00000000000E+00  0.47947822265E+03  0.47947822265E+03  0.00000000000E+00 0.  1.
          1   -1    0    0  502    0  0.00000000000E+00 -0.00000000000E+00 -0.87205330044E+02  0.87205330044E+02  0.00000000000E+00 0. -1.
         23    2    1    2    0    0  0.87668243159E+02  0.86441414665E+02  0.33413415911E+03  0.36701248550E+03  0.88852063551E+02 0.  0.
        -24    2    1    2    0    0 -0.73470717494E+02 -0.60256322181E+02 -0.10327558932E+02  0.12500606869E+03  0.80567288922E+02 0.  0.
         13    1    4    4    0    0 -0.16138738115E+02 -0.22876445334E+02 -0.41290419181E+02  0.49886765130E+02  0.00000000000E+00 0. -1.
        -14    1    4    4    0    0 -0.57331979380E+02 -0.37379876847E+02  0.30962860248E+02  0.75119303561E+02  0.00000000000E+00 0.  1.
        -13    1    3    3    0    0  0.55868346581E+02  0.38086497010E+02  0.27901269114E+03  0.28708872360E+03  0.00000000000E+00 0.  1.
         13    1    3    3    0    0  0.31799896578E+02  0.48354917655E+02  0.55121467978E+02  0.79923761897E+02  0.00000000000E+00 0. -1.
         21    1    1    2  502  501 -0.14197525664E+02 -0.26185092484E+02  0.68466292427E+02  0.74664998507E+02  0.00000000000E+00 0. -1.
<scales pt_clust_5="13000.00000" pt_clust_6="13000.00000" pt_clust_7="13000.00000" pt_clust_8="13000.00000" pt_clust_9="29.78639"></scales>
<clustering>
<clus scale="   29.786">  1  9  2 -1</clus>
<clus scale="   80.567">  5  6 -1 -1</clus>
<clus scale="   88.852">  7  8 -1 -1</clus>
<clus scale="  127.570">  2  5  1 -1</clus>
<clus scale="  127.570">  2  5  1 -1</clus>
</clustering>
</event>
<event>
 9    1  0.3846604E-005  0.1039402E+03  0.7546771E-02  0.1280781E+00
          1   -1    0    0  502    0  0.00000000000E+00  0.00000000000E+00  0.83204460877E+02  0.83204460877E+02  0.00000000000E+00 0. -1.
         -2   -1    0    0    0  501 -0.00000000000E+00 -0.00000000000E+00 -0.41481431776E+03  0.41481431776E+03  0.00000000000E+00 0.  1.
        -24    2    1    2    0    0  0.18143507740E+02 -0.59886571608E+02 -0.31757462175E+03  0.33369529416E+03  0.81137664733E+02 0.  0.
         23    2    1    2    0    0 -0.10155379506E+02  0.29770963995E+02  0.32852001913E+02  0.10802807602E+03  0.97986576369E+02 0.  0.
         13    1    3    3    0    0 -0.30738978364E+02 -0.99320771129E+01 -0.11190877149E+03  0.11647791243E+03  0.00000000000E+00 0. -1.
        -14    1    3    3    0    0  0.48882486104E+02 -0.49954494496E+02 -0.20566585026E+03  0.21721738174E+03  0.00000000000E+00 0.  1.
        -13    1    4    4    0    0 -0.53642208423E+02  0.85263594872E+01  0.14030863805E+02  0.56098578143E+02  0.00000000000E+00 0. -1.
         13    1    4    4    0    0  0.43486828917E+02  0.21244604508E+02  0.18821138108E+02  0.51929497876E+02  0.00000000000E+00 0.  1.
         21    1    1    2  502  501 -0.79881282345E+01  0.30115607614E+02 -0.46887237050E+02  0.56295408452E+02  0.00000000000E+00 0.  1.
<scales pt_clust_5="13000.00000" pt_clust_6="13000.00000" pt_clust_7="13000.00000" pt_clust_8="13000.00000" pt_clust_9="31.15702"></scales>
<clustering>
<clus scale="   31.157">  2  9  1 -1</clus>
<clus scale="   81.138">  5  6 -1 -1</clus>
<clus scale="   88.236">  2  5  1 -1</clus>
<clus scale="   97.987">  7  8 -1 -1</clus>
<clus scale="  103.940">  1  5  2 -1</clus>
</clustering>
</event>
<event>
 9    1  0.3846604E-005  0.9494635E+02  0.7546771E-02  0.1295340E+00
          1   -1    0    0  502    0  0.00000000000E+00  0.00000000000E+00  0.13685581592E+03  0.13685581592E+03  0.00000000000E+00 0. -1.
         -2   -1    0    0    0  501 -0.00000000000E+00 -0.00000000000E+00 -0.17126558167E+03  0.17126558167E+03  0.00000000000E+00 0.  1.
         23    2    1    2    0    0  0.51762628210E+01 -0.16386511085E+02 -0.64611991288E+02  0.11102438073E+03  0.88636291983E+02 0.  0.
        -24    2    1    2    0    0 -0.42927620327E+01  0.37276116382E+02  0.94115153864E+02  0.12985106093E+03  0.81213910007E+02 0.  0.
         11    1    4    4    0    0 -0.26190952895E+02 -0.10088650744E+01  0.78989087872E+02  0.83224154097E+02  0.00000000000E+00 0. -1.
        -12    1    4    4    0    0  0.21898190862E+02  0.38284981456E+02  0.15126065992E+02  0.46626906830E+02  0.00000000000E+00 0.  1.
        -13    1    3    3    0    0 -0.12677699136E+02 -0.50347241594E+02 -0.37113119897E+02  0.63819687088E+02  0.00000000000E+00 0.  1.
         13    1    3    3    0    0  0.17853961957E+02  0.33960730509E+02 -0.27498871392E+02  0.47204693645E+02  0.00000000000E+00 0. -1.
         21    1    1    2  502  501 -0.88350078831E+00 -0.20889605297E+02 -0.63912928321E+02  0.67245955935E+02  0.00000000000E+00 0. -1.
<scales pt_clust_5="13000.00000" pt_clust_6="13000.00000" pt_clust_7="13000.00000" pt_clust_8="13000.00000" pt_clust_9="20.90828"></scales>
<clustering>
<clus scale="   20.908">  2  9  1 -1</clus>
<clus scale="   81.214">  5  6 -1 -1</clus>
<clus scale="   88.057">  1  5  2 -1</clus>
<clus scale="   88.636">  7  8 -1 -1</clus>
<clus scale="   88.057">  1  5  2 -1</clus>
</clustering>
</event>
<event>
 9    1  0.3846604E-005  0.1258164E+03  0.7546771E-02  0.1236718E+00
          1   -1    0    0  502    0  0.00000000000E+00  0.00000000000E+00  0.53722326849E+03  0.53722326849E+03  0.00000000000E+00 0. -1.
         -2   -1    0    0    0  501 -0.00000000000E+00 -0.00000000000E+00 -0.25502855424E+03  0.25502855424E+03  0.00000000000E+00 0.  1.
         23    2    1    2    0    0 -0.34644182105E+02  0.75391588990E+02 -0.34170239529E+02  0.12737284467E+03  0.90399807776E+02 0.  0.
        -24    2    1    2    0    0  0.14705141720E+02 -0.86914733355E+02  0.48260136232E+03  0.49705498779E+03  0.79932308245E+02 0.  0.
         11    1    4    4    0    0  0.13662228523E+02 -0.97757095108E+02  0.47063056628E+03  0.48087029025E+03  0.00000000000E+00 0. -1.
        -12    1    4    4    0    0  0.10429131962E+01  0.10842361754E+02  0.11970796043E+02  0.16184697533E+02  0.00000000000E+00 0.  1.
        -11    1    3    3    0    0 -0.26139496086E+02 -0.12930540733E+02  0.63208517015E+01  0.29839995065E+02  0.00000000000E+00 0. -1.
         11    1    3    3    0    0 -0.85046860191E+01  0.88322129723E+02 -0.40491091230E+02  0.97532849605E+02  0.00000000000E+00 0.  1.
         21    1    1    2  502  501  0.19939040385E+02  0.11523144365E+02 -0.16623640854E+03  0.16782399028E+03  0.00000000000E+00 0.  1.
<scales pt_clust_5="13000.00000" pt_clust_6="13000.00000" pt_clust_7="13000.00000" pt_clust_8="13000.00000" pt_clust_9="23.02929"></scales>
<clustering>
<clus scale="   23.029">  2  9  1 -1</clus>
<clus scale="   79.932">  5  6 -1 -1</clus>
<clus scale="   90.400">  7  8 -1 -1</clus>
<clus scale="  118.519">  1  5  2 -1</clus>
<clus scale="  118.519">  1  5  2 -1</clus>
</clustering>
</event>
<event>
 9    1  0.3846604E-005  0.9240317E+02  0.7546771E-02  0.1304214E+00
         -2   -1    0    0    0  501 -0.00000000000E+00  0.00000000000E+00  0.15487540887E+03  0.15487540887E+03  0.00000000000E+00 0.  1.
          1   -1    0    0  502    0  0.00000000000E+00 -0.00000000000E+00 -0.22270851543E+03  0.22270851543E+03  0.00000000000E+00 0. -1.
        -24    2    1    2    0    0  0.67691479208E+02  0.52211871262E+01  0.59063030702E+02  0.11925454382E+03  0.78254760063E+02 0.  0.
         23    2    1    2    0    0 -0.12387948576E+02 -0.10682749124E+02 -0.16660881932E+03  0.19002560112E+03  0.89909109692E+02 0.  0.
         13    1    3    3    0    0  0.67323237286E+02 -0.16281255361E+02  0.15951877629E+02  0.71077140873E+02  0.00000000000E+00 0. -1.
        -14    1    3    3    0    0  0.36824192222E+00  0.21502442487E+02  0.43111153073E+02  0.48177402942E+02  0.00000000000E+00 0.  1.
        -13    1    4    4    0    0 -0.42133303054E+02 -0.85770023528E+01 -0.36067505653E+02  0.56121699544E+02  0.00000000000E+00 0.  1.
         13    1    4    4    0    0  0.29745354478E+02 -0.21057467715E+01 -0.13054131367E+03  0.13390390157E+03  0.00000000000E+00 0. -1.
         21    1    1    2  502  501 -0.55303530631E+02  0.54615619981E+01  0.39712682056E+02  0.68303779367E+02  0.00000000000E+00 0.  1.
<scales pt_clust_5="13000.00000" pt_clust_6="13000.00000" pt_clust_7="13000.00000" pt_clust_8="13000.00000" pt_clust_9="55.57256"></scales>
<clustering>
<clus scale="   55.573">  1  9  2 -1</clus>
<clus scale="   78.255">  5  6 -1 -1</clus>
<clus scale="   81.108">  1  5  2 -1</clus>
<clus scale="   89.909">  7  8 -1 -1</clus>
<clus scale="   92.403">  2  5  1 -1</clus>
</clustering>
</event>
<event>
 9    1  0.3846604E-005  0.9464907E+02  0.7546771E-02  0.1298025E+00
          1   -1    0    0  502    0  0.00000000000E+00  0.00000000000E+00  0.48524115251E+02  0.48524115251E+02  0.00000000000E+00 0. -1.
         -2   -1    0    0    0  501 -0.00000000000E+00 -0.00000000000E+00 -0.43701663098E+03  0.43701663098E+03  0.00000000000E+00 0.  1.
         23    2    1    2    0    0  0.23009338277E+02 -0.22639445942E+02 -0.30265952838E+03  0.31775421932E+03  0.91230365641E+02 0.  0.
        -24    2    1    2    0    0 -0.25074221522E+02  0.18087230301E+01 -0.54566131830E+01  0.84729051126E+02  0.80729482925E+02 0.  0.
         11    1    4    4    0    0 -0.41496549526E+02  0.30488187223E+02 -0.26270030040E+01  0.51559619156E+02  0.00000000000E+00 0. -1.
        -12    1    4    4    0    0  0.16422328004E+02 -0.28679464193E+02 -0.28296101790E+01  0.33169431970E+02  0.00000000000E+00 0.  1.
        -13    1    3    3    0    0  0.38867192103E+02 -0.45170569996E+02 -0.26164058815E+03  0.26834089585E+03  0.00000000000E+00 0.  1.
         13    1    3    3    0    0 -0.15857853826E+02  0.22531124054E+02 -0.41018940235E+02  0.49413323478E+02  0.00000000000E+00 0. -1.
         21    1    1    2  502  501  0.20648832449E+01  0.20830722912E+02 -0.80376374158E+02  0.83057475778E+02  0.00000000000E+00 0.  1.
<scales pt_clust_5="13000.00000" pt_clust_6="13000.00000" pt_clust_7="13000.00000" pt_clust_8="13000.00000" pt_clust_9="20.93282"></scales>
<clustering>
<clus scale="   20.933">  2  9  1 -1</clus>
<clus scale="   80.729">  5  6 -1 -1</clus>
<clus scale="   84.574">  1  5  2 -1</clus>
<clus scale="   91.230">  7  8 -1 -1</clus>
<clus scale="   84.574">  1  5  2 -1</clus>
</clustering>
</event>
<event>
 9    1  0.3846604E-005  0.2344267E+03  0.7546771E-02  0.1124328E+00
          1   -1    0    0  502    0  0.00000000000E+00  0.00000000000E+00  0.94248259138E+03  0.94248259138E+03  0.00000000000E+00 0. -1.
         -2   -1    0    0    0  501 -0.00000000000E+00 -0.00000000000E+00 -0.79989938851E+02  0.79989938851E+02  0.00000000000E+00 0.  1.
         23    2    1    2    0    0  0.21779113484E+03 -0.41572909209E+01  0.19961851976E+03  0.30913880229E+03  0.90933954989E+02 0.  0.
        -24    2    1    2    0    0 -0.21395275853E+03  0.28101700476E+02  0.64003477424E+03  0.68002150526E+03  0.78862202165E+02 0.  0.
         11    1    4    4    0    0 -0.94937840635E+02  0.42271983746E+02  0.37522474816E+03  0.38935038952E+03  0.00000000000E+00 0. -1.
        -12    1    4    4    0    0 -0.11901491789E+03 -0.14170283270E+02  0.26481002608E+03  0.29067111574E+03  0.00000000000E+00 0.  1.
        -13    1    3    3    0    0  0.59857369332E+02  0.22934486904E+02  0.10508203023E+03  0.12308992010E+03  0.00000000000E+00 0. -1.
         13    1    3    3    0    0  0.15793376551E+03 -0.27091777825E+02  0.94536489529E+02  0.18604888220E+03  0.00000000000E+00 0.  1.
         21    1    1    2  502  501 -0.38383763126E+01 -0.23944409555E+02  0.22839358539E+02  0.33312222684E+02  0.00000000000E+00 0. -1.
<scales pt_clust_5="13000.00000" pt_clust_6="13000.00000" pt_clust_7="13000.00000" pt_clust_8="13000.00000" pt_clust_9="24.25011"></scales>
<clustering>
<clus scale="   24.250">  2  9  1 -1</clus>
<clus scale="   78.862">  5  6 -1 -1</clus>
<clus scale="   90.934">  7  8 -1 -1</clus>
<clus scale="  230.013">  1  5  2 -1</clus>
<clus scale="  230.013">  1  5  2 -1</clus>
</clustering>
</event>
<event>
 9    1  0.3846604E-005  0.1049423E+03  0.7546771E-02  0.1273906E+00
         -2   -1    0    0    0  501 -0.00000000000E+00  0.00000000000E+00  0.21238654646E+03  0.21238654646E+03  0.00000000000E+00 0.  1.
          1   -1    0    0  502    0  0.00000000000E+00 -0.00000000000E+00 -0.31358455658E+03  0.31358455658E+03  0.00000000000E+00 0. -1.
        -24    2    1    2    0    0  0.47518527382E+02 -0.32930321900E+02  0.17152206948E+03  0.19833914399E+03  0.81093644499E+02 0.  0.
         23    2    1    2    0    0 -0.10586042862E+02 -0.21310411008E+02 -0.23337989638E+03  0.25112238100E+03  0.89610692887E+02 0.  0.
         11    1    3    3    0    0  0.26977980588E+02  0.21496816498E+02  0.10207408047E+03  0.10774526653E+03  0.00000000000E+00 0. -1.
        -12    1    3    3    0    0  0.20540546794E+02 -0.54427138398E+02  0.69447989006E+02  0.90593877463E+02  0.00000000000E+00 0.  1.
        -11    1    4    4    0    0 -0.37891793962E+02  0.13567887769E+02 -0.60548068737E+02  0.72704499558E+02  0.00000000000E+00 0. -1.
         11    1    4    4    0    0  0.27305751101E+02 -0.34878298777E+02 -0.17283182765E+03  0.17841788144E+03  0.00000000000E+00 0.  1.
         21    1    1    2  502  501 -0.36932484520E+02  0.54240732908E+02 -0.39340183206E+02  0.76509578053E+02  0.00000000000E+00 0. -1.
<scales pt_clust_5="13000.00000" pt_clust_6="13000.00000" pt_clust_7="13000.00000" pt_clust_8="13000.00000" pt_clust_9="65.62062"></scales>
<clustering>
<clus scale="   65.621">  2  9  1 -1</clus>
<clus scale="   81.094">  5  6 -1 -1</clus>
<clus scale="   89.611">  7  8 -1 -1</clus>
<clus scale="   97.770">  1  5  2 -1</clus>
<clus scale="   65.621">  2  5  1 -1</clus>
</clustering>
</event>
<event>
 9    1  0.3846604E-005  0.1047913E+03  0.7546771E-02  0.1289832E+00
         -2   -1    0    0    0  501 -0.00000000000E+00  0.00000000000E+00  0.68751627297E+02  0.68751627297E+02  0.00000000000E+00 0.  1.
          1   -1    0    0  502    0  0.00000000000E+00 -0.00000000000E+00 -0.34279293659E+03  0.34279293659E+03  0.00000000000E+00 0. -1.
        -24    2    1    2    0    0  0.32400401432E+02  0.39361478889E+02 -0.23885622247E+02  0.87426947197E+02  0.66886740934E+02 0.  0.
         23    2    1    2    0    0 -0.20273791037E+02 -0.91367245116E+01 -0.26781971524E+03  0.28706888730E+03  0.10092888509E+03 0.  0.
         11    1    3    3    0    0  0.39755422555E+02  0.38648580307E+02  0.68028936881E+01  0.55861308119E+02  0.00000000000E+00 0. -1.
        -12    1    3    3    0    0 -0.73550211222E+01  0.71289858155E+00 -0.30688515935E+02  0.31565639078E+02  0.00000000000E+00 0.  1.
        -13    1    4    4    0    0  0.35664678416E+02  0.18974765496E+02 -0.11670449307E+03  0.12349878426E+03  0.00000000000E+00 0. -1.
         13    1    4    4    0    0 -0.55938469453E+02 -0.28111490007E+02 -0.15111522218E+03  0.16357010304E+03  0.00000000000E+00 0.  1.
         21    1    1    2  502  501 -0.12126610395E+02 -0.30224754377E+02  0.17664028200E+02  0.37048729385E+02  0.00000000000E+00 0.  1.
<scales pt_clust_5="13000.00000" pt_clust_6="13000.00000" pt_clust_7="13000.00000" pt_clust_8="13000.00000" pt_clust_9="32.56671"></scales>
<clustering>
<clus scale="   32.567">  1  9  2 -1</clus>
<clus scale="   66.887">  5  6 -1 -1</clus>
<clus scale="   72.584">  1  5  2 -1</clus>
<clus scale="  100.929">  7  8 -1 -1</clus>
<clus scale="  104.791">  2  5  1 -1</clus>
</clustering>
</event>
<event>
 9    1  0.3846604E-005  0.1398515E+03  0.7546771E-02  0.1217602E+00
          1   -1    0    0  502    0  0.00000000000E+00  0.00000000000E+00  0.98421685243E+02  0.98421685243E+02  0.00000000000E+00 0. -1.
         -2   -1    0    0    0  501 -0.00000000000E+00 -0.00000000000E+00 -0.42210999573E+03  0.42210999573E+03  0.00000000000E+00 0.  1.
        -24    2    1    2    0    0  0.81857465379E+02 -0.47099456264E+02 -0.20231702927E+03  0.23551043199E+03  0.74926496166E+02 0.  0.
         23    2    1    2    0    0 -0.82323695462E+02  0.12640757578E+03 -0.71000264662E+02  0.19106788554E+03  0.93326487420E+02 0.  0.
         11    1    3    3    0    0  0.67332985492E+02  0.17801726886E+01 -0.13684756426E+03  0.15252591843E+03  0.00000000000E+00 0. -1.
        -12    1    3    3    0    0  0.14524479887E+02 -0.48879628952E+02 -0.65469465009E+02  0.82984513562E+02  0.00000000000E+00 0.  1.
        -11    1    4    4    0    0 -0.40313657012E+02  0.88162945482E+02  0.39459916178E+01  0.97023021740E+02  0.00000000000E+00 0. -1.
         11    1    4    4    0    0 -0.42010038450E+02  0.38244630300E+02 -0.74946256279E+02  0.94044863802E+02  0.00000000000E+00 0.  1.
         21    1    1    2  502  501  0.46623008330E+00 -0.79308119517E+02 -0.50371016557E+02  0.93953363435E+02  0.00000000000E+00 0.  1.
<scales pt_clust_5="13000.00000" pt_clust_6="13000.00000" pt_clust_7="13000.00000" pt_clust_8="13000.00000" pt_clust_9="79.30949"></scales>
<clustering>
<clus scale="   74.926">  5  6 -1 -1</clus>
<clus scale="   79.309">  1  9  2 -1</clus>
<clus scale="   93.326">  7  8 -1 -1</clus>
<clus scale="  128.307">  2  5  1 -1</clus>
<clus scale="   79.309">  1  5  2 -1</clus>
</clustering>
</event>
<event>
 9    1  0.3846604E-005  0.9485151E+02  0.7546771E-02  0.1299610E+00
         -2   -1    0    0    0  501 -0.00000000000E+00  0.00000000000E+00  0.20089124029E+03  0.20089124029E+03  0.00000000000E+00 0.  1.
          1   -1    0    0  502    0  0.00000000000E+00 -0.00000000000E+00 -0.14449383374E+03  0.14449383374E+03  0.00000000000E+00 0. -1.
         23    2    1    2    0    0  0.15326787903E+02  0.21636504200E+02  0.15902148384E+03  0.18617486476E+03  0.93113904453E+02 0.  0.
        -24    2    1    2    0    0  0.60596878928E+01 -0.17177924446E+02 -0.10924653709E+03  0.13638221650E+03  0.79583303560E+02 0.  0.
         13    1    4    4    0    0 -0.26533736800E+02 -0.28967073189E+02 -0.86285353010E+02  0.94806606635E+02  0.00000000000E+00 0. -1.
        -14    1    4    4    0    0  0.32593424692E+02  0.11789148743E+02 -0.22961184084E+02  0.41575609867E+02  0.00000000000E+00 0.  1.
        -11    1    3    3    0    0  0.43516416733E+01 -0.36472251112E+02  0.48645284391E+02  0.60955111188E+02  0.00000000000E+00 0. -1.
         11    1    3    3    0    0  0.10975146229E+02  0.58108755312E+02  0.11037619945E+03  0.12521975357E+03  0.00000000000E+00 0.  1.
         21    1    1    2  502  501 -0.21386475795E+02 -0.44585797540E+01  0.66224597973E+01  0.22827992775E+02  0.00000000000E+00 0.  1.
<scales pt_clust_5="13000.00000" pt_clust_6="13000.00000" pt_clust_7="13000.00000" pt_clust_8="13000.00000" pt_clust_9="21.84629"></scales>
<clustering>
<clus scale="   21.846">  1  9  2 -1</clus>
<clus scale="   79.583">  5  6 -1 -1</clus>
<clus scale="   81.610">  2  5  1 -1</clus>
<clus scale="   93.114">  7  8 -1 -1</clus>
<clus scale="   81.610">  2  5  1 -1</clus>
</clustering>
</event>
<event>
 9    1  0.3846604E-005  0.1231216E+03  0.7546771E-02  0.1241751E+00
          1   -1    0    0  502    0  0.00000000000E+00  0.00000000000E+00  0.15834640745E+03  0.15834640745E+03  0.00000000000E+00 0. -1.
         -2   -1    0    0    0  501 -0.00000000000E+00 -0.00000000000E+00 -0.14956737134E+03  0.14956737134E+03  0.00000000000E+00 0.  1.
        -24    2    1    2    0    0  0.36713107037E+02  0.69558148715E+02 -0.20274262176E+02  0.11378472979E+03  0.79685197779E+02 0.  0.
         23    2    1    2    0    0  0.37387216144E+01 -0.87839459071E+02  0.59283892232E+02  0.14042201446E+03  0.92054405962E+02 0.  0.
         11    1    3    3    0    0  0.41122584161E+02 -0.79873848350E-01 -0.41257940768E-02  0.41122661939E+02  0.00000000000E+00 0. -1.
        -12    1    3    3    0    0 -0.44094771240E+01  0.69638022563E+02 -0.20270136382E+02  0.72662067848E+02  0.00000000000E+00 0.  1.
        -13    1    4    4    0    0 -0.23014263948E+02  0.39171180542E+01 -0.66914480674E+01  0.24285296707E+02  0.00000000000E+00 0.  1.
         13    1    4    4    0    0  0.26752985563E+02 -0.91756577125E+02  0.65975340299E+02  0.11613671775E+03  0.00000000000E+00 0. -1.
         21    1    1    2  502  501 -0.40451828652E+02  0.18281310356E+02 -0.30230593944E+02  0.53707034547E+02  0.00000000000E+00 0.  1.
<scales pt_clust_5="13000.00000" pt_clust_6="13000.00000" pt_clust_7="13000.00000" pt_clust_8="13000.00000" pt_clust_9="44.39095"></scales>
<clustering>
<clus scale="   44.391">  2  9  1 -1</clus>
<clus scale="   79.685">  5  6 -1 -1</clus>
<clus scale="   92.054">  7  8 -1 -1</clus>
<clus scale="  114.169">  2  5  1 -1</clus>
<clus scale="  123.122">  1  5  2 -1</clus>
</clustering>
</event>
<event>
 9    1  0.3846604E-005  0.1132631E+03  0.7546771E-02  0.1258627E+00
          1   -1    0    0  502    0  0.00000000000E+00  0.00000000000E+00  0.21609360399E+03  0.21609360399E+03  0.00000000000E+00 0. -1.
         -2   -1    0    0    0  501 -0.00000000000E+00 -0.00000000000E+00 -0.20036473690E+03  0.20036473690E+03  0.00000000000E+00 0.  1.
        -24    2    1    2    0    0  0.31968006461E+02 -0.43131629008E+02 -0.96063710763E+02  0.13620360003E+03  0.80255176010E+02 0.  0.
         23    2    1    2    0    0 -0.61830298821E+02  0.32661980301E+02  0.17513056609E+03  0.20945169854E+03  0.91156502973E+02 0.  0.
         11    1    3    3    0    0  0.15237249525E+01 -0.55745672083E+02 -0.32345384638E+02  0.64468019987E+02  0.00000000000E+00 0. -1.
        -12    1    3    3    0    0  0.30444281509E+02  0.12614043074E+02 -0.63718326125E+02  0.71735580039E+02  0.00000000000E+00 0.  1.
        -11    1    4    4    0    0  0.22662688586E+02  0.25502140454E+01  0.20383432110E+02  0.30587339704E+02  0.00000000000E+00 0.  1.
         11    1    4    4    0    0 -0.84492987406E+02  0.30111766255E+02  0.15474713398E+03  0.17886435884E+03  0.00000000000E+00 0. -1.
         21    1    1    2  502  501  0.29862292359E+02  0.10469648708E+02 -0.63337988228E+02  0.70803042321E+02  0.00000000000E+00 0. -1.
<scales pt_clust_5="13000.00000" pt_clust_6="13000.00000" pt_clust_7="13000.00000" pt_clust_8="13000.00000" pt_clust_9="31.64443"></scales>
<clustering>
<clus scale="   31.644">  2  9  1 -1</clus>
<clus scale="   80.255">  5  6 -1 -1</clus>
<clus scale="   91.157">  7  8 -1 -1</clus>
<clus scale="  104.690">  2  5  1 -1</clus>
<clus scale="  113.263">  1  5  2 -1</clus>
</clustering>
</event>
<event>
 9    1  0.3846604E-005  0.1897754E+03  0.7546771E-02  0.1159043E+00
          1   -1    0    0  502    0  0.00000000000E+00  0.00000000000E+00  0.12290329695E+04  0.12290329695E+04  0.00000000000E+00 0. -1.
         -2   -1    0    0    0  501 -0.00000000000E+00 -0.00000000000E+00 -0.88961951507E+02  0.88961951507E+02  0.00000000000E+00 0.  1.
         23    2    1    2    0    0  0.16431475346E+03  0.43369912944E+02  0.20103486752E+03  0.27908930726E+03  0.92712113082E+02 0.  0.
        -24    2    1    2    0    0 -0.15280863193E+03 -0.61831460345E+02  0.97717875972E+03  0.99499572645E+03  0.89244381983E+02 0.  0.
         11    1    4    4    0    0 -0.12263663041E+03 -0.85164861793E+02  0.78029715037E+03  0.79445354784E+03  0.00000000000E+00 0. -1.
        -12    1    4    4    0    0 -0.30172001526E+02  0.23333401448E+02  0.19688160935E+03  0.20054217861E+03  0.00000000000E+00 0.  1.
        -11    1    3    3    0    0  0.20442278869E+02  0.28531946823E+02  0.90452015890E+02  0.97023326749E+02  0.00000000000E+00 0. -1.
         11    1    3    3    0    0  0.14387247459E+03  0.14837966120E+02  0.11058285163E+03  0.18206598051E+03  0.00000000000E+00 0.  1.
         21    1    1    2  502  501 -0.11506121525E+02  0.18461547402E+02 -0.38142609236E+02  0.43909887319E+02  0.00000000000E+00 0.  1.
<scales pt_clust_5="13000.00000" pt_clust_6="13000.00000" pt_clust_7="13000.00000" pt_clust_8="13000.00000" pt_clust_9="21.75361"></scales>
<clustering>
<clus scale="   21.754">  2  9  1 -1</clus>
<clus scale="   89.244">  5  6 -1 -1</clus>
<clus scale="   92.712">  7  8 -1 -1</clus>
<clus scale="  188.106">  1  5  2 -1</clus>
<clus scale="  188.106">  1  5  2 -1</clus>
</clustering>
</event>
<event>
 9    1  0.3846604E-005  0.1386480E+03  0.7546771E-02  0.1216783E+00
         -2   -1    0    0    0  501 -0.00000000000E+00  0.00000000000E+00  0.35015669742E+03  0.35015669742E+03  0.00000000000E+00 0.  1.
          1   -1    0    0  502    0  0.00000000000E+00 -0.00000000000E+00 -0.13388217938E+03  0.13388217938E+03  0.00000000000E+00 0. -1.
         23    2    1    2    0    0  0.92493243333E+02  0.10075797729E+03  0.24847728736E+03  0.29760949754E+03  0.90129244098E+02 0.  0.
        -24    2    1    2    0    0 -0.69833054146E+02 -0.72240510494E+02 -0.57272657035E+02  0.14221140376E+03  0.82756143632E+02 0.  0.
         11    1    4    4    0    0 -0.78389035151E+02 -0.33698870826E+02 -0.57212734833E+02  0.10273145455E+03  0.00000000000E+00 0. -1.
        -12    1    4    4    0    0  0.85559810051E+01 -0.38541639668E+02 -0.59922201604E-01  0.39479949214E+02  0.00000000000E+00 0.  1.
        -11    1    3    3    0    0  0.38990531098E+02  0.18645300273E+02  0.17367891727E+02  0.46578454253E+02  0.00000000000E+00 0. -1.
         11    1    3    3    0    0  0.53502712235E+02  0.82112677018E+02  0.23110939563E+03  0.25103104329E+03  0.00000000000E+00 0.  1.
         21    1    1    2  502  501 -0.22660189187E+02 -0.28517466797E+02  0.25069887719E+02  0.44217975494E+02  0.00000000000E+00 0.  1.
<scales pt_clust_5="13000.00000" pt_clust_6="13000.00000" pt_clust_7="13000.00000" pt_clust_8="13000.00000" pt_clust_9="36.42431"></scales>
<clustering>
<clus scale="   36.424">  1  9  2 -1</clus>
<clus scale="   82.756">  5  6 -1 -1</clus>
<clus scale="   90.129">  7  8 -1 -1</clus>
<clus scale="  133.972">  2  5  1 -1</clus>
<clus scale="  133.972">  2  5  1 -1</clus>
</clustering>
</event>
<event>
 9    1  0.3846604E-005  0.1351409E+03  0.7546771E-02  0.1222402E+00
         -2   -1    0    0    0  501 -0.00000000000E+00  0.00000000000E+00  0.40972195441E+02  0.40972195441E+02  0.00000000000E+00 0.  1.
          1   -1    0    0  502    0  0.00000000000E+00 -0.00000000000E+00 -0.52012145493E+03  0.52012145493E+03  0.00000000000E+00 0. -1.
        -24    2    1    2    0    0 -0.35338686852E+02 -0.82452355926E+02 -0.17759417607E+03  0.21460361733E+03  0.80422679713E+02 0.  0.
         23    2    1    2    0    0  0.54882487512E+02  0.95816765693E+02 -0.28068881644E+03  0.31493106141E+03  0.90567222234E+02 0.  0.
         13    1    3    3    0    0  0.19612109286E+02 -0.35941789598E+02 -0.31240043697E+02  0.51501333967E+02  0.00000000000E+00 0. -1.
        -14    1    3    3    0    0 -0.54950796139E+02 -0.46510566328E+02 -0.14635413238E+03  0.16310228337E+03  0.00000000000E+00 0.  1.
        -13    1    4    4    0    0 -0.14401874463E+02  0.65511092651E+02 -0.13824231203E+03  0.15365563473E+03  0.00000000000E+00 0.  1.
         13    1    4    4    0    0  0.69284361975E+02  0.30305673042E+02 -0.14244650441E+03  0.16127542668E+03  0.00000000000E+00 0. -1.
         21    1    1    2  502  501 -0.19543800660E+02 -0.13364409767E+02 -0.20866266983E+02  0.31558971632E+02  0.00000000000E+00 0.  1.
<scales pt_clust_5="13000.00000" pt_clust_6="13000.00000" pt_clust_7="13000.00000" pt_clust_8="13000.00000" pt_clust_9="23.67631"></scales>
<clustering>
<clus scale="   23.676">  1  9  2 -1</clus>
<clus scale="   80.423">  5  6 -1 -1</clus>
<clus scale="   90.567">  7  8 -1 -1</clus>
<clus scale="  128.563">  1  5  2 -1</clus>
<clus scale="  135.141">  2  5  1 -1</clus>
</clustering>
</event>
<event>
 9    1  0.3846604E-005  0.9264162E+02  0.7546771E-02  0.1303789E+00
         -2   -1    0    0    0  501 -0.00000000000E+00  0.00000000000E+00  0.18839543685E+03  0.18839543685E+03  0.00000000000E+00 0.  1.
          1   -1    0    0  502    0  0.00000000000E+00 -0.00000000000E+00 -0.27487734115E+03  0.27487734115E+03  0.00000000000E+00 0. -1.
         23    2    1    2    0    0  0.25371362278E+02  0.22866173396E+02  0.72053005377E+02  0.12132962536E+03  0.91447659868E+02 0.  0.
        -24    2    1    2    0    0 -0.13498856378E+02  0.58970049362E+01 -0.24074740605E+03  0.25403882179E+03  0.79745944502E+02 0.  0.
         13    1    4    4    0    0 -0.27461107331E+02 -0.30563810642E+02 -0.10385455500E+03  0.11168718607E+03  0.00000000000E+00 0. -1.
        -14    1    4    4    0    0  0.13962250953E+02  0.36460815578E+02 -0.13689285105E+03  0.14235163572E+03  0.00000000000E+00 0.  1.
        -13    1    3    3    0    0 -0.59719200226E+01 -0.30310389398E+02  0.43412119130E+02  0.53282226132E+02  0.00000000000E+00 0.  1.
         13    1    3    3    0    0  0.31343282301E+02  0.53176562794E+02  0.28640886247E+02  0.68047399223E+02  0.00000000000E+00 0. -1.
         21    1    1    2  502  501 -0.11872505900E+02 -0.28763178332E+02  0.82212496377E+02  0.87904330863E+02  0.00000000000E+00 0.  1.
<scales pt_clust_5="13000.00000" pt_clust_6="13000.00000" pt_clust_7="13000.00000" pt_clust_8="13000.00000" pt_clust_9="31.11715"></scales>
<clustering>
<clus scale="   31.117">  1  9  2 -1</clus>
<clus scale="   79.746">  5  6 -1 -1</clus>
<clus scale="   81.112">  2  5  1 -1</clus>
<clus scale="   91.448">  7  8 -1 -1</clus>
<clus scale="   81.112">  2  5  1 -1</clus>
</clustering>
</event>
<event>
 9    1  0.3846604E-005  0.9207418E+02  0.7546771E-02  0.1305057E+00
         -2   -1    0    0    0  501 -0.00000000000E+00  0.00000000000E+00  0.17923550669E+03  0.17923550669E+03  0.00000000000E+00 0.  1.
          1   -1    0    0  502    0  0.00000000000E+00 -0.00000000000E+00 -0.43565623621E+03  0.43565623621E+03  0.00000000000E+00 0. -1.
         23    2    1    2    0    0 -0.32718972213E+02 -0.45136211059E+01  0.66077339183E+01  0.97742736929E+02  0.91755526027E+02 0.  0.
        -24    2    1    2    0    0 -0.92405847664E+01 -0.53989025026E+01 -0.38205115826E+03  0.39055807253E+03  0.80361582481E+02 0.  0.
         11    1    4    4    0    0 -0.11368269422E+02 -0.26901934044E+02 -0.50753888018E+02  0.58556884769E+02  0.00000000000E+00 0. -1.
        -12    1    4    4    0    0  0.21276846557E+01  0.21503031541E+02 -0.33129727024E+03  0.33200118777E+03  0.00000000000E+00 0.  1.
        -13    1    3    3    0    0  0.27188129339E+02 -0.14461703351E+02 -0.13706537142E+02  0.33707631201E+02  0.00000000000E+00 0.  1.
         13    1    3    3    0    0 -0.59907101553E+02  0.99480822454E+01  0.20314271060E+02  0.64035105727E+02  0.00000000000E+00 0. -1.
         21    1    1    2  502  501  0.41959556980E+02  0.99125236086E+01  0.11902269482E+03  0.12659093344E+03  0.00000000000E+00 0.  1.
<scales pt_clust_5="13000.00000" pt_clust_6="13000.00000" pt_clust_7="13000.00000" pt_clust_8="13000.00000" pt_clust_9="43.11453"></scales>
<clustering>
<clus scale="   43.115">  1  9  2 -1</clus>
<clus scale="   80.362">  5  6 -1 -1</clus>
<clus scale="   80.725">  2  5  1 -1</clus>
<clus scale="   91.756">  7  8 -1 -1</clus>
<clus scale="   80.725">  2  5  1 -1</clus>
</clustering>
</event>
<event>
 9    1  0.3846604E-005  0.2417814E+03  0.7546771E-02  0.1119459E+00
         -2   -1    0    0    0  501 -0.00000000000E+00  0.00000000000E+00  0.77211867825E+03  0.77211867825E+03  0.00000000000E+00 0.  1.
          1   -1    0    0  502    0  0.00000000000E+00 -0.00000000000E+00 -0.12233650763E+03  0.12233650763E+03  0.00000000000E+00 0. -1.
         23    2    1    2    0    0  0.13979582385E+03 -0.16933242489E+03  0.54826445699E+03  0.59782194535E+03  0.92632721333E+02 0.  0.
        -24    2    1    2    0    0 -0.13426353941E+03  0.19616815001E+03  0.83660665545E+02  0.26392794310E+03  0.78423281598E+02 0.  0.
         13    1    4    4    0    0 -0.29707889509E+02  0.93205187873E+02  0.62631527808E+01  0.98025470304E+02  0.00000000000E+00 0. -1.
        -14    1    4    4    0    0 -0.10455564990E+03  0.10296296214E+03  0.77397512764E+02  0.16590247279E+03  0.00000000000E+00 0.  1.
        -11    1    3    3    0    0  0.62466172869E+02 -0.12784211223E+03  0.41069916343E+03  0.43464862965E+03  0.00000000000E+00 0.  1.
         11    1    3    3    0    0  0.77329650986E+02 -0.41490312659E+02  0.13756529356E+03  0.16317331570E+03  0.00000000000E+00 0. -1.
         21    1    1    2  502  501 -0.55322844498E+01 -0.26835725124E+02  0.17857048089E+02  0.32705297439E+02  0.00000000000E+00 0. -1.
<scales pt_clust_5="13000.00000" pt_clust_6="13000.00000" pt_clust_7="13000.00000" pt_clust_8="13000.00000" pt_clust_9="27.40004"></scales>
<clustering>
<clus scale="   27.400">  2  9  1 -1</clus>
<clus scale="   78.423">  5  6 -1 -1</clus>
<clus scale="   92.633">  7  8 -1 -1</clus>
<clus scale="  236.702">  2  5  1 -1</clus>
<clus scale="   27.400">  2  5  1 -1</clus>
</clustering>
</event>
<event>
 9    1  0.3846604E-005  0.9477825E+02  0.7546771E-02  0.1297395E+00
         -2   -1    0    0    0  501 -0.00000000000E+00  0.00000000000E+00  0.36738567287E+03  0.36738567287E+03  0.00000000000E+00 0.  1.
          1   -1    0    0  502    0  0.00000000000E+00 -0.00000000000E+00 -0.65691548751E+02  0.65691548751E+02  0.00000000000E+00 0. -1.
        -24    2    1    2    0    0 -0.29635768508E+02 -0.17607320658E+02  0.14986556326E+03  0.17538763707E+03  0.84337652732E+02 0.  0.
         23    2    1    2    0    0  0.73658886473E+01 -0.20662158925E+01 -0.84520604901E+01  0.94677704100E+02  0.93988854464E+02 0.  0.
         13    1    3    3    0    0  0.20303991515E+02 -0.13016031942E+02  0.10616021748E+03  0.10886533394E+03  0.00000000000E+00 0. -1.
        -14    1    3    3    0    0 -0.49939760023E+02 -0.45912887163E+01  0.43705345783E+02  0.66522303126E+02  0.00000000000E+00 0.  1.
        -13    1    4    4    0    0 -0.22174776582E+02  0.34617360491E+02 -0.20677288292E+02  0.46017742393E+02  0.00000000000E+00 0.  1.
         13    1    4    4    0    0  0.29540665230E+02 -0.36683576383E+02  0.12225227802E+02  0.48659961707E+02  0.00000000000E+00 0. -1.
         21    1    1    2  502  501  0.22269879861E+02  0.19673536551E+02  0.16028062134E+03  0.16301188045E+03  0.00000000000E+00 0.  1.
<scales pt_clust_5="13000.00000" pt_clust_6="13000.00000" pt_clust_7="13000.00000" pt_clust_8="13000.00000" pt_clust_9="29.71524"></scales>
<clustering>
<clus scale="   29.715">  1  9  2 -1</clus>
<clus scale="   84.338">  5  6 -1 -1</clus>
<clus scale="   85.216">  1  5  2 -1</clus>
<clus scale="   93.989">  7  8 -1 -1</clus>
<clus scale="   94.778">  2  5  1 -1</clus>
</clustering>
</event>
<event>
 9    1  0.3846604E-005  0.2525900E+03  0.7546771E-02  0.1112517E+00
          1   -1    0    0  502    0  0.00000000000E+00  0.00000000000E+00  0.23696756443E+03  0.23696756443E+03  0.00000000000E+00 0. -1.
         -2   -1    0    0    0  501 -0.00000000000E+00 -0.00000000000E+00 -0.61022460504E+03  0.61022460504E+03  0.00000000000E+00 0.  1.
        -24    2    1    2    0    0  0.72901477088E+02  0.24873777974E+03 -0.12091270194E+03  0.29712918782E+03  0.80503194544E+02 0.  0.
         23    2    1    2    0    0 -0.20026885282E+03 -0.13402665878E+03 -0.18203640069E+02  0.25988552489E+03  0.95594742849E+02 0.  0.
         13    1    3    3    0    0  0.85473598578E+02  0.22182237047E+03 -0.89811415272E+02  0.25412003150E+03  0.00000000000E+00 0. -1.
        -14    1    3    3    0    0 -0.12572121490E+02  0.26915409264E+02 -0.31101286670E+02  0.43009156317E+02  0.00000000000E+00 0.  1.
        -11    1    4    4    0    0 -0.10995040477E+03 -0.12298122465E+03  0.81145136183E+01  0.16516451936E+03  0.00000000000E+00 0. -1.
         11    1    4    4    0    0 -0.90318448055E+02 -0.11045434127E+02 -0.26318153688E+02  0.94721005525E+02  0.00000000000E+00 0.  1.
         21    1    1    2  502  501  0.12736737573E+03 -0.11471112096E+03 -0.23414069860E+03  0.29017745676E+03  0.00000000000E+00 0. -1.
<scales pt_clust_5="13000.00000" pt_clust_6="13000.00000" pt_clust_7="13000.00000" pt_clust_8="13000.00000" pt_clust_9="171.40913"></scales>
<clustering>
<clus scale="   80.503">  5  6 -1 -1</clus>
<clus scale="   95.595">  7  8 -1 -1</clus>
<clus scale="  171.409">  2  9  1 -1</clus>
<clus scale="  247.273">  2  5  1 -1</clus>
<clus scale="  252.590">  1  5  2 -1</clus>
</clustering>
</event>
<event>
 9    1  0.3846604E-005  0.9710094E+02  0.7546771E-02  0.1292972E+00
         -2   -1    0    0    0  501 -0.00000000000E+00  0.00000000000E+00  0.10123968836E+03  0.10123968836E+03  0.00000000000E+00 0.  1.
          1   -1    0    0  502    0  0.00000000000E+00 -0.00000000000E+00 -0.20868734995E+03  0.20868734995E+03  0.00000000000E+00 0. -1.
        -24    2    1    2    0    0 -0.14062805802E+02 -0.51528434807E+02  0.32255262058E+02  0.10102383779E+03  0.79451065262E+02 0.  0.
         23    2    1    2    0    0 -0.13471078419E+02  0.27551835467E+02 -0.14280720552E+03  0.17226130289E+03  0.91320780400E+02 0.  0.
         13    1    3    3    0    0 -0.14026346922E+02  0.18638169972E+02 -0.10585769284E+01  0.23350382716E+02  0.00000000000E+00 0. -1.
        -14    1    3    3    0    0 -0.36458879665E-01 -0.70166604779E+02  0.33313838987E+02  0.77673455076E+02  0.00000000000E+00 0.  1.
        -11    1    4    4    0    0 -0.16427305041E+02 -0.30591383020E+02 -0.32632177577E+02  0.47650268408E+02  0.00000000000E+00 0.  1.
         11    1    4    4    0    0  0.29562266219E+01  0.58143218486E+02 -0.11017502794E+03  0.12461103448E+03  0.00000000000E+00 0. -1.
         21    1    1    2  502  501  0.27533884221E+02  0.23976599340E+02  0.31042818755E+01  0.36641897634E+02  0.00000000000E+00 0. -1.
<scales pt_clust_5="13000.00000" pt_clust_6="13000.00000" pt_clust_7="13000.00000" pt_clust_8="13000.00000" pt_clust_9="36.51016"></scales>
<clustering>
<clus scale="   36.510">  1  9  2 -1</clus>
<clus scale="   79.451">  5  6 -1 -1</clus>
<clus scale="   86.032">  1  5  2 -1</clus>
<clus scale="   91.321">  7  8 -1 -1</clus>
<clus scale="   97.101">  2  5  1 -1</clus>
</clustering>
</event>
<event>
 9    1  0.3846604E-005  0.1017033E+03  0.7546771E-02  0.1280961E+00
         -2   -1    0    0    0  501 -0.00000000000E+00  0.00000000000E+00  0.64887347831E+02  0.64887347831E+02  0.00000000000E+00 0.  1.
          1   -1    0    0  502    0  0.00000000000E+00 -0.00000000000E+00 -0.35765676736E+03  0.35765676736E+03  0.00000000000E+00 0. -1.
        -24    2    1    2    0    0 -0.26595149112E+02  0.33009019241E+02 -0.58627972070E+02  0.11056167123E+03  0.83604705178E+02 0.  0.
         23    2    1    2    0    0  0.49760901653E+02  0.18378102776E+02 -0.23235340400E+03  0.25558665068E+03  0.92317547957E+02 0.  0.
         11    1    3    3    0    0 -0.19581941540E+02  0.50210603912E+02 -0.70331259660E+02  0.88606113023E+02  0.00000000000E+00 0. -1.
        -12    1    3    3    0    0 -0.70132075726E+01 -0.17201584671E+02  0.11703287590E+02  0.21955558204E+02  0.00000000000E+00 0.  1.
        -13    1    4    4    0    0  0.68372521616E+02 -0.52694216173E+01 -0.11031040735E+03  0.12988823844E+03  0.00000000000E+00 0. -1.
         13    1    4    4    0    0 -0.18611619963E+02  0.23647524394E+02 -0.12204299665E+03  0.12569841224E+03  0.00000000000E+00 0.  1.
         21    1    1    2  502  501 -0.23165752541E+02 -0.51387122017E+02 -0.17880434532E+01  0.56395793277E+02  0.00000000000E+00 0.  1.
<scales pt_clust_5="13000.00000" pt_clust_6="13000.00000" pt_clust_7="13000.00000" pt_clust_8="13000.00000" pt_clust_9="56.36744"></scales>
<clustering>
<clus scale="   56.367">  1  9  2 -1</clus>
<clus scale="   83.605">  5  6 -1 -1</clus>
<clus scale="   92.318">  7  8 -1 -1</clus>
<clus scale="   93.866">  1  5  2 -1</clus>
<clus scale="  101.703">  2  5  1 -1</clus>
</clustering>
</event>
<event>
 9    1  0.3846604E-005  0.1514251E+03  0.7546771E-02  0.1201722E+00
         -2   -1    0    0    0  501 -0.00000000000E+00  0.00000000000E+00  0.26241966236E+03  0.26241966236E+03  0.00000000000E+00 0.  1.
          1   -1    0    0  502    0  0.00000000000E+00 -0.00000000000E+00 -0.53211721373E+03  0.53211721373E+03  0.00000000000E+00 0. -1.
        -24    2    1    2    0    0  0.13882912633E+03  0.10172757706E+02  0.19410177486E+03  0.25072215766E+03  0.76217386601E+02 0.  0.
         23    2    1    2    0    0 -0.11772095692E+03 -0.15368868266E+02 -0.48832938220E+03  0.51103853764E+03  0.92738210187E+02 0.  0.
         11    1    3    3    0    0  0.40074827756E+02  0.36281199319E+02  0.89208556548E+02  0.10430955759E+03  0.00000000000E+00 0. -1.
        -12    1    3    3    0    0  0.98754298573E+02 -0.26108441614E+02  0.10489321831E+03  0.14641260006E+03  0.00000000000E+00 0.  1.
        -13    1    4    4    0    0 -0.53550268857E+02  0.34738373462E+02 -0.14934424339E+03  0.16241332740E+03  0.00000000000E+00 0.  1.
         13    1    4    4    0    0 -0.64170688059E+02 -0.50107241727E+02 -0.33898513881E+03  0.34862521024E+03  0.00000000000E+00 0. -1.
         21    1    1    2  502  501 -0.21108169413E+02  0.51961105602E+01  0.24530055973E+02  0.32776180786E+02  0.00000000000E+00 0.  1.
<scales pt_clust_5="13000.00000" pt_clust_6="13000.00000" pt_clust_7="13000.00000" pt_clust_8="13000.00000" pt_clust_9="21.73832"></scales>
<clustering>
<clus scale="   21.738">  1  9  2 -1</clus>
<clus scale="   76.217">  5  6 -1 -1</clus>
<clus scale="   92.738">  7  8 -1 -1</clus>
<clus scale="  141.909">  1  5  2 -1</clus>
<clus scale="  151.425">  2  5  1 -1</clus>
</clustering>
</event>
<event>
 9    1  0.3846604E-005  0.1295970E+03  0.7546771E-02  0.1231159E+00
         -2   -1    0    0    0  501 -0.00000000000E+00  0.00000000000E+00  0.56848270936E+03  0.56848270936E+03  0.00000000000E+00 0.  1.
          1   -1    0    0  502    0  0.00000000000E+00 -0.00000000000E+00 -0.51288816432E+02  0.51288816432E+02  0.00000000000E+00 0. -1.
         23    2    1    2    0    0 -0.52978951883E+02  0.73260866133E+02  0.26882525664E+03  0.29827183717E+03  0.92331719299E+02 0.  0.
        -24    2    1    2    0    0  0.14276372685E+02 -0.92974451033E+02  0.79683216797E+02  0.14731218674E+03  0.80643672783E+02 0.  0.
         11    1    4    4    0    0  0.35699374365E+01 -0.10329001329E+03  0.51555373701E+02  0.11549687379E+03  0.00000000000E+00 0. -1.
        -12    1    4    4    0    0  0.10706435248E+02  0.10315562257E+02  0.28127843096E+02  0.31815312942E+02  0.00000000000E+00 0.  1.
        -11    1    3    3    0    0 -0.34051254297E+02  0.12402619171E+02  0.19955282803E+02  0.41370595756E+02  0.00000000000E+00 0. -1.
         11    1    3    3    0    0 -0.18927697586E+02  0.60858246962E+02  0.24886997384E+03  0.25690124141E+03  0.00000000000E+00 0.  1.
         21    1    1    2  502  501  0.38702579198E+02  0.19713584900E+02  0.16868541949E+03  0.17418750189E+03  0.00000000000E+00 0.  1.
<scales pt_clust_5="13000.00000" pt_clust_6="13000.00000" pt_clust_7="13000.00000" pt_clust_8="13000.00000" pt_clust_9="43.43403"></scales>
<clustering>
<clus scale="   43.434">  1  9  2 -1</clus>
<clus scale="   80.644">  5  6 -1 -1</clus>
<clus scale="   92.332">  7  8 -1 -1</clus>
<clus scale="  121.547">  2  5  1 -1</clus>
<clus scale="  121.547">  2  5  1 -1</clus>
</clustering>
</event>
<event>
 9    1  0.3846604E-005  0.9231036E+02  0.7546771E-02  0.1303795E+00
          1   -1    0    0  502    0  0.00000000000E+00  0.00000000000E+00  0.21523468019E+03  0.21523468019E+03  0.00000000000E+00 0. -1.
         -2   -1    0    0    0  501 -0.00000000000E+00 -0.00000000000E+00 -0.20749570540E+03  0.20749570540E+03  0.00000000000E+00 0.  1.
        -24    2    1    2    0    0  0.25128970399E+02 -0.57233964377E+02  0.14367977878E+02  0.10142761978E+03  0.78574368819E+02 0.  0.
         23    2    1    2    0    0 -0.20918521759E+02 -0.78608313675E+01  0.13613823046E+03  0.16433925640E+03  0.89299474676E+02 0.  0.
         11    1    3    3    0    0  0.98911380627E+01 -0.45898500726E+02  0.45227547055E+02  0.65192315449E+02  0.00000000000E+00 0. -1.
        -12    1    3    3    0    0  0.15237832336E+02 -0.11335463651E+02 -0.30859569177E+02  0.36235304335E+02  0.00000000000E+00 0.  1.
        -11    1    4    4    0    0 -0.14154233606E+02  0.30102384929E+02  0.13704397471E+02  0.35976470330E+02  0.00000000000E+00 0. -1.
         11    1    4    4    0    0 -0.67642881523E+01 -0.37963216297E+02  0.12243383299E+03  0.12836278607E+03  0.00000000000E+00 0.  1.
         21    1    1    2  502  501 -0.42104486404E+01  0.65094795744E+02 -0.14276723355E+03  0.15696350941E+03  0.00000000000E+00 0.  1.
<scales pt_clust_5="13000.00000" pt_clust_6="13000.00000" pt_clust_7="13000.00000" pt_clust_8="13000.00000" pt_clust_9="65.23082"></scales>
<clustering>
<clus scale="   65.231">  2  9  1 -1</clus>
<clus scale="   78.574">  5  6 -1 -1</clus>
<clus scale="   81.980">  2  5  1 -1</clus>
<clus scale="   89.299">  7  8 -1 -1</clus>
<clus scale="   92.310">  1  5  2 -1</clus>
</clustering>
</event>
<event>
 9    1  0.3846604E-005  0.1038418E+03  0.7546771E-02  0.1272835E+00
          1   -1    0    0  502    0  0.00000000000E+00  0.00000000000E+00  0.19953987674E+03  0.19953987674E+03  0.00000000000E+00 0. -1.
         -2   -1    0    0    0  501 -0.00000000000E+00 -0.00000000000E+00 -0.14939738102E+03  0.14939738102E+03  0.00000000000E+00 0.  1.
        -24    2    1    2    0    0  0.53476870649E+02 -0.14511848348E+02 -0.78476215125E+02  0.13361923893E+03  0.92872036883E+02 0.  0.
         23    2    1    2    0    0  0.74977898657E+01  0.44666406440E+02  0.93638207879E+02  0.13882722077E+03  0.91943344163E+02 0.  0.
         13    1    3    3    0    0  0.28286659903E+02 -0.35595354656E+02  0.32062451754E+01  0.45578990881E+02  0.00000000000E+00 0. -1.
        -14    1    3    3    0    0  0.25190210746E+02  0.21083506308E+02 -0.81682460301E+02  0.88040248049E+02  0.00000000000E+00 0.  1.
        -11    1    4    4    0    0  0.40335281861E+02  0.51234312235E+02  0.42967094041E+02  0.78090081850E+02  0.00000000000E+00 0.  1.
         11    1    4    4    0    0 -0.32837491995E+02 -0.65679057954E+01  0.50671113838E+02  0.60737138924E+02  0.00000000000E+00 0. -1.
         21    1    1    2  502  501 -0.60974660514E+02 -0.30154558092E+02  0.34980502972E+02  0.76490798053E+02  0.00000000000E+00 0. -1.
<scales pt_clust_5="13000.00000" pt_clust_6="13000.00000" pt_clust_7="13000.00000" pt_clust_8="13000.00000" pt_clust_9="68.02357"></scales>
<clustering>
<clus scale="   68.024">  1  9  2 -1</clus>
<clus scale="   91.943">  7  8 -1 -1</clus>
<clus scale="   92.872">  5  6 -1 -1</clus>
<clus scale="  103.012">  1  7  2 -1</clus>
<clus scale="   68.024">  1  5  2 -1</clus>
</clustering>
</event>
<event>
 9    1  0.3846604E-005  0.8963880E+02  0.7546771E-02  0.1305168E+00
          1   -1    0    0  502    0  0.00000000000E+00  0.00000000000E+00  0.39976645985E+03  0.39976645985E+03  0.00000000000E+00 0. -1.
         -2   -1    0    0    0  501 -0.00000000000E+00 -0.00000000000E+00 -0.85470848954E+02  0.85470848954E+02  0.00000000000E+00 0.  1.
         23    2    1    2    0    0  0.13547709108E+02  0.70477900423E+01 -0.43264615533E+02  0.95088826147E+02  0.83287730995E+02 0.  0.
        -24    2    1    2    0    0 -0.33136146435E+02  0.10917694612E+02  0.35221304135E+03  0.36303653135E+03  0.80773116437E+02 0.  0.
         11    1    4    4    0    0 -0.24929958734E+01  0.39052724179E+02  0.99432306139E+02  0.10685557448E+03  0.00000000000E+00 0. -1.
        -12    1    4    4    0    0 -0.30643150562E+02 -0.28135029567E+02  0.25278073521E+03  0.25618095686E+03  0.00000000000E+00 0.  1.
        -11    1    3    3    0    0  0.40389390263E+02 -0.11596834271E+02 -0.45986340130E+02  0.62293923375E+02  0.00000000000E+00 0.  1.
         11    1    3    3    0    0 -0.26841681155E+02  0.18644624313E+02  0.27217245967E+01  0.32794902772E+02  0.00000000000E+00 0. -1.
         21    1    1    2  502  501  0.19588437327E+02 -0.17965484655E+02  0.53471850845E+01  0.27111951315E+02  0.00000000000E+00 0. -1.
<scales pt_clust_5="13000.00000" pt_clust_6="13000.00000" pt_clust_7="13000.00000" pt_clust_8="13000.00000" pt_clust_9="26.57942"></scales>
<clustering>
<clus scale="   26.579">  2  9  1 -1</clus>
<clus scale="   80.773">  5  6 -1 -1</clus>
<clus scale="   83.288">  7  8 -1 -1</clus>
<clus scale="   87.307">  1  5  2 -1</clus>
<clus scale="   87.307">  1  5  2 -1</clus>
</clustering>
</event>
<event>
 9    1  0.3846604E-005  0.1163588E+03  0.7546771E-02  0.1251294E+00
          1   -1    0    0  502    0  0.00000000000E+00  0.00000000000E+00  0.20206124569E+03  0.20206124569E+03  0.00000000000E+00 0. -1.
         -2   -1    0    0    0  501 -0.00000000000E+00 -0.00000000000E+00 -0.16078870712E+03  0.16078870712E+03  0.00000000000E+00 0.  1.
         23    2    1    2    0    0  0.63328724854E+02  0.15598058542E+02 -0.28754629015E+02  0.11514662546E+03  0.90432791855E+02 0.  0.
        -24    2    1    2    0    0 -0.36856938943E+01 -0.97819672416E+02  0.68271620054E+02  0.14611215216E+03  0.84293975184E+02 0.  0.
         11    1    4    4    0    0 -0.42333591564E+02 -0.41534681917E+02  0.43223395008E+02  0.73386133927E+02  0.00000000000E+00 0. -1.
        -12    1    4    4    0    0  0.38647897670E+02 -0.56284990499E+02  0.25048225046E+02  0.72726018231E+02  0.00000000000E+00 0.  1.
        -13    1    3    3    0    0  0.48730555921E+02  0.51708205409E+02 -0.94566259908E+01  0.71678681365E+02  0.00000000000E+00 0.  1.
         13    1    3    3    0    0  0.14598168933E+02 -0.36110146867E+02 -0.19298003024E+02  0.43467944093E+02  0.00000000000E+00 0. -1.
         21    1    1    2  502  501 -0.59643030960E+02  0.82221613875E+02  0.17555475321E+01  0.10159117519E+03  0.00000000000E+00 0.  1.
<scales pt_clust_5="13000.00000" pt_clust_6="13000.00000" pt_clust_7="13000.00000" pt_clust_8="13000.00000" pt_clust_9="101.57601"></scales>
<clustering>
<clus scale="   84.294">  5  6 -1 -1</clus>
<clus scale="   90.433">  7  8 -1 -1</clus>
<clus scale="  101.576">  2  9  1 -1</clus>
<clus scale="  111.655">  1  5  2 -1</clus>
<clus scale="  111.655">  1  5  2 -1</clus>
</clustering>
</event>
<event>
 9    1  0.3846604E-005  0.1212685E+03  0.7546771E-02  0.1243902E+00
          3   -1    0    0  502    0  0.00000000000E+00  0.00000000000E+00  0.22710313967E+03  0.22710313967E+03  0.00000000000E+00 0. -1.
         -4   -1    0    0    0  501 -0.00000000000E+00 -0.00000000000E+00 -0.12525054783E+03  0.12525054783E+03  0.00000000000E+00 0.  1.
        -24    2    1    2    0    0  0.18203493329E+02 -0.58788178177E+02  0.60761423899E+01  0.10132283449E+03  0.80261947528E+02 0.  0.
         23    2    1    2    0    0  0.14770554757E+02  0.94040761356E+02  0.13560887033E+03  0.18844767459E+03  0.89782661265E+02 0.  0.
         11    1    3    3    0    0 -0.20532615817E+01 -0.33853940337E+02  0.41437305040E+02  0.53547692840E+02  0.00000000000E+00 0. -1.
        -12    1    3    3    0    0  0.20256754911E+02 -0.24934237840E+02 -0.35361162650E+02  0.47775141655E+02  0.00000000000E+00 0.  1.
        -11    1    4    4    0    0 -0.28307597690E+02  0.72571121497E+02  0.57971470160E+02  0.97100870824E+02  0.00000000000E+00 0.  1.
         11    1    4    4    0    0  0.43078152447E+02  0.21469639858E+02  0.77637400170E+02  0.91346803771E+02  0.00000000000E+00 0. -1.
         21    1    1    2  502  501 -0.32974048086E+02 -0.35252583178E+02 -0.39832420879E+02  0.62583178418E+02  0.00000000000E+00 0.  1.
<scales pt_clust_5="13000.00000" pt_clust_6="13000.00000" pt_clust_7="13000.00000" pt_clust_8="13000.00000" pt_clust_9="48.27041"></scales>
<clustering>
<clus scale="   48.270">  2  9  1 -1</clus>
<clus scale="   80.262">  5  6 -1 -1</clus>
<clus scale="   89.783">  7  8 -1 -1</clus>
<clus scale="  114.399">  2  5  1 -1</clus>
<clus scale="  121.268">  1  5  2 -1</clus>
</clustering>
</event>
<event>
 9    1  0.3846604E-005  0.1164416E+03  0.7546771E-02  0.1253465E+00
         -2   -1    0    0    0  501 -0.00000000000E+00  0.00000000000E+00  0.51242650073E+02  0.51242650073E+02  0.00000000000E+00 0.  1.
          1   -1    0    0  502    0  0.00000000000E+00 -0.00000000000E+00 -0.45212019665E+03  0.45212019665E+03  0.00000000000E+00 0. -1.
        -24    2    1    2    0    0  0.76104912874E+01 -0.66363588123E+02 -0.93304958121E+02  0.14022214602E+03  0.80587775856E+02 0.  0.
         23    2    1    2    0    0 -0.38729833357E+02  0.62496353064E+02 -0.30976696997E+03  0.33170530238E+03  0.93096926928E+02 0.  0.
         11    1    3    3    0    0 -0.21731712180E+02 -0.31460665876E+02 -0.85901296288E+02  0.94026982913E+02  0.00000000000E+00 0. -1.
        -12    1    3    3    0    0  0.29342203468E+02 -0.34902922247E+02 -0.74036618325E+01  0.46195163104E+02  0.00000000000E+00 0.  1.
        -13    1    4    4    0    0  0.31924375689E+01  0.54080167601E+02 -0.26222904728E+03  0.26776655770E+03  0.00000000000E+00 0.  1.
         13    1    4    4    0    0 -0.41922270926E+02  0.84161854625E+01 -0.47537922691E+02  0.63938744679E+02  0.00000000000E+00 0. -1.
         21    1    1    2  502  501  0.31119342070E+02  0.38672350592E+01  0.21943815131E+01  0.31435398329E+02  0.00000000000E+00 0.  1.
<scales pt_clust_5="13000.00000" pt_clust_6="13000.00000" pt_clust_7="13000.00000" pt_clust_8="13000.00000" pt_clust_9="31.35871"></scales>
<clustering>
<clus scale="   31.359">  1  9  2 -1</clus>
<clus scale="   80.588">  5  6 -1 -1</clus>
<clus scale="   93.097">  7  8 -1 -1</clus>
<clus scale="  106.705">  1  5  2 -1</clus>
<clus scale="  116.442">  2  5  1 -1</clus>
</clustering>
</event>
<event>
 9    1  0.3846604E-005  0.5284299E+03  0.7546771E-02  0.1006694E+00
          1   -1    0    0  502    0  0.00000000000E+00  0.00000000000E+00  0.22543374468E+04  0.22543374468E+04  0.00000000000E+00 0. -1.
         -2   -1    0    0    0  501 -0.00000000000E+00 -0.00000000000E+00 -0.22282672857E+03  0.22282672857E+03  0.00000000000E+00 0.  1.
         23    2    1    2    0    0  0.43667027110E+03  0.25439719367E+03  0.23923559898E+03  0.56629215825E+03  0.89745634199E+02 0.  0.
        -24    2    1    2    0    0 -0.42510139511E+03 -0.30789596797E+03  0.17760432127E+04  0.18537805770E+04  0.81619918642E+02 0.  0.
         13    1    4    4    0    0 -0.30586594092E+03 -0.25766523603E+03  0.14058186184E+04  0.14615988969E+04  0.00000000000E+00 0. -1.
        -14    1    4    4    0    0 -0.11923545419E+03 -0.50230731940E+02  0.37022459430E+03  0.39218168008E+03  0.00000000000E+00 0.  1.
        -13    1    3    3    0    0  0.42937501843E+03  0.23566481178E+03  0.21528172076E+03  0.53502058769E+03  0.00000000000E+00 0.  1.
         13    1    3    3    0    0  0.72952526761E+01  0.18732381893E+02  0.23953878228E+02  0.31271570558E+02  0.00000000000E+00 0. -1.
         21    1    1    2  502  501 -0.11568875995E+02  0.53498774299E+02  0.16231906546E+02  0.57091440106E+02  0.00000000000E+00 0.  1.
<scales pt_clust_5="13000.00000" pt_clust_6="13000.00000" pt_clust_7="13000.00000" pt_clust_8="13000.00000" pt_clust_9="54.73534"></scales>
<clustering>
<clus scale="   54.735">  2  9  1 -1</clus>
<clus scale="   81.620">  5  6 -1 -1</clus>
<clus scale="   89.746">  7  8 -1 -1</clus>
<clus scale="  527.111">  1  5  2 -1</clus>
<clus scale="  527.111">  1  5  2 -1</clus>
</clustering>
</event>
<event>
 9    1  0.3846604E-005  0.1182912E+03  0.7546771E-02  0.1248475E+00
         -2   -1    0    0    0  501 -0.00000000000E+00  0.00000000000E+00  0.10299187216E+03  0.10299187216E+03  0.00000000000E+00 0.  1.
          1   -1    0    0  502    0  0.00000000000E+00 -0.00000000000E+00 -0.18417802662E+03  0.18417802662E+03  0.00000000000E+00 0. -1.
         23    2    1    2    0    0  0.35689848421E+02 -0.66641758909E+02 -0.44613733213E+02  0.12706117998E+03  0.91865493826E+02 0.  0.
        -24    2    1    2    0    0 -0.12999872306E+02  0.74231071798E+02 -0.58869111685E+02  0.12740435990E+03  0.84184618021E+02 0.  0.
         13    1    4    4    0    0  0.30468359095E+02  0.58691272451E+02 -0.41557590824E+02  0.78102623022E+02  0.00000000000E+00 0. -1.
        -14    1    4    4    0    0 -0.43468231401E+02  0.15539799347E+02 -0.17311520861E+02  0.49301736880E+02  0.00000000000E+00 0.  1.
        -13    1    3    3    0    0  0.37801630843E+02 -0.18981851882E+02  0.19962850960E+02  0.46773811195E+02  0.00000000000E+00 0.  1.
         13    1    3    3    0    0 -0.21117824224E+01 -0.47659907027E+02 -0.64576584174E+02  0.80287368785E+02  0.00000000000E+00 0. -1.
         21    1    1    2  502  501 -0.22689976115E+02 -0.75893128893E+01  0.22296690436E+02  0.32704358893E+02  0.00000000000E+00 0.  1.
<scales pt_clust_5="13000.00000" pt_clust_6="13000.00000" pt_clust_7="13000.00000" pt_clust_8="13000.00000" pt_clust_9="23.92557"></scales>
<clustering>
<clus scale="   23.926">  1  9  2 -1</clus>
<clus scale="   84.185">  5  6 -1 -1</clus>
<clus scale="   91.865">  7  8 -1 -1</clus>
<clus scale="  112.430">  2  5  1 -1</clus>
<clus scale="  112.430">  2  5  1 -1</clus>
</clustering>
</event>
<event>
 9    1  0.3846604E-005  0.1651256E+03  0.7546771E-02  0.1183581E+00
         -2   -1    0    0    0  501 -0.00000000000E+00  0.00000000000E+00  0.67597538766E+02  0.67597538766E+02  0.00000000000E+00 0.  1.
          1   -1    0    0  502    0  0.00000000000E+00 -0.00000000000E+00 -0.12624063870E+04  0.12624063870E+04  0.00000000000E+00 0. -1.
         23    2    1    2    0    0  0.11494670048E+02 -0.14849707359E+03 -0.59999257723E+03  0.62503370373E+03  0.92154922662E+02 0.  0.
        -24    2    1    2    0    0 -0.80142989455E+01  0.12345074338E+03 -0.63692764759E+03  0.65584996465E+03  0.95697611482E+02 0.  0.
         13    1    4    4    0    0 -0.21204902935E+02  0.99287753177E+02 -0.60599692027E+03  0.61444281525E+03  0.00000000000E+00 0. -1.
        -14    1    4    4    0    0  0.13190603989E+02  0.24162990199E+02 -0.30930727324E+02  0.41407149404E+02  0.00000000000E+00 0.  1.
        -13    1    3    3    0    0  0.51120476481E+02 -0.98916759228E+02 -0.40030259816E+03  0.41549969731E+03  0.00000000000E+00 0.  1.
         13    1    3    3    0    0 -0.39625806433E+02 -0.49580314361E+02 -0.19968997907E+03  0.20953400643E+03  0.00000000000E+00 0. -1.
         21    1    1    2  502  501 -0.34803711029E+01  0.25046330213E+02  0.42111376623E+02  0.49120257341E+02  0.00000000000E+00 0.  1.
<scales pt_clust_5="13000.00000" pt_clust_6="13000.00000" pt_clust_7="13000.00000" pt_clust_8="13000.00000" pt_clust_9="25.28699"></scales>
<clustering>
<clus scale="   25.287">  1  9  2 -1</clus>
<clus scale="   92.155">  7  8 -1 -1</clus>
<clus scale="   95.698">  5  6 -1 -1</clus>
<clus scale="  163.098">  1  7  2 -1</clus>
<clus scale="  165.126">  2  5  1 -1</clus>
</clustering>
</event>
<event>
 9    1  0.3846604E-005  0.1092294E+03  0.7546771E-02  0.1266041E+00
          1   -1    0    0  502    0  0.00000000000E+00  0.00000000000E+00  0.72346297095E+02  0.72346297095E+02  0.00000000000E+00 0. -1.
         -2   -1    0    0    0  501 -0.00000000000E+00 -0.00000000000E+00 -0.47487319685E+03  0.47487319685E+03  0.00000000000E+00 0.  1.
        -24    2    1    2    0    0 -0.53272515674E+02  0.30493769762E+02 -0.35857128258E+03  0.37214536317E+03  0.78428156386E+02 0.  0.
         23    2    1    2    0    0  0.52969594676E+02 -0.69594317017E+02 -0.13262638461E+02  0.12536494150E+03  0.88833124768E+02 0.  0.
         11    1    3    3    0    0 -0.41492805789E+02 -0.14787219186E+01 -0.68650974505E+02  0.80229644467E+02  0.00000000000E+00 0. -1.
        -12    1    3    3    0    0 -0.11779709885E+02  0.31972491681E+02 -0.28992030808E+03  0.29191571870E+03  0.00000000000E+00 0.  1.
        -13    1    4    4    0    0  0.31282731960E+02 -0.71370240880E+01 -0.42351205154E+02  0.53133520585E+02  0.00000000000E+00 0.  1.
         13    1    4    4    0    0  0.21686862715E+02 -0.62457292929E+02  0.29088566694E+02  0.72231420910E+02  0.00000000000E+00 0. -1.
         21    1    1    2  502  501  0.30292099860E+00  0.39100547254E+02 -0.30692978709E+02  0.49709189279E+02  0.00000000000E+00 0.  1.
<scales pt_clust_5="13000.00000" pt_clust_6="13000.00000" pt_clust_7="13000.00000" pt_clust_8="13000.00000" pt_clust_9="39.10172"></scales>
<clustering>
<clus scale="   39.102">  1  9  2 -1</clus>
<clus scale="   78.428">  5  6 -1 -1</clus>
<clus scale="   88.833">  7  8 -1 -1</clus>
<clus scale="  100.949">  2  5  1 -1</clus>
<clus scale="   39.102">  1  5  2 -1</clus>
</clustering>
</event>
<event>
 9    1  0.3846604E-005  0.1869630E+03  0.7546771E-02  0.1162432E+00
         -2   -1    0    0    0  501 -0.00000000000E+00  0.00000000000E+00  0.27208742758E+03  0.27208742758E+03  0.00000000000E+00 0.  1.
          1   -1    0    0  502    0  0.00000000000E+00 -0.00000000000E+00 -0.47788457309E+03  0.47788457309E+03  0.00000000000E+00 0. -1.
        -24    2    1    2    0    0 -0.15287270934E+03 -0.62119885816E+02  0.18916662624E+03  0.26346150630E+03  0.79993795636E+02 0.  0.
         23    2    1    2    0    0  0.16130465765E+03  0.26454159496E+02 -0.40698386970E+03  0.44794075830E+03  0.91082586786E+02 0.  0.
         11    1    3    3    0    0 -0.64369147277E+02  0.12887868758E+02  0.51543831826E+02  0.83464069405E+02  0.00000000000E+00 0. -1.
        -12    1    3    3    0    0 -0.88503562065E+02 -0.75007754574E+02  0.13762279442E+03  0.17999743689E+03  0.00000000000E+00 0.  1.
        -13    1    4    4    0    0  0.11704406734E+03 -0.17752385524E+02 -0.20769050819E+03  0.23906026036E+03  0.00000000000E+00 0.  1.
         13    1    4    4    0    0  0.44260590307E+02  0.44206545020E+02 -0.19929336151E+03  0.20888049793E+03  0.00000000000E+00 0. -1.
         21    1    1    2  502  501 -0.84319483077E+01  0.35665726320E+02  0.12020097952E+02  0.38569736076E+02  0.00000000000E+00 0.  1.
<scales pt_clust_5="13000.00000" pt_clust_6="13000.00000" pt_clust_7="13000.00000" pt_clust_8="13000.00000" pt_clust_9="36.64890"></scales>
<clustering>
<clus scale="   36.649">  1  9  2 -1</clus>
<clus scale="   79.994">  5  6 -1 -1</clus>
<clus scale="   91.083">  7  8 -1 -1</clus>
<clus scale="  181.819">  1  5  2 -1</clus>
<clus scale="  186.963">  2  5  1 -1</clus>
</clustering>
</event>
<event>
 9    1  0.3846604E-005  0.1120295E+03  0.7546771E-02  0.1260485E+00
          1   -1    0    0  502    0  0.00000000000E+00  0.00000000000E+00  0.75161621587E+02  0.75161621587E+02  0.00000000000E+00 0. -1.
         -2   -1    0    0    0  501 -0.00000000000E+00 -0.00000000000E+00 -0.39719611049E+03  0.39719611049E+03  0.00000000000E+00 0.  1.
        -24    2    1    2    0    0  0.63251575776E+02 -0.30620871139E+02 -0.24825289853E+03  0.27051762787E+03  0.81313503008E+02 0.  0.
         23    2    1    2    0    0 -0.40799535580E+02  0.51219528598E+02  0.10119920983E+02  0.11257722051E+03  0.91011952864E+02 0.  0.
         11    1    3    3    0    0  0.53550097072E+02  0.11488854925E+02 -0.81041914341E+02  0.97813079718E+02  0.00000000000E+00 0. -1.
        -12    1    3    3    0    0  0.97014787037E+01 -0.42109726064E+02 -0.16721098419E+03  0.17270454815E+03  0.00000000000E+00 0.  1.
        -11    1    4    4    0    0 -0.51995044619E+02  0.78278971539E+01  0.33184905506E+02  0.62177154906E+02  0.00000000000E+00 0. -1.
         11    1    4    4    0    0  0.11195509039E+02  0.43391631444E+02 -0.23064984522E+02  0.50400065606E+02  0.00000000000E+00 0.  1.
         21    1    1    2  502  501 -0.22452040196E+02 -0.20598657459E+02 -0.83901511361E+02  0.89262883701E+02  0.00000000000E+00 0.  1.
<scales pt_clust_5="13000.00000" pt_clust_6="13000.00000" pt_clust_7="13000.00000" pt_clust_8="13000.00000" pt_clust_9="30.46964"></scales>
<clustering>
<clus scale="   30.470">  2  9  1 -1</clus>
<clus scale="   81.314">  5  6 -1 -1</clus>
<clus scale="   91.012">  7  8 -1 -1</clus>
<clus scale="  104.304">  2  5  1 -1</clus>
<clus scale="  112.030">  1  5  2 -1</clus>
</clustering>
</event>
<event>
 9    1  0.3846604E-005  0.1044661E+03  0.7546771E-02  0.1275649E+00
          1   -1    0    0  502    0  0.00000000000E+00  0.00000000000E+00  0.23213364799E+02  0.23213364799E+02  0.00000000000E+00 0. -1.
         -2   -1    0    0    0  501 -0.00000000000E+00 -0.00000000000E+00 -0.72813425716E+03  0.72813425716E+03  0.00000000000E+00 0.  1.
        -24    2    1    2    0    0 -0.32703573078E+02 -0.12033592532E+02 -0.41265618769E+03  0.42180959270E+03  0.80149062469E+02 0.  0.
         23    2    1    2    0    0  0.48075269117E+02  0.36571759900E+02 -0.15510437695E+03  0.18935469859E+03  0.90272415529E+02 0.  0.
         13    1    3    3    0    0 -0.61799138762E+00 -0.28140906617E+02 -0.49982496216E+02  0.57363250139E+02  0.00000000000E+00 0. -1.
        -14    1    3    3    0    0 -0.32085581690E+02  0.16107314084E+02 -0.36267369147E+03  0.36444634256E+03  0.00000000000E+00 0.  1.
        -13    1    4    4    0    0  0.42839384768E+02  0.63156479302E+02 -0.13682923343E+03  0.15667224670E+03  0.00000000000E+00 0.  1.
         13    1    4    4    0    0  0.52358843482E+01 -0.26584719402E+02 -0.18275143515E+02  0.32682451883E+02  0.00000000000E+00 0. -1.
         21    1    1    2  502  501 -0.15371696039E+02 -0.24538167368E+02 -0.13716032772E+03  0.14018333067E+03  0.00000000000E+00 0.  1.
<scales pt_clust_5="13000.00000" pt_clust_6="13000.00000" pt_clust_7="13000.00000" pt_clust_8="13000.00000" pt_clust_9="28.95532"></scales>
<clustering>
<clus scale="   28.955">  2  9  1 -1</clus>
<clus scale="   80.149">  5  6 -1 -1</clus>
<clus scale="   90.272">  7  8 -1 -1</clus>
<clus scale="   95.854">  2  5  1 -1</clus>
<clus scale="  104.466">  1  5  2 -1</clus>
</clustering>
</event>
<event>
 9    1  0.3846604E-005  0.1352266E+03  0.7546771E-02  0.1232090E+00
         -2   -1    0    0    0  501 -0.00000000000E+00  0.00000000000E+00  0.11842282866E+03  0.11842282866E+03  0.00000000000E+00 0.  1.
          1   -1    0    0  502    0  0.00000000000E+00 -0.00000000000E+00 -0.28004395981E+03  0.28004395981E+03  0.00000000000E+00 0. -1.
         23    2    1    2    0    0 -0.40848020855E+02 -0.80260056374E+01 -0.34825618252E+02  0.13038224318E+03  0.11854842080E+03 0.  0.
        -24    2    1    2    0    0  0.68161071431E+02  0.25929246315E+02 -0.17687704858E+03  0.20829584255E+03  0.82361460853E+02 0.  0.
         11    1    4    4    0    0  0.77394505635E+02  0.18716473578E+02 -0.17943005252E+03  0.19630425271E+03  0.00000000000E+00 0. -1.
        -12    1    4    4    0    0 -0.92334342037E+01  0.72127727371E+01  0.25530039336E+01  0.11991589838E+02  0.00000000000E+00 0.  1.
        -11    1    3    3    0    0  0.37654041170E+02  0.19497727699E+02 -0.99363146554E+01  0.43551332365E+02  0.00000000000E+00 0. -1.
         11    1    3    3    0    0 -0.78502062026E+02 -0.27523733336E+02 -0.24889303597E+02  0.86830910813E+02  0.00000000000E+00 0.  1.
         21    1    1    2  502  501 -0.27313050576E+02 -0.17903240678E+02  0.50081535694E+02  0.59788702745E+02  0.00000000000E+00 0. -1.
<scales pt_clust_5="13000.00000" pt_clust_6="13000.00000" pt_clust_7="13000.00000" pt_clust_8="13000.00000" pt_clust_9="32.65775"></scales>
<clustering>
<clus scale="   32.658">  1  9  2 -1</clus>
<clus scale="   82.361">  5  6 -1 -1</clus>
<clus scale="  104.957">  2  5  1 -1</clus>
<clus scale="  118.548">  7  8 -1 -1</clus>
<clus scale="  104.957">  2  5  1 -1</clus>
</clustering>
</event>
<event>
 9    1  0.3846604E-005  0.1034026E+03  0.7546771E-02  0.1282080E+00
          1   -1    0    0  502    0  0.00000000000E+00  0.00000000000E+00  0.10610258400E+03  0.10610258400E+03  0.00000000000E+00 0. -1.
         -2   -1    0    0    0  501 -0.00000000000E+00 -0.00000000000E+00 -0.39677227896E+03  0.39677227896E+03  0.00000000000E+00 0.  1.
         23    2    1    2    0    0 -0.16559276289E+02 -0.10399168635E+02 -0.28641420711E+03  0.30334150578E+03  0.97982747247E+02 0.  0.
        -24    2    1    2    0    0  0.13774413167E+02  0.31275969549E+02  0.76235431313E+02  0.11633248972E+03  0.80953606757E+02 0.  0.
         11    1    4    4    0    0  0.26811844223E+02 -0.16319999552E+02  0.53432153794E+02  0.61969447594E+02  0.00000000000E+00 0. -1.
        -12    1    4    4    0    0 -0.13037431056E+02  0.47595969101E+02  0.22803277519E+02  0.54363042123E+02  0.00000000000E+00 0.  1.
        -13    1    3    3    0    0 -0.54757621542E+02 -0.21256398762E+02 -0.19548100723E+03  0.20411530024E+03  0.00000000000E+00 0.  1.
         13    1    3    3    0    0  0.38198345253E+02  0.10857230127E+02 -0.90933199878E+02  0.99226205541E+02  0.00000000000E+00 0. -1.
         21    1    1    2  502  501  0.27848631223E+01 -0.20876800914E+02 -0.80490919163E+02  0.83200867464E+02  0.00000000000E+00 0.  1.
<scales pt_clust_5="13000.00000" pt_clust_6="13000.00000" pt_clust_7="13000.00000" pt_clust_8="13000.00000" pt_clust_9="21.06173"></scales>
<clustering>
<clus scale="   21.062">  2  9  1 -1</clus>
<clus scale="   80.954">  5  6 -1 -1</clus>
<clus scale="   87.435">  1  5  2 -1</clus>
<clus scale="   97.983">  7  8 -1 -1</clus>
<clus scale="   87.435">  1  5  2 -1</clus>
</clustering>
</event>
<event>
 9    1  0.3846604E-005  0.3260280E+03  0.7546771E-02  0.1073449E+00
         -2   -1    0    0    0  501 -0.00000000000E+00  0.00000000000E+00  0.21265918077E+03  0.21265918077E+03  0.00000000000E+00 0.  1.
          1   -1    0    0  502    0  0.00000000000E+00 -0.00000000000E+00 -0.86083968971E+03  0.86083968971E+03  0.00000000000E+00 0. -1.
        -24    2    1    2    0    0  0.23321542318E+03  0.22153585780E+03 -0.25180193999E+02  0.33044401670E+03  0.71355701262E+02 0.  0.
         23    2    1    2    0    0 -0.24653488481E+03 -0.19022672630E+03 -0.62978090564E+03  0.70836124942E+03  0.90476592258E+02 0.  0.
         11    1    3    3    0    0  0.25739757107E+02  0.46761252306E+00  0.31897280283E+01  0.25940858164E+02  0.00000000000E+00 0. -1.
        -12    1    3    3    0    0  0.20747566607E+03  0.22106824528E+03 -0.28369922028E+02  0.30450315853E+03  0.00000000000E+00 0.  1.
        -11    1    4    4    0    0 -0.60445963188E+02 -0.10073870257E+03 -0.24321826750E+03  0.27010576874E+03  0.00000000000E+00 0.  1.
         11    1    4    4    0    0 -0.18608892162E+03 -0.89488023731E+02 -0.38656263814E+03  0.43825548068E+03  0.00000000000E+00 0. -1.
         21    1    1    2  502  501  0.13319461632E+02 -0.31309131497E+02  0.67805907034E+01  0.34693604361E+02  0.00000000000E+00 0. -1.
<scales pt_clust_5="13000.00000" pt_clust_6="13000.00000" pt_clust_7="13000.00000" pt_clust_8="13000.00000" pt_clust_9="34.02455"></scales>
<clustering>
<clus scale="   34.025">  1  9  2 -1</clus>
<clus scale="   71.356">  5  6 -1 -1</clus>
<clus scale="   90.477">  7  8 -1 -1</clus>
<clus scale="  321.247">  1  5  2 -1</clus>
<clus scale="  326.028">  2  5  1 -1</clus>
</clustering>
</event>
<event>
 9    1  0.3846604E-005  0.1590534E+03  0.7546771E-02  0.1192207E+00
          1   -1    0    0  502    0  0.00000000000E+00  0.00000000000E+00  0.50319065506E+03  0.50319065506E+03  0.00000000000E+00 0. -1.
         -2   -1    0    0    0  501 -0.00000000000E+00 -0.00000000000E+00 -0.11430991046E+03  0.11430991046E+03  0.00000000000E+00 0.  1.
         23    2    1    2    0    0 -0.13087551445E+03  0.62163198046E+02 -0.96227497094E+01  0.17330957579E+03  0.94609451297E+02 0.  0.
        -24    2    1    2    0    0  0.48531693000E+02 -0.56927839919E+02  0.27179472010E+03  0.29298574059E+03  0.79825873815E+02 0.  0.
         11    1    4    4    0    0  0.45349739842E+02 -0.70874197995E+02  0.16478264885E+03  0.18502181549E+03  0.00000000000E+00 0. -1.
        -12    1    4    4    0    0  0.31819531586E+01  0.13946358076E+02  0.10701207125E+03  0.10796392509E+03  0.00000000000E+00 0.  1.
        -13    1    3    3    0    0 -0.99053629688E+02  0.67891155120E+02  0.28398616142E+02  0.12339899471E+03  0.00000000000E+00 0.  1.
         13    1    3    3    0    0 -0.31821884757E+02 -0.57279570741E+01 -0.38021365851E+02  0.49910581072E+02  0.00000000000E+00 0. -1.
         21    1    1    2  502  501  0.82343821445E+02 -0.52353581270E+01  0.12670877422E+03  0.15120524914E+03  0.00000000000E+00 0. -1.
<scales pt_clust_5="13000.00000" pt_clust_6="13000.00000" pt_clust_7="13000.00000" pt_clust_8="13000.00000" pt_clust_9="82.51008"></scales>
<clustering>
<clus scale="   79.826">  5  6 -1 -1</clus>
<clus scale="   82.510">  1  9  2 -1</clus>
<clus scale="   94.609">  7  8 -1 -1</clus>
<clus scale="  150.729">  1  5  2 -1</clus>
<clus scale="   82.510">  1  5  2 -1</clus>
</clustering>
</event>
<event>
 9    1  0.3846604E-005  0.1684316E+03  0.7546771E-02  0.1181526E+00
          1   -1    0    0  502    0  0.00000000000E+00  0.00000000000E+00  0.48312036113E+03  0.48312036113E+03  0.00000000000E+00 0. -1.
         -2   -1    0    0    0  501 -0.00000000000E+00 -0.00000000000E+00 -0.28003421785E+03  0.28003421785E+03  0.00000000000E+00 0.  1.
        -24    2    1    2    0    0 -0.15173799435E+03  0.59399810826E+02 -0.67195901233E+00  0.18034073032E+03  0.77262999085E+02 0.  0.
         23    2    1    2    0    0  0.13709279796E+03 -0.14378613008E+02  0.37243476552E+03  0.40761908062E+03  0.91893854819E+02 0.  0.
         13    1    3    3    0    0 -0.64830971716E+02 -0.59292787780E+01  0.23046534882E+02  0.69060509776E+02  0.00000000000E+00 0. -1.
        -14    1    3    3    0    0 -0.86907022638E+02  0.65329089604E+02 -0.23718493894E+02  0.11128022055E+03  0.00000000000E+00 0.  1.
        -11    1    4    4    0    0  0.34947982804E+02 -0.34029318410E+02  0.20320540970E+03  0.20897797622E+03  0.00000000000E+00 0. -1.
         11    1    4    4    0    0  0.10214481516E+03  0.19650705403E+02  0.16922935582E+03  0.19864110440E+03  0.00000000000E+00 0.  1.
         21    1    1    2  502  501  0.14645196390E+02 -0.45021197819E+02 -0.16867666322E+03  0.17519476803E+03  0.00000000000E+00 0. -1.
<scales pt_clust_5="13000.00000" pt_clust_6="13000.00000" pt_clust_7="13000.00000" pt_clust_8="13000.00000" pt_clust_9="47.34332"></scales>
<clustering>
<clus scale="   47.343">  2  9  1 -1</clus>
<clus scale="   77.263">  5  6 -1 -1</clus>
<clus scale="   91.894">  7  8 -1 -1</clus>
<clus scale="  160.917">  2  5  1 -1</clus>
<clus scale="  168.432">  1  5  2 -1</clus>
</clustering>
</event>
<event>
 9    1  0.3846604E-005  0.1398976E+03  0.7546771E-02  0.1215805E+00
          3   -1    0    0  502    0  0.00000000000E+00  0.00000000000E+00  0.41698141410E+03  0.41698141410E+03  0.00000000000E+00 0. -1.
         -4   -1    0    0    0  501 -0.00000000000E+00 -0.00000000000E+00 -0.18058420421E+03  0.18058420421E+03  0.00000000000E+00 0.  1.
         23    2    1    2    0    0 -0.22064810621E+01 -0.12437068665E+03 -0.75546864870E+02  0.17216684206E+03  0.91984544666E+02 0.  0.
        -24    2    1    2    0    0 -0.20598890925E+02  0.10175842395E+03  0.35092640932E+03  0.37489113501E+03  0.81332202714E+02 0.  0.
         13    1    4    4    0    0 -0.31255333227E+02  0.11170010596E+03  0.29211260237E+03  0.31429855550E+03  0.00000000000E+00 0. -1.
        -14    1    4    4    0    0  0.10656442301E+02 -0.99416820064E+01  0.58813806951E+02  0.60592579511E+02  0.00000000000E+00 0.  1.
        -13    1    3    3    0    0  0.81435469057E+00 -0.38309687329E+02  0.20261820810E+02  0.43345549938E+02  0.00000000000E+00 0. -1.
         13    1    3    3    0    0 -0.30208357527E+01 -0.86060999316E+02 -0.95808685680E+02  0.12882129212E+03  0.00000000000E+00 0.  1.
         21    1    1    2  502  501  0.22805371987E+02  0.22612262690E+02 -0.38982334560E+02  0.50507641236E+02  0.00000000000E+00 0. -1.
<scales pt_clust_5="13000.00000" pt_clust_6="13000.00000" pt_clust_7="13000.00000" pt_clust_8="13000.00000" pt_clust_9="32.11541"></scales>
<clustering>
<clus scale="   32.115">  2  9  1 -1</clus>
<clus scale="   81.332">  5  6 -1 -1</clus>
<clus scale="   91.985">  7  8 -1 -1</clus>
<clus scale="  133.136">  1  5  2 -1</clus>
<clus scale="  133.136">  1  5  2 -1</clus>
</clustering>
</event>
<event>
 9    1  0.3846604E-005  0.9658904E+02  0.7546771E-02  0.1290823E+00
         -2   -1    0    0    0  501 -0.00000000000E+00  0.00000000000E+00  0.58863702785E+02  0.58863702785E+02  0.00000000000E+00 0.  1.
          1   -1    0    0  502    0  0.00000000000E+00 -0.00000000000E+00 -0.37119720132E+03  0.37119720132E+03  0.00000000000E+00 0. -1.
        -24    2    1    2    0    0 -0.28786752621E+02 -0.15272386905E+02 -0.10124764239E+01  0.86227166125E+02  0.79825911465E+02 0.  0.
         23    2    1    2    0    0  0.46251780903E+02  0.21787172735E+00 -0.30445766066E+03  0.31977607038E+03  0.86156795134E+02 0.  0.
         11    1    3    3    0    0  0.49988401593E+01  0.19375545909E+02 -0.25157159591E+02  0.32144717465E+02  0.00000000000E+00 0. -1.
        -12    1    3    3    0    0 -0.33785592780E+02 -0.34647932814E+02  0.24144683167E+02  0.54082448660E+02  0.00000000000E+00 0.  1.
        -11    1    4    4    0    0  0.29823402934E+01 -0.37408269594E+02 -0.84334317177E+02  0.92306825540E+02  0.00000000000E+00 0.  1.
         11    1    4    4    0    0  0.43269440609E+02  0.37626141321E+02 -0.22012334348E+03  0.22746924484E+03  0.00000000000E+00 0. -1.
         21    1    1    2  502  501 -0.17465028282E+02  0.15054515177E+02 -0.68633614534E+01  0.24057667604E+02  0.00000000000E+00 0. -1.
<scales pt_clust_5="13000.00000" pt_clust_6="13000.00000" pt_clust_7="13000.00000" pt_clust_8="13000.00000" pt_clust_9="23.05788"></scales>
<clustering>
<clus scale="   23.058">  1  9  2 -1</clus>
<clus scale="   79.826">  5  6 -1 -1</clus>
<clus scale="   86.157">  7  8 -1 -1</clus>
<clus scale="   90.987">  1  5  2 -1</clus>
<clus scale="   96.589">  2  5  1 -1</clus>
</clustering>
</event>
<event>
 9    1  0.3846604E-005  0.1112962E+03  0.7546771E-02  0.1263458E+00
          3   -1    0    0  502    0  0.00000000000E+00  0.00000000000E+00  0.33308309328E+02  0.33308309328E+02  0.00000000000E+00 0. -1.
         -4   -1    0    0    0  501 -0.00000000000E+00 -0.00000000000E+00 -0.53996752954E+03  0.53996752954E+03  0.00000000000E+00 0.  1.
        -24    2    1    2    0    0  0.19693923762E+02 -0.40749210837E+02 -0.24641706597E+03  0.26328277649E+03  0.80920338472E+02 0.  0.
         23    2    1    2    0    0 -0.29554244045E+02  0.60178868191E+02 -0.11470590236E+03  0.16283485462E+03  0.94142425731E+02 0.  0.
         11    1    3    3    0    0  0.62635073902E+01 -0.58506847097E+02 -0.10711387649E+03  0.12221155927E+03  0.00000000000E+00 0. -1.
        -12    1    3    3    0    0  0.13430416372E+02  0.17757636260E+02 -0.13930318947E+03  0.14107121722E+03  0.00000000000E+00 0.  1.
        -11    1    4    4    0    0  0.24964411450E+02  0.13795813656E+02 -0.76612704449E+02  0.81749940652E+02  0.00000000000E+00 0.  1.
         11    1    4    4    0    0 -0.54518655496E+02  0.46383054535E+02 -0.38093197915E+02  0.81084913964E+02  0.00000000000E+00 0. -1.
         21    1    1    2  502  501  0.98603202831E+01 -0.19429657355E+02 -0.14553625188E+03  0.14715820776E+03  0.00000000000E+00 0.  1.
<scales pt_clust_5="13000.00000" pt_clust_6="13000.00000" pt_clust_7="13000.00000" pt_clust_8="13000.00000" pt_clust_9="21.78847"></scales>
<clustering>
<clus scale="   21.788">  2  9  1 -1</clus>
<clus scale="   80.920">  5  6 -1 -1</clus>
<clus scale="   94.142">  7  8 -1 -1</clus>
<clus scale="  100.360">  2  5  1 -1</clus>
<clus scale="  111.296">  1  5  2 -1</clus>
</clustering>
</event>
<event>
 9    1  0.3846604E-005  0.3638116E+03  0.7546771E-02  0.1057214E+00
         -2   -1    0    0    0  501 -0.00000000000E+00  0.00000000000E+00  0.26241933618E+03  0.26241933618E+03  0.00000000000E+00 0.  1.
          1   -1    0    0  502    0  0.00000000000E+00 -0.00000000000E+00 -0.14471980197E+04  0.14471980197E+04  0.00000000000E+00 0. -1.
        -24    2    1    2    0    0  0.36668165751E+03 -0.52727056704E+02 -0.22865963185E+03  0.44273246552E+03  0.80568159492E+02 0.  0.
         23    2    1    2    0    0 -0.34624036067E+03  0.42263296044E+02 -0.10813885853E+04  0.11395279394E+04  0.86337006413E+02 0.  0.
         13    1    3    3    0    0  0.17442879692E+02 -0.22581419530E+02 -0.18972980473E+02  0.34265851047E+02  0.00000000000E+00 0. -1.
        -14    1    3    3    0    0  0.34923877782E+03 -0.30145637173E+02 -0.20968665138E+03  0.40846661447E+03  0.00000000000E+00 0.  1.
        -13    1    4    4    0    0 -0.24837247826E+03  0.64267094655E+02 -0.83426561194E+03  0.87282200859E+03  0.00000000000E+00 0. -1.
         13    1    4    4    0    0 -0.97867882408E+02 -0.22003798611E+02 -0.24712297340E+03  0.26670593084E+03  0.00000000000E+00 0.  1.
         21    1    1    2  502  501 -0.20441296845E+02  0.10463760660E+02  0.12526953363E+03  0.12735695097E+03  0.00000000000E+00 0. -1.
<scales pt_clust_5="13000.00000" pt_clust_6="13000.00000" pt_clust_7="13000.00000" pt_clust_8="13000.00000" pt_clust_9="22.96382"></scales>
<clustering>
<clus scale="   22.964">  1  9  2 -1</clus>
<clus scale="   80.568">  5  6 -1 -1</clus>
<clus scale="   86.337">  7  8 -1 -1</clus>
<clus scale="  362.486">  1  5  2 -1</clus>
<clus scale="  363.812">  2  5  1 -1</clus>
</clustering>
</event>
<event>
 9    1  0.3846604E-005  0.1063735E+03  0.7546771E-02  0.1274793E+00
         -2   -1    0    0    0  501 -0.00000000000E+00  0.00000000000E+00  0.23368786426E+03  0.23368786426E+03  0.00000000000E+00 0.  1.
          1   -1    0    0  502    0  0.00000000000E+00 -0.00000000000E+00 -0.18579720008E+03  0.18579720008E+03  0.00000000000E+00 0. -1.
         23    2    1    2    0    0 -0.63842549537E+02 -0.38858992222E+02  0.17081403005E+03  0.20835392408E+03  0.92994797748E+02 0.  0.
        -24    2    1    2    0    0  0.41253271707E+02  0.28397328310E+02 -0.14916874364E+03  0.17495736884E+03  0.76488732180E+02 0.  0.
         11    1    4    4    0    0  0.61878723859E+02  0.18955097846E+02 -0.84566795467E+02  0.10648856791E+03  0.00000000000E+00 0. -1.
        -12    1    4    4    0    0 -0.20625452152E+02  0.94422304640E+01 -0.64601948168E+02  0.68468800922E+02  0.00000000000E+00 0.  1.
        -13    1    3    3    0    0 -0.26079773187E+02 -0.11356008813E+02  0.15711650045E+03  0.15967062416E+03  0.00000000000E+00 0.  1.
         13    1    3    3    0    0 -0.37762776351E+02 -0.27502983409E+02  0.13697529607E+02  0.48683299923E+02  0.00000000000E+00 0. -1.
         21    1    1    2  502  501  0.22589277831E+02  0.10461663912E+02  0.26245377765E+02  0.36173771420E+02  0.00000000000E+00 0. -1.
<scales pt_clust_5="13000.00000" pt_clust_6="13000.00000" pt_clust_7="13000.00000" pt_clust_8="13000.00000" pt_clust_9="24.89421"></scales>
<clustering>
<clus scale="   24.894">  1  9  2 -1</clus>
<clus scale="   76.489">  5  6 -1 -1</clus>
<clus scale="   92.292">  2  5  1 -1</clus>
<clus scale="   92.995">  7  8 -1 -1</clus>
<clus scale="   92.292">  2  5  1 -1</clus>
</clustering>
</event>
<event>
 9    1  0.3846604E-005  0.1513504E+03  0.7546771E-02  0.1199703E+00
         -2   -1    0    0    0  501 -0.00000000000E+00  0.00000000000E+00  0.40975926307E+03  0.40975926307E+03  0.00000000000E+00 0.  1.
          1   -1    0    0  502    0  0.00000000000E+00 -0.00000000000E+00 -0.18132474087E+03  0.18132474087E+03  0.00000000000E+00 0. -1.
        -24    2    1    2    0    0 -0.12300934330E+03 -0.59181072845E+01  0.33484835563E+03  0.36559578823E+03  0.79815641125E+02 0.  0.
         23    2    1    2    0    0  0.14588492684E+03  0.82982193444E+01 -0.11071926922E+03  0.20208962530E+03  0.85030510705E+02 0.  0.
         13    1    3    3    0    0 -0.10530606898E+02  0.24807718785E+02  0.37303355011E+02  0.46020179139E+02  0.00000000000E+00 0. -1.
        -14    1    3    3    0    0 -0.11247873640E+03 -0.30725826069E+02  0.29754500062E+03  0.31957560909E+03  0.00000000000E+00 0.  1.
        -13    1    4    4    0    0  0.10236421163E+03 -0.16443867610E+02 -0.31461304513E+02  0.10834503351E+03  0.00000000000E+00 0. -1.
         13    1    4    4    0    0  0.43520715218E+02  0.24742086954E+02 -0.79257964711E+02  0.93744591791E+02  0.00000000000E+00 0.  1.
         21    1    1    2  502  501 -0.22875583542E+02 -0.23801120599E+01  0.43054357963E+01  0.23398590410E+02  0.00000000000E+00 0.  1.
<scales pt_clust_5="13000.00000" pt_clust_6="13000.00000" pt_clust_7="13000.00000" pt_clust_8="13000.00000" pt_clust_9="22.99907"></scales>
<clustering>
<clus scale="   22.999">  2  9  1 -1</clus>
<clus scale="   79.816">  5  6 -1 -1</clus>
<clus scale="   85.031">  7  8 -1 -1</clus>
<clus scale="  148.483">  1  5  2 -1</clus>
<clus scale="   22.999">  2  5  1 -1</clus>
</clustering>
</event>
<event>
 9    1  0.3846604E-005  0.2234717E+03  0.7546771E-02  0.1134371E+00
          1   -1    0    0  502    0  0.00000000000E+00  0.00000000000E+00  0.13809139688E+04  0.13809139688E+04  0.00000000000E+00 0. -1.
         -2   -1    0    0    0  501 -0.00000000000E+00 -0.00000000000E+00 -0.12845046188E+03  0.12845046188E+03  0.00000000000E+00 0.  1.
         23    2    1    2    0    0  0.18944400718E+03  0.22698937593E+02  0.52864824474E+01  0.21848819444E+03  0.10632436499E+03 0.  0.
        -24    2    1    2    0    0 -0.25035582935E+03 -0.41757888614E+02  0.10924401657E+04  0.11234934738E+04  0.66259395609E+02 0.  0.
         13    1    4    4    0    0 -0.20823944539E+03 -0.43883685719E+02  0.99180701192E+03  0.10143818775E+04  0.00000000000E+00 0. -1.
        -14    1    4    4    0    0 -0.42116383955E+02  0.21257971050E+01  0.10063315374E+03  0.10911159628E+03  0.00000000000E+00 0.  1.
        -11    1    3    3    0    0  0.58233264685E+02 -0.37604259491E+02  0.22920873094E+02  0.73010683267E+02  0.00000000000E+00 0.  1.
         11    1    3    3    0    0  0.13121074249E+03  0.60303197084E+02 -0.17634390646E+02  0.14547751117E+03  0.00000000000E+00 0. -1.
         21    1    1    2  502  501  0.60911822174E+02  0.19058951021E+02  0.15473685884E+03  0.16738276249E+03  0.00000000000E+00 0.  1.
<scales pt_clust_5="13000.00000" pt_clust_6="13000.00000" pt_clust_7="13000.00000" pt_clust_8="13000.00000" pt_clust_9="63.82393"></scales>
<clustering>
<clus scale="   63.824">  1  9  2 -1</clus>
<clus scale="   66.259">  5  6 -1 -1</clus>
<clus scale="  106.324">  7  8 -1 -1</clus>
<clus scale="  207.425">  1  5  2 -1</clus>
<clus scale="   63.824">  1  5  2 -1</clus>
</clustering>
</event>
<event>
 9    1  0.3846604E-005  0.1179965E+03  0.7546771E-02  0.1249821E+00
         -2   -1    0    0    0  501 -0.00000000000E+00  0.00000000000E+00  0.10389209326E+03  0.10389209326E+03  0.00000000000E+00 0.  1.
          1   -1    0    0  502    0  0.00000000000E+00 -0.00000000000E+00 -0.44210367839E+03  0.44210367839E+03  0.00000000000E+00 0. -1.
         23    2    1    2    0    0 -0.50110865101E+02 -0.51576069595E+02 -0.88503768445E+02  0.14665116621E+03  0.92208772717E+02 0.  0.
        -24    2    1    2    0    0  0.26833075368E+02  0.70797120003E+02 -0.31131618713E+03  0.33073778667E+03  0.82082087129E+02 0.  0.
         11    1    4    4    0    0  0.38303816811E+02  0.84977227934E+02 -0.25230701313E+03  0.26897423766E+03  0.00000000000E+00 0. -1.
        -12    1    4    4    0    0 -0.11470741443E+02 -0.14180107931E+02 -0.59009174001E+02  0.61763549011E+02  0.00000000000E+00 0.  1.
        -11    1    3    3    0    0  0.20601656770E+01 -0.56264186233E+02 -0.18590376042E+02  0.59291694330E+02  0.00000000000E+00 0.  1.
         11    1    3    3    0    0 -0.52171030778E+02  0.46881166379E+01 -0.69913392403E+02  0.87359471881E+02  0.00000000000E+00 0. -1.
         21    1    1    2  502  501  0.23277789733E+02 -0.19221050408E+02  0.61608370444E+02  0.68606818775E+02  0.00000000000E+00 0.  1.
<scales pt_clust_5="13000.00000" pt_clust_6="13000.00000" pt_clust_7="13000.00000" pt_clust_8="13000.00000" pt_clust_9="30.18782"></scales>
<clustering>
<clus scale="   30.188">  1  9  2 -1</clus>
<clus scale="   82.082">  5  6 -1 -1</clus>
<clus scale="   92.209">  7  8 -1 -1</clus>
<clus scale="  110.264">  2  5  1 -1</clus>
<clus scale="  110.264">  2  5  1 -1</clus>
</clustering>
</event>
<event>
 9    1  0.3846604E-005  0.1233700E+03  0.7546771E-02  0.1238774E+00
         -2   -1    0    0    0  501 -0.00000000000E+00  0.00000000000E+00  0.56358829548E+02  0.56358829548E+02  0.00000000000E+00 0.  1.
          1   -1    0    0  502    0  0.00000000000E+00 -0.00000000000E+00 -0.36721181132E+03  0.36721181132E+03  0.00000000000E+00 0. -1.
        -24    2    1    2    0    0 -0.71671550317E+02  0.52201536688E+02 -0.87710686133E+02  0.14794022122E+03  0.79569674092E+02 0.  0.
         23    2    1    2    0    0  0.90182898215E+02 -0.25801603901E+02 -0.19874969060E+03  0.23519991591E+03  0.83778774373E+02 0.  0.
         11    1    3    3    0    0 -0.52512567575E+02 -0.10393614752E+02 -0.35874935106E+02  0.64440732071E+02  0.00000000000E+00 0. -1.
        -12    1    3    3    0    0 -0.19158982742E+02  0.62595151440E+02 -0.51835751028E+02  0.83499489149E+02  0.00000000000E+00 0.  1.
        -13    1    4    4    0    0  0.50856432312E+02 -0.10892687854E+01 -0.27627569575E+02  0.57886490778E+02  0.00000000000E+00 0.  1.
         13    1    4    4    0    0  0.39326465903E+02 -0.24712335115E+02 -0.17112212102E+03  0.17731342513E+03  0.00000000000E+00 0. -1.
         21    1    1    2  502  501 -0.18511347898E+02 -0.26399932788E+02 -0.24392605041E+02  0.40430503743E+02  0.00000000000E+00 0. -1.
<scales pt_clust_5="13000.00000" pt_clust_6="13000.00000" pt_clust_7="13000.00000" pt_clust_8="13000.00000" pt_clust_9="32.24324"></scales>
<clustering>
<clus scale="   32.243">  1  9  2 -1</clus>
<clus scale="   79.570">  5  6 -1 -1</clus>
<clus scale="   83.779">  7  8 -1 -1</clus>
<clus scale="  120.551">  1  5  2 -1</clus>
<clus scale="  123.370">  2  5  1 -1</clus>
</clustering>
</event>
<event>
 9    1  0.3846604E-005  0.1046534E+03  0.7546771E-02  0.1271130E+00
         -4   -1    0    0    0  501 -0.00000000000E+00  0.00000000000E+00  0.16213026288E+03  0.16213026288E+03  0.00000000000E+00 0.  1.
          3   -1    0    0  502    0  0.00000000000E+00 -0.00000000000E+00 -0.20983796755E+03  0.20983796755E+03  0.00000000000E+00 0. -1.
         23    2    1    2    0    0  0.55695133071E+02  0.12444630598E+02  0.45692264900E+02  0.11573647124E+03  0.89723636932E+02 0.  0.
        -24    2    1    2    0    0 -0.45223219126E+02  0.30997670599E+02 -0.15034924585E+03  0.18384312346E+03  0.90484270375E+02 0.  0.
         13    1    4    4    0    0 -0.67043760592E+02  0.14781087740E+02 -0.13768350352E+03  0.15385088082E+03  0.00000000000E+00 0. -1.
        -14    1    4    4    0    0  0.21820541466E+02  0.16216582858E+02 -0.12665742328E+02  0.29992242634E+02  0.00000000000E+00 0.  1.
        -11    1    3    3    0    0  0.90573530881E+01 -0.24440588378E+02 -0.15571278960E+02  0.30361863145E+02  0.00000000000E+00 0. -1.
         11    1    3    3    0    0  0.46637779983E+02  0.36885218976E+02  0.61263543860E+02  0.85374608092E+02  0.00000000000E+00 0.  1.
         21    1    1    2  502  501 -0.10471913945E+02 -0.43442301197E+02  0.56949276274E+02  0.72388635732E+02  0.00000000000E+00 0. -1.
<scales pt_clust_5="13000.00000" pt_clust_6="13000.00000" pt_clust_7="13000.00000" pt_clust_8="13000.00000" pt_clust_9="44.68663"></scales>
<clustering>
<clus scale="   44.687">  1  9  2 -1</clus>
<clus scale="   89.724">  7  8 -1 -1</clus>
<clus scale="   90.484">  5  6 -1 -1</clus>
<clus scale="  103.996">  1  7  2 -1</clus>
<clus scale="  104.653">  2  5  1 -1</clus>
</clustering>
</event>
<event>
 9    1  0.3846604E-005  0.1403213E+03  0.7546771E-02  0.1224619E+00
         -2   -1    0    0    0  501 -0.00000000000E+00  0.00000000000E+00  0.85656520144E+02  0.85656520144E+02  0.00000000000E+00 0.  1.
          1   -1    0    0  502    0  0.00000000000E+00 -0.00000000000E+00 -0.34075154055E+03  0.34075154055E+03  0.00000000000E+00 0. -1.
         23    2    1    2    0    0 -0.67884373214E+02 -0.44037786783E+02 -0.42472563584E+02  0.15053348941E+03  0.11961938800E+03 0.  0.
        -24    2    1    2    0    0  0.69900430324E+02  0.18609654724E+02 -0.22310670499E+03  0.24829606795E+03  0.81498135794E+02 0.  0.
         11    1    4    4    0    0  0.43503521550E+02  0.23938087169E+02 -0.21427862396E+03  0.21995662547E+03  0.00000000000E+00 0. -1.
        -12    1    4    4    0    0  0.26396908774E+02 -0.53284324448E+01 -0.88280810369E+01  0.28339442477E+02  0.00000000000E+00 0.  1.
        -11    1    3    3    0    0 -0.62597702500E+02  0.13055826548E+02  0.18766438334E+02  0.66641624927E+02  0.00000000000E+00 0.  1.
         11    1    3    3    0    0 -0.52866707139E+01 -0.57093613331E+02 -0.61239001918E+02  0.83891864482E+02  0.00000000000E+00 0. -1.
         21    1    1    2  502  501 -0.20160571098E+01  0.25428132060E+02  0.10484248174E+02  0.27578503333E+02  0.00000000000E+00 0.  1.
<scales pt_clust_5="13000.00000" pt_clust_6="13000.00000" pt_clust_7="13000.00000" pt_clust_8="13000.00000" pt_clust_9="25.50793"></scales>
<clustering>
<clus scale="   25.508">  1  9  2 -1</clus>
<clus scale="   81.498">  5  6 -1 -1</clus>
<clus scale="  109.650">  2  5  1 -1</clus>
<clus scale="  119.619">  7  8 -1 -1</clus>
<clus scale="  109.650">  2  5  1 -1</clus>
</clustering>
</event>
<event>
 9    1  0.3846604E-005  0.1055332E+03  0.7546771E-02  0.1274194E+00
          1   -1    0    0  502    0  0.00000000000E+00  0.00000000000E+00  0.12036081655E+04  0.12036081655E+04  0.00000000000E+00 0. -1.
         -2   -1    0    0    0  501 -0.00000000000E+00 -0.00000000000E+00 -0.42535847130E+02  0.42535847130E+02  0.00000000000E+00 0.  1.
         23    2    1    2    0    0  0.50333148160E+02 -0.35600947340E+02  0.47651830186E+02  0.12019269116E+03  0.91513566387E+02 0.  0.
        -24    2    1    2    0    0  0.28527686539E+02  0.19786657706E+02  0.57966912232E+03  0.58617391960E+03  0.79863833669E+02 0.  0.
         11    1    4    4    0    0  0.18589734859E+02 -0.13367738458E+02  0.46000240619E+02  0.51383818568E+02  0.00000000000E+00 0. -1.
        -12    1    4    4    0    0  0.99379516803E+01  0.33154396164E+02  0.53366888170E+03  0.53479010103E+03  0.00000000000E+00 0.  1.
        -11    1    3    3    0    0  0.15504066502E+02 -0.45561186598E+02 -0.12726327140E+02  0.49781092844E+02  0.00000000000E+00 0.  1.
         11    1    3    3    0    0  0.34829081658E+02  0.99602392581E+01  0.60378157325E+02  0.70411598315E+02  0.00000000000E+00 0. -1.
         21    1    1    2  502  501 -0.78860834699E+02  0.15814289634E+02  0.53375136588E+03  0.53977740189E+03  0.00000000000E+00 0. -1.
<scales pt_clust_5="13000.00000" pt_clust_6="13000.00000" pt_clust_7="13000.00000" pt_clust_8="13000.00000" pt_clust_9="80.43086"></scales>
<clustering>
<clus scale="   79.864">  5  6 -1 -1</clus>
<clus scale="   80.431">  1  9  2 -1</clus>
<clus scale="   91.514">  7  8 -1 -1</clus>
<clus scale="   95.607">  1  5  2 -1</clus>
<clus scale="   80.431">  1  5  2 -1</clus>
</clustering>
</event>
<event>
 9    1  0.8346198E-005  0.9957756E+02  0.7546771E-02  0.1287577E+00
          1   -1    0    0  502    0  0.00000000000E+00  0.00000000000E+00  0.35435190815E+03  0.35435190815E+03  0.00000000000E+00 0. -1.
         -2   -1    0    0    0  501 -0.00000000000E+00 -0.00000000000E+00 -0.13464726041E+03  0.13464726041E+03  0.00000000000E+00 0.  1.
         23    2    1    2    0    0 -0.22295985529E+01 -0.19784870325E+02 -0.88675334316E+02  0.12914781509E+03  0.91757457585E+02 0.  0.
        -24    2    1    2    0    0 -0.43363185851E+01  0.39502223342E+02  0.32266091885E+03  0.33463567514E+03  0.79320471623E+02 0.  0.
         11    1    4    4    0    0 -0.18014590870E+02  0.60151640460E+02  0.20522060060E+03  0.21461183622E+03  0.00000000000E+00 0. -1.
        -12    1    4    4    0    0  0.13678272285E+02 -0.20649417118E+02  0.11744031825E+03  0.12002383892E+03  0.00000000000E+00 0.  1.
        -11    1    3    3    0    0 -0.35304615566E+02  0.10693124586E+02 -0.95040465655E+01  0.38093118733E+02  0.00000000000E+00 0. -1.
         11    1    3    3    0    0  0.33075017013E+02 -0.30477994911E+02 -0.79171287751E+02  0.91054696355E+02  0.00000000000E+00 0.  1.
         21    1    1    2  502  501  0.65659171379E+01 -0.19717353017E+02 -0.14280936789E+02  0.25215678326E+02  0.00000000000E+00 0.  1.
<scales pt_clust_5="13000.00000" pt_clust_6="13000.00000" pt_clust_7="13000.00000" pt_clust_8="13000.00000" pt_clust_9="20.78185"></scales>
<clustering>
<clus scale="   20.782">  2  9  1 -1</clus>
<clus scale="   79.320">  5  6 -1 -1</clus>
<clus scale="   88.250">  1  5  2 -1</clus>
<clus scale="   91.757">  7  8 -1 -1</clus>
<clus scale="   88.250">  1  5  2 -1</clus>
</clustering>
</event>
<event>
 9    1  0.3846604E-005  0.1204937E+03  0.7546771E-02  0.1245536E+00
         -2   -1    0    0    0  501 -0.00000000000E+00  0.00000000000E+00  0.24223436821E+03  0.24223436821E+03  0.00000000000E+00 0.  1.
          1   -1    0    0  502    0  0.00000000000E+00 -0.00000000000E+00 -0.17012535499E+03  0.17012535499E+03  0.00000000000E+00 0. -1.
        -24    2    1    2    0    0 -0.77517991726E+02  0.33363728403E+02  0.15425050700E+03  0.19203975728E+03  0.77226109917E+02 0.  0.
         23    2    1    2    0    0  0.65320444217E+02 -0.50060765350E+02 -0.12444735847E+03  0.17323114138E+03  0.88028646779E+02 0.  0.
         11    1    3    3    0    0 -0.92861776629E+02  0.27748874340E+02  0.12133076698E+03  0.15528832732E+03  0.00000000000E+00 0. -1.
        -12    1    3    3    0    0  0.15343784903E+02  0.56148540630E+01  0.32919740017E+02  0.36751429960E+02  0.00000000000E+00 0.  1.
        -13    1    4    4    0    0  0.31732835619E+02  0.14192817692E+02 -0.73897270770E+01  0.35538950416E+02  0.00000000000E+00 0.  1.
         13    1    4    4    0    0  0.33587608599E+02 -0.64253583041E+02 -0.11705763140E+03  0.13769219097E+03  0.00000000000E+00 0. -1.
         21    1    1    2  502  501  0.12197547508E+02  0.16697036947E+02  0.42305864697E+02  0.47088824532E+02  0.00000000000E+00 0.  1.
<scales pt_clust_5="13000.00000" pt_clust_6="13000.00000" pt_clust_7="13000.00000" pt_clust_8="13000.00000" pt_clust_9="20.67780"></scales>
<clustering>
<clus scale="   20.678">  1  9  2 -1</clus>
<clus scale="   77.226">  5  6 -1 -1</clus>
<clus scale="   88.029">  7  8 -1 -1</clus>
<clus scale="  112.843">  1  5  2 -1</clus>
<clus scale="  120.494">  2  5  1 -1</clus>
</clustering>
</event>
<event>
 9    1  0.3846604E-005  0.1059384E+03  0.7546771E-02  0.1273889E+00
          3   -1    0    0  502    0  0.00000000000E+00  0.00000000000E+00  0.73756838371E+02  0.73756838371E+02  0.00000000000E+00 0. -1.
         -4   -1    0    0    0  501 -0.00000000000E+00 -0.00000000000E+00 -0.43646546741E+03  0.43646546741E+03  0.00000000000E+00 0.  1.
         23    2    1    2    0    0 -0.21581280157E+02  0.49020138766E+02 -0.13575515820E+03  0.17339847073E+03  0.93642089984E+02 0.  0.
        -24    2    1    2    0    0 -0.87973273031E+01 -0.49614117385E+02  0.11713934406E+02  0.96230105021E+02  0.81142240797E+02 0.  0.
         13    1    4    4    0    0  0.26185536858E+02  0.82608542662E+01 -0.73517300861E+00  0.27467517782E+02  0.00000000000E+00 0. -1.
        -14    1    4    4    0    0 -0.34982864161E+02 -0.57874971651E+02  0.12449107414E+02  0.68762587240E+02  0.00000000000E+00 0.  1.
        -13    1    3    3    0    0 -0.58471626786E+02  0.23531292752E+02 -0.78212264900E+02  0.10044805254E+03  0.00000000000E+00 0.  1.
         13    1    3    3    0    0  0.36890346629E+02  0.25488846014E+02 -0.57542893297E+02  0.72950418193E+02  0.00000000000E+00 0. -1.
         21    1    1    2  502  501  0.30378607460E+02  0.59397861905E+00 -0.23866740525E+03  0.24059373003E+03  0.00000000000E+00 0.  1.
<scales pt_clust_5="13000.00000" pt_clust_6="13000.00000" pt_clust_7="13000.00000" pt_clust_8="13000.00000" pt_clust_9="30.38441"></scales>
<clustering>
<clus scale="   30.384">  2  9  1 -1</clus>
<clus scale="   81.142">  5  6 -1 -1</clus>
<clus scale="   93.642">  7  8 -1 -1</clus>
<clus scale="   95.069">  1  5  2 -1</clus>
<clus scale="   95.069">  1  5  2 -1</clus>
</clustering>
</event>
<event>
 9    1  0.3846604E-005  0.1688554E+03  0.7546771E-02  0.1180954E+00
          1   -1    0    0  502    0  0.00000000000E+00  0.00000000000E+00  0.31229186472E+03  0.31229186472E+03  0.00000000000E+00 0. -1.
         -2   -1    0    0    0  501 -0.00000000000E+00 -0.00000000000E+00 -0.10967564745E+03  0.10967564745E+03  0.00000000000E+00 0.  1.
         23    2    1    2    0    0 -0.46367135648E+02 -0.13345172802E+03  0.43563206326E+02  0.17422789453E+03  0.92186394380E+02 0.  0.
        -24    2    1    2    0    0  0.21128206074E+02  0.14173788535E+03  0.13649844373E+03  0.21289177020E+03  0.78454135897E+02 0.  0.
         11    1    4    4    0    0 -0.10913921310E+02  0.10658778187E+03  0.59967394054E+02  0.12278500426E+03  0.00000000000E+00 0. -1.
        -12    1    4    4    0    0  0.32042127385E+02  0.35150103486E+02  0.76531049678E+02  0.90106765934E+02  0.00000000000E+00 0.  1.
        -13    1    3    3    0    0  0.19530846508E+02 -0.77657492246E+02  0.67420475279E+01  0.80359164208E+02  0.00000000000E+00 0.  1.
         13    1    3    3    0    0 -0.65897982156E+02 -0.55794235770E+02  0.36821158798E+02  0.93868730324E+02  0.00000000000E+00 0. -1.
         21    1    1    2  502  501  0.25238929574E+02 -0.82861573364E+01  0.22554567208E+02  0.34847847442E+02  0.00000000000E+00 0. -1.
<scales pt_clust_5="13000.00000" pt_clust_6="13000.00000" pt_clust_7="13000.00000" pt_clust_8="13000.00000" pt_clust_9="26.56434"></scales>
<clustering>
<clus scale="   26.564">  1  9  2 -1</clus>
<clus scale="   78.454">  5  6 -1 -1</clus>
<clus scale="   92.186">  7  8 -1 -1</clus>
<clus scale="  161.768">  1  5  2 -1</clus>
<clus scale="   26.564">  1  5  2 -1</clus>
</clustering>
</event>
<event>
 9    1  0.3846604E-005  0.1577435E+03  0.7546771E-02  0.1192821E+00
          1   -1    0    0  502    0  0.00000000000E+00  0.00000000000E+00  0.65310244619E+03  0.65310244619E+03  0.00000000000E+00 0. -1.
         -2   -1    0    0    0  501 -0.00000000000E+00 -0.00000000000E+00 -0.20983983131E+03  0.20983983131E+03  0.00000000000E+00 0.  1.
        -24    2    1    2    0    0 -0.10881493050E+03  0.24901565709E+01 -0.16007377232E+03  0.20957489404E+03  0.80318949476E+02 0.  0.
         23    2    1    2    0    0  0.12672207565E+03 -0.32751423130E+02  0.59683720846E+03  0.61760917566E+03  0.89973886688E+02 0.  0.
         13    1    3    3    0    0 -0.98855313387E+02  0.28254808964E+02 -0.14601393865E+03  0.17857989107E+03  0.00000000000E+00 0. -1.
        -14    1    3    3    0    0 -0.99596171148E+01 -0.25764652393E+02 -0.14059833673E+02  0.30995002967E+02  0.00000000000E+00 0.  1.
        -13    1    4    4    0    0  0.39397268905E+02 -0.25476615197E+01  0.53603178649E+02  0.66572788267E+02  0.00000000000E+00 0.  1.
         13    1    4    4    0    0  0.87324806743E+02 -0.30203761611E+02  0.54323402981E+03  0.55103638739E+03  0.00000000000E+00 0. -1.
         21    1    1    2  502  501 -0.17907145146E+02  0.30261266559E+02  0.64991787384E+01  0.35758207804E+02  0.00000000000E+00 0.  1.
<scales pt_clust_5="13000.00000" pt_clust_6="13000.00000" pt_clust_7="13000.00000" pt_clust_8="13000.00000" pt_clust_9="35.16262"></scales>
<clustering>
<clus scale="   35.163">  2  9  1 -1</clus>
<clus scale="   80.319">  5  6 -1 -1</clus>
<clus scale="   89.974">  7  8 -1 -1</clus>
<clus scale="  152.443">  2  5  1 -1</clus>
<clus scale="  157.744">  1  5  2 -1</clus>
</clustering>
</event>
<event>
 9    1  0.3846604E-005  0.1222739E+03  0.7546771E-02  0.1242529E+00
          1   -1    0    0  502    0  0.00000000000E+00  0.00000000000E+00  0.59552605540E+03  0.59552605540E+03  0.00000000000E+00 0. -1.
         -2   -1    0    0    0  501 -0.00000000000E+00 -0.00000000000E+00 -0.33766335794E+02  0.33766335794E+02  0.00000000000E+00 0.  1.
        -24    2    1    2    0    0  0.59355491442E+01  0.84338478925E+02  0.14771906069E+03  0.18852781050E+03  0.81077769253E+02 0.  0.
         23    2    1    2    0    0 -0.33296685212E+02 -0.70405428311E+02  0.34098167401E+03  0.36151575142E+03  0.91430536121E+02 0.  0.
         11    1    3    3    0    0 -0.21192068051E+02  0.54606819752E+02  0.13359805110E+03  0.14587476742E+03  0.00000000000E+00 0. -1.
        -12    1    3    3    0    0  0.27127617195E+02  0.29731659173E+02  0.14121009595E+02  0.42653043079E+02  0.00000000000E+00 0.  1.
        -11    1    4    4    0    0 -0.57836560118E+02 -0.19690349746E+02  0.13923446631E+03  0.15204938069E+03  0.00000000000E+00 0. -1.
         11    1    4    4    0    0  0.24539874906E+02 -0.50715078565E+02  0.20174720769E+03  0.20946637073E+03  0.00000000000E+00 0.  1.
         21    1    1    2  502  501  0.27361136068E+02 -0.13933050614E+02  0.73058984908E+02  0.79248829279E+02  0.00000000000E+00 0. -1.
<scales pt_clust_5="13000.00000" pt_clust_6="13000.00000" pt_clust_7="13000.00000" pt_clust_8="13000.00000" pt_clust_9="30.70442"></scales>
<clustering>
<clus scale="   30.704">  1  9  2 -1</clus>
<clus scale="   81.078">  5  6 -1 -1</clus>
<clus scale="   91.431">  7  8 -1 -1</clus>
<clus scale="  114.739">  2  5  1 -1</clus>
<clus scale="   30.704">  1  5  2 -1</clus>
</clustering>
</event>
<event>
 9    1  0.3846604E-005  0.1731137E+03  0.7546771E-02  0.1176276E+00
         -2   -1    0    0    0  501 -0.00000000000E+00  0.00000000000E+00  0.54494657091E+02  0.54494657091E+02  0.00000000000E+00 0.  1.
          1   -1    0    0  502    0  0.00000000000E+00 -0.00000000000E+00 -0.72614039207E+03  0.72614039207E+03  0.00000000000E+00 0. -1.
        -24    2    1    2    0    0 -0.10270506584E+03 -0.92346834324E+02 -0.16527632459E+03  0.23010807796E+03  0.80976513354E+02 0.  0.
         23    2    1    2    0    0  0.12058276596E+03  0.11177699455E+03 -0.45669394509E+03  0.49427045921E+03  0.93271793209E+02 0.  0.
         11    1    3    3    0    0 -0.89819069626E+02 -0.38214144000E+02 -0.71244615550E+02  0.12084527841E+03  0.00000000000E+00 0. -1.
        -12    1    3    3    0    0 -0.12885996212E+02 -0.54132690324E+02 -0.94031709039E+02  0.10926279955E+03  0.00000000000E+00 0.  1.
        -13    1    4    4    0    0  0.91717975776E+02  0.26094026823E+02 -0.27991422190E+03  0.29571110384E+03  0.00000000000E+00 0.  1.
         13    1    4    4    0    0  0.28864790187E+02  0.85682967732E+02 -0.17677972319E+03  0.19855935537E+03  0.00000000000E+00 0. -1.
         21    1    1    2  502  501 -0.17877700126E+02 -0.19430160230E+02 -0.49675465299E+02  0.56256511988E+02  0.00000000000E+00 0. -1.
<scales pt_clust_5="13000.00000" pt_clust_6="13000.00000" pt_clust_7="13000.00000" pt_clust_8="13000.00000" pt_clust_9="26.40347"></scales>
<clustering>
<clus scale="   26.403">  2  9  1 -1</clus>
<clus scale="   80.977">  5  6 -1 -1</clus>
<clus scale="   93.272">  7  8 -1 -1</clus>
<clus scale="  166.811">  1  5  2 -1</clus>
<clus scale="   26.403">  2  5  1 -1</clus>
</clustering>
</event>
<event>
 9    1  0.3846604E-005  0.1013616E+03  0.7546771E-02  0.1286646E+00
         -2   -1    0    0    0  501 -0.00000000000E+00  0.00000000000E+00  0.10929174171E+03  0.10929174171E+03  0.00000000000E+00 0.  1.
          1   -1    0    0  502    0  0.00000000000E+00 -0.00000000000E+00 -0.13040977428E+03  0.13040977428E+03  0.00000000000E+00 0. -1.
        -24    2    1    2    0    0 -0.30896292203E+02  0.29447078654E+02  0.32737600164E+02  0.97948560767E+02  0.81856330107E+02 0.  0.
         23    2    1    2    0    0  0.14309709128E+02 -0.52533490007E+01 -0.51598046542E+02  0.11233275827E+03  0.98609962598E+02 0.  0.
         13    1    3    3    0    0 -0.12688819907E+02  0.40117505406E+02 -0.15860243418E+02  0.44966295288E+02  0.00000000000E+00 0. -1.
        -14    1    3    3    0    0 -0.18207472297E+02 -0.10670426752E+02  0.48597843582E+02  0.52982265479E+02  0.00000000000E+00 0.  1.
        -13    1    4    4    0    0 -0.14066894201E+02 -0.23859259696E+02 -0.68889227999E+02  0.74248686992E+02  0.00000000000E+00 0.  1.
         13    1    4    4    0    0  0.28376603329E+02  0.18605910695E+02  0.17291181457E+02  0.38084071283E+02  0.00000000000E+00 0. -1.
         21    1    1    2  502  501  0.16586583075E+02 -0.24193729653E+02 -0.22575861922E+01  0.29420196941E+02  0.00000000000E+00 0. -1.
<scales pt_clust_5="13000.00000" pt_clust_6="13000.00000" pt_clust_7="13000.00000" pt_clust_8="13000.00000" pt_clust_9="29.33345"></scales>
<clustering>
<clus scale="   29.333">  1  9  2 -1</clus>
<clus scale="   81.856">  5  6 -1 -1</clus>
<clus scale="   85.151">  1  5  2 -1</clus>
<clus scale="   98.610">  7  8 -1 -1</clus>
<clus scale="  101.362">  2  5  1 -1</clus>
</clustering>
</event>
<event>
 9    1  0.3846604E-005  0.1606758E+03  0.7546771E-02  0.1190064E+00
          1   -1    0    0  502    0  0.00000000000E+00  0.00000000000E+00  0.61207023431E+03  0.61207023431E+03  0.00000000000E+00 0. -1.
         -2   -1    0    0    0  501 -0.00000000000E+00 -0.00000000000E+00 -0.95291444841E+02  0.95291444841E+02  0.00000000000E+00 0.  1.
        -24    2    1    2    0    0 -0.97073778560E+02 -0.11708869287E+03  0.42986323681E+02  0.17768681271E+03  0.81189278261E+02 0.  0.
         23    2    1    2    0    0  0.85545358750E+02  0.92378853694E+02  0.47693579359E+03  0.50222744169E+03  0.94407578954E+02 0.  0.
         11    1    3    3    0    0  0.93996228433E+01 -0.36844630906E+02  0.17877010713E+02  0.42017463610E+02  0.00000000000E+00 0. -1.
        -12    1    3    3    0    0 -0.10647340140E+03 -0.80244061968E+02  0.25109312969E+02  0.13566934910E+03  0.00000000000E+00 0.  1.
        -11    1    4    4    0    0  0.35898490212E+02  0.93102470760E+02  0.38522351953E+03  0.39793709511E+03  0.00000000000E+00 0. -1.
         11    1    4    4    0    0  0.49646868538E+02 -0.72361706569E+00  0.91712274058E+02  0.10429034658E+03  0.00000000000E+00 0.  1.
         21    1    1    2  502  501  0.11528419810E+02  0.24709839179E+02 -0.31433278088E+01  0.27447424748E+02  0.00000000000E+00 0.  1.
<scales pt_clust_5="13000.00000" pt_clust_6="13000.00000" pt_clust_7="13000.00000" pt_clust_8="13000.00000" pt_clust_9="27.26684"></scales>
<clustering>
<clus scale="   27.267">  2  9  1 -1</clus>
<clus scale="   81.189">  5  6 -1 -1</clus>
<clus scale="   94.408">  7  8 -1 -1</clus>
<clus scale="  153.283">  2  5  1 -1</clus>
<clus scale="  160.676">  1  5  2 -1</clus>
</clustering>
</event>
<event>
 9    1  0.3846604E-005  0.1023809E+03  0.7546771E-02  0.1284514E+00
         -2   -1    0    0    0  501 -0.00000000000E+00  0.00000000000E+00  0.12566156007E+03  0.12566156007E+03  0.00000000000E+00 0.  1.
          1   -1    0    0  502    0  0.00000000000E+00 -0.00000000000E+00 -0.30117119429E+03  0.30117119429E+03  0.00000000000E+00 0. -1.
         23    2    1    2    0    0  0.45293054224E+02  0.11909698849E+02  0.21044838299E+02  0.11075023341E+03  0.98129645335E+02 0.  0.
        -24    2    1    2    0    0 -0.24844823509E+02 -0.11415399344E+02 -0.24715898058E+03  0.26150055774E+03  0.80916026960E+02 0.  0.
         11    1    4    4    0    0 -0.35007216978E+02 -0.38637567421E+02 -0.11626632827E+03  0.12742145010E+03  0.00000000000E+00 0. -1.
        -12    1    4    4    0    0  0.10162393469E+02  0.27222168078E+02 -0.13089265231E+03  0.13407910764E+03  0.00000000000E+00 0.  1.
        -11    1    3    3    0    0  0.68261256698E+02 -0.55992152214E+01 -0.89953985532E+01  0.69078705635E+02  0.00000000000E+00 0.  1.
         11    1    3    3    0    0 -0.22968202475E+02  0.17508914070E+02  0.30040236853E+02  0.41671527774E+02  0.00000000000E+00 0. -1.
         21    1    1    2  502  501 -0.20448230715E+02 -0.49429950517E+00  0.50604508064E+02  0.54581963209E+02  0.00000000000E+00 0.  1.
<scales pt_clust_5="13000.00000" pt_clust_6="13000.00000" pt_clust_7="13000.00000" pt_clust_8="13000.00000" pt_clust_9="20.45420"></scales>
<clustering>
<clus scale="   20.454">  1  9  2 -1</clus>
<clus scale="   80.916">  5  6 -1 -1</clus>
<clus scale="   86.022">  2  5  1 -1</clus>
<clus scale="   98.130">  7  8 -1 -1</clus>
<clus scale="   86.022">  2  5  1 -1</clus>
</clustering>
</event>
<event>
 9    1  0.3846604E-005  0.9865187E+02  0.7546771E-02  0.1288719E+00
         -2   -1    0    0    0  501 -0.00000000000E+00  0.00000000000E+00  0.46690906674E+03  0.46690906674E+03  0.00000000000E+00 0.  1.
          1   -1    0    0  502    0  0.00000000000E+00 -0.00000000000E+00 -0.27196160522E+03  0.27196160522E+03  0.00000000000E+00 0. -1.
        -24    2    1    2    0    0  0.83181797454E+01  0.40706681053E+02 -0.48346362236E+01  0.90930805626E+02  0.80739158454E+02 0.  0.
         23    2    1    2    0    0  0.50248826638E+02  0.12909721565E+02 -0.20770211585E+03  0.23279146251E+03  0.91433531036E+02 0.  0.
         11    1    3    3    0    0  0.39659387101E+02  0.71077233473E+01  0.11930266005E+02  0.42020446967E+02  0.00000000000E+00 0. -1.
        -12    1    3    3    0    0 -0.31341207356E+02  0.33598957706E+02 -0.16764902228E+02  0.48910358659E+02  0.00000000000E+00 0.  1.
        -11    1    4    4    0    0  0.20855517613E+02  0.41921210641E+02 -0.17180759201E+03  0.17807354994E+03  0.00000000000E+00 0. -1.
         11    1    4    4    0    0  0.29393309024E+02 -0.29011489077E+02 -0.35894523846E+02  0.54717912570E+02  0.00000000000E+00 0.  1.
         21    1    1    2  502  501 -0.58567006383E+02 -0.53616402618E+02  0.40748421360E+03  0.41514840382E+03  0.00000000000E+00 0.  1.
<scales pt_clust_5="13000.00000" pt_clust_6="13000.00000" pt_clust_7="13000.00000" pt_clust_8="13000.00000" pt_clust_9="79.40285"></scales>
<clustering>
<clus scale="   79.403">  1  9  2 -1</clus>
<clus scale="   80.739">  5  6 -1 -1</clus>
<clus scale="   88.831">  1  5  2 -1</clus>
<clus scale="   91.434">  7  8 -1 -1</clus>
<clus scale="   98.652">  2  5  1 -1</clus>
</clustering>
</event>
<event>
 9    1  0.3846604E-005  0.9877736E+02  0.7546771E-02  0.1290074E+00
         -2   -1    0    0    0  501 -0.00000000000E+00  0.00000000000E+00  0.36704251577E+03  0.36704251577E+03  0.00000000000E+00 0.  1.
          1   -1    0    0  502    0  0.00000000000E+00 -0.00000000000E+00 -0.24842809632E+03  0.24842809632E+03  0.00000000000E+00 0. -1.
        -24    2    1    2    0    0  0.28186312859E+02 -0.71602265543E+02 -0.66935102568E+01  0.11018677195E+03  0.78580970790E+02 0.  0.
         23    2    1    2    0    0  0.10081681176E+02  0.26837938774E+02 -0.17468597678E+03  0.19956398758E+03  0.92134029548E+02 0.  0.
         11    1    3    3    0    0  0.15200184435E+02 -0.35367079374E+02 -0.42691974538E+02  0.57484611856E+02  0.00000000000E+00 0. -1.
        -12    1    3    3    0    0  0.12986128424E+02 -0.36235186169E+02  0.35998464282E+02  0.52702160096E+02  0.00000000000E+00 0.  1.
        -13    1    4    4    0    0  0.48267769982E+02  0.75471199375E+01 -0.12375344460E+03  0.13304755424E+03  0.00000000000E+00 0. -1.
         13    1    4    4    0    0 -0.38186088806E+02  0.19290818836E+02 -0.50932532180E+02  0.66516433337E+02  0.00000000000E+00 0.  1.
         21    1    1    2  502  501 -0.38267994035E+02  0.44764326769E+02  0.29999390649E+03  0.30571985256E+03  0.00000000000E+00 0.  1.
<scales pt_clust_5="13000.00000" pt_clust_6="13000.00000" pt_clust_7="13000.00000" pt_clust_8="13000.00000" pt_clust_9="58.89214"></scales>
<clustering>
<clus scale="   58.892">  1  9  2 -1</clus>
<clus scale="   78.581">  5  6 -1 -1</clus>
<clus scale="   86.274">  1  5  2 -1</clus>
<clus scale="   92.134">  7  8 -1 -1</clus>
<clus scale="   98.777">  2  5  1 -1</clus>
</clustering>
</event>
<event>
 9    1  0.3846604E-005  0.1232450E+03  0.7546771E-02  0.1241517E+00
         -2   -1    0    0    0  501 -0.00000000000E+00  0.00000000000E+00  0.42184928765E+03  0.42184928765E+03  0.00000000000E+00 0.  1.
          1   -1    0    0  502    0  0.00000000000E+00 -0.00000000000E+00 -0.92979321844E+02  0.92979321844E+02  0.00000000000E+00 0. -1.
        -24    2    1    2    0    0  0.34809972455E+02 -0.55030373874E+02  0.20675567276E+03  0.23114104463E+03  0.80238382723E+02 0.  0.
         23    2    1    2    0    0 -0.87856765792E+02  0.19407051703E+02 -0.17456634427E+02  0.13018503342E+03  0.92455199362E+02 0.  0.
         11    1    3    3    0    0  0.17204457498E+02 -0.69365953932E+02  0.10588499225E+03  0.12774686104E+03  0.00000000000E+00 0. -1.
        -12    1    3    3    0    0  0.17605514957E+02  0.14335580057E+02  0.10087068051E+03  0.10339418358E+03  0.00000000000E+00 0.  1.
        -13    1    4    4    0    0  0.19838488000E+02  0.33041564779E+01 -0.23021124885E+01  0.20243092107E+02  0.00000000000E+00 0.  1.
         13    1    4    4    0    0 -0.10769525379E+03  0.16102895225E+02 -0.15154521939E+02  0.10994194131E+03  0.00000000000E+00 0. -1.
         21    1    1    2  502  501  0.53046793337E+02  0.35623322172E+02  0.13957092748E+03  0.15350253145E+03  0.00000000000E+00 0.  1.
<scales pt_clust_5="13000.00000" pt_clust_6="13000.00000" pt_clust_7="13000.00000" pt_clust_8="13000.00000" pt_clust_9="63.89823"></scales>
<clustering>
<clus scale="   63.898">  1  9  2 -1</clus>
<clus scale="   80.238">  5  6 -1 -1</clus>
<clus scale="   92.455">  7  8 -1 -1</clus>
<clus scale="  114.366">  1  5  2 -1</clus>
<clus scale="  123.245">  2  5  1 -1</clus>
</clustering>
</event>
<event>
 9    1  0.3846604E-005  0.1868980E+03  0.7546771E-02  0.1163715E+00
         -2   -1    0    0    0  501 -0.00000000000E+00  0.00000000000E+00  0.98878795654E+02  0.98878795654E+02  0.00000000000E+00 0.  1.
          1   -1    0    0  502    0  0.00000000000E+00 -0.00000000000E+00 -0.54233378471E+03  0.54233378471E+03  0.00000000000E+00 0. -1.
        -24    2    1    2    0    0 -0.58886480675E+02 -0.15527287473E+03 -0.17521965344E+03  0.25808692533E+03  0.91266920865E+02 0.  0.
         23    2    1    2    0    0 -0.22659365446E+02  0.16828361759E+03 -0.22487865078E+03  0.28985826218E+03  0.67930713097E+02 0.  0.
         13    1    3    3    0    0 -0.46902891387E+02 -0.27897751530E+02 -0.86937187173E+02  0.10264618977E+03  0.00000000000E+00 0. -1.
        -14    1    3    3    0    0 -0.11983589289E+02 -0.12737512320E+03 -0.88282466263E+02  0.15544073556E+03  0.00000000000E+00 0.  1.
        -13    1    4    4    0    0 -0.43350903855E+02  0.69567860452E+02 -0.97264807997E+02  0.12719839208E+03  0.00000000000E+00 0. -1.
         13    1    4    4    0    0  0.20691538409E+02  0.98715757141E+02 -0.12761384278E+03  0.16265987010E+03  0.00000000000E+00 0.  1.
         21    1    1    2  502  501  0.81545846121E+02 -0.13010742860E+02 -0.43356684836E+02  0.93267392851E+02  0.00000000000E+00 0.  1.
<scales pt_clust_5="13000.00000" pt_clust_6="13000.00000" pt_clust_7="13000.00000" pt_clust_8="13000.00000" pt_clust_9="82.57726"></scales>
<clustering>
<clus scale="   67.931">  7  8 -1 -1</clus>
<clus scale="   82.577">  1  9  2 -1</clus>
<clus scale="   91.267">  5  6 -1 -1</clus>
<clus scale="  176.680">  2  7  1 -1</clus>
<clus scale="  176.680">  2  5  1 -1</clus>
</clustering>
</event>
<event>
 9    1  0.3846604E-005  0.1307442E+03  0.7546771E-02  0.1228764E+00
         -2   -1    0    0    0  501 -0.00000000000E+00  0.00000000000E+00  0.14785875059E+03  0.14785875059E+03  0.00000000000E+00 0.  1.
          1   -1    0    0  502    0  0.00000000000E+00 -0.00000000000E+00 -0.42298703645E+03  0.42298703645E+03  0.00000000000E+00 0. -1.
        -24    2    1    2    0    0  0.15653020667E+02 -0.90317035575E+02 -0.27004308460E+01  0.12299645580E+03  0.81967382788E+02 0.  0.
         23    2    1    2    0    0  0.77198603895E+02  0.68075412707E+02 -0.31466927968E+03  0.34344410182E+03  0.91341169479E+02 0.  0.
         13    1    3    3    0    0  0.34705878799E+02 -0.68972640498E+02 -0.30580791397E+02  0.83047624668E+02  0.00000000000E+00 0. -1.
        -14    1    3    3    0    0 -0.19052858132E+02 -0.21344395077E+02  0.27880360551E+02  0.39948831130E+02  0.00000000000E+00 0.  1.
        -11    1    4    4    0    0 -0.15952128129E+02  0.35193048606E+02 -0.96742275608E+02  0.10417336009E+03  0.00000000000E+00 0.  1.
         11    1    4    4    0    0  0.93150732024E+02  0.32882364101E+02 -0.21792700407E+03  0.23927074174E+03  0.00000000000E+00 0. -1.
         21    1    1    2  502  501 -0.92851624562E+02  0.22241622868E+02  0.42241424665E+02  0.10440522942E+03  0.00000000000E+00 0.  1.
<scales pt_clust_5="13000.00000" pt_clust_6="13000.00000" pt_clust_7="13000.00000" pt_clust_8="13000.00000" pt_clust_9="95.47834"></scales>
<clustering>
<clus scale="   81.967">  5  6 -1 -1</clus>
<clus scale="   91.341">  7  8 -1 -1</clus>
<clus scale="   95.478">  1  9  2 -1</clus>
<clus scale="  124.376">  1  5  2 -1</clus>
<clus scale="  130.744">  2  5  1 -1</clus>
</clustering>
</event>
<event>
 9    1  0.3846604E-005  0.9637657E+02  0.7546771E-02  0.1294940E+00
         -2   -1    0    0    0  501 -0.00000000000E+00  0.00000000000E+00  0.75028851771E+03  0.75028851771E+03  0.00000000000E+00 0.  1.
          1   -1    0    0  502    0  0.00000000000E+00 -0.00000000000E+00 -0.62453213588E+02  0.62453213588E+02  0.00000000000E+00 0. -1.
        -24    2    1    2    0    0 -0.21272416165E+02  0.77515586919E+01  0.59976736632E+03  0.60543792425E+03  0.79508389894E+02 0.  0.
         23    2    1    2    0    0  0.25733815093E+01  0.31941839505E+02 -0.12125559553E+02  0.97923933811E+02  0.91734204173E+02 0.  0.
         11    1    3    3    0    0 -0.31321871961E+02  0.23114273534E+02  0.14019429092E+03  0.14549834539E+03  0.00000000000E+00 0. -1.
        -12    1    3    3    0    0  0.10049455796E+02 -0.15362714842E+02  0.45957307540E+03  0.45993957886E+03  0.00000000000E+00 0.  1.
        -13    1    4    4    0    0 -0.61879523312E+01  0.62132493685E+02  0.40483477471E+01  0.62570972863E+02  0.00000000000E+00 0. -1.
         13    1    4    4    0    0  0.87613338404E+01 -0.30190654179E+02 -0.16173907300E+02  0.35352960948E+02  0.00000000000E+00 0.  1.
         21    1    1    2  502  501  0.18699034656E+02 -0.39693398197E+02  0.10019349735E+03  0.10937987323E+03  0.00000000000E+00 0.  1.
<scales pt_clust_5="13000.00000" pt_clust_6="13000.00000" pt_clust_7="13000.00000" pt_clust_8="13000.00000" pt_clust_9="43.87733"></scales>
<clustering>
<clus scale="   43.877">  1  9  2 -1</clus>
<clus scale="   79.508">  5  6 -1 -1</clus>
<clus scale="   84.823">  1  5  2 -1</clus>
<clus scale="   91.734">  7  8 -1 -1</clus>
<clus scale="   96.377">  2  5  1 -1</clus>
</clustering>
</event>
<event>
 9    1  0.3846604E-005  0.1040086E+03  0.7546771E-02  0.1278863E+00
         -2   -1    0    0    0  501 -0.00000000000E+00  0.00000000000E+00  0.18098768740E+03  0.18098768740E+03  0.00000000000E+00 0.  1.
          1   -1    0    0  502    0  0.00000000000E+00 -0.00000000000E+00 -0.16164385754E+03  0.16164385754E+03  0.00000000000E+00 0. -1.
         23    2    1    2    0    0  0.42990180869E+02  0.44559334009E+02  0.72925834489E+02  0.13438452274E+03  0.94378666641E+02 0.  0.
        -24    2    1    2    0    0 -0.43824971119E+02  0.68059827584E+01 -0.10237010447E+03  0.13739950054E+03  0.80199968610E+02 0.  0.
         13    1    4    4    0    0 -0.56549706844E+02  0.67928296891E+01 -0.10904992175E+03  0.12302803467E+03  0.00000000000E+00 0. -1.
        -14    1    4    4    0    0  0.12724735725E+02  0.13153069272E-01  0.66798172894E+01  0.14371465871E+02  0.00000000000E+00 0.  1.
        -11    1    3    3    0    0  0.61773070039E+02  0.60987906715E+02  0.64128126494E+02  0.10792522205E+03  0.00000000000E+00 0. -1.
         11    1    3    3    0    0 -0.18782889170E+02 -0.16428572706E+02  0.87977079953E+01  0.26459300684E+02  0.00000000000E+00 0.  1.
         21    1    1    2  502  501  0.83479025005E+00 -0.51365316768E+02  0.48788099836E+02  0.70847521672E+02  0.00000000000E+00 0.  1.
<scales pt_clust_5="13000.00000" pt_clust_6="13000.00000" pt_clust_7="13000.00000" pt_clust_8="13000.00000" pt_clust_9="51.37210"></scales>
<clustering>
<clus scale="   51.372">  1  9  2 -1</clus>
<clus scale="   80.200">  5  6 -1 -1</clus>
<clus scale="   91.337">  2  5  1 -1</clus>
<clus scale="   94.379">  7  8 -1 -1</clus>
<clus scale="   91.337">  2  5  1 -1</clus>
</clustering>
</event>
<event>
 9    1  0.3846604E-005  0.1271464E+03  0.7546771E-02  0.1234172E+00
          1   -1    0    0  502    0  0.00000000000E+00  0.00000000000E+00  0.36106802250E+03  0.36106802250E+03  0.00000000000E+00 0. -1.
         -2   -1    0    0    0  501 -0.00000000000E+00 -0.00000000000E+00 -0.77989867673E+02  0.77989867673E+02  0.00000000000E+00 0.  1.
        -24    2    1    2    0    0 -0.23917723159E+02 -0.51188297200E+02  0.22382779208E+02  0.10040271164E+03  0.79921314104E+02 0.  0.
         23    2    1    2    0    0  0.58597336702E+02  0.89446479189E+02  0.24973798915E+03  0.28586854763E+03  0.88980013422E+02 0.  0.
         13    1    3    3    0    0  0.14821647776E+02  0.14533659764E+02 -0.47030791570E+00  0.20763662935E+02  0.00000000000E+00 0. -1.
        -14    1    3    3    0    0 -0.38739370935E+02 -0.65721956963E+02  0.22853087123E+02  0.79639048705E+02  0.00000000000E+00 0.  1.
        -13    1    4    4    0    0  0.32408693145E+02  0.17966497168E+02  0.17609305828E+03  0.17994966959E+03  0.00000000000E+00 0. -1.
         13    1    4    4    0    0  0.26188643557E+02  0.71479982022E+02  0.73644930874E+02  0.10591887804E+03  0.00000000000E+00 0.  1.
         21    1    1    2  502  501 -0.34679613544E+02 -0.38258181990E+02  0.10957386473E+02  0.52786630912E+02  0.00000000000E+00 0.  1.
<scales pt_clust_5="13000.00000" pt_clust_6="13000.00000" pt_clust_7="13000.00000" pt_clust_8="13000.00000" pt_clust_9="51.63685"></scales>
<clustering>
<clus scale="   51.637">  2  9  1 -1</clus>
<clus scale="   79.921">  5  6 -1 -1</clus>
<clus scale="   88.980">  7  8 -1 -1</clus>
<clus scale="  120.980">  2  5  1 -1</clus>
<clus scale="  127.146">  1  5  2 -1</clus>
</clustering>
</event>
<event>
 9    1  0.3846604E-005  0.9792702E+02  0.7546771E-02  0.1289477E+00
          1   -1    0    0  502    0  0.00000000000E+00  0.00000000000E+00  0.17009363697E+03  0.17009363697E+03  0.00000000000E+00 0. -1.
         -2   -1    0    0    0  501 -0.00000000000E+00 -0.00000000000E+00 -0.18827966145E+03  0.18827966145E+03  0.00000000000E+00 0.  1.
         23    2    1    2    0    0 -0.58716710671E+02 -0.28446697388E+02 -0.79989007080E+02  0.13777675522E+03  0.91254185220E+02 0.  0.
        -24    2    1    2    0    0  0.31958016430E+02 -0.96602819521E+01  0.11799398035E+03  0.14761984952E+03  0.82185185471E+02 0.  0.
         11    1    4    4    0    0  0.57594849949E+02  0.50210234120E+01  0.89677412585E+02  0.10669777760E+03  0.00000000000E+00 0. -1.
        -12    1    4    4    0    0 -0.25636833518E+02 -0.14681305364E+02  0.28316567769E+02  0.40922071921E+02  0.00000000000E+00 0.  1.
        -11    1    3    3    0    0 -0.73688436974E+02  0.49246576275E+01 -0.64510713156E+02  0.98060543076E+02  0.00000000000E+00 0.  1.
         11    1    3    3    0    0  0.14971726303E+02 -0.33371355015E+02 -0.15478293925E+02  0.39716212142E+02  0.00000000000E+00 0. -1.
         21    1    1    2  502  501  0.26758694241E+02  0.38106979340E+02 -0.56190997757E+02  0.72976693682E+02  0.00000000000E+00 0. -1.
<scales pt_clust_5="13000.00000" pt_clust_6="13000.00000" pt_clust_7="13000.00000" pt_clust_8="13000.00000" pt_clust_9="46.56361"></scales>
<clustering>
<clus scale="   46.564">  2  9  1 -1</clus>
<clus scale="   82.185">  5  6 -1 -1</clus>
<clus scale="   89.536">  1  5  2 -1</clus>
<clus scale="   91.254">  7  8 -1 -1</clus>
<clus scale="   89.536">  1  5  2 -1</clus>
</clustering>
</event>
<event>
 9    1  0.3846604E-005  0.1091240E+03  0.7546771E-02  0.1262269E+00
          1   -1    0    0  502    0  0.00000000000E+00  0.00000000000E+00  0.99437867908E+02  0.99437867908E+02  0.00000000000E+00 0. -1.
         -2   -1    0    0    0  501 -0.00000000000E+00 -0.00000000000E+00 -0.21907139808E+03  0.21907139808E+03  0.00000000000E+00 0.  1.
        -24    2    1    2    0    0 -0.58280467977E+02 -0.21977112147E+02 -0.13834970752E+03  0.17169604442E+03  0.80369668982E+02 0.  0.
         23    2    1    2    0    0  0.77435688321E+02  0.40397494398E+01  0.33800957832E+02  0.11654406153E+03  0.80171117781E+02 0.  0.
         13    1    3    3    0    0 -0.65816206623E+02 -0.43474240385E+02 -0.10582931346E+03  0.13199100810E+03  0.00000000000E+00 0. -1.
        -14    1    3    3    0    0  0.75357386465E+01  0.21497128237E+02 -0.32520394063E+02  0.39705036323E+02  0.00000000000E+00 0.  1.
        -11    1    4    4    0    0  0.36103741925E+02 -0.35991117300E+02  0.24960788448E+01  0.51039897287E+02  0.00000000000E+00 0. -1.
         11    1    4    4    0    0  0.41331946396E+02  0.40030866740E+02  0.31304878987E+02  0.65504164243E+02  0.00000000000E+00 0.  1.
         21    1    1    2  502  501 -0.19155220344E+02  0.17937362708E+02 -0.15084780486E+02  0.30269160042E+02  0.00000000000E+00 0.  1.
<scales pt_clust_5="13000.00000" pt_clust_6="13000.00000" pt_clust_7="13000.00000" pt_clust_8="13000.00000" pt_clust_9="26.24255"></scales>
<clustering>
<clus scale="   26.243">  2  9  1 -1</clus>
<clus scale="   80.171">  7  8 -1 -1</clus>
<clus scale="   80.370">  5  6 -1 -1</clus>
<clus scale="  108.978">  1  7  2 -1</clus>
<clus scale="  108.978">  1  5  2 -1</clus>
</clustering>
</event>
<event>
 9    1  0.3846604E-005  0.9052880E+02  0.7546771E-02  0.1308299E+00
         -2   -1    0    0    0  501 -0.00000000000E+00  0.00000000000E+00  0.25264263671E+02  0.25264263671E+02  0.00000000000E+00 0.  1.
          1   -1    0    0  502    0  0.00000000000E+00 -0.00000000000E+00 -0.51415746701E+03  0.51415746701E+03  0.00000000000E+00 0. -1.
         23    2    1    2    0    0  0.50547318030E+01 -0.41979299119E+00 -0.12360335069E+03  0.15307217231E+03  0.90153064807E+02 0.  0.
        -24    2    1    2    0    0  0.26394934882E+02 -0.20599436530E+02 -0.28062129355E+03  0.29361523654E+03  0.79627679650E+02 0.  0.
         13    1    4    4    0    0 -0.92886561297E+01 -0.34326285204E+02 -0.21287771318E+03  0.21582746294E+03  0.00000000000E+00 0. -1.
        -14    1    4    4    0    0  0.35683591012E+02  0.13726848674E+02 -0.67743580361E+02  0.77787773603E+02  0.00000000000E+00 0.  1.
        -11    1    3    3    0    0 -0.39131077025E+02 -0.17415099065E+02 -0.62702028253E+02  0.75934650928E+02  0.00000000000E+00 0.  1.
         11    1    3    3    0    0  0.44185808828E+02  0.16995306074E+02 -0.60901322436E+02  0.77137521381E+02  0.00000000000E+00 0. -1.
         21    1    1    2  502  501 -0.31449666685E+02  0.21019229521E+02 -0.84668559105E+02  0.92734321829E+02  0.00000000000E+00 0.  1.
<scales pt_clust_5="13000.00000" pt_clust_6="13000.00000" pt_clust_7="13000.00000" pt_clust_8="13000.00000" pt_clust_9="37.82710"></scales>
<clustering>
<clus scale="   37.827">  2  9  1 -1</clus>
<clus scale="   79.628">  5  6 -1 -1</clus>
<clus scale="   80.053">  2  5  1 -1</clus>
<clus scale="   90.153">  7  8 -1 -1</clus>
<clus scale="   37.827">  2  5  1 -1</clus>
</clustering>
</event>
<event>
 9    1  0.3846604E-005  0.9186360E+02  0.7546771E-02  0.1304842E+00
          3   -1    0    0  502    0  0.00000000000E+00  0.00000000000E+00  0.20732770312E+03  0.20732770312E+03  0.00000000000E+00 0. -1.
         -4   -1    0    0    0  501 -0.00000000000E+00 -0.00000000000E+00 -0.81142807818E+02  0.81142807818E+02  0.00000000000E+00 0.  1.
        -24    2    1    2    0    0 -0.11588817798E+02 -0.17980432926E+02  0.20350257684E+02  0.86533452066E+02  0.81340695058E+02 0.  0.
         23    2    1    2    0    0  0.36151074963E+01 -0.11403991023E+02  0.13244738172E+03  0.16149867889E+03  0.91631841325E+02 0.  0.
         11    1    3    3    0    0 -0.21450629276E+02 -0.46345974266E+02  0.23729178997E+02  0.56312989291E+02  0.00000000000E+00 0. -1.
        -12    1    3    3    0    0  0.98618114781E+01  0.28365541340E+02 -0.33789213129E+01  0.30220462776E+02  0.00000000000E+00 0.  1.
        -13    1    4    4    0    0 -0.40624190220E+02 -0.22987641226E+02  0.66419897757E+02  0.81181027945E+02  0.00000000000E+00 0. -1.
         13    1    4    4    0    0  0.44239297716E+02  0.11583650203E+02  0.66027483964E+02  0.80317650944E+02  0.00000000000E+00 0.  1.
         21    1    1    2  502  501  0.79737103013E+01  0.29384423949E+02 -0.26612744104E+02  0.40438379982E+02  0.00000000000E+00 0.  1.
<scales pt_clust_5="13000.00000" pt_clust_6="13000.00000" pt_clust_7="13000.00000" pt_clust_8="13000.00000" pt_clust_9="30.44708"></scales>
<clustering>
<clus scale="   30.447">  2  9  1 -1</clus>
<clus scale="   81.341">  5  6 -1 -1</clus>
<clus scale="   81.602">  2  5  1 -1</clus>
<clus scale="   91.632">  7  8 -1 -1</clus>
<clus scale="   91.864">  1  5  2 -1</clus>
</clustering>
</event>
<event>
 9    1  0.3846604E-005  0.1070119E+03  0.7546771E-02  0.1268801E+00
         -2   -1    0    0    0  501 -0.00000000000E+00  0.00000000000E+00  0.71056206145E+02  0.71056206145E+02  0.00000000000E+00 0.  1.
          1   -1    0    0  502    0  0.00000000000E+00 -0.00000000000E+00 -0.28777404527E+03  0.28777404527E+03  0.00000000000E+00 0. -1.
        -24    2    1    2    0    0  0.56646441037E+01 -0.65217199824E+02 -0.10728609553E+02  0.11052986007E+03  0.88410268401E+02 0.  0.
         23    2    1    2    0    0 -0.18742933974E+02  0.43049279893E+02 -0.19188990323E+03  0.21895334135E+03  0.94415531851E+02 0.  0.
         13    1    3    3    0    0 -0.21045806846E+02  0.14740399059E+02 -0.32100211576E+01  0.25894199853E+02  0.00000000000E+00 0. -1.
        -14    1    3    3    0    0  0.26710450950E+02 -0.79957598883E+02 -0.75185883954E+01  0.84635660218E+02  0.00000000000E+00 0.  1.
        -13    1    4    4    0    0 -0.49880131955E+02  0.40896474957E+02 -0.79852820259E+02  0.10264999820E+03  0.00000000000E+00 0.  1.
         13    1    4    4    0    0  0.31137197981E+02  0.21528049353E+01 -0.11203708297E+03  0.11630334315E+03  0.00000000000E+00 0. -1.
         21    1    1    2  502  501  0.13078289870E+02  0.22167919932E+02 -0.14099326347E+02  0.29347049996E+02  0.00000000000E+00 0.  1.
<scales pt_clust_5="13000.00000" pt_clust_6="13000.00000" pt_clust_7="13000.00000" pt_clust_8="13000.00000" pt_clust_9="25.73827"></scales>
<clustering>
<clus scale="   25.738">  1  9  2 -1</clus>
<clus scale="   88.410">  5  6 -1 -1</clus>
<clus scale="   94.416">  7  8 -1 -1</clus>
<clus scale="  101.753">  1  5  2 -1</clus>
<clus scale="  107.012">  2  5  1 -1</clus>
</clustering>
</event>
<event>
 9    1  0.3846604E-005  0.9134336E+02  0.7546771E-02  0.1305723E+00
         -2   -1    0    0    0  501 -0.00000000000E+00  0.00000000000E+00  0.27009560058E+03  0.27009560058E+03  0.00000000000E+00 0.  1.
          1   -1    0    0  502    0  0.00000000000E+00 -0.00000000000E+00 -0.54046623071E+02  0.54046623071E+02  0.00000000000E+00 0. -1.
        -24    2    1    2    0    0 -0.16361633960E+02 -0.15929690479E+02  0.15586047173E+03  0.17731436166E+03  0.81402936661E+02 0.  0.
         23    2    1    2    0    0  0.36991230512E+01 -0.43272568489E+01  0.10732074449E+02  0.91904081193E+02  0.91097607294E+02 0.  0.
         11    1    3    3    0    0 -0.34890923439E+02  0.86575047511E+01  0.27357627090E+02  0.45174867868E+02  0.00000000000E+00 0. -1.
        -12    1    3    3    0    0  0.18529289478E+02 -0.24587195230E+02  0.12850284465E+03  0.13213949379E+03  0.00000000000E+00 0.  1.
        -13    1    4    4    0    0 -0.35527878010E+02 -0.23260075806E+02  0.20669251882E+02  0.47227949519E+02  0.00000000000E+00 0. -1.
         13    1    4    4    0    0  0.39227001062E+02  0.18932818957E+02 -0.99371774336E+01  0.44676131673E+02  0.00000000000E+00 0.  1.
         21    1    1    2  502  501  0.12662510909E+02  0.20256947328E+02  0.49456431324E+02  0.54923780796E+02  0.00000000000E+00 0.  1.
<scales pt_clust_5="13000.00000" pt_clust_6="13000.00000" pt_clust_7="13000.00000" pt_clust_8="13000.00000" pt_clust_9="23.88897"></scales>
<clustering>
<clus scale="   23.889">  1  9  2 -1</clus>
<clus scale="   81.403">  5  6 -1 -1</clus>
<clus scale="   81.678">  1  5  2 -1</clus>
<clus scale="   91.098">  7  8 -1 -1</clus>
<clus scale="   91.343">  2  5  1 -1</clus>
</clustering>
</event>
<event>
 9    1  0.3846604E-005  0.8966888E+02  0.7546771E-02  0.1303721E+00
         -2   -1    0    0    0  501 -0.00000000000E+00  0.00000000000E+00  0.26139082328E+03  0.26139082328E+03  0.00000000000E+00 0.  1.
          1   -1    0    0  502    0  0.00000000000E+00 -0.00000000000E+00 -0.20021571446E+03  0.20021571446E+03  0.00000000000E+00 0. -1.
        -24    2    1    2    0    0 -0.11432447354E+02  0.17621492194E+02  0.19408618703E+03  0.21445531212E+03  0.88771701923E+02 0.  0.
         23    2    1    2    0    0  0.73344731027E-01  0.14260549187E+02 -0.17285859892E+03  0.19479381749E+03  0.88663225005E+02 0.  0.
         11    1    3    3    0    0 -0.43105451682E+02 -0.13220278134E+02  0.76034418539E+02  0.88397333225E+02  0.00000000000E+00 0. -1.
        -12    1    3    3    0    0  0.31673004327E+02  0.30841770329E+02  0.11805176849E+03  0.12605797890E+03  0.00000000000E+00 0.  1.
        -11    1    4    4    0    0  0.97185621516E+00  0.52016791964E+02 -0.98718944321E+02  0.11158907258E+03  0.00000000000E+00 0.  1.
         11    1    4    4    0    0 -0.89851148413E+00 -0.37756242778E+02 -0.74139654602E+02  0.83204744914E+02  0.00000000000E+00 0. -1.
         21    1    1    2  502  501  0.11359102623E+02 -0.31882041381E+02  0.39947520711E+02  0.52357408129E+02  0.00000000000E+00 0.  1.
<scales pt_clust_5="13000.00000" pt_clust_6="13000.00000" pt_clust_7="13000.00000" pt_clust_8="13000.00000" pt_clust_9="33.84514"></scales>
<clustering>
<clus scale="   33.845">  1  9  2 -1</clus>
<clus scale="   88.663">  7  8 -1 -1</clus>
<clus scale="   88.772">  5  6 -1 -1</clus>
<clus scale="   89.561">  2  7  1 -1</clus>
<clus scale="   89.561">  2  5  1 -1</clus>
</clustering>
</event>
<event>
 9    1  0.3846604E-005  0.2090314E+03  0.7546771E-02  0.1143245E+00
         -4   -1    0    0    0  501 -0.00000000000E+00  0.00000000000E+00  0.21419920068E+03  0.21419920068E+03  0.00000000000E+00 0.  1.
          3   -1    0    0  502    0  0.00000000000E+00 -0.00000000000E+00 -0.43491973376E+03  0.43491973376E+03  0.00000000000E+00 0. -1.
         23    2    1    2    0    0  0.71558318193E+02 -0.18972480967E+03  0.96047090800E+02  0.24154187803E+03  0.89450203385E+02 0.  0.
        -24    2    1    2    0    0 -0.23376151328E+02  0.13049339163E+03 -0.28686330150E+03  0.32557613822E+03  0.78321761472E+02 0.  0.
         11    1    4    4    0    0  0.27911807690E+02  0.50398594830E+02 -0.88646405955E+02  0.10572262132E+03  0.00000000000E+00 0. -1.
        -12    1    4    4    0    0 -0.51287959018E+02  0.80094796803E+02 -0.19821689555E+03  0.21985351691E+03  0.00000000000E+00 0.  1.
        -13    1    3    3    0    0  0.87830545537E+02 -0.12653232019E+03  0.83103354128E+02  0.17501657135E+03  0.00000000000E+00 0.  1.
         13    1    3    3    0    0 -0.16272227344E+02 -0.63192489478E+02  0.12943736672E+02  0.66525306675E+02  0.00000000000E+00 0. -1.
         21    1    1    2  502  501 -0.48182166864E+02  0.59231418032E+02 -0.29904322377E+02  0.82000918182E+02  0.00000000000E+00 0. -1.
<scales pt_clust_5="13000.00000" pt_clust_6="13000.00000" pt_clust_7="13000.00000" pt_clust_8="13000.00000" pt_clust_9="76.35366"></scales>
<clustering>
<clus scale="   76.354">  2  9  1 -1</clus>
<clus scale="   78.322">  5  6 -1 -1</clus>
<clus scale="   89.450">  7  8 -1 -1</clus>
<clus scale="  204.517">  2  5  1 -1</clus>
<clus scale="   76.354">  2  5  1 -1</clus>
</clustering>
</event>
<event>
 9    1  0.3846604E-005  0.1770689E+03  0.7546771E-02  0.1172209E+00
         -4   -1    0    0    0  501 -0.00000000000E+00  0.00000000000E+00  0.43293756094E+02  0.43293756094E+02  0.00000000000E+00 0.  1.
          3   -1    0    0  502    0  0.00000000000E+00 -0.00000000000E+00 -0.10731507263E+04  0.10731507263E+04  0.00000000000E+00 0. -1.
         23    2    1    2    0    0  0.14600664410E+03  0.53019910865E+02 -0.36411249400E+03  0.40625243360E+03  0.91291184926E+02 0.  0.
        -24    2    1    2    0    0 -0.12784276547E+03 -0.80432294766E+02 -0.65311354413E+03  0.67496555701E+03  0.78791337724E+02 0.  0.
         11    1    4    4    0    0 -0.91360031656E+02 -0.37408857637E+02 -0.26533313103E+03  0.28310377680E+03  0.00000000000E+00 0. -1.
        -12    1    4    4    0    0 -0.36482733811E+02 -0.43023437129E+02 -0.38778041310E+03  0.39186178021E+03  0.00000000000E+00 0.  1.
        -11    1    3    3    0    0  0.11426148820E+03  0.42618356718E+02 -0.16960298138E+03  0.20889514908E+03  0.00000000000E+00 0.  1.
         11    1    3    3    0    0  0.31745155897E+02  0.10401554147E+02 -0.19450951262E+03  0.19735728452E+03  0.00000000000E+00 0. -1.
         21    1    1    2  502  501 -0.18163878635E+02  0.27412383901E+02 -0.12630932067E+02  0.35226491780E+02  0.00000000000E+00 0. -1.
<scales pt_clust_5="13000.00000" pt_clust_6="13000.00000" pt_clust_7="13000.00000" pt_clust_8="13000.00000" pt_clust_9="32.88412"></scales>
<clustering>
<clus scale="   32.884">  1  9  2 -1</clus>
<clus scale="   78.791">  5  6 -1 -1</clus>
<clus scale="   91.291">  7  8 -1 -1</clus>
<clus scale="  170.960">  2  5  1 -1</clus>
<clus scale="  170.960">  2  5  1 -1</clus>
</clustering>
</event>
<event>
 9    1  0.3846604E-005  0.1481285E+03  0.7546771E-02  0.1204339E+00
          1   -1    0    0  502    0  0.00000000000E+00  0.00000000000E+00  0.30954615893E+03  0.30954615893E+03  0.00000000000E+00 0. -1.
         -2   -1    0    0    0  501 -0.00000000000E+00 -0.00000000000E+00 -0.25881801108E+03  0.25881801108E+03  0.00000000000E+00 0.  1.
         23    2    1    2    0    0 -0.24285512548E+02  0.98246678175E+02 -0.11738035218E+03  0.18021424200E+03  0.91961024632E+02 0.  0.
        -24    2    1    2    0    0  0.41513114483E+02 -0.11056932075E+03  0.25794838069E+03  0.29584693810E+03  0.83899525121E+02 0.  0.
         11    1    4    4    0    0  0.26561460294E+02 -0.78364014331E+02  0.24408719290E+03  0.25773045542E+03  0.00000000000E+00 0. -1.
        -12    1    4    4    0    0  0.14951654189E+02 -0.32205306422E+02  0.13861187795E+02  0.38116482679E+02  0.00000000000E+00 0.  1.
        -13    1    3    3    0    0 -0.26439705762E+01  0.11139196393E+03 -0.95668469809E+02  0.14685917174E+03  0.00000000000E+00 0.  1.
         13    1    3    3    0    0 -0.21641541972E+02 -0.13145285752E+02 -0.21711882368E+02  0.33355070265E+02  0.00000000000E+00 0. -1.
         21    1    1    2  502  501 -0.17227601935E+02  0.12322642579E+02 -0.89839880659E+02  0.92302989905E+02  0.00000000000E+00 0.  1.
<scales pt_clust_5="13000.00000" pt_clust_6="13000.00000" pt_clust_7="13000.00000" pt_clust_8="13000.00000" pt_clust_9="21.18107"></scales>
<clustering>
<clus scale="   21.181">  2  9  1 -1</clus>
<clus scale="   83.900">  5  6 -1 -1</clus>
<clus scale="   91.961">  7  8 -1 -1</clus>
<clus scale="  143.263">  1  5  2 -1</clus>
<clus scale="  143.263">  1  5  2 -1</clus>
</clustering>
</event>
<event>
 9    1  0.3846604E-005  0.1340200E+03  0.7546771E-02  0.1223793E+00
          1   -1    0    0  502    0  0.00000000000E+00  0.00000000000E+00  0.34117336464E+03  0.34117336464E+03  0.00000000000E+00 0. -1.
         -2   -1    0    0    0  501 -0.00000000000E+00 -0.00000000000E+00 -0.70144107954E+02  0.70144107954E+02  0.00000000000E+00 0.  1.
        -24    2    1    2    0    0 -0.47445290582E+02  0.71800271133E+02  0.10565485620E+03  0.15904190340E+03  0.82006364778E+02 0.  0.
         23    2    1    2    0    0  0.61042972063E+02 -0.91513132273E+02  0.17551441807E+03  0.22626953543E+03  0.91058738711E+02 0.  0.
         11    1    3    3    0    0 -0.11150820393E-01  0.33113211095E+02  0.89946711711E+02  0.95848295869E+02  0.00000000000E+00 0. -1.
        -12    1    3    3    0    0 -0.47434139762E+02  0.38687060038E+02  0.15708144494E+02  0.63193607531E+02  0.00000000000E+00 0.  1.
        -13    1    4    4    0    0  0.74569215769E+02 -0.71964118678E+02  0.17390729348E+03  0.20244295257E+03  0.00000000000E+00 0. -1.
         13    1    4    4    0    0 -0.13526243706E+02 -0.19549013595E+02  0.16071245850E+01  0.23826582859E+02  0.00000000000E+00 0.  1.
         21    1    1    2  502  501 -0.13597681481E+02  0.19712861140E+02 -0.10140017584E+02  0.26006033772E+02  0.00000000000E+00 0. -1.
<scales pt_clust_5="13000.00000" pt_clust_6="13000.00000" pt_clust_7="13000.00000" pt_clust_8="13000.00000" pt_clust_9="23.94773"></scales>
<clustering>
<clus scale="   23.948">  2  9  1 -1</clus>
<clus scale="   82.006">  5  6 -1 -1</clus>
<clus scale="   91.059">  7  8 -1 -1</clus>
<clus scale="  128.042">  2  5  1 -1</clus>
<clus scale="  134.020">  1  5  2 -1</clus>
</clustering>
</event>
<event>
 9    1  0.3846604E-005  0.1448177E+03  0.7546771E-02  0.1208799E+00
          1   -1    0    0  502    0  0.00000000000E+00  0.00000000000E+00  0.50396994937E+03  0.50396994937E+03  0.00000000000E+00 0. -1.
         -2   -1    0    0    0  501 -0.00000000000E+00 -0.00000000000E+00 -0.97542148132E+02  0.97542148132E+02  0.00000000000E+00 0.  1.
         23    2    1    2    0    0 -0.13606226212E+03  0.23271727627E+02  0.10572496466E+03  0.19576735896E+03  0.89958758345E+02 0.  0.
        -24    2    1    2    0    0  0.10674258504E+03 -0.14613077112E+01  0.33178054074E+03  0.35777431455E+03  0.80796151228E+02 0.  0.
         11    1    4    4    0    0  0.60700644294E+02  0.18966266022E+02  0.27325595089E+03  0.28055855389E+03  0.00000000000E+00 0. -1.
        -12    1    4    4    0    0  0.46041940746E+02 -0.20427573733E+02  0.58524589851E+02  0.77215760656E+02  0.00000000000E+00 0.  1.
        -13    1    3    3    0    0 -0.76207037376E+02  0.46017416995E+02  0.96132850187E+02  0.13102152532E+03  0.00000000000E+00 0. -1.
         13    1    3    3    0    0 -0.59855224742E+02 -0.22745689368E+02  0.95921144743E+01  0.64745833641E+02  0.00000000000E+00 0.  1.
         21    1    1    2  502  501  0.29319677078E+02 -0.21810419916E+02 -0.31077704172E+02  0.47970423986E+02  0.00000000000E+00 0. -1.
<scales pt_clust_5="13000.00000" pt_clust_6="13000.00000" pt_clust_7="13000.00000" pt_clust_8="13000.00000" pt_clust_9="36.54228"></scales>
<clustering>
<clus scale="   36.542">  2  9  1 -1</clus>
<clus scale="   80.796">  5  6 -1 -1</clus>
<clus scale="   89.959">  7  8 -1 -1</clus>
<clus scale="  139.311">  1  5  2 -1</clus>
<clus scale="  139.311">  1  5  2 -1</clus>
</clustering>
</event>
<event>
 9    1  0.3846604E-005  0.1011360E+03  0.7546771E-02  0.1282707E+00
          1   -1    0    0  502    0  0.00000000000E+00  0.00000000000E+00  0.86047534404E+02  0.86047534404E+02  0.00000000000E+00 0. -1.
         -2   -1    0    0    0  501 -0.00000000000E+00 -0.00000000000E+00 -0.79015313116E+03  0.79015313116E+03  0.00000000000E+00 0.  1.
        -24    2    1    2    0    0  0.94686630324E+02  0.20791268825E+02 -0.60393444746E+02  0.14046870573E+03  0.81769519372E+02 0.  0.
         23    2    1    2    0    0 -0.16040612787E+02 -0.21146933382E+01 -0.62997154981E+01  0.93214547804E+02  0.91583253494E+02 0.  0.
         11    1    3    3    0    0  0.19755467400E+01 -0.21184120112E+02 -0.24747291685E+02  0.32635841885E+02  0.00000000000E+00 0. -1.
        -12    1    3    3    0    0  0.92711083584E+02  0.41975388938E+02 -0.35646153061E+02  0.10783286384E+03  0.00000000000E+00 0.  1.
        -13    1    4    4    0    0 -0.37444817250E+02  0.30961444462E+02 -0.18470823514E+02  0.51979772059E+02  0.00000000000E+00 0.  1.
         13    1    4    4    0    0  0.21404204462E+02 -0.33076137800E+02  0.12171108016E+02  0.41234775745E+02  0.00000000000E+00 0. -1.
         21    1    1    2  502  501 -0.78646017537E+02 -0.18676575487E+02 -0.63741243652E+03  0.64251741204E+03  0.00000000000E+00 0.  1.
<scales pt_clust_5="13000.00000" pt_clust_6="13000.00000" pt_clust_7="13000.00000" pt_clust_8="13000.00000" pt_clust_9="80.83323"></scales>
<clustering>
<clus scale="   80.833">  2  9  1 -1</clus>
<clus scale="   81.770">  5  6 -1 -1</clus>
<clus scale="   91.583">  7  8 -1 -1</clus>
<clus scale="   92.343">  2  5  1 -1</clus>
<clus scale="  101.136">  1  5  2 -1</clus>
</clustering>
</event>
<event>
 9    1  0.3846604E-005  0.1417593E+03  0.7546771E-02  0.1213180E+00
          1   -1    0    0  502    0  0.00000000000E+00  0.00000000000E+00  0.52421631660E+03  0.52421631660E+03  0.00000000000E+00 0. -1.
         -2   -1    0    0    0  501 -0.00000000000E+00 -0.00000000000E+00 -0.11361753846E+03  0.11361753846E+03  0.00000000000E+00 0.  1.
         23    2    1    2    0    0 -0.10624511032E+03 -0.53693672830E+02  0.13013468883E+03  0.19890355185E+03  0.91959511364E+02 0.  0.
        -24    2    1    2    0    0  0.84567981290E+02  0.61013088285E+02  0.34548900249E+03  0.36999764694E+03  0.81616588396E+02 0.  0.
         13    1    4    4    0    0  0.92478397181E+02  0.57203702893E+02  0.34438966665E+03  0.36114922132E+03  0.00000000000E+00 0. -1.
        -14    1    4    4    0    0 -0.79104158908E+01  0.38093853923E+01  0.10993358409E+01  0.88484256184E+01  0.00000000000E+00 0.  1.
        -13    1    3    3    0    0 -0.42308222170E+02 -0.21918818859E+02  0.11696991572E+03  0.12630273737E+03  0.00000000000E+00 0. -1.
         13    1    3    3    0    0 -0.63936888151E+02 -0.31774853971E+02  0.13164773110E+02  0.72600814474E+02  0.00000000000E+00 0.  1.
         21    1    1    2  502  501  0.21677129031E+02 -0.73194154555E+01 -0.65024913189E+02  0.68932656273E+02  0.00000000000E+00 0.  1.
<scales pt_clust_5="13000.00000" pt_clust_6="13000.00000" pt_clust_7="13000.00000" pt_clust_8="13000.00000" pt_clust_9="22.87951"></scales>
<clustering>
<clus scale="   22.880">  2  9  1 -1</clus>
<clus scale="   81.617">  5  6 -1 -1</clus>
<clus scale="   91.960">  7  8 -1 -1</clus>
<clus scale="  135.279">  1  5  2 -1</clus>
<clus scale="  135.279">  1  5  2 -1</clus>
</clustering>
</event>
<event>
 9    1  0.3846604E-005  0.1091292E+03  0.7546771E-02  0.1264103E+00
         -2   -1    0    0    0  501 -0.00000000000E+00  0.00000000000E+00  0.77889960984E+02  0.77889960984E+02  0.00000000000E+00 0.  1.
          1   -1    0    0  502    0  0.00000000000E+00 -0.00000000000E+00 -0.29044662570E+03  0.29044662570E+03  0.00000000000E+00 0. -1.
         23    2    1    2    0    0 -0.62960929277E+02 -0.69813714744E+01  0.69085410467E+01  0.10733998716E+03  0.86378971635E+02 0.  0.
        -24    2    1    2    0    0  0.61311976594E+02  0.29602991919E+02 -0.21215127594E+03  0.23716489111E+03  0.81262082722E+02 0.  0.
         11    1    4    4    0    0  0.63255422391E+02  0.30759149936E+02 -0.21896544111E+03  0.22998529990E+03  0.00000000000E+00 0. -1.
        -12    1    4    4    0    0 -0.19434457973E+01 -0.11561580168E+01  0.68141651758E+01  0.71795912119E+01  0.00000000000E+00 0.  1.
        -13    1    3    3    0    0 -0.31174724024E+02  0.31717826014E+02  0.28480976150E+02  0.52811456214E+02  0.00000000000E+00 0.  1.
         13    1    3    3    0    0 -0.31786205254E+02 -0.38699197489E+02 -0.21572435103E+02  0.54528530945E+02  0.00000000000E+00 0. -1.
         21    1    1    2  502  501  0.16489526835E+01 -0.22621620444E+02 -0.73139298222E+01  0.23831708414E+02  0.00000000000E+00 0. -1.
<scales pt_clust_5="13000.00000" pt_clust_6="13000.00000" pt_clust_7="13000.00000" pt_clust_8="13000.00000" pt_clust_9="22.68164"></scales>
<clustering>
<clus scale="   22.682">  1  9  2 -1</clus>
<clus scale="   81.262">  5  6 -1 -1</clus>
<clus scale="   86.379">  7  8 -1 -1</clus>
<clus scale="  105.126">  2  5  1 -1</clus>
<clus scale="  105.126">  2  5  1 -1</clus>
</clustering>
</event>
<event>
 9    1  0.3846604E-005  0.1765432E+03  0.7546771E-02  0.1171971E+00
         -2   -1    0    0    0  501 -0.00000000000E+00  0.00000000000E+00  0.13493392470E+03  0.13493392470E+03  0.00000000000E+00 0.  1.
          1   -1    0    0  502    0  0.00000000000E+00 -0.00000000000E+00 -0.33422282629E+03  0.33422282629E+03  0.00000000000E+00 0. -1.
        -24    2    1    2    0    0 -0.13030485569E+03  0.83007293228E+02 -0.10099503120E+03  0.20222619463E+03  0.82618831511E+02 0.  0.
         23    2    1    2    0    0  0.13779641786E+03 -0.62867098665E+02 -0.13692840689E+03  0.22272220476E+03  0.88970034350E+02 0.  0.
         13    1    3    3    0    0 -0.53616199591E+02  0.66214548794E+02 -0.88296358221E+02  0.12270008234E+03  0.00000000000E+00 0. -1.
        -14    1    3    3    0    0 -0.76688656104E+02  0.16792744434E+02 -0.12698672978E+02  0.79526112291E+02  0.00000000000E+00 0.  1.
        -11    1    4    4    0    0  0.85217592625E+02  0.12304284084E+01 -0.37082038686E+02  0.92944228653E+02  0.00000000000E+00 0.  1.
         11    1    4    4    0    0  0.52578825235E+02 -0.64097527073E+02 -0.99846368204E+02  0.12977797611E+03  0.00000000000E+00 0. -1.
         21    1    1    2  502  501 -0.74915621646E+01 -0.20140194563E+02  0.38634536502E+02  0.44208351603E+02  0.00000000000E+00 0.  1.
<scales pt_clust_5="13000.00000" pt_clust_6="13000.00000" pt_clust_7="13000.00000" pt_clust_8="13000.00000" pt_clust_9="21.48839"></scales>
<clustering>
<clus scale="   21.488">  1  9  2 -1</clus>
<clus scale="   82.619">  5  6 -1 -1</clus>
<clus scale="   88.970">  7  8 -1 -1</clus>
<clus scale="  173.429">  1  5  2 -1</clus>
<clus scale="  176.543">  2  5  1 -1</clus>
</clustering>
</event>
<event>
 9    1  0.3846604E-005  0.9314682E+02  0.7546771E-02  0.1301812E+00
          1   -1    0    0  502    0  0.00000000000E+00  0.00000000000E+00  0.80827128186E+02  0.80827128186E+02  0.00000000000E+00 0. -1.
         -2   -1    0    0    0  501 -0.00000000000E+00 -0.00000000000E+00 -0.17208588982E+03  0.17208588982E+03  0.00000000000E+00 0.  1.
         23    2    1    2    0    0  0.78209931441E+01  0.50854545746E+01 -0.94849619671E+02  0.13192504805E+03  0.91218080277E+02 0.  0.
        -24    2    1    2    0    0  0.84189775589E+01 -0.21727394842E+02  0.26882477042E+02  0.88076112819E+02  0.80571553341E+02 0.  0.
         11    1    4    4    0    0 -0.24300633439E+01  0.30413601804E+02  0.11921420086E+02  0.32756871637E+02  0.00000000000E+00 0. -1.
        -12    1    4    4    0    0  0.10849040903E+02 -0.52140996646E+02  0.14961056956E+02  0.55319241182E+02  0.00000000000E+00 0.  1.
        -13    1    3    3    0    0 -0.35512887010E+02  0.17968283408E+01 -0.77244710231E+02  0.85036104065E+02  0.00000000000E+00 0.  1.
         13    1    3    3    0    0  0.43333880154E+02  0.32886262338E+01 -0.17604909440E+02  0.46888943986E+02  0.00000000000E+00 0. -1.
         21    1    1    2  502  501 -0.16239970703E+02  0.16641940267E+02 -0.23291619006E+02  0.32911857137E+02  0.00000000000E+00 0. -1.
<scales pt_clust_5="13000.00000" pt_clust_6="13000.00000" pt_clust_7="13000.00000" pt_clust_8="13000.00000" pt_clust_9="23.25276"></scales>
<clustering>
<clus scale="   23.253">  2  9  1 -1</clus>
<clus scale="   80.572">  5  6 -1 -1</clus>
<clus scale="   82.749">  1  5  2 -1</clus>
<clus scale="   91.218">  7  8 -1 -1</clus>
<clus scale="   82.749">  1  5  2 -1</clus>
</clustering>
</event>
<event>
 9    1  0.3846604E-005  0.9745475E+02  0.7546771E-02  0.1290260E+00
          1   -1    0    0  502    0  0.00000000000E+00  0.00000000000E+00  0.55717575626E+03  0.55717575626E+03  0.00000000000E+00 0. -1.
         -2   -1    0    0    0  501 -0.00000000000E+00 -0.00000000000E+00 -0.64147132162E+02  0.64147132162E+02  0.00000000000E+00 0.  1.
         23    2    1    2    0    0 -0.24884707366E+02  0.29783925910E+02  0.12625549477E+02  0.10041787055E+03  0.91749732006E+02 0.  0.
        -24    2    1    2    0    0 -0.30891377238E+02 -0.19633284415E+02  0.44469763063E+03  0.45390586961E+03  0.83275523050E+02 0.  0.
         11    1    4    4    0    0 -0.58430699073E+02 -0.14434221443E+02  0.24676337842E+03  0.25399735879E+03  0.00000000000E+00 0. -1.
        -12    1    4    4    0    0  0.27539321835E+02 -0.51990629722E+01  0.19793425221E+03  0.19990851082E+03  0.00000000000E+00 0.  1.
        -11    1    3    3    0    0 -0.32731473503E+02  0.97724415934E+01  0.48066428879E+02  0.58968055399E+02  0.00000000000E+00 0. -1.
         11    1    3    3    0    0  0.78467661370E+01  0.20011484317E+02 -0.35440879402E+02  0.41449815152E+02  0.00000000000E+00 0.  1.
         21    1    1    2  502  501  0.55776084604E+02 -0.10150641495E+02  0.35705443996E+02  0.66999148259E+02  0.00000000000E+00 0.  1.
<scales pt_clust_5="13000.00000" pt_clust_6="13000.00000" pt_clust_7="13000.00000" pt_clust_8="13000.00000" pt_clust_9="56.69221"></scales>
<clustering>
<clus scale="   56.692">  2  9  1 -1</clus>
<clus scale="   83.276">  5  6 -1 -1</clus>
<clus scale="   89.522">  1  5  2 -1</clus>
<clus scale="   91.750">  7  8 -1 -1</clus>
<clus scale="   89.522">  1  5  2 -1</clus>
</clustering>
</event>
<event>
 9    1  0.3846604E-005  0.1105897E+03  0.7546771E-02  0.1263042E+00
          1   -1    0    0  502    0  0.00000000000E+00  0.00000000000E+00  0.99642189580E+02  0.99642189580E+02  0.00000000000E+00 0. -1.
         -2   -1    0    0    0  501 -0.00000000000E+00 -0.00000000000E+00 -0.45357923195E+03  0.45357923195E+03  0.00000000000E+00 0.  1.
        -24    2    1    2    0    0  0.80559010724E+02 -0.39385349189E+02 -0.20838319598E+03  0.24066481943E+03  0.80343257370E+02 0.  0.
         23    2    1    2    0    0 -0.46889146374E+02  0.39007710463E+02  0.46166223904E+02  0.11790206778E+03  0.89718358405E+02 0.  0.
         11    1    3    3    0    0  0.56795865693E+02  0.16694794380E+02 -0.11111399908E+03  0.12589998932E+03  0.00000000000E+00 0. -1.
        -12    1    3    3    0    0  0.23763145031E+02 -0.56080143570E+02 -0.97269196897E+02  0.11476483011E+03  0.00000000000E+00 0.  1.
        -11    1    4    4    0    0 -0.17655552853E+02  0.49077919390E+02  0.63722230509E+02  0.82346119394E+02  0.00000000000E+00 0. -1.
         11    1    4    4    0    0 -0.29233593521E+02 -0.10070208927E+02 -0.17556006605E+02  0.35555948390E+02  0.00000000000E+00 0.  1.
         21    1    1    2  502  501 -0.33669864350E+02  0.37763872695E+00 -0.19172007030E+03  0.19465453432E+03  0.00000000000E+00 0.  1.
<scales pt_clust_5="13000.00000" pt_clust_6="13000.00000" pt_clust_7="13000.00000" pt_clust_8="13000.00000" pt_clust_9="33.67198"></scales>
<clustering>
<clus scale="   33.672">  2  9  1 -1</clus>
<clus scale="   80.343">  5  6 -1 -1</clus>
<clus scale="   89.718">  7  8 -1 -1</clus>
<clus scale="  103.130">  2  5  1 -1</clus>
<clus scale="  110.590">  1  5  2 -1</clus>
</clustering>
</event>
<event>
 9    1  0.3846604E-005  0.1427332E+03  0.7546771E-02  0.1214486E+00
         -2   -1    0    0    0  501 -0.00000000000E+00  0.00000000000E+00  0.93968254220E+02  0.93968254220E+02  0.00000000000E+00 0.  1.
          1   -1    0    0  502    0  0.00000000000E+00 -0.00000000000E+00 -0.40513015713E+03  0.40513015713E+03  0.00000000000E+00 0. -1.
        -24    2    1    2    0    0  0.90067305738E+02  0.86497427457E+02 -0.18412949080E+02  0.14971449924E+03  0.80507577715E+02 0.  0.
         23    2    1    2    0    0 -0.54496574864E+02 -0.77888362310E+02 -0.27638850440E+03  0.30929579413E+03  0.10117711821E+03 0.  0.
         11    1    3    3    0    0  0.42644801368E+02 -0.65098826688E+01 -0.13490530727E+02  0.45199027372E+02  0.00000000000E+00 0. -1.
        -12    1    3    3    0    0  0.47422504371E+02  0.93007310125E+02 -0.49224183529E+01  0.10451547187E+03  0.00000000000E+00 0.  1.
        -13    1    4    4    0    0 -0.15449507655E+01  0.21559003654E+02 -0.20891581975E+02  0.30060534074E+02  0.00000000000E+00 0.  1.
         13    1    4    4    0    0 -0.52951624098E+02 -0.99447365964E+02 -0.25549692242E+03  0.27923526006E+03  0.00000000000E+00 0. -1.
         21    1    1    2  502  501 -0.35570730875E+02 -0.86090651468E+01 -0.16360449438E+02  0.40088117984E+02  0.00000000000E+00 0.  1.
<scales pt_clust_5="13000.00000" pt_clust_6="13000.00000" pt_clust_7="13000.00000" pt_clust_8="13000.00000" pt_clust_9="36.59772"></scales>
<clustering>
<clus scale="   36.598">  1  9  2 -1</clus>
<clus scale="   80.508">  5  6 -1 -1</clus>
<clus scale="  101.177">  7  8 -1 -1</clus>
<clus scale="  128.909">  1  5  2 -1</clus>
<clus scale="  142.733">  2  5  1 -1</clus>
</clustering>
</event>
<event>
 9    1  0.3846604E-005  0.1297862E+03  0.7546771E-02  0.1230550E+00
         -4   -1    0    0    0  501 -0.00000000000E+00  0.00000000000E+00  0.95635847816E+02  0.95635847816E+02  0.00000000000E+00 0.  1.
          3   -1    0    0  502    0  0.00000000000E+00 -0.00000000000E+00 -0.31483927003E+03  0.31483927003E+03  0.00000000000E+00 0. -1.
         23    2    1    2    0    0 -0.33964278387E+02 -0.92487214405E+02 -0.45170048380E+02  0.14170274426E+03  0.91279118237E+02 0.  0.
        -24    2    1    2    0    0 -0.16096193654E+02  0.92148155378E+02 -0.18005939240E+03  0.21834937563E+03  0.80651689753E+02 0.  0.
         13    1    4    4    0    0 -0.46433410717E+02  0.33736590234E+02 -0.76364520488E+02  0.95528839315E+02  0.00000000000E+00 0. -1.
        -14    1    4    4    0    0  0.30337217063E+02  0.58411565145E+02 -0.10369487191E+03  0.12282053632E+03  0.00000000000E+00 0.  1.
        -11    1    3    3    0    0  0.26484665314E+02 -0.58976133964E+02 -0.28205450496E+02  0.70534880108E+02  0.00000000000E+00 0.  1.
         11    1    3    3    0    0 -0.60448943702E+02 -0.33511080441E+02 -0.16964597884E+02  0.71167864155E+02  0.00000000000E+00 0. -1.
         21    1    1    2  502  501  0.50060472042E+02  0.33905902646E+00  0.60260185654E+01  0.50422997946E+02  0.00000000000E+00 0.  1.
<scales pt_clust_5="13000.00000" pt_clust_6="13000.00000" pt_clust_7="13000.00000" pt_clust_8="13000.00000" pt_clust_9="50.06162"></scales>
<clustering>
<clus scale="   50.062">  1  9  2 -1</clus>
<clus scale="   80.652">  5  6 -1 -1</clus>
<clus scale="   91.279">  7  8 -1 -1</clus>
<clus scale="  122.545">  2  5  1 -1</clus>
<clus scale="  122.545">  2  5  1 -1</clus>
</clustering>
</event>
<event>
 9    1  0.3846604E-005  0.9598419E+02  0.7546771E-02  0.1301969E+00
         -2   -1    0    0    0  501 -0.00000000000E+00  0.00000000000E+00  0.24874619361E+03  0.24874619361E+03  0.00000000000E+00 0.  1.
          1   -1    0    0  502    0  0.00000000000E+00 -0.00000000000E+00 -0.32020224856E+03  0.32020224856E+03  0.00000000000E+00 0. -1.
        -24    2    1    2    0    0  0.67865424376E+01  0.14925299629E+02 -0.25598895516E+02  0.95677666973E+02  0.90719847765E+02 0.  0.
         23    2    1    2    0    0  0.24466468966E+02 -0.25612408343E+02 -0.25248477233E+03  0.26401988409E+03  0.68580867386E+02 0.  0.
         11    1    3    3    0    0  0.37403132313E+02 -0.21118805903E+02 -0.24484554584E+01  0.43023170545E+02  0.00000000000E+00 0. -1.
        -12    1    3    3    0    0 -0.30616589876E+02  0.36044105532E+02 -0.23150440058E+02  0.52654496428E+02  0.00000000000E+00 0.  1.
        -11    1    4    4    0    0  0.39309974505E+02  0.70482285310E+01 -0.10799133158E+03  0.11513939081E+03  0.00000000000E+00 0.  1.
         11    1    4    4    0    0 -0.14843505539E+02 -0.32660636874E+02 -0.14449344075E+03  0.14888049328E+03  0.00000000000E+00 0. -1.
         21    1    1    2  502  501 -0.31253011403E+02  0.10687108715E+02  0.20662761290E+03  0.20925089110E+03  0.00000000000E+00 0.  1.
<scales pt_clust_5="13000.00000" pt_clust_6="13000.00000" pt_clust_7="13000.00000" pt_clust_8="13000.00000" pt_clust_9="33.02976"></scales>
<clustering>
<clus scale="   33.030">  1  9  2 -1</clus>
<clus scale="   68.581">  7  8 -1 -1</clus>
<clus scale="   75.407">  2  7  1 -1</clus>
<clus scale="   90.720">  5  6 -1 -1</clus>
<clus scale="   75.407">  2  5  1 -1</clus>
</clustering>
</event>
<event>
 9    1  0.3846604E-005  0.2213065E+03  0.7546771E-02  0.1135806E+00
          1   -1    0    0  502    0  0.00000000000E+00  0.00000000000E+00  0.54272141470E+03  0.54272141470E+03  0.00000000000E+00 0. -1.
         -2   -1    0    0    0  501 -0.00000000000E+00 -0.00000000000E+00 -0.25705322193E+03  0.25705322193E+03  0.00000000000E+00 0.  1.
         23    2    1    2    0    0  0.80933599054E+02  0.24158612144E+03  0.22285316095E+03  0.35762351047E+03  0.11539905705E+03 0.  0.
        -24    2    1    2    0    0 -0.74944112003E+02 -0.13805837412E+03  0.20173670017E+03  0.26879283142E+03  0.82916557097E+02 0.  0.
         13    1    4    4    0    0 -0.88354823162E+02 -0.12500972905E+03  0.15232005164E+03  0.21595232174E+03  0.00000000000E+00 0. -1.
        -14    1    4    4    0    0  0.13410711159E+02 -0.13048645072E+02  0.49416648523E+02  0.52840509680E+02  0.00000000000E+00 0.  1.
        -13    1    3    3    0    0  0.14066562971E+02  0.17051650272E+03  0.91606421760E+02  0.19407597069E+03  0.00000000000E+00 0.  1.
         13    1    3    3    0    0  0.66867036083E+02  0.71069618721E+02  0.13124673919E+03  0.16354753978E+03  0.00000000000E+00 0. -1.
         21    1    1    2  502  501 -0.59894870507E+01 -0.10352774732E+03 -0.13892166835E+03  0.17335829474E+03  0.00000000000E+00 0.  1.
<scales pt_clust_5="13000.00000" pt_clust_6="13000.00000" pt_clust_7="13000.00000" pt_clust_8="13000.00000" pt_clust_9="103.70086"></scales>
<clustering>
<clus scale="   82.917">  5  6 -1 -1</clus>
<clus scale="  103.701">  2  9  1 -1</clus>
<clus scale="  115.399">  7  8 -1 -1</clus>
<clus scale="  206.240">  1  5  2 -1</clus>
<clus scale="  206.240">  1  5  2 -1</clus>
</clustering>
</event>
<event>
 9    1  0.3846604E-005  0.2168408E+03  0.7546771E-02  0.1136981E+00
         -2   -1    0    0    0  501 -0.00000000000E+00  0.00000000000E+00  0.40609032992E+02  0.40609032992E+02  0.00000000000E+00 0.  1.
          1   -1    0    0  502    0  0.00000000000E+00 -0.00000000000E+00 -0.14189935723E+04  0.14189935723E+04  0.00000000000E+00 0. -1.
        -24    2    1    2    0    0  0.11171172039E+03 -0.16127627991E+03 -0.55155568545E+03  0.59095299797E+03  0.80760291754E+02 0.  0.
         23    2    1    2    0    0 -0.84254309225E+02  0.18045849457E+03 -0.78599204714E+03  0.81583378044E+03  0.90206442389E+02 0.  0.
         13    1    3    3    0    0  0.45051645846E+02 -0.74271540757E+02 -0.35926961964E+03  0.36962220192E+03  0.00000000000E+00 0. -1.
        -14    1    3    3    0    0  0.66660074549E+02 -0.87004739154E+02 -0.19228606582E+03  0.22133079605E+03  0.00000000000E+00 0.  1.
        -11    1    4    4    0    0 -0.75870112327E+02  0.16092958842E+03 -0.76689138851E+03  0.78725917470E+03  0.00000000000E+00 0. -1.
         11    1    4    4    0    0 -0.83841968978E+01  0.19528906152E+02 -0.19100658631E+02  0.28574605741E+02  0.00000000000E+00 0.  1.
         21    1    1    2  502  501 -0.27457411169E+02 -0.19182214663E+02 -0.40836806760E+02  0.52815826926E+02  0.00000000000E+00 0. -1.
<scales pt_clust_5="13000.00000" pt_clust_6="13000.00000" pt_clust_7="13000.00000" pt_clust_8="13000.00000" pt_clust_9="33.49428"></scales>
<clustering>
<clus scale="   33.494">  1  9  2 -1</clus>
<clus scale="   80.760">  5  6 -1 -1</clus>
<clus scale="   90.206">  7  8 -1 -1</clus>
<clus scale="  213.084">  1  5  2 -1</clus>
<clus scale="  216.841">  2  5  1 -1</clus>
</clustering>
</event>
<event>
 9    1  0.3846604E-005  0.1402676E+03  0.7546771E-02  0.1215029E+00
         -2   -1    0    0    0  501 -0.00000000000E+00  0.00000000000E+00  0.31004231131E+03  0.31004231131E+03  0.00000000000E+00 0.  1.
          1   -1    0    0  502    0  0.00000000000E+00 -0.00000000000E+00 -0.24793219347E+03  0.24793219347E+03  0.00000000000E+00 0. -1.
        -24    2    1    2    0    0 -0.59713665059E+02  0.74365105043E+02  0.11885433506E+03  0.17295198444E+03  0.81793308492E+02 0.  0.
         23    2    1    2    0    0  0.87356017452E+02 -0.64635063190E+02 -0.19640442369E+03  0.24232092039E+03  0.91301509482E+02 0.  0.
         11    1    3    3    0    0  0.10544889846E+02  0.37709512220E+02  0.14138275114E+02  0.41630431621E+02  0.00000000000E+00 0. -1.
        -12    1    3    3    0    0 -0.70258554904E+02  0.36655592823E+02  0.10471605995E+03  0.13132155282E+03  0.00000000000E+00 0.  1.
        -11    1    4    4    0    0  0.16187969203E+01 -0.37667628500E+02 -0.11512530041E+03  0.12114167547E+03  0.00000000000E+00 0.  1.
         11    1    4    4    0    0  0.85737220531E+02 -0.26967434690E+02 -0.81279123277E+02  0.12117924492E+03  0.00000000000E+00 0. -1.
         21    1    1    2  502  501 -0.27642352393E+02 -0.97300418531E+01  0.13966020647E+03  0.14270159996E+03  0.00000000000E+00 0.  1.
<scales pt_clust_5="13000.00000" pt_clust_6="13000.00000" pt_clust_7="13000.00000" pt_clust_8="13000.00000" pt_clust_9="29.30484"></scales>
<clustering>
<clus scale="   29.305">  1  9  2 -1</clus>
<clus scale="   81.793">  5  6 -1 -1</clus>
<clus scale="   91.302">  7  8 -1 -1</clus>
<clus scale="  134.273">  1  5  2 -1</clus>
<clus scale="  140.268">  2  5  1 -1</clus>
</clustering>
</event>
<event>
 9    1  0.3846604E-005  0.1853194E+03  0.7546771E-02  0.1163643E+00
          1   -1    0    0  502    0  0.00000000000E+00  0.00000000000E+00  0.33736204865E+03  0.33736204865E+03  0.00000000000E+00 0. -1.
         -2   -1    0    0    0  501 -0.00000000000E+00 -0.00000000000E+00 -0.65399325177E+03  0.65399325177E+03  0.00000000000E+00 0.  1.
        -24    2    1    2    0    0 -0.15875483184E+03  0.57543347724E+02 -0.32518978782E+03  0.37562410110E+03  0.82648253014E+02 0.  0.
         23    2    1    2    0    0  0.12949955493E+03 -0.96649968202E+02  0.28229731675E+03  0.33766988878E+03  0.90652234717E+02 0.  0.
         11    1    3    3    0    0 -0.10357073412E+03  0.38281160298E+02 -0.12363176007E+03  0.16576234886E+03  0.00000000000E+00 0. -1.
        -12    1    3    3    0    0 -0.55184097715E+02  0.19262187426E+02 -0.20155802774E+03  0.20986175224E+03  0.00000000000E+00 0.  1.
        -11    1    4    4    0    0  0.40287178405E+02 -0.74789382065E+02  0.85674542241E+02  0.12065088314E+03  0.00000000000E+00 0.  1.
         11    1    4    4    0    0  0.89212376530E+02 -0.21860586137E+02  0.19662277451E+03  0.21701900564E+03  0.00000000000E+00 0. -1.
         21    1    1    2  502  501  0.29255276901E+02  0.39106620478E+02 -0.27373873206E+03  0.27806131055E+03  0.00000000000E+00 0.  1.
<scales pt_clust_5="13000.00000" pt_clust_6="13000.00000" pt_clust_7="13000.00000" pt_clust_8="13000.00000" pt_clust_9="48.83850"></scales>
<clustering>
<clus scale="   48.838">  2  9  1 -1</clus>
<clus scale="   82.648">  5  6 -1 -1</clus>
<clus scale="   90.652">  7  8 -1 -1</clus>
<clus scale="  181.538">  2  5  1 -1</clus>
<clus scale="  185.319">  1  5  2 -1</clus>
</clustering>
</event>
<event>
 9    1  0.3846604E-005  0.1003375E+03  0.7546771E-02  0.1287013E+00
          1   -1    0    0  502    0  0.00000000000E+00  0.00000000000E+00  0.13313044556E+03  0.13313044556E+03  0.00000000000E+00 0. -1.
         -2   -1    0    0    0  501 -0.00000000000E+00 -0.00000000000E+00 -0.42778233787E+03  0.42778233787E+03  0.00000000000E+00 0.  1.
         23    2    1    2    0    0  0.13567164934E+02 -0.68271563986E+02 -0.13112264741E+03  0.17546633076E+03  0.93542557978E+02 0.  0.
        -24    2    1    2    0    0 -0.19419737009E+01  0.32651340450E+02  0.92824182220E+02  0.12636919586E+03  0.79265147213E+02 0.  0.
         13    1    4    4    0    0  0.15105462115E+02  0.14927211483E+02  0.98804186387E+02  0.10106069402E+03  0.00000000000E+00 0. -1.
        -14    1    4    4    0    0 -0.17047435816E+02  0.17724128967E+02 -0.59800041676E+01  0.25308501840E+02  0.00000000000E+00 0.  1.
        -13    1    3    3    0    0 -0.18538361707E+02  0.98812320821E+01 -0.64602792982E+02  0.67932543477E+02  0.00000000000E+00 0. -1.
         13    1    3    3    0    0  0.32105526641E+02 -0.78152796069E+02 -0.66519854427E+02  0.10753378728E+03  0.00000000000E+00 0.  1.
         21    1    1    2  502  501 -0.11625191233E+02  0.35620223537E+02 -0.25635342712E+03  0.25907725680E+03  0.00000000000E+00 0.  1.
<scales pt_clust_5="13000.00000" pt_clust_6="13000.00000" pt_clust_7="13000.00000" pt_clust_8="13000.00000" pt_clust_9="37.46926"></scales>
<clustering>
<clus scale="   37.469">  2  9  1 -1</clus>
<clus scale="   79.265">  5  6 -1 -1</clus>
<clus scale="   87.180">  1  5  2 -1</clus>
<clus scale="   93.543">  7  8 -1 -1</clus>
<clus scale="   87.180">  1  5  2 -1</clus>
</clustering>
</event>
<event>
 9    1  0.3846604E-005  0.1979041E+03  0.7546771E-02  0.1152351E+00
         -2   -1    0    0    0  501 -0.00000000000E+00  0.00000000000E+00  0.11270436256E+03  0.11270436256E+03  0.00000000000E+00 0.  1.
          1   -1    0    0  502    0  0.00000000000E+00 -0.00000000000E+00 -0.42827270652E+03  0.42827270652E+03  0.00000000000E+00 0. -1.
        -24    2    1    2    0    0 -0.16861846287E+03  0.98570930253E+01 -0.97011960658E+02  0.21144100232E+03  0.82259520097E+02 0.  0.
         23    2    1    2    0    0  0.18041081503E+03  0.24859430588E+02 -0.20876317688E+03  0.29158605393E+03  0.90963230809E+02 0.  0.
         11    1    3    3    0    0 -0.15306484736E+03  0.21226708506E+02 -0.52947642378E+02  0.16334893169E+03  0.00000000000E+00 0. -1.
        -12    1    3    3    0    0 -0.15553615511E+02 -0.11369615481E+02 -0.44064318280E+02  0.48092070626E+02  0.00000000000E+00 0.  1.
        -11    1    4    4    0    0  0.10957653434E+03  0.48549102421E+02 -0.16837749465E+03  0.20667610633E+03  0.00000000000E+00 0. -1.
         11    1    4    4    0    0  0.70834280693E+02 -0.23689671832E+02 -0.40385682225E+02  0.84909947601E+02  0.00000000000E+00 0.  1.
         21    1    1    2  502  501 -0.11792352162E+02 -0.34716523614E+02 -0.97932064273E+01  0.37950012825E+02  0.00000000000E+00 0.  1.
<scales pt_clust_5="13000.00000" pt_clust_6="13000.00000" pt_clust_7="13000.00000" pt_clust_8="13000.00000" pt_clust_9="36.66465"></scales>
<clustering>
<clus scale="   36.665">  1  9  2 -1</clus>
<clus scale="   82.260">  5  6 -1 -1</clus>
<clus scale="   90.963">  7  8 -1 -1</clus>
<clus scale="  194.058">  1  5  2 -1</clus>
<clus scale="  197.904">  2  5  1 -1</clus>
</clustering>
</event>
<event>
 9    1  0.3846604E-005  0.2678699E+03  0.7546771E-02  0.1102978E+00
         -2   -1    0    0    0  501 -0.00000000000E+00  0.00000000000E+00  0.24039856277E+03  0.24039856277E+03  0.00000000000E+00 0.  1.
          1   -1    0    0  502    0  0.00000000000E+00 -0.00000000000E+00 -0.98103103587E+03  0.98103103587E+03  0.00000000000E+00 0. -1.
         23    2    1    2    0    0 -0.13641586150E+03 -0.24095761923E+03 -0.31661779948E+03  0.43004833899E+03  0.89581702294E+02 0.  0.
        -24    2    1    2    0    0 -0.52004766513E+02  0.25825395981E+03 -0.51312937225E+03  0.58223316385E+03  0.79335369932E+02 0.  0.
         11    1    4    4    0    0 -0.20133969197E+02  0.23374833922E+03 -0.44740376940E+03  0.50518689183E+03  0.00000000000E+00 0. -1.
        -12    1    4    4    0    0 -0.31870797316E+02  0.24505620593E+02 -0.65725602852E+02  0.77046272021E+02  0.00000000000E+00 0.  1.
        -11    1    3    3    0    0 -0.28007251542E+02 -0.12967820067E+03 -0.17679185739E+03  0.22103439259E+03  0.00000000000E+00 0.  1.
         11    1    3    3    0    0 -0.10840860996E+03 -0.11127941856E+03 -0.13982594210E+03  0.20901394641E+03  0.00000000000E+00 0. -1.
         21    1    1    2  502  501  0.18842062802E+03 -0.17296340579E+02  0.89114698631E+02  0.20914809579E+03  0.00000000000E+00 0.  1.
<scales pt_clust_5="13000.00000" pt_clust_6="13000.00000" pt_clust_7="13000.00000" pt_clust_8="13000.00000" pt_clust_9="189.21283"></scales>
<clustering>
<clus scale="   79.335">  5  6 -1 -1</clus>
<clus scale="   89.582">  7  8 -1 -1</clus>
<clus scale="  189.213">  1  9  2 -1</clus>
<clus scale="  264.620">  2  5  1 -1</clus>
<clus scale="  264.620">  2  5  1 -1</clus>
</clustering>
</event>
<event>
 9    1  0.3846604E-005  0.1005405E+03  0.7546771E-02  0.1285172E+00
          1   -1    0    0  502    0  0.00000000000E+00  0.00000000000E+00  0.47298315575E+03  0.47298315575E+03  0.00000000000E+00 0. -1.
         -2   -1    0    0    0  501 -0.00000000000E+00 -0.00000000000E+00 -0.69640039176E+02  0.69640039176E+02  0.00000000000E+00 0.  1.
        -24    2    1    2    0    0 -0.43712123226E+02  0.25943331553E+01 -0.27295593866E+02  0.94468611136E+02  0.79131465069E+02 0.  0.
         23    2    1    2    0    0  0.25229052548E+02  0.12817641260E+02  0.38366339663E+03  0.39537359323E+03  0.91224334964E+02 0.  0.
         11    1    3    3    0    0  0.21253976979E+02 -0.88788394618E+01  0.10226800550E+00  0.23034230752E+02  0.00000000000E+00 0. -1.
        -12    1    3    3    0    0 -0.64966100205E+02  0.11473172617E+02 -0.27397861871E+02  0.71434380384E+02  0.00000000000E+00 0.  1.
        -11    1    4    4    0    0 -0.30142757664E+00  0.47662782271E+02  0.26124187767E+03  0.26555442064E+03  0.00000000000E+00 0.  1.
         11    1    4    4    0    0  0.25530480125E+02 -0.34845141012E+02  0.12242151896E+03  0.12981917259E+03  0.00000000000E+00 0. -1.
         21    1    1    2  502  501  0.18483070678E+02 -0.15411974415E+02  0.46975313809E+02  0.52780990560E+02  0.00000000000E+00 0. -1.
<scales pt_clust_5="13000.00000" pt_clust_6="13000.00000" pt_clust_7="13000.00000" pt_clust_8="13000.00000" pt_clust_9="24.06559"></scales>
<clustering>
<clus scale="   24.066">  1  9  2 -1</clus>
<clus scale="   79.131">  5  6 -1 -1</clus>
<clus scale="   89.712">  2  5  1 -1</clus>
<clus scale="   91.224">  7  8 -1 -1</clus>
<clus scale="   24.066">  1  5  2 -1</clus>
</clustering>
</event>
<event>
 9    1  0.3846604E-005  0.9773792E+02  0.7546771E-02  0.1290758E+00
          1   -1    0    0  502    0  0.00000000000E+00  0.00000000000E+00  0.33175106225E+03  0.33175106225E+03  0.00000000000E+00 0. -1.
         -2   -1    0    0    0  501 -0.00000000000E+00 -0.00000000000E+00 -0.48258607904E+02  0.48258607904E+02  0.00000000000E+00 0.  1.
        -24    2    1    2    0    0  0.19522905600E+02 -0.63696229691E+01  0.60695433043E+02  0.11665302848E+03  0.97479626187E+02 0.  0.
         23    2    1    2    0    0  0.12535535360E+01  0.61405459012E+01  0.22586681106E+03  0.24235337194E+03  0.87635967789E+02 0.  0.
         11    1    3    3    0    0 -0.26131334450E+02  0.18178968788E+02  0.56242789083E+02  0.64626410005E+02  0.00000000000E+00 0. -1.
        -12    1    3    3    0    0  0.45654240049E+02 -0.24548591757E+02  0.44526439597E+01  0.52026618475E+02  0.00000000000E+00 0.  1.
        -13    1    4    4    0    0  0.42121926234E+02  0.11393969893E+02  0.14743334403E+03  0.15375522804E+03  0.00000000000E+00 0.  1.
         13    1    4    4    0    0 -0.40868372698E+02 -0.52534239923E+01  0.78433467035E+02  0.88598143895E+02  0.00000000000E+00 0. -1.
         21    1    1    2  502  501 -0.20776459135E+02  0.22907706791E+00 -0.30697897555E+01  0.21003269737E+02  0.00000000000E+00 0. -1.
<scales pt_clust_5="13000.00000" pt_clust_6="13000.00000" pt_clust_7="13000.00000" pt_clust_8="13000.00000" pt_clust_9="20.77772"></scales>
<clustering>
<clus scale="   20.778">  2  9  1 -1</clus>
<clus scale="   87.636">  7  8 -1 -1</clus>
<clus scale="   87.923">  1  7  2 -1</clus>
<clus scale="   97.480">  5  6 -1 -1</clus>
<clus scale="   87.923">  1  5  2 -1</clus>
</clustering>
</event>
<event>
 9    1  0.3846604E-005  0.9373350E+02  0.7546771E-02  0.1300645E+00
         -4   -1    0    0    0  501 -0.00000000000E+00  0.00000000000E+00  0.12684650218E+03  0.12684650218E+03  0.00000000000E+00 0.  1.
          3   -1    0    0  502    0  0.00000000000E+00 -0.00000000000E+00 -0.12899067660E+03  0.12899067660E+03  0.00000000000E+00 0. -1.
        -24    2    1    2    0    0 -0.70859964062E+01  0.19488416992E+02  0.23787373508E+02  0.85676945403E+02  0.79653562967E+02 0.  0.
         23    2    1    2    0    0 -0.15405765772E+02 -0.22428234494E+02 -0.71844006567E+02  0.11895011962E+03  0.90814130825E+02 0.  0.
         13    1    3    3    0    0  0.19456778329E+02  0.12891377902E+02 -0.22173759823E+02  0.32193624709E+02  0.00000000000E+00 0. -1.
        -14    1    3    3    0    0 -0.26542774736E+02  0.65970390898E+01  0.45961133331E+02  0.53483320695E+02  0.00000000000E+00 0.  1.
        -11    1    4    4    0    0  0.37746838708E+02 -0.27099101489E+01 -0.33168071411E+02  0.50321848203E+02  0.00000000000E+00 0. -1.
         11    1    4    4    0    0 -0.53152604481E+02 -0.19718324346E+02 -0.38675935156E+02  0.68628271421E+02  0.00000000000E+00 0.  1.
         21    1    1    2  502  501  0.22491762179E+02  0.29398175026E+01  0.45912458636E+02  0.51210113755E+02  0.00000000000E+00 0.  1.
<scales pt_clust_5="13000.00000" pt_clust_6="13000.00000" pt_clust_7="13000.00000" pt_clust_8="13000.00000" pt_clust_9="22.68308"></scales>
<clustering>
<clus scale="   22.683">  1  9  2 -1</clus>
<clus scale="   79.654">  5  6 -1 -1</clus>
<clus scale="   82.967">  1  5  2 -1</clus>
<clus scale="   90.814">  7  8 -1 -1</clus>
<clus scale="   93.734">  2  5  1 -1</clus>
</clustering>
</event>
<event>
 9    1  0.3846604E-005  0.1172239E+03  0.7546771E-02  0.1252966E+00
          1   -1    0    0  502    0  0.00000000000E+00  0.00000000000E+00  0.12346901408E+03  0.12346901408E+03  0.00000000000E+00 0. -1.
         -2   -1    0    0    0  501 -0.00000000000E+00 -0.00000000000E+00 -0.24342487751E+03  0.24342487751E+03  0.00000000000E+00 0.  1.
        -24    2    1    2    0    0  0.20406822728E+02  0.42933183446E+02 -0.10084114284E+03  0.13919408266E+03  0.83344825292E+02 0.  0.
         23    2    1    2    0    0  0.33200795155E+02 -0.68301332215E+02  0.52799908492E+02  0.13448482333E+03  0.97626700177E+02 0.  0.
         11    1    3    3    0    0  0.46324507248E+02  0.52909665917E+01 -0.69825206233E+02  0.83961382341E+02  0.00000000000E+00 0. -1.
        -12    1    3    3    0    0 -0.25917684520E+02  0.37642216854E+02 -0.31015936607E+02  0.55232700316E+02  0.00000000000E+00 0.  1.
        -13    1    4    4    0    0 -0.52845600406E+01 -0.71772410558E+02  0.37800037669E+01  0.72065899846E+02  0.00000000000E+00 0. -1.
         13    1    4    4    0    0  0.38485355195E+02  0.34710783430E+01  0.49019904725E+02  0.62418923482E+02  0.00000000000E+00 0.  1.
         21    1    1    2  502  501 -0.53607617882E+02  0.25368148769E+02 -0.71914629078E+02  0.93214985611E+02  0.00000000000E+00 0.  1.
<scales pt_clust_5="13000.00000" pt_clust_6="13000.00000" pt_clust_7="13000.00000" pt_clust_8="13000.00000" pt_clust_9="59.30700"></scales>
<clustering>
<clus scale="   59.307">  2  9  1 -1</clus>
<clus scale="   83.345">  5  6 -1 -1</clus>
<clus scale="   97.627">  7  8 -1 -1</clus>
<clus scale="  105.626">  2  5  1 -1</clus>
<clus scale="  117.224">  1  5  2 -1</clus>
</clustering>
</event>
<event>
 9    1  0.3846604E-005  0.9501108E+02  0.7546771E-02  0.1296135E+00
          1   -1    0    0  502    0  0.00000000000E+00  0.00000000000E+00  0.20374219472E+03  0.20374219472E+03  0.00000000000E+00 0. -1.
         -2   -1    0    0    0  501 -0.00000000000E+00 -0.00000000000E+00 -0.13721194366E+03  0.13721194366E+03  0.00000000000E+00 0.  1.
        -24    2    1    2    0    0  0.32440360105E+02 -0.33202808749E+02 -0.21476511141E+02  0.95923091149E+02  0.81149216954E+02 0.  0.
         23    2    1    2    0    0 -0.24612779219E+02 -0.27774530224E+02  0.13581994324E+03  0.16714903922E+03  0.90080691051E+02 0.  0.
         13    1    3    3    0    0  0.43855166542E+01  0.26022341701E+02 -0.14252719762E+02  0.29992249742E+02  0.00000000000E+00 0. -1.
        -14    1    3    3    0    0  0.28054843451E+02 -0.59225150450E+02 -0.72237913789E+01  0.65930841408E+02  0.00000000000E+00 0.  1.
        -11    1    4    4    0    0 -0.34539826701E+02  0.25342893856E+02  0.68946449121E+02  0.81171883950E+02  0.00000000000E+00 0. -1.
         11    1    4    4    0    0  0.99270474817E+01 -0.53117424080E+02  0.66873494116E+02  0.85977155268E+02  0.00000000000E+00 0.  1.
         21    1    1    2  502  501 -0.78275808853E+01  0.60977338973E+02 -0.47813181038E+02  0.77882008010E+02  0.00000000000E+00 0.  1.
<scales pt_clust_5="13000.00000" pt_clust_6="13000.00000" pt_clust_7="13000.00000" pt_clust_8="13000.00000" pt_clust_9="61.47769"></scales>
<clustering>
<clus scale="   61.478">  2  9  1 -1</clus>
<clus scale="   81.149">  5  6 -1 -1</clus>
<clus scale="   86.590">  2  5  1 -1</clus>
<clus scale="   90.081">  7  8 -1 -1</clus>
<clus scale="   95.011">  1  5  2 -1</clus>
</clustering>
</event>
<event>
 9    1  0.3846604E-005  0.3334434E+03  0.7546771E-02  0.1071024E+00
          1   -1    0    0  502    0  0.00000000000E+00  0.00000000000E+00  0.42982411672E+03  0.42982411672E+03  0.00000000000E+00 0. -1.
         -2   -1    0    0    0  501 -0.00000000000E+00 -0.00000000000E+00 -0.56389683063E+03  0.56389683063E+03  0.00000000000E+00 0.  1.
        -24    2    1    2    0    0 -0.69718931347E+02  0.33251644690E+03 -0.34085024650E+03  0.48775285517E+03  0.79347591929E+02 0.  0.
         23    2    1    2    0    0 -0.11970453414E+02 -0.30659100258E+03  0.24639263307E+03  0.41155071860E+03  0.12051277829E+03 0.  0.
         11    1    3    3    0    0 -0.72923863353E+02  0.18084904964E+03 -0.21851469802E+03  0.29287017918E+03  0.00000000000E+00 0. -1.
        -12    1    3    3    0    0  0.32049320057E+01  0.15166739726E+03 -0.12233554847E+03  0.19488267599E+03  0.00000000000E+00 0.  1.
        -11    1    4    4    0    0  0.52439198797E+01 -0.20158842212E+02 -0.13153200047E+02  0.24635021545E+02  0.00000000000E+00 0.  1.
         11    1    4    4    0    0 -0.17214373294E+02 -0.28643216037E+03  0.25954583311E+03  0.38691569706E+03  0.00000000000E+00 0. -1.
         21    1    1    2  502  501  0.81689384762E+02 -0.25925444320E+02 -0.39615100479E+02  0.94417373570E+02  0.00000000000E+00 0. -1.
<scales pt_clust_5="13000.00000" pt_clust_6="13000.00000" pt_clust_7="13000.00000" pt_clust_8="13000.00000" pt_clust_9="85.70463"></scales>
<clustering>
<clus scale="   79.348">  5  6 -1 -1</clus>
<clus scale="   85.705">  2  9  1 -1</clus>
<clus scale="  120.513">  7  8 -1 -1</clus>
<clus scale="  320.869">  2  5  1 -1</clus>
<clus scale="  333.443">  1  5  2 -1</clus>
</clustering>
</event>
<event>
 9    1  0.3846604E-005  0.1495967E+03  0.7546771E-02  0.1203722E+00
         -2   -1    0    0    0  501 -0.00000000000E+00  0.00000000000E+00  0.38328360097E+03  0.38328360097E+03  0.00000000000E+00 0.  1.
          1   -1    0    0  502    0  0.00000000000E+00 -0.00000000000E+00 -0.37412085157E+03  0.37412085157E+03  0.00000000000E+00 0. -1.
         23    2    1    2    0    0 -0.37795977649E+02 -0.10577810178E+03  0.81151183327E+02  0.16744331705E+03  0.93990462958E+02 0.  0.
        -24    2    1    2    0    0  0.83187191414E+02  0.83790303000E+02 -0.31293684169E+03  0.34379054263E+03  0.79508154452E+02 0.  0.
         13    1    4    4    0    0  0.61454808435E+02  0.84486943197E+02 -0.30177873258E+03  0.31935112414E+03  0.00000000000E+00 0. -1.
        -14    1    4    4    0    0  0.21732382978E+02 -0.69664019658E+00 -0.11158109112E+02  0.24439418496E+02  0.00000000000E+00 0.  1.
        -11    1    3    3    0    0 -0.25513219330E+02 -0.41110982397E+02  0.88851398270E+02  0.10117118270E+03  0.00000000000E+00 0.  1.
         11    1    3    3    0    0 -0.12282758319E+02 -0.64667119386E+02 -0.77002149432E+01  0.66272134353E+02  0.00000000000E+00 0. -1.
         21    1    1    2  502  501 -0.45391213765E+02  0.21987798782E+02  0.24094840776E+03  0.24617059285E+03  0.00000000000E+00 0. -1.
<scales pt_clust_5="13000.00000" pt_clust_6="13000.00000" pt_clust_7="13000.00000" pt_clust_8="13000.00000" pt_clust_9="50.43635"></scales>
<clustering>
<clus scale="   50.436">  1  9  2 -1</clus>
<clus scale="   79.508">  5  6 -1 -1</clus>
<clus scale="   93.990">  7  8 -1 -1</clus>
<clus scale="  140.949">  2  5  1 -1</clus>
<clus scale="  140.949">  2  5  1 -1</clus>
</clustering>
</event>
<event>
 9    1  0.3846604E-005  0.1432513E+03  0.7546771E-02  0.1211747E+00
          3   -1    0    0  502    0  0.00000000000E+00  0.00000000000E+00  0.26283435953E+03  0.26283435953E+03  0.00000000000E+00 0. -1.
         -4   -1    0    0    0  501 -0.00000000000E+00 -0.00000000000E+00 -0.20483942303E+03  0.20483942303E+03  0.00000000000E+00 0.  1.
         23    2    1    2    0    0  0.34361899510E+02 -0.45650366073E+02 -0.87297972879E+02  0.13873594107E+03  0.91444131668E+02 0.  0.
        -24    2    1    2    0    0 -0.86852657066E+02  0.84916105624E+02  0.19782011697E+03  0.24493673751E+03  0.78147793768E+02 0.  0.
         11    1    4    4    0    0 -0.25727744235E+02  0.75474301590E+02  0.13492246375E+03  0.15672382795E+03  0.00000000000E+00 0. -1.
        -12    1    4    4    0    0 -0.61124912831E+02  0.94418040341E+01  0.62897653216E+02  0.88212909555E+02  0.00000000000E+00 0.  1.
        -13    1    3    3    0    0  0.17042765363E+02  0.19401621637E+02  0.31181291028E+01  0.26011564783E+02  0.00000000000E+00 0. -1.
         13    1    3    3    0    0  0.17319134147E+02 -0.65051987710E+02 -0.90416101982E+02  0.11272437629E+03  0.00000000000E+00 0.  1.
         21    1    1    2  502  501  0.52490757556E+02 -0.39265739551E+02 -0.52527207596E+02  0.84001103976E+02  0.00000000000E+00 0.  1.
<scales pt_clust_5="13000.00000" pt_clust_6="13000.00000" pt_clust_7="13000.00000" pt_clust_8="13000.00000" pt_clust_9="65.55210"></scales>
<clustering>
<clus scale="   65.552">  2  9  1 -1</clus>
<clus scale="   78.148">  5  6 -1 -1</clus>
<clus scale="   91.444">  7  8 -1 -1</clus>
<clus scale="  135.152">  1  5  2 -1</clus>
<clus scale="  135.152">  1  5  2 -1</clus>
</clustering>
</event>
<event>
 9    1  0.3846604E-005  0.9486751E+02  0.7546771E-02  0.1296867E+00
         -2   -1    0    0    0  501 -0.00000000000E+00  0.00000000000E+00  0.59619123858E+02  0.59619123858E+02  0.00000000000E+00 0.  1.
          1   -1    0    0  502    0  0.00000000000E+00 -0.00000000000E+00 -0.22752101253E+03  0.22752101253E+03  0.00000000000E+00 0. -1.
         23    2    1    2    0    0 -0.12204539279E+02 -0.14092797537E+02 -0.22005921614E+02  0.95462223612E+02  0.91001196857E+02 0.  0.
        -24    2    1    2    0    0  0.31090280200E+02  0.15394741736E+01 -0.14469513688E+03  0.16896890288E+03  0.81515838940E+02 0.  0.
         13    1    4    4    0    0 -0.15823931977E+02 -0.20022166964E+02 -0.90861003792E+02  0.94376935759E+02  0.00000000000E+00 0. -1.
        -14    1    4    4    0    0  0.46914212178E+02  0.21561641138E+02 -0.53834133090E+02  0.74591967117E+02  0.00000000000E+00 0.  1.
        -13    1    3    3    0    0  0.13716841143E+02 -0.48032040307E+02 -0.15228030803E+02  0.52221849346E+02  0.00000000000E+00 0.  1.
         13    1    3    3    0    0 -0.25921380422E+02  0.33939242770E+02 -0.67778908106E+01  0.43240374265E+02  0.00000000000E+00 0. -1.
         21    1    1    2  502  501 -0.18885740922E+02  0.12553323364E+02 -0.12008301786E+01  0.22709009903E+02  0.00000000000E+00 0. -1.
<scales pt_clust_5="13000.00000" pt_clust_6="13000.00000" pt_clust_7="13000.00000" pt_clust_8="13000.00000" pt_clust_9="22.67724"></scales>
<clustering>
<clus scale="   22.677">  1  9  2 -1</clus>
<clus scale="   81.516">  5  6 -1 -1</clus>
<clus scale="   85.811">  2  5  1 -1</clus>
<clus scale="   91.001">  7  8 -1 -1</clus>
<clus scale="   85.811">  2  5  1 -1</clus>
</clustering>
</event>
<event>
 9    1  0.3846604E-005  0.1301581E+03  0.7546771E-02  0.1231148E+00
          1   -1    0    0  502    0  0.00000000000E+00  0.00000000000E+00  0.31396021820E+02  0.31396021820E+02  0.00000000000E+00 0. -1.
         -2   -1    0    0    0  501 -0.00000000000E+00 -0.00000000000E+00 -0.80349037879E+03  0.80349037879E+03  0.00000000000E+00 0.  1.
        -24    2    1    2    0    0 -0.58391707616E+02  0.12170168372E+01 -0.53693263691E+03  0.55014317605E+03  0.10464122001E+03 0.  0.
         23    2    1    2    0    0  0.82606752528E+02 -0.11075882916E+02 -0.14437631719E+03  0.19026806902E+03  0.91710775688E+02 0.  0.
         13    1    3    3    0    0 -0.52760032557E+01 -0.46980172513E+02 -0.18229113846E+03  0.18832161846E+03  0.00000000000E+00 0. -1.
        -14    1    3    3    0    0 -0.53115704360E+02  0.48197189350E+02 -0.35464149845E+03  0.36182155759E+03  0.00000000000E+00 0.  1.
        -13    1    4    4    0    0  0.38154248606E+02  0.40395661002E+02 -0.57857226198E+02  0.80218543603E+02  0.00000000000E+00 0.  1.
         13    1    4    4    0    0  0.44452503922E+02 -0.51471543917E+02 -0.86519090993E+02  0.11004952542E+03  0.00000000000E+00 0. -1.
         21    1    1    2  502  501 -0.24215044911E+02  0.98588660784E+01 -0.90785402869E+02  0.94475155541E+02  0.00000000000E+00 0.  1.
<scales pt_clust_5="13000.00000" pt_clust_6="13000.00000" pt_clust_7="13000.00000" pt_clust_8="13000.00000" pt_clust_9="26.14509"></scales>
<clustering>
<clus scale="   26.145">  2  9  1 -1</clus>
<clus scale="   91.711">  7  8 -1 -1</clus>
<clus scale="  104.641">  5  6 -1 -1</clus>
<clus scale="  120.009">  1  7  2 -1</clus>
<clus scale="  120.009">  1  5  2 -1</clus>
</clustering>
</event>
<event>
 9    1  0.3846604E-005  0.1035491E+03  0.7546771E-02  0.1279300E+00
         -2   -1    0    0    0  501 -0.00000000000E+00  0.00000000000E+00  0.26195189227E+03  0.26195189227E+03  0.00000000000E+00 0.  1.
          1   -1    0    0  502    0  0.00000000000E+00 -0.00000000000E+00 -0.17165044664E+03  0.17165044664E+03  0.00000000000E+00 0. -1.
        -24    2    1    2    0    0 -0.35251835937E+02  0.41467377846E+02  0.20107344832E+03  0.22312218936E+03  0.79942131602E+02 0.  0.
         23    2    1    2    0    0  0.62569558994E+01  0.30732721882E+02 -0.43135567777E+02  0.10738677054E+03  0.93207250724E+02 0.  0.
         13    1    3    3    0    0  0.17228715327E+02  0.34361464362E+02  0.50217551252E+02  0.63240345656E+02  0.00000000000E+00 0. -1.
        -14    1    3    3    0    0 -0.52480551265E+02  0.71059134839E+01  0.15085589707E+03  0.15988184371E+03  0.00000000000E+00 0.  1.
        -13    1    4    4    0    0 -0.22929839537E+02  0.55508395376E+02 -0.26338078694E+02  0.65579370901E+02  0.00000000000E+00 0.  1.
         13    1    4    4    0    0  0.29186795437E+02 -0.24775673493E+02 -0.16797489082E+02  0.41807399637E+02  0.00000000000E+00 0. -1.
         21    1    1    2  502  501  0.28994880038E+02 -0.72200099728E+02 -0.67636434907E+02  0.10309337901E+03  0.00000000000E+00 0. -1.
<scales pt_clust_5="13000.00000" pt_clust_6="13000.00000" pt_clust_7="13000.00000" pt_clust_8="13000.00000" pt_clust_9="77.80461"></scales>
<clustering>
<clus scale="   77.805">  2  9  1 -1</clus>
<clus scale="   79.942">  5  6 -1 -1</clus>
<clus scale="   91.791">  1  5  2 -1</clus>
<clus scale="   93.207">  7  8 -1 -1</clus>
<clus scale="   77.805">  2  5  1 -1</clus>
</clustering>
</event>
<event>
 9    1  0.3846604E-005  0.1620852E+03  0.7546771E-02  0.1187897E+00
          1   -1    0    0  502    0  0.00000000000E+00  0.00000000000E+00  0.80337820511E+02  0.80337820511E+02  0.00000000000E+00 0. -1.
         -2   -1    0    0    0  501 -0.00000000000E+00 -0.00000000000E+00 -0.57832233968E+03  0.57832233968E+03  0.00000000000E+00 0.  1.
        -24    2    1    2    0    0 -0.49713435720E+02 -0.10253709131E+03 -0.38421811121E+03  0.40898332080E+03  0.81599748295E+02 0.  0.
         23    2    1    2    0    0  0.95820470035E+02  0.10321719223E+03 -0.58944810459E+02  0.17804075419E+03  0.91589673122E+02 0.  0.
         13    1    3    3    0    0 -0.34790955366E+02 -0.13164419656E+02 -0.47755021747E+02  0.60533087004E+02  0.00000000000E+00 0. -1.
        -14    1    3    3    0    0 -0.14922480354E+02 -0.89372671655E+02 -0.33646308947E+03  0.34845023380E+03  0.00000000000E+00 0.  1.
        -13    1    4    4    0    0  0.61993058716E+02  0.26551235692E+02  0.11689537508E+02  0.68445253546E+02  0.00000000000E+00 0. -1.
         13    1    4    4    0    0  0.33827411319E+02  0.76665956542E+02 -0.70634347967E+02  0.10959550065E+03  0.00000000000E+00 0.  1.
         21    1    1    2  502  501 -0.46107034315E+02 -0.68010092347E+00 -0.54821597497E+02  0.71636085200E+02  0.00000000000E+00 0.  1.
<scales pt_clust_5="13000.00000" pt_clust_6="13000.00000" pt_clust_7="13000.00000" pt_clust_8="13000.00000" pt_clust_9="46.11205"></scales>
<clustering>
<clus scale="   46.112">  2  9  1 -1</clus>
<clus scale="   81.600">  5  6 -1 -1</clus>
<clus scale="   91.590">  7  8 -1 -1</clus>
<clus scale="  156.657">  2  5  1 -1</clus>
<clus scale="  162.085">  1  5  2 -1</clus>
</clustering>
</event>
<event>
 9    1  0.3846604E-005  0.9379368E+02  0.7546771E-02  0.1298547E+00
          1   -1    0    0  502    0  0.00000000000E+00  0.00000000000E+00  0.42755488871E+03  0.42755488871E+03  0.00000000000E+00 0. -1.
         -2   -1    0    0    0  501 -0.00000000000E+00 -0.00000000000E+00 -0.50077746443E+03  0.50077746443E+03  0.00000000000E+00 0.  1.
        -24    2    1    2    0    0  0.58448161726E+02  0.39679261645E+02 -0.45671302481E+02  0.11331769396E+03  0.75923649018E+02 0.  0.
         23    2    1    2    0    0  0.16091137378E+02  0.33642777247E+01  0.38352978349E+03  0.39501883945E+03  0.93137240819E+02 0.  0.
         11    1    3    3    0    0  0.42643852280E+02  0.61803127975E+02 -0.41553863801E+02  0.85818694709E+02  0.00000000000E+00 0. -1.
        -12    1    3    3    0    0  0.15804309446E+02 -0.22123866331E+02 -0.41174386799E+01  0.27498999250E+02  0.00000000000E+00 0.  1.
        -13    1    4    4    0    0 -0.19190227641E+02  0.36911025708E+02  0.11940264463E+03  0.12644239875E+03  0.00000000000E+00 0.  1.
         13    1    4    4    0    0  0.35281365019E+02 -0.33546747983E+02  0.26412713886E+03  0.26857644070E+03  0.00000000000E+00 0. -1.
         21    1    1    2  502  501 -0.74539299104E+02 -0.43043539369E+02 -0.41108105673E+03  0.41999581973E+03  0.00000000000E+00 0.  1.
<scales pt_clust_5="13000.00000" pt_clust_6="13000.00000" pt_clust_7="13000.00000" pt_clust_8="13000.00000" pt_clust_9="86.07470"></scales>
<clustering>
<clus scale="   75.924">  5  6 -1 -1</clus>
<clus scale="   86.075">  2  9  1 -1</clus>
<clus scale="   86.075">  2  5  1 -1</clus>
<clus scale="   93.137">  7  8 -1 -1</clus>
<clus scale="   93.794">  1  5  2 -1</clus>
</clustering>
</event>
<event>
 9    1  0.3846604E-005  0.1505944E+03  0.7546771E-02  0.1202777E+00
          1   -1    0    0  502    0  0.00000000000E+00  0.00000000000E+00  0.15980437301E+03  0.15980437301E+03  0.00000000000E+00 0. -1.
         -2   -1    0    0    0  501 -0.00000000000E+00 -0.00000000000E+00 -0.23301140405E+03  0.23301140405E+03  0.00000000000E+00 0.  1.
        -24    2    1    2    0    0 -0.55056439455E+02 -0.85140180369E+02 -0.12764261395E+03  0.17981359102E+03  0.75896171052E+02 0.  0.
         23    2    1    2    0    0  0.68694257936E+02  0.10334164545E+03  0.83693226711E+02  0.17594421599E+03  0.92484670002E+02 0.  0.
         13    1    3    3    0    0 -0.27088792647E+02 -0.62632058661E+00 -0.38979030599E+01  0.27374963248E+02  0.00000000000E+00 0. -1.
        -14    1    3    3    0    0 -0.27967646808E+02 -0.84513859782E+02 -0.12374471089E+03  0.15243862777E+03  0.00000000000E+00 0.  1.
        -11    1    4    4    0    0  0.58023980968E+02  0.55810219405E+02  0.96403137712E+02  0.12559907610E+03  0.00000000000E+00 0. -1.
         11    1    4    4    0    0  0.10670276968E+02  0.47531426045E+02 -0.12709911002E+02  0.50345139886E+02  0.00000000000E+00 0.  1.
         21    1    1    2  502  501 -0.13637818481E+02 -0.18201465081E+02 -0.29257643793E+02  0.37057970052E+02  0.00000000000E+00 0.  1.
<scales pt_clust_5="13000.00000" pt_clust_6="13000.00000" pt_clust_7="13000.00000" pt_clust_8="13000.00000" pt_clust_9="22.74387"></scales>
<clustering>
<clus scale="   22.744">  2  9  1 -1</clus>
<clus scale="   75.896">  5  6 -1 -1</clus>
<clus scale="   92.485">  7  8 -1 -1</clus>
<clus scale="  141.016">  2  5  1 -1</clus>
<clus scale="  150.594">  1  5  2 -1</clus>
</clustering>
</event>
<event>
 9    1  0.3846604E-005  0.1267583E+03  0.7546771E-02  0.1234672E+00
         -2   -1    0    0    0  501 -0.00000000000E+00  0.00000000000E+00  0.91132602860E+02  0.91132602860E+02  0.00000000000E+00 0.  1.
          1   -1    0    0  502    0  0.00000000000E+00 -0.00000000000E+00 -0.22410130257E+03  0.22410130257E+03  0.00000000000E+00 0. -1.
        -24    2    1    2    0    0  0.27983531919E+02 -0.90937920081E+02 -0.18615810958E+02  0.12798669356E+03  0.83553946300E+02 0.  0.
         23    2    1    2    0    0 -0.90956709049E+01  0.83375135228E+02 -0.11079081901E+03  0.16659205878E+03  0.91892132795E+02 0.  0.
         13    1    3    3    0    0  0.15873730214E+02 -0.91587979232E+02  0.13248364712E+02  0.93892770852E+02  0.00000000000E+00 0. -1.
        -14    1    3    3    0    0  0.12109801705E+02  0.65005915110E+00 -0.31864175670E+02  0.34093922704E+02  0.00000000000E+00 0.  1.
        -13    1    4    4    0    0 -0.28842801545E+02  0.53741012739E+02 -0.12785450613E+02  0.62317504752E+02  0.00000000000E+00 0.  1.
         13    1    4    4    0    0  0.19747130640E+02  0.29634122489E+02 -0.98005368394E+02  0.10427455403E+03  0.00000000000E+00 0. -1.
         21    1    1    2  502  501 -0.18887861014E+02  0.75627848524E+01 -0.35620697458E+01  0.20655153093E+02  0.00000000000E+00 0.  1.
<scales pt_clust_5="13000.00000" pt_clust_6="13000.00000" pt_clust_7="13000.00000" pt_clust_8="13000.00000" pt_clust_9="20.34569"></scales>
<clustering>
<clus scale="   20.346">  1  9  2 -1</clus>
<clus scale="   83.554">  5  6 -1 -1</clus>
<clus scale="   91.892">  7  8 -1 -1</clus>
<clus scale="  120.850">  1  5  2 -1</clus>
<clus scale="  126.758">  2  5  1 -1</clus>
</clustering>
</event>
<event>
 9    1  0.3846604E-005  0.1071277E+03  0.7546771E-02  0.1269371E+00
         -2   -1    0    0    0  501 -0.00000000000E+00  0.00000000000E+00  0.15567992970E+03  0.15567992970E+03  0.00000000000E+00 0.  1.
          1   -1    0    0  502    0  0.00000000000E+00 -0.00000000000E+00 -0.26394298134E+03  0.26394298134E+03  0.00000000000E+00 0. -1.
        -24    2    1    2    0    0  0.38873449728E+02  0.84289948411E+02 -0.70575089364E+02  0.14211456340E+03  0.81238940141E+02 0.  0.
         23    2    1    2    0    0 -0.96879580542E+01 -0.42645513416E+02 -0.13495581206E+03  0.16774912710E+03  0.89522075987E+02 0.  0.
         11    1    3    3    0    0  0.21862070448E+02  0.56442429309E+02 -0.86682028429E+02  0.10572356409E+03  0.00000000000E+00 0. -1.
        -12    1    3    3    0    0  0.17011379280E+02  0.27847519102E+02  0.16106939065E+02  0.36390999315E+02  0.00000000000E+00 0.  1.
        -13    1    4    4    0    0  0.21561603136E+02  0.19938490106E+02 -0.46147805082E+02  0.54699780908E+02  0.00000000000E+00 0.  1.
         13    1    4    4    0    0 -0.31249561190E+02 -0.62584003522E+02 -0.88808006980E+02  0.11304934620E+03  0.00000000000E+00 0. -1.
         21    1    1    2  502  501 -0.29185491673E+02 -0.41644434994E+02  0.97267849782E+02  0.10975922053E+03  0.00000000000E+00 0.  1.
<scales pt_clust_5="13000.00000" pt_clust_6="13000.00000" pt_clust_7="13000.00000" pt_clust_8="13000.00000" pt_clust_9="50.85324"></scales>
<clustering>
<clus scale="   50.853">  1  9  2 -1</clus>
<clus scale="   81.239">  5  6 -1 -1</clus>
<clus scale="   89.522">  7  8 -1 -1</clus>
<clus scale="  100.309">  1  5  2 -1</clus>
<clus scale="  107.128">  2  5  1 -1</clus>
</clustering>
</event>
<event>
 9    1  0.3846604E-005  0.1179618E+03  0.7546771E-02  0.1250051E+00
         -2   -1    0    0    0  501 -0.00000000000E+00  0.00000000000E+00  0.13453417585E+03  0.13453417585E+03  0.00000000000E+00 0.  1.
          1   -1    0    0  502    0  0.00000000000E+00 -0.00000000000E+00 -0.32252136967E+03  0.32252136967E+03  0.00000000000E+00 0. -1.
        -24    2    1    2    0    0  0.53686216882E+02  0.27966464338E+02  0.24241181585E+02  0.10444730360E+03  0.81592103377E+02 0.  0.
         23    2    1    2    0    0 -0.76158125532E+02 -0.10003873930E+02 -0.26588988756E+03  0.29172146817E+03  0.92216295241E+02 0.  0.
         13    1    3    3    0    0  0.18615379857E+02 -0.27546578126E+02 -0.29487093195E+01  0.33377256034E+02  0.00000000000E+00 0. -1.
        -14    1    3    3    0    0  0.35070837025E+02  0.55513042465E+02  0.27189890904E+02  0.71070047563E+02  0.00000000000E+00 0.  1.
        -13    1    4    4    0    0 -0.37183605105E+02  0.40849869411E+02 -0.13897977454E+03  0.14955504020E+03  0.00000000000E+00 0.  1.
         13    1    4    4    0    0 -0.38974520426E+02 -0.50853743341E+02 -0.12691011302E+03  0.14216642797E+03  0.00000000000E+00 0. -1.
         21    1    1    2  502  501  0.22471908650E+02 -0.17962590408E+02  0.53661512146E+02  0.60886773755E+02  0.00000000000E+00 0.  1.
<scales pt_clust_5="13000.00000" pt_clust_6="13000.00000" pt_clust_7="13000.00000" pt_clust_8="13000.00000" pt_clust_9="28.76876"></scales>
<clustering>
<clus scale="   28.769">  1  9  2 -1</clus>
<clus scale="   81.592">  5  6 -1 -1</clus>
<clus scale="   92.216">  7  8 -1 -1</clus>
<clus scale="  109.856">  1  5  2 -1</clus>
<clus scale="  117.962">  2  5  1 -1</clus>
</clustering>
</event>
<event>
 9    1  0.3846604E-005  0.1457017E+03  0.7546771E-02  0.1208437E+00
         -2   -1    0    0    0  501 -0.00000000000E+00  0.00000000000E+00  0.32035626581E+02  0.32035626581E+02  0.00000000000E+00 0.  1.
          1   -1    0    0  502    0  0.00000000000E+00 -0.00000000000E+00 -0.77690741861E+03  0.77690741861E+03  0.00000000000E+00 0. -1.
        -24    2    1    2    0    0 -0.10258694488E+03 -0.62166673913E+01 -0.27551532891E+03  0.30500618919E+03  0.80977470722E+02 0.  0.
         23    2    1    2    0    0  0.11695605984E+03  0.25808142232E+02 -0.44157952110E+03  0.46703352473E+03  0.93717979209E+02 0.  0.
         11    1    3    3    0    0 -0.60655000865E+02  0.10044073478E+02 -0.23985629388E+03  0.24761048899E+03  0.00000000000E+00 0. -1.
        -12    1    3    3    0    0 -0.41931944010E+02 -0.16260740870E+02 -0.35659035031E+02  0.57395700200E+02  0.00000000000E+00 0.  1.
        -13    1    4    4    0    0  0.51120066227E+02  0.57481898303E+02 -0.26493635952E+03  0.27587806074E+03  0.00000000000E+00 0. -1.
         13    1    4    4    0    0  0.65835993615E+02 -0.31673756071E+02 -0.17664316158E+03  0.19115546399E+03  0.00000000000E+00 0.  1.
         21    1    1    2  502  501 -0.14369114967E+02 -0.19591474840E+02 -0.27776942018E+02  0.36903331275E+02  0.00000000000E+00 0.  1.
<scales pt_clust_5="13000.00000" pt_clust_6="13000.00000" pt_clust_7="13000.00000" pt_clust_8="13000.00000" pt_clust_9="24.29604"></scales>
<clustering>
<clus scale="   24.296">  1  9  2 -1</clus>
<clus scale="   80.977">  5  6 -1 -1</clus>
<clus scale="   93.718">  7  8 -1 -1</clus>
<clus scale="  137.852">  1  5  2 -1</clus>
<clus scale="  145.702">  2  5  1 -1</clus>
</clustering>
</event>
<event>
 9    1  0.3846604E-005  0.1709880E+03  0.7546771E-02  0.1185182E+00
          1   -1    0    0  502    0  0.00000000000E+00  0.00000000000E+00  0.10450197460E+04  0.10450197460E+04  0.00000000000E+00 0. -1.
         -2   -1    0    0    0  501 -0.00000000000E+00 -0.00000000000E+00 -0.60522923402E+02  0.60522923402E+02  0.00000000000E+00 0.  1.
        -24    2    1    2    0    0  0.11379390921E+03  0.16580356311E+02  0.17168785719E+03  0.22263432277E+03  0.82857464230E+02 0.  0.
         23    2    1    2    0    0  0.19164026866E+02 -0.12070738233E+03  0.22885662399E+03  0.27502629610E+03  0.91250080168E+02 0.  0.
         13    1    3    3    0    0  0.47014700112E+02  0.39181292752E+02  0.12166380760E+03  0.13618971257E+03  0.00000000000E+00 0. -1.
        -14    1    3    3    0    0  0.66779209095E+02 -0.22600936441E+02  0.50024049588E+02  0.86444610200E+02  0.00000000000E+00 0.  1.
        -11    1    4    4    0    0  0.23659194400E+01 -0.10703273510E+03  0.22962109218E+03  0.25335242239E+03  0.00000000000E+00 0. -1.
         11    1    4    4    0    0  0.16798107426E+02 -0.13674647225E+02 -0.76446819609E+00  0.21673873706E+02  0.00000000000E+00 0.  1.
         21    1    1    2  502  501 -0.13295793607E+03  0.10412702602E+03  0.58395234139E+03  0.60788205051E+03  0.00000000000E+00 0. -1.
<scales pt_clust_5="13000.00000" pt_clust_6="13000.00000" pt_clust_7="13000.00000" pt_clust_8="13000.00000" pt_clust_9="144.60400"></scales>
<clustering>
<clus scale="   82.857">  5  6 -1 -1</clus>
<clus scale="   91.250">  7  8 -1 -1</clus>
<clus scale="  141.737">  2  5  1 -1</clus>
<clus scale="  144.604">  1  9  2 -1</clus>
<clus scale="  144.604">  1  5  2 -1</clus>
</clustering>
</event>
<event>
 9    1  0.3846604E-005  0.9367223E+02  0.7546771E-02  0.1300887E+00
         -2   -1    0    0    0  501 -0.00000000000E+00  0.00000000000E+00  0.10111079316E+03  0.10111079316E+03  0.00000000000E+00 0.  1.
          1   -1    0    0  502    0  0.00000000000E+00 -0.00000000000E+00 -0.15970206093E+03  0.15970206093E+03  0.00000000000E+00 0. -1.
         23    2    1    2    0    0 -0.37896638150E+02 -0.23961336586E+02  0.20721255821E+02  0.10357441747E+03  0.91038391233E+02 0.  0.
        -24    2    1    2    0    0  0.71139067391E+01  0.16041824708E+02 -0.91992098911E+02  0.12301758256E+03  0.79767358917E+02 0.  0.
         11    1    4    4    0    0  0.21092481472E+02  0.37000089979E+02 -0.87655873845E+02  0.97454869825E+02  0.00000000000E+00 0. -1.
        -12    1    4    4    0    0 -0.13978574733E+02 -0.20958265271E+02 -0.43362250657E+01  0.25562712738E+02  0.00000000000E+00 0.  1.
        -13    1    3    3    0    0 -0.62263418576E+00  0.32495207435E+02  0.14652832003E+02  0.35651531037E+02  0.00000000000E+00 0. -1.
         13    1    3    3    0    0 -0.37274003964E+02 -0.56456544021E+02  0.60684238187E+01  0.67922886437E+02  0.00000000000E+00 0.  1.
         21    1    1    2  502  501  0.30782731411E+02  0.79195118777E+01  0.12679575316E+02  0.34220854047E+02  0.00000000000E+00 0.  1.
<scales pt_clust_5="13000.00000" pt_clust_6="13000.00000" pt_clust_7="13000.00000" pt_clust_8="13000.00000" pt_clust_9="31.78514"></scales>
<clustering>
<clus scale="   31.785">  1  9  2 -1</clus>
<clus scale="   79.767">  5  6 -1 -1</clus>
<clus scale="   82.761">  2  5  1 -1</clus>
<clus scale="   91.038">  7  8 -1 -1</clus>
<clus scale="   82.761">  2  5  1 -1</clus>
</clustering>
</event>
<event>
 9    1  0.3846604E-005  0.9239876E+02  0.7546771E-02  0.1304013E+00
         -4   -1    0    0    0  501 -0.00000000000E+00  0.00000000000E+00  0.70844812807E+03  0.70844812807E+03  0.00000000000E+00 0.  1.
          3   -1    0    0  502    0  0.00000000000E+00 -0.00000000000E+00 -0.23185819698E+02  0.23185819698E+02  0.00000000000E+00 0. -1.
        -24    2    1    2    0    0  0.98650818159E+01 -0.21470846863E+02  0.47329776030E+03  0.48069385927E+03  0.80607067496E+02 0.  0.
         23    2    1    2    0    0 -0.11734175532E+02 -0.75338589588E+01  0.10497263418E+03  0.14007063324E+03  0.91684668638E+02 0.  0.
         11    1    3    3    0    0  0.36300958536E+02 -0.37978523748E+02  0.31611836224E+03  0.32045428193E+03  0.00000000000E+00 0. -1.
        -12    1    3    3    0    0 -0.26435876720E+02  0.16507676885E+02  0.15717939806E+03  0.16023957735E+03  0.00000000000E+00 0.  1.
        -11    1    4    4    0    0 -0.44134150402E+02  0.37788805577E+01  0.20335355463E+02  0.48740433439E+02  0.00000000000E+00 0. -1.
         11    1    4    4    0    0  0.32399974870E+02 -0.11312739516E+02  0.84637278722E+02  0.91330199805E+02  0.00000000000E+00 0.  1.
         21    1    1    2  502  501  0.18690937166E+01  0.29004705821E+02  0.10699191389E+03  0.11086945526E+03  0.00000000000E+00 0.  1.
<scales pt_clust_5="13000.00000" pt_clust_6="13000.00000" pt_clust_7="13000.00000" pt_clust_8="13000.00000" pt_clust_9="29.06487"></scales>
<clustering>
<clus scale="   29.065">  1  9  2 -1</clus>
<clus scale="   80.607">  5  6 -1 -1</clus>
<clus scale="   81.418">  1  5  2 -1</clus>
<clus scale="   91.685">  7  8 -1 -1</clus>
<clus scale="   92.399">  2  5  1 -1</clus>
</clustering>
</event>
<event>
 9    1  0.3846604E-005  0.1003905E+03  0.7546771E-02  0.1286162E+00
          1   -1    0    0  502    0  0.00000000000E+00  0.00000000000E+00  0.99101986401E+03  0.99101986401E+03  0.00000000000E+00 0. -1.
         -2   -1    0    0    0  501 -0.00000000000E+00 -0.00000000000E+00 -0.69406229811E+02  0.69406229811E+02  0.00000000000E+00 0.  1.
        -24    2    1    2    0    0 -0.36788804039E+02 -0.24674610693E+00 -0.29689783099E+02  0.92596552778E+02  0.79618850655E+02 0.  0.
         23    2    1    2    0    0  0.71471397510E+02  0.40572565143E+02  0.61617330824E+03  0.62850485292E+03  0.92706583660E+02 0.  0.
         13    1    3    3    0    0  0.44675752914E+01 -0.24164957221E+02  0.13689378838E+02  0.28130116947E+02  0.00000000000E+00 0. -1.
        -14    1    3    3    0    0 -0.41256379330E+02  0.23918211114E+02 -0.43379161937E+02  0.64466435831E+02  0.00000000000E+00 0.  1.
        -11    1    4    4    0    0 -0.16675031389E+02 -0.12549209917E+02  0.11390431326E+03  0.11580039689E+03  0.00000000000E+00 0. -1.
         11    1    4    4    0    0  0.88146428898E+02  0.53121775059E+02  0.50226899498E+03  0.51270445603E+03  0.00000000000E+00 0.  1.
         21    1    1    2  502  501 -0.34682593471E+02 -0.40325819036E+02  0.33513010906E+03  0.33932468812E+03  0.00000000000E+00 0. -1.
<scales pt_clust_5="13000.00000" pt_clust_6="13000.00000" pt_clust_7="13000.00000" pt_clust_8="13000.00000" pt_clust_9="53.18885"></scales>
<clustering>
<clus scale="   53.189">  1  9  2 -1</clus>
<clus scale="   79.619">  5  6 -1 -1</clus>
<clus scale="   88.447">  2  5  1 -1</clus>
<clus scale="   92.707">  7  8 -1 -1</clus>
<clus scale="   53.189">  1  5  2 -1</clus>
</clustering>
</event>
<event>
 9    1  0.3846604E-005  0.1099907E+03  0.7546771E-02  0.1268650E+00
         -2   -1    0    0    0  501 -0.00000000000E+00  0.00000000000E+00  0.22650421784E+03  0.22650421784E+03  0.00000000000E+00 0.  1.
          1   -1    0    0  502    0  0.00000000000E+00 -0.00000000000E+00 -0.11866200236E+03  0.11866200236E+03  0.00000000000E+00 0. -1.
        -24    2    1    2    0    0 -0.38494482898E+02  0.34755845169E+02  0.59319745200E+02  0.11113643164E+03  0.78375252989E+02 0.  0.
         23    2    1    2    0    0 -0.26240092268E+02  0.40594767475E+02 -0.30287258069E+02  0.10722579284E+03  0.90794135605E+02 0.  0.
         11    1    3    3    0    0 -0.44249140673E+02 -0.97073960472E+01  0.45534459623E+02  0.64230888220E+02  0.00000000000E+00 0. -1.
        -12    1    3    3    0    0  0.57546577745E+01  0.44463241217E+02  0.13785285576E+02  0.46905543425E+02  0.00000000000E+00 0.  1.
        -13    1    4    4    0    0  0.33841559320E+02  0.15403405940E+02 -0.58261691524E+01  0.37635891098E+02  0.00000000000E+00 0.  1.
         13    1    4    4    0    0 -0.60081651588E+02  0.25191361535E+02 -0.24461088917E+02  0.69589901742E+02  0.00000000000E+00 0. -1.
         21    1    1    2  502  501  0.64734575166E+02 -0.75350612645E+02  0.78809728341E+02  0.12680399571E+03  0.00000000000E+00 0.  1.
<scales pt_clust_5="13000.00000" pt_clust_6="13000.00000" pt_clust_7="13000.00000" pt_clust_8="13000.00000" pt_clust_9="62.08371"></scales>
<clustering>
<clus scale="   78.375">  5  6 -1 -1</clus>
<clus scale="   90.794">  7  8 -1 -1</clus>
<clus scale="   93.981">  1  5  2 -1</clus>
<clus scale="   62.084">  1  9  2 -1</clus>
<clus scale="  109.991">  2  5  1 -1</clus>
</clustering>
</event>
<event>
 9    1  0.3846604E-005  0.9142347E+02  0.7546771E-02  0.1303205E+00
         -2   -1    0    0    0  501 -0.00000000000E+00  0.00000000000E+00  0.20783676384E+03  0.20783676384E+03  0.00000000000E+00 0.  1.
          1   -1    0    0  502    0  0.00000000000E+00 -0.00000000000E+00 -0.12878874958E+03  0.12878874958E+03  0.00000000000E+00 0. -1.
        -24    2    1    2    0    0  0.65028504300E+01 -0.20125699698E+02  0.10383084711E+03  0.13265539134E+03  0.79807751422E+02 0.  0.
         23    2    1    2    0    0 -0.32613742354E+02  0.63910521304E+01 -0.92066070925E+02  0.13050275962E+03  0.86315161568E+02 0.  0.
         11    1    3    3    0    0 -0.25280222540E+02 -0.29481957745E+02  0.22614219839E+02  0.44940832470E+02  0.00000000000E+00 0. -1.
        -12    1    3    3    0    0  0.31783072970E+02  0.93562580464E+01  0.81216627270E+02  0.87714558866E+02  0.00000000000E+00 0.  1.
        -11    1    4    4    0    0 -0.52297244090E+02  0.29598303078E+02 -0.47794441936E+02  0.76781312599E+02  0.00000000000E+00 0. -1.
         11    1    4    4    0    0  0.19683501736E+02 -0.23207250948E+02 -0.44271628989E+02  0.53721447025E+02  0.00000000000E+00 0.  1.
         21    1    1    2  502  501  0.26110891924E+02  0.13734647568E+02  0.67283238078E+02  0.73467362462E+02  0.00000000000E+00 0.  1.
<scales pt_clust_5="13000.00000" pt_clust_6="13000.00000" pt_clust_7="13000.00000" pt_clust_8="13000.00000" pt_clust_9="29.50287"></scales>
<clustering>
<clus scale="   29.503">  1  9  2 -1</clus>
<clus scale="   79.808">  5  6 -1 -1</clus>
<clus scale="   85.307">  1  5  2 -1</clus>
<clus scale="   86.315">  7  8 -1 -1</clus>
<clus scale="   91.423">  2  5  1 -1</clus>
</clustering>
</event>
<event>
 9    1  0.3846604E-005  0.1225333E+03  0.7546771E-02  0.1240973E+00
          1   -1    0    0  502    0  0.00000000000E+00  0.00000000000E+00  0.67799336553E+03  0.67799336553E+03  0.00000000000E+00 0. -1.
         -2   -1    0    0    0  501 -0.00000000000E+00 -0.00000000000E+00 -0.12098877705E+03  0.12098877705E+03  0.00000000000E+00 0.  1.
         23    2    1    2    0    0 -0.32120989458E+02  0.59987856167E+02 -0.46679066989E+02  0.12404823764E+03  0.92621429034E+02 0.  0.
        -24    2    1    2    0    0  0.18110087937E+02 -0.79109977736E+02  0.62913041586E+03  0.64015605984E+03  0.86071696420E+02 0.  0.
         11    1    4    4    0    0  0.40719493304E+02 -0.10983160553E+02  0.15552652338E+03  0.16114343432E+03  0.00000000000E+00 0. -1.
        -12    1    4    4    0    0 -0.22609405368E+02 -0.68126817183E+02  0.47360389248E+03  0.47901262552E+03  0.00000000000E+00 0.  1.
        -11    1    3    3    0    0 -0.51809671307E+02  0.11987998316E+02  0.15663378951E+01  0.53201574779E+02  0.00000000000E+00 0.  1.
         11    1    3    3    0    0  0.19688681849E+02  0.47999857851E+02 -0.48245404884E+02  0.70846662865E+02  0.00000000000E+00 0. -1.
         21    1    1    2  502  501  0.14010901521E+02  0.19122121569E+02 -0.25446760394E+02  0.34777845093E+02  0.00000000000E+00 0. -1.
<scales pt_clust_5="13000.00000" pt_clust_6="13000.00000" pt_clust_7="13000.00000" pt_clust_8="13000.00000" pt_clust_9="23.70571"></scales>
<clustering>
<clus scale="   23.706">  2  9  1 -1</clus>
<clus scale="   86.072">  5  6 -1 -1</clus>
<clus scale="   92.621">  7  8 -1 -1</clus>
<clus scale="  117.661">  1  5  2 -1</clus>
<clus scale="  117.661">  1  5  2 -1</clus>
</clustering>
</event>
<event>
 9    1  0.3846604E-005  0.2014966E+03  0.7546771E-02  0.1149647E+00
         -2   -1    0    0    0  501 -0.00000000000E+00  0.00000000000E+00  0.10506255550E+03  0.10506255550E+03  0.00000000000E+00 0.  1.
          1   -1    0    0  502    0  0.00000000000E+00 -0.00000000000E+00 -0.79304404190E+03  0.79304404190E+03  0.00000000000E+00 0. -1.
         23    2    1    2    0    0 -0.16517972153E+03  0.26035382054E+02 -0.42955881390E+02  0.19533034856E+03  0.91359486634E+02 0.  0.
        -24    2    1    2    0    0  0.17555427524E+03 -0.48710219109E+02 -0.64797871011E+03  0.67766648122E+03  0.78507719391E+02 0.  0.
         11    1    4    4    0    0  0.12531160014E+03 -0.26520789787E+02 -0.55577129857E+03  0.57034032448E+03  0.00000000000E+00 0. -1.
        -12    1    4    4    0    0  0.50242675107E+02 -0.22189429322E+02 -0.92207411547E+02  0.10732615674E+03  0.00000000000E+00 0.  1.
        -11    1    3    3    0    0 -0.98265315125E+02 -0.24752712690E+02 -0.79447651569E+00  0.10133804880E+03  0.00000000000E+00 0. -1.
         11    1    3    3    0    0 -0.66914406406E+02  0.50788094744E+02 -0.42161404875E+02  0.93992299756E+02  0.00000000000E+00 0.  1.
         21    1    1    2  502  501 -0.10374553712E+02  0.22674837055E+02  0.29531051037E+01  0.25109767620E+02  0.00000000000E+00 0. -1.
<scales pt_clust_5="13000.00000" pt_clust_6="13000.00000" pt_clust_7="13000.00000" pt_clust_8="13000.00000" pt_clust_9="24.93551"></scales>
<clustering>
<clus scale="   24.936">  1  9  2 -1</clus>
<clus scale="   78.508">  5  6 -1 -1</clus>
<clus scale="   91.359">  7  8 -1 -1</clus>
<clus scale="  196.005">  2  5  1 -1</clus>
<clus scale="  196.005">  2  5  1 -1</clus>
</clustering>
</event>
<event>
 9    1  0.3846604E-005  0.9820353E+02  0.7546771E-02  0.1292373E+00
         -2   -1    0    0    0  501 -0.00000000000E+00  0.00000000000E+00  0.71289952985E+02  0.71289952985E+02  0.00000000000E+00 0.  1.
          1   -1    0    0  502    0  0.00000000000E+00 -0.00000000000E+00 -0.48391037044E+03  0.48391037044E+03  0.00000000000E+00 0. -1.
        -24    2    1    2    0    0  0.31463404622E+02  0.61470425116E+02 -0.14153046833E+03  0.17616413488E+03  0.78958026557E+02 0.  0.
         23    2    1    2    0    0 -0.26466022013E+02  0.20171082783E+02 -0.27960298220E+03  0.29680005672E+03  0.93835617505E+02 0.  0.
         13    1    3    3    0    0  0.13922783092E+02  0.70452955631E+02 -0.64087674127E+02  0.96253274340E+02  0.00000000000E+00 0. -1.
        -14    1    3    3    0    0  0.17540621529E+02 -0.89825305147E+01 -0.77442794207E+02  0.79910860543E+02  0.00000000000E+00 0.  1.
        -13    1    4    4    0    0  0.29786201687E+02 -0.89013855435E+01 -0.52298715073E+02  0.60840842152E+02  0.00000000000E+00 0.  1.
         13    1    4    4    0    0 -0.56252223699E+02  0.29072468326E+02 -0.22730426713E+03  0.23595921457E+03  0.00000000000E+00 0. -1.
         21    1    1    2  502  501 -0.49973826092E+01 -0.81641507899E+02  0.85130330782E+01  0.82236131823E+02  0.00000000000E+00 0.  1.
<scales pt_clust_5="13000.00000" pt_clust_6="13000.00000" pt_clust_7="13000.00000" pt_clust_8="13000.00000" pt_clust_9="81.79431"></scales>
<clustering>
<clus scale="   78.958">  5  6 -1 -1</clus>
<clus scale="   81.794">  1  9  2 -1</clus>
<clus scale="   84.102">  1  5  2 -1</clus>
<clus scale="   93.836">  7  8 -1 -1</clus>
<clus scale="   98.204">  2  5  1 -1</clus>
</clustering>
</event>
<event>
 9    1  0.3846604E-005  0.1125357E+03  0.7546771E-02  0.1259698E+00
         -2   -1    0    0    0  501 -0.00000000000E+00  0.00000000000E+00  0.24438190133E+03  0.24438190133E+03  0.00000000000E+00 0.  1.
          1   -1    0    0  502    0  0.00000000000E+00 -0.00000000000E+00 -0.26414082588E+03  0.26414082588E+03  0.00000000000E+00 0. -1.
        -24    2    1    2    0    0  0.12089055747E+03  0.11298492603E+02  0.67220443927E+02  0.16021686482E+03  0.80054187092E+02 0.  0.
         23    2    1    2    0    0 -0.51482310483E+02 -0.34077318129E+02 -0.19165001759E+03  0.22066447244E+03  0.90285038917E+02 0.  0.
         11    1    3    3    0    0  0.12663674786E+03  0.19233668193E+02  0.44711907735E+02  0.13566854681E+03  0.00000000000E+00 0. -1.
        -12    1    3    3    0    0 -0.57461903889E+01 -0.79351755897E+01  0.22508536192E+02  0.24548318010E+02  0.00000000000E+00 0.  1.
        -11    1    4    4    0    0 -0.23632081947E+02  0.28147448269E+02 -0.39578440589E+02  0.54011175702E+02  0.00000000000E+00 0.  1.
         11    1    4    4    0    0 -0.27850228536E+02 -0.62224766398E+02 -0.15207157700E+03  0.16665329674E+03  0.00000000000E+00 0. -1.
         21    1    1    2  502  501 -0.69408246990E+02  0.22778825525E+02  0.10467064911E+03  0.12764138995E+03  0.00000000000E+00 0.  1.
<scales pt_clust_5="13000.00000" pt_clust_6="13000.00000" pt_clust_7="13000.00000" pt_clust_8="13000.00000" pt_clust_9="73.05053"></scales>
<clustering>
<clus scale="   73.051">  1  9  2 -1</clus>
<clus scale="   80.054">  5  6 -1 -1</clus>
<clus scale="   90.285">  7  8 -1 -1</clus>
<clus scale="  104.506">  1  5  2 -1</clus>
<clus scale="  112.536">  2  5  1 -1</clus>
</clustering>
</event>
<event>
 9    1  0.4729981E-005  0.2661450E+03  0.7546771E-02  0.1104115E+00
          1   -1    0    0  502    0  0.00000000000E+00  0.00000000000E+00  0.62889655072E+03  0.62889655072E+03  0.00000000000E+00 0. -1.
         -2   -1    0    0    0  501 -0.00000000000E+00 -0.00000000000E+00 -0.40428400402E+03  0.40428400402E+03  0.00000000000E+00 0.  1.
         23    2    1    2    0    0 -0.53955713945E+02  0.19887521893E+03 -0.31180369446E+03  0.38513926388E+03  0.92995359733E+02 0.  0.
        -24    2    1    2    0    0  0.41819661796E+02 -0.24986844646E+03  0.53290147969E+03  0.59550609729E+03  0.80376614753E+02 0.  0.
         13    1    4    4    0    0  0.38657844285E+02 -0.22594899660E+03  0.40521893016E+03  0.46556391542E+03  0.00000000000E+00 0. -1.
        -14    1    4    4    0    0  0.31618175110E+01 -0.23919449868E+02  0.12768254953E+03  0.12994218186E+03  0.00000000000E+00 0.  1.
        -11    1    3    3    0    0 -0.35279843840E+02  0.69968610108E+02 -0.50646690837E+02  0.93302524481E+02  0.00000000000E+00 0. -1.
         11    1    3    3    0    0 -0.18675870105E+02  0.12890660882E+03 -0.26115700362E+03  0.29183673940E+03  0.00000000000E+00 0.  1.
         21    1    1    2  502  501  0.12136052149E+02  0.50993227531E+02  0.35147614627E+01  0.52535193575E+02  0.00000000000E+00 0. -1.
<scales pt_clust_5="13000.00000" pt_clust_6="13000.00000" pt_clust_7="13000.00000" pt_clust_8="13000.00000" pt_clust_9="52.41749"></scales>
<clustering>
<clus scale="   52.417">  2  9  1 -1</clus>
<clus scale="   80.377">  5  6 -1 -1</clus>
<clus scale="   92.995">  7  8 -1 -1</clus>
<clus scale="  262.003">  1  5  2 -1</clus>
<clus scale="  262.003">  1  5  2 -1</clus>
</clustering>
</event>
<event>
 9    1  0.3846604E-005  0.9135608E+02  0.7546771E-02  0.1301568E+00
         -2   -1    0    0    0  501 -0.00000000000E+00  0.00000000000E+00  0.72089051177E+02  0.72089051177E+02  0.00000000000E+00 0.  1.
          1   -1    0    0  502    0  0.00000000000E+00 -0.00000000000E+00 -0.21428998695E+03  0.21428998695E+03  0.00000000000E+00 0. -1.
        -24    2    1    2    0    0 -0.34299748409E+02  0.13455487156E+02 -0.35585989410E+00  0.89244548225E+02  0.81283084809E+02 0.  0.
         23    2    1    2    0    0  0.42342242623E+02  0.17009615879E+02 -0.13884918622E+03  0.16548358832E+03  0.77611397024E+02 0.  0.
         13    1    3    3    0    0 -0.51550581929E+02  0.58899686956E+01 -0.25510929458E+02  0.57818351327E+02  0.00000000000E+00 0. -1.
        -14    1    3    3    0    0  0.17250833519E+02  0.75655184604E+01  0.25155069563E+02  0.31426196897E+02  0.00000000000E+00 0.  1.
        -11    1    4    4    0    0  0.15899114532E+02 -0.30332843273E+02 -0.39340982789E+02  0.52159142543E+02  0.00000000000E+00 0. -1.
         11    1    4    4    0    0  0.26443128091E+02  0.47342459152E+02 -0.99508203430E+02  0.11332444578E+03  0.00000000000E+00 0.  1.
         21    1    1    2  502  501 -0.80424942141E+01 -0.30465103035E+02 -0.29958896633E+01  0.31650901582E+02  0.00000000000E+00 0. -1.
<scales pt_clust_5="13000.00000" pt_clust_6="13000.00000" pt_clust_7="13000.00000" pt_clust_8="13000.00000" pt_clust_9="31.50880"></scales>
<clustering>
<clus scale="   31.509">  1  9  2 -1</clus>
<clus scale="   77.611">  7  8 -1 -1</clus>
<clus scale="   81.283">  5  6 -1 -1</clus>
<clus scale="   88.105">  2  7  1 -1</clus>
<clus scale="   88.105">  2  5  1 -1</clus>
</clustering>
</event>
<event>
 9    1  0.3846604E-005  0.1178460E+03  0.7546771E-02  0.1250255E+00
          1   -1    0    0  502    0  0.00000000000E+00  0.00000000000E+00  0.27869687776E+03  0.27869687776E+03  0.00000000000E+00 0. -1.
         -2   -1    0    0    0  501 -0.00000000000E+00 -0.00000000000E+00 -0.71382252627E+02  0.71382252627E+02  0.00000000000E+00 0.  1.
        -24    2    1    2    0    0 -0.66295002116E+02 -0.60671119458E+02  0.91280272471E+02  0.15104905425E+03  0.80048214251E+02 0.  0.
         23    2    1    2    0    0  0.35803262841E+02  0.54730308213E+02  0.12390375199E+03  0.16698375266E+03  0.90852372717E+02 0.  0.
         13    1    3    3    0    0  0.14920818525E+02 -0.26940975512E+02  0.35094104841E+02  0.46690932542E+02  0.00000000000E+00 0. -1.
        -14    1    3    3    0    0 -0.81215820641E+02 -0.33730143946E+02  0.56186167629E+02  0.10435812171E+03  0.00000000000E+00 0.  1.
        -13    1    4    4    0    0  0.49552925511E+02 -0.52101498707E+01  0.46797420934E+02  0.68356687269E+02  0.00000000000E+00 0. -1.
         13    1    4    4    0    0 -0.13749662670E+02  0.59940458084E+02  0.77106331060E+02  0.98627065394E+02  0.00000000000E+00 0.  1.
         21    1    1    2  502  501  0.30491739276E+02  0.59408112449E+01 -0.78693993345E+01  0.32046323474E+02  0.00000000000E+00 0.  1.
<scales pt_clust_5="13000.00000" pt_clust_6="13000.00000" pt_clust_7="13000.00000" pt_clust_8="13000.00000" pt_clust_9="31.06508"></scales>
<clustering>
<clus scale="   31.065">  2  9  1 -1</clus>
<clus scale="   80.048">  5  6 -1 -1</clus>
<clus scale="   90.852">  7  8 -1 -1</clus>
<clus scale="  109.733">  2  5  1 -1</clus>
<clus scale="  117.846">  1  5  2 -1</clus>
</clustering>
</event>
<event>
 9    1  0.3846604E-005  0.1586677E+03  0.7546771E-02  0.1191837E+00
          1   -1    0    0  502    0  0.00000000000E+00  0.00000000000E+00  0.17458256471E+03  0.17458256471E+03  0.00000000000E+00 0. -1.
         -2   -1    0    0    0  501 -0.00000000000E+00 -0.00000000000E+00 -0.48679404193E+03  0.48679404193E+03  0.00000000000E+00 0.  1.
        -24    2    1    2    0    0 -0.94037689163E+02 -0.64350491436E+02 -0.30949361251E+03  0.33896011269E+03  0.78253364667E+02 0.  0.
         23    2    1    2    0    0  0.99392075100E+02  0.89702684281E+02  0.11778209697E+03  0.19916210703E+03  0.88699302988E+02 0.  0.
         13    1    3    3    0    0  0.49372720224E+01 -0.34133555575E+02 -0.68701544887E+02  0.76872482340E+02  0.00000000000E+00 0. -1.
        -14    1    3    3    0    0 -0.98974961185E+02 -0.30216935861E+02 -0.24079206762E+03  0.26208763035E+03  0.00000000000E+00 0.  1.
        -11    1    4    4    0    0  0.78134962190E+02  0.88530519533E+02  0.12917895665E+03  0.17501407957E+03  0.00000000000E+00 0. -1.
         11    1    4    4    0    0  0.21257112909E+02  0.11721647488E+01 -0.11396859688E+02  0.24148027460E+02  0.00000000000E+00 0.  1.
         21    1    1    2  502  501 -0.53543859373E+01 -0.25352192846E+02 -0.12049996168E+03  0.12325438692E+03  0.00000000000E+00 0.  1.
<scales pt_clust_5="13000.00000" pt_clust_6="13000.00000" pt_clust_7="13000.00000" pt_clust_8="13000.00000" pt_clust_9="25.91145"></scales>
<clustering>
<clus scale="   25.911">  2  9  1 -1</clus>
<clus scale="   78.253">  5  6 -1 -1</clus>
<clus scale="   88.699">  7  8 -1 -1</clus>
<clus scale="  153.073">  2  5  1 -1</clus>
<clus scale="  158.668">  1  5  2 -1</clus>
</clustering>
</event>
<event>
 9    1  0.3846604E-005  0.1270572E+03  0.7546771E-02  0.1233212E+00
         -2   -1    0    0    0  501 -0.00000000000E+00  0.00000000000E+00  0.53168619575E+03  0.53168619575E+03  0.00000000000E+00 0.  1.
          1   -1    0    0  502    0  0.00000000000E+00 -0.00000000000E+00 -0.39827412418E+03  0.39827412418E+03  0.00000000000E+00 0. -1.
        -24    2    1    2    0    0 -0.10509552527E+02 -0.13999145650E+02  0.27212287252E+03  0.28627162608E+03  0.87144474175E+02 0.  0.
         23    2    1    2    0    0  0.11732391903E+02  0.89758169755E+02 -0.37446151605E+03  0.39606130292E+03  0.91918173460E+02 0.  0.
         13    1    3    3    0    0 -0.37378413743E+01  0.26067176020E+02  0.26677720539E+02  0.37485595860E+02  0.00000000000E+00 0. -1.
        -14    1    3    3    0    0 -0.67717111525E+01 -0.40066321670E+02  0.24544515198E+03  0.24878603022E+03  0.00000000000E+00 0.  1.
        -11    1    4    4    0    0  0.13245270880E+02  0.16803696499E+02 -0.87090634822E+01  0.23100848544E+02  0.00000000000E+00 0.  1.
         11    1    4    4    0    0 -0.15128789769E+01  0.72954473256E+02 -0.36575245256E+03  0.37296045438E+03  0.00000000000E+00 0. -1.
         21    1    1    2  502  501 -0.12228393761E+01 -0.75759024105E+02  0.23575071510E+03  0.24762739093E+03  0.00000000000E+00 0.  1.
<scales pt_clust_5="13000.00000" pt_clust_6="13000.00000" pt_clust_7="13000.00000" pt_clust_8="13000.00000" pt_clust_9="75.76889"></scales>
<clustering>
<clus scale="   75.769">  1  9  2 -1</clus>
<clus scale="   87.144">  5  6 -1 -1</clus>
<clus scale="   91.918">  7  8 -1 -1</clus>
<clus scale="  123.648">  1  5  2 -1</clus>
<clus scale="  127.057">  2  5  1 -1</clus>
</clustering>
</event>
<event>
 9    1  0.3846604E-005  0.1446565E+03  0.7546771E-02  0.1209265E+00
         -4   -1    0    0    0  501 -0.00000000000E+00  0.00000000000E+00  0.11344447667E+03  0.11344447667E+03  0.00000000000E+00 0.  1.
          3   -1    0    0  502    0  0.00000000000E+00 -0.00000000000E+00 -0.31125883731E+03  0.31125883731E+03  0.00000000000E+00 0. -1.
        -24    2    1    2    0    0 -0.25162896413E+02  0.90393106382E+02 -0.50028345176E+02  0.13256337134E+03  0.79158872292E+02 0.  0.
         23    2    1    2    0    0 -0.39217071566E+02 -0.13682747035E+03 -0.12491846187E+03  0.20953331191E+03  0.89665218096E+02 0.  0.
         11    1    3    3    0    0  0.10296532344E+02  0.34942922223E+02 -0.55641661038E+02  0.66505795499E+02  0.00000000000E+00 0. -1.
        -12    1    3    3    0    0 -0.35459428757E+02  0.55450184158E+02  0.56133158628E+01  0.66057575840E+02  0.00000000000E+00 0.  1.
        -13    1    4    4    0    0 -0.41347989609E+02 -0.82043733073E+02 -0.12447175324E+03  0.15470632739E+03  0.00000000000E+00 0. -1.
         13    1    4    4    0    0  0.21309180431E+01 -0.54783737281E+02 -0.44670863386E+00  0.54826984513E+02  0.00000000000E+00 0.  1.
         21    1    1    2  502  501  0.64379967979E+02  0.46434363972E+02 -0.22867553590E+02  0.82606630737E+02  0.00000000000E+00 0.  1.
<scales pt_clust_5="13000.00000" pt_clust_6="13000.00000" pt_clust_7="13000.00000" pt_clust_8="13000.00000" pt_clust_9="79.37840"></scales>
<clustering>
<clus scale="   79.159">  5  6 -1 -1</clus>
<clus scale="   79.378">  1  9  2 -1</clus>
<clus scale="   89.665">  7  8 -1 -1</clus>
<clus scale="  138.390">  1  5  2 -1</clus>
<clus scale="  144.656">  2  5  1 -1</clus>
</clustering>
</event>
<event>
 9    1  0.3846604E-005  0.9471402E+02  0.7546771E-02  0.1297901E+00
         -4   -1    0    0    0  501 -0.00000000000E+00  0.00000000000E+00  0.44286779600E+03  0.44286779600E+03  0.00000000000E+00 0.  1.
          3   -1    0    0  502    0  0.00000000000E+00 -0.00000000000E+00 -0.54408417462E+02  0.54408417462E+02  0.00000000000E+00 0. -1.
        -24    2    1    2    0    0  0.21366628661E+02 -0.27407465871E+02  0.29355144876E+03  0.30622972593E+03  0.79978059274E+02 0.  0.
         23    2    1    2    0    0  0.36366969311E+02  0.78267682502E+01  0.31041209651E+02  0.10275418893E+03  0.90614854671E+02 0.  0.
         13    1    3    3    0    0 -0.19058321059E+02 -0.33046946541E+02  0.77779956918E+02  0.86631645346E+02  0.00000000000E+00 0. -1.
        -14    1    3    3    0    0  0.40424949721E+02  0.56394806697E+01  0.21577149184E+03  0.21959808058E+03  0.00000000000E+00 0.  1.
        -13    1    4    4    0    0 -0.13009391509E+02  0.33277781198E+02 -0.56591529581E+01  0.36175696276E+02  0.00000000000E+00 0. -1.
         13    1    4    4    0    0  0.49376360820E+02 -0.25451012947E+02  0.36700362609E+02  0.66578492650E+02  0.00000000000E+00 0.  1.
         21    1    1    2  502  501 -0.57733597973E+02  0.19580697621E+02  0.63866720130E+02  0.88292298613E+02  0.00000000000E+00 0. -1.
<scales pt_clust_5="13000.00000" pt_clust_6="13000.00000" pt_clust_7="13000.00000" pt_clust_8="13000.00000" pt_clust_9="60.96369"></scales>
<clustering>
<clus scale="   60.964">  2  9  1 -1</clus>
<clus scale="   79.978">  5  6 -1 -1</clus>
<clus scale="   84.594">  1  5  2 -1</clus>
<clus scale="   90.615">  7  8 -1 -1</clus>
<clus scale="   60.964">  2  5  1 -1</clus>
</clustering>
</event>
<event>
 9    1  0.3846604E-005  0.1404354E+03  0.7546771E-02  0.1215129E+00
          1   -1    0    0  502    0  0.00000000000E+00  0.00000000000E+00  0.10229669115E+03  0.10229669115E+03  0.00000000000E+00 0. -1.
         -2   -1    0    0    0  501 -0.00000000000E+00 -0.00000000000E+00 -0.32976044836E+03  0.32976044836E+03  0.00000000000E+00 0.  1.
        -24    2    1    2    0    0 -0.10711225171E+03  0.37358820458E+01 -0.23019778521E+03  0.26616097818E+03  0.79772518510E+02 0.  0.
         23    2    1    2    0    0  0.10535475663E+03 -0.24575985962E+02  0.14263454426E+02  0.14201465397E+03  0.90890659462E+02 0.  0.
         13    1    3    3    0    0 -0.46797705902E+02  0.20243635769E+02 -0.36736028775E+02  0.62843980436E+02  0.00000000000E+00 0. -1.
        -14    1    3    3    0    0 -0.60314545806E+02 -0.16507753723E+02 -0.19346175643E+03  0.20331699774E+03  0.00000000000E+00 0.  1.
        -11    1    4    4    0    0  0.89182872488E+01  0.26210323410E+02  0.17888707911E+02  0.32962444864E+02  0.00000000000E+00 0.  1.
         11    1    4    4    0    0  0.96436469384E+02 -0.50786309372E+02 -0.36252534855E+01  0.10905220910E+03  0.00000000000E+00 0. -1.
         21    1    1    2  502  501  0.17574950752E+01  0.20840103917E+02 -0.11529426428E+02  0.23881507363E+02  0.00000000000E+00 0. -1.
<scales pt_clust_5="13000.00000" pt_clust_6="13000.00000" pt_clust_7="13000.00000" pt_clust_8="13000.00000" pt_clust_9="20.91408"></scales>
<clustering>
<clus scale="   20.914">  1  9  2 -1</clus>
<clus scale="   79.773">  5  6 -1 -1</clus>
<clus scale="   90.891">  7  8 -1 -1</clus>
<clus scale="  133.509">  2  5  1 -1</clus>
<clus scale="   20.914">  1  5  2 -1</clus>
</clustering>
</event>
<event>
 9    1  0.3846604E-005  0.1191381E+03  0.7546771E-02  0.1246637E+00
          1   -1    0    0  502    0  0.00000000000E+00  0.00000000000E+00  0.42835240129E+03  0.42835240129E+03  0.00000000000E+00 0. -1.
         -2   -1    0    0    0  501 -0.00000000000E+00 -0.00000000000E+00 -0.49841696201E+02  0.49841696201E+02  0.00000000000E+00 0.  1.
        -24    2    1    2    0    0  0.14382660058E+02 -0.71244401280E+02  0.63544657470E+02  0.12734238815E+03  0.83039356356E+02 0.  0.
         23    2    1    2    0    0 -0.15428918506E+02  0.94399348937E+02  0.27434074179E+03  0.30407926305E+03  0.89733310459E+02 0.  0.
         13    1    3    3    0    0  0.19102640839E+02 -0.56980981481E+02 -0.19670717619E+01  0.60129963486E+02  0.00000000000E+00 0. -1.
        -14    1    3    3    0    0 -0.47199807809E+01 -0.14263419799E+02  0.65511729232E+02  0.67212424669E+02  0.00000000000E+00 0.  1.
        -11    1    4    4    0    0  0.57412057510E+01  0.62540950304E+02  0.61754714459E+02  0.88079377077E+02  0.00000000000E+00 0.  1.
         11    1    4    4    0    0 -0.21170124257E+02  0.31858398633E+02  0.21258602733E+03  0.21599988597E+03  0.00000000000E+00 0. -1.
         21    1    1    2  502  501  0.10462584487E+01 -0.23154947657E+02  0.40625305829E+02  0.46772446284E+02  0.00000000000E+00 0. -1.
<scales pt_clust_5="13000.00000" pt_clust_6="13000.00000" pt_clust_7="13000.00000" pt_clust_8="13000.00000" pt_clust_9="23.17857"></scales>
<clustering>
<clus scale="   23.179">  1  9  2 -1</clus>
<clus scale="   83.039">  5  6 -1 -1</clus>
<clus scale="   89.733">  7  8 -1 -1</clus>
<clus scale="  114.181">  2  5  1 -1</clus>
<clus scale="   23.179">  1  5  2 -1</clus>
</clustering>
</event>
<event>
 9    1  0.3846604E-005  0.1300738E+03  0.7546771E-02  0.1236726E+00
         -2   -1    0    0    0  501 -0.00000000000E+00  0.00000000000E+00  0.31459934886E+03  0.31459934886E+03  0.00000000000E+00 0.  1.
          1   -1    0    0  502    0  0.00000000000E+00 -0.00000000000E+00 -0.66379330616E+02  0.66379330616E+02  0.00000000000E+00 0. -1.
        -24    2    1    2    0    0  0.57495272602E+02  0.39700498105E+02  0.13880285334E+03  0.17552006208E+03  0.81604069609E+02 0.  0.
         23    2    1    2    0    0 -0.40250798888E+02 -0.58680782067E+02  0.48947863673E+02  0.13977635613E+03  0.10989984249E+03 0.  0.
         13    1    3    3    0    0  0.40383212926E+02 -0.15180967469E+02  0.91171811699E+02  0.10086409127E+03  0.00000000000E+00 0. -1.
        -14    1    3    3    0    0  0.17112059677E+02  0.54881465575E+02  0.47631041641E+02  0.74655970811E+02  0.00000000000E+00 0.  1.
        -11    1    4    4    0    0  0.28455232810E+02 -0.53510745381E+02  0.33182460151E+02  0.69095410898E+02  0.00000000000E+00 0.  1.
         11    1    4    4    0    0 -0.68706031698E+02 -0.51700366856E+01  0.15765403521E+02  0.70680945234E+02  0.00000000000E+00 0. -1.
         21    1    1    2  502  501 -0.17244473715E+02  0.18980283961E+02  0.60469301233E+02  0.65682261263E+02  0.00000000000E+00 0.  1.
<scales pt_clust_5="13000.00000" pt_clust_6="13000.00000" pt_clust_7="13000.00000" pt_clust_8="13000.00000" pt_clust_9="25.64416"></scales>
<clustering>
<clus scale="   25.644">  1  9  2 -1</clus>
<clus scale="   81.604">  5  6 -1 -1</clus>
<clus scale="  107.240">  1  5  2 -1</clus>
<clus scale="  109.900">  7  8 -1 -1</clus>
<clus scale="  130.074">  2  5  1 -1</clus>
</clustering>
</event>
<event>
 9    1  0.3846604E-005  0.9471272E+02  0.7546771E-02  0.1299780E+00
          1   -1    0    0  502    0  0.00000000000E+00  0.00000000000E+00  0.21981218446E+03  0.21981218446E+03  0.00000000000E+00 0. -1.
         -2   -1    0    0    0  501 -0.00000000000E+00 -0.00000000000E+00 -0.17772522497E+03  0.17772522497E+03  0.00000000000E+00 0.  1.
         23    2    1    2    0    0 -0.47193268967E+01  0.59009385620E+02 -0.92872671253E+02  0.14306638019E+03  0.91314163406E+02 0.  0.
        -24    2    1    2    0    0 -0.27480767423E+02  0.91490757213E+01  0.15557962889E+03  0.17631985362E+03  0.77748129800E+02 0.  0.
         11    1    4    4    0    0  0.43310515902E+00  0.38699893191E+02  0.50309145197E+02  0.63473454322E+02  0.00000000000E+00 0. -1.
        -12    1    4    4    0    0 -0.27913872582E+02 -0.29550817470E+02  0.10527048370E+03  0.11284639929E+03  0.00000000000E+00 0.  1.
        -13    1    3    3    0    0  0.42451919289E+02  0.34592628535E+02 -0.56545667164E+02  0.78716122080E+02  0.00000000000E+00 0. -1.
         13    1    3    3    0    0 -0.47171246186E+02  0.24416757086E+02 -0.36327004089E+02  0.64350258114E+02  0.00000000000E+00 0.  1.
         21    1    1    2  502  501  0.32200094320E+02 -0.68158461341E+02 -0.20619998148E+02  0.78151175617E+02  0.00000000000E+00 0.  1.
<scales pt_clust_5="13000.00000" pt_clust_6="13000.00000" pt_clust_7="13000.00000" pt_clust_8="13000.00000" pt_clust_9="75.38184"></scales>
<clustering>
<clus scale="   75.382">  2  9  1 -1</clus>
<clus scale="   77.748">  5  6 -1 -1</clus>
<clus scale="   81.713">  1  5  2 -1</clus>
<clus scale="   91.314">  7  8 -1 -1</clus>
<clus scale="   81.713">  1  5  2 -1</clus>
</clustering>
</event>
<event>
 9    1  0.3846604E-005  0.1602557E+03  0.7546771E-02  0.1190537E+00
          1   -1    0    0  502    0  0.00000000000E+00  0.00000000000E+00  0.89850058368E+03  0.89850058368E+03  0.00000000000E+00 0. -1.
         -2   -1    0    0    0  501 -0.00000000000E+00 -0.00000000000E+00 -0.45942287450E+02  0.45942287450E+02  0.00000000000E+00 0.  1.
         23    2    1    2    0    0 -0.11730710263E+03  0.77622143734E+02  0.24033555246E+03  0.29354322373E+03  0.92845532446E+02 0.  0.
        -24    2    1    2    0    0  0.12370950044E+03 -0.35315052191E+02  0.57380850369E+03  0.59339717326E+03  0.79453212068E+02 0.  0.
         13    1    4    4    0    0  0.13073975757E+03 -0.38508758519E+02  0.47165883603E+03  0.49095607369E+03  0.00000000000E+00 0. -1.
        -14    1    4    4    0    0 -0.70302571363E+01  0.31937063275E+01  0.10214966767E+03  0.10244109956E+03  0.00000000000E+00 0.  1.
        -13    1    3    3    0    0 -0.69648751576E+02  0.50482845163E+02  0.59549161648E+02  0.10462107295E+03  0.00000000000E+00 0.  1.
         13    1    3    3    0    0 -0.47658351049E+02  0.27139298571E+02  0.18078639081E+03  0.18892215078E+03  0.00000000000E+00 0. -1.
         21    1    1    2  502  501 -0.64023978108E+01 -0.42307091542E+02  0.38414240073E+02  0.57502474146E+02  0.00000000000E+00 0. -1.
<scales pt_clust_5="13000.00000" pt_clust_6="13000.00000" pt_clust_7="13000.00000" pt_clust_8="13000.00000" pt_clust_9="42.78879"></scales>
<clustering>
<clus scale="   42.789">  2  9  1 -1</clus>
<clus scale="   79.453">  5  6 -1 -1</clus>
<clus scale="   92.846">  7  8 -1 -1</clus>
<clus scale="  152.887">  1  5  2 -1</clus>
<clus scale="  152.887">  1  5  2 -1</clus>
</clustering>
</event>
<event>
 9    1  0.3846604E-005  0.2336703E+03  0.7546771E-02  0.1140151E+00
          1   -1    0    0  502    0  0.00000000000E+00  0.00000000000E+00  0.17682273273E+03  0.17682273273E+03  0.00000000000E+00 0. -1.
         -2   -1    0    0    0  501 -0.00000000000E+00 -0.00000000000E+00 -0.57303814204E+03  0.57303814204E+03  0.00000000000E+00 0.  1.
         23    2    1    2    0    0 -0.12448722953E+03 -0.28601368785E+02 -0.13601268094E+03  0.20826191332E+03  0.92511980571E+02 0.  0.
        -24    2    1    2    0    0  0.22268403776E+03 -0.13453559672E+03 -0.87074085915E+02  0.28424743241E+03  0.74341771168E+02 0.  0.
         13    1    4    4    0    0  0.13146928373E+03 -0.77639145571E+02 -0.12060617396E+02  0.15315831019E+03  0.00000000000E+00 0. -1.
        -14    1    4    4    0    0  0.91214754024E+02 -0.56896451144E+02 -0.75013468518E+02  0.13108912222E+03  0.00000000000E+00 0.  1.
        -13    1    3    3    0    0 -0.49801348098E+02 -0.42471658189E+02 -0.10994108584E+03  0.12794943680E+03  0.00000000000E+00 0.  1.
         13    1    3    3    0    0 -0.74685881428E+02  0.13870289405E+02 -0.26071595102E+02  0.80312476515E+02  0.00000000000E+00 0. -1.
         21    1    1    2  502  501 -0.98196808230E+02  0.16313696550E+03 -0.17312864245E+03  0.25735152904E+03  0.00000000000E+00 0. -1.
<scales pt_clust_5="13000.00000" pt_clust_6="13000.00000" pt_clust_7="13000.00000" pt_clust_8="13000.00000" pt_clust_9="221.52905"></scales>
<clustering>
<clus scale="   74.342">  5  6 -1 -1</clus>
<clus scale="   92.512">  7  8 -1 -1</clus>
<clus scale="  157.714">  2  7  1 -1</clus>
<clus scale="  221.529">  2  9  1 -1</clus>
<clus scale="  233.670">  1  5  2 -1</clus>
</clustering>
</event>
<event>
 9    1  0.3846604E-005  0.9680032E+02  0.7546771E-02  0.1288894E+00
         -2   -1    0    0    0  501 -0.00000000000E+00  0.00000000000E+00  0.96599389880E+02  0.96599389880E+02  0.00000000000E+00 0.  1.
          1   -1    0    0  502    0  0.00000000000E+00 -0.00000000000E+00 -0.36686429355E+03  0.36686429355E+03  0.00000000000E+00 0. -1.
        -24    2    1    2    0    0  0.10364156810E+02  0.51938828053E+02 -0.40436455294E+01  0.10234820211E+03  0.87485689113E+02 0.  0.
         23    2    1    2    0    0 -0.15519460298E+02 -0.26860262519E+02 -0.30214090463E+03  0.31700502216E+03  0.90778469221E+02 0.  0.
         11    1    3    3    0    0 -0.27329757719E+02 -0.31276149561E+01 -0.19662464267E+02  0.33812869345E+02  0.00000000000E+00 0. -1.
        -12    1    3    3    0    0  0.37693914529E+02  0.55066443009E+02  0.15618818738E+02  0.68535332763E+02  0.00000000000E+00 0.  1.
        -13    1    4    4    0    0 -0.45309694845E+02 -0.41212663122E+02 -0.22239525819E+03  0.23067531926E+03  0.00000000000E+00 0. -1.
         13    1    4    4    0    0  0.29790234547E+02  0.14352400604E+02 -0.79745646440E+02  0.86329702905E+02  0.00000000000E+00 0.  1.
         21    1    1    2  502  501  0.51553034872E+01 -0.25078565534E+02  0.35919646490E+02  0.44110459160E+02  0.00000000000E+00 0.  1.
<scales pt_clust_5="13000.00000" pt_clust_6="13000.00000" pt_clust_7="13000.00000" pt_clust_8="13000.00000" pt_clust_9="25.60296"></scales>
<clustering>
<clus scale="   25.603">  1  9  2 -1</clus>
<clus scale="   87.486">  5  6 -1 -1</clus>
<clus scale="   90.778">  7  8 -1 -1</clus>
<clus scale="   93.719">  1  5  2 -1</clus>
<clus scale="   96.800">  2  5  1 -1</clus>
</clustering>
</event>
<event>
 9    1  0.3846604E-005  0.1445022E+03  0.7546771E-02  0.1209595E+00
          1   -1    0    0  502    0  0.00000000000E+00  0.00000000000E+00  0.77419491475E+03  0.77419491475E+03  0.00000000000E+00 0. -1.
         -2   -1    0    0    0  501 -0.00000000000E+00 -0.00000000000E+00 -0.57549451910E+02  0.57549451910E+02  0.00000000000E+00 0.  1.
         23    2    1    2    0    0 -0.43461966123E+02  0.10486318635E+03  0.66824891013E+02  0.15970578520E+03  0.90305821610E+02 0.  0.
        -24    2    1    2    0    0  0.23771674316E+02 -0.11042282933E+03  0.62411360269E+03  0.63918336142E+03  0.79241950500E+02 0.  0.
         11    1    4    4    0    0  0.25940135751E+02 -0.12040867963E+03  0.60595798091E+03  0.61834958996E+03  0.00000000000E+00 0. -1.
        -12    1    4    4    0    0 -0.21684614345E+01  0.99858502995E+01  0.18155621782E+02  0.20833771466E+02  0.00000000000E+00 0.  1.
        -13    1    3    3    0    0  0.24899791077E+02  0.12719084165E+02  0.22564730698E+01  0.28051138450E+02  0.00000000000E+00 0.  1.
         13    1    3    3    0    0 -0.68361757199E+02  0.92144102186E+02  0.64568417943E+02  0.13165464675E+03  0.00000000000E+00 0. -1.
         21    1    1    2  502  501  0.19690291806E+02  0.55596429810E+01  0.25706969132E+02  0.32855220033E+02  0.00000000000E+00 0.  1.
<scales pt_clust_5="13000.00000" pt_clust_6="13000.00000" pt_clust_7="13000.00000" pt_clust_8="13000.00000" pt_clust_9="20.46014"></scales>
<clustering>
<clus scale="   20.460">  2  9  1 -1</clus>
<clus scale="   79.242">  5  6 -1 -1</clus>
<clus scale="   90.306">  7  8 -1 -1</clus>
<clus scale="  137.859">  1  5  2 -1</clus>
<clus scale="  137.859">  1  5  2 -1</clus>
</clustering>
</event>
<event>
 9    1  0.3846604E-005  0.1066443E+03  0.7546771E-02  0.1274339E+00
          1   -1    0    0  502    0  0.00000000000E+00  0.00000000000E+00  0.58244176093E+02  0.58244176093E+02  0.00000000000E+00 0. -1.
         -2   -1    0    0    0  501 -0.00000000000E+00 -0.00000000000E+00 -0.60171496514E+03  0.60171496514E+03  0.00000000000E+00 0.  1.
         23    2    1    2    0    0 -0.41036273022E+02  0.19639506449E+02 -0.35605987952E+03  0.37108087662E+03  0.94088752104E+02 0.  0.
        -24    2    1    2    0    0  0.23090961289E+02 -0.46410915008E+02  0.53481651981E+01  0.93443356220E+02  0.77562184250E+02 0.  0.
         13    1    4    4    0    0  0.33273760792E+02 -0.98454044287E+01  0.31889294907E+02  0.47127510812E+02  0.00000000000E+00 0. -1.
        -14    1    4    4    0    0 -0.10182799504E+02 -0.36565510579E+02 -0.26541129709E+02  0.46315845408E+02  0.00000000000E+00 0.  1.
        -11    1    3    3    0    0 -0.98325188096E+00  0.51133004111E+02 -0.21801082792E+03  0.22392916733E+03  0.00000000000E+00 0.  1.
         11    1    3    3    0    0 -0.40053021141E+02 -0.31493497662E+02 -0.13804905160E+03  0.14715170929E+03  0.00000000000E+00 0. -1.
         21    1    1    2  502  501  0.17945311733E+02  0.26771408559E+02 -0.19275907473E+03  0.19543490840E+03  0.00000000000E+00 0.  1.
<scales pt_clust_5="13000.00000" pt_clust_6="13000.00000" pt_clust_7="13000.00000" pt_clust_8="13000.00000" pt_clust_9="32.22953"></scales>
<clustering>
<clus scale="   32.230">  2  9  1 -1</clus>
<clus scale="   77.562">  5  6 -1 -1</clus>
<clus scale="   92.392">  1  5  2 -1</clus>
<clus scale="   94.089">  7  8 -1 -1</clus>
<clus scale="   92.392">  1  5  2 -1</clus>
</clustering>
</event>
<event>
 9    1  0.3846604E-005  0.2151616E+03  0.7546771E-02  0.1165800E+00
         -2   -1    0    0    0  501 -0.00000000000E+00  0.00000000000E+00  0.21538073330E+03  0.21538073330E+03  0.00000000000E+00 0.  1.
          1   -1    0    0  502    0  0.00000000000E+00 -0.00000000000E+00 -0.57826356671E+03  0.57826356671E+03  0.00000000000E+00 0. -1.
         23    2    1    2    0    0 -0.12931206918E+03  0.10309243176E+03  0.29018214725E+02  0.20691735331E+03  0.12092590124E+03 0.  0.
        -24    2    1    2    0    0  0.26617645101E+02  0.69112779475E+02 -0.36873029989E+03  0.38489121377E+03  0.81817706297E+02 0.  0.
         11    1    4    4    0    0  0.42139206670E+02  0.80013075900E+02 -0.28339649197E+03  0.29747500183E+03  0.00000000000E+00 0. -1.
        -12    1    4    4    0    0 -0.15521561569E+02 -0.10900296425E+02 -0.85333807921E+02  0.87416211940E+02  0.00000000000E+00 0.  1.
        -11    1    3    3    0    0 -0.52277505625E+02  0.98362076909E+02  0.56613802834E+02  0.12495262478E+03  0.00000000000E+00 0.  1.
         11    1    3    3    0    0 -0.77034563554E+02  0.47303548530E+01 -0.27595588109E+02  0.81964728524E+02  0.00000000000E+00 0. -1.
         21    1    1    2  502  501  0.10269442408E+03 -0.17220521124E+03 -0.23170748247E+02  0.20183573293E+03  0.00000000000E+00 0. -1.
<scales pt_clust_5="13000.00000" pt_clust_6="13000.00000" pt_clust_7="13000.00000" pt_clust_8="13000.00000" pt_clust_9="177.96468"></scales>
<clustering>
<clus scale="   81.818">  5  6 -1 -1</clus>
<clus scale="  110.359">  2  5  1 -1</clus>
<clus scale="  120.926">  7  8 -1 -1</clus>
<clus scale="  177.965">  2  9  1 -1</clus>
<clus scale="  110.359">  2  5  1 -1</clus>
</clustering>
</event>
<event>
 9    1  0.3846604E-005  0.1735323E+03  0.7546771E-02  0.1176276E+00
         -2   -1    0    0    0  501 -0.00000000000E+00  0.00000000000E+00  0.69274515401E+03  0.69274515401E+03  0.00000000000E+00 0.  1.
          1   -1    0    0  502    0  0.00000000000E+00 -0.00000000000E+00 -0.73697872751E+02  0.73697872751E+02  0.00000000000E+00 0. -1.
        -24    2    1    2    0    0 -0.61309834462E+02  0.12164120576E+03  0.42621610062E+03  0.45443111577E+03  0.79322101683E+02 0.  0.
         23    2    1    2    0    0  0.48680328290E+02 -0.14019721065E+03  0.73867252659E+02  0.19094892778E+03  0.94763335565E+02 0.  0.
         11    1    3    3    0    0 -0.28262996911E+02  0.12133159110E+03  0.33578357606E+03  0.35814907782E+03  0.00000000000E+00 0. -1.
        -12    1    3    3    0    0 -0.33046837551E+02  0.30961465110E+00  0.90432524559E+02  0.96282037948E+02  0.00000000000E+00 0.  1.
        -11    1    4    4    0    0  0.53902252802E+02 -0.51272174075E+02 -0.12846918946E+01  0.74403891866E+02  0.00000000000E+00 0. -1.
         11    1    4    4    0    0 -0.52219245120E+01 -0.88925036573E+02  0.75151944553E+02  0.11654503591E+03  0.00000000000E+00 0.  1.
         21    1    1    2  502  501  0.12629506172E+02  0.18556004892E+02  0.11896392798E+03  0.12106298321E+03  0.00000000000E+00 0. -1.
<scales pt_clust_5="13000.00000" pt_clust_6="13000.00000" pt_clust_7="13000.00000" pt_clust_8="13000.00000" pt_clust_9="22.44615"></scales>
<clustering>
<clus scale="   22.446">  1  9  2 -1</clus>
<clus scale="   79.322">  5  6 -1 -1</clus>
<clus scale="   94.763">  7  8 -1 -1</clus>
<clus scale="  165.606">  1  5  2 -1</clus>
<clus scale="  173.532">  2  5  1 -1</clus>
</clustering>
</event>
<event>
 9    1  0.3846604E-005  0.1411315E+03  0.7546771E-02  0.1214200E+00
          1   -1    0    0  502    0  0.00000000000E+00  0.00000000000E+00  0.33163354668E+03  0.33163354668E+03  0.00000000000E+00 0. -1.
         -2   -1    0    0    0  501 -0.00000000000E+00 -0.00000000000E+00 -0.29614773391E+03  0.29614773391E+03  0.00000000000E+00 0.  1.
        -24    2    1    2    0    0  0.32032430301E+02 -0.10693939393E+03 -0.13943930469E+03  0.19558090345E+03  0.79664669305E+02 0.  0.
         23    2    1    2    0    0  0.29178444763E+01  0.10804069699E+03  0.28425771631E+03  0.31741208617E+03  0.90921268902E+02 0.  0.
         11    1    3    3    0    0  0.54759653586E+02 -0.57051129913E+02 -0.10257106215E+03  0.12951553527E+03  0.00000000000E+00 0. -1.
        -12    1    3    3    0    0 -0.22727223284E+02 -0.49888264014E+02 -0.36868242546E+02  0.66065368182E+02  0.00000000000E+00 0.  1.
        -13    1    4    4    0    0 -0.16281894740E+02  0.78953889167E+02  0.93314810882E+02  0.12331451918E+03  0.00000000000E+00 0.  1.
         13    1    4    4    0    0  0.19199739217E+02  0.29086807825E+02  0.19094290543E+03  0.19409756699E+03  0.00000000000E+00 0. -1.
         21    1    1    2  502  501 -0.34950274777E+02 -0.11013030655E+01 -0.10933259885E+03  0.11478829098E+03  0.00000000000E+00 0.  1.
<scales pt_clust_5="13000.00000" pt_clust_6="13000.00000" pt_clust_7="13000.00000" pt_clust_8="13000.00000" pt_clust_9="34.96762"></scales>
<clustering>
<clus scale="   34.968">  2  9  1 -1</clus>
<clus scale="   79.665">  5  6 -1 -1</clus>
<clus scale="   90.921">  7  8 -1 -1</clus>
<clus scale="  134.156">  2  5  1 -1</clus>
<clus scale="  141.132">  1  5  2 -1</clus>
</clustering>
</event>
<event>
 9    1  0.3846604E-005  0.1220996E+03  0.7546771E-02  0.1248767E+00
         -4   -1    0    0    0  501 -0.00000000000E+00  0.00000000000E+00  0.90360181555E+02  0.90360181555E+02  0.00000000000E+00 0.  1.
          3   -1    0    0  502    0  0.00000000000E+00 -0.00000000000E+00 -0.44968304792E+03  0.44968304792E+03  0.00000000000E+00 0. -1.
        -24    2    1    2    0    0 -0.64040477652E+02  0.57322251974E+02 -0.18840642973E+02  0.11822936974E+03  0.78969555476E+02 0.  0.
         23    2    1    2    0    0  0.17942140841E+02  0.38945488744E+02 -0.28275391997E+03  0.30046687141E+03  0.92151451665E+02 0.  0.
         11    1    3    3    0    0 -0.45894798283E+01  0.36717157357E+02 -0.37417329208E+02  0.52623849104E+02  0.00000000000E+00 0. -1.
        -12    1    3    3    0    0 -0.59450997823E+02  0.20605094617E+02  0.18576686235E+02  0.65605520635E+02  0.00000000000E+00 0.  1.
        -13    1    4    4    0    0 -0.29351833291E+02 -0.11852013308E+02 -0.74290869441E+02  0.80753536265E+02  0.00000000000E+00 0.  1.
         13    1    4    4    0    0  0.47293974132E+02  0.50797502052E+02 -0.20846305053E+03  0.21971333515E+03  0.00000000000E+00 0. -1.
         21    1    1    2  502  501  0.46098336811E+02 -0.96267740718E+02 -0.57728303418E+02  0.12134698832E+03  0.00000000000E+00 0.  1.
<scales pt_clust_5="13000.00000" pt_clust_6="13000.00000" pt_clust_7="13000.00000" pt_clust_8="13000.00000" pt_clust_9="93.12425"></scales>
<clustering>
<clus scale="   78.970">  5  6 -1 -1</clus>
<clus scale="   92.151">  7  8 -1 -1</clus>
<clus scale="  101.639">  2  7  1 -1</clus>
<clus scale="   93.124">  2  9  1 -1</clus>
<clus scale="  101.639">  2  5  1 -1</clus>
</clustering>
</event>
<event>
 9    1  0.3846604E-005  0.1486691E+03  0.7546771E-02  0.1204158E+00
         -2   -1    0    0    0  501 -0.00000000000E+00  0.00000000000E+00  0.31071879227E+02  0.31071879227E+02  0.00000000000E+00 0.  1.
          1   -1    0    0  502    0  0.00000000000E+00 -0.00000000000E+00 -0.93432160885E+03  0.93432160885E+03  0.00000000000E+00 0. -1.
        -24    2    1    2    0    0  0.67458268514E+02  0.79052629290E+02 -0.27938357584E+03  0.30859407128E+03  0.79844738056E+02 0.  0.
         23    2    1    2    0    0 -0.74099131508E+02 -0.10350344269E+03 -0.60588293191E+03  0.62572950198E+03  0.90772454688E+02 0.  0.
         13    1    3    3    0    0  0.68335780214E+02  0.20891699170E+02 -0.17630513281E+03  0.19023601606E+03  0.00000000000E+00 0. -1.
        -14    1    3    3    0    0 -0.87751169977E+00  0.58160930120E+02 -0.10307844303E+03  0.11835805522E+03  0.00000000000E+00 0.  1.
        -11    1    4    4    0    0  0.67134422005E+01 -0.67142782606E+02 -0.24452299554E+03  0.25366260842E+03  0.00000000000E+00 0.  1.
         11    1    4    4    0    0 -0.80812573709E+02 -0.36360660088E+02 -0.36135993637E+03  0.37206689356E+03  0.00000000000E+00 0. -1.
         21    1    1    2  502  501  0.66408629942E+01  0.24450813404E+02 -0.17983221879E+02  0.31069914815E+02  0.00000000000E+00 0.  1.
<scales pt_clust_5="13000.00000" pt_clust_6="13000.00000" pt_clust_7="13000.00000" pt_clust_8="13000.00000" pt_clust_9="25.33660"></scales>
<clustering>
<clus scale="   25.337">  1  9  2 -1</clus>
<clus scale="   79.845">  5  6 -1 -1</clus>
<clus scale="   90.772">  7  8 -1 -1</clus>
<clus scale="  142.261">  1  5  2 -1</clus>
<clus scale="  148.669">  2  5  1 -1</clus>
</clustering>
</event>
<event>
 9    1  0.3846604E-005  0.1583502E+03  0.7546771E-02  0.1192458E+00
         -2   -1    0    0    0  501 -0.00000000000E+00  0.00000000000E+00  0.18711407464E+03  0.18711407464E+03  0.00000000000E+00 0.  1.
          1   -1    0    0  502    0  0.00000000000E+00 -0.00000000000E+00 -0.40637416973E+03  0.40637416973E+03  0.00000000000E+00 0. -1.
        -24    2    1    2    0    0 -0.10780689305E+03 -0.49805591283E+02  0.10245144513E+03  0.17618489277E+03  0.80261414874E+02 0.  0.
         23    2    1    2    0    0  0.10115934711E+03  0.82760316068E+02 -0.34239346331E+03  0.37783253079E+03  0.91878475102E+02 0.  0.
         11    1    3    3    0    0 -0.11783137240E+03 -0.48949441629E+02  0.77513069766E+02  0.14929352344E+03  0.00000000000E+00 0. -1.
        -12    1    3    3    0    0  0.10024479347E+02 -0.85614965404E+00  0.24938375364E+02  0.26891369325E+02  0.00000000000E+00 0.  1.
        -11    1    4    4    0    0  0.40060335249E+02 -0.15558087529E+02 -0.74637319231E+02  0.86125570940E+02  0.00000000000E+00 0.  1.
         11    1    4    4    0    0  0.61099011857E+02  0.98318403597E+02 -0.26775614408E+03  0.29170695985E+03  0.00000000000E+00 0. -1.
         21    1    1    2  502  501  0.66475459455E+01 -0.32954724785E+02  0.20681923082E+02  0.39470820806E+02  0.00000000000E+00 0. -1.
<scales pt_clust_5="13000.00000" pt_clust_6="13000.00000" pt_clust_7="13000.00000" pt_clust_8="13000.00000" pt_clust_9="33.61850"></scales>
<clustering>
<clus scale="   33.619">  1  9  2 -1</clus>
<clus scale="   80.261">  5  6 -1 -1</clus>
<clus scale="   91.878">  7  8 -1 -1</clus>
<clus scale="  151.905">  1  5  2 -1</clus>
<clus scale="  158.350">  2  5  1 -1</clus>
</clustering>
</event>
<event>
 9    1  0.3846604E-005  0.1073549E+03  0.7546771E-02  0.1271130E+00
          1   -1    0    0  502    0  0.00000000000E+00  0.00000000000E+00  0.10381837776E+03  0.10381837776E+03  0.00000000000E+00 0. -1.
         -2   -1    0    0    0  501 -0.00000000000E+00 -0.00000000000E+00 -0.22398112761E+03  0.22398112761E+03  0.00000000000E+00 0.  1.
        -24    2    1    2    0    0 -0.25564688883E+02 -0.67899825505E+02 -0.38063406844E+02  0.11424683080E+03  0.79621453053E+02 0.  0.
         23    2    1    2    0    0 -0.18957062128E+02  0.45869548961E+02  0.13354519933E+02  0.10594710153E+03  0.92644802301E+02 0.  0.
         11    1    3    3    0    0 -0.27652450801E+02 -0.44675830790E+02 -0.61703004059E+02  0.81042264295E+02  0.00000000000E+00 0. -1.
        -12    1    3    3    0    0  0.20877619185E+01 -0.23223994715E+02  0.23639597215E+02  0.33204566506E+02  0.00000000000E+00 0.  1.
        -13    1    4    4    0    0 -0.49739209469E+02  0.53843421749E+02  0.89814576557E+01  0.73849641881E+02  0.00000000000E+00 0.  1.
         13    1    4    4    0    0  0.30782147342E+02 -0.79738727882E+01  0.43730622776E+01  0.32097459649E+02  0.00000000000E+00 0. -1.
         21    1    1    2  502  501  0.44521751011E+02  0.22030276544E+02 -0.95453862938E+02  0.10760557303E+03  0.00000000000E+00 0.  1.
<scales pt_clust_5="13000.00000" pt_clust_6="13000.00000" pt_clust_7="13000.00000" pt_clust_8="13000.00000" pt_clust_9="49.67413"></scales>
<clustering>
<clus scale="   49.674">  2  9  1 -1</clus>
<clus scale="   79.621">  5  6 -1 -1</clus>
<clus scale="   92.645">  7  8 -1 -1</clus>
<clus scale="   96.341">  2  5  1 -1</clus>
<clus scale="  107.355">  1  5  2 -1</clus>
</clustering>
</event>
<event>
 9    1  0.3846604E-005  0.1444990E+03  0.7546771E-02  0.1215410E+00
         -2   -1    0    0    0  501 -0.00000000000E+00  0.00000000000E+00  0.10033239406E+03  0.10033239406E+03  0.00000000000E+00 0.  1.
          1   -1    0    0  502    0  0.00000000000E+00 -0.00000000000E+00 -0.30173134468E+03  0.30173134468E+03  0.00000000000E+00 0. -1.
        -24    2    1    2    0    0 -0.10146241565E+02  0.10837557406E+03 -0.12938089940E+02  0.13597939005E+03  0.80466074067E+02 0.  0.
         23    2    1    2    0    0 -0.15700393703E+02 -0.84316117768E+02 -0.18197969243E+03  0.23018293461E+03  0.11185644752E+03 0.  0.
         13    1    3    3    0    0  0.30731365187E+02  0.79560340171E+02 -0.10111858764E+02  0.85886635875E+02  0.00000000000E+00 0. -1.
        -14    1    3    3    0    0 -0.40877606752E+02  0.28815233886E+02 -0.28262311756E+01  0.50092754170E+02  0.00000000000E+00 0.  1.
        -11    1    4    4    0    0  0.41508554137E+02 -0.82602384834E+01 -0.34217599569E+02  0.54424587520E+02  0.00000000000E+00 0.  1.
         11    1    4    4    0    0 -0.57208947840E+02 -0.76055879285E+02 -0.14776209286E+03  0.17575834709E+03  0.00000000000E+00 0. -1.
         21    1    1    2  502  501  0.25846635268E+02 -0.24059456289E+02 -0.64811682505E+01  0.35901414087E+02  0.00000000000E+00 0.  1.
<scales pt_clust_5="13000.00000" pt_clust_6="13000.00000" pt_clust_7="13000.00000" pt_clust_8="13000.00000" pt_clust_9="35.31156"></scales>
<clustering>
<clus scale="   35.312">  1  9  2 -1</clus>
<clus scale="   80.466">  5  6 -1 -1</clus>
<clus scale="  111.856">  7  8 -1 -1</clus>
<clus scale="  121.831">  1  5  2 -1</clus>
<clus scale="  144.499">  2  5  1 -1</clus>
</clustering>
</event>
<event>
 9    1  0.3846604E-005  0.1484023E+03  0.7546771E-02  0.1204619E+00
         -2   -1    0    0    0  501 -0.00000000000E+00  0.00000000000E+00  0.34999990906E+03  0.34999990906E+03  0.00000000000E+00 0.  1.
          1   -1    0    0  502    0  0.00000000000E+00 -0.00000000000E+00 -0.10092787600E+03  0.10092787600E+03  0.00000000000E+00 0. -1.
        -24    2    1    2    0    0 -0.31140294783E+02 -0.93782640065E+02  0.14337080672E+03  0.19167840047E+03  0.80128143936E+02 0.  0.
         23    2    1    2    0    0  0.16460883553E+02  0.12514741403E+03  0.86391561545E+01  0.15619464366E+03  0.91593098888E+02 0.  0.
         13    1    3    3    0    0  0.12741066864E+02 -0.15559419234E+02 -0.26779325984E+01  0.20287967734E+02  0.00000000000E+00 0. -1.
        -14    1    3    3    0    0 -0.43881361647E+02 -0.78223220831E+02  0.14604873932E+03  0.17139043274E+03  0.00000000000E+00 0.  1.
        -11    1    4    4    0    0  0.33362743025E+02  0.77643016055E+02  0.43352796692E+02  0.94978816298E+02  0.00000000000E+00 0.  1.
         11    1    4    4    0    0 -0.16901859472E+02  0.47504397977E+02 -0.34713640538E+02  0.61215827366E+02  0.00000000000E+00 0. -1.
         21    1    1    2  502  501  0.14679411230E+02 -0.31364773967E+02  0.97062070178E+02  0.10305474093E+03  0.00000000000E+00 0. -1.
<scales pt_clust_5="13000.00000" pt_clust_6="13000.00000" pt_clust_7="13000.00000" pt_clust_8="13000.00000" pt_clust_9="34.62996"></scales>
<clustering>
<clus scale="   34.630">  1  9  2 -1</clus>
<clus scale="   80.128">  5  6 -1 -1</clus>
<clus scale="   91.593">  7  8 -1 -1</clus>
<clus scale="  141.614">  1  5  2 -1</clus>
<clus scale="  148.402">  2  5  1 -1</clus>
</clustering>
</event>
<event>
 9    1  0.3846604E-005  0.1168032E+03  0.7546771E-02  0.1256837E+00
         -2   -1    0    0    0  501 -0.00000000000E+00  0.00000000000E+00  0.37369988581E+03  0.37369988581E+03  0.00000000000E+00 0.  1.
          1   -1    0    0  502    0  0.00000000000E+00 -0.00000000000E+00 -0.22547741808E+03  0.22547741808E+03  0.00000000000E+00 0. -1.
         23    2    1    2    0    0  0.33128434898E+02  0.19178155931E+02  0.82225062328E+02  0.12860561213E+03  0.91176464796E+02 0.  0.
        -24    2    1    2    0    0 -0.10199840922E+02  0.84030912515E+02 -0.17352178420E+03  0.20875634764E+03  0.79398816587E+02 0.  0.
         13    1    4    4    0    0  0.21962810102E+02  0.67619708367E+02 -0.72798582313E+02  0.10175668810E+03  0.00000000000E+00 0. -1.
        -14    1    4    4    0    0 -0.32162651024E+02  0.16411204148E+02 -0.10072320189E+03  0.10699965954E+03  0.00000000000E+00 0.  1.
        -11    1    3    3    0    0  0.61149597168E+02 -0.51405935846E+01  0.45429437654E+02  0.76351376817E+02  0.00000000000E+00 0.  1.
         11    1    3    3    0    0 -0.28021162270E+02  0.24318749516E+02  0.36795624674E+02  0.52254235313E+02  0.00000000000E+00 0. -1.
         21    1    1    2  502  501 -0.22928593975E+02 -0.10320906845E+03  0.23951918960E+03  0.26181534412E+03  0.00000000000E+00 0.  1.
<scales pt_clust_5="13000.00000" pt_clust_6="13000.00000" pt_clust_7="13000.00000" pt_clust_8="13000.00000" pt_clust_9="85.66692"></scales>
<clustering>
<clus scale="   79.399">  5  6 -1 -1</clus>
<clus scale="   91.176">  7  8 -1 -1</clus>
<clus scale="   98.886">  1  7  2 -1</clus>
<clus scale="   85.667">  1  9  2 -1</clus>
<clus scale="  116.803">  2  5  1 -1</clus>
</clustering>
</event>
<event>
 9    1  0.3846604E-005  0.2205759E+03  0.7546771E-02  0.1134397E+00
         -2   -1    0    0    0  501 -0.00000000000E+00  0.00000000000E+00  0.40959193363E+03  0.40959193363E+03  0.00000000000E+00 0.  1.
          1   -1    0    0  502    0  0.00000000000E+00 -0.00000000000E+00 -0.31201071075E+03  0.31201071075E+03  0.00000000000E+00 0. -1.
        -24    2    1    2    0    0 -0.11076052586E+03  0.18516889018E+03  0.10173162777E+03  0.25099968995E+03  0.78077578629E+02 0.  0.
         23    2    1    2    0    0  0.14939413082E+03 -0.13128635711E+03 -0.17962278559E+03  0.28302246720E+03  0.91009109139E+02 0.  0.
         13    1    3    3    0    0 -0.37082464677E+02  0.13397601682E+03  0.51997732962E+02  0.14841983191E+03  0.00000000000E+00 0. -1.
        -14    1    3    3    0    0 -0.73678061186E+02  0.51192873360E+02  0.49733894810E+02  0.10257985804E+03  0.00000000000E+00 0.  1.
        -11    1    4    4    0    0  0.11848579245E+03 -0.50708286777E+02 -0.13186466408E+03  0.18438682977E+03  0.00000000000E+00 0. -1.
         11    1    4    4    0    0  0.30908338376E+02 -0.80578070333E+02 -0.47758121505E+02  0.98635637421E+02  0.00000000000E+00 0.  1.
         21    1    1    2  502  501 -0.38633604961E+02 -0.53882533070E+02  0.17547238070E+03  0.18758048723E+03  0.00000000000E+00 0.  1.
<scales pt_clust_5="13000.00000" pt_clust_6="13000.00000" pt_clust_7="13000.00000" pt_clust_8="13000.00000" pt_clust_9="66.30145"></scales>
<clustering>
<clus scale="   66.301">  1  9  2 -1</clus>
<clus scale="   78.078">  5  6 -1 -1</clus>
<clus scale="   91.009">  7  8 -1 -1</clus>
<clus scale="  215.563">  1  5  2 -1</clus>
<clus scale="  220.576">  2  5  1 -1</clus>
</clustering>
</event>
<event>
 9    1  0.3846604E-005  0.1723219E+03  0.7546771E-02  0.1183487E+00
         -2   -1    0    0    0  501 -0.00000000000E+00  0.00000000000E+00  0.20942549712E+02  0.20942549712E+02  0.00000000000E+00 0.  1.
          1   -1    0    0  502    0  0.00000000000E+00 -0.00000000000E+00 -0.15675988681E+04  0.15675988681E+04  0.00000000000E+00 0. -1.
         23    2    1    2    0    0  0.84337543788E+02 -0.92998674527E+02 -0.61627667700E+03  0.64148355393E+03  0.12626413820E+03 0.  0.
        -24    2    1    2    0    0 -0.93729527587E+02  0.58966108092E+02 -0.65992880260E+03  0.67431241270E+03  0.83240490002E+02 0.  0.
         11    1    4    4    0    0 -0.60176002588E+02 -0.46256741075E+01 -0.20371015616E+03  0.21246264583E+03  0.00000000000E+00 0. -1.
        -12    1    4    4    0    0 -0.33553525000E+02  0.63591782200E+02 -0.45621864644E+03  0.46184976687E+03  0.00000000000E+00 0.  1.
        -13    1    3    3    0    0 -0.25623929063E+02 -0.56747971058E+02 -0.21862472744E+03  0.22731847573E+03  0.00000000000E+00 0.  1.
         13    1    3    3    0    0  0.10996147285E+03 -0.36250703469E+02 -0.39765194956E+03  0.41416507820E+03  0.00000000000E+00 0. -1.
         21    1    1    2  502  501  0.93919837991E+01  0.34032566435E+02 -0.27045083883E+03  0.27274545122E+03  0.00000000000E+00 0.  1.
<scales pt_clust_5="13000.00000" pt_clust_6="13000.00000" pt_clust_7="13000.00000" pt_clust_8="13000.00000" pt_clust_9="35.30474"></scales>
<clustering>
<clus scale="   35.305">  2  9  1 -1</clus>
<clus scale="   83.240">  5  6 -1 -1</clus>
<clus scale="  126.264">  7  8 -1 -1</clus>
<clus scale="  143.809">  2  5  1 -1</clus>
<clus scale="   35.305">  2  5  1 -1</clus>
</clustering>
</event>
<event>
 9    1  0.3846604E-005  0.1023721E+03  0.7546771E-02  0.1278973E+00
         -2   -1    0    0    0  501 -0.00000000000E+00  0.00000000000E+00  0.12658353891E+03  0.12658353891E+03  0.00000000000E+00 0.  1.
          1   -1    0    0  502    0  0.00000000000E+00 -0.00000000000E+00 -0.33575435991E+03  0.33575435991E+03  0.00000000000E+00 0. -1.
        -24    2    1    2    0    0  0.26869180291E+02  0.11092979083E+02  0.31132658586E+02  0.94031449761E+02  0.83831164128E+02 0.  0.
         23    2    1    2    0    0  0.52948801904E+02  0.26499206215E+02 -0.25642094387E+03  0.27861890626E+03  0.91493228791E+02 0.  0.
         13    1    3    3    0    0 -0.14006349136E+02  0.36431710174E+02  0.22859657660E+02  0.45232856097E+02  0.00000000000E+00 0. -1.
        -14    1    3    3    0    0  0.40875529428E+02 -0.25338731091E+02  0.82730009259E+01  0.48798593664E+02  0.00000000000E+00 0.  1.
        -11    1    4    4    0    0  0.49363622258E+01  0.48962621547E+02 -0.75741620426E+02  0.90324410021E+02  0.00000000000E+00 0.  1.
         11    1    4    4    0    0  0.48012439678E+02 -0.22463415332E+02 -0.18067932345E+03  0.18829449624E+03  0.00000000000E+00 0. -1.
         21    1    1    2  502  501 -0.79817982195E+02 -0.37592185299E+02  0.16117464286E+02  0.89687542793E+02  0.00000000000E+00 0.  1.
<scales pt_clust_5="13000.00000" pt_clust_6="13000.00000" pt_clust_7="13000.00000" pt_clust_8="13000.00000" pt_clust_9="88.22745"></scales>
<clustering>
<clus scale="   83.831">  5  6 -1 -1</clus>
<clus scale="   88.227">  1  9  2 -1</clus>
<clus scale="   91.493">  7  8 -1 -1</clus>
<clus scale="   95.586">  1  5  2 -1</clus>
<clus scale="  102.372">  2  5  1 -1</clus>
</clustering>
</event>
<event>
 9    1  0.3846604E-005  0.9152496E+02  0.7546771E-02  0.1306421E+00
         -2   -1    0    0    0  501 -0.00000000000E+00  0.00000000000E+00  0.16145919297E+03  0.16145919297E+03  0.00000000000E+00 0.  1.
          1   -1    0    0  502    0  0.00000000000E+00 -0.00000000000E+00 -0.17303166375E+03  0.17303166375E+03  0.00000000000E+00 0. -1.
         23    2    1    2    0    0 -0.75627583752E+01  0.20021761558E+02  0.95127999093E+02  0.13323580220E+03  0.90798549137E+02 0.  0.
        -24    2    1    2    0    0  0.11752267798E+02  0.36691595223E+01 -0.13927602377E+03  0.16075840722E+03  0.79333953403E+02 0.  0.
         11    1    4    4    0    0  0.26368736865E+02  0.35207810486E+02 -0.61948521387E+02  0.75977098557E+02  0.00000000000E+00 0. -1.
        -12    1    4    4    0    0 -0.14616469067E+02 -0.31538650964E+02 -0.77327502386E+02  0.84781308659E+02  0.00000000000E+00 0.  1.
        -11    1    3    3    0    0  0.25183050171E+02  0.37369749619E+02  0.82645502775E+02  0.94132690026E+02  0.00000000000E+00 0.  1.
         11    1    3    3    0    0 -0.32745808546E+02 -0.17347988061E+02  0.12482496318E+02  0.39103112171E+02  0.00000000000E+00 0. -1.
         21    1    1    2  502  501 -0.41895094231E+01 -0.23690921080E+02  0.32575553898E+02  0.40496647301E+02  0.00000000000E+00 0. -1.
<scales pt_clust_5="13000.00000" pt_clust_6="13000.00000" pt_clust_7="13000.00000" pt_clust_8="13000.00000" pt_clust_9="24.05851"></scales>
<clustering>
<clus scale="   24.059">  1  9  2 -1</clus>
<clus scale="   79.334">  5  6 -1 -1</clus>
<clus scale="   80.164">  2  5  1 -1</clus>
<clus scale="   90.799">  7  8 -1 -1</clus>
<clus scale="   80.164">  2  5  1 -1</clus>
</clustering>
</event>
<event>
 9    1  0.3846604E-005  0.1022645E+03  0.7546771E-02  0.1280645E+00
         -2   -1    0    0    0  501 -0.00000000000E+00  0.00000000000E+00  0.10912275406E+03  0.10912275406E+03  0.00000000000E+00 0.  1.
          1   -1    0    0  502    0  0.00000000000E+00 -0.00000000000E+00 -0.27374702235E+03  0.27374702235E+03  0.00000000000E+00 0. -1.
        -24    2    1    2    0    0 -0.14192658539E+02  0.47703166877E+02  0.43899644680E+02  0.10490281393E+03  0.81242832800E+02 0.  0.
         23    2    1    2    0    0  0.50258531046E+02  0.16965941343E+01 -0.18473980609E+03  0.21234099743E+03  0.91821048030E+02 0.  0.
         13    1    3    3    0    0 -0.32068177078E+02 -0.65706089901E+01 -0.18018757815E+00  0.32734895008E+02  0.00000000000E+00 0. -1.
        -14    1    3    3    0    0  0.17875518539E+02  0.54273775867E+02  0.44079832258E+02  0.72167918924E+02  0.00000000000E+00 0.  1.
        -13    1    4    4    0    0 -0.20666496033E+02 -0.20817892954E+02 -0.65784552935E+02  0.72028439732E+02  0.00000000000E+00 0.  1.
         13    1    4    4    0    0  0.70925027079E+02  0.22514487089E+02 -0.11895525316E+03  0.14031255770E+03  0.00000000000E+00 0. -1.
         21    1    1    2  502  501 -0.36065872507E+02 -0.49399761011E+02 -0.23784106875E+02  0.65625965040E+02  0.00000000000E+00 0. -1.
<scales pt_clust_5="13000.00000" pt_clust_6="13000.00000" pt_clust_7="13000.00000" pt_clust_8="13000.00000" pt_clust_9="61.16440"></scales>
<clustering>
<clus scale="   61.164">  1  9  2 -1</clus>
<clus scale="   81.243">  5  6 -1 -1</clus>
<clus scale="   91.821">  7  8 -1 -1</clus>
<clus scale="   92.883">  1  5  2 -1</clus>
<clus scale="  102.265">  2  5  1 -1</clus>
</clustering>
</event>
<event>
 9    1  0.3846604E-005  0.1133416E+03  0.7546771E-02  0.1258064E+00
          1   -1    0    0  502    0  0.00000000000E+00  0.00000000000E+00  0.34609590586E+03  0.34609590586E+03  0.00000000000E+00 0. -1.
         -2   -1    0    0    0  501 -0.00000000000E+00 -0.00000000000E+00 -0.11018355975E+03  0.11018355975E+03  0.00000000000E+00 0.  1.
         23    2    1    2    0    0  0.15701290382E+01 -0.99495401741E+02  0.99352728263E+01  0.13439084007E+03  0.89779663491E+02 0.  0.
        -24    2    1    2    0    0 -0.71425786595E+01  0.64011630048E+02  0.25554632179E+03  0.27536453816E+03  0.79832331065E+02 0.  0.
         13    1    4    4    0    0 -0.26153532882E+02  0.18829288540E+02  0.19411917133E+03  0.19677602005E+03  0.00000000000E+00 0. -1.
        -14    1    4    4    0    0  0.19010954223E+02  0.45182341509E+02  0.61427150460E+02  0.78588518108E+02  0.00000000000E+00 0.  1.
        -11    1    3    3    0    0  0.38422063921E+02 -0.63616395300E+02 -0.17135243926E+02  0.76268717908E+02  0.00000000000E+00 0.  1.
         11    1    3    3    0    0 -0.36851934883E+02 -0.35879006441E+02  0.27070516752E+02  0.58122122165E+02  0.00000000000E+00 0. -1.
         21    1    1    2  502  501  0.55724496213E+01  0.35483771692E+02 -0.29569248515E+02  0.46524087374E+02  0.00000000000E+00 0. -1.
<scales pt_clust_5="13000.00000" pt_clust_6="13000.00000" pt_clust_7="13000.00000" pt_clust_8="13000.00000" pt_clust_9="35.91866"></scales>
<clustering>
<clus scale="   35.919">  2  9  1 -1</clus>
<clus scale="   79.832">  5  6 -1 -1</clus>
<clus scale="   89.780">  7  8 -1 -1</clus>
<clus scale="  105.637">  1  5  2 -1</clus>
<clus scale="  105.637">  1  5  2 -1</clus>
</clustering>
</event>
<event>
 9    1  0.3846604E-005  0.9969895E+02  0.7546771E-02  0.1285178E+00
          3   -1    0    0  502    0  0.00000000000E+00  0.00000000000E+00  0.35694358979E+03  0.35694358979E+03  0.00000000000E+00 0. -1.
         -4   -1    0    0    0  501 -0.00000000000E+00 -0.00000000000E+00 -0.66374487385E+02  0.66374487385E+02  0.00000000000E+00 0.  1.
         23    2    1    2    0    0 -0.52774810574E+02 -0.70389800458E+01  0.41725154000E+02  0.11176367401E+03  0.88968547711E+02 0.  0.
        -24    2    1    2    0    0  0.38292583762E+02  0.21369822869E+02  0.26825656383E+03  0.28341266215E+03  0.80238156331E+02 0.  0.
         13    1    4    4    0    0  0.13253792994E+01  0.46479376782E+02  0.12625291345E+03  0.13454325420E+03  0.00000000000E+00 0. -1.
        -14    1    4    4    0    0  0.36967204463E+02 -0.25109553913E+02  0.14200365038E+03  0.14886940795E+03  0.00000000000E+00 0.  1.
        -11    1    3    3    0    0 -0.74093442248E+02 -0.12211376980E+02  0.13962492220E+02  0.76380017680E+02  0.00000000000E+00 0.  1.
         11    1    3    3    0    0  0.21318631674E+02  0.51723969337E+01  0.27762661780E+02  0.35383656334E+02  0.00000000000E+00 0. -1.
         21    1    1    2  502  501  0.14482226811E+02 -0.14330842823E+02 -0.19412615421E+02  0.28141741007E+02  0.00000000000E+00 0.  1.
<scales pt_clust_5="13000.00000" pt_clust_6="13000.00000" pt_clust_7="13000.00000" pt_clust_8="13000.00000" pt_clust_9="20.37420"></scales>
<clustering>
<clus scale="   20.374">  2  9  1 -1</clus>
<clus scale="   80.238">  5  6 -1 -1</clus>
<clus scale="   88.969">  7  8 -1 -1</clus>
<clus scale="   91.993">  1  5  2 -1</clus>
<clus scale="   91.993">  1  5  2 -1</clus>
</clustering>
</event>
<event>
 9    1  0.3846604E-005  0.3057490E+03  0.7546771E-02  0.1082906E+00
          1   -1    0    0  502    0  0.00000000000E+00  0.00000000000E+00  0.46769408451E+03  0.46769408451E+03  0.00000000000E+00 0. -1.
         -2   -1    0    0    0  501 -0.00000000000E+00 -0.00000000000E+00 -0.31724198476E+03  0.31724198476E+03  0.00000000000E+00 0.  1.
        -24    2    1    2    0    0 -0.97430581621E+02  0.26817489977E+03  0.25795096683E+02  0.29736945489E+03  0.79703893167E+02 0.  0.
         23    2    1    2    0    0  0.12396005153E+03 -0.26718746095E+03  0.22588150207E+03  0.38291869511E+03  0.94069338367E+02 0.  0.
         11    1    3    3    0    0 -0.54208080468E+02  0.61730533923E+02  0.26902471510E+02  0.86446039700E+02  0.00000000000E+00 0. -1.
        -12    1    3    3    0    0 -0.43222501153E+02  0.20644436585E+03 -0.11073748261E+01  0.21092341519E+03  0.00000000000E+00 0.  1.
        -13    1    4    4    0    0  0.11914368951E+03 -0.23245830466E+03  0.22944855184E+03  0.34767617131E+03  0.00000000000E+00 0. -1.
         13    1    4    4    0    0  0.48163620221E+01 -0.34729156284E+02 -0.35670497687E+01  0.35242523794E+02  0.00000000000E+00 0.  1.
         21    1    1    2  502  501 -0.26529469910E+02 -0.98743882229E+00 -0.10122449901E+03  0.10464791927E+03  0.00000000000E+00 0.  1.
<scales pt_clust_5="13000.00000" pt_clust_6="13000.00000" pt_clust_7="13000.00000" pt_clust_8="13000.00000" pt_clust_9="26.54784"></scales>
<clustering>
<clus scale="   26.548">  2  9  1 -1</clus>
<clus scale="   79.704">  5  6 -1 -1</clus>
<clus scale="   94.069">  7  8 -1 -1</clus>
<clus scale="  301.639">  2  5  1 -1</clus>
<clus scale="  305.749">  1  5  2 -1</clus>
</clustering>
</event>
<event>
 9    1  0.3846604E-005  0.9882515E+02  0.7546771E-02  0.1287847E+00
          1   -1    0    0  502    0  0.00000000000E+00  0.00000000000E+00  0.75960020771E+02  0.75960020771E+02  0.00000000000E+00 0. -1.
         -2   -1    0    0    0  501 -0.00000000000E+00 -0.00000000000E+00 -0.18005947537E+03  0.18005947537E+03  0.00000000000E+00 0.  1.
         23    2    1    2    0    0  0.55220028942E+02 -0.29080445288E+02 -0.66600916842E+02  0.12821668392E+03  0.90049497597E+02 0.  0.
        -24    2    1    2    0    0 -0.26032116225E+02  0.14513401376E+02 -0.11741882240E+02  0.86239146349E+02  0.80068774624E+02 0.  0.
         13    1    4    4    0    0 -0.30643576167E+01 -0.31266006775E+02  0.61000538242E+01  0.32002564334E+02  0.00000000000E+00 0. -1.
        -14    1    4    4    0    0 -0.22967758609E+02  0.45779408151E+02 -0.17841936064E+02  0.54236582015E+02  0.00000000000E+00 0.  1.
        -13    1    3    3    0    0  0.27553154322E+02  0.26246395428E+02 -0.52381373743E+02  0.64744558854E+02  0.00000000000E+00 0.  1.
         13    1    3    3    0    0  0.27666874621E+02 -0.55326840716E+02 -0.14219543099E+02  0.63472125069E+02  0.00000000000E+00 0. -1.
         21    1    1    2  502  501 -0.29187912717E+02  0.14567043912E+02 -0.25756655517E+02  0.41563665869E+02  0.00000000000E+00 0.  1.
<scales pt_clust_5="13000.00000" pt_clust_6="13000.00000" pt_clust_7="13000.00000" pt_clust_8="13000.00000" pt_clust_9="32.62105"></scales>
<clustering>
<clus scale="   32.621">  2  9  1 -1</clus>
<clus scale="   80.069">  5  6 -1 -1</clus>
<clus scale="   89.825">  1  5  2 -1</clus>
<clus scale="   90.049">  7  8 -1 -1</clus>
<clus scale="   89.825">  1  5  2 -1</clus>
</clustering>
</event>
<event>
 9    1  0.3846604E-005  0.1016285E+03  0.7546771E-02  0.1281599E+00
         -4   -1    0    0    0  501 -0.00000000000E+00  0.00000000000E+00  0.19512568932E+03  0.19512568932E+03  0.00000000000E+00 0.  1.
          3   -1    0    0  502    0  0.00000000000E+00 -0.00000000000E+00 -0.19492668085E+03  0.19492668085E+03  0.00000000000E+00 0. -1.
         23    2    1    2    0    0  0.19734512140E+02 -0.56598912983E+02  0.70733260495E+02  0.13048025445E+03  0.91809665838E+02 0.  0.
        -24    2    1    2    0    0 -0.49812604908E+01  0.41328973612E+02 -0.15073215680E+03  0.17661108021E+03  0.82087718602E+02 0.  0.
         13    1    4    4    0    0 -0.11790845400E+02 -0.23791349819E+02 -0.42239104964E+02  0.49891826481E+02  0.00000000000E+00 0. -1.
        -14    1    4    4    0    0  0.68095849089E+01  0.65120323431E+02 -0.10849305183E+03  0.12671925373E+03  0.00000000000E+00 0.  1.
        -11    1    3    3    0    0  0.37860585546E+02 -0.84440057513E+00  0.59890487748E+02  0.70859067683E+02  0.00000000000E+00 0.  1.
         11    1    3    3    0    0 -0.18126073406E+02 -0.55754512408E+02  0.10842772747E+02  0.59621186769E+02  0.00000000000E+00 0. -1.
         21    1    1    2  502  501 -0.14753251649E+02  0.15269939370E+02  0.80197904770E+02  0.82961035506E+02  0.00000000000E+00 0. -1.
<scales pt_clust_5="13000.00000" pt_clust_6="13000.00000" pt_clust_7="13000.00000" pt_clust_8="13000.00000" pt_clust_9="21.23275"></scales>
<clustering>
<clus scale="   21.233">  1  9  2 -1</clus>
<clus scale="   82.088">  5  6 -1 -1</clus>
<clus scale="   91.810">  7  8 -1 -1</clus>
<clus scale="   92.939">  2  5  1 -1</clus>
<clus scale="   92.939">  2  5  1 -1</clus>
</clustering>
</event>
<event>
 9    1  0.3846604E-005  0.1664430E+03  0.7546771E-02  0.1202258E+00
          1   -1    0    0  502    0  0.00000000000E+00  0.00000000000E+00  0.88856926965E+03  0.88856926965E+03  0.00000000000E+00 0. -1.
         -2   -1    0    0    0  501 -0.00000000000E+00 -0.00000000000E+00 -0.54461221384E+02  0.54461221384E+02  0.00000000000E+00 0.  1.
        -24    2    1    2    0    0 -0.13404533806E+03 -0.73114106647E+02  0.38646676414E+03  0.42363961993E+03  0.82462976833E+02 0.  0.
         23    2    1    2    0    0  0.38387795262E+02 -0.33831746189E+02  0.27692198328E+03  0.29638221518E+03  0.92403586385E+02 0.  0.
         11    1    3    3    0    0 -0.35079990440E+02  0.17203759114E+02  0.74668408103E+02  0.84273045664E+02  0.00000000000E+00 0. -1.
        -12    1    3    3    0    0 -0.98965347620E+02 -0.90317865761E+02  0.31179835603E+03  0.33936657427E+03  0.00000000000E+00 0.  1.
        -11    1    4    4    0    0  0.25235768932E+02  0.10130667103E+02  0.16200326751E+02  0.31653199465E+02  0.00000000000E+00 0. -1.
         11    1    4    4    0    0  0.13152026330E+02 -0.43962413292E+02  0.26072165652E+03  0.26472901571E+03  0.00000000000E+00 0.  1.
         21    1    1    2  502  501  0.95657542798E+02  0.10694585284E+03  0.17071930086E+03  0.22300865593E+03  0.00000000000E+00 0. -1.
<scales pt_clust_5="13000.00000" pt_clust_6="13000.00000" pt_clust_7="13000.00000" pt_clust_8="13000.00000" pt_clust_9="144.57910"></scales>
<clustering>
<clus scale="   82.463">  5  6 -1 -1</clus>
<clus scale="   92.404">  7  8 -1 -1</clus>
<clus scale="  105.625">  1  7  2 -1</clus>
<clus scale="  144.579">  2  9  1 -1</clus>
<clus scale="  105.625">  1  5  2 -1</clus>
</clustering>
</event>
<event>
 9    1  0.3846604E-005  0.1283619E+03  0.7546771E-02  0.1232557E+00
          1   -1    0    0  502    0  0.00000000000E+00  0.00000000000E+00  0.71492161642E+02  0.71492161642E+02  0.00000000000E+00 0. -1.
         -2   -1    0    0    0  501 -0.00000000000E+00 -0.00000000000E+00 -0.59217915592E+03  0.59217915592E+03  0.00000000000E+00 0.  1.
         23    2    1    2    0    0 -0.63470760432E+02 -0.83379020946E+02 -0.45995857987E+03  0.48031432107E+03  0.90329138503E+02 0.  0.
        -24    2    1    2    0    0 -0.47385280845E+01  0.51082182700E+02 -0.19271232275E+02  0.97250720587E+02  0.80339773609E+02 0.  0.
         11    1    4    4    0    0  0.31596538563E+02  0.28643425622E+02  0.12019710547E+02  0.44308695785E+02  0.00000000000E+00 0. -1.
        -12    1    4    4    0    0 -0.36335066647E+02  0.22438757079E+02 -0.31290942822E+02  0.52942024803E+02  0.00000000000E+00 0.  1.
        -11    1    3    3    0    0  0.22075666467E+02 -0.16071235380E+02 -0.62186003999E+02  0.67916998977E+02  0.00000000000E+00 0. -1.
         11    1    3    3    0    0 -0.85546426898E+02 -0.67307785566E+02 -0.39777257587E+03  0.41239732209E+03  0.00000000000E+00 0.  1.
         21    1    1    2  502  501  0.68209288516E+02  0.32296838245E+02 -0.41457182137E+02  0.86106275911E+02  0.00000000000E+00 0. -1.
<scales pt_clust_5="13000.00000" pt_clust_6="13000.00000" pt_clust_7="13000.00000" pt_clust_8="13000.00000" pt_clust_9="75.46915"></scales>
<clustering>
<clus scale="   75.469">  1  9  2 -1</clus>
<clus scale="   80.340">  5  6 -1 -1</clus>
<clus scale="   90.329">  7  8 -1 -1</clus>
<clus scale="  121.540">  1  5  2 -1</clus>
<clus scale="   75.469">  1  5  2 -1</clus>
</clustering>
</event>
<event>
 9    1  0.3846604E-005  0.3475873E+03  0.7546771E-02  0.1064018E+00
          1   -1    0    0  502    0  0.00000000000E+00  0.00000000000E+00  0.23235787237E+04  0.23235787237E+04  0.00000000000E+00 0. -1.
         -2   -1    0    0    0  501 -0.00000000000E+00 -0.00000000000E+00 -0.64409504780E+02  0.64409504780E+02  0.00000000000E+00 0.  1.
         23    2    1    2    0    0  0.18214236635E+03  0.28738103378E+03  0.93174874567E+03  0.99616034844E+03  0.91738838902E+02 0.  0.
        -24    2    1    2    0    0 -0.20196261917E+03 -0.25554895885E+03  0.13026392455E+04  0.13468808816E+04  0.10547480964E+03 0.  0.
         11    1    4    4    0    0 -0.10391402043E+03 -0.92821626842E+02  0.74080786397E+03  0.75379723359E+03  0.00000000000E+00 0. -1.
        -12    1    4    4    0    0 -0.98048598734E+02 -0.16272733201E+03  0.56183138155E+03  0.59308364806E+03  0.00000000000E+00 0.  1.
        -13    1    3    3    0    0  0.53943367083E+02  0.84070791391E+02  0.16766694412E+03  0.19516656724E+03  0.00000000000E+00 0.  1.
         13    1    3    3    0    0  0.12819899926E+03  0.20331024239E+03  0.76408180155E+03  0.80099378120E+03  0.00000000000E+00 0. -1.
         21    1    1    2  502  501  0.19820252821E+02 -0.31832074930E+02  0.24781227735E+02  0.44946998391E+02  0.00000000000E+00 0.  1.
<scales pt_clust_5="13000.00000" pt_clust_6="13000.00000" pt_clust_7="13000.00000" pt_clust_8="13000.00000" pt_clust_9="37.49831"></scales>
<clustering>
<clus scale="   37.498">  2  9  1 -1</clus>
<clus scale="   91.739">  7  8 -1 -1</clus>
<clus scale="  105.475">  5  6 -1 -1</clus>
<clus scale="  343.668">  2  7  1 -1</clus>
<clus scale="  347.587">  1  5  2 -1</clus>
</clustering>
</event>
<event>
 9    1  0.3846604E-005  0.2103093E+03  0.7546771E-02  0.1141954E+00
          1   -1    0    0  502    0  0.00000000000E+00  0.00000000000E+00  0.29828035598E+03  0.29828035598E+03  0.00000000000E+00 0. -1.
         -2   -1    0    0    0  501 -0.00000000000E+00 -0.00000000000E+00 -0.36815567313E+03  0.36815567313E+03  0.00000000000E+00 0.  1.
         23    2    1    2    0    0  0.18509649131E+03  0.10049742070E+03 -0.24239909498E+03  0.33402831833E+03  0.91962783403E+02 0.  0.
        -24    2    1    2    0    0 -0.14153426758E+03 -0.12136816648E+03  0.19170324581E+03  0.28043553209E+03  0.84449822195E+02 0.  0.
         11    1    4    4    0    0 -0.47876157062E+02 -0.96583044042E+02  0.10094924490E+03  0.14768602120E+03  0.00000000000E+00 0. -1.
        -12    1    4    4    0    0 -0.93658110520E+02 -0.24785122439E+02  0.90754000907E+02  0.13274951089E+03  0.00000000000E+00 0.  1.
        -13    1    3    3    0    0  0.16396222672E+03  0.49069437592E+02 -0.15779289360E+03  0.23278749702E+03  0.00000000000E+00 0.  1.
         13    1    3    3    0    0  0.21134264589E+02  0.51427983105E+02 -0.84606201389E+02  0.10124082131E+03  0.00000000000E+00 0. -1.
         21    1    1    2  502  501 -0.43562223732E+02  0.20870745784E+02 -0.19179467975E+02  0.51972178691E+02  0.00000000000E+00 0. -1.
<scales pt_clust_5="13000.00000" pt_clust_6="13000.00000" pt_clust_7="13000.00000" pt_clust_8="13000.00000" pt_clust_9="48.30378"></scales>
<clustering>
<clus scale="   48.304">  2  9  1 -1</clus>
<clus scale="   84.450">  5  6 -1 -1</clus>
<clus scale="   91.963">  7  8 -1 -1</clus>
<clus scale="  207.134">  1  5  2 -1</clus>
<clus scale="  207.134">  1  5  2 -1</clus>
</clustering>
</event>
<event>
 9    1  0.3846604E-005  0.1350929E+03  0.7546771E-02  0.1221128E+00
          1   -1    0    0  502    0  0.00000000000E+00  0.00000000000E+00  0.71149573181E+03  0.71149573181E+03  0.00000000000E+00 0. -1.
         -2   -1    0    0    0  501 -0.00000000000E+00 -0.00000000000E+00 -0.36886715450E+02  0.36886715450E+02  0.00000000000E+00 0.  1.
        -24    2    1    2    0    0  0.52354589502E+02  0.10765210687E+03  0.27313336767E+03  0.30971885616E+03  0.83629864111E+02 0.  0.
         23    2    1    2    0    0 -0.21215655611E+02 -0.90635370212E+02  0.36870849075E+03  0.39036359970E+03  0.88164133525E+02 0.  0.
         13    1    3    3    0    0  0.60837119950E+02  0.87333500392E+02  0.26611315781E+03  0.28660863249E+03  0.00000000000E+00 0. -1.
        -14    1    3    3    0    0 -0.84825304473E+01  0.20318606473E+02  0.70202098587E+01  0.23110223674E+02  0.00000000000E+00 0.  1.
        -13    1    4    4    0    0  0.21356952860E+02 -0.12864823658E+02  0.24632545361E+02  0.35048329692E+02  0.00000000000E+00 0.  1.
         13    1    4    4    0    0 -0.42572608471E+02 -0.77770546554E+02  0.34407594539E+03  0.35531527001E+03  0.00000000000E+00 0. -1.
         21    1    1    2  502  501 -0.31138933891E+02 -0.17016736654E+02  0.32767157937E+02  0.48299991402E+02  0.00000000000E+00 0.  1.
<scales pt_clust_5="13000.00000" pt_clust_6="13000.00000" pt_clust_7="13000.00000" pt_clust_8="13000.00000" pt_clust_9="35.48524"></scales>
<clustering>
<clus scale="   35.485">  2  9  1 -1</clus>
<clus scale="   83.630">  5  6 -1 -1</clus>
<clus scale="   88.164">  7  8 -1 -1</clus>
<clus scale="  132.178">  2  5  1 -1</clus>
<clus scale="  135.093">  1  5  2 -1</clus>
</clustering>
</event>
<event>
 9    1  0.3846604E-005  0.1150744E+03  0.7546771E-02  0.1254586E+00
          1   -1    0    0  502    0  0.00000000000E+00  0.00000000000E+00  0.38868621833E+03  0.38868621833E+03  0.00000000000E+00 0. -1.
         -2   -1    0    0    0  501 -0.00000000000E+00 -0.00000000000E+00 -0.53193156583E+02  0.53193156583E+02  0.00000000000E+00 0.  1.
        -24    2    1    2    0    0 -0.80797274803E+01 -0.86588677329E+02  0.11931025611E+03  0.16842348423E+03  0.81047219506E+02 0.  0.
         23    2    1    2    0    0  0.41537960089E+01  0.63369171007E+02  0.22315168149E+03  0.24889731494E+03  0.90112677131E+02 0.  0.
         11    1    3    3    0    0 -0.24927328295E+02 -0.12828709350E+02  0.76537635559E+02  0.81510472557E+02  0.00000000000E+00 0. -1.
        -12    1    3    3    0    0  0.16847600815E+02 -0.73759967979E+02  0.42772620555E+02  0.86913011676E+02  0.00000000000E+00 0.  1.
        -11    1    4    4    0    0 -0.25981529142E+02  0.72629485694E+01  0.14263507678E+02  0.30516191272E+02  0.00000000000E+00 0.  1.
         11    1    4    4    0    0  0.30135325151E+02  0.56106222438E+02  0.20888817381E+03  0.21838112367E+03  0.00000000000E+00 0. -1.
         21    1    1    2  502  501  0.39259314715E+01  0.23219506322E+02 -0.69688758502E+01  0.24558575740E+02  0.00000000000E+00 0.  1.
<scales pt_clust_5="13000.00000" pt_clust_6="13000.00000" pt_clust_7="13000.00000" pt_clust_8="13000.00000" pt_clust_9="23.54906"></scales>
<clustering>
<clus scale="   23.549">  2  9  1 -1</clus>
<clus scale="   81.047">  5  6 -1 -1</clus>
<clus scale="   90.113">  7  8 -1 -1</clus>
<clus scale="  108.122">  2  5  1 -1</clus>
<clus scale="  115.074">  1  5  2 -1</clus>
</clustering>
</event>
<event>
 9    1  0.3846604E-005  0.9574014E+02  0.7546771E-02  0.1296498E+00
         -2   -1    0    0    0  501 -0.00000000000E+00  0.00000000000E+00  0.37950238335E+03  0.37950238335E+03  0.00000000000E+00 0.  1.
          1   -1    0    0  502    0  0.00000000000E+00 -0.00000000000E+00 -0.14260469526E+03  0.14260469526E+03  0.00000000000E+00 0. -1.
         23    2    1    2    0    0  0.51882776457E+02  0.72086865119E+01  0.28480987356E+03  0.30381260080E+03  0.91878423332E+02 0.  0.
        -24    2    1    2    0    0 -0.24650427657E+02 -0.75603287420E+01 -0.11709985039E+03  0.14393953546E+03  0.79632987830E+02 0.  0.
         11    1    4    4    0    0 -0.40858576625E+02  0.18393649609E+02 -0.98288990143E+02  0.10802071659E+03  0.00000000000E+00 0. -1.
        -12    1    4    4    0    0  0.16208148968E+02 -0.25953978351E+02 -0.18810860251E+02  0.35918818865E+02  0.00000000000E+00 0.  1.
        -11    1    3    3    0    0  0.76022692630E+02  0.17222452194E+02  0.23455881482E+03  0.24717180313E+03  0.00000000000E+00 0.  1.
         11    1    3    3    0    0 -0.24139916173E+02 -0.10013765683E+02  0.50251058740E+02  0.56640797668E+02  0.00000000000E+00 0. -1.
         21    1    1    2  502  501 -0.27232348800E+02  0.35164223006E+00  0.69187664934E+02  0.74354942354E+02  0.00000000000E+00 0.  1.
<scales pt_clust_5="13000.00000" pt_clust_6="13000.00000" pt_clust_7="13000.00000" pt_clust_8="13000.00000" pt_clust_9="27.23462"></scales>
<clustering>
<clus scale="   27.235">  1  9  2 -1</clus>
<clus scale="   79.633">  5  6 -1 -1</clus>
<clus scale="   84.059">  2  5  1 -1</clus>
<clus scale="   91.878">  7  8 -1 -1</clus>
<clus scale="   84.059">  2  5  1 -1</clus>
</clustering>
</event>
<event>
 9    1  0.3846604E-005  0.1104770E+03  0.7546771E-02  0.1267713E+00
          1   -1    0    0  502    0  0.00000000000E+00  0.00000000000E+00  0.17858237097E+03  0.17858237097E+03  0.00000000000E+00 0. -1.
         -2   -1    0    0    0  501 -0.00000000000E+00 -0.00000000000E+00 -0.76285317938E+02  0.76285317938E+02  0.00000000000E+00 0.  1.
         23    2    1    2    0    0  0.29699592025E+02 -0.63017213275E+02  0.47659073636E+02  0.12711322156E+03  0.95042879062E+02 0.  0.
        -24    2    1    2    0    0 -0.21730218903E+02  0.42797184632E+02  0.56340702904E+02  0.10595401474E+03  0.75816733046E+02 0.  0.
         11    1    4    4    0    0 -0.27316012705E+02  0.19065844858E+02  0.70348200454E+02  0.77836625681E+02  0.00000000000E+00 0. -1.
        -12    1    4    4    0    0  0.55857938023E+01  0.23731339774E+02 -0.14007497550E+02  0.28117389059E+02  0.00000000000E+00 0.  1.
        -11    1    3    3    0    0  0.28161462335E+02 -0.66913491626E+01 -0.22833985499E+02  0.36867777371E+02  0.00000000000E+00 0.  1.
         11    1    3    3    0    0  0.15381296899E+01 -0.56325864113E+02  0.70493059134E+02  0.90245444190E+02  0.00000000000E+00 0. -1.
         21    1    1    2  502  501 -0.79693731227E+01  0.20220028643E+02 -0.17027235127E+01  0.21800452602E+02  0.00000000000E+00 0.  1.
<scales pt_clust_5="13000.00000" pt_clust_6="13000.00000" pt_clust_7="13000.00000" pt_clust_8="13000.00000" pt_clust_9="21.73386"></scales>
<clustering>
<clus scale="   21.734">  2  9  1 -1</clus>
<clus scale="   75.817">  5  6 -1 -1</clus>
<clus scale="   94.447">  1  5  2 -1</clus>
<clus scale="   95.043">  7  8 -1 -1</clus>
<clus scale="   94.447">  1  5  2 -1</clus>
</clustering>
</event>
<event>
 9    1  0.3846604E-005  0.2701292E+03  0.7546771E-02  0.1101841E+00
          1   -1    0    0  502    0  0.00000000000E+00  0.00000000000E+00  0.28934599441E+03  0.28934599441E+03  0.00000000000E+00 0. -1.
         -2   -1    0    0    0  501 -0.00000000000E+00 -0.00000000000E+00 -0.66967424723E+03  0.66967424723E+03  0.00000000000E+00 0.  1.
        -24    2    1    2    0    0  0.50780973167E+02  0.25103952531E+03 -0.54678163281E+02  0.27398495841E+03  0.80489163202E+02 0.  0.
         23    2    1    2    0    0 -0.22931038819E+03 -0.16878263994E+03  0.55438292247E+01  0.29990107408E+03  0.94016416205E+02 0.  0.
         11    1    3    3    0    0  0.24692182747E+02  0.22928704028E+03 -0.31247644425E+02  0.23272014526E+03  0.00000000000E+00 0. -1.
        -12    1    3    3    0    0  0.26088790420E+02  0.21752485034E+02 -0.23430518855E+02  0.41264813153E+02  0.00000000000E+00 0.  1.
        -11    1    4    4    0    0 -0.93508956105E+02 -0.15504584667E+02 -0.42808460528E+01  0.94882256826E+02  0.00000000000E+00 0. -1.
         11    1    4    4    0    0 -0.13580143209E+03 -0.15327805527E+03  0.98246752774E+01  0.20501881726E+03  0.00000000000E+00 0.  1.
         21    1    1    2  502  501  0.17852941502E+03 -0.82256885373E+02 -0.33119391877E+03  0.38513420914E+03  0.00000000000E+00 0.  1.
<scales pt_clust_5="13000.00000" pt_clust_6="13000.00000" pt_clust_7="13000.00000" pt_clust_8="13000.00000" pt_clust_9="196.56792"></scales>
<clustering>
<clus scale="   80.489">  5  6 -1 -1</clus>
<clus scale="   94.016">  7  8 -1 -1</clus>
<clus scale="  196.568">  2  9  1 -1</clus>
<clus scale="  265.724">  2  5  1 -1</clus>
<clus scale="  270.129">  1  5  2 -1</clus>
</clustering>
</event>
<event>
 9    1  0.3846604E-005  0.1043293E+03  0.7546771E-02  0.1277072E+00
          1   -1    0    0  502    0  0.00000000000E+00  0.00000000000E+00  0.22305104447E+03  0.22305104447E+03  0.00000000000E+00 0. -1.
         -2   -1    0    0    0  501 -0.00000000000E+00 -0.00000000000E+00 -0.89166181519E+02  0.89166181519E+02  0.00000000000E+00 0.  1.
        -24    2    1    2    0    0  0.22743495773E+02 -0.12603302918E+02  0.31011775760E+01  0.81909785143E+02  0.77611118761E+02 0.  0.
         23    2    1    2    0    0 -0.53245022708E+02  0.36757781648E+02  0.15023964507E+03  0.18680667814E+03  0.90214284292E+02 0.  0.
         13    1    3    3    0    0 -0.17211497732E+02  0.17025647614E+02  0.17791182891E+02  0.30043876573E+02  0.00000000000E+00 0. -1.
        -14    1    3    3    0    0  0.39954993505E+02 -0.29628950532E+02 -0.14690005315E+02  0.51865908570E+02  0.00000000000E+00 0.  1.
        -11    1    4    4    0    0 -0.14602815484E+02 -0.29966812829E+02  0.54382388905E+02  0.63786333287E+02  0.00000000000E+00 0.  1.
         11    1    4    4    0    0 -0.38642207224E+02  0.66724594476E+02  0.95857256169E+02  0.12302034485E+03  0.00000000000E+00 0. -1.
         21    1    1    2  502  501  0.30501526934E+02 -0.24154478730E+02 -0.19455959702E+02  0.43500762705E+02  0.00000000000E+00 0.  1.
<scales pt_clust_5="13000.00000" pt_clust_6="13000.00000" pt_clust_7="13000.00000" pt_clust_8="13000.00000" pt_clust_9="38.90735"></scales>
<clustering>
<clus scale="   38.907">  2  9  1 -1</clus>
<clus scale="   77.611">  5  6 -1 -1</clus>
<clus scale="   90.214">  7  8 -1 -1</clus>
<clus scale="   93.645">  2  5  1 -1</clus>
<clus scale="  104.329">  1  5  2 -1</clus>
</clustering>
</event>
<event>
 9    1  0.3846604E-005  0.1216017E+03  0.7546771E-02  0.1243716E+00
          1   -1    0    0  502    0  0.00000000000E+00  0.00000000000E+00  0.56043787070E+03  0.56043787070E+03  0.00000000000E+00 0. -1.
         -2   -1    0    0    0  501 -0.00000000000E+00 -0.00000000000E+00 -0.39575725560E+03  0.39575725560E+03  0.00000000000E+00 0.  1.
        -24    2    1    2    0    0 -0.12521734830E+02 -0.43417513508E+02 -0.14677960500E+03  0.17313945106E+03  0.79944623007E+02 0.  0.
         23    2    1    2    0    0  0.18396535461E+02  0.80589356488E+02  0.53882067320E+03  0.55260169973E+03  0.90597151047E+02 0.  0.
         11    1    3    3    0    0  0.21664620145E+02 -0.27794441581E+01 -0.59622520971E+01  0.22641323414E+02  0.00000000000E+00 0. -1.
        -12    1    3    3    0    0 -0.34186354976E+02 -0.40638069350E+02 -0.14081735290E+03  0.15049812765E+03  0.00000000000E+00 0.  1.
        -13    1    4    4    0    0  0.53988974179E+02  0.61685046488E+02  0.34063788151E+03  0.35036269866E+03  0.00000000000E+00 0. -1.
         13    1    4    4    0    0 -0.35592438718E+02  0.18904310000E+02  0.19818279170E+03  0.20223900107E+03  0.00000000000E+00 0.  1.
         21    1    1    2  502  501 -0.58748006311E+01 -0.37171842980E+02 -0.22736045310E+03  0.23045397551E+03  0.00000000000E+00 0.  1.
<scales pt_clust_5="13000.00000" pt_clust_6="13000.00000" pt_clust_7="13000.00000" pt_clust_8="13000.00000" pt_clust_9="37.63322"></scales>
<clustering>
<clus scale="   37.633">  2  9  1 -1</clus>
<clus scale="   79.945">  5  6 -1 -1</clus>
<clus scale="   90.597">  7  8 -1 -1</clus>
<clus scale="  113.887">  2  5  1 -1</clus>
<clus scale="  121.602">  1  5  2 -1</clus>
</clustering>
</event>
<event>
 9    1  0.3846604E-005  0.1097213E+03  0.7546771E-02  0.1266352E+00
          1   -1    0    0  502    0  0.00000000000E+00  0.00000000000E+00  0.52804483604E+03  0.52804483604E+03  0.00000000000E+00 0. -1.
         -2   -1    0    0    0  501 -0.00000000000E+00 -0.00000000000E+00 -0.70399629242E+02  0.70399629242E+02  0.00000000000E+00 0.  1.
         23    2    1    2    0    0 -0.59817543474E+02 -0.49539514174E+02  0.20967758835E+02  0.12314656659E+03  0.93236945361E+02 0.  0.
        -24    2    1    2    0    0  0.40786290361E+02  0.38048639513E+02  0.44178958555E+03  0.45248643784E+03  0.80341260110E+02 0.  0.
         13    1    4    4    0    0  0.57335112426E+02  0.50719442224E+02  0.32908703832E+03  0.33787283958E+03  0.00000000000E+00 0. -1.
        -14    1    4    4    0    0 -0.16548822065E+02 -0.12670802711E+02  0.11270254724E+03  0.11461359826E+03  0.00000000000E+00 0.  1.
        -11    1    3    3    0    0  0.17754626509E+02 -0.27668423389E+02 -0.13435539518E+02  0.35514534172E+02  0.00000000000E+00 0.  1.
         11    1    3    3    0    0 -0.77572169983E+02 -0.21871090785E+02  0.34403298353E+02  0.87632032417E+02  0.00000000000E+00 0. -1.
         21    1    1    2  502  501  0.19031253113E+02  0.11490874661E+02 -0.51121375893E+01  0.22811460853E+02  0.00000000000E+00 0.  1.
<scales pt_clust_5="13000.00000" pt_clust_6="13000.00000" pt_clust_7="13000.00000" pt_clust_8="13000.00000" pt_clust_9="22.23126"></scales>
<clustering>
<clus scale="   22.231">  2  9  1 -1</clus>
<clus scale="   80.341">  5  6 -1 -1</clus>
<clus scale="   93.237">  7  8 -1 -1</clus>
<clus scale="   98.997">  1  5  2 -1</clus>
<clus scale="   98.997">  1  5  2 -1</clus>
</clustering>
</event>
<event>
 9    1  0.3846604E-005  0.1152745E+03  0.7546771E-02  0.1254709E+00
         -2   -1    0    0    0  501 -0.00000000000E+00  0.00000000000E+00  0.76588297990E+02  0.76588297990E+02  0.00000000000E+00 0.  1.
          1   -1    0    0  502    0  0.00000000000E+00 -0.00000000000E+00 -0.35955178467E+03  0.35955178467E+03  0.00000000000E+00 0. -1.
        -24    2    1    2    0    0  0.72446180686E+02 -0.16883156805E+01 -0.29253073368E+01  0.10857763058E+03  0.80803743317E+02 0.  0.
         23    2    1    2    0    0 -0.65057336538E+02 -0.29696197844E+02 -0.26998780140E+03  0.29378978852E+03  0.91130158177E+02 0.  0.
         11    1    3    3    0    0  0.40805439529E+02 -0.14649360492E+02 -0.39399048641E+02  0.58583040992E+02  0.00000000000E+00 0. -1.
        -12    1    3    3    0    0  0.31640741157E+02  0.12961044812E+02  0.36473741305E+02  0.49994589591E+02  0.00000000000E+00 0.  1.
        -11    1    4    4    0    0  0.42192872085E+01 -0.33448690572E+02 -0.16174592431E+03  0.16522215747E+03  0.00000000000E+00 0.  1.
         11    1    4    4    0    0 -0.69276623747E+02  0.37524927274E+01 -0.10824187708E+03  0.12856763105E+03  0.00000000000E+00 0. -1.
         21    1    1    2  502  501 -0.73888441478E+01  0.31384513525E+02 -0.10050377942E+02  0.33772663558E+02  0.00000000000E+00 0. -1.
<scales pt_clust_5="13000.00000" pt_clust_6="13000.00000" pt_clust_7="13000.00000" pt_clust_8="13000.00000" pt_clust_9="32.24256"></scales>
<clustering>
<clus scale="   32.243">  1  9  2 -1</clus>
<clus scale="   80.804">  5  6 -1 -1</clus>
<clus scale="   91.130">  7  8 -1 -1</clus>
<clus scale="  107.298">  1  5  2 -1</clus>
<clus scale="  115.275">  2  5  1 -1</clus>
</clustering>
</event>
<event>
 9    1  0.3846604E-005  0.3091863E+03  0.7546771E-02  0.1081154E+00
         -2   -1    0    0    0  501 -0.00000000000E+00  0.00000000000E+00  0.11108461234E+03  0.11108461234E+03  0.00000000000E+00 0.  1.
          1   -1    0    0  502    0  0.00000000000E+00 -0.00000000000E+00 -0.17032630105E+04  0.17032630105E+04  0.00000000000E+00 0. -1.
         23    2    1    2    0    0 -0.34171415230E+03 -0.16321651232E+02 -0.29122806775E+03  0.45850226760E+03  0.91518215503E+02 0.  0.
        -24    2    1    2    0    0  0.28550605400E+03  0.29335691801E+00 -0.12232644887E+04  0.12586273192E+04  0.79075447255E+02 0.  0.
         13    1    4    4    0    0  0.26191748208E+03  0.17203614864E+02 -0.11549829335E+04  0.11844333279E+04  0.00000000000E+00 0. -1.
        -14    1    4    4    0    0  0.23588571913E+02 -0.16910257946E+02 -0.68281555227E+02  0.74193991218E+02  0.00000000000E+00 0.  1.
        -11    1    3    3    0    0 -0.17599335673E+03 -0.52173167869E+02 -0.13402553354E+03  0.22728516163E+03  0.00000000000E+00 0.  1.
         11    1    3    3    0    0 -0.16572079557E+03  0.35851516636E+02 -0.15720253421E+03  0.23121710597E+03  0.00000000000E+00 0. -1.
         21    1    1    2  502  501  0.56208098303E+02  0.16028294314E+02 -0.77685841758E+02  0.97218036099E+02  0.00000000000E+00 0. -1.
<scales pt_clust_5="13000.00000" pt_clust_6="13000.00000" pt_clust_7="13000.00000" pt_clust_8="13000.00000" pt_clust_9="58.44875"></scales>
<clustering>
<clus scale="   58.449">  1  9  2 -1</clus>
<clus scale="   79.075">  5  6 -1 -1</clus>
<clus scale="   91.518">  7  8 -1 -1</clus>
<clus scale="  305.734">  2  5  1 -1</clus>
<clus scale="  305.734">  2  5  1 -1</clus>
</clustering>
</event>
<event>
 9    1  0.3846604E-005  0.1111530E+03  0.7546771E-02  0.1263575E+00
         -2   -1    0    0    0  501 -0.00000000000E+00  0.00000000000E+00  0.10264052063E+03  0.10264052063E+03  0.00000000000E+00 0.  1.
          1   -1    0    0  502    0  0.00000000000E+00 -0.00000000000E+00 -0.46232897509E+03  0.46232897509E+03  0.00000000000E+00 0. -1.
        -24    2    1    2    0    0  0.61297108082E+02 -0.54035157528E+02  0.31315492150E+02  0.11670751178E+03  0.77219489444E+02 0.  0.
         23    2    1    2    0    0 -0.52514695747E+02  0.34267358322E+02 -0.40680843805E+03  0.42147245984E+03  0.90630480652E+02 0.  0.
         11    1    3    3    0    0  0.16370480342E+02  0.14112329796E+02 -0.11556676471E+02  0.24509329856E+02  0.00000000000E+00 0. -1.
        -12    1    3    3    0    0  0.44926627740E+02 -0.68147487325E+02  0.42872168621E+02  0.92198181929E+02  0.00000000000E+00 0.  1.
        -13    1    4    4    0    0  0.21524628995E+02 -0.10081681487E+02 -0.79561532057E+02  0.83036060469E+02  0.00000000000E+00 0.  1.
         13    1    4    4    0    0 -0.74039324742E+02  0.44349039810E+02 -0.32724690599E+03  0.33843639937E+03  0.00000000000E+00 0. -1.
         21    1    1    2  502  501 -0.87824123344E+01  0.19767799206E+02  0.15804491434E+02  0.26789524097E+02  0.00000000000E+00 0. -1.
<scales pt_clust_5="13000.00000" pt_clust_6="13000.00000" pt_clust_7="13000.00000" pt_clust_8="13000.00000" pt_clust_9="21.63092"></scales>
<clustering>
<clus scale="   21.631">  1  9  2 -1</clus>
<clus scale="   77.219">  5  6 -1 -1</clus>
<clus scale="   90.630">  7  8 -1 -1</clus>
<clus scale="  100.518">  1  5  2 -1</clus>
<clus scale="  111.153">  2  5  1 -1</clus>
</clustering>
</event>
<event>
 9    1  0.3846604E-005  0.9844036E+02  0.7546771E-02  0.1287911E+00
         -2   -1    0    0    0  501 -0.00000000000E+00  0.00000000000E+00  0.14503285889E+03  0.14503285889E+03  0.00000000000E+00 0.  1.
          1   -1    0    0  502    0  0.00000000000E+00 -0.00000000000E+00 -0.25386860637E+03  0.25386860637E+03  0.00000000000E+00 0. -1.
         23    2    1    2    0    0 -0.10147910976E+02 -0.61187232631E+01  0.90492189492E+02  0.12723551382E+03  0.88654502118E+02 0.  0.
        -24    2    1    2    0    0  0.45354144327E+02  0.45287294255E+01 -0.21438723208E+03  0.23334116421E+03  0.80054393004E+02 0.  0.
         11    1    4    4    0    0  0.43263302831E+02  0.29350937159E+02 -0.73077933348E+02  0.89853075776E+02  0.00000000000E+00 0. -1.
        -12    1    4    4    0    0  0.20908414960E+01 -0.24822207734E+02 -0.14130929873E+03  0.14348808844E+03  0.00000000000E+00 0.  1.
        -13    1    3    3    0    0 -0.13090932769E+02 -0.44607620825E+02  0.68570188309E+02  0.82843726867E+02  0.00000000000E+00 0.  1.
         13    1    3    3    0    0  0.29430217937E+01  0.38488897562E+02  0.21922001182E+02  0.44391786950E+02  0.00000000000E+00 0. -1.
         21    1    1    2  502  501 -0.35206233351E+02  0.15899938376E+01  0.15059295101E+02  0.38324787229E+02  0.00000000000E+00 0.  1.
<scales pt_clust_5="13000.00000" pt_clust_6="13000.00000" pt_clust_7="13000.00000" pt_clust_8="13000.00000" pt_clust_9="35.24212"></scales>
<clustering>
<clus scale="   35.242">  1  9  2 -1</clus>
<clus scale="   80.054">  5  6 -1 -1</clus>
<clus scale="   88.655">  7  8 -1 -1</clus>
<clus scale="   90.772">  2  5  1 -1</clus>
<clus scale="   90.772">  2  5  1 -1</clus>
</clustering>
</event>
<event>
 9    1  0.3846604E-005  0.1009102E+03  0.7546771E-02  0.1289679E+00
         -2   -1    0    0    0  501 -0.00000000000E+00  0.00000000000E+00  0.98528233923E+02  0.98528233923E+02  0.00000000000E+00 0.  1.
          1   -1    0    0  502    0  0.00000000000E+00 -0.00000000000E+00 -0.13371846074E+03  0.13371846074E+03  0.00000000000E+00 0. -1.
         23    2    1    2    0    0  0.13720494019E+02 -0.36210991461E+01  0.28841112027E+02  0.10486807707E+03  0.99820536613E+02 0.  0.
        -24    2    1    2    0    0 -0.20918101089E+01  0.26020726650E+02 -0.54552941133E+02  0.10041921061E+03  0.80165707058E+02 0.  0.
         11    1    4    4    0    0 -0.31533253958E+02 -0.13936163268E+02 -0.25794973244E+02  0.43057442986E+02  0.00000000000E+00 0. -1.
        -12    1    4    4    0    0  0.29441443849E+02  0.39956889918E+02 -0.28757967889E+02  0.57361767624E+02  0.00000000000E+00 0.  1.
        -13    1    3    3    0    0  0.50738576328E+02 -0.12275570591E+02  0.39411997999E+02  0.65409466802E+02  0.00000000000E+00 0.  1.
         13    1    3    3    0    0 -0.37018082309E+02  0.86544714452E+01 -0.10570885972E+02  0.39458610265E+02  0.00000000000E+00 0. -1.
         21    1    1    2  502  501 -0.11628683910E+02 -0.22399627504E+02 -0.94783977084E+01  0.26959406984E+02  0.00000000000E+00 0. -1.
<scales pt_clust_5="13000.00000" pt_clust_6="13000.00000" pt_clust_7="13000.00000" pt_clust_8="13000.00000" pt_clust_9="25.23826"></scales>
<clustering>
<clus scale="   25.238">  2  9  1 -1</clus>
<clus scale="   80.166">  5  6 -1 -1</clus>
<clus scale="   81.519">  2  5  1 -1</clus>
<clus scale="   99.821">  7  8 -1 -1</clus>
<clus scale="   25.238">  2  5  1 -1</clus>
</clustering>
</event>
<event>
 9    1  0.3846604E-005  0.1176940E+03  0.7546771E-02  0.1250235E+00
          1   -1    0    0  502    0  0.00000000000E+00  0.00000000000E+00  0.76980599658E+02  0.76980599658E+02  0.00000000000E+00 0. -1.
         -2   -1    0    0    0  501 -0.00000000000E+00 -0.00000000000E+00 -0.24433039809E+03  0.24433039809E+03  0.00000000000E+00 0.  1.
        -24    2    1    2    0    0 -0.68117794149E+02  0.37223582695E+02 -0.12553156022E+03  0.16837723510E+03  0.81037594360E+02 0.  0.
         23    2    1    2    0    0  0.52414911017E+02 -0.52711694020E+02 -0.15337403139E+02  0.11847078603E+03  0.90962880479E+02 0.  0.
         13    1    3    3    0    0  0.88486505150E+01  0.27539145703E+02 -0.60851371848E+02  0.67376499002E+02  0.00000000000E+00 0. -1.
        -14    1    3    3    0    0 -0.76966444664E+02  0.96844369916E+01 -0.64680188369E+02  0.10100073609E+03  0.00000000000E+00 0.  1.
        -13    1    4    4    0    0  0.41770553241E+02 -0.26953844889E+02 -0.52314166872E+02  0.72166896343E+02  0.00000000000E+00 0.  1.
         13    1    4    4    0    0  0.10644357776E+02 -0.25757849131E+02  0.36976763733E+02  0.46303889690E+02  0.00000000000E+00 0. -1.
         21    1    1    2  502  501  0.15702883132E+02  0.15488111325E+02 -0.26480835072E+02  0.34462976615E+02  0.00000000000E+00 0. -1.
<scales pt_clust_5="13000.00000" pt_clust_6="13000.00000" pt_clust_7="13000.00000" pt_clust_8="13000.00000" pt_clust_9="22.05589"></scales>
<clustering>
<clus scale="   22.056">  2  9  1 -1</clus>
<clus scale="   81.038">  5  6 -1 -1</clus>
<clus scale="   90.963">  7  8 -1 -1</clus>
<clus scale="  110.203">  2  5  1 -1</clus>
<clus scale="  117.694">  1  5  2 -1</clus>
</clustering>
</event>
<event>
 9    1  0.3846604E-005  0.1064433E+03  0.7546771E-02  0.1268955E+00
         -2   -1    0    0    0  501 -0.00000000000E+00  0.00000000000E+00  0.33100703850E+03  0.33100703850E+03  0.00000000000E+00 0.  1.
          1   -1    0    0  502    0  0.00000000000E+00 -0.00000000000E+00 -0.87122150734E+02  0.87122150734E+02  0.00000000000E+00 0. -1.
         23    2    1    2    0    0  0.36102286896E+02  0.65009421771E+02  0.12115709149E+03  0.16930159589E+03  0.91947754273E+02 0.  0.
        -24    2    1    2    0    0 -0.26961798010E+02 -0.27730083259E+02 -0.16388805113E+02  0.10451291495E+03  0.95699845292E+02 0.  0.
         11    1    4    4    0    0 -0.12247198452E+02  0.23167859323E+02 -0.38935219723E+02  0.46932876647E+02  0.00000000000E+00 0. -1.
        -12    1    4    4    0    0 -0.14714599558E+02 -0.50897942582E+02  0.22546414610E+02  0.57580038303E+02  0.00000000000E+00 0.  1.
        -13    1    3    3    0    0  0.99901089083E+01  0.81996959214E+02  0.10675675449E+03  0.13498262194E+03  0.00000000000E+00 0.  1.
         13    1    3    3    0    0  0.26112177987E+02 -0.16987537443E+02  0.14400337000E+02  0.34318973955E+02  0.00000000000E+00 0. -1.
         21    1    1    2  502  501 -0.91404888859E+01 -0.37279338512E+02  0.13911660139E+03  0.14431467839E+03  0.00000000000E+00 0. -1.
<scales pt_clust_5="13000.00000" pt_clust_6="13000.00000" pt_clust_7="13000.00000" pt_clust_8="13000.00000" pt_clust_9="38.38356"></scales>
<clustering>
<clus scale="   38.384">  1  9  2 -1</clus>
<clus scale="   91.948">  7  8 -1 -1</clus>
<clus scale="   95.700">  5  6 -1 -1</clus>
<clus scale="  103.083">  1  7  2 -1</clus>
<clus scale="  106.443">  2  5  1 -1</clus>
</clustering>
</event>
<event>
 9    1  0.3846604E-005  0.2114390E+03  0.7546771E-02  0.1164833E+00
         -2   -1    0    0    0  501 -0.00000000000E+00  0.00000000000E+00  0.54114666723E+02  0.54114666723E+02  0.00000000000E+00 0.  1.
          1   -1    0    0  502    0  0.00000000000E+00 -0.00000000000E+00 -0.17295605093E+04  0.17295605093E+04  0.00000000000E+00 0. -1.
        -24    2    1    2    0    0  0.37670982757E+02  0.79046636660E+02 -0.11861732256E+03  0.16795875896E+03  0.80452481567E+02 0.  0.
         23    2    1    2    0    0  0.13715448986E+03 -0.15617695832E+03 -0.62415249532E+03  0.66366725896E+03  0.87665824618E+02 0.  0.
         13    1    3    3    0    0 -0.15284537129E+02  0.22685411409E+02 -0.73497809258E+02  0.78423038271E+02  0.00000000000E+00 0. -1.
        -14    1    3    3    0    0  0.52955519886E+02  0.56361225252E+02 -0.45119513303E+02  0.89535720687E+02  0.00000000000E+00 0.  1.
        -13    1    4    4    0    0  0.23403588207E+02  0.72679195657E+01 -0.10010862700E+03  0.10306448368E+03  0.00000000000E+00 0.  1.
         13    1    4    4    0    0  0.11375090166E+03 -0.16344487789E+03 -0.52404386832E+03  0.56060277528E+03  0.00000000000E+00 0. -1.
         21    1    1    2  502  501 -0.17482547262E+03  0.77130321661E+02 -0.93267602474E+03  0.95204915814E+03  0.00000000000E+00 0.  1.
<scales pt_clust_5="13000.00000" pt_clust_6="13000.00000" pt_clust_7="13000.00000" pt_clust_8="13000.00000" pt_clust_9="192.40885"></scales>
<clustering>
<clus scale="   80.452">  5  6 -1 -1</clus>
<clus scale="   87.666">  7  8 -1 -1</clus>
<clus scale="  118.912">  1  5  2 -1</clus>
<clus scale="  192.409">  2  9  1 -1</clus>
<clus scale="  192.409">  2  5  1 -1</clus>
</clustering>
</event>
<event>
 9    1  0.3846604E-005  0.2853413E+03  0.7546771E-02  0.1094055E+00
          1   -1    0    0  502    0  0.00000000000E+00  0.00000000000E+00  0.18129426795E+04  0.18129426795E+04  0.00000000000E+00 0. -1.
         -2   -1    0    0    0  501 -0.00000000000E+00 -0.00000000000E+00 -0.68762413395E+02  0.68762413395E+02  0.00000000000E+00 0.  1.
        -24    2    1    2    0    0  0.23861984479E+03 -0.56151933833E+02  0.52526737975E+03  0.58533847218E+03  0.81380813314E+02 0.  0.
         23    2    1    2    0    0 -0.26840031996E+03  0.58980612136E+02  0.12295973316E+04  0.12646013017E+04  0.10857904886E+03 0.  0.
         11    1    3    3    0    0  0.19106985134E+03 -0.74106528206E+02  0.45058325745E+03  0.49499973485E+03  0.00000000000E+00 0. -1.
        -12    1    3    3    0    0  0.47549993452E+02  0.17954594373E+02  0.74684122303E+02  0.90338737320E+02  0.00000000000E+00 0.  1.
        -13    1    4    4    0    0 -0.21874800463E+03  0.21651989555E+02  0.10879027704E+04  0.11098882539E+04  0.00000000000E+00 0. -1.
         13    1    4    4    0    0 -0.49652315329E+02  0.37328622582E+02  0.14169456119E+03  0.15471304777E+03  0.00000000000E+00 0.  1.
         21    1    1    2  502  501  0.29780475170E+02 -0.28286783037E+01 -0.10684445297E+02  0.31765319038E+02  0.00000000000E+00 0. -1.
<scales pt_clust_5="13000.00000" pt_clust_6="13000.00000" pt_clust_7="13000.00000" pt_clust_8="13000.00000" pt_clust_9="29.91451"></scales>
<clustering>
<clus scale="   29.915">  2  9  1 -1</clus>
<clus scale="   81.381">  5  6 -1 -1</clus>
<clus scale="  108.579">  7  8 -1 -1</clus>
<clus scale="  276.140">  2  5  1 -1</clus>
<clus scale="  285.341">  1  5  2 -1</clus>
</clustering>
</event>
<event>
 9    1  0.3846604E-005  0.9682730E+02  0.7546771E-02  0.1289474E+00
         -2   -1    0    0    0  501 -0.00000000000E+00  0.00000000000E+00  0.14155934842E+03  0.14155934842E+03  0.00000000000E+00 0.  1.
          1   -1    0    0  502    0  0.00000000000E+00 -0.00000000000E+00 -0.30160518699E+03  0.30160518699E+03  0.00000000000E+00 0. -1.
         23    2    1    2    0    0 -0.41561713539E+02  0.14689789148E+01  0.96172379023E+01  0.10107908744E+03  0.91623996427E+02 0.  0.
        -24    2    1    2    0    0 -0.13787381479E+02 -0.35733597606E+02 -0.23272625203E+03  0.25145129036E+03  0.87173741184E+02 0.  0.
         11    1    4    4    0    0  0.29389850679E+02 -0.37460856515E+02 -0.15919491303E+03  0.16616287018E+03  0.00000000000E+00 0. -1.
        -12    1    4    4    0    0 -0.43177232158E+02  0.17272589092E+01 -0.73531339010E+02  0.85288420179E+02  0.00000000000E+00 0.  1.
        -11    1    3    3    0    0 -0.61056430177E+02 -0.23328439138E+02  0.19181922452E+02  0.68117911650E+02  0.00000000000E+00 0. -1.
         11    1    3    3    0    0  0.19494716638E+02  0.24797418052E+02 -0.95646845497E+01  0.32961175789E+02  0.00000000000E+00 0.  1.
         21    1    1    2  502  501  0.55349095018E+02  0.34264618691E+02  0.63063175566E+02  0.90634157611E+02  0.00000000000E+00 0.  1.
<scales pt_clust_5="13000.00000" pt_clust_6="13000.00000" pt_clust_7="13000.00000" pt_clust_8="13000.00000" pt_clust_9="65.09675"></scales>
<clustering>
<clus scale="   65.097">  1  9  2 -1</clus>
<clus scale="   87.174">  5  6 -1 -1</clus>
<clus scale="   91.624">  7  8 -1 -1</clus>
<clus scale="   92.627">  2  5  1 -1</clus>
<clus scale="   92.627">  2  5  1 -1</clus>
</clustering>
</event>
<event>
 9    1  0.3846604E-005  0.1063891E+03  0.7546771E-02  0.1272619E+00
          1   -1    0    0  502    0  0.00000000000E+00  0.00000000000E+00  0.10520034968E+03  0.10520034968E+03  0.00000000000E+00 0. -1.
         -2   -1    0    0    0  501 -0.00000000000E+00 -0.00000000000E+00 -0.51569607845E+03  0.51569607845E+03  0.00000000000E+00 0.  1.
         23    2    1    2    0    0  0.10672865452E+03 -0.12371592127E+02 -0.31235468872E+03  0.34239795637E+03  0.90149026457E+02 0.  0.
        -24    2    1    2    0    0 -0.39426564827E+02 -0.38443336573E+02  0.50274698345E+02  0.10779709607E+03  0.77848085959E+02 0.  0.
         13    1    4    4    0    0 -0.50211553548E+02 -0.11264132273E+02  0.58015332769E+02  0.77549078794E+02  0.00000000000E+00 0. -1.
        -14    1    4    4    0    0  0.10784988722E+02 -0.27179204300E+02 -0.77406344232E+01  0.30248017280E+02  0.00000000000E+00 0.  1.
        -13    1    3    3    0    0  0.14693249158E+02  0.34099250887E+02 -0.80131697819E+02  0.88316133731E+02  0.00000000000E+00 0. -1.
         13    1    3    3    0    0  0.92035405367E+02 -0.46470843014E+02 -0.23222299090E+03  0.25408182264E+03  0.00000000000E+00 0.  1.
         21    1    1    2  502  501 -0.67302089698E+02  0.50814928700E+02 -0.14841573840E+03  0.17070137569E+03  0.00000000000E+00 0. -1.
<scales pt_clust_5="13000.00000" pt_clust_6="13000.00000" pt_clust_7="13000.00000" pt_clust_8="13000.00000" pt_clust_9="84.33106"></scales>
<clustering>
<clus scale="   77.848">  5  6 -1 -1</clus>
<clus scale="   84.331">  2  9  1 -1</clus>
<clus scale="   90.149">  7  8 -1 -1</clus>
<clus scale="   96.188">  1  5  2 -1</clus>
<clus scale="   96.188">  1  5  2 -1</clus>
</clustering>
</event>
<event>
 9    1  0.4644506E-005  0.2228318E+03  0.7546771E-02  0.1132307E+00
         -2   -1    0    0    0  501 -0.00000000000E+00  0.00000000000E+00  0.31859351476E+03  0.31859351476E+03  0.00000000000E+00 0.  1.
          1   -1    0    0  502    0  0.00000000000E+00 -0.00000000000E+00 -0.11243853730E+04  0.11243853730E+04  0.00000000000E+00 0. -1.
         23    2    1    2    0    0 -0.12600108952E+03  0.18534198951E+03  0.24801756108E+03  0.34549101918E+03  0.87312118818E+02 0.  0.
        -24    2    1    2    0    0  0.12246984673E+03 -0.16351578152E+03 -0.10527418533E+04  0.10753520892E+04  0.79877606642E+02 0.  0.
         13    1    4    4    0    0  0.40796435318E+02 -0.73140854133E+02 -0.25596605962E+03  0.26931869106E+03  0.00000000000E+00 0. -1.
        -14    1    4    4    0    0  0.81673411411E+02 -0.90374927385E+02 -0.79677579365E+03  0.80603339817E+03  0.00000000000E+00 0.  1.
        -13    1    3    3    0    0 -0.39237474815E+02  0.32539663436E+02  0.14028932500E+02  0.52869840869E+02  0.00000000000E+00 0. -1.
         13    1    3    3    0    0 -0.86763614707E+02  0.15280232607E+03  0.23398862858E+03  0.29262117831E+03  0.00000000000E+00 0.  1.
         21    1    1    2  502  501  0.35312427938E+01 -0.21826207993E+02 -0.10675660880E+01  0.22135779371E+02  0.00000000000E+00 0. -1.
<scales pt_clust_5="13000.00000" pt_clust_6="13000.00000" pt_clust_7="13000.00000" pt_clust_8="13000.00000" pt_clust_9="22.11002"></scales>
<clustering>
<clus scale="   22.110">  1  9  2 -1</clus>
<clus scale="   79.878">  5  6 -1 -1</clus>
<clus scale="   87.312">  7  8 -1 -1</clus>
<clus scale="  220.025">  2  5  1 -1</clus>
<clus scale="  220.025">  2  5  1 -1</clus>
</clustering>
</event>
<event>
 9    1  0.3846604E-005  0.1871817E+03  0.7546771E-02  0.1162498E+00
          1   -1    0    0  502    0  0.00000000000E+00  0.00000000000E+00  0.13098941425E+04  0.13098941425E+04  0.00000000000E+00 0. -1.
         -2   -1    0    0    0  501 -0.00000000000E+00 -0.00000000000E+00 -0.54237531649E+02  0.54237531649E+02  0.00000000000E+00 0.  1.
         23    2    1    2    0    0 -0.74943511138E+02  0.13596459341E+03  0.17332877864E+03  0.24982480759E+03  0.90921221159E+02 0.  0.
        -24    2    1    2    0    0  0.38196747090E+02 -0.16197016100E+03  0.10256575832E+04  0.10419319307E+04  0.77170886612E+02 0.  0.
         13    1    4    4    0    0  0.17720175016E+02 -0.16043919423E+03  0.86109541453E+03  0.87609363231E+03  0.00000000000E+00 0. -1.
        -14    1    4    4    0    0  0.20476572074E+02 -0.15309667693E+01  0.16456216870E+03  0.16583829844E+03  0.00000000000E+00 0.  1.
        -13    1    3    3    0    0 -0.10717137429E+02  0.10893180388E+03  0.11702989170E+03  0.16024041464E+03  0.00000000000E+00 0. -1.
         13    1    3    3    0    0 -0.64226373709E+02  0.27032789532E+02  0.56298886941E+02  0.89584392951E+02  0.00000000000E+00 0.  1.
         21    1    1    2  502  501  0.36746764048E+02  0.26005567591E+02  0.56670248956E+02  0.72374935789E+02  0.00000000000E+00 0. -1.
<scales pt_clust_5="13000.00000" pt_clust_6="13000.00000" pt_clust_7="13000.00000" pt_clust_8="13000.00000" pt_clust_9="45.01793"></scales>
<clustering>
<clus scale="   45.018">  2  9  1 -1</clus>
<clus scale="   77.171">  5  6 -1 -1</clus>
<clus scale="   90.921">  7  8 -1 -1</clus>
<clus scale="  180.902">  1  5  2 -1</clus>
<clus scale="  180.902">  1  5  2 -1</clus>
</clustering>
</event>
<event>
 9    1  0.3846604E-005  0.1179119E+03  0.7546771E-02  0.1248685E+00
          1   -1    0    0  502    0  0.00000000000E+00  0.00000000000E+00  0.30723067440E+03  0.30723067440E+03  0.00000000000E+00 0. -1.
         -2   -1    0    0    0  501 -0.00000000000E+00 -0.00000000000E+00 -0.18793670893E+03  0.18793670893E+03  0.00000000000E+00 0.  1.
         23    2    1    2    0    0 -0.21155577881E+02  0.48856157299E+02 -0.71533358293E+02  0.12831704665E+03  0.92270041355E+02 0.  0.
        -24    2    1    2    0    0  0.69158145843E+02 -0.34616992387E+02  0.25820040407E+03  0.28290909355E+03  0.85958834629E+02 0.  0.
         11    1    4    4    0    0  0.47973229854E+02  0.18574322394E+02  0.17117709509E+03  0.17874013013E+03  0.00000000000E+00 0. -1.
        -12    1    4    4    0    0  0.21184915989E+02 -0.53191314781E+02  0.87023308982E+02  0.10416896342E+03  0.00000000000E+00 0.  1.
        -13    1    3    3    0    0 -0.54723856486E+02  0.34300934785E+02 -0.64073656844E+02  0.90976305142E+02  0.00000000000E+00 0.  1.
         13    1    3    3    0    0  0.33568278605E+02  0.14555222514E+02 -0.74597014487E+01  0.37340741512E+02  0.00000000000E+00 0. -1.
         21    1    1    2  502  501 -0.48002567962E+02 -0.14239164912E+02 -0.67373080302E+02  0.83941243127E+02  0.00000000000E+00 0.  1.
<scales pt_clust_5="13000.00000" pt_clust_6="13000.00000" pt_clust_7="13000.00000" pt_clust_8="13000.00000" pt_clust_9="50.06995"></scales>
<clustering>
<clus scale="   50.070">  2  9  1 -1</clus>
<clus scale="   85.959">  5  6 -1 -1</clus>
<clus scale="   92.270">  7  8 -1 -1</clus>
<clus scale="  113.041">  1  5  2 -1</clus>
<clus scale="  113.041">  1  5  2 -1</clus>
</clustering>
</event>
<event>
 9    1  0.3846604E-005  0.1176764E+03  0.7546771E-02  0.1254099E+00
         -4   -1    0    0    0  501 -0.00000000000E+00  0.00000000000E+00  0.74769062057E+03  0.74769062057E+03  0.00000000000E+00 0.  1.
          3   -1    0    0  502    0  0.00000000000E+00 -0.00000000000E+00 -0.23885582948E+03  0.23885582948E+03  0.00000000000E+00 0. -1.
        -24    2    1    2    0    0  0.54932165256E+02 -0.34343770026E+02  0.20463048618E+03  0.22868259525E+03  0.78899025192E+02 0.  0.
         23    2    1    2    0    0  0.62668995152E+02 -0.33988512274E+02 -0.20228115884E+03  0.23343382255E+03  0.92146949863E+02 0.  0.
         13    1    3    3    0    0  0.75466100445E+02 -0.24884686081E+02  0.15751883785E+03  0.17642722067E+03  0.00000000000E+00 0. -1.
        -14    1    3    3    0    0 -0.20533935189E+02 -0.94590839448E+01  0.47111648332E+02  0.52255374575E+02  0.00000000000E+00 0.  1.
        -11    1    4    4    0    0  0.43465104362E+02 -0.63176382772E+02 -0.10464486258E+03  0.12973441294E+03  0.00000000000E+00 0. -1.
         11    1    4    4    0    0  0.19203890791E+02  0.29187870498E+02 -0.97636296257E+02  0.10369940960E+03  0.00000000000E+00 0.  1.
         21    1    1    2  502  501 -0.11760116041E+03  0.68332282300E+02  0.50648546376E+03  0.52443003226E+03  0.00000000000E+00 0.  1.
<scales pt_clust_5="13000.00000" pt_clust_6="13000.00000" pt_clust_7="13000.00000" pt_clust_8="13000.00000" pt_clust_9="73.18924"></scales>
<clustering>
<clus scale="   78.899">  5  6 -1 -1</clus>
<clus scale="   92.147">  7  8 -1 -1</clus>
<clus scale="  102.089">  1  5  2 -1</clus>
<clus scale="   73.189">  1  9  2 -1</clus>
<clus scale="  117.676">  2  5  1 -1</clus>
</clustering>
</event>
<event>
 9    1  0.3846604E-005  0.1209642E+03  0.7546771E-02  0.1243648E+00
         -4   -1    0    0    0  501 -0.00000000000E+00  0.00000000000E+00  0.28583730124E+03  0.28583730124E+03  0.00000000000E+00 0.  1.
          3   -1    0    0  502    0  0.00000000000E+00 -0.00000000000E+00 -0.76069227289E+02  0.76069227289E+02  0.00000000000E+00 0. -1.
         23    2    1    2    0    0 -0.85802132729E+02  0.23174603231E+01  0.14803060089E+03  0.19301560813E+03  0.89300557550E+02 0.  0.
        -24    2    1    2    0    0  0.75737868179E+02  0.31469622023E+02  0.26690418690E+02  0.11918023368E+03  0.82249546278E+02 0.  0.
         11    1    4    4    0    0  0.51956269577E+02  0.56374507439E+02  0.17918614720E+01  0.76686047002E+02  0.00000000000E+00 0. -1.
        -12    1    4    4    0    0  0.23781598602E+02 -0.24904885415E+02  0.24898557218E+02  0.42494186675E+02  0.00000000000E+00 0.  1.
        -11    1    3    3    0    0 -0.24726138391E+02  0.42304798199E+02  0.43542074540E+02  0.65551431149E+02  0.00000000000E+00 0. -1.
         11    1    3    3    0    0 -0.61075994338E+02 -0.39987337876E+02  0.10448852635E+03  0.12746417698E+03  0.00000000000E+00 0.  1.
         21    1    1    2  502  501  0.10064264550E+02 -0.33787082346E+02  0.35047054377E+02  0.49710686727E+02  0.00000000000E+00 0.  1.
<scales pt_clust_5="13000.00000" pt_clust_6="13000.00000" pt_clust_7="13000.00000" pt_clust_8="13000.00000" pt_clust_9="35.25417"></scales>
<clustering>
<clus scale="   35.254">  1  9  2 -1</clus>
<clus scale="   82.250">  5  6 -1 -1</clus>
<clus scale="   89.301">  7  8 -1 -1</clus>
<clus scale="  115.857">  2  5  1 -1</clus>
<clus scale="  115.857">  2  5  1 -1</clus>
</clustering>
</event>
<event>
 9    1  0.3846604E-005  0.1339683E+03  0.7546771E-02  0.1224645E+00
          3   -1    0    0  502    0  0.00000000000E+00  0.00000000000E+00  0.12716821286E+04  0.12716821286E+04  0.00000000000E+00 0. -1.
         -4   -1    0    0    0  501 -0.00000000000E+00 -0.00000000000E+00 -0.17181805448E+02  0.17181805448E+02  0.00000000000E+00 0.  1.
        -24    2    1    2    0    0  0.48214316340E+02 -0.97803074794E+02  0.59941822798E+03  0.61425371556E+03  0.78200724441E+02 0.  0.
         23    2    1    2    0    0 -0.26764747711E+02  0.86013669100E+02  0.61078989651E+03  0.62400515013E+03  0.90572770286E+02 0.  0.
         13    1    3    3    0    0  0.20371627634E+02 -0.10281920971E+03  0.43739075028E+03  0.44977490096E+03  0.00000000000E+00 0. -1.
        -14    1    3    3    0    0  0.27842688706E+02  0.50161349143E+01  0.16202747770E+03  0.16447881460E+03  0.00000000000E+00 0.  1.
        -13    1    4    4    0    0 -0.90488106321E+01  0.10286433901E+03  0.48836282396E+03  0.49916049627E+03  0.00000000000E+00 0.  1.
         13    1    4    4    0    0 -0.17715937079E+02 -0.16850669913E+02  0.12242707256E+03  0.12484465386E+03  0.00000000000E+00 0. -1.
         21    1    1    2  502  501 -0.21449568629E+02  0.11789405694E+02  0.44292198632E+02  0.50605068330E+02  0.00000000000E+00 0. -1.
<scales pt_clust_5="13000.00000" pt_clust_6="13000.00000" pt_clust_7="13000.00000" pt_clust_8="13000.00000" pt_clust_9="24.47599"></scales>
<clustering>
<clus scale="   24.476">  2  9  1 -1</clus>
<clus scale="   78.201">  5  6 -1 -1</clus>
<clus scale="   90.573">  7  8 -1 -1</clus>
<clus scale="  125.934">  2  5  1 -1</clus>
<clus scale="  133.968">  1  5  2 -1</clus>
</clustering>
</event>
<event>
 9    1  0.3846604E-005  0.1034336E+03  0.7546771E-02  0.1277948E+00
         -2   -1    0    0    0  501 -0.00000000000E+00  0.00000000000E+00  0.11983195465E+03  0.11983195465E+03  0.00000000000E+00 0.  1.
          1   -1    0    0  502    0  0.00000000000E+00 -0.00000000000E+00 -0.12701019233E+03  0.12701019233E+03  0.00000000000E+00 0. -1.
        -24    2    1    2    0    0  0.54579188476E+02  0.25283783474E+02  0.40150874783E+02  0.10844783366E+03  0.80812637372E+02 0.  0.
         23    2    1    2    0    0 -0.21636162605E+02 -0.14093729374E+02 -0.40282839563E+02  0.10289628202E+03  0.91094351912E+02 0.  0.
         11    1    3    3    0    0 -0.65063991733E+01  0.25877534352E+02  0.39116488246E+02  0.47350603661E+02  0.00000000000E+00 0. -1.
        -12    1    3    3    0    0  0.61085587649E+02 -0.59375087812E+00  0.10343865370E+01  0.61097230003E+02  0.00000000000E+00 0.  1.
        -11    1    4    4    0    0  0.21716382142E+02  0.51435906892E+01  0.17341866144E+02  0.28263016468E+02  0.00000000000E+00 0.  1.
         11    1    4    4    0    0 -0.43352544746E+02 -0.19237320063E+02 -0.57624705706E+02  0.74633265552E+02  0.00000000000E+00 0. -1.
         21    1    1    2  502  501 -0.32943025871E+02 -0.11190054100E+02 -0.70462728991E+01  0.35498031299E+02  0.00000000000E+00 0. -1.
<scales pt_clust_5="13000.00000" pt_clust_6="13000.00000" pt_clust_7="13000.00000" pt_clust_8="13000.00000" pt_clust_9="34.79167"></scales>
<clustering>
<clus scale="   34.792">  2  9  1 -1</clus>
<clus scale="   80.813">  5  6 -1 -1</clus>
<clus scale="   91.094">  7  8 -1 -1</clus>
<clus scale="   94.504">  1  5  2 -1</clus>
<clus scale="   34.792">  2  5  1 -1</clus>
</clustering>
</event>
<event>
 9    1  0.3846604E-005  0.1123697E+03  0.7546771E-02  0.1267155E+00
          1   -1    0    0  502    0  0.00000000000E+00  0.00000000000E+00  0.22547317153E+03  0.22547317153E+03  0.00000000000E+00 0. -1.
         -2   -1    0    0    0  501 -0.00000000000E+00 -0.00000000000E+00 -0.13092908122E+03  0.13092908122E+03  0.00000000000E+00 0.  1.
        -24    2    1    2    0    0  0.63055858469E+02  0.16836843203E+02 -0.31934567940E+02  0.10610147283E+03  0.77318725619E+02 0.  0.
         23    2    1    2    0    0 -0.43148230632E+02 -0.43686480088E+01  0.16882290565E+03  0.20187759513E+03  0.10184564325E+03 0.  0.
         13    1    3    3    0    0 -0.86201196768E+00 -0.24707401043E+02 -0.10909997955E+02  0.27022708716E+02  0.00000000000E+00 0. -1.
        -14    1    3    3    0    0  0.63917870436E+02  0.41544244247E+02 -0.21024569984E+02  0.79078764116E+02  0.00000000000E+00 0.  1.
        -11    1    4    4    0    0 -0.67902900948E+02 -0.30337244297E+02  0.12213710885E+03  0.14299869128E+03  0.00000000000E+00 0. -1.
         11    1    4    4    0    0  0.24754670316E+02  0.25968596288E+02  0.46685796802E+02  0.58878903851E+02  0.00000000000E+00 0.  1.
         21    1    1    2  502  501 -0.19907627836E+02 -0.12468195194E+02 -0.42344247397E+02  0.48423184789E+02  0.00000000000E+00 0.  1.
<scales pt_clust_5="13000.00000" pt_clust_6="13000.00000" pt_clust_7="13000.00000" pt_clust_8="13000.00000" pt_clust_9="23.48978"></scales>
<clustering>
<clus scale="   23.490">  2  9  1 -1</clus>
<clus scale="   77.319">  5  6 -1 -1</clus>
<clus scale="   90.734">  2  5  1 -1</clus>
<clus scale="  101.846">  7  8 -1 -1</clus>
<clus scale="  112.370">  1  5  2 -1</clus>
</clustering>
</event>
<event>
 9    1  0.3846604E-005  0.1334177E+03  0.7546771E-02  0.1224712E+00
         -2   -1    0    0    0  501 -0.00000000000E+00  0.00000000000E+00  0.54994062575E+03  0.54994062575E+03  0.00000000000E+00 0.  1.
          1   -1    0    0  502    0  0.00000000000E+00 -0.00000000000E+00 -0.79021666060E+02  0.79021666060E+02  0.00000000000E+00 0. -1.
         23    2    1    2    0    0  0.91389294956E+02  0.54844053290E+02  0.44231188954E+03  0.46400108910E+03  0.91089679162E+02 0.  0.
        -24    2    1    2    0    0 -0.91527382656E+02 -0.30657061478E+02 -0.11753543192E+01  0.12659425797E+03  0.81899984727E+02 0.  0.
         11    1    4    4    0    0 -0.89941733663E+02 -0.35636066421E+02  0.24983938238E+02  0.99918175795E+02  0.00000000000E+00 0. -1.
        -12    1    4    4    0    0 -0.15856489922E+01  0.49790049438E+01 -0.26159292557E+02  0.26676082172E+02  0.00000000000E+00 0.  1.
        -11    1    3    3    0    0  0.44622685192E+02  0.74059867369E+02  0.32399518537E+03  0.33533405454E+03  0.00000000000E+00 0.  1.
         11    1    3    3    0    0  0.46766609764E+02 -0.19215814079E+02  0.11831670417E+03  0.12866703457E+03  0.00000000000E+00 0. -1.
         21    1    1    2  502  501  0.13808769909E+00 -0.24186991812E+02  0.29782424469E+02  0.38366944736E+02  0.00000000000E+00 0. -1.
<scales pt_clust_5="13000.00000" pt_clust_6="13000.00000" pt_clust_7="13000.00000" pt_clust_8="13000.00000" pt_clust_9="24.18739"></scales>
<clustering>
<clus scale="   24.187">  1  9  2 -1</clus>
<clus scale="   81.900">  5  6 -1 -1</clus>
<clus scale="   91.090">  7  8 -1 -1</clus>
<clus scale="  127.321">  2  5  1 -1</clus>
<clus scale="  127.321">  2  5  1 -1</clus>
</clustering>
</event>
<event>
 9    1  0.3846604E-005  0.1260528E+03  0.7546771E-02  0.1236380E+00
          1   -1    0    0  502    0  0.00000000000E+00  0.00000000000E+00  0.10319269938E+03  0.10319269938E+03  0.00000000000E+00 0. -1.
         -2   -1    0    0    0  501 -0.00000000000E+00 -0.00000000000E+00 -0.28433067404E+03  0.28433067404E+03  0.00000000000E+00 0.  1.
        -24    2    1    2    0    0  0.61600903711E+02 -0.34219994216E+02 -0.16916975750E+03  0.20035861493E+03  0.80990668489E+02 0.  0.
         23    2    1    2    0    0 -0.79108095793E+02  0.45024752855E+02  0.36841599874E+02  0.13419643943E+03  0.91466177825E+02 0.  0.
         13    1    3    3    0    0  0.25737917322E+02  0.25319348240E+02 -0.41598567303E+02  0.55081308854E+02  0.00000000000E+00 0. -1.
        -14    1    3    3    0    0  0.35862986389E+02 -0.59539342456E+02 -0.12757119019E+03  0.14527730607E+03  0.00000000000E+00 0.  1.
        -13    1    4    4    0    0 -0.23805773766E+02 -0.26917834973E+02  0.22314275480E+02  0.42299073210E+02  0.00000000000E+00 0. -1.
         13    1    4    4    0    0 -0.55302322026E+02  0.71942587828E+02  0.14527324394E+02  0.91897366224E+02  0.00000000000E+00 0.  1.
         21    1    1    2  502  501  0.17507192082E+02 -0.10804758639E+02 -0.48809817036E+02  0.52968319050E+02  0.00000000000E+00 0.  1.
<scales pt_clust_5="13000.00000" pt_clust_6="13000.00000" pt_clust_7="13000.00000" pt_clust_8="13000.00000" pt_clust_9="20.57291"></scales>
<clustering>
<clus scale="   20.573">  2  9  1 -1</clus>
<clus scale="   80.991">  5  6 -1 -1</clus>
<clus scale="   91.466">  7  8 -1 -1</clus>
<clus scale="  118.671">  2  5  1 -1</clus>
<clus scale="  126.053">  1  5  2 -1</clus>
</clustering>
</event>
<event>
 9    1  0.3846604E-005  0.1625301E+03  0.7546771E-02  0.1187424E+00
          1   -1    0    0  502    0  0.00000000000E+00  0.00000000000E+00  0.33296239172E+03  0.33296239172E+03  0.00000000000E+00 0. -1.
         -2   -1    0    0    0  501 -0.00000000000E+00 -0.00000000000E+00 -0.18728029920E+03  0.18728029920E+03  0.00000000000E+00 0.  1.
        -24    2    1    2    0    0 -0.13285311220E+03 -0.53705774014E+02 -0.74643959586E+02  0.18019423968E+03  0.79774580712E+02 0.  0.
         23    2    1    2    0    0  0.10714198440E+03  0.81295477883E+02  0.24594498619E+03  0.29445696480E+03  0.90153249213E+02 0.  0.
         13    1    3    3    0    0 -0.69245680049E+02  0.14465319699E+02 -0.30523727731E+02  0.77044841709E+02  0.00000000000E+00 0. -1.
        -14    1    3    3    0    0 -0.63607432150E+02 -0.68171093713E+02 -0.44120231855E+02  0.10314939797E+03  0.00000000000E+00 0.  1.
        -11    1    4    4    0    0  0.52749447519E+02  0.19016840740E+02  0.30812228293E+02  0.63980761621E+02  0.00000000000E+00 0.  1.
         11    1    4    4    0    0  0.54392536879E+02  0.62278637143E+02  0.21513275789E+03  0.23047620318E+03  0.00000000000E+00 0. -1.
         21    1    1    2  502  501  0.25711127801E+02 -0.27589703870E+02 -0.25618934085E+02  0.45591486443E+02  0.00000000000E+00 0.  1.
<scales pt_clust_5="13000.00000" pt_clust_6="13000.00000" pt_clust_7="13000.00000" pt_clust_8="13000.00000" pt_clust_9="37.71278"></scales>
<clustering>
<clus scale="   37.713">  2  9  1 -1</clus>
<clus scale="   79.775">  5  6 -1 -1</clus>
<clus scale="   90.153">  7  8 -1 -1</clus>
<clus scale="  157.011">  2  5  1 -1</clus>
<clus scale="  162.530">  1  5  2 -1</clus>
</clustering>
</event>
<event>
 9    1  0.3846604E-005  0.2609401E+03  0.7546771E-02  0.1107050E+00
         -2   -1    0    0    0  501 -0.00000000000E+00  0.00000000000E+00  0.16599037703E+03  0.16599037703E+03  0.00000000000E+00 0.  1.
          1   -1    0    0  502    0  0.00000000000E+00 -0.00000000000E+00 -0.77410034232E+03  0.77410034232E+03  0.00000000000E+00 0. -1.
         23    2    1    2    0    0 -0.60178118843E+01 -0.22636966637E+03  0.99223297586E+01  0.24390598915E+03  0.90067968794E+02 0.  0.
        -24    2    1    2    0    0  0.48554524127E+01  0.24869616979E+03 -0.62083945601E+03  0.67365244254E+03  0.80576813809E+02 0.  0.
         13    1    4    4    0    0 -0.19249628162E+02  0.18528571936E+03 -0.51777790993E+03  0.55026839815E+03  0.00000000000E+00 0. -1.
        -14    1    4    4    0    0  0.24105080575E+02  0.63410450422E+02 -0.10306154608E+03  0.12338404440E+03  0.00000000000E+00 0.  1.
        -13    1    3    3    0    0 -0.14136415059E+01 -0.93254489413E+02  0.48655196051E+02  0.10519375590E+03  0.00000000000E+00 0.  1.
         13    1    3    3    0    0 -0.46041703784E+01 -0.13311517696E+03 -0.38732866293E+02  0.13871223325E+03  0.00000000000E+00 0. -1.
         21    1    1    2  502  501  0.11623594716E+01 -0.22326503416E+02  0.28071609660E+01  0.22532287656E+02  0.00000000000E+00 0. -1.
<scales pt_clust_5="13000.00000" pt_clust_6="13000.00000" pt_clust_7="13000.00000" pt_clust_8="13000.00000" pt_clust_9="22.35674"></scales>
<clustering>
<clus scale="   22.357">  1  9  2 -1</clus>
<clus scale="   80.577">  5  6 -1 -1</clus>
<clus scale="   90.068">  7  8 -1 -1</clus>
<clus scale="  257.818">  2  5  1 -1</clus>
<clus scale="  257.818">  2  5  1 -1</clus>
</clustering>
</event>
<event>
 9    1  0.3846604E-005  0.9459701E+02  0.7546771E-02  0.1298048E+00
          1   -1    0    0  502    0  0.00000000000E+00  0.00000000000E+00  0.15707166071E+03  0.15707166071E+03  0.00000000000E+00 0. -1.
         -2   -1    0    0    0  501 -0.00000000000E+00 -0.00000000000E+00 -0.11888124227E+03  0.11888124227E+03  0.00000000000E+00 0.  1.
        -24    2    1    2    0    0  0.15410290065E+02 -0.33691966279E+02 -0.50963926906E+02  0.10336632852E+03  0.81942970383E+02 0.  0.
         23    2    1    2    0    0 -0.15730828973E+02  0.10103771235E+02  0.10741119999E+03  0.14275674991E+03  0.92156272659E+02 0.  0.
         11    1    3    3    0    0  0.44919077809E+00 -0.47464150681E+02  0.10927946494E+01  0.47478853950E+02  0.00000000000E+00 0. -1.
        -12    1    3    3    0    0  0.14961099287E+02  0.13772184403E+02 -0.52056721556E+02  0.55887474574E+02  0.00000000000E+00 0.  1.
        -11    1    4    4    0    0 -0.10479178155E+02  0.51199721278E+02  0.65913897404E+02  0.84118169885E+02  0.00000000000E+00 0. -1.
         11    1    4    4    0    0 -0.52516508177E+01 -0.41095950044E+02  0.41497302582E+02  0.58638580030E+02  0.00000000000E+00 0.  1.
         21    1    1    2  502  501  0.32053890789E+00  0.23588195044E+02 -0.18256854648E+02  0.29829824543E+02  0.00000000000E+00 0. -1.
<scales pt_clust_5="13000.00000" pt_clust_6="13000.00000" pt_clust_7="13000.00000" pt_clust_8="13000.00000" pt_clust_9="23.59037"></scales>
<clustering>
<clus scale="   23.590">  2  9  1 -1</clus>
<clus scale="   81.943">  5  6 -1 -1</clus>
<clus scale="   84.679">  2  5  1 -1</clus>
<clus scale="   92.156">  7  8 -1 -1</clus>
<clus scale="   94.597">  1  5  2 -1</clus>
</clustering>
</event>
<event>
 9    1  0.3846604E-005  0.1012263E+03  0.7546771E-02  0.1283462E+00
          1   -1    0    0  502    0  0.00000000000E+00  0.00000000000E+00  0.51482737489E+03  0.51482737489E+03  0.00000000000E+00 0. -1.
         -2   -1    0    0    0  501 -0.00000000000E+00 -0.00000000000E+00 -0.45484176702E+02  0.45484176702E+02  0.00000000000E+00 0.  1.
         23    2    1    2    0    0  0.39828784416E+02 -0.28781154404E+02  0.38605740204E+02  0.11039915456E+03  0.91010346847E+02 0.  0.
        -24    2    1    2    0    0 -0.15951026789E+01  0.31753243996E+02  0.35368622743E+03  0.36384533095E+03  0.79238024456E+02 0.  0.
         11    1    4    4    0    0  0.60949993474E+00  0.55184576991E+02  0.17189399221E+03  0.18053601742E+03  0.00000000000E+00 0. -1.
        -12    1    4    4    0    0 -0.22046026137E+01 -0.23431332996E+02  0.18179223523E+03  0.18330931353E+03  0.00000000000E+00 0.  1.
        -13    1    3    3    0    0 -0.47071495789E+01 -0.52340002925E+02  0.25096183023E+02  0.58236170596E+02  0.00000000000E+00 0.  1.
         13    1    3    3    0    0  0.44535933995E+02  0.23558848521E+02  0.13509557181E+02  0.52162983960E+02  0.00000000000E+00 0. -1.
         21    1    1    2  502  501 -0.38233681737E+02 -0.29720895917E+01  0.77051230551E+02  0.86067066089E+02  0.00000000000E+00 0. -1.
<scales pt_clust_5="13000.00000" pt_clust_6="13000.00000" pt_clust_7="13000.00000" pt_clust_8="13000.00000" pt_clust_9="38.34903"></scales>
<clustering>
<clus scale="   38.349">  1  9  2 -1</clus>
<clus scale="   79.238">  5  6 -1 -1</clus>
<clus scale="   90.788">  1  5  2 -1</clus>
<clus scale="   91.010">  7  8 -1 -1</clus>
<clus scale="   38.349">  1  5  2 -1</clus>
</clustering>
</event>
<event>
 9    1  0.3846604E-005  0.1059197E+03  0.7546771E-02  0.1272460E+00
         -2   -1    0    0    0  501 -0.00000000000E+00  0.00000000000E+00  0.16669675181E+03  0.16669675181E+03  0.00000000000E+00 0.  1.
          1   -1    0    0  502    0  0.00000000000E+00 -0.00000000000E+00 -0.39171383504E+03  0.39171383504E+03  0.00000000000E+00 0. -1.
        -24    2    1    2    0    0 -0.31661733965E+01 -0.90510092095E+02  0.10802438767E+03  0.16235551396E+03  0.80547769418E+02 0.  0.
         23    2    1    2    0    0 -0.31663345001E+02  0.44112475110E+02 -0.31958685313E+03  0.33649954457E+03  0.90264660473E+02 0.  0.
         13    1    3    3    0    0 -0.16392591425E+01 -0.40466844489E+02 -0.29527027500E+01  0.40607525496E+02  0.00000000000E+00 0. -1.
        -14    1    3    3    0    0 -0.15269142540E+01 -0.50043247606E+02  0.11097709042E+03  0.12174798847E+03  0.00000000000E+00 0.  1.
        -13    1    4    4    0    0  0.17972307644E+02  0.27520590088E+02 -0.38682284260E+02  0.50761263148E+02  0.00000000000E+00 0.  1.
         13    1    4    4    0    0 -0.49635652645E+02  0.16591885022E+02 -0.28090456887E+03  0.28573828143E+03  0.00000000000E+00 0. -1.
         21    1    1    2  502  501  0.34829518398E+02  0.46397616984E+02 -0.13454617766E+02  0.59555528315E+02  0.00000000000E+00 0. -1.
<scales pt_clust_5="13000.00000" pt_clust_6="13000.00000" pt_clust_7="13000.00000" pt_clust_8="13000.00000" pt_clust_9="58.01581"></scales>
<clustering>
<clus scale="   58.016">  1  9  2 -1</clus>
<clus scale="   80.548">  5  6 -1 -1</clus>
<clus scale="   90.265">  7  8 -1 -1</clus>
<clus scale="   97.771">  1  5  2 -1</clus>
<clus scale="  105.920">  2  5  1 -1</clus>
</clustering>
</event>
<event>
 9    1  0.3846604E-005  0.1320172E+03  0.7546771E-02  0.1227106E+00
         -2   -1    0    0    0  501 -0.00000000000E+00  0.00000000000E+00  0.19094859032E+03  0.19094859032E+03  0.00000000000E+00 0.  1.
          1   -1    0    0  502    0  0.00000000000E+00 -0.00000000000E+00 -0.13309609223E+03  0.13309609223E+03  0.00000000000E+00 0. -1.
        -24    2    1    2    0    0 -0.34524255962E+02 -0.10711133668E+03  0.62273311097E+02  0.15142652775E+03  0.79920368716E+02 0.  0.
         23    2    1    2    0    0  0.17259199220E+01  0.89601099680E+02 -0.25527911077E+02  0.12986480598E+03  0.90453621956E+02 0.  0.
         13    1    3    3    0    0 -0.17504845907E+01 -0.71537118620E+02 -0.12676855556E+01  0.71569760119E+02  0.00000000000E+00 0. -1.
        -14    1    3    3    0    0 -0.32773771371E+02 -0.35574218058E+02  0.63540996653E+02  0.79856767628E+02  0.00000000000E+00 0.  1.
        -11    1    4    4    0    0 -0.36551987634E+02  0.27536039035E+02  0.12753836795E+02  0.47507279428E+02  0.00000000000E+00 0.  1.
         11    1    4    4    0    0  0.38277907556E+02  0.62065060645E+02 -0.38281747872E+02  0.82357526553E+02  0.00000000000E+00 0. -1.
         21    1    1    2  502  501  0.32798336040E+02  0.17510236998E+02  0.21107098066E+02  0.42753348822E+02  0.00000000000E+00 0. -1.
<scales pt_clust_5="13000.00000" pt_clust_6="13000.00000" pt_clust_7="13000.00000" pt_clust_8="13000.00000" pt_clust_9="37.17982"></scales>
<clustering>
<clus scale="   37.180">  1  9  2 -1</clus>
<clus scale="   79.920">  5  6 -1 -1</clus>
<clus scale="   90.454">  7  8 -1 -1</clus>
<clus scale="  125.036">  1  5  2 -1</clus>
<clus scale="  132.017">  2  5  1 -1</clus>
</clustering>
</event>
<event>
 9    1  0.3846604E-005  0.1463912E+03  0.7546771E-02  0.1207467E+00
         -2   -1    0    0    0  501 -0.00000000000E+00  0.00000000000E+00  0.97880901113E+02  0.97880901113E+02  0.00000000000E+00 0.  1.
          1   -1    0    0  502    0  0.00000000000E+00 -0.00000000000E+00 -0.56722823645E+03  0.56722823645E+03  0.00000000000E+00 0. -1.
        -24    2    1    2    0    0  0.15353235283E+01  0.13388166176E+03 -0.17535830518E+03  0.23570175533E+03  0.82934466280E+02 0.  0.
         23    2    1    2    0    0  0.81611566552E+02 -0.78501974535E+02 -0.29444645595E+03  0.32950480806E+03  0.95140397904E+02 0.  0.
         11    1    3    3    0    0 -0.21007205919E+02  0.12768686271E+03 -0.12377662638E+03  0.17906951401E+03  0.00000000000E+00 0. -1.
        -12    1    3    3    0    0  0.22542529447E+02  0.61947990462E+01 -0.51581678806E+02  0.56632241326E+02  0.00000000000E+00 0.  1.
        -11    1    4    4    0    0 -0.12925815156E+02 -0.45721903222E+02 -0.84785732492E+02  0.97191509742E+02  0.00000000000E+00 0.  1.
         11    1    4    4    0    0  0.94537381707E+02 -0.32780071313E+02 -0.20966072346E+03  0.23231329832E+03  0.00000000000E+00 0. -1.
         21    1    1    2  502  501 -0.83146890080E+02 -0.55379687222E+02  0.45742579696E+00  0.99902574167E+02  0.00000000000E+00 0.  1.
<scales pt_clust_5="13000.00000" pt_clust_6="13000.00000" pt_clust_7="13000.00000" pt_clust_8="13000.00000" pt_clust_9="99.90153"></scales>
<clustering>
<clus scale="   82.934">  5  6 -1 -1</clus>
<clus scale="   95.140">  7  8 -1 -1</clus>
<clus scale="   99.902">  1  9  2 -1</clus>
<clus scale="  138.769">  1  5  2 -1</clus>
<clus scale="  146.391">  2  5  1 -1</clus>
</clustering>
</event>
<event>
 9    1  0.3846604E-005  0.1455430E+03  0.7546771E-02  0.1208386E+00
          1   -1    0    0  502    0  0.00000000000E+00  0.00000000000E+00  0.26471606036E+03  0.26471606036E+03  0.00000000000E+00 0. -1.
         -2   -1    0    0    0  501 -0.00000000000E+00 -0.00000000000E+00 -0.14611131208E+03  0.14611131208E+03  0.00000000000E+00 0.  1.
         23    2    1    2    0    0 -0.95483446973E+02  0.10298531237E+03 -0.42335206375E+00  0.16756127803E+03  0.91397699418E+02 0.  0.
        -24    2    1    2    0    0  0.82120314236E+02 -0.65951275626E+02  0.14499296417E+03  0.19610395550E+03  0.79627162042E+02 0.  0.
         13    1    4    4    0    0  0.95178122499E+01 -0.44862841432E+02  0.94931026967E+02  0.10542847420E+03  0.00000000000E+00 0. -1.
        -14    1    4    4    0    0  0.72602501986E+02 -0.21088434194E+02  0.50061937206E+02  0.90675481296E+02  0.00000000000E+00 0.  1.
        -11    1    3    3    0    0  0.81665161193E+01  0.50831362285E+02 -0.19391838167E+01  0.51519703135E+02  0.00000000000E+00 0.  1.
         11    1    3    3    0    0 -0.10364996309E+03  0.52153950083E+02  0.15158317529E+01  0.11604157490E+03  0.00000000000E+00 0. -1.
         21    1    1    2  502  501  0.13363132737E+02 -0.37034036741E+02 -0.25964863827E+02  0.47162138920E+02  0.00000000000E+00 0.  1.
<scales pt_clust_5="13000.00000" pt_clust_6="13000.00000" pt_clust_7="13000.00000" pt_clust_8="13000.00000" pt_clust_9="39.37122"></scales>
<clustering>
<clus scale="   39.371">  2  9  1 -1</clus>
<clus scale="   79.627">  5  6 -1 -1</clus>
<clus scale="   91.398">  7  8 -1 -1</clus>
<clus scale="  138.455">  1  5  2 -1</clus>
<clus scale="  138.455">  1  5  2 -1</clus>
</clustering>
</event>
<event>
 9    1  0.3846604E-005  0.1046273E+03  0.7546771E-02  0.1275072E+00
         -2   -1    0    0    0  501 -0.00000000000E+00  0.00000000000E+00  0.23878474899E+03  0.23878474899E+03  0.00000000000E+00 0.  1.
          1   -1    0    0  502    0  0.00000000000E+00 -0.00000000000E+00 -0.22225607863E+03  0.22225607863E+03  0.00000000000E+00 0. -1.
        -24    2    1    2    0    0 -0.40708490591E+02  0.93449909087E+01  0.96901919932E+02  0.13374964858E+03  0.82185621299E+02 0.  0.
         23    2    1    2    0    0  0.49489478890E+02  0.16746704837E+02 -0.18834477006E+03  0.21586527729E+03  0.91620984972E+02 0.  0.
         11    1    3    3    0    0 -0.18795177025E+02  0.29126156836E+02  0.98262377789E+02  0.10419734440E+03  0.00000000000E+00 0. -1.
        -12    1    3    3    0    0 -0.21913313566E+02 -0.19781165928E+02 -0.13604578567E+01  0.29552304182E+02  0.00000000000E+00 0.  1.
        -11    1    4    4    0    0  0.31799544413E+02 -0.13736245554E+02 -0.12976188623E+02  0.36990227601E+02  0.00000000000E+00 0.  1.
         11    1    4    4    0    0  0.17689934476E+02  0.30482950391E+02 -0.17536858144E+03  0.17887504969E+03  0.00000000000E+00 0. -1.
         21    1    1    2  502  501 -0.87809882988E+01 -0.26091695745E+02  0.10797152049E+03  0.11142590174E+03  0.00000000000E+00 0.  1.
<scales pt_clust_5="13000.00000" pt_clust_6="13000.00000" pt_clust_7="13000.00000" pt_clust_8="13000.00000" pt_clust_9="27.52966"></scales>
<clustering>
<clus scale="   27.530">  1  9  2 -1</clus>
<clus scale="   82.186">  5  6 -1 -1</clus>
<clus scale="   91.621">  7  8 -1 -1</clus>
<clus scale="   96.473">  1  5  2 -1</clus>
<clus scale="  104.627">  2  5  1 -1</clus>
</clustering>
</event>
<event>
 9    1  0.3846604E-005  0.9157747E+02  0.7546771E-02  0.1301216E+00
         -4   -1    0    0    0  501 -0.00000000000E+00  0.00000000000E+00  0.31743201214E+03  0.31743201214E+03  0.00000000000E+00 0.  1.
          3   -1    0    0  502    0  0.00000000000E+00 -0.00000000000E+00 -0.49935880932E+02  0.49935880932E+02  0.00000000000E+00 0. -1.
         23    2    1    2    0    0  0.26461730833E+02 -0.50504781705E+01  0.19040059022E+03  0.21077135149E+03  0.86292799960E+02 0.  0.
        -24    2    1    2    0    0 -0.42638312989E+02 -0.29025812911E+02  0.45677843526E+02  0.10750532915E+03  0.82525189226E+02 0.  0.
         11    1    4    4    0    0 -0.50836362712E+02  0.10490153020E+02  0.84326764920E+01  0.52587917975E+02  0.00000000000E+00 0. -1.
        -12    1    4    4    0    0  0.81980497222E+01 -0.39515965932E+02  0.37245167034E+02  0.54917411175E+02  0.00000000000E+00 0.  1.
        -11    1    3    3    0    0  0.31800315993E+02  0.34207623425E+02  0.13351435569E+03  0.14144788713E+03  0.00000000000E+00 0. -1.
         11    1    3    3    0    0 -0.53385851602E+01 -0.39258101595E+02  0.56886234529E+02  0.69323464363E+02  0.00000000000E+00 0.  1.
         21    1    1    2  502  501  0.16176582156E+02  0.34076291082E+02  0.31417697462E+02  0.49091212431E+02  0.00000000000E+00 0.  1.
<scales pt_clust_5="13000.00000" pt_clust_6="13000.00000" pt_clust_7="13000.00000" pt_clust_8="13000.00000" pt_clust_9="37.72102"></scales>
<clustering>
<clus scale="   37.721">  2  9  1 -1</clus>
<clus scale="   82.525">  5  6 -1 -1</clus>
<clus scale="   86.293">  7  8 -1 -1</clus>
<clus scale="   88.036">  2  5  1 -1</clus>
<clus scale="   37.721">  2  5  1 -1</clus>
</clustering>
</event>
<event>
 9    1  0.3846604E-005  0.1216163E+03  0.7546771E-02  0.1243454E+00
          1   -1    0    0  502    0  0.00000000000E+00  0.00000000000E+00  0.46391810400E+03  0.46391810400E+03  0.00000000000E+00 0. -1.
         -2   -1    0    0    0  501 -0.00000000000E+00 -0.00000000000E+00 -0.58657551681E+02  0.58657551681E+02  0.00000000000E+00 0.  1.
         23    2    1    2    0    0  0.43820912631E+02 -0.78046899024E+02  0.42839864957E+02  0.13400056476E+03  0.90051687911E+02 0.  0.
        -24    2    1    2    0    0 -0.13205380237E+02  0.55209604832E+02  0.29714452676E+03  0.31294553339E+03  0.80109640814E+02 0.  0.
         11    1    4    4    0    0  0.21216167166E+02  0.44989359013E+02  0.24257481152E+03  0.24762210595E+03  0.00000000000E+00 0. -1.
        -12    1    4    4    0    0 -0.34421547403E+02  0.10220245819E+02  0.54569715239E+02  0.65323427432E+02  0.00000000000E+00 0.  1.
        -13    1    3    3    0    0  0.20980268235E+02  0.16288493608E+02 -0.28683346622E+01  0.26715426685E+02  0.00000000000E+00 0. -1.
         13    1    3    3    0    0  0.22840644396E+02 -0.94335392632E+02  0.45708199619E+02  0.10728513808E+03  0.00000000000E+00 0.  1.
         21    1    1    2  502  501 -0.30615532393E+02  0.22837294192E+02  0.65276160603E+02  0.75629557534E+02  0.00000000000E+00 0. -1.
<scales pt_clust_5="13000.00000" pt_clust_6="13000.00000" pt_clust_7="13000.00000" pt_clust_8="13000.00000" pt_clust_9="38.19493"></scales>
<clustering>
<clus scale="   38.195">  1  9  2 -1</clus>
<clus scale="   80.110">  5  6 -1 -1</clus>
<clus scale="   90.052">  7  8 -1 -1</clus>
<clus scale="  114.450">  1  5  2 -1</clus>
<clus scale="   38.195">  1  5  2 -1</clus>
</clustering>
</event>
<event>
 9    1  0.3846604E-005  0.9191873E+02  0.7546771E-02  0.1304411E+00
          1   -1    0    0  502    0  0.00000000000E+00  0.00000000000E+00  0.39646369097E+03  0.39646369097E+03  0.00000000000E+00 0. -1.
         -2   -1    0    0    0  501 -0.00000000000E+00 -0.00000000000E+00 -0.38230495724E+02  0.38230495724E+02  0.00000000000E+00 0.  1.
        -24    2    1    2    0    0 -0.53852136860E+01  0.13036579037E+02  0.31017305629E+02  0.87487069153E+02  0.80578912260E+02 0.  0.
         23    2    1    2    0    0 -0.86631447702E+01 -0.27335800770E+02  0.28623211807E+03  0.30158372828E+03  0.90562816141E+02 0.  0.
         11    1    3    3    0    0  0.12446983733E+02  0.43125520833E+02  0.26748148021E+02  0.52251328918E+02  0.00000000000E+00 0. -1.
        -12    1    3    3    0    0 -0.17832197419E+02 -0.30088941796E+02  0.42691576077E+01  0.35235740234E+02  0.00000000000E+00 0.  1.
        -13    1    4    4    0    0  0.34645900631E+02  0.85634450609E+01  0.76109553095E+02  0.84061495907E+02  0.00000000000E+00 0. -1.
         13    1    4    4    0    0 -0.43309045401E+02 -0.35899245831E+02  0.21012256498E+03  0.21752223237E+03  0.00000000000E+00 0.  1.
         21    1    1    2  502  501  0.14048358456E+02  0.14299221733E+02  0.40983771542E+02  0.45623389257E+02  0.00000000000E+00 0. -1.
<scales pt_clust_5="13000.00000" pt_clust_6="13000.00000" pt_clust_7="13000.00000" pt_clust_8="13000.00000" pt_clust_9="20.04555"></scales>
<clustering>
<clus scale="   20.046">  1  9  2 -1</clus>
<clus scale="   80.579">  5  6 -1 -1</clus>
<clus scale="   82.100">  2  5  1 -1</clus>
<clus scale="   90.563">  7  8 -1 -1</clus>
<clus scale="   20.046">  1  5  2 -1</clus>
</clustering>
</event>
<event>
 9    1  0.3846604E-005  0.1325292E+03  0.7546771E-02  0.1226445E+00
          1   -1    0    0  502    0  0.00000000000E+00  0.00000000000E+00  0.68489013502E+03  0.68489013502E+03  0.00000000000E+00 0. -1.
         -2   -1    0    0    0  501 -0.00000000000E+00 -0.00000000000E+00 -0.31450104917E+02  0.31450104917E+02  0.00000000000E+00 0.  1.
         23    2    1    2    0    0 -0.71571863184E+02  0.73623980478E+02  0.24027140469E+03  0.27673412412E+03  0.91150454952E+02 0.  0.
        -24    2    1    2    0    0  0.77024573216E+02 -0.52932198205E+02  0.38499393711E+03  0.40422681451E+03  0.80276917412E+02 0.  0.
         11    1    4    4    0    0  0.66263507031E+02 -0.57640677983E+02  0.38218945074E+03  0.39215057871E+03  0.00000000000E+00 0. -1.
        -12    1    4    4    0    0  0.10761066184E+02  0.47084797777E+01  0.28044863654E+01  0.12076235797E+02  0.00000000000E+00 0.  1.
        -11    1    3    3    0    0  0.26133775950E+01  0.45830569157E+02  0.14883067342E+03  0.15574928624E+03  0.00000000000E+00 0. -1.
         11    1    3    3    0    0 -0.74185240779E+02  0.27793411322E+02  0.91440731268E+02  0.12098483788E+03  0.00000000000E+00 0.  1.
         21    1    1    2  502  501 -0.54527100316E+01 -0.20691782273E+02  0.28174688300E+02  0.35379301309E+02  0.00000000000E+00 0.  1.
<scales pt_clust_5="13000.00000" pt_clust_6="13000.00000" pt_clust_7="13000.00000" pt_clust_8="13000.00000" pt_clust_9="21.39818"></scales>
<clustering>
<clus scale="   21.398">  2  9  1 -1</clus>
<clus scale="   80.277">  5  6 -1 -1</clus>
<clus scale="   91.150">  7  8 -1 -1</clus>
<clus scale="  125.299">  1  5  2 -1</clus>
<clus scale="  125.299">  1  5  2 -1</clus>
</clustering>
</event>
<event>
 9    1  0.3846604E-005  0.8871899E+02  0.7546771E-02  0.1308803E+00
          1   -1    0    0  502    0  0.00000000000E+00  0.00000000000E+00  0.17328451460E+03  0.17328451460E+03  0.00000000000E+00 0. -1.
         -2   -1    0    0    0  501 -0.00000000000E+00 -0.00000000000E+00 -0.23594776041E+03  0.23594776041E+03  0.00000000000E+00 0.  1.
         23    2    1    2    0    0 -0.35838211878E+02  0.45289274609E+02 -0.83602145998E+02  0.13459821167E+03  0.88271535301E+02 0.  0.
        -24    2    1    2    0    0  0.18690651007E+01 -0.27590805432E+01  0.12886757905E+03  0.15375676992E+03  0.83804447596E+02 0.  0.
         13    1    4    4    0    0 -0.33238900455E+02  0.18113511255E+01  0.10719758355E+03  0.11224717108E+03  0.00000000000E+00 0. -1.
        -14    1    4    4    0    0  0.35107965556E+02 -0.45704316688E+01  0.21669995501E+02  0.41509598843E+02  0.00000000000E+00 0.  1.
        -11    1    3    3    0    0  0.11670625472E+02  0.35813754665E+02  0.35259662660E+00  0.37668990516E+02  0.00000000000E+00 0. -1.
         11    1    3    3    0    0 -0.47508837350E+02  0.94755199434E+01 -0.83954742624E+02  0.96929221155E+02  0.00000000000E+00 0.  1.
         21    1    1    2  502  501  0.33969146777E+02 -0.42530194066E+02 -0.10792867887E+03  0.12087729342E+03  0.00000000000E+00 0.  1.
<scales pt_clust_5="13000.00000" pt_clust_6="13000.00000" pt_clust_7="13000.00000" pt_clust_8="13000.00000" pt_clust_9="54.43088"></scales>
<clustering>
<clus scale="   54.431">  2  9  1 -1</clus>
<clus scale="   83.804">  5  6 -1 -1</clus>
<clus scale="   84.276">  1  5  2 -1</clus>
<clus scale="   88.272">  7  8 -1 -1</clus>
<clus scale="   84.276">  1  5  2 -1</clus>
</clustering>
</event>
<event>
 9    1  0.3846604E-005  0.1379311E+03  0.7546771E-02  0.1218269E+00
         -4   -1    0    0    0  501 -0.00000000000E+00  0.00000000000E+00  0.31090642626E+03  0.31090642626E+03  0.00000000000E+00 0.  1.
          3   -1    0    0  502    0  0.00000000000E+00 -0.00000000000E+00 -0.42050761334E+03  0.42050761334E+03  0.00000000000E+00 0. -1.
         23    2    1    2    0    0 -0.33923144880E+02 -0.14217545253E+03  0.13617591546E+03  0.21905609468E+03  0.89872429613E+02 0.  0.
        -24    2    1    2    0    0  0.55156811414E+02  0.86329413540E+02 -0.36035616460E+03  0.38313716436E+03  0.80265060012E+02 0.  0.
         13    1    4    4    0    0  0.22256486930E+02  0.69573506630E+02 -0.32086514711E+03  0.32907486483E+03  0.00000000000E+00 0. -1.
        -14    1    4    4    0    0  0.32900324483E+02  0.16755906910E+02 -0.39491017495E+02  0.54062299528E+02  0.00000000000E+00 0.  1.
        -11    1    3    3    0    0 -0.45362001754E+02 -0.10402701747E+03  0.49784772660E+02  0.12392681371E+03  0.00000000000E+00 0.  1.
         11    1    3    3    0    0  0.11438856874E+02 -0.38148435057E+02  0.86391142797E+02  0.95129280969E+02  0.00000000000E+00 0. -1.
         21    1    1    2  502  501 -0.21233666533E+02  0.55846038988E+02  0.11457906207E+03  0.12922078056E+03  0.00000000000E+00 0.  1.
<scales pt_clust_5="13000.00000" pt_clust_6="13000.00000" pt_clust_7="13000.00000" pt_clust_8="13000.00000" pt_clust_9="59.74654"></scales>
<clustering>
<clus scale="   59.747">  1  9  2 -1</clus>
<clus scale="   80.265">  5  6 -1 -1</clus>
<clus scale="   89.872">  7  8 -1 -1</clus>
<clus scale="  131.873">  2  5  1 -1</clus>
<clus scale="  131.873">  2  5  1 -1</clus>
</clustering>
</event>
<event>
 9    1  0.3846604E-005  0.1116874E+03  0.7546771E-02  0.1259222E+00
         -4   -1    0    0    0  501 -0.00000000000E+00  0.00000000000E+00  0.34267888308E+03  0.34267888308E+03  0.00000000000E+00 0.  1.
          3   -1    0    0  502    0  0.00000000000E+00 -0.00000000000E+00 -0.45682673542E+02  0.45682673542E+02  0.00000000000E+00 0. -1.
         23    2    1    2    0    0  0.30155659623E+02  0.56180357452E+02  0.14292216757E+03  0.18068463021E+03  0.90302786438E+02 0.  0.
        -24    2    1    2    0    0 -0.55274953387E+02 -0.44119502563E+02  0.12890632408E+03  0.17012886171E+03  0.85587021325E+02 0.  0.
         11    1    4    4    0    0 -0.30834069505E+02 -0.51046789741E+02  0.27650213839E+02  0.65734685748E+02  0.00000000000E+00 0. -1.
        -12    1    4    4    0    0 -0.24440883882E+02  0.69272871774E+01  0.10125611025E+03  0.10439417596E+03  0.00000000000E+00 0.  1.
        -11    1    3    3    0    0  0.55895298830E+02  0.15491587413E+02  0.52456124276E+02  0.78204339303E+02  0.00000000000E+00 0. -1.
         11    1    3    3    0    0 -0.25739639207E+02  0.40688770039E+02  0.90466043298E+02  0.10248029090E+03  0.00000000000E+00 0.  1.
         21    1    1    2  502  501  0.25119293765E+02 -0.12060854888E+02  0.25167717881E+02  0.37548064706E+02  0.00000000000E+00 0. -1.
<scales pt_clust_5="13000.00000" pt_clust_6="13000.00000" pt_clust_7="13000.00000" pt_clust_8="13000.00000" pt_clust_9="27.86473"></scales>
<clustering>
<clus scale="   27.865">  2  9  1 -1</clus>
<clus scale="   85.587">  5  6 -1 -1</clus>
<clus scale="   90.303">  7  8 -1 -1</clus>
<clus scale="  107.910">  2  5  1 -1</clus>
<clus scale="   27.865">  2  5  1 -1</clus>
</clustering>
</event>
<event>
 9    1  0.3846604E-005  0.9982810E+02  0.7546771E-02  0.1285661E+00
         -2   -1    0    0    0  501 -0.00000000000E+00  0.00000000000E+00  0.23500955861E+02  0.23500955861E+02  0.00000000000E+00 0.  1.
          1   -1    0    0  502    0  0.00000000000E+00 -0.00000000000E+00 -0.70237341999E+03  0.70237341999E+03  0.00000000000E+00 0. -1.
        -24    2    1    2    0    0 -0.36563259630E+02 -0.19835166156E-01 -0.17724474006E+03  0.19821324470E+03  0.80845037861E+02 0.  0.
         23    2    1    2    0    0  0.37888966729E+02 -0.52186368195E+02 -0.33547782013E+03  0.35349731244E+03  0.90862485546E+02 0.  0.
         11    1    3    3    0    0  0.74926566486E+01  0.25264741985E+02 -0.20334213018E+02  0.33285542060E+02  0.00000000000E+00 0. -1.
        -12    1    3    3    0    0 -0.44055916278E+02 -0.25284577151E+02 -0.15691052704E+03  0.16492770264E+03  0.00000000000E+00 0.  1.
        -11    1    4    4    0    0  0.16574312143E+02 -0.64495030081E+02 -0.31351744924E+03  0.32051132228E+03  0.00000000000E+00 0. -1.
         11    1    4    4    0    0  0.21314654587E+02  0.12308661886E+02 -0.21960370882E+02  0.32985990160E+02  0.00000000000E+00 0.  1.
         21    1    1    2  502  501 -0.13257070996E+01  0.52206203361E+02 -0.16614990395E+03  0.17416381872E+03  0.00000000000E+00 0.  1.
<scales pt_clust_5="13000.00000" pt_clust_6="13000.00000" pt_clust_7="13000.00000" pt_clust_8="13000.00000" pt_clust_9="52.22303"></scales>
<clustering>
<clus scale="   52.223">  2  9  1 -1</clus>
<clus scale="   80.845">  5  6 -1 -1</clus>
<clus scale="   90.805">  1  5  2 -1</clus>
<clus scale="   90.862">  7  8 -1 -1</clus>
<clus scale="   52.223">  2  5  1 -1</clus>
</clustering>
</event>
<event>
 9    1  0.3846604E-005  0.1251405E+03  0.7546771E-02  0.1238149E+00
         -2   -1    0    0    0  501 -0.00000000000E+00  0.00000000000E+00  0.20760027036E+02  0.20760027036E+02  0.00000000000E+00 0.  1.
          1   -1    0    0  502    0  0.00000000000E+00 -0.00000000000E+00 -0.11265702344E+04  0.11265702344E+04  0.00000000000E+00 0. -1.
         23    2    1    2    0    0  0.28386474664E+02 -0.54056861156E+02 -0.28868973988E+03  0.30896466363E+03  0.91594002404E+02 0.  0.
        -24    2    1    2    0    0 -0.51168213617E+02  0.83363607586E+02 -0.75862309021E+03  0.76908474789E+03  0.80091693021E+02 0.  0.
         11    1    4    4    0    0 -0.16434358789E+01  0.60641501313E+02 -0.23767179620E+03  0.24529161272E+03  0.00000000000E+00 0. -1.
        -12    1    4    4    0    0 -0.49524777738E+02  0.22722106272E+02 -0.52095129401E+03  0.52379313517E+03  0.00000000000E+00 0.  1.
        -11    1    3    3    0    0 -0.16782758520E+02  0.18021400505E+02 -0.76254310911E+02  0.80132089653E+02  0.00000000000E+00 0. -1.
         11    1    3    3    0    0  0.45169233184E+02 -0.72078261660E+02 -0.21243542897E+03  0.22883257398E+03  0.00000000000E+00 0.  1.
         21    1    1    2  502  501  0.22781738953E+02 -0.29306746430E+02 -0.58497377238E+02  0.69280849877E+02  0.00000000000E+00 0.  1.
<scales pt_clust_5="13000.00000" pt_clust_6="13000.00000" pt_clust_7="13000.00000" pt_clust_8="13000.00000" pt_clust_9="37.11998"></scales>
<clustering>
<clus scale="   37.120">  1  9  2 -1</clus>
<clus scale="   80.092">  5  6 -1 -1</clus>
<clus scale="   91.594">  7  8 -1 -1</clus>
<clus scale="  116.984">  2  5  1 -1</clus>
<clus scale="  116.984">  2  5  1 -1</clus>
</clustering>
</event>
<event>
 9    1  0.3846604E-005  0.1148130E+03  0.7546771E-02  0.1255868E+00
         -2   -1    0    0    0  501 -0.00000000000E+00  0.00000000000E+00  0.33738005176E+02  0.33738005176E+02  0.00000000000E+00 0.  1.
          1   -1    0    0  502    0  0.00000000000E+00 -0.00000000000E+00 -0.53480983540E+03  0.53480983540E+03  0.00000000000E+00 0. -1.
        -24    2    1    2    0    0 -0.27564037183E+02  0.48172920468E+02 -0.11500841931E+03  0.15087479113E+03  0.80348364483E+02 0.  0.
         23    2    1    2    0    0  0.54867072319E+02 -0.54915673288E+02 -0.35945774484E+03  0.37895894464E+03  0.91508931815E+02 0.  0.
         13    1    3    3    0    0 -0.98369077897E+01  0.52087961332E+02 -0.24203502055E+02  0.58272892345E+02  0.00000000000E+00 0. -1.
        -14    1    3    3    0    0 -0.17727129394E+02 -0.39150408638E+01 -0.90804917252E+02  0.92601898785E+02  0.00000000000E+00 0.  1.
        -11    1    4    4    0    0  0.17133091852E+02  0.17493423109E+02 -0.26268992864E+02  0.35911316804E+02  0.00000000000E+00 0. -1.
         11    1    4    4    0    0  0.37733980467E+02 -0.72409096397E+02 -0.33318875197E+03  0.34304762784E+03  0.00000000000E+00 0.  1.
         21    1    1    2  502  501 -0.27303035136E+02  0.67427528195E+01 -0.26605666076E+02  0.38714104801E+02  0.00000000000E+00 0. -1.
<scales pt_clust_5="13000.00000" pt_clust_6="13000.00000" pt_clust_7="13000.00000" pt_clust_8="13000.00000" pt_clust_9="28.12331"></scales>
<clustering>
<clus scale="   28.123">  1  9  2 -1</clus>
<clus scale="   80.348">  5  6 -1 -1</clus>
<clus scale="   91.509">  7  8 -1 -1</clus>
<clus scale="  106.132">  1  5  2 -1</clus>
<clus scale="  114.813">  2  5  1 -1</clus>
</clustering>
</event>
<event>
 9    1  0.3846604E-005  0.1397737E+03  0.7546771E-02  0.1218385E+00
          1   -1    0    0  502    0  0.00000000000E+00  0.00000000000E+00  0.30231676712E+03  0.30231676712E+03  0.00000000000E+00 0. -1.
         -2   -1    0    0    0  501 -0.00000000000E+00 -0.00000000000E+00 -0.42834023894E+03  0.42834023894E+03  0.00000000000E+00 0.  1.
         23    2    1    2    0    0 -0.14069203012E+03  0.95965683790E+02 -0.33343005594E+03  0.38756307459E+03  0.10012929031E+03 0.  0.
        -24    2    1    2    0    0  0.84485375217E+02 -0.42186910579E+02  0.23066158953E+03  0.26190193814E+03  0.80438437717E+02 0.  0.
         13    1    4    4    0    0  0.69873776783E+02 -0.50930953160E+02  0.10936858140E+03  0.13941948669E+03  0.00000000000E+00 0. -1.
        -14    1    4    4    0    0  0.14611598435E+02  0.87440425807E+01  0.12129300813E+03  0.12248245144E+03  0.00000000000E+00 0.  1.
        -13    1    3    3    0    0 -0.43815266363E+02 -0.16293773139E+02 -0.10865376407E+03  0.11828315627E+03  0.00000000000E+00 0. -1.
         13    1    3    3    0    0 -0.96876763762E+02  0.11225945693E+03 -0.22477629187E+03  0.26927991833E+03  0.00000000000E+00 0.  1.
         21    1    1    2  502  501  0.56206654908E+02 -0.53778773210E+02 -0.23255005421E+02  0.81191993331E+02  0.00000000000E+00 0. -1.
<scales pt_clust_5="13000.00000" pt_clust_6="13000.00000" pt_clust_7="13000.00000" pt_clust_8="13000.00000" pt_clust_9="77.79039"></scales>
<clustering>
<clus scale="   77.790">  2  9  1 -1</clus>
<clus scale="   80.438">  5  6 -1 -1</clus>
<clus scale="  100.129">  7  8 -1 -1</clus>
<clus scale="  126.417">  1  5  2 -1</clus>
<clus scale="  126.417">  1  5  2 -1</clus>
</clustering>
</event>
<event>
 9    1  0.3846604E-005  0.9249510E+02  0.7546771E-02  0.1300750E+00
         -2   -1    0    0    0  501 -0.00000000000E+00  0.00000000000E+00  0.40104171273E+03  0.40104171273E+03  0.00000000000E+00 0.  1.
          1   -1    0    0  502    0  0.00000000000E+00 -0.00000000000E+00 -0.77059614775E+02  0.77059614775E+02  0.00000000000E+00 0. -1.
         23    2    1    2    0    0 -0.24874794742E+02 -0.59672555290E+01  0.22931112533E+03  0.24811299414E+03  0.91225556233E+02 0.  0.
        -24    2    1    2    0    0 -0.52565731810E+02  0.37407213349E+02  0.10013815485E+03  0.14623037147E+03  0.84812827518E+02 0.  0.
         13    1    4    4    0    0  0.13500107734E+02  0.21907800678E+02  0.64796126515E+02  0.69719026461E+02  0.00000000000E+00 0. -1.
        -14    1    4    4    0    0 -0.66065839544E+02  0.15499412671E+02  0.35342028333E+02  0.76511345005E+02  0.00000000000E+00 0.  1.
        -11    1    3    3    0    0 -0.43594235994E+02  0.20450152599E+02  0.19532595074E+03  0.20117378851E+03  0.00000000000E+00 0.  1.
         11    1    3    3    0    0  0.18719441251E+02 -0.26417408128E+02  0.33985174590E+02  0.46939205627E+02  0.00000000000E+00 0. -1.
         21    1    1    2  502  501  0.77440526552E+02 -0.31439957820E+02 -0.54671822193E+01  0.83757961901E+02  0.00000000000E+00 0. -1.
<scales pt_clust_5="13000.00000" pt_clust_6="13000.00000" pt_clust_7="13000.00000" pt_clust_8="13000.00000" pt_clust_9="83.57934"></scales>
<clustering>
<clus scale="   83.579">  2  9  1 -1</clus>
<clus scale="   84.813">  5  6 -1 -1</clus>
<clus scale="   86.177">  2  5  1 -1</clus>
<clus scale="   91.226">  7  8 -1 -1</clus>
<clus scale="   83.579">  2  5  1 -1</clus>
</clustering>
</event>
<event>
 9    1  0.3846604E-005  0.9787377E+02  0.7546771E-02  0.1293201E+00
          1   -1    0    0  502    0  0.00000000000E+00  0.00000000000E+00  0.13527307858E+03  0.13527307858E+03  0.00000000000E+00 0. -1.
         -2   -1    0    0    0  501 -0.00000000000E+00 -0.00000000000E+00 -0.10289383982E+03  0.10289383982E+03  0.00000000000E+00 0.  1.
        -24    2    1    2    0    0 -0.19538294742E+02  0.16559855567E+02 -0.29679603715E+02  0.86339538014E+02  0.76926348997E+02 0.  0.
         23    2    1    2    0    0  0.50119368932E+02 -0.21173345473E+02  0.42158238180E+02  0.11505075141E+03  0.92190545353E+02 0.  0.
         13    1    3    3    0    0  0.19132142137E+02  0.72088169651E+01 -0.40275521080E+02  0.45167726344E+02  0.00000000000E+00 0. -1.
        -14    1    3    3    0    0 -0.38670436879E+02  0.93510386018E+01  0.10595917366E+02  0.41171811670E+02  0.00000000000E+00 0.  1.
        -13    1    4    4    0    0 -0.16414566432E+02 -0.31496072701E+02 -0.17687380847E+00  0.35517205282E+02  0.00000000000E+00 0.  1.
         13    1    4    4    0    0  0.66533935363E+02  0.10322727228E+02  0.42335111989E+02  0.79533546126E+02  0.00000000000E+00 0. -1.
         21    1    1    2  502  501 -0.30581074190E+02  0.46134899062E+01  0.19900604296E+02  0.36776628979E+02  0.00000000000E+00 0.  1.
<scales pt_clust_5="13000.00000" pt_clust_6="13000.00000" pt_clust_7="13000.00000" pt_clust_8="13000.00000" pt_clust_9="30.92711"></scales>
<clustering>
<clus scale="   30.927">  1  9  2 -1</clus>
<clus scale="   76.926">  5  6 -1 -1</clus>
<clus scale="   83.653">  2  5  1 -1</clus>
<clus scale="   92.191">  7  8 -1 -1</clus>
<clus scale="   30.927">  1  5  2 -1</clus>
</clustering>
</event>
<event>
 9    1  0.3846604E-005  0.1434813E+03  0.7546771E-02  0.1211067E+00
         -4   -1    0    0    0  501 -0.00000000000E+00  0.00000000000E+00  0.60976358525E+02  0.60976358525E+02  0.00000000000E+00 0.  1.
          3   -1    0    0  502    0  0.00000000000E+00 -0.00000000000E+00 -0.52950177858E+03  0.52950177858E+03  0.00000000000E+00 0. -1.
        -24    2    1    2    0    0 -0.11335596814E+03 -0.58940993495E+02 -0.98379142930E+02  0.17947667580E+03  0.78802317014E+02 0.  0.
         23    2    1    2    0    0  0.95335138901E+02  0.46772092476E+02 -0.36173190980E+03  0.38768550077E+03  0.90408271729E+02 0.  0.
         13    1    3    3    0    0 -0.23944628766E+02  0.89309758500E+01 -0.52151515346E+02  0.58076571260E+02  0.00000000000E+00 0. -1.
        -14    1    3    3    0    0 -0.89411339370E+02 -0.67871969345E+02 -0.46227627584E+02  0.12140010454E+03  0.00000000000E+00 0.  1.
        -11    1    4    4    0    0  0.10891067199E+03  0.22216882030E+02 -0.27908334789E+03  0.30040412679E+03  0.00000000000E+00 0.  1.
         11    1    4    4    0    0 -0.13575533093E+02  0.24555210446E+02 -0.82648561904E+02  0.87281373979E+02  0.00000000000E+00 0. -1.
         21    1    1    2  502  501  0.18020829235E+02  0.12168901019E+02 -0.84143673326E+01  0.23315960540E+02  0.00000000000E+00 0.  1.
<scales pt_clust_5="13000.00000" pt_clust_6="13000.00000" pt_clust_7="13000.00000" pt_clust_8="13000.00000" pt_clust_9="21.74471"></scales>
<clustering>
<clus scale="   21.745">  1  9  2 -1</clus>
<clus scale="   78.802">  5  6 -1 -1</clus>
<clus scale="   90.408">  7  8 -1 -1</clus>
<clus scale="  136.466">  1  5  2 -1</clus>
<clus scale="  143.481">  2  5  1 -1</clus>
</clustering>
</event>
<event>
 9    1  0.3846604E-005  0.1425333E+03  0.7546771E-02  0.1214626E+00
          1   -1    0    0  502    0  0.00000000000E+00  0.00000000000E+00  0.27829925683E+03  0.27829925683E+03  0.00000000000E+00 0. -1.
         -2   -1    0    0    0  501 -0.00000000000E+00 -0.00000000000E+00 -0.15548678260E+03  0.15548678260E+03  0.00000000000E+00 0.  1.
        -24    2    1    2    0    0  0.19861465177E+02 -0.84734334773E+02 -0.83188391702E+02  0.16282781734E+03  0.10962757088E+03 0.  0.
         23    2    1    2    0    0 -0.23930560307E+02  0.11068732583E+03  0.19276040525E+03  0.24154011408E+03  0.91436847377E+02 0.  0.
         13    1    3    3    0    0  0.49154105584E+02  0.43362799659E+00 -0.21438785257E+02  0.53627750673E+02  0.00000000000E+00 0. -1.
        -14    1    3    3    0    0 -0.29292640407E+02 -0.85167962770E+02 -0.61749606446E+02  0.10920006667E+03  0.00000000000E+00 0.  1.
        -11    1    4    4    0    0 -0.85005653286E+01  0.95961369984E+02  0.75613576408E+02  0.12246737148E+03  0.00000000000E+00 0. -1.
         11    1    4    4    0    0 -0.15429994978E+02  0.14725955847E+02  0.11714682885E+03  0.11907274260E+03  0.00000000000E+00 0.  1.
         21    1    1    2  502  501  0.40690951305E+01 -0.25952991058E+02  0.13240460678E+02  0.29418108012E+02  0.00000000000E+00 0.  1.
<scales pt_clust_5="13000.00000" pt_clust_6="13000.00000" pt_clust_7="13000.00000" pt_clust_8="13000.00000" pt_clust_9="26.27005"></scales>
<clustering>
<clus scale="   26.270">  1  9  2 -1</clus>
<clus scale="   91.437">  7  8 -1 -1</clus>
<clus scale="  109.628">  5  6 -1 -1</clus>
<clus scale="  129.067">  1  7  2 -1</clus>
<clus scale="   26.270">  1  5  2 -1</clus>
</clustering>
</event>
<event>
 9    1  0.3846604E-005  0.1026230E+03  0.7546771E-02  0.1279210E+00
         -2   -1    0    0    0  501 -0.00000000000E+00  0.00000000000E+00  0.35639801272E+03  0.35639801272E+03  0.00000000000E+00 0.  1.
          1   -1    0    0  502    0  0.00000000000E+00 -0.00000000000E+00 -0.44149045562E+03  0.44149045562E+03  0.00000000000E+00 0. -1.
         23    2    1    2    0    0  0.27259550587E+02 -0.18386819609E+01  0.19609318973E+03  0.21803216146E+03  0.91318237628E+02 0.  0.
        -24    2    1    2    0    0  0.39714824695E+02 -0.28101325094E+02 -0.41577322203E+03  0.42657294123E+03  0.82037493057E+02 0.  0.
         13    1    4    4    0    0  0.24072280236E+02 -0.50003145007E+02 -0.15927006396E+03  0.16866162118E+03  0.00000000000E+00 0. -1.
        -14    1    4    4    0    0  0.15642544458E+02  0.21901819913E+02 -0.25650315807E+03  0.25791132005E+03  0.00000000000E+00 0.  1.
        -11    1    3    3    0    0 -0.16160243334E+02  0.27803804545E+02  0.12815195693E+03  0.13212542933E+03  0.00000000000E+00 0.  1.
         11    1    3    3    0    0  0.43419793921E+02 -0.29642486505E+02  0.67941232798E+02  0.85906732126E+02  0.00000000000E+00 0. -1.
         21    1    1    2  502  501 -0.66974375282E+02  0.29940007055E+02  0.13458758939E+03  0.15328336565E+03  0.00000000000E+00 0.  1.
<scales pt_clust_5="13000.00000" pt_clust_6="13000.00000" pt_clust_7="13000.00000" pt_clust_8="13000.00000" pt_clust_9="73.36192"></scales>
<clustering>
<clus scale="   73.362">  1  9  2 -1</clus>
<clus scale="   82.037">  5  6 -1 -1</clus>
<clus scale="   91.318">  7  8 -1 -1</clus>
<clus scale="   94.460">  2  5  1 -1</clus>
<clus scale="   94.460">  2  5  1 -1</clus>
</clustering>
</event>
<event>
 9    1  0.3846604E-005  0.1472636E+03  0.7546771E-02  0.1207090E+00
          1   -1    0    0  502    0  0.00000000000E+00  0.00000000000E+00  0.38063290123E+03  0.38063290123E+03  0.00000000000E+00 0. -1.
         -2   -1    0    0    0  501 -0.00000000000E+00 -0.00000000000E+00 -0.16869654717E+03  0.16869654717E+03  0.00000000000E+00 0.  1.
         23    2    1    2    0    0 -0.80929130185E+02  0.10759354777E+03 -0.52615293302E+01  0.16431769613E+03  0.94057035543E+02 0.  0.
        -24    2    1    2    0    0  0.58914025837E+02 -0.92384024129E+02  0.28338463038E+03  0.31362071707E+03  0.77752396006E+02 0.  0.
         11    1    4    4    0    0  0.36974365814E+02 -0.10094910111E+03  0.25500753204E+03  0.27674296042E+03  0.00000000000E+00 0. -1.
        -12    1    4    4    0    0  0.21939660023E+02  0.85650769818E+01  0.28377098343E+02  0.36877756656E+02  0.00000000000E+00 0.  1.
        -11    1    3    3    0    0 -0.26046233762E+02  0.32378361349E+02  0.42698907107E+02  0.59581551213E+02  0.00000000000E+00 0. -1.
         11    1    3    3    0    0 -0.54882896423E+02  0.75215186421E+02 -0.47960436437E+02  0.10473614491E+03  0.00000000000E+00 0.  1.
         21    1    1    2  502  501  0.22015104348E+02 -0.15209523640E+02 -0.66186747001E+02  0.71391035203E+02  0.00000000000E+00 0.  1.
<scales pt_clust_5="13000.00000" pt_clust_6="13000.00000" pt_clust_7="13000.00000" pt_clust_8="13000.00000" pt_clust_9="26.75807"></scales>
<clustering>
<clus scale="   26.758">  2  9  1 -1</clus>
<clus scale="   77.752">  5  6 -1 -1</clus>
<clus scale="   94.057">  7  8 -1 -1</clus>
<clus scale="  137.424">  1  5  2 -1</clus>
<clus scale="  137.424">  1  5  2 -1</clus>
</clustering>
</event>
<event>
 9    1  0.3846604E-005  0.1122710E+03  0.7546771E-02  0.1267832E+00
          3   -1    0    0  502    0  0.00000000000E+00  0.00000000000E+00  0.18924437265E+03  0.18924437265E+03  0.00000000000E+00 0. -1.
         -4   -1    0    0    0  501 -0.00000000000E+00 -0.00000000000E+00 -0.15469822414E+03  0.15469822414E+03  0.00000000000E+00 0.  1.
        -24    2    1    2    0    0 -0.58892209975E+01  0.29249521879E+01 -0.95064625092E+02  0.12254310488E+03  0.77047331815E+02 0.  0.
         23    2    1    2    0    0  0.53968989898E+02  0.74929641606E+01  0.12722269971E+03  0.17214606507E+03  0.10237116788E+03 0.  0.
         11    1    3    3    0    0  0.15757488229E+02 -0.21467625042E+02 -0.54543563570E+01  0.27182850541E+02  0.00000000000E+00 0. -1.
        -12    1    3    3    0    0 -0.21646709227E+02  0.24392577230E+02 -0.89610268735E+02  0.95360254336E+02  0.00000000000E+00 0.  1.
        -13    1    4    4    0    0 -0.25945147419E+02  0.16495813349E+02  0.59645330225E+02  0.67103114312E+02  0.00000000000E+00 0.  1.
         13    1    4    4    0    0  0.79914137317E+02 -0.90028491887E+01  0.67577369487E+02  0.10504295076E+03  0.00000000000E+00 0. -1.
         21    1    1    2  502  501 -0.48079768901E+02 -0.10417916348E+02  0.23880738874E+01  0.49253426840E+02  0.00000000000E+00 0. -1.
<scales pt_clust_5="13000.00000" pt_clust_6="13000.00000" pt_clust_7="13000.00000" pt_clust_8="13000.00000" pt_clust_9="49.19550"></scales>
<clustering>
<clus scale="   49.195">  2  9  1 -1</clus>
<clus scale="   77.047">  5  6 -1 -1</clus>
<clus scale="   89.784">  2  5  1 -1</clus>
<clus scale="  102.371">  7  8 -1 -1</clus>
<clus scale="  112.271">  1  5  2 -1</clus>
</clustering>
</event>
<event>
 9    1  0.3846604E-005  0.1599478E+03  0.7546771E-02  0.1190588E+00
         -4   -1    0    0    0  501 -0.00000000000E+00  0.00000000000E+00  0.86826332163E+03  0.86826332163E+03  0.00000000000E+00 0.  1.
          3   -1    0    0  502    0  0.00000000000E+00 -0.00000000000E+00 -0.43786299886E+02  0.43786299886E+02  0.00000000000E+00 0. -1.
        -24    2    1    2    0    0 -0.11193957752E+03  0.33595094929E+02  0.47470486184E+03  0.49534917789E+03  0.79793500770E+02 0.  0.
         23    2    1    2    0    0  0.12686270740E+03 -0.53465830180E+02  0.17702391233E+03  0.24217393285E+03  0.91422134557E+02 0.  0.
         13    1    3    3    0    0 -0.68080960143E+02 -0.97641214186E+01  0.34421514534E+03  0.35101911840E+03  0.00000000000E+00 0. -1.
        -14    1    3    3    0    0 -0.43858617381E+02  0.43359216348E+02  0.13048971650E+03  0.14433005949E+03  0.00000000000E+00 0.  1.
        -13    1    4    4    0    0  0.40533838394E+02  0.14987197054E+02  0.14028893778E+02  0.45435866792E+02  0.00000000000E+00 0. -1.
         13    1    4    4    0    0  0.86328869008E+02 -0.68453027234E+02  0.16299501855E+03  0.19673806606E+03  0.00000000000E+00 0.  1.
         21    1    1    2  502  501 -0.14923129878E+02  0.19870735251E+02  0.17274824757E+03  0.17452651077E+03  0.00000000000E+00 0. -1.
<scales pt_clust_5="13000.00000" pt_clust_6="13000.00000" pt_clust_7="13000.00000" pt_clust_8="13000.00000" pt_clust_9="24.85047"></scales>
<clustering>
<clus scale="   24.850">  1  9  2 -1</clus>
<clus scale="   79.794">  5  6 -1 -1</clus>
<clus scale="   91.422">  7  8 -1 -1</clus>
<clus scale="  153.598">  1  5  2 -1</clus>
<clus scale="  159.948">  2  5  1 -1</clus>
</clustering>
</event>
<event>
 9    1  0.3846604E-005  0.9548858E+02  0.7546771E-02  0.1293196E+00
          3   -1    0    0  502    0  0.00000000000E+00  0.00000000000E+00  0.84570665099E+03  0.84570665099E+03  0.00000000000E+00 0. -1.
         -4   -1    0    0    0  501 -0.00000000000E+00 -0.00000000000E+00 -0.24376050607E+02  0.24376050607E+02  0.00000000000E+00 0.  1.
         23    2    1    2    0    0 -0.51584069367E+02 -0.24671661475E+02  0.21749881348E+03  0.24127805989E+03  0.87405727648E+02 0.  0.
        -24    2    1    2    0    0  0.32222340219E+02  0.91756336653E+01  0.59646428031E+03  0.60293412593E+03  0.81470553302E+02 0.  0.
         13    1    4    4    0    0 -0.19108105018E+02 -0.12007576690E+02  0.69966032232E+02  0.73515625833E+02  0.00000000000E+00 0. -1.
        -14    1    4    4    0    0  0.51330445237E+02  0.21183210355E+02  0.52649824808E+03  0.52941850010E+03  0.00000000000E+00 0.  1.
        -13    1    3    3    0    0 -0.59510049125E+02  0.13886141865E+02  0.98284548512E+02  0.11573298302E+03  0.00000000000E+00 0.  1.
         13    1    3    3    0    0  0.79259797587E+01 -0.38557803340E+02  0.11921426497E+03  0.12554507687E+03  0.00000000000E+00 0. -1.
         21    1    1    2  502  501  0.19361729147E+02  0.15496027810E+02  0.73675065883E+01  0.25870515781E+02  0.00000000000E+00 0.  1.
<scales pt_clust_5="13000.00000" pt_clust_6="13000.00000" pt_clust_7="13000.00000" pt_clust_8="13000.00000" pt_clust_9="24.79926"></scales>
<clustering>
<clus scale="   24.799">  2  9  1 -1</clus>
<clus scale="   81.471">  5  6 -1 -1</clus>
<clus scale="   87.406">  7  8 -1 -1</clus>
<clus scale="   90.088">  1  5  2 -1</clus>
<clus scale="   90.088">  1  5  2 -1</clus>
</clustering>
</event>
<event>
 9    1  0.3846604E-005  0.1419819E+03  0.7546771E-02  0.1212994E+00
          3   -1    0    0  502    0  0.00000000000E+00  0.00000000000E+00  0.19386213333E+03  0.19386213333E+03  0.00000000000E+00 0. -1.
         -4   -1    0    0    0  501 -0.00000000000E+00 -0.00000000000E+00 -0.17349088890E+03  0.17349088890E+03  0.00000000000E+00 0.  1.
         23    2    1    2    0    0  0.79467850945E+02  0.67817003500E+02 -0.79252106091E+02  0.15826873837E+03  0.88621735082E+02 0.  0.
        -24    2    1    2    0    0 -0.10845941521E+03 -0.73373018044E+02  0.70391038296E+02  0.16754023284E+03  0.77251451926E+02 0.  0.
         11    1    4    4    0    0 -0.66960301798E+02 -0.60638798632E+02  0.82642189244E+02  0.12243560495E+03  0.00000000000E+00 0. -1.
        -12    1    4    4    0    0 -0.41499113409E+02 -0.12734219412E+02 -0.12251150948E+02  0.45104627893E+02  0.00000000000E+00 0.  1.
        -11    1    3    3    0    0  0.49923422129E+02  0.43607146845E+02  0.42727986977E+01  0.66424303848E+02  0.00000000000E+00 0. -1.
         11    1    3    3    0    0  0.29544428816E+02  0.24209856655E+02 -0.83524904789E+02  0.91844434525E+02  0.00000000000E+00 0.  1.
         21    1    1    2  502  501  0.28991564262E+02  0.55560145442E+01  0.29232312230E+02  0.41544051010E+02  0.00000000000E+00 0.  1.
<scales pt_clust_5="13000.00000" pt_clust_6="13000.00000" pt_clust_7="13000.00000" pt_clust_8="13000.00000" pt_clust_9="29.51915"></scales>
<clustering>
<clus scale="   29.519">  1  9  2 -1</clus>
<clus scale="   77.251">  5  6 -1 -1</clus>
<clus scale="   88.622">  7  8 -1 -1</clus>
<clus scale="  135.177">  1  5  2 -1</clus>
<clus scale="   29.519">  1  5  2 -1</clus>
</clustering>
</event>
<event>
 9    1  0.3846604E-005  0.1115945E+03  0.7546771E-02  0.1261740E+00
         -4   -1    0    0    0  501 -0.00000000000E+00  0.00000000000E+00  0.94802292525E+02  0.94802292525E+02  0.00000000000E+00 0.  1.
          3   -1    0    0  502    0  0.00000000000E+00 -0.00000000000E+00 -0.49330528429E+03  0.49330528429E+03  0.00000000000E+00 0. -1.
         23    2    1    2    0    0  0.49579126874E+02  0.48552110044E+02 -0.17455153001E+01  0.11478300114E+03  0.91414951274E+02 0.  0.
        -24    2    1    2    0    0 -0.57002703418E+02 -0.28531310813E+02 -0.42537419740E+03  0.43761941347E+03  0.80648616450E+02 0.  0.
         13    1    4    4    0    0 -0.63439906447E+02 -0.21404816701E+01 -0.37549934786E+03  0.38082668451E+03  0.00000000000E+00 0. -1.
        -14    1    4    4    0    0  0.64372030287E+01 -0.26390829143E+02 -0.49874849543E+02  0.56792728959E+02  0.00000000000E+00 0.  1.
        -13    1    3    3    0    0  0.18656181450E+02  0.68098430553E+02  0.18473971585E+02  0.72984498191E+02  0.00000000000E+00 0. -1.
         13    1    3    3    0    0  0.30922945424E+02 -0.19546320509E+02 -0.20219486885E+02  0.41798502952E+02  0.00000000000E+00 0.  1.
         21    1    1    2  502  501  0.74235765445E+01 -0.20020799231E+02  0.28616720939E+02  0.35705162202E+02  0.00000000000E+00 0.  1.
<scales pt_clust_5="13000.00000" pt_clust_6="13000.00000" pt_clust_7="13000.00000" pt_clust_8="13000.00000" pt_clust_9="21.35280"></scales>
<clustering>
<clus scale="   21.353">  1  9  2 -1</clus>
<clus scale="   80.649">  5  6 -1 -1</clus>
<clus scale="   91.415">  7  8 -1 -1</clus>
<clus scale="  102.960">  2  5  1 -1</clus>
<clus scale="  102.960">  2  5  1 -1</clus>
</clustering>
</event>
<event>
 9    1  0.3846604E-005  0.1206625E+03  0.7546771E-02  0.1245670E+00
         -2   -1    0    0    0  501 -0.00000000000E+00  0.00000000000E+00  0.70204716361E+02  0.70204716361E+02  0.00000000000E+00 0.  1.
          1   -1    0    0  502    0  0.00000000000E+00 -0.00000000000E+00 -0.35152621339E+03  0.35152621339E+03  0.00000000000E+00 0. -1.
        -24    2    1    2    0    0  0.56341559620E+02 -0.64982196865E+02 -0.69746181664E+02  0.13745211511E+03  0.81434002975E+02 0.  0.
         23    2    1    2    0    0 -0.19102482491E+02  0.73107830565E+02 -0.21490358969E+03  0.24601849318E+03  0.92907945817E+02 0.  0.
         11    1    3    3    0    0 -0.10562681452E+02 -0.17732993621E+02 -0.48687305970E+02  0.52881783866E+02  0.00000000000E+00 0. -1.
        -12    1    3    3    0    0  0.66904241072E+02 -0.47249203244E+02 -0.21058875694E+02  0.84570331240E+02  0.00000000000E+00 0.  1.
        -11    1    4    4    0    0 -0.62721057872E+00  0.91265663415E+02 -0.18612927286E+03  0.20730152177E+03  0.00000000000E+00 0. -1.
         11    1    4    4    0    0 -0.18475271913E+02 -0.18157832850E+02 -0.28774316833E+02  0.38716971411E+02  0.00000000000E+00 0.  1.
         21    1    1    2  502  501 -0.37239077129E+02 -0.81256336999E+01  0.33282743304E+01  0.38260321463E+02  0.00000000000E+00 0.  1.
<scales pt_clust_5="13000.00000" pt_clust_6="13000.00000" pt_clust_7="13000.00000" pt_clust_8="13000.00000" pt_clust_9="38.11528"></scales>
<clustering>
<clus scale="   38.115">  1  9  2 -1</clus>
<clus scale="   81.434">  5  6 -1 -1</clus>
<clus scale="   92.908">  7  8 -1 -1</clus>
<clus scale="  112.067">  1  5  2 -1</clus>
<clus scale="  120.663">  2  5  1 -1</clus>
</clustering>
</event>
<event>
 9    1  0.3846604E-005  0.4383398E+03  0.7546771E-02  0.1081551E+00
         -2   -1    0    0    0  501 -0.00000000000E+00  0.00000000000E+00  0.22251497680E+03  0.22251497680E+03  0.00000000000E+00 0.  1.
          1   -1    0    0  502    0  0.00000000000E+00 -0.00000000000E+00 -0.13665009859E+04  0.13665009859E+04  0.00000000000E+00 0. -1.
        -24    2    1    2    0    0 -0.12424236722E+03  0.39796524141E+03 -0.17767976393E+03  0.46020843032E+03  0.80057489613E+02 0.  0.
         23    2    1    2    0    0 -0.53707042998E+02  0.32331723074E+02 -0.27999617615E+03  0.29944453521E+03  0.85670206160E+02 0.  0.
         13    1    3    3    0    0  0.90738877190E+00  0.54734320104E+02 -0.18753639669E+01  0.54773954957E+02  0.00000000000E+00 0. -1.
        -14    1    3    3    0    0 -0.12514975599E+03  0.34323092131E+03 -0.17580439996E+03  0.40543447536E+03  0.00000000000E+00 0.  1.
        -11    1    4    4    0    0 -0.36875937915E+02  0.61926770405E+02 -0.19373925078E+03  0.20671153084E+03  0.00000000000E+00 0. -1.
         11    1    4    4    0    0 -0.16831105084E+02 -0.29595047331E+02 -0.86256925376E+02  0.92733004374E+02  0.00000000000E+00 0.  1.
         21    1    1    2  502  501  0.17794941022E+03 -0.43029696448E+03 -0.68631006900E+03  0.82936299716E+03  0.00000000000E+00 0. -1.
<scales pt_clust_5="13000.00000" pt_clust_6="13000.00000" pt_clust_7="13000.00000" pt_clust_8="13000.00000" pt_clust_9="430.96705"></scales>
<clustering>
<clus scale="   80.057">  5  6 -1 -1</clus>
<clus scale="   85.670">  7  8 -1 -1</clus>
<clus scale="  106.156">  2  7  1 -1</clus>
<clus scale="  430.967">  2  9  1 -1</clus>
<clus scale="  106.156">  2  5  1 -1</clus>
</clustering>
</event>
<event>
 9    1  0.3846604E-005  0.9235649E+02  0.7546771E-02  0.1307035E+00
         -4   -1    0    0    0  501 -0.00000000000E+00  0.00000000000E+00  0.21417174621E+02  0.21417174621E+02  0.00000000000E+00 0.  1.
          3   -1    0    0  502    0  0.00000000000E+00 -0.00000000000E+00 -0.53940119974E+03  0.53940119974E+03  0.00000000000E+00 0. -1.
        -24    2    1    2    0    0 -0.35259676511E+01 -0.95073496799E+01 -0.14252760096E+03  0.16230917542E+03  0.76989150163E+02 0.  0.
         23    2    1    2    0    0 -0.62372264096E+01 -0.12711989477E+02 -0.35408324090E+03  0.36616987376E+03  0.92222216927E+02 0.  0.
         13    1    3    3    0    0  0.15430579140E+02 -0.19142595294E+02 -0.13850107424E+03  0.14066658912E+03  0.00000000000E+00 0. -1.
        -14    1    3    3    0    0 -0.18956546791E+02  0.96352456144E+01 -0.40265267165E+01  0.21642586298E+02  0.00000000000E+00 0.  1.
        -11    1    4    4    0    0 -0.15509228122E+00  0.36675377954E+02 -0.85784634372E+02  0.93295824644E+02  0.00000000000E+00 0.  1.
         11    1    4    4    0    0 -0.60821341284E+01 -0.49387367431E+02 -0.26829860652E+03  0.27287404911E+03  0.00000000000E+00 0. -1.
         21    1    1    2  502  501  0.97631940607E+01  0.22219339157E+02 -0.21373183265E+02  0.32339325190E+02  0.00000000000E+00 0.  1.
<scales pt_clust_5="13000.00000" pt_clust_6="13000.00000" pt_clust_7="13000.00000" pt_clust_8="13000.00000" pt_clust_9="24.26971"></scales>
<clustering>
<clus scale="   24.270">  1  9  2 -1</clus>
<clus scale="   76.989">  5  6 -1 -1</clus>
<clus scale="   77.150">  1  5  2 -1</clus>
<clus scale="   92.222">  7  8 -1 -1</clus>
<clus scale="   92.356">  2  5  1 -1</clus>
</clustering>
</event>
<event>
 9    1  0.3846604E-005  0.1176458E+03  0.7546771E-02  0.1249910E+00
          1   -1    0    0  502    0  0.00000000000E+00  0.00000000000E+00  0.60783574905E+03  0.60783574905E+03  0.00000000000E+00 0. -1.
         -2   -1    0    0    0  501 -0.00000000000E+00 -0.00000000000E+00 -0.10916419664E+03  0.10916419664E+03  0.00000000000E+00 0.  1.
        -24    2    1    2    0    0  0.63691007998E+02  0.28735776289E+02 -0.68603869867E+02  0.13144331295E+03  0.87684458258E+02 0.  0.
         23    2    1    2    0    0 -0.39906105601E+02 -0.88080879431E+01  0.50870031019E+03  0.51927029855E+03  0.95893470540E+02 0.  0.
         13    1    3    3    0    0 -0.20091982089E+02  0.10813489763E+02 -0.29416672706E+02  0.37228482889E+02  0.00000000000E+00 0. -1.
        -14    1    3    3    0    0  0.83782990087E+02  0.17922286526E+02 -0.39187197160E+02  0.94214830062E+02  0.00000000000E+00 0.  1.
        -11    1    4    4    0    0 -0.53758349565E+01  0.42254968795E+02  0.20865511528E+03  0.21295853850E+03  0.00000000000E+00 0.  1.
         11    1    4    4    0    0 -0.34530270644E+02 -0.51063056738E+02  0.30004519491E+03  0.30631176004E+03  0.00000000000E+00 0. -1.
         21    1    1    2  502  501 -0.23784902397E+02 -0.19927688345E+02  0.58575112094E+02  0.66286334200E+02  0.00000000000E+00 0. -1.
<scales pt_clust_5="13000.00000" pt_clust_6="13000.00000" pt_clust_7="13000.00000" pt_clust_8="13000.00000" pt_clust_9="31.02957"></scales>
<clustering>
<clus scale="   31.030">  1  9  2 -1</clus>
<clus scale="   87.684">  5  6 -1 -1</clus>
<clus scale="   95.893">  7  8 -1 -1</clus>
<clus scale="  111.056">  2  5  1 -1</clus>
<clus scale="   31.030">  1  5  2 -1</clus>
</clustering>
</event>
<event>
 9    1  0.3846604E-005  0.9618824E+02  0.7546771E-02  0.1293755E+00
         -2   -1    0    0    0  501 -0.00000000000E+00  0.00000000000E+00  0.33442760989E+02  0.33442760989E+02  0.00000000000E+00 0.  1.
          1   -1    0    0  502    0  0.00000000000E+00 -0.00000000000E+00 -0.45203216931E+03  0.45203216931E+03  0.00000000000E+00 0. -1.
         23    2    1    2    0    0  0.34306417896E+02  0.11719188176E+02 -0.86015257143E+02  0.12942911980E+03  0.89660486898E+02 0.  0.
        -24    2    1    2    0    0 -0.36004646025E+02  0.23540191314E+02 -0.25864712750E+03  0.27412320891E+03  0.79967005424E+02 0.  0.
         11    1    4    4    0    0 -0.39649585243E+02 -0.15186749141E+02 -0.19469174082E+03  0.19926766146E+03  0.00000000000E+00 0. -1.
        -12    1    4    4    0    0  0.36449392176E+01  0.38726940455E+02 -0.63955386682E+02  0.74855547454E+02  0.00000000000E+00 0.  1.
        -11    1    3    3    0    0 -0.23723400324E+01  0.25390556122E+02  0.86996448741E+01  0.26944241655E+02  0.00000000000E+00 0.  1.
         11    1    3    3    0    0  0.36678757928E+02 -0.13671367945E+02 -0.94714902017E+02  0.10248487815E+03  0.00000000000E+00 0. -1.
         21    1    1    2  502  501  0.16982281293E+01 -0.35259379490E+02 -0.73927023670E+02  0.81922601580E+02  0.00000000000E+00 0. -1.
<scales pt_clust_5="13000.00000" pt_clust_6="13000.00000" pt_clust_7="13000.00000" pt_clust_8="13000.00000" pt_clust_9="35.30025"></scales>
<clustering>
<clus scale="   35.300">  2  9  1 -1</clus>
<clus scale="   79.967">  5  6 -1 -1</clus>
<clus scale="   87.223">  2  5  1 -1</clus>
<clus scale="   89.660">  7  8 -1 -1</clus>
<clus scale="   35.300">  2  5  1 -1</clus>
</clustering>
</event>
<event>
 9    1  0.3846604E-005  0.1057086E+03  0.7546771E-02  0.1272883E+00
          1   -1    0    0  502    0  0.00000000000E+00  0.00000000000E+00  0.82936825617E+02  0.82936825617E+02  0.00000000000E+00 0. -1.
         -2   -1    0    0    0  501 -0.00000000000E+00 -0.00000000000E+00 -0.28034341854E+03  0.28034341854E+03  0.00000000000E+00 0.  1.
         23    2    1    2    0    0 -0.12155747451E+02  0.29168360351E+02 -0.18389587639E+03  0.20718215419E+03  0.90045523050E+02 0.  0.
        -24    2    1    2    0    0  0.49990839744E+02 -0.35308937827E+02  0.22551110259E+02  0.10347056625E+03  0.80323099774E+02 0.  0.
         11    1    4    4    0    0  0.64859068814E+02 -0.42541039744E+02  0.26684831083E+01  0.77611594959E+02  0.00000000000E+00 0. -1.
        -12    1    4    4    0    0 -0.14868229070E+02  0.72321019168E+01  0.19882627150E+02  0.25858971291E+02  0.00000000000E+00 0.  1.
        -11    1    3    3    0    0 -0.75795992959E+01  0.49471078069E+02 -0.17891380309E+03  0.18578209501E+03  0.00000000000E+00 0.  1.
         11    1    3    3    0    0 -0.45761481552E+01 -0.20302717718E+02 -0.49820733021E+01  0.21400059184E+02  0.00000000000E+00 0. -1.
         21    1    1    2  502  501 -0.37835092293E+02  0.61405774768E+01 -0.36061826789E+02  0.52627523710E+02  0.00000000000E+00 0.  1.
<scales pt_clust_5="13000.00000" pt_clust_6="13000.00000" pt_clust_7="13000.00000" pt_clust_8="13000.00000" pt_clust_9="38.33016"></scales>
<clustering>
<clus scale="   38.330">  2  9  1 -1</clus>
<clus scale="   80.323">  5  6 -1 -1</clus>
<clus scale="   90.046">  7  8 -1 -1</clus>
<clus scale="   97.560">  1  5  2 -1</clus>
<clus scale="   97.560">  1  5  2 -1</clus>
</clustering>
</event>
<event>
 9    1  0.4167326E-005  0.1000830E+03  0.7546771E-02  0.1288268E+00
          1   -1    0    0  502    0  0.00000000000E+00  0.00000000000E+00  0.15587099877E+03  0.15587099877E+03  0.00000000000E+00 0. -1.
         -2   -1    0    0    0  501 -0.00000000000E+00 -0.00000000000E+00 -0.31389823066E+03  0.31389823066E+03  0.00000000000E+00 0.  1.
        -24    2    1    2    0    0  0.32844322508E+02  0.22067757914E+02 -0.23412603691E+03  0.25043469640E+03  0.79604023410E+02 0.  0.
         23    2    1    2    0    0 -0.56999003979E+01 -0.31761646246E+02  0.12645027888E+03  0.16131675952E+03  0.94826857148E+02 0.  0.
         13    1    3    3    0    0  0.16785692131E+02 -0.12471850675E+02 -0.10153852728E+02  0.23246660939E+02  0.00000000000E+00 0. -1.
        -14    1    3    3    0    0  0.16058630376E+02  0.34539608589E+02 -0.22397218418E+03  0.22718803546E+03  0.00000000000E+00 0.  1.
        -13    1    4    4    0    0  0.72037033538E+01  0.32779698474E+02  0.33474421036E+02  0.47401886436E+02  0.00000000000E+00 0.  1.
         13    1    4    4    0    0 -0.12903603752E+02 -0.64541344719E+02  0.92975857847E+02  0.11391487309E+03  0.00000000000E+00 0. -1.
         21    1    1    2  502  501 -0.27144422110E+02  0.96938883316E+01 -0.50351473858E+02  0.58017773504E+02  0.00000000000E+00 0.  1.
<scales pt_clust_5="13000.00000" pt_clust_6="13000.00000" pt_clust_7="13000.00000" pt_clust_8="13000.00000" pt_clust_9="28.82345"></scales>
<clustering>
<clus scale="   28.823">  2  9  1 -1</clus>
<clus scale="   79.604">  5  6 -1 -1</clus>
<clus scale="   85.798">  2  5  1 -1</clus>
<clus scale="   94.827">  7  8 -1 -1</clus>
<clus scale="  100.083">  1  5  2 -1</clus>
</clustering>
</event>
<event>
 9    1  0.3846604E-005  0.1073290E+03  0.7546771E-02  0.1271252E+00
         -2   -1    0    0    0  501 -0.00000000000E+00  0.00000000000E+00  0.22645657044E+03  0.22645657044E+03  0.00000000000E+00 0.  1.
          1   -1    0    0  502    0  0.00000000000E+00 -0.00000000000E+00 -0.29721615637E+03  0.29721615637E+03  0.00000000000E+00 0. -1.
         23    2    1    2    0    0 -0.78632199124E+02  0.13789642199E+02  0.95258233228E+02  0.15509784516E+03  0.92779489133E+02 0.  0.
        -24    2    1    2    0    0  0.48597131471E+02 -0.19303163450E+02 -0.25621408782E+03  0.27334951168E+03  0.79624138501E+02 0.  0.
         11    1    4    4    0    0  0.79615998948E+01 -0.45300883390E+02 -0.10514339693E+03  0.11476363111E+03  0.00000000000E+00 0. -1.
        -12    1    4    4    0    0  0.40635531576E+02  0.25997719940E+02 -0.15107069089E+03  0.15858588057E+03  0.00000000000E+00 0.  1.
        -13    1    3    3    0    0 -0.69997617997E+01 -0.32439809996E+02  0.10322338579E+02  0.34754691936E+02  0.00000000000E+00 0. -1.
         13    1    3    3    0    0 -0.71632437324E+02  0.46229452196E+02  0.84935894649E+02  0.12034315322E+03  0.00000000000E+00 0.  1.
         21    1    1    2  502  501  0.30035067653E+02  0.55135212508E+01  0.90196268666E+02  0.95225369975E+02  0.00000000000E+00 0. -1.
<scales pt_clust_5="13000.00000" pt_clust_6="13000.00000" pt_clust_7="13000.00000" pt_clust_8="13000.00000" pt_clust_9="30.53693"></scales>
<clustering>
<clus scale="   30.537">  1  9  2 -1</clus>
<clus scale="   79.624">  5  6 -1 -1</clus>
<clus scale="   92.779">  7  8 -1 -1</clus>
<clus scale="   96.185">  2  5  1 -1</clus>
<clus scale="   96.185">  2  5  1 -1</clus>
</clustering>
</event>
<event>
 9    1  0.3846604E-005  0.2311682E+03  0.7546771E-02  0.1170003E+00
          1   -1    0    0  502    0  0.00000000000E+00  0.00000000000E+00  0.14209764937E+04  0.14209764937E+04  0.00000000000E+00 0. -1.
         -2   -1    0    0    0  501 -0.00000000000E+00 -0.00000000000E+00 -0.11208800653E+03  0.11208800653E+03  0.00000000000E+00 0.  1.
         23    2    1    2    0    0  0.21146609192E+03  0.15631414861E+01  0.45631501611E+02  0.23615622187E+03  0.94695172758E+02 0.  0.
        -24    2    1    2    0    0 -0.39546630352E+01  0.87702638175E+00  0.47327365549E+03  0.48012151958E+03  0.80698897464E+02 0.  0.
         13    1    4    4    0    0  0.13394725614E+02  0.34372427299E+02  0.14225386459E+03  0.14695932915E+03  0.00000000000E+00 0. -1.
        -14    1    4    4    0    0 -0.17349388649E+02 -0.33495400917E+02  0.33101979090E+03  0.33316219043E+03  0.00000000000E+00 0.  1.
        -11    1    3    3    0    0  0.51498447648E+01 -0.19825507964E+02  0.17293583497E+02  0.26807456002E+02  0.00000000000E+00 0. -1.
         11    1    3    3    0    0  0.20631624716E+03  0.21388649450E+02  0.28337918114E+02  0.20934876587E+03  0.00000000000E+00 0.  1.
         21    1    1    2  502  501 -0.20751142889E+03 -0.24401678678E+01  0.78998333010E+03  0.81678675882E+03  0.00000000000E+00 0. -1.
<scales pt_clust_5="13000.00000" pt_clust_6="13000.00000" pt_clust_7="13000.00000" pt_clust_8="13000.00000" pt_clust_9="210.88283"></scales>
<clustering>
<clus scale="   80.699">  5  6 -1 -1</clus>
<clus scale="   80.800">  1  5  2 -1</clus>
<clus scale="   94.695">  7  8 -1 -1</clus>
<clus scale="  210.883">  1  9  2 -1</clus>
<clus scale="   80.800">  1  5  2 -1</clus>
</clustering>
</event>
<event>
 9    1  0.3846604E-005  0.9690331E+02  0.7546771E-02  0.1291137E+00
          3   -1    0    0  502    0  0.00000000000E+00  0.00000000000E+00  0.50778475500E+02  0.50778475500E+02  0.00000000000E+00 0. -1.
         -4   -1    0    0    0  501 -0.00000000000E+00 -0.00000000000E+00 -0.39665485963E+03  0.39665485963E+03  0.00000000000E+00 0.  1.
         23    2    1    2    0    0  0.22381250581E+02 -0.23419990644E+02 -0.22541155657E+03  0.24530497575E+03  0.91185223319E+02 0.  0.
        -24    2    1    2    0    0 -0.35135301664E+02 -0.71090202297E+01 -0.15476502540E+02  0.92050047648E+02  0.83358632123E+02 0.  0.
         13    1    4    4    0    0  0.87223528920E+01  0.23461521728E+02  0.16289113506E+02  0.29863986013E+02  0.00000000000E+00 0. -1.
        -14    1    4    4    0    0 -0.43857654556E+02 -0.30570541958E+02 -0.31765616046E+02  0.62186061634E+02  0.00000000000E+00 0.  1.
        -11    1    3    3    0    0  0.54319460340E+02 -0.26742407913E+02 -0.11060165020E+03  0.12608919533E+03  0.00000000000E+00 0.  1.
         11    1    3    3    0    0 -0.31938209759E+02  0.33224172690E+01 -0.11480990638E+03  0.11921578042E+03  0.00000000000E+00 0. -1.
         21    1    1    2  502  501  0.12754051083E+02  0.30529010874E+02 -0.10498832501E+03  0.11007831173E+03  0.00000000000E+00 0.  1.
<scales pt_clust_5="13000.00000" pt_clust_6="13000.00000" pt_clust_7="13000.00000" pt_clust_8="13000.00000" pt_clust_9="33.08604"></scales>
<clustering>
<clus scale="   33.086">  2  9  1 -1</clus>
<clus scale="   83.359">  5  6 -1 -1</clus>
<clus scale="   89.578">  1  5  2 -1</clus>
<clus scale="   91.185">  7  8 -1 -1</clus>
<clus scale="   89.578">  1  5  2 -1</clus>
</clustering>
</event>
<event>
 9    1  0.3846604E-005  0.9244634E+02  0.7546771E-02  0.1298912E+00
          1   -1    0    0  502    0  0.00000000000E+00  0.00000000000E+00  0.29255122138E+03  0.29255122138E+03  0.00000000000E+00 0. -1.
         -2   -1    0    0    0  501 -0.00000000000E+00 -0.00000000000E+00 -0.99895915517E+02  0.99895915517E+02  0.00000000000E+00 0.  1.
        -24    2    1    2    0    0 -0.81794027116E+02  0.35635310616E+02  0.13251314265E+02  0.12500083781E+03  0.86541746514E+02 0.  0.
         23    2    1    2    0    0  0.49525554506E+01  0.98399799086E+01  0.14611626380E+03  0.17215366223E+03  0.90363531709E+02 0.  0.
         11    1    3    3    0    0 -0.86962229100E+02  0.50219155450E+02 -0.56431891853E+01  0.10057951306E+03  0.00000000000E+00 0. -1.
        -12    1    3    3    0    0  0.51682019839E+01 -0.14583844833E+02  0.18894503450E+02  0.24421324749E+02  0.00000000000E+00 0.  1.
        -11    1    4    4    0    0  0.14384763326E+02 -0.37901483752E+02  0.49569960035E+02  0.64036121247E+02  0.00000000000E+00 0.  1.
         11    1    4    4    0    0 -0.94322078758E+01  0.47741463661E+02  0.96546303765E+02  0.10811754098E+03  0.00000000000E+00 0. -1.
         21    1    1    2  502  501  0.76841471665E+02 -0.45475290525E+02  0.33287727799E+02  0.95292636851E+02  0.00000000000E+00 0.  1.
<scales pt_clust_5="13000.00000" pt_clust_6="13000.00000" pt_clust_7="13000.00000" pt_clust_8="13000.00000" pt_clust_9="89.28949"></scales>
<clustering>
<clus scale="   86.542">  5  6 -1 -1</clus>
<clus scale="   89.289">  2  9  1 -1</clus>
<clus scale="   89.289">  2  5  1 -1</clus>
<clus scale="   90.364">  7  8 -1 -1</clus>
<clus scale="   92.446">  1  5  2 -1</clus>
</clustering>
</event>
<event>
 9    1  0.3846604E-005  0.9422324E+02  0.7546771E-02  0.1300625E+00
         -2   -1    0    0    0  501 -0.00000000000E+00  0.00000000000E+00  0.33929504936E+03  0.33929504936E+03  0.00000000000E+00 0.  1.
          1   -1    0    0  502    0  0.00000000000E+00 -0.00000000000E+00 -0.42732587342E+02  0.42732587342E+02  0.00000000000E+00 0. -1.
        -24    2    1    2    0    0  0.13845549504E+02  0.29488899926E+02  0.21851394939E+03  0.23464192460E+03  0.79039181695E+02 0.  0.
         23    2    1    2    0    0 -0.18008394427E+02 -0.63388720876E+01  0.38699050581E+02  0.10154213861E+03  0.91916841923E+02 0.  0.
         11    1    3    3    0    0  0.44698295452E+02  0.11259338606E+02  0.88563978632E+02  0.99841317266E+02  0.00000000000E+00 0. -1.
        -12    1    3    3    0    0 -0.30852745947E+02  0.18229561320E+02  0.12994997075E+03  0.13480060733E+03  0.00000000000E+00 0.  1.
        -11    1    4    4    0    0  0.12113668744E+02  0.37938961914E+02  0.11357611808E+02  0.41413779682E+02  0.00000000000E+00 0. -1.
         11    1    4    4    0    0 -0.30122063170E+02 -0.44277834002E+02  0.27341438773E+02  0.60128358931E+02  0.00000000000E+00 0.  1.
         21    1    1    2  502  501  0.41628449222E+01 -0.23150027838E+02  0.39349462049E+02  0.45843573490E+02  0.00000000000E+00 0. -1.
<scales pt_clust_5="13000.00000" pt_clust_6="13000.00000" pt_clust_7="13000.00000" pt_clust_8="13000.00000" pt_clust_9="23.52133"></scales>
<clustering>
<clus scale="   23.521">  1  9  2 -1</clus>
<clus scale="   79.039">  5  6 -1 -1</clus>
<clus scale="   81.710">  1  5  2 -1</clus>
<clus scale="   91.917">  7  8 -1 -1</clus>
<clus scale="   94.223">  2  5  1 -1</clus>
</clustering>
</event>
<event>
 9    1  0.3846604E-005  0.9896685E+02  0.7546771E-02  0.1287622E+00
         -4   -1    0    0    0  501 -0.00000000000E+00  0.00000000000E+00  0.10367646862E+03  0.10367646862E+03  0.00000000000E+00 0.  1.
          3   -1    0    0  502    0  0.00000000000E+00 -0.00000000000E+00 -0.16349751664E+03  0.16349751664E+03  0.00000000000E+00 0. -1.
        -24    2    1    2    0    0 -0.60247000578E+02 -0.11659497215E+02  0.31214338788E+02  0.10425113946E+03  0.78283588181E+02 0.  0.
         23    2    1    2    0    0  0.38601684672E+02 -0.99382343852E+01 -0.89801386018E+02  0.13232048530E+03  0.88631615896E+02 0.  0.
         13    1    3    3    0    0 -0.77338655838E+02 -0.18585220477E+02  0.32135142061E+02  0.85786627526E+02  0.00000000000E+00 0. -1.
        -14    1    3    3    0    0  0.17091655260E+02  0.69257232618E+01 -0.92080327250E+00  0.18464511932E+02  0.00000000000E+00 0.  1.
        -11    1    4    4    0    0  0.22323887228E+02  0.32769538995E+02 -0.10874097711E+02  0.41115017061E+02  0.00000000000E+00 0. -1.
         11    1    4    4    0    0  0.16277797445E+02 -0.42707773380E+02 -0.78927288307E+02  0.91205468237E+02  0.00000000000E+00 0.  1.
         21    1    1    2  502  501  0.21645315906E+02  0.21597731600E+02 -0.12340007887E+01  0.30602360512E+02  0.00000000000E+00 0. -1.
<scales pt_clust_5="13000.00000" pt_clust_6="13000.00000" pt_clust_7="13000.00000" pt_clust_8="13000.00000" pt_clust_9="30.57747"></scales>
<clustering>
<clus scale="   30.577">  1  9  2 -1</clus>
<clus scale="   78.284">  5  6 -1 -1</clus>
<clus scale="   88.632">  7  8 -1 -1</clus>
<clus scale="   89.818">  1  5  2 -1</clus>
<clus scale="   98.967">  2  5  1 -1</clus>
</clustering>
</event>
<event>
 9    1  0.3846604E-005  0.1586132E+03  0.7546771E-02  0.1192223E+00
          3   -1    0    0  502    0  0.00000000000E+00  0.00000000000E+00  0.59540721507E+03  0.59540721507E+03  0.00000000000E+00 0. -1.
         -4   -1    0    0    0  501 -0.00000000000E+00 -0.00000000000E+00 -0.12367555160E+03  0.12367555160E+03  0.00000000000E+00 0.  1.
        -24    2    1    2    0    0  0.35555753902E+02  0.12395683326E+03  0.12351765676E+03  0.19611274408E+03  0.81080754261E+02 0.  0.
         23    2    1    2    0    0 -0.97588746176E+02 -0.91763285408E+02  0.40262633340E+03  0.43439678765E+03  0.92997531363E+02 0.  0.
         13    1    3    3    0    0  0.39266728499E+02  0.52812529093E+02  0.10254947673E+03  0.12185004872E+03  0.00000000000E+00 0. -1.
        -14    1    3    3    0    0 -0.37109745969E+01  0.71144304166E+02  0.20968180029E+02  0.74262695355E+02  0.00000000000E+00 0.  1.
        -13    1    4    4    0    0 -0.42234350574E+02 -0.20256147157E+02  0.26900292107E+03  0.27305058764E+03  0.00000000000E+00 0. -1.
         13    1    4    4    0    0 -0.55354395602E+02 -0.71507138251E+02  0.13362341233E+03  0.16134620001E+03  0.00000000000E+00 0.  1.
         21    1    1    2  502  501  0.62032992274E+02 -0.32193547851E+02 -0.54412326688E+02  0.88573234949E+02  0.00000000000E+00 0.  1.
<scales pt_clust_5="13000.00000" pt_clust_6="13000.00000" pt_clust_7="13000.00000" pt_clust_8="13000.00000" pt_clust_9="69.88932"></scales>
<clustering>
<clus scale="   69.889">  2  9  1 -1</clus>
<clus scale="   81.081">  5  6 -1 -1</clus>
<clus scale="   92.998">  7  8 -1 -1</clus>
<clus scale="  151.933">  2  5  1 -1</clus>
<clus scale="  158.613">  1  5  2 -1</clus>
</clustering>
</event>
<event>
 9    1  0.3846604E-005  0.1769565E+03  0.7546771E-02  0.1171684E+00
          1   -1    0    0  502    0  0.00000000000E+00  0.00000000000E+00  0.34249252009E+03  0.34249252009E+03  0.00000000000E+00 0. -1.
         -2   -1    0    0    0  501 -0.00000000000E+00 -0.00000000000E+00 -0.16639675409E+03  0.16639675409E+03  0.00000000000E+00 0.  1.
        -24    2    1    2    0    0 -0.59962609720E+02  0.15631143795E+03  0.38583374485E+02  0.18946503815E+03  0.79872045782E+02 0.  0.
         23    2    1    2    0    0  0.10134261097E+03 -0.11186319905E+03  0.17578275621E+03  0.24764282298E+03  0.87428200777E+02 0.  0.
         13    1    3    3    0    0 -0.20117347368E+02  0.57102393218E+02  0.54396663943E+02  0.81390343558E+02  0.00000000000E+00 0. -1.
        -14    1    3    3    0    0 -0.39845262352E+02  0.99209044732E+02 -0.15813289458E+02  0.10807469460E+03  0.00000000000E+00 0.  1.
        -11    1    4    4    0    0  0.51982227914E+02 -0.11161113550E+03  0.10790758930E+03  0.16371696740E+03  0.00000000000E+00 0. -1.
         11    1    4    4    0    0  0.49360383061E+02 -0.25206355563E+00  0.67875166910E+02  0.83925855582E+02  0.00000000000E+00 0.  1.
         21    1    1    2  502  501 -0.41380001255E+02 -0.44448238899E+02 -0.38270364694E+02  0.71781413046E+02  0.00000000000E+00 0.  1.
<scales pt_clust_5="13000.00000" pt_clust_6="13000.00000" pt_clust_7="13000.00000" pt_clust_8="13000.00000" pt_clust_9="60.72850"></scales>
<clustering>
<clus scale="   60.728">  2  9  1 -1</clus>
<clus scale="   79.872">  5  6 -1 -1</clus>
<clus scale="   87.428">  7  8 -1 -1</clus>
<clus scale="  173.348">  2  5  1 -1</clus>
<clus scale="  176.956">  1  5  2 -1</clus>
</clustering>
</event>
<event>
 9    1  0.3846604E-005  0.9485900E+02  0.7546771E-02  0.1299181E+00
         -4   -1    0    0    0  501 -0.00000000000E+00  0.00000000000E+00  0.56040454111E+03  0.56040454111E+03  0.00000000000E+00 0.  1.
          3   -1    0    0  502    0  0.00000000000E+00 -0.00000000000E+00 -0.59180490175E+02  0.59180490175E+02  0.00000000000E+00 0. -1.
        -24    2    1    2    0    0 -0.11253831844E+02 -0.18548645384E+02  0.46858081479E+03  0.47573365903E+03  0.79270633709E+02 0.  0.
         23    2    1    2    0    0  0.40436503449E+02  0.20559526633E+01  0.58837747603E+01  0.10095957807E+03  0.92297778119E+02 0.  0.
         13    1    3    3    0    0  0.27048854013E+02 -0.21436493623E+02  0.11485675894E+03  0.11993014148E+03  0.00000000000E+00 0. -1.
        -14    1    3    3    0    0 -0.38302685857E+02  0.28878482391E+01  0.35372405585E+03  0.35580351755E+03  0.00000000000E+00 0.  1.
        -11    1    4    4    0    0 -0.97583815836E+01  0.21664266507E+02  0.32975317125E+02  0.40644040079E+02  0.00000000000E+00 0.  1.
         11    1    4    4    0    0  0.50194885032E+02 -0.19608313844E+02 -0.27091542365E+02  0.60315537989E+02  0.00000000000E+00 0. -1.
         21    1    1    2  502  501 -0.29182671605E+02  0.16492692720E+02  0.26759461391E+02  0.42891794193E+02  0.00000000000E+00 0.  1.
<scales pt_clust_5="13000.00000" pt_clust_6="13000.00000" pt_clust_7="13000.00000" pt_clust_8="13000.00000" pt_clust_9="33.52070"></scales>
<clustering>
<clus scale="   33.521">  2  9  1 -1</clus>
<clus scale="   79.271">  5  6 -1 -1</clus>
<clus scale="   82.239">  1  5  2 -1</clus>
<clus scale="   92.298">  7  8 -1 -1</clus>
<clus scale="   33.521">  2  5  1 -1</clus>
</clustering>
</event>
<event>
 9    1  0.3846604E-005  0.1021014E+03  0.7546771E-02  0.1281400E+00
          1   -1    0    0  502    0  0.00000000000E+00  0.00000000000E+00  0.31951932436E+03  0.31951932436E+03  0.00000000000E+00 0. -1.
         -2   -1    0    0    0  501 -0.00000000000E+00 -0.00000000000E+00 -0.37987323269E+02  0.37987323269E+02  0.00000000000E+00 0.  1.
        -24    2    1    2    0    0 -0.38619115548E+02  0.13648904288E+02  0.10536040678E+03  0.13917157723E+03  0.81179947758E+02 0.  0.
         23    2    1    2    0    0  0.31801534273E+02 -0.36400391668E+02  0.15268928837E+03  0.18493554518E+03  0.92470595285E+02 0.  0.
         13    1    3    3    0    0 -0.32606545054E+02 -0.85852056107E+01  0.11053621040E+03  0.11556446835E+03  0.00000000000E+00 0. -1.
        -14    1    3    3    0    0 -0.60125704938E+01  0.22234109898E+02 -0.51758036121E+01  0.23607108886E+02  0.00000000000E+00 0.  1.
        -13    1    4    4    0    0 -0.22641600123E+02  0.16748829795E+02  0.44788629253E+02  0.52907340379E+02  0.00000000000E+00 0.  1.
         13    1    4    4    0    0  0.54443134396E+02 -0.53149221463E+02  0.10790065912E+03  0.13202820480E+03  0.00000000000E+00 0. -1.
         21    1    1    2  502  501  0.68175812743E+01  0.22751487380E+02  0.23482305936E+02  0.33399525214E+02  0.00000000000E+00 0. -1.
<scales pt_clust_5="13000.00000" pt_clust_6="13000.00000" pt_clust_7="13000.00000" pt_clust_8="13000.00000" pt_clust_9="23.75099"></scales>
<clustering>
<clus scale="   23.751">  2  9  1 -1</clus>
<clus scale="   81.180">  5  6 -1 -1</clus>
<clus scale="   92.000">  2  5  1 -1</clus>
<clus scale="   92.471">  7  8 -1 -1</clus>
<clus scale="  102.101">  1  5  2 -1</clus>
</clustering>
</event>
<event>
 9    1  0.3846604E-005  0.1103510E+03  0.7546771E-02  0.1260653E+00
         -2   -1    0    0    0  501 -0.00000000000E+00  0.00000000000E+00  0.15448359314E+03  0.15448359314E+03  0.00000000000E+00 0.  1.
          1   -1    0    0  502    0  0.00000000000E+00 -0.00000000000E+00 -0.16810646932E+03  0.16810646932E+03  0.00000000000E+00 0. -1.
         23    2    1    2    0    0  0.67706884964E+02  0.34271623639E+02  0.86978911281E+02  0.13900044749E+03  0.77440473505E+02 0.  0.
        -24    2    1    2    0    0 -0.50493708121E+02 -0.58808007856E+02 -0.10548438727E+03  0.15322240587E+03  0.79637637799E+02 0.  0.
         13    1    4    4    0    0 -0.52211595581E+02 -0.13472612556E+01 -0.62455286216E+02  0.81415776126E+02  0.00000000000E+00 0. -1.
        -14    1    4    4    0    0  0.17178874600E+01 -0.57460746600E+02 -0.43029101058E+02  0.71806629743E+02  0.00000000000E+00 0.  1.
        -13    1    3    3    0    0  0.12306560262E+02  0.38038379610E+02  0.70553921146E+02  0.81093930340E+02  0.00000000000E+00 0.  1.
         13    1    3    3    0    0  0.55400324702E+02 -0.37667559715E+01  0.16424990135E+02  0.57906517151E+02  0.00000000000E+00 0. -1.
         21    1    1    2  502  501 -0.17213176843E+02  0.24536384217E+02  0.48825998108E+01  0.30367209098E+02  0.00000000000E+00 0.  1.
<scales pt_clust_5="13000.00000" pt_clust_6="13000.00000" pt_clust_7="13000.00000" pt_clust_8="13000.00000" pt_clust_9="29.97211"></scales>
<clustering>
<clus scale="   29.972">  1  9  2 -1</clus>
<clus scale="   77.440">  7  8 -1 -1</clus>
<clus scale="   79.638">  5  6 -1 -1</clus>
<clus scale="  108.776">  1  7  2 -1</clus>
<clus scale="  110.351">  2  5  1 -1</clus>
</clustering>
</event>
<event>
 9    1  0.3846604E-005  0.1452711E+03  0.7546771E-02  0.1207152E+00
          1   -1    0    0  502    0  0.00000000000E+00  0.00000000000E+00  0.10920573007E+03  0.10920573007E+03  0.00000000000E+00 0. -1.
         -2   -1    0    0    0  501 -0.00000000000E+00 -0.00000000000E+00 -0.40588499957E+03  0.40588499957E+03  0.00000000000E+00 0.  1.
        -24    2    1    2    0    0 -0.54105063269E+02  0.85053238470E+02 -0.28404364603E+03  0.31265499380E+03  0.83132069950E+02 0.  0.
         23    2    1    2    0    0  0.36873366456E+02 -0.11431797083E+03  0.26430034393E+02  0.15067202694E+03  0.87036023439E+02 0.  0.
         13    1    3    3    0    0  0.12195141871E+02  0.32992246657E+02 -0.34546510052E+02  0.49301837506E+02  0.00000000000E+00 0. -1.
        -14    1    3    3    0    0 -0.66300205140E+02  0.52060991813E+02 -0.24949713598E+03  0.26335315629E+03  0.00000000000E+00 0.  1.
        -13    1    4    4    0    0  0.38459624673E+02 -0.74901287709E+02 -0.23140627803E+02  0.87320297100E+02  0.00000000000E+00 0.  1.
         13    1    4    4    0    0 -0.15862582165E+01 -0.39416683119E+02  0.49570662196E+02  0.63351729840E+02  0.00000000000E+00 0. -1.
         21    1    1    2  502  501  0.17231696813E+02  0.29264732358E+02 -0.39065657868E+02  0.51763708905E+02  0.00000000000E+00 0.  1.
<scales pt_clust_5="13000.00000" pt_clust_6="13000.00000" pt_clust_7="13000.00000" pt_clust_8="13000.00000" pt_clust_9="33.96109"></scales>
<clustering>
<clus scale="   33.961">  2  9  1 -1</clus>
<clus scale="   83.132">  5  6 -1 -1</clus>
<clus scale="   87.036">  7  8 -1 -1</clus>
<clus scale="  142.966">  2  5  1 -1</clus>
<clus scale="  145.271">  1  5  2 -1</clus>
</clustering>
</event>
<event>
 9    1  0.3846604E-005  0.1603906E+03  0.7546771E-02  0.1189902E+00
          1   -1    0    0  502    0  0.00000000000E+00  0.00000000000E+00  0.97159275879E+03  0.97159275879E+03  0.00000000000E+00 0. -1.
         -2   -1    0    0    0  501 -0.00000000000E+00 -0.00000000000E+00 -0.72806166763E+02  0.72806166763E+02  0.00000000000E+00 0.  1.
         23    2    1    2    0    0 -0.11800587656E+03 -0.74202023542E+02  0.75123236241E+02  0.18270433989E+03  0.91137522405E+02 0.  0.
        -24    2    1    2    0    0  0.12324962017E+03  0.45392631001E+02  0.81733310729E+03  0.83173544696E+03  0.80619387444E+02 0.  0.
         11    1    4    4    0    0  0.75419762131E+02 -0.50141060358E+01  0.28367888550E+03  0.29357621132E+03  0.00000000000E+00 0. -1.
        -12    1    4    4    0    0  0.47829858041E+02  0.50406737037E+02  0.53365422180E+03  0.53815923564E+03  0.00000000000E+00 0.  1.
        -13    1    3    3    0    0 -0.86635995566E+02 -0.91330613813E+02  0.38761218844E+02  0.13171753427E+03  0.00000000000E+00 0.  1.
         13    1    3    3    0    0 -0.31369880995E+02  0.17128590271E+02  0.36362017397E+02  0.50986805621E+02  0.00000000000E+00 0. -1.
         21    1    1    2  502  501 -0.52437436109E+01  0.28809392542E+02  0.63302484896E+01  0.29959138699E+02  0.00000000000E+00 0.  1.
<scales pt_clust_5="13000.00000" pt_clust_6="13000.00000" pt_clust_7="13000.00000" pt_clust_8="13000.00000" pt_clust_9="29.28272"></scales>
<clustering>
<clus scale="   29.283">  2  9  1 -1</clus>
<clus scale="   80.619">  5  6 -1 -1</clus>
<clus scale="   91.138">  7  8 -1 -1</clus>
<clus scale="  154.656">  1  5  2 -1</clus>
<clus scale="  154.656">  1  5  2 -1</clus>
</clustering>
</event>
<event>
 9    1  0.3846604E-005  0.1273998E+03  0.7546771E-02  0.1233864E+00
          1   -1    0    0  502    0  0.00000000000E+00  0.00000000000E+00  0.14855464521E+03  0.14855464521E+03  0.00000000000E+00 0. -1.
         -2   -1    0    0    0  501 -0.00000000000E+00 -0.00000000000E+00 -0.36923391767E+03  0.36923391767E+03  0.00000000000E+00 0.  1.
        -24    2    1    2    0    0 -0.29102751529E+02 -0.72048589567E+02 -0.19348401256E+03  0.22405457560E+03  0.82014756756E+02 0.  0.
         23    2    1    2    0    0  0.17924995777E+02  0.89076275181E+02  0.10120094180E+03  0.16373218378E+03  0.91163090733E+02 0.  0.
         13    1    3    3    0    0 -0.40580677469E+02 -0.23735765061E+01 -0.90225583071E+02  0.98959997422E+02  0.00000000000E+00 0. -1.
        -14    1    3    3    0    0  0.11477925940E+02 -0.69675013061E+02 -0.10325842949E+03  0.12509457818E+03  0.00000000000E+00 0.  1.
        -11    1    4    4    0    0  0.33662600736E+02  0.10173045274E+03  0.75669094415E+02  0.13117952413E+03  0.00000000000E+00 0. -1.
         11    1    4    4    0    0 -0.15737604959E+02 -0.12654177557E+02  0.25531847381E+02  0.32552659648E+02  0.00000000000E+00 0.  1.
         21    1    1    2  502  501  0.11177755751E+02 -0.17027685614E+02 -0.12839620170E+03  0.13000180350E+03  0.00000000000E+00 0.  1.
<scales pt_clust_5="13000.00000" pt_clust_6="13000.00000" pt_clust_7="13000.00000" pt_clust_8="13000.00000" pt_clust_9="20.36871"></scales>
<clustering>
<clus scale="   20.369">  2  9  1 -1</clus>
<clus scale="   82.015">  5  6 -1 -1</clus>
<clus scale="   91.163">  7  8 -1 -1</clus>
<clus scale="  121.022">  2  5  1 -1</clus>
<clus scale="  127.400">  1  5  2 -1</clus>
</clustering>
</event>
<event>
 9    1  0.3846604E-005  0.1196760E+03  0.7546771E-02  0.1258499E+00
          3   -1    0    0  502    0  0.00000000000E+00  0.00000000000E+00  0.25872170787E+03  0.25872170787E+03  0.00000000000E+00 0. -1.
         -4   -1    0    0    0  501 -0.00000000000E+00 -0.00000000000E+00 -0.15455059985E+03  0.15455059985E+03  0.00000000000E+00 0.  1.
        -24    2    1    2    0    0  0.34895204896E+02 -0.36330991686E+02 -0.87132229411E+02  0.12452870304E+03  0.73333186189E+02 0.  0.
         23    2    1    2    0    0  0.74471820640E+01 -0.56175375440E+02  0.12982855615E+03  0.16987622302E+03  0.93762166285E+02 0.  0.
         11    1    3    3    0    0  0.12033909743E+02  0.22343624201E+02 -0.31931994943E+02  0.40788537939E+02  0.00000000000E+00 0. -1.
        -12    1    3    3    0    0  0.22861295153E+02 -0.58674615887E+02 -0.55200234468E+02  0.83740165099E+02  0.00000000000E+00 0.  1.
        -13    1    4    4    0    0  0.38439050965E+02 -0.47315754448E+02  0.12248476515E+03  0.13681688109E+03  0.00000000000E+00 0.  1.
         13    1    4    4    0    0 -0.30991868901E+02 -0.88596209918E+01  0.73437910056E+01  0.33059341924E+02  0.00000000000E+00 0. -1.
         21    1    1    2  502  501 -0.42342386960E+02  0.92506367126E+02  0.61474781278E+02  0.11886738167E+03  0.00000000000E+00 0. -1.
<scales pt_clust_5="13000.00000" pt_clust_6="13000.00000" pt_clust_7="13000.00000" pt_clust_8="13000.00000" pt_clust_9="74.37076"></scales>
<clustering>
<clus scale="   73.333">  5  6 -1 -1</clus>
<clus scale="   88.968">  2  5  1 -1</clus>
<clus scale="   74.371">  2  9  1 -1</clus>
<clus scale="   93.762">  7  8 -1 -1</clus>
<clus scale="  119.676">  1  5  2 -1</clus>
</clustering>
</event>
<event>
 9    1  0.3846604E-005  0.1108237E+03  0.7546771E-02  0.1263035E+00
          1   -1    0    0  502    0  0.00000000000E+00  0.00000000000E+00  0.45470917079E+03  0.45470917079E+03  0.00000000000E+00 0. -1.
         -2   -1    0    0    0  501 -0.00000000000E+00 -0.00000000000E+00 -0.81161254773E+02  0.81161254773E+02  0.00000000000E+00 0.  1.
         23    2    1    2    0    0 -0.43296747490E+02 -0.56962990447E+02 -0.17766117454E+02  0.11718486586E+03  0.91089336557E+02 0.  0.
        -24    2    1    2    0    0 -0.52104949180E+01  0.21850798468E+02  0.28015409284E+03  0.29242253664E+03  0.80746625607E+02 0.  0.
         13    1    4    4    0    0  0.28259755204E+02  0.28735265578E+02  0.21607633858E+03  0.21980289658E+03  0.00000000000E+00 0. -1.
        -14    1    4    4    0    0 -0.33470250122E+02 -0.68844671098E+01  0.64077754263E+02  0.72619640057E+02  0.00000000000E+00 0.  1.
        -13    1    3    3    0    0 -0.64774564849E+02 -0.18311993665E+02 -0.26086481649E+02  0.72191259084E+02  0.00000000000E+00 0.  1.
         13    1    3    3    0    0  0.21477817358E+02 -0.38650996783E+02  0.83203641948E+01  0.44993606780E+02  0.00000000000E+00 0. -1.
         21    1    1    2  502  501  0.48507242408E+02  0.35112191979E+02  0.11115994063E+03  0.12626302307E+03  0.00000000000E+00 0. -1.
<scales pt_clust_5="13000.00000" pt_clust_6="13000.00000" pt_clust_7="13000.00000" pt_clust_8="13000.00000" pt_clust_9="59.88170"></scales>
<clustering>
<clus scale="   59.882">  1  9  2 -1</clus>
<clus scale="   80.747">  5  6 -1 -1</clus>
<clus scale="   91.089">  7  8 -1 -1</clus>
<clus scale="  102.492">  1  5  2 -1</clus>
<clus scale="   59.882">  1  5  2 -1</clus>
</clustering>
</event>
<event>
 9    1  0.3846604E-005  0.1001097E+03  0.7546771E-02  0.1289818E+00
          3   -1    0    0  502    0  0.00000000000E+00  0.00000000000E+00  0.39606041248E+03  0.39606041248E+03  0.00000000000E+00 0. -1.
         -4   -1    0    0    0  501 -0.00000000000E+00 -0.00000000000E+00 -0.49756423681E+02  0.49756423681E+02  0.00000000000E+00 0.  1.
        -24    2    1    2    0    0 -0.27031347948E+02 -0.17846259943E+01  0.71778566556E+02  0.11092960402E+03  0.80120757419E+02 0.  0.
         23    2    1    2    0    0  0.16625670310E+02 -0.16750114915E+02  0.29112054409E+03  0.30792034843E+03  0.97502771873E+02 0.  0.
         11    1    3    3    0    0 -0.17046984865E+02  0.11451404766E+02  0.86410243651E+02  0.88817028614E+02  0.00000000000E+00 0. -1.
        -12    1    3    3    0    0 -0.99843630824E+01 -0.13236030760E+02 -0.14631677095E+02  0.22112575405E+02  0.00000000000E+00 0.  1.
        -11    1    4    4    0    0  0.49983217823E+02  0.13143777598E+01  0.23446750923E+03  0.23973957233E+03  0.00000000000E+00 0. -1.
         11    1    4    4    0    0 -0.33357547513E+02 -0.18064492675E+02  0.56653034860E+02  0.68180776107E+02  0.00000000000E+00 0.  1.
         21    1    1    2  502  501  0.10405677638E+02  0.18534740910E+02 -0.16595121851E+02  0.26966883708E+02  0.00000000000E+00 0. -1.
<scales pt_clust_5="13000.00000" pt_clust_6="13000.00000" pt_clust_7="13000.00000" pt_clust_8="13000.00000" pt_clust_9="21.25593"></scales>
<clustering>
<clus scale="   21.256">  2  9  1 -1</clus>
<clus scale="   80.121">  5  6 -1 -1</clus>
<clus scale="   83.274">  2  5  1 -1</clus>
<clus scale="   97.503">  7  8 -1 -1</clus>
<clus scale="  100.110">  1  5  2 -1</clus>
</clustering>
</event>
<event>
 9    1  0.3846604E-005  0.1032213E+03  0.7546771E-02  0.1278845E+00
          1   -1    0    0  502    0  0.00000000000E+00  0.00000000000E+00  0.30218554207E+03  0.30218554207E+03  0.00000000000E+00 0. -1.
         -2   -1    0    0    0  501 -0.00000000000E+00 -0.00000000000E+00 -0.13389257013E+03  0.13389257013E+03  0.00000000000E+00 0.  1.
         23    2    1    2    0    0  0.23440824705E+02  0.59061397442E+02 -0.91791450815E+02  0.14432835077E+03  0.91472845489E+02 0.  0.
        -24    2    1    2    0    0 -0.28293056578E+02 -0.37362035685E+02  0.25110669216E+03  0.26777047660E+03  0.80312131885E+02 0.  0.
         13    1    4    4    0    0 -0.48024664057E+02 -0.13591089360E+01  0.17279204032E+03  0.17934688381E+03  0.00000000000E+00 0. -1.
        -14    1    4    4    0    0  0.19731607478E+02 -0.36002926749E+02  0.78314651840E+02  0.88423592784E+02  0.00000000000E+00 0.  1.
        -11    1    3    3    0    0  0.28259276719E+02  0.35611721769E+02 -0.10679980523E+03  0.11607316591E+03  0.00000000000E+00 0.  1.
         11    1    3    3    0    0 -0.48184520144E+01  0.23449675674E+02  0.15008354413E+02  0.28255184855E+02  0.00000000000E+00 0. -1.
         21    1    1    2  502  501  0.48522318733E+01 -0.21699361757E+02  0.89777305870E+01  0.23979284838E+02  0.00000000000E+00 0.  1.
<scales pt_clust_5="13000.00000" pt_clust_6="13000.00000" pt_clust_7="13000.00000" pt_clust_8="13000.00000" pt_clust_9="22.23525"></scales>
<clustering>
<clus scale="   22.235">  2  9  1 -1</clus>
<clus scale="   80.312">  5  6 -1 -1</clus>
<clus scale="   91.473">  7  8 -1 -1</clus>
<clus scale="   93.474">  1  5  2 -1</clus>
<clus scale="   93.474">  1  5  2 -1</clus>
</clustering>
</event>
<event>
 9    1  0.3846604E-005  0.1543315E+03  0.7546771E-02  0.1202117E+00
          3   -1    0    0  502    0  0.00000000000E+00  0.00000000000E+00  0.14173689563E+03  0.14173689563E+03  0.00000000000E+00 0. -1.
         -4   -1    0    0    0  501 -0.00000000000E+00 -0.00000000000E+00 -0.10957738357E+04  0.10957738357E+04  0.00000000000E+00 0.  1.
        -24    2    1    2    0    0 -0.48433466727E+02  0.13093691754E+03 -0.30679192176E+03  0.34651982626E+03  0.80401676975E+02 0.  0.
         23    2    1    2    0    0 -0.71594363274E+02 -0.63779453783E+02  0.77138341038E+02  0.15366597248E+03  0.92028994688E+02 0.  0.
         11    1    3    3    0    0 -0.29722945711E+02  0.43588966692E+02 -0.43155361592E+02  0.68160375242E+02  0.00000000000E+00 0. -1.
        -12    1    3    3    0    0 -0.18710521016E+02  0.87347950850E+02 -0.26363656017E+03  0.27835945102E+03  0.00000000000E+00 0.  1.
        -11    1    4    4    0    0 -0.55402652060E+02 -0.87799265454E+02  0.57616700339E+02  0.11873436330E+03  0.00000000000E+00 0. -1.
         11    1    4    4    0    0 -0.16191711214E+02  0.24019811670E+02  0.19521640699E+02  0.34931609186E+02  0.00000000000E+00 0.  1.
         21    1    1    2  502  501  0.12002783000E+03 -0.67157463759E+02 -0.72438335932E+03  0.73732493256E+03  0.00000000000E+00 0.  1.
<scales pt_clust_5="13000.00000" pt_clust_6="13000.00000" pt_clust_7="13000.00000" pt_clust_8="13000.00000" pt_clust_9="131.73380"></scales>
<clustering>
<clus scale="   80.402">  5  6 -1 -1</clus>
<clus scale="   92.029">  7  8 -1 -1</clus>
<clus scale="  132.902">  1  7  2 -1</clus>
<clus scale="  131.734">  2  9  1 -1</clus>
<clus scale="  132.902">  1  5  2 -1</clus>
</clustering>
</event>
<event>
 9    1  0.3846604E-005  0.1885127E+03  0.7546771E-02  0.1160802E+00
         -2   -1    0    0    0  501 -0.00000000000E+00  0.00000000000E+00  0.17792281161E+03  0.17792281161E+03  0.00000000000E+00 0.  1.
          1   -1    0    0  502    0  0.00000000000E+00 -0.00000000000E+00 -0.26453187599E+03  0.26453187599E+03  0.00000000000E+00 0. -1.
        -24    2    1    2    0    0 -0.20346022775E+02  0.15928404491E+03  0.47445453193E+02  0.18611178536E+03  0.81247510827E+02 0.  0.
         23    2    1    2    0    0  0.29053776724E+00 -0.16769116783E+03 -0.13654232477E+03  0.23445474610E+03  0.90580402595E+02 0.  0.
         13    1    3    3    0    0  0.16340956115E+02  0.13271839010E+03  0.43619665137E+02  0.14065515670E+03  0.00000000000E+00 0. -1.
        -14    1    3    3    0    0 -0.36686978890E+02  0.26565654810E+02  0.38257880558E+01  0.45456628667E+02  0.00000000000E+00 0.  1.
        -13    1    4    4    0    0  0.33236926376E+02 -0.37915207248E+02 -0.12529598933E+02  0.51954278601E+02  0.00000000000E+00 0.  1.
         13    1    4    4    0    0 -0.32946388608E+02 -0.12977596058E+03 -0.12401272584E+03  0.18250046750E+03  0.00000000000E+00 0. -1.
         21    1    1    2  502  501  0.20055485008E+02  0.84071229128E+01  0.24878071989E+01  0.21888156141E+02  0.00000000000E+00 0. -1.
<scales pt_clust_5="13000.00000" pt_clust_6="13000.00000" pt_clust_7="13000.00000" pt_clust_8="13000.00000" pt_clust_9="21.74631"></scales>
<clustering>
<clus scale="   21.746">  1  9  2 -1</clus>
<clus scale="   81.248">  5  6 -1 -1</clus>
<clus scale="   90.580">  7  8 -1 -1</clus>
<clus scale="  184.210">  1  5  2 -1</clus>
<clus scale="  188.513">  2  5  1 -1</clus>
</clustering>
</event>
<event>
 9    1  0.3846604E-005  0.1154030E+03  0.7546771E-02  0.1260701E+00
          1   -1    0    0  502    0  0.00000000000E+00  0.00000000000E+00  0.18464027617E+03  0.18464027617E+03  0.00000000000E+00 0. -1.
         -2   -1    0    0    0  501 -0.00000000000E+00 -0.00000000000E+00 -0.45974382592E+03  0.45974382592E+03  0.00000000000E+00 0.  1.
         23    2    1    2    0    0  0.18974306949E+01 -0.44223758379E+02 -0.27166503922E+03  0.29348673431E+03  0.10184904828E+03 0.  0.
        -24    2    1    2    0    0 -0.48854531734E+02 -0.31651350641E+02  0.14681609105E+03  0.17614483760E+03  0.77996576546E+02 0.  0.
         11    1    4    4    0    0 -0.47759946145E+02 -0.42306676781E+02  0.15155061167E+03  0.16443374123E+03  0.00000000000E+00 0. -1.
        -12    1    4    4    0    0 -0.10945855891E+01  0.10655326139E+02 -0.47345206196E+01  0.11711096372E+02  0.00000000000E+00 0.  1.
        -13    1    3    3    0    0  0.42038292145E+02  0.10357556248E+02 -0.10469101749E+03  0.11329036200E+03  0.00000000000E+00 0.  1.
         13    1    3    3    0    0 -0.40140861450E+02 -0.54581314627E+02 -0.16697402173E+03  0.18019637231E+03  0.00000000000E+00 0. -1.
         21    1    1    2  502  501  0.46957101039E+02  0.75875109020E+02 -0.15025460158E+03  0.17475253018E+03  0.00000000000E+00 0.  1.
<scales pt_clust_5="13000.00000" pt_clust_6="13000.00000" pt_clust_7="13000.00000" pt_clust_8="13000.00000" pt_clust_9="89.23005"></scales>
<clustering>
<clus scale="   77.997">  5  6 -1 -1</clus>
<clus scale="   89.230">  2  9  1 -1</clus>
<clus scale="   95.016">  1  5  2 -1</clus>
<clus scale="  101.849">  7  8 -1 -1</clus>
<clus scale="   95.016">  1  5  2 -1</clus>
</clustering>
</event>
<event>
 9    1  0.3846604E-005  0.9026393E+02  0.7546771E-02  0.1306604E+00
         -4   -1    0    0    0  501 -0.00000000000E+00  0.00000000000E+00  0.11084644211E+03  0.11084644211E+03  0.00000000000E+00 0.  1.
          3   -1    0    0  502    0  0.00000000000E+00 -0.00000000000E+00 -0.14078001900E+03  0.14078001900E+03  0.00000000000E+00 0. -1.
        -24    2    1    2    0    0 -0.88180797916E+01  0.17696215074E+02  0.39550545492E+02  0.93843474093E+02  0.82773410115E+02 0.  0.
         23    2    1    2    0    0  0.91447321515E+01  0.23871629698E+01 -0.91112860668E+02  0.12826602417E+03  0.89784714199E+02 0.  0.
         11    1    3    3    0    0  0.12173105274E+01  0.24773699881E+02 -0.20729460451E+02  0.32325355084E+02  0.00000000000E+00 0. -1.
        -12    1    3    3    0    0 -0.10035390319E+02 -0.70774848077E+01  0.60280005942E+02  0.61518119009E+02  0.00000000000E+00 0.  1.
        -11    1    4    4    0    0  0.23952777747E+02 -0.36174714964E+02 -0.24334737225E+02  0.49744597700E+02  0.00000000000E+00 0.  1.
         11    1    4    4    0    0 -0.14808045595E+02  0.38561877934E+02 -0.66778123443E+02  0.78521426469E+02  0.00000000000E+00 0. -1.
         21    1    1    2  502  501 -0.32665235982E+00 -0.20083378043E+02  0.21628738294E+02  0.29516962845E+02  0.00000000000E+00 0.  1.
<scales pt_clust_5="13000.00000" pt_clust_6="13000.00000" pt_clust_7="13000.00000" pt_clust_8="13000.00000" pt_clust_9="20.08603"></scales>
<clustering>
<clus scale="   20.086">  1  9  2 -1</clus>
<clus scale="   82.773">  5  6 -1 -1</clus>
<clus scale="   83.293">  1  5  2 -1</clus>
<clus scale="   89.785">  7  8 -1 -1</clus>
<clus scale="   90.264">  2  5  1 -1</clus>
</clustering>
</event>
<event>
 9    1  0.3846604E-005  0.9279760E+02  0.7546771E-02  0.1298929E+00
         -2   -1    0    0    0  501 -0.00000000000E+00  0.00000000000E+00  0.26889713514E+03  0.26889713514E+03  0.00000000000E+00 0.  1.
          1   -1    0    0  502    0  0.00000000000E+00 -0.00000000000E+00 -0.23534723058E+03  0.23534723058E+03  0.00000000000E+00 0. -1.
         23    2    1    2    0    0 -0.47020898797E+02  0.42183228356E+02 -0.76741171060E+02  0.13142386042E+03  0.85980428438E+02 0.  0.
        -24    2    1    2    0    0 -0.10931565512E+02 -0.28992271509E+02 -0.11259136367E+03  0.14214958991E+03  0.81053314599E+02 0.  0.
         11    1    4    4    0    0 -0.43963414898E+02 -0.18807114378E+01 -0.55049642227E+02  0.70475400207E+02  0.00000000000E+00 0. -1.
        -12    1    4    4    0    0  0.33031849386E+02 -0.27111560071E+02 -0.57541721445E+02  0.71674189707E+02  0.00000000000E+00 0.  1.
        -11    1    3    3    0    0 -0.71194807557E+02  0.40880018729E+02 -0.54426121407E+02  0.98499133223E+02  0.00000000000E+00 0.  1.
         11    1    3    3    0    0  0.24173908760E+02  0.13032096268E+01 -0.22315049654E+02  0.32924727199E+02  0.00000000000E+00 0. -1.
         21    1    1    2  502  501  0.57952464309E+02 -0.13190956847E+02  0.22288243929E+03  0.23067091539E+03  0.00000000000E+00 0.  1.
<scales pt_clust_5="13000.00000" pt_clust_6="13000.00000" pt_clust_7="13000.00000" pt_clust_8="13000.00000" pt_clust_9="59.43475"></scales>
<clustering>
<clus scale="   59.435">  1  9  2 -1</clus>
<clus scale="   81.053">  5  6 -1 -1</clus>
<clus scale="   85.980">  7  8 -1 -1</clus>
<clus scale="   88.252">  2  5  1 -1</clus>
<clus scale="   88.252">  2  5  1 -1</clus>
</clustering>
</event>
<event>
 9    1  0.3846604E-005  0.1042807E+03  0.7546771E-02  0.1277571E+00
          1   -1    0    0  502    0  0.00000000000E+00  0.00000000000E+00  0.13095539698E+03  0.13095539698E+03  0.00000000000E+00 0. -1.
         -2   -1    0    0    0  501 -0.00000000000E+00 -0.00000000000E+00 -0.26035712604E+03  0.26035712604E+03  0.00000000000E+00 0.  1.
        -24    2    1    2    0    0 -0.16795197858E+02 -0.45983453072E+02 -0.20696702411E+03  0.22722610543E+03  0.79998733059E+02 0.  0.
         23    2    1    2    0    0  0.38710952412E+02  0.16420837159E+02  0.76018894583E+02  0.12725382453E+03  0.92986460278E+02 0.  0.
         11    1    3    3    0    0 -0.27136992881E+02  0.13527544005E+02 -0.44095378230E+02  0.53514607451E+02  0.00000000000E+00 0. -1.
        -12    1    3    3    0    0  0.10341795022E+02 -0.59510997077E+02 -0.16287164588E+03  0.17371149798E+03  0.00000000000E+00 0.  1.
        -11    1    4    4    0    0  0.48659295607E+02  0.47969293165E+02  0.57752350178E+02  0.89465714588E+02  0.00000000000E+00 0. -1.
         11    1    4    4    0    0 -0.99483431952E+01 -0.31548456006E+02  0.18266544405E+02  0.37788109945E+02  0.00000000000E+00 0.  1.
         21    1    1    2  502  501 -0.21915754554E+02  0.29562615913E+02  0.15464004666E+01  0.36832593062E+02  0.00000000000E+00 0. -1.
<scales pt_clust_5="13000.00000" pt_clust_6="13000.00000" pt_clust_7="13000.00000" pt_clust_8="13000.00000" pt_clust_9="36.80012"></scales>
<clustering>
<clus scale="   36.800">  1  9  2 -1</clus>
<clus scale="   79.999">  5  6 -1 -1</clus>
<clus scale="   92.886">  2  5  1 -1</clus>
<clus scale="   92.986">  7  8 -1 -1</clus>
<clus scale="   36.800">  1  5  2 -1</clus>
</clustering>
</event>
<event>
 9    1  0.3846604E-005  0.1236980E+03  0.7546771E-02  0.1253083E+00
          3   -1    0    0  502    0  0.00000000000E+00  0.00000000000E+00  0.15561938788E+03  0.15561938788E+03  0.00000000000E+00 0. -1.
         -4   -1    0    0    0  501 -0.00000000000E+00 -0.00000000000E+00 -0.18572722760E+03  0.18572722760E+03  0.00000000000E+00 0.  1.
         23    2    1    2    0    0  0.29453628382E+01 -0.65406462224E+02 -0.60318032860E+02  0.12739306485E+03  0.91126546198E+02 0.  0.
        -24    2    1    2    0    0  0.34484364780E+01 -0.41428549902E+02  0.53489834329E+02  0.10442482297E+03  0.79468011270E+02 0.  0.
         11    1    4    4    0    0 -0.10383894034E+02 -0.31012678813E+02  0.71999053348E+02  0.79078917453E+02  0.00000000000E+00 0. -1.
        -12    1    4    4    0    0  0.13832330512E+02 -0.10415871088E+02 -0.18509219019E+02  0.25345905520E+02  0.00000000000E+00 0.  1.
        -13    1    3    3    0    0  0.20090649610E+02 -0.29395337805E+02 -0.76477463119E+02  0.84359483471E+02  0.00000000000E+00 0. -1.
         13    1    3    3    0    0 -0.17145286771E+02 -0.36011124419E+02  0.16159430259E+02  0.43033581383E+02  0.00000000000E+00 0.  1.
         21    1    1    2  502  501 -0.63937993161E+01  0.10683501213E+03 -0.23279641190E+02  0.10952872765E+03  0.00000000000E+00 0.  1.
<scales pt_clust_5="13000.00000" pt_clust_6="13000.00000" pt_clust_7="13000.00000" pt_clust_8="13000.00000" pt_clust_9="83.64896"></scales>
<clustering>
<clus scale="   79.468">  5  6 -1 -1</clus>
<clus scale="   89.685">  1  5  2 -1</clus>
<clus scale="   83.649">  1  9  2 -1</clus>
<clus scale="   91.127">  7  8 -1 -1</clus>
<clus scale="   89.685">  1  5  2 -1</clus>
</clustering>
</event>
<event>
 9    1  0.3846604E-005  0.1056578E+03  0.7546771E-02  0.1273058E+00
          1   -1    0    0  502    0  0.00000000000E+00  0.00000000000E+00  0.74819048384E+02  0.74819048384E+02  0.00000000000E+00 0. -1.
         -2   -1    0    0    0  501 -0.00000000000E+00 -0.00000000000E+00 -0.35518795932E+03  0.35518795932E+03  0.00000000000E+00 0.  1.
        -24    2    1    2    0    0  0.29335041763E+02 -0.85926841662E+01 -0.23050748955E+03  0.24631228870E+03  0.81250611848E+02 0.  0.
         23    2    1    2    0    0 -0.57824293070E+02 -0.10538046862E+02  0.15912132235E+02  0.10950723580E+03  0.91016149332E+02 0.  0.
         11    1    3    3    0    0 -0.22701373009E+02 -0.12475478359E+02 -0.32584162793E+02  0.41625924154E+02  0.00000000000E+00 0. -1.
        -12    1    3    3    0    0  0.52036414772E+02  0.38827941933E+01 -0.19792332676E+03  0.20468636454E+03  0.00000000000E+00 0.  1.
        -13    1    4    4    0    0 -0.17779112308E+02  0.21159804779E+02  0.43441587714E+02  0.51487918154E+02  0.00000000000E+00 0. -1.
         13    1    4    4    0    0 -0.40045180762E+02 -0.31697851641E+02 -0.27529455479E+02  0.58019317644E+02  0.00000000000E+00 0.  1.
         21    1    1    2  502  501  0.28489251307E+02  0.19130731028E+02 -0.65773553619E+02  0.74187483212E+02  0.00000000000E+00 0. -1.
<scales pt_clust_5="13000.00000" pt_clust_6="13000.00000" pt_clust_7="13000.00000" pt_clust_8="13000.00000" pt_clust_9="34.31650"></scales>
<clustering>
<clus scale="   34.317">  2  9  1 -1</clus>
<clus scale="   81.251">  5  6 -1 -1</clus>
<clus scale="   91.016">  7  8 -1 -1</clus>
<clus scale="   97.372">  2  5  1 -1</clus>
<clus scale="  105.658">  1  5  2 -1</clus>
</clustering>
</event>
<event>
 9    1  0.3846604E-005  0.2008531E+03  0.7546771E-02  0.1149855E+00
          1   -1    0    0  502    0  0.00000000000E+00  0.00000000000E+00  0.61206712219E+03  0.61206712219E+03  0.00000000000E+00 0. -1.
         -2   -1    0    0    0  501 -0.00000000000E+00 -0.00000000000E+00 -0.13402934947E+03  0.13402934947E+03  0.00000000000E+00 0.  1.
        -24    2    1    2    0    0  0.16007418812E+03 -0.18921187787E+02  0.79483039333E+02  0.19716290188E+03  0.81079586111E+02 0.  0.
         23    2    1    2    0    0 -0.18636772098E+03  0.10150409694E+02  0.44721932300E+03  0.49292893871E+03  0.90210074341E+02 0.  0.
         13    1    3    3    0    0  0.95795612141E+02  0.14806101778E+02  0.78228909890E+02  0.12456236309E+03  0.00000000000E+00 0. -1.
        -14    1    3    3    0    0  0.64278575984E+02 -0.33727289566E+02  0.12541294436E+01  0.72600538790E+02  0.00000000000E+00 0.  1.
        -11    1    4    4    0    0 -0.12124037275E+03 -0.18076040638E+02  0.19012161579E+03  0.22621273178E+03  0.00000000000E+00 0.  1.
         11    1    4    4    0    0 -0.65127348232E+02  0.28226450331E+02  0.25709770721E+03  0.26671620693E+03  0.00000000000E+00 0. -1.
         21    1    1    2  502  501  0.26293532854E+02  0.87707780938E+01 -0.48664589621E+02  0.56004631070E+02  0.00000000000E+00 0.  1.
<scales pt_clust_5="13000.00000" pt_clust_6="13000.00000" pt_clust_7="13000.00000" pt_clust_8="13000.00000" pt_clust_9="27.71780"></scales>
<clustering>
<clus scale="   27.718">  2  9  1 -1</clus>
<clus scale="   81.080">  5  6 -1 -1</clus>
<clus scale="   90.210">  7  8 -1 -1</clus>
<clus scale="  196.921">  2  5  1 -1</clus>
<clus scale="  200.853">  1  5  2 -1</clus>
</clustering>
</event>
<event>
 9    1  0.3846604E-005  0.1282392E+03  0.7546771E-02  0.1232838E+00
          1   -1    0    0  502    0  0.00000000000E+00  0.00000000000E+00  0.22516686088E+02  0.22516686088E+02  0.00000000000E+00 0. -1.
         -2   -1    0    0    0  501 -0.00000000000E+00 -0.00000000000E+00 -0.17250972845E+04  0.17250972845E+04  0.00000000000E+00 0.  1.
        -24    2    1    2    0    0  0.57476526632E+02  0.11360647090E+03 -0.11935076079E+04  0.12029655713E+04  0.80347833277E+02 0.  0.
         23    2    1    2    0    0 -0.49322664296E+02 -0.67580331994E+02 -0.22352750539E+03  0.25530238668E+03  0.90636286825E+02 0.  0.
         11    1    3    3    0    0  0.19716856259E+02  0.61941629212E+02 -0.29006877914E+03  0.29726321078E+03  0.00000000000E+00 0. -1.
        -12    1    3    3    0    0  0.37759670373E+02  0.51664841692E+02 -0.90343882876E+03  0.90570236054E+03  0.00000000000E+00 0.  1.
        -11    1    4    4    0    0  0.17488137590E+02  0.10606702307E+02 -0.34415104544E+02  0.40034191774E+02  0.00000000000E+00 0.  1.
         11    1    4    4    0    0 -0.66810801886E+02 -0.78187034301E+02 -0.18911240085E+03  0.21526819490E+03  0.00000000000E+00 0. -1.
         21    1    1    2  502  501 -0.81538623358E+01 -0.46026138911E+02 -0.28554548513E+03  0.28934601261E+03  0.00000000000E+00 0. -1.
<scales pt_clust_5="13000.00000" pt_clust_6="13000.00000" pt_clust_7="13000.00000" pt_clust_8="13000.00000" pt_clust_9="46.74282"></scales>
<clustering>
<clus scale="   46.743">  2  9  1 -1</clus>
<clus scale="   80.348">  5  6 -1 -1</clus>
<clus scale="   90.636">  7  8 -1 -1</clus>
<clus scale="  121.186">  2  5  1 -1</clus>
<clus scale="  128.239">  1  5  2 -1</clus>
</clustering>
</event>
<event>
 9    1  0.3846604E-005  0.1534051E+03  0.7546771E-02  0.1197144E+00
         -2   -1    0    0    0  501 -0.00000000000E+00  0.00000000000E+00  0.58205517437E+02  0.58205517437E+02  0.00000000000E+00 0.  1.
          1   -1    0    0  502    0  0.00000000000E+00 -0.00000000000E+00 -0.74095575618E+03  0.74095575618E+03  0.00000000000E+00 0. -1.
        -24    2    1    2    0    0 -0.11558235324E+03 -0.28521708030E+02 -0.18116187018E+03  0.23273604361E+03  0.84697547656E+02 0.  0.
         23    2    1    2    0    0  0.11717175643E+03  0.51029695394E+02 -0.51640717376E+03  0.53943018073E+03  0.89304537723E+02 0.  0.
         13    1    3    3    0    0 -0.10132663496E+03  0.12958703435E+02 -0.12294011079E+03  0.15984143952E+03  0.00000000000E+00 0. -1.
        -14    1    3    3    0    0 -0.14255718280E+02 -0.41480411465E+02 -0.58221759385E+02  0.72894604087E+02  0.00000000000E+00 0.  1.
        -13    1    4    4    0    0  0.21811077254E+02 -0.19011048170E+01 -0.15596489961E+02  0.26880993092E+02  0.00000000000E+00 0.  1.
         13    1    4    4    0    0  0.95360679178E+02  0.52930800211E+02 -0.50081068380E+03  0.51254918764E+03  0.00000000000E+00 0. -1.
         21    1    1    2  502  501 -0.15894031956E+01 -0.22507987364E+02  0.14818805199E+02  0.26995049273E+02  0.00000000000E+00 0.  1.
<scales pt_clust_5="13000.00000" pt_clust_6="13000.00000" pt_clust_7="13000.00000" pt_clust_8="13000.00000" pt_clust_9="22.56404"></scales>
<clustering>
<clus scale="   22.564">  1  9  2 -1</clus>
<clus scale="   84.698">  5  6 -1 -1</clus>
<clus scale="   89.305">  7  8 -1 -1</clus>
<clus scale="  150.770">  1  5  2 -1</clus>
<clus scale="  153.405">  2  5  1 -1</clus>
</clustering>
</event>
<event>
 9    1  0.3846604E-005  0.9307525E+02  0.7546771E-02  0.1301396E+00
          1   -1    0    0  502    0  0.00000000000E+00  0.00000000000E+00  0.10188240513E+03  0.10188240513E+03  0.00000000000E+00 0. -1.
         -2   -1    0    0    0  501 -0.00000000000E+00 -0.00000000000E+00 -0.19330795254E+03  0.19330795254E+03  0.00000000000E+00 0.  1.
        -24    2    1    2    0    0  0.51648897030E+01  0.60909233959E+01 -0.48834380020E+02  0.95147962741E+02  0.81268460723E+02 0.  0.
         23    2    1    2    0    0  0.54746788149E+01 -0.24649465428E+02  0.48710376162E+02  0.10626824200E+03  0.91009176783E+02 0.  0.
         11    1    3    3    0    0 -0.31410778108E+01 -0.37124469308E+02 -0.17742902296E+02  0.41266247383E+02  0.00000000000E+00 0. -1.
        -12    1    3    3    0    0  0.83059675138E+01  0.43215392703E+02 -0.31091477724E+02  0.53881715358E+02  0.00000000000E+00 0.  1.
        -13    1    4    4    0    0  0.48267955941E+02 -0.15368981043E+02  0.26566943688E+02  0.57199682219E+02  0.00000000000E+00 0.  1.
         13    1    4    4    0    0 -0.42793277126E+02 -0.92804843851E+01  0.22143432474E+02  0.49068559785E+02  0.00000000000E+00 0. -1.
         21    1    1    2  502  501 -0.10639568518E+02  0.18558542032E+02 -0.91301543553E+02  0.93774152920E+02  0.00000000000E+00 0.  1.
<scales pt_clust_5="13000.00000" pt_clust_6="13000.00000" pt_clust_7="13000.00000" pt_clust_8="13000.00000" pt_clust_9="21.39205"></scales>
<clustering>
<clus scale="   21.392">  2  9  1 -1</clus>
<clus scale="   81.268">  5  6 -1 -1</clus>
<clus scale="   83.576">  2  5  1 -1</clus>
<clus scale="   91.009">  7  8 -1 -1</clus>
<clus scale="   93.075">  1  5  2 -1</clus>
</clustering>
</event>
<event>
 9    1  0.4437694E-005  0.9088153E+02  0.7546771E-02  0.1304861E+00
         -2   -1    0    0    0  501 -0.00000000000E+00  0.00000000000E+00  0.18146012781E+03  0.18146012781E+03  0.00000000000E+00 0.  1.
          1   -1    0    0  502    0  0.00000000000E+00 -0.00000000000E+00 -0.25521697100E+03  0.25521697100E+03  0.00000000000E+00 0. -1.
        -24    2    1    2    0    0 -0.79947759382E+01 -0.34270697006E+02  0.13992466488E+03  0.16636135067E+03  0.82817812327E+02 0.  0.
         23    2    1    2    0    0 -0.15287322148E+02  0.49499466575E+01 -0.21435785092E+03  0.23286952094E+03  0.89558479998E+02 0.  0.
         11    1    3    3    0    0 -0.28208766815E+02 -0.54035476909E+02  0.85123033301E+02  0.10469717326E+03  0.00000000000E+00 0. -1.
        -12    1    3    3    0    0  0.20213990877E+02  0.19764779904E+02  0.54801631578E+02  0.61664177408E+02  0.00000000000E+00 0.  1.
        -13    1    4    4    0    0  0.19869963902E+02  0.24005832515E+02 -0.26817164726E+02  0.41112720467E+02  0.00000000000E+00 0.  1.
         13    1    4    4    0    0 -0.35157286051E+02 -0.19055885857E+02 -0.18754068619E+03  0.19175680047E+03  0.00000000000E+00 0. -1.
         21    1    1    2  502  501  0.23282098086E+02  0.29320750348E+02  0.67634284365E+00  0.37446227206E+02  0.00000000000E+00 0.  1.
<scales pt_clust_5="13000.00000" pt_clust_6="13000.00000" pt_clust_7="13000.00000" pt_clust_8="13000.00000" pt_clust_9="37.44012"></scales>
<clustering>
<clus scale="   37.440">  1  9  2 -1</clus>
<clus scale="   82.818">  5  6 -1 -1</clus>
<clus scale="   84.247">  1  5  2 -1</clus>
<clus scale="   89.558">  7  8 -1 -1</clus>
<clus scale="   90.882">  2  5  1 -1</clus>
</clustering>
</event>
<event>
 9    1  0.3846604E-005  0.1015320E+03  0.7546771E-02  0.1281546E+00
         -2   -1    0    0    0  501 -0.00000000000E+00  0.00000000000E+00  0.37654855261E+03  0.37654855261E+03  0.00000000000E+00 0.  1.
          1   -1    0    0  502    0  0.00000000000E+00 -0.00000000000E+00 -0.83921801731E+02  0.83921801731E+02  0.00000000000E+00 0. -1.
        -24    2    1    2    0    0 -0.25646523390E+02 -0.75739604017E+02  0.23894323558E+03  0.26533283555E+03  0.83146930262E+02 0.  0.
         23    2    1    2    0    0  0.24656667299E+01  0.36855722536E+02 -0.26658126386E+02  0.10291990799E+03  0.92289912565E+02 0.  0.
         11    1    3    3    0    0 -0.47819653397E+02 -0.14123933713E+02  0.10131929309E+03  0.11292388546E+03  0.00000000000E+00 0. -1.
        -12    1    3    3    0    0  0.22173130007E+02 -0.61615670304E+02  0.13762394249E+03  0.15240895009E+03  0.00000000000E+00 0.  1.
        -13    1    4    4    0    0 -0.22101843498E+02  0.38623959418E+02 -0.51414107151E+02  0.67997883358E+02  0.00000000000E+00 0. -1.
         13    1    4    4    0    0  0.24567510227E+02 -0.17682368813E+01  0.24755980765E+02  0.34922024627E+02  0.00000000000E+00 0.  1.
         21    1    1    2  502  501  0.23180856661E+02  0.38883881480E+02  0.80341641687E+02  0.92217610809E+02  0.00000000000E+00 0.  1.
<scales pt_clust_5="13000.00000" pt_clust_6="13000.00000" pt_clust_7="13000.00000" pt_clust_8="13000.00000" pt_clust_9="45.26929"></scales>
<clustering>
<clus scale="   45.269">  1  9  2 -1</clus>
<clus scale="   83.147">  5  6 -1 -1</clus>
<clus scale="   92.290">  7  8 -1 -1</clus>
<clus scale="   93.299">  1  5  2 -1</clus>
<clus scale="  101.532">  2  5  1 -1</clus>
</clustering>
</event>
<event>
 9    1  0.3846604E-005  0.1125301E+03  0.7546771E-02  0.1258477E+00
          1   -1    0    0  502    0  0.00000000000E+00  0.00000000000E+00  0.41209075837E+02  0.41209075837E+02  0.00000000000E+00 0. -1.
         -2   -1    0    0    0  501 -0.00000000000E+00 -0.00000000000E+00 -0.86536017103E+03  0.86536017103E+03  0.00000000000E+00 0.  1.
        -24    2    1    2    0    0  0.88919894631E+02  0.49659351440E+01 -0.63418824804E+03  0.64569546941E+03  0.82440870248E+02 0.  0.
         23    2    1    2    0    0 -0.65401861661E+02  0.27775362451E+01 -0.55115598652E+02  0.12377221054E+03  0.89424340481E+02 0.  0.
         13    1    3    3    0    0  0.26209901009E+02 -0.35605637167E+02 -0.17651556809E+03  0.18196831067E+03  0.00000000000E+00 0. -1.
        -14    1    3    3    0    0  0.62709993622E+02  0.40571572311E+02 -0.45767267995E+03  0.46372715874E+03  0.00000000000E+00 0.  1.
        -11    1    4    4    0    0  0.22181328774E+02  0.36195173964E+00 -0.46674927224E+01  0.22669976700E+02  0.00000000000E+00 0.  1.
         11    1    4    4    0    0 -0.87583190435E+02  0.24155845054E+01 -0.50448105929E+02  0.10110223384E+03  0.00000000000E+00 0. -1.
         21    1    1    2  502  501 -0.23518032970E+02 -0.77434713891E+01 -0.13484724850E+03  0.13710156692E+03  0.00000000000E+00 0. -1.
<scales pt_clust_5="13000.00000" pt_clust_6="13000.00000" pt_clust_7="13000.00000" pt_clust_8="13000.00000" pt_clust_9="24.76003"></scales>
<clustering>
<clus scale="   24.760">  2  9  1 -1</clus>
<clus scale="   82.441">  5  6 -1 -1</clus>
<clus scale="   89.424">  7  8 -1 -1</clus>
<clus scale="  107.064">  2  5  1 -1</clus>
<clus scale="  112.530">  1  5  2 -1</clus>
</clustering>
</event>
<event>
 9    1  0.3846604E-005  0.9166586E+02  0.7546771E-02  0.1305773E+00
         -2   -1    0    0    0  501 -0.00000000000E+00  0.00000000000E+00  0.42265058922E+03  0.42265058922E+03  0.00000000000E+00 0.  1.
          1   -1    0    0  502    0  0.00000000000E+00 -0.00000000000E+00 -0.36055445663E+02  0.36055445663E+02  0.00000000000E+00 0. -1.
        -24    2    1    2    0    0  0.88707515801E+01  0.68778392269E+01  0.29837641858E+03  0.30901764497E+03  0.79607931977E+02 0.  0.
         23    2    1    2    0    0 -0.30000823884E+02  0.18091946236E+01  0.57794829830E+02  0.11164160413E+03  0.90665775228E+02 0.  0.
         11    1    3    3    0    0 -0.35320040345E+02  0.21813526962E+01  0.15073246036E+03  0.15483067576E+03  0.00000000000E+00 0. -1.
        -12    1    3    3    0    0  0.44190791925E+02  0.46964865307E+01  0.14764395821E+03  0.15418696921E+03  0.00000000000E+00 0.  1.
        -13    1    4    4    0    0 -0.35013443078E+02 -0.37442389853E+02  0.15124586803E+02  0.53447421640E+02  0.00000000000E+00 0. -1.
         13    1    4    4    0    0  0.50126191940E+01  0.39251584476E+02  0.42670243027E+02  0.58194182485E+02  0.00000000000E+00 0.  1.
         21    1    1    2  502  501  0.21130072304E+02 -0.86870338505E+01  0.30423895147E+02  0.38046785785E+02  0.00000000000E+00 0.  1.
<scales pt_clust_5="13000.00000" pt_clust_6="13000.00000" pt_clust_7="13000.00000" pt_clust_8="13000.00000" pt_clust_9="22.84610"></scales>
<clustering>
<clus scale="   22.846">  2  9  1 -1</clus>
<clus scale="   79.608">  5  6 -1 -1</clus>
<clus scale="   80.745">  1  5  2 -1</clus>
<clus scale="   90.666">  7  8 -1 -1</clus>
<clus scale="   22.846">  2  5  1 -1</clus>
</clustering>
</event>
<event>
 9    1  0.3846604E-005  0.1177828E+03  0.7546771E-02  0.1249130E+00
         -2   -1    0    0    0  501 -0.00000000000E+00  0.00000000000E+00  0.12044636721E+03  0.12044636721E+03  0.00000000000E+00 0.  1.
          1   -1    0    0  502    0  0.00000000000E+00 -0.00000000000E+00 -0.21239995852E+03  0.21239995852E+03  0.00000000000E+00 0. -1.
         23    2    1    2    0    0 -0.21805210852E+02 -0.54730258635E+02  0.47010035443E+02  0.11828667677E+03  0.91164280490E+02 0.  0.
        -24    2    1    2    0    0  0.22972407350E+02  0.74820142991E+02 -0.15203516146E+03  0.19056317379E+03  0.84106168546E+02 0.  0.
         11    1    4    4    0    0 -0.29204983139E+02  0.30461335416E+02 -0.84126770621E+02  0.94117679160E+02  0.00000000000E+00 0. -1.
        -12    1    4    4    0    0  0.52177390488E+02  0.44358807575E+02 -0.67908390841E+02  0.96445494629E+02  0.00000000000E+00 0.  1.
        -11    1    3    3    0    0 -0.55656530991E+02 -0.21920683577E+02  0.36208330981E+02  0.69922879252E+02  0.00000000000E+00 0.  1.
         11    1    3    3    0    0  0.33851320139E+02 -0.32809575058E+02  0.10801704462E+02  0.48363797513E+02  0.00000000000E+00 0. -1.
         21    1    1    2  502  501 -0.11671964974E+01 -0.20089884356E+02  0.13071534712E+02  0.23996475175E+02  0.00000000000E+00 0.  1.
<scales pt_clust_5="13000.00000" pt_clust_6="13000.00000" pt_clust_7="13000.00000" pt_clust_8="13000.00000" pt_clust_9="20.12376"></scales>
<clustering>
<clus scale="   20.124">  1  9  2 -1</clus>
<clus scale="   84.106">  5  6 -1 -1</clus>
<clus scale="   91.164">  7  8 -1 -1</clus>
<clus scale="  112.409">  2  5  1 -1</clus>
<clus scale="  112.409">  2  5  1 -1</clus>
</clustering>
</event>
<event>
 9    1  0.3846604E-005  0.1784990E+03  0.7546771E-02  0.1189547E+00
          1   -1    0    0  502    0  0.00000000000E+00  0.00000000000E+00  0.10599129732E+03  0.10599129732E+03  0.00000000000E+00 0. -1.
         -2   -1    0    0    0  501 -0.00000000000E+00 -0.00000000000E+00 -0.95131312338E+03  0.95131312338E+03  0.00000000000E+00 0.  1.
         23    2    1    2    0    0  0.27357794833E+02 -0.59992171773E+02 -0.41036465864E+03  0.42566060813E+03  0.91871054415E+02 0.  0.
        -24    2    1    2    0    0 -0.17448138543E+03  0.42535516541E+00 -0.43214944387E+03  0.47289419883E+03  0.80198794665E+02 0.  0.
         11    1    4    4    0    0 -0.64543978779E+02 -0.38793100220E+02 -0.17064934967E+03  0.18652621897E+03  0.00000000000E+00 0. -1.
        -12    1    4    4    0    0 -0.10993740665E+03  0.39218455385E+02 -0.26150009420E+03  0.28636797987E+03  0.00000000000E+00 0.  1.
        -11    1    3    3    0    0 -0.31785694005E+02 -0.37898893931E+02 -0.20001162097E+03  0.20603714478E+03  0.00000000000E+00 0. -1.
         11    1    3    3    0    0  0.59143488838E+02 -0.22093277842E+02 -0.21035303767E+03  0.21962346335E+03  0.00000000000E+00 0.  1.
         21    1    1    2  502  501  0.14712359060E+03  0.59566816607E+02 -0.28077235510E+01  0.15874961374E+03  0.00000000000E+00 0.  1.
<scales pt_clust_5="13000.00000" pt_clust_6="13000.00000" pt_clust_7="13000.00000" pt_clust_8="13000.00000" pt_clust_9="159.46805"></scales>
<clustering>
<clus scale="   80.199">  5  6 -1 -1</clus>
<clus scale="   91.871">  7  8 -1 -1</clus>
<clus scale="  113.083">  2  7  1 -1</clus>
<clus scale="  159.468">  1  9  2 -1</clus>
<clus scale="  159.468">  1  5  2 -1</clus>
</clustering>
</event>
<event>
 9    1  0.3846604E-005  0.9800291E+02  0.7546771E-02  0.1293274E+00
         -2   -1    0    0    0  501 -0.00000000000E+00  0.00000000000E+00  0.65922319971E+02  0.65922319971E+02  0.00000000000E+00 0.  1.
          1   -1    0    0  502    0  0.00000000000E+00 -0.00000000000E+00 -0.39171740170E+03  0.39171740170E+03  0.00000000000E+00 0. -1.
        -24    2    1    2    0    0  0.10462617318E+02 -0.18967919798E+02 -0.10364596278E+03  0.13290163978E+03  0.80318814196E+02 0.  0.
         23    2    1    2    0    0 -0.27068750537E+02 -0.93133631659E+00 -0.26030561966E+03  0.27861148869E+03  0.95560249906E+02 0.  0.
         11    1    3    3    0    0 -0.71866436450E+01 -0.47122948196E+02 -0.75823407152E+02  0.89562320011E+02  0.00000000000E+00 0. -1.
        -12    1    3    3    0    0  0.17649260963E+02  0.28155028398E+02 -0.27822555626E+02  0.43339319771E+02  0.00000000000E+00 0.  1.
        -13    1    4    4    0    0  0.95783080555E+01  0.22671710210E+02 -0.13670133650E+02  0.28153560752E+02  0.00000000000E+00 0.  1.
         13    1    4    4    0    0 -0.36647058593E+02 -0.23603046526E+02 -0.24663548601E+03  0.25045792794E+03  0.00000000000E+00 0. -1.
         21    1    1    2  502  501  0.16606133219E+02  0.19899256115E+02  0.38156500703E+02  0.46126593201E+02  0.00000000000E+00 0.  1.
<scales pt_clust_5="13000.00000" pt_clust_6="13000.00000" pt_clust_7="13000.00000" pt_clust_8="13000.00000" pt_clust_9="25.91803"></scales>
<clustering>
<clus scale="   25.918">  1  9  2 -1</clus>
<clus scale="   80.319">  5  6 -1 -1</clus>
<clus scale="   83.210">  1  5  2 -1</clus>
<clus scale="   95.560">  7  8 -1 -1</clus>
<clus scale="   98.003">  2  5  1 -1</clus>
</clustering>
</event>
<event>
 9    1  0.3846604E-005  0.1111392E+03  0.7546771E-02  0.1264277E+00
          1   -1    0    0  502    0  0.00000000000E+00  0.00000000000E+00  0.74531889572E+03  0.74531889572E+03  0.00000000000E+00 0. -1.
         -2   -1    0    0    0  501 -0.00000000000E+00 -0.00000000000E+00 -0.51885095445E+02  0.51885095445E+02  0.00000000000E+00 0.  1.
        -24    2    1    2    0    0 -0.27204036382E+02  0.99645419909E+01  0.27271095467E+02  0.92162176416E+02  0.83131236134E+02 0.  0.
         23    2    1    2    0    0 -0.10107504849E+02 -0.61206491184E+02  0.60863122514E+03  0.61943948056E+03  0.97081953229E+02 0.  0.
         13    1    3    3    0    0  0.82434914593E+01 -0.31832076938E+02  0.62849942905E+01  0.33477416669E+02  0.00000000000E+00 0. -1.
        -14    1    3    3    0    0 -0.35447527841E+02  0.41796618929E+02  0.20986101177E+02  0.58684759747E+02  0.00000000000E+00 0.  1.
        -11    1    4    4    0    0 -0.40198241380E+02  0.59925418758E+01  0.18008919919E+03  0.18461833288E+03  0.00000000000E+00 0.  1.
         11    1    4    4    0    0  0.30090736531E+02 -0.67199033060E+02  0.42854202595E+03  0.43482114768E+03  0.00000000000E+00 0. -1.
         21    1    1    2  502  501  0.37311541230E+02  0.51241949194E+02  0.57531479670E+02  0.85602334192E+02  0.00000000000E+00 0.  1.
<scales pt_clust_5="13000.00000" pt_clust_6="13000.00000" pt_clust_7="13000.00000" pt_clust_8="13000.00000" pt_clust_9="63.38682"></scales>
<clustering>
<clus scale="   63.387">  2  9  1 -1</clus>
<clus scale="   83.131">  5  6 -1 -1</clus>
<clus scale="   97.082">  7  8 -1 -1</clus>
<clus scale="   99.186">  2  5  1 -1</clus>
<clus scale="  111.139">  1  5  2 -1</clus>
</clustering>
</event>
<event>
 9    1  0.3846604E-005  0.1704650E+03  0.7546771E-02  0.1178662E+00
         -2   -1    0    0    0  501 -0.00000000000E+00  0.00000000000E+00  0.11816947738E+03  0.11816947738E+03  0.00000000000E+00 0.  1.
          1   -1    0    0  502    0  0.00000000000E+00 -0.00000000000E+00 -0.89755526254E+03  0.89755526254E+03  0.00000000000E+00 0. -1.
         23    2    1    2    0    0 -0.55938650532E+02  0.18846161827E+03 -0.14286613639E+03  0.25959200184E+03  0.91270807529E+02 0.  0.
        -24    2    1    2    0    0  0.65055389367E+02 -0.11953208282E+03 -0.66299475302E+03  0.68173296033E+03  0.81716975925E+02 0.  0.
         11    1    4    4    0    0  0.65508531861E+02 -0.89712510635E+02 -0.34730008718E+03  0.36463276439E+03  0.00000000000E+00 0. -1.
        -12    1    4    4    0    0 -0.45314249389E+00 -0.29819572186E+02 -0.31569466584E+03  0.31710019594E+03  0.00000000000E+00 0.  1.
        -11    1    3    3    0    0 -0.29494441369E+02  0.20871439049E+02 -0.61727257410E+02  0.71524774358E+02  0.00000000000E+00 0. -1.
         11    1    3    3    0    0 -0.26444209163E+02  0.16759017922E+03 -0.81138878978E+02  0.18806722748E+03  0.00000000000E+00 0.  1.
         21    1    1    2  502  501 -0.91167388343E+01 -0.68929535451E+02  0.26475104252E+02  0.74399777752E+02  0.00000000000E+00 0.  1.
<scales pt_clust_5="13000.00000" pt_clust_6="13000.00000" pt_clust_7="13000.00000" pt_clust_8="13000.00000" pt_clust_9="69.52982"></scales>
<clustering>
<clus scale="   69.530">  1  9  2 -1</clus>
<clus scale="   81.717">  5  6 -1 -1</clus>
<clus scale="   91.271">  7  8 -1 -1</clus>
<clus scale="  165.546">  2  5  1 -1</clus>
<clus scale="  165.546">  2  5  1 -1</clus>
</clustering>
</event>
<event>
 9    1  0.3846604E-005  0.9928450E+02  0.7546771E-02  0.1286392E+00
         -2   -1    0    0    0  501 -0.00000000000E+00  0.00000000000E+00  0.41642484359E+03  0.41642484359E+03  0.00000000000E+00 0.  1.
          1   -1    0    0  502    0  0.00000000000E+00 -0.00000000000E+00 -0.16588230108E+03  0.16588230108E+03  0.00000000000E+00 0. -1.
        -24    2    1    2    0    0 -0.43187138178E+02  0.20975460784E+02  0.27228243103E+03  0.28816011845E+03  0.81199955408E+02 0.  0.
         23    2    1    2    0    0 -0.25277322936E+02  0.39033743456E+02 -0.12195854854E+03  0.15875032446E+03  0.90361506017E+02 0.  0.
         11    1    3    3    0    0  0.12766754723E+02  0.33211697157E+02  0.13001759239E+03  0.13479829815E+03  0.00000000000E+00 0. -1.
        -12    1    3    3    0    0 -0.55953892901E+02 -0.12236236373E+02  0.14226483864E+03  0.15336182030E+03  0.00000000000E+00 0.  1.
        -13    1    4    4    0    0  0.33428825869E+01 -0.25216432214E+02 -0.59405038866E+02  0.64621992852E+02  0.00000000000E+00 0.  1.
         13    1    4    4    0    0 -0.28620205523E+02  0.64250175670E+02 -0.62553509678E+02  0.94128331605E+02  0.00000000000E+00 0. -1.
         21    1    1    2  502  501  0.68464461115E+02 -0.60009204240E+02  0.10021866003E+03  0.13539670176E+03  0.00000000000E+00 0. -1.
<scales pt_clust_5="13000.00000" pt_clust_6="13000.00000" pt_clust_7="13000.00000" pt_clust_8="13000.00000" pt_clust_9="91.04113"></scales>
<clustering>
<clus scale="   81.200">  5  6 -1 -1</clus>
<clus scale="   90.362">  7  8 -1 -1</clus>
<clus scale="   91.041">  1  9  2 -1</clus>
<clus scale="   91.041">  1  5  2 -1</clus>
<clus scale="   99.285">  2  5  1 -1</clus>
</clustering>
</event>
<event>
 9    1  0.3846604E-005  0.1513556E+03  0.7546771E-02  0.1200608E+00
         -2   -1    0    0    0  501 -0.00000000000E+00  0.00000000000E+00  0.97687137116E+03  0.97687137116E+03  0.00000000000E+00 0.  1.
          1   -1    0    0  502    0  0.00000000000E+00 -0.00000000000E+00 -0.28941267486E+03  0.28941267486E+03  0.00000000000E+00 0. -1.
         23    2    1    2    0    0 -0.27767206874E+02 -0.33880424068E+02  0.45457941154E+03  0.46554764676E+03  0.90406134153E+02 0.  0.
        -24    2    1    2    0    0  0.90778564573E+02  0.85511040803E+02 -0.26098033272E+03  0.30020321000E+03  0.80363843485E+02 0.  0.
         11    1    4    4    0    0  0.55207847181E+02  0.84950861864E+02 -0.23572439576E+03  0.25657464037E+03  0.00000000000E+00 0. -1.
        -12    1    4    4    0    0  0.35570717393E+02  0.56017893956E+00 -0.25255936959E+02  0.43628569630E+02  0.00000000000E+00 0.  1.
        -11    1    3    3    0    0  0.32729807436E+02 -0.10954330883E+02  0.19477104130E+03  0.19780545035E+03  0.00000000000E+00 0. -1.
         11    1    3    3    0    0 -0.60497014310E+02 -0.22926093186E+02  0.25980837024E+03  0.26774219640E+03  0.00000000000E+00 0.  1.
         21    1    1    2  502  501 -0.63011357699E+02 -0.51630616735E+02  0.49385961748E+03  0.50053318927E+03  0.00000000000E+00 0.  1.
<scales pt_clust_5="13000.00000" pt_clust_6="13000.00000" pt_clust_7="13000.00000" pt_clust_8="13000.00000" pt_clust_9="81.46258"></scales>
<clustering>
<clus scale="   80.364">  5  6 -1 -1</clus>
<clus scale="   81.463">  1  9  2 -1</clus>
<clus scale="   90.406">  7  8 -1 -1</clus>
<clus scale="  145.580">  2  5  1 -1</clus>
<clus scale="  145.580">  2  5  1 -1</clus>
</clustering>
</event>
<event>
 9    1  0.3846604E-005  0.1456913E+03  0.7546771E-02  0.1217822E+00
          1   -1    0    0  502    0  0.00000000000E+00  0.00000000000E+00  0.11721893362E+04  0.11721893362E+04  0.00000000000E+00 0. -1.
         -2   -1    0    0    0  501 -0.00000000000E+00 -0.00000000000E+00 -0.57381204833E+02  0.57381204833E+02  0.00000000000E+00 0.  1.
         23    2    1    2    0    0 -0.66677994863E+02  0.76142978936E+02  0.13922333505E+03  0.19412816107E+03  0.89771363226E+02 0.  0.
        -24    2    1    2    0    0 -0.69257491642E+02 -0.38704544791E+02  0.81052959373E+03  0.81836333274E+03  0.80409452957E+02 0.  0.
         11    1    4    4    0    0 -0.22433370471E+01 -0.30959941418E+02  0.10172320383E+03  0.10635394084E+03  0.00000000000E+00 0. -1.
        -12    1    4    4    0    0 -0.67014154595E+02 -0.77446033723E+01  0.70880638990E+03  0.71200939190E+03  0.00000000000E+00 0.  1.
        -11    1    3    3    0    0 -0.70557027403E+02  0.37185984180E+02  0.43813386260E+02  0.90998375541E+02  0.00000000000E+00 0.  1.
         11    1    3    3    0    0  0.38790325406E+01  0.38956994756E+02  0.95409948793E+02  0.10312978553E+03  0.00000000000E+00 0. -1.
         21    1    1    2  502  501  0.13593548651E+03 -0.37438434145E+02  0.16505520256E+03  0.21707904721E+03  0.00000000000E+00 0. -1.
<scales pt_clust_5="13000.00000" pt_clust_6="13000.00000" pt_clust_7="13000.00000" pt_clust_8="13000.00000" pt_clust_9="114.74774"></scales>
<clustering>
<clus scale="   80.409">  5  6 -1 -1</clus>
<clus scale="   89.771">  7  8 -1 -1</clus>
<clus scale="  112.962">  1  5  2 -1</clus>
<clus scale="  114.748">  1  9  2 -1</clus>
<clus scale="  112.962">  1  5  2 -1</clus>
</clustering>
</event>
<event>
 9    1  0.3846604E-005  0.1086191E+03  0.7546771E-02  0.1271910E+00
         -2   -1    0    0    0  501 -0.00000000000E+00  0.00000000000E+00  0.47542766669E+02  0.47542766669E+02  0.00000000000E+00 0.  1.
          1   -1    0    0  502    0  0.00000000000E+00 -0.00000000000E+00 -0.41887472143E+03  0.41887472143E+03  0.00000000000E+00 0. -1.
        -24    2    1    2    0    0 -0.15688956033E+02 -0.33327108799E+02 -0.31490687159E+02  0.85744812435E+02  0.70736623891E+02 0.  0.
         23    2    1    2    0    0  0.42640117927E+02  0.50489074009E+02 -0.32744434431E+03  0.34640050205E+03  0.91685238433E+02 0.  0.
         13    1    3    3    0    0  0.18603423315E+02 -0.26593236071E+02 -0.38235953887E+02  0.50152524697E+02  0.00000000000E+00 0. -1.
        -14    1    3    3    0    0 -0.34292379348E+02 -0.67338727278E+01  0.67452667277E+01  0.35592287739E+02  0.00000000000E+00 0.  1.
        -13    1    4    4    0    0  0.17484455697E+02 -0.26606739342E+02 -0.98514643835E+02  0.10353144363E+03  0.00000000000E+00 0.  1.
         13    1    4    4    0    0  0.25155662230E+02  0.77095813351E+02 -0.22892970048E+03  0.24286905842E+03  0.00000000000E+00 0. -1.
         21    1    1    2  502  501 -0.26951161894E+02 -0.17161965210E+02 -0.12396923291E+02  0.34272173616E+02  0.00000000000E+00 0.  1.
<scales pt_clust_5="13000.00000" pt_clust_6="13000.00000" pt_clust_7="13000.00000" pt_clust_8="13000.00000" pt_clust_9="31.95150"></scales>
<clustering>
<clus scale="   31.951">  1  9  2 -1</clus>
<clus scale="   70.737">  5  6 -1 -1</clus>
<clus scale="   91.628">  1  5  2 -1</clus>
<clus scale="   91.685">  7  8 -1 -1</clus>
<clus scale="  108.619">  2  5  1 -1</clus>
</clustering>
</event>
<event>
 9    1  0.3846604E-005  0.1957268E+03  0.7546771E-02  0.1154630E+00
         -2   -1    0    0    0  501 -0.00000000000E+00  0.00000000000E+00  0.12148491246E+03  0.12148491246E+03  0.00000000000E+00 0.  1.
          1   -1    0    0  502    0  0.00000000000E+00 -0.00000000000E+00 -0.41387130173E+03  0.41387130173E+03  0.00000000000E+00 0. -1.
        -24    2    1    2    0    0  0.82644271696E+02  0.15456657308E+03 -0.74961799249E+02  0.20612912144E+03  0.78415828757E+02 0.  0.
         23    2    1    2    0    0 -0.10308586968E+03 -0.13860838284E+03 -0.22886631800E+03  0.30088214783E+03  0.91166304351E+02 0.  0.
         13    1    3    3    0    0 -0.69347899708E+01  0.26728084042E+02 -0.35763713022E+02  0.45183237574E+02  0.00000000000E+00 0. -1.
        -14    1    3    3    0    0  0.89579061666E+02  0.12783848904E+03 -0.39198086228E+02  0.16094588386E+03  0.00000000000E+00 0.  1.
        -13    1    4    4    0    0 -0.52927143382E+02 -0.90509609149E+02 -0.19962912818E+03  0.22548849344E+03  0.00000000000E+00 0. -1.
         13    1    4    4    0    0 -0.50158726294E+02 -0.48098773691E+02 -0.29237189813E+02  0.75393654389E+02  0.00000000000E+00 0.  1.
         21    1    1    2  502  501  0.20441597981E+02 -0.15958190241E+02  0.11441727972E+02  0.28344944924E+02  0.00000000000E+00 0. -1.
<scales pt_clust_5="13000.00000" pt_clust_6="13000.00000" pt_clust_7="13000.00000" pt_clust_8="13000.00000" pt_clust_9="25.93304"></scales>
<clustering>
<clus scale="   25.933">  1  9  2 -1</clus>
<clus scale="   78.416">  5  6 -1 -1</clus>
<clus scale="   91.166">  7  8 -1 -1</clus>
<clus scale="  190.123">  1  5  2 -1</clus>
<clus scale="  195.727">  2  5  1 -1</clus>
</clustering>
</event>
<event>
 9    1  0.3846604E-005  0.1572439E+03  0.7546771E-02  0.1193966E+00
         -2   -1    0    0    0  501 -0.00000000000E+00  0.00000000000E+00  0.29087109084E+03  0.29087109084E+03  0.00000000000E+00 0.  1.
          1   -1    0    0  502    0  0.00000000000E+00 -0.00000000000E+00 -0.17347103644E+03  0.17347103644E+03  0.00000000000E+00 0. -1.
         23    2    1    2    0    0  0.14184094319E+03 -0.30300903563E+02  0.10285545028E+03  0.20032863843E+03  0.92278501289E+02 0.  0.
        -24    2    1    2    0    0 -0.10387477328E+03 -0.75465706470E+02  0.26598014891E+01  0.15101236324E+03  0.79451985072E+02 0.  0.
         11    1    4    4    0    0 -0.91700444361E+02 -0.77887674698E+02 -0.23013951011E+02  0.12249531953E+03  0.00000000000E+00 0. -1.
        -12    1    4    4    0    0 -0.12174328919E+02  0.24219682282E+01  0.25673752501E+02  0.28517043714E+02  0.00000000000E+00 0.  1.
        -13    1    3    3    0    0  0.12977699414E+03 -0.46582795936E+02  0.55162195123E+02  0.14850889824E+03  0.00000000000E+00 0.  1.
         13    1    3    3    0    0  0.12063949050E+02  0.16281892373E+02  0.47693255153E+02  0.51819740187E+02  0.00000000000E+00 0. -1.
         21    1    1    2  502  501 -0.37966169912E+02  0.10576661003E+03  0.11884802626E+02  0.11300112561E+03  0.00000000000E+00 0. -1.
<scales pt_clust_5="13000.00000" pt_clust_6="13000.00000" pt_clust_7="13000.00000" pt_clust_8="13000.00000" pt_clust_9="112.37440"></scales>
<clustering>
<clus scale="   79.452">  5  6 -1 -1</clus>
<clus scale="   92.279">  7  8 -1 -1</clus>
<clus scale="  112.374">  2  9  1 -1</clus>
<clus scale="  150.076">  2  5  1 -1</clus>
<clus scale="  112.374">  2  5  1 -1</clus>
</clustering>
</event>
<event>
 9    1  0.3846604E-005  0.1035003E+03  0.7546771E-02  0.1280110E+00
         -2   -1    0    0    0  501 -0.00000000000E+00  0.00000000000E+00  0.37566837383E+02  0.37566837383E+02  0.00000000000E+00 0.  1.
          1   -1    0    0  502    0  0.00000000000E+00 -0.00000000000E+00 -0.54803108157E+03  0.54803108157E+03  0.00000000000E+00 0. -1.
        -24    2    1    2    0    0 -0.16282408689E+02  0.29452947072E+02 -0.69759703158E+02  0.10987374611E+03  0.77930937211E+02 0.  0.
         23    2    1    2    0    0  0.52780045342E+02 -0.10243765107E+02 -0.41140425105E+03  0.42513190915E+03  0.92698513936E+02 0.  0.
         13    1    3    3    0    0 -0.18822278891E+02  0.53285102786E+02 -0.63696135013E+02  0.85151500147E+02  0.00000000000E+00 0. -1.
        -14    1    3    3    0    0  0.25398702027E+01 -0.23832155714E+02 -0.60635681447E+01  0.24722245959E+02  0.00000000000E+00 0.  1.
        -13    1    4    4    0    0  0.79360403543E+02 -0.11668840794E+02 -0.32269241537E+03  0.33251260192E+03  0.00000000000E+00 0.  1.
         13    1    4    4    0    0 -0.26580358200E+02  0.14250756868E+01 -0.88711835672E+02  0.92619307226E+02  0.00000000000E+00 0. -1.
         21    1    1    2  502  501 -0.36497636654E+02 -0.19209181965E+02 -0.29300289978E+02  0.50592263696E+02  0.00000000000E+00 0. -1.
<scales pt_clust_5="13000.00000" pt_clust_6="13000.00000" pt_clust_7="13000.00000" pt_clust_8="13000.00000" pt_clust_9="41.24403"></scales>
<clustering>
<clus scale="   41.244">  1  9  2 -1</clus>
<clus scale="   77.931">  5  6 -1 -1</clus>
<clus scale="   90.513">  1  5  2 -1</clus>
<clus scale="   92.699">  7  8 -1 -1</clus>
<clus scale="  103.500">  2  5  1 -1</clus>
</clustering>
</event>
<event>
 9    1  0.3846604E-005  0.1508967E+03  0.7546771E-02  0.1200984E+00
          1   -1    0    0  502    0  0.00000000000E+00  0.00000000000E+00  0.73013778458E+03  0.73013778458E+03  0.00000000000E+00 0. -1.
         -2   -1    0    0    0  501 -0.00000000000E+00 -0.00000000000E+00 -0.57646610631E+02  0.57646610631E+02  0.00000000000E+00 0.  1.
        -24    2    1    2    0    0  0.51944008560E+01  0.14382112596E+03  0.13831845239E+03  0.21446608444E+03  0.78436018696E+02 0.  0.
         23    2    1    2    0    0 -0.21189111488E+02 -0.11551883529E+03  0.51527614628E+03  0.53571603714E+03  0.87684581128E+02 0.  0.
         11    1    3    3    0    0  0.28050740945E+02  0.28488605465E+02  0.63712680421E+02  0.75218018821E+02  0.00000000000E+00 0. -1.
        -12    1    3    3    0    0 -0.22856340089E+02  0.11533252050E+03  0.74605771965E+02  0.13924806561E+03  0.00000000000E+00 0.  1.
        -13    1    4    4    0    0  0.56938049735E+00 -0.22086962303E+02  0.15929689002E+02  0.27238081607E+02  0.00000000000E+00 0.  1.
         13    1    4    4    0    0 -0.21758491985E+02 -0.93431872991E+02  0.49934645728E+03  0.50847795554E+03  0.00000000000E+00 0. -1.
         21    1    1    2  502  501  0.15994710632E+02 -0.28302290669E+02  0.18896575279E+02  0.37602273636E+02  0.00000000000E+00 0. -1.
<scales pt_clust_5="13000.00000" pt_clust_6="13000.00000" pt_clust_7="13000.00000" pt_clust_8="13000.00000" pt_clust_9="32.50924"></scales>
<clustering>
<clus scale="   32.509">  2  9  1 -1</clus>
<clus scale="   78.436">  5  6 -1 -1</clus>
<clus scale="   87.685">  7  8 -1 -1</clus>
<clus scale="  145.717">  2  5  1 -1</clus>
<clus scale="  150.897">  1  5  2 -1</clus>
</clustering>
</event>
<event>
 9    1  0.3846604E-005  0.3027762E+03  0.7546771E-02  0.1129304E+00
         -2   -1    0    0    0  501 -0.00000000000E+00  0.00000000000E+00  0.41428536411E+03  0.41428536411E+03  0.00000000000E+00 0.  1.
          1   -1    0    0  502    0  0.00000000000E+00 -0.00000000000E+00 -0.59963682557E+03  0.59963682557E+03  0.00000000000E+00 0. -1.
        -24    2    1    2    0    0 -0.29397287916E+02  0.98723491784E+01  0.25173260464E+03  0.26885481039E+03  0.89173656507E+02 0.  0.
         23    2    1    2    0    0  0.29748650314E+03  0.20017005119E+01 -0.33172539112E+03  0.45677365622E+03  0.10048985792E+03 0.  0.
         11    1    3    3    0    0 -0.48250655271E+02  0.37384831695E+02  0.16544703627E+03  0.17634759195E+03  0.00000000000E+00 0. -1.
        -12    1    3    3    0    0  0.18853367355E+02 -0.27512482516E+02  0.86285568367E+02  0.92507218438E+02  0.00000000000E+00 0.  1.
        -13    1    4    4    0    0  0.66079008535E+02  0.42592860691E+02 -0.94006531658E+02  0.12254719558E+03  0.00000000000E+00 0.  1.
         13    1    4    4    0    0  0.23140749460E+03 -0.40591160179E+02 -0.23771885946E+03  0.33422646063E+03  0.00000000000E+00 0. -1.
         21    1    1    2  502  501 -0.26808921522E+03 -0.11874049690E+02 -0.10535867498E+03  0.28829372308E+03  0.00000000000E+00 0.  1.
<scales pt_clust_5="13000.00000" pt_clust_6="13000.00000" pt_clust_7="13000.00000" pt_clust_8="13000.00000" pt_clust_9="285.61377"></scales>
<clustering>
<clus scale="   89.174">  5  6 -1 -1</clus>
<clus scale="   94.412">  1  5  2 -1</clus>
<clus scale="  100.490">  7  8 -1 -1</clus>
<clus scale="  285.614">  1  9  2 -1</clus>
<clus scale="  302.776">  2  5  1 -1</clus>
</clustering>
</event>
<event>
 9    1  0.3846604E-005  0.9526042E+02  0.7546771E-02  0.1296496E+00
          1   -1    0    0  502    0  0.00000000000E+00  0.00000000000E+00  0.30561491217E+03  0.30561491217E+03  0.00000000000E+00 0. -1.
         -2   -1    0    0    0  501 -0.00000000000E+00 -0.00000000000E+00 -0.82415278895E+02  0.82415278895E+02  0.00000000000E+00 0.  1.
        -24    2    1    2    0    0  0.34421836538E+02 -0.26934994666E+02 -0.21577322546E+02  0.93957625066E+02  0.80324950616E+02 0.  0.
         23    2    1    2    0    0 -0.10746813075E+02  0.25042030327E+02  0.25200574755E+03  0.26924625979E+03  0.90796774926E+02 0.  0.
         11    1    3    3    0    0  0.42565663970E+02  0.11497219416E+02 -0.30574864504E+02  0.53654861317E+02  0.00000000000E+00 0. -1.
        -12    1    3    3    0    0 -0.81438274322E+01 -0.38432214082E+02  0.89975419582E+01  0.40302763748E+02  0.00000000000E+00 0.  1.
        -11    1    4    4    0    0 -0.37962388590E+02 -0.15424567432E+02  0.15942463327E+03  0.16460642127E+03  0.00000000000E+00 0. -1.
         11    1    4    4    0    0  0.27215575516E+02  0.40466597759E+02  0.92581114277E+02  0.10463983852E+03  0.00000000000E+00 0.  1.
         21    1    1    2  502  501 -0.23675023463E+02  0.18929643386E+01 -0.72287917346E+01  0.24826306207E+02  0.00000000000E+00 0. -1.
<scales pt_clust_5="13000.00000" pt_clust_6="13000.00000" pt_clust_7="13000.00000" pt_clust_8="13000.00000" pt_clust_9="23.75058"></scales>
<clustering>
<clus scale="   23.751">  2  9  1 -1</clus>
<clus scale="   80.325">  5  6 -1 -1</clus>
<clus scale="   85.338">  2  5  1 -1</clus>
<clus scale="   90.797">  7  8 -1 -1</clus>
<clus scale="   95.260">  1  5  2 -1</clus>
</clustering>
</event>
<event>
 9    1  0.3846604E-005  0.9823230E+02  0.7546771E-02  0.1289099E+00
         -2   -1    0    0    0  501 -0.00000000000E+00  0.00000000000E+00  0.66723534203E+03  0.66723534203E+03  0.00000000000E+00 0.  1.
          1   -1    0    0  502    0  0.00000000000E+00 -0.00000000000E+00 -0.24381791336E+02  0.24381791336E+02  0.00000000000E+00 0. -1.
        -24    2    1    2    0    0 -0.35927752996E+02 -0.44429402151E+02  0.43625708788E+03  0.44757670189E+03  0.82096785159E+02 0.  0.
         23    2    1    2    0    0  0.13231447969E+02  0.25006262191E+02  0.12814705658E+03  0.16009586664E+03  0.91698604360E+02 0.  0.
         11    1    3    3    0    0 -0.59670748264E+02 -0.14553717457E+02  0.28906595383E+03  0.29551909338E+03  0.00000000000E+00 0. -1.
        -12    1    3    3    0    0  0.23742995268E+02 -0.29875684695E+02  0.14719113405E+03  0.15205760850E+03  0.00000000000E+00 0.  1.
        -13    1    4    4    0    0  0.93340023318E+01  0.57016671111E+02  0.53334523367E+02  0.78629484082E+02  0.00000000000E+00 0. -1.
         13    1    4    4    0    0  0.38974456367E+01 -0.32010408920E+02  0.74812533215E+02  0.81466382562E+02  0.00000000000E+00 0.  1.
         21    1    1    2  502  501  0.22696305027E+02  0.19423139961E+02  0.78449406234E+02  0.83944564841E+02  0.00000000000E+00 0. -1.
<scales pt_clust_5="13000.00000" pt_clust_6="13000.00000" pt_clust_7="13000.00000" pt_clust_8="13000.00000" pt_clust_9="29.87274"></scales>
<clustering>
<clus scale="   29.873">  1  9  2 -1</clus>
<clus scale="   82.097">  5  6 -1 -1</clus>
<clus scale="   89.336">  1  5  2 -1</clus>
<clus scale="   91.699">  7  8 -1 -1</clus>
<clus scale="   98.232">  2  5  1 -1</clus>
</clustering>
</event>
<event>
 9    1  0.3846604E-005  0.9963640E+02  0.7546771E-02  0.1286481E+00
         -2   -1    0    0    0  501 -0.00000000000E+00  0.00000000000E+00  0.10216111028E+04  0.10216111028E+04  0.00000000000E+00 0.  1.
          1   -1    0    0  502    0  0.00000000000E+00 -0.00000000000E+00 -0.13739956507E+02  0.13739956507E+02  0.00000000000E+00 0. -1.
        -24    2    1    2    0    0  0.36619596842E+02  0.12603764814E+02  0.60263522463E+03  0.60922675007E+03  0.80549173044E+02 0.  0.
         23    2    1    2    0    0 -0.24593773960E+02 -0.35277094528E+02  0.26488304924E+03  0.28344414561E+03  0.91259118924E+02 0.  0.
         11    1    3    3    0    0  0.42528940307E+02  0.14534169936E+02  0.15095000921E+03  0.15749875600E+03  0.00000000000E+00 0. -1.
        -12    1    3    3    0    0 -0.59093434651E+01 -0.19304051215E+01  0.45168521542E+03  0.45172799407E+03  0.00000000000E+00 0.  1.
        -11    1    4    4    0    0 -0.19614782602E+02 -0.64909930896E+02  0.14857641919E+03  0.16331867978E+03  0.00000000000E+00 0. -1.
         11    1    4    4    0    0 -0.49789913576E+01  0.29632836368E+02  0.11630663005E+03  0.12012546583E+03  0.00000000000E+00 0.  1.
         21    1    1    2  502  501 -0.12025822882E+02  0.22673329714E+02  0.14035287239E+03  0.14268016360E+03  0.00000000000E+00 0.  1.
<scales pt_clust_5="13000.00000" pt_clust_6="13000.00000" pt_clust_7="13000.00000" pt_clust_8="13000.00000" pt_clust_9="25.66516"></scales>
<clustering>
<clus scale="   25.665">  1  9  2 -1</clus>
<clus scale="   80.549">  5  6 -1 -1</clus>
<clus scale="   89.930">  1  5  2 -1</clus>
<clus scale="   91.259">  7  8 -1 -1</clus>
<clus scale="   99.636">  2  5  1 -1</clus>
</clustering>
</event>
<event>
 9    1  0.3846604E-005  0.1075891E+03  0.7546771E-02  0.1269540E+00
          3   -1    0    0  502    0  0.00000000000E+00  0.00000000000E+00  0.18556495860E+03  0.18556495860E+03  0.00000000000E+00 0. -1.
         -4   -1    0    0    0  501 -0.00000000000E+00 -0.00000000000E+00 -0.11096775819E+03  0.11096775819E+03  0.00000000000E+00 0.  1.
        -24    2    1    2    0    0  0.51449014195E+02  0.45584083933E+02 -0.17845704141E+02  0.10702597294E+03  0.80069844244E+02 0.  0.
         23    2    1    2    0    0 -0.23080681118E+02 -0.50342218935E+02  0.11220954768E+03  0.15460513428E+03  0.90800375033E+02 0.  0.
         11    1    3    3    0    0 -0.16922511163E+02  0.13894640914E+02  0.13150971775E+02  0.25541740129E+02  0.00000000000E+00 0. -1.
        -12    1    3    3    0    0  0.68371525358E+02  0.31689443019E+02 -0.30996675916E+02  0.81484232809E+02  0.00000000000E+00 0.  1.
        -11    1    4    4    0    0 -0.32976426105E+02  0.80548801279E+01  0.80626306801E+02  0.87481010059E+02  0.00000000000E+00 0.  1.
         11    1    4    4    0    0  0.98957449871E+01 -0.58397099063E+02  0.31583240883E+02  0.67124124221E+02  0.00000000000E+00 0. -1.
         21    1    1    2  502  501 -0.28368333078E+02  0.47581350019E+01 -0.19766643124E+02  0.34901609572E+02  0.00000000000E+00 0. -1.
<scales pt_clust_5="13000.00000" pt_clust_6="13000.00000" pt_clust_7="13000.00000" pt_clust_8="13000.00000" pt_clust_9="28.76460"></scales>
<clustering>
<clus scale="   28.765">  2  9  1 -1</clus>
<clus scale="   80.070">  5  6 -1 -1</clus>
<clus scale="   90.800">  7  8 -1 -1</clus>
<clus scale="   98.701">  2  5  1 -1</clus>
<clus scale="  107.589">  1  5  2 -1</clus>
</clustering>
</event>
<event>
 9    1  0.3846604E-005  0.1405343E+03  0.7546771E-02  0.1216034E+00
          1   -1    0    0  502    0  0.00000000000E+00  0.00000000000E+00  0.39692350931E+03  0.39692350931E+03  0.00000000000E+00 0. -1.
         -2   -1    0    0    0  501 -0.00000000000E+00 -0.00000000000E+00 -0.77565431130E+02  0.77565431130E+02  0.00000000000E+00 0.  1.
         23    2    1    2    0    0  0.26010928217E+01 -0.10914423156E+03  0.22641884425E+02  0.14607067594E+03  0.94365027800E+02 0.  0.
        -24    2    1    2    0    0  0.27088096445E+01  0.87863988535E+02  0.26098270901E+03  0.28649063949E+03  0.78977806893E+02 0.  0.
         13    1    4    4    0    0 -0.10224389572E+02  0.68224252090E+02  0.25207498327E+03  0.26134437798E+03  0.00000000000E+00 0. -1.
        -14    1    4    4    0    0  0.12933199217E+02  0.19639736445E+02  0.89077257394E+01  0.25146261501E+02  0.00000000000E+00 0.  1.
        -13    1    3    3    0    0  0.45194065855E+02 -0.71721782174E+02 -0.64886524584E+00  0.84775814080E+02  0.00000000000E+00 0.  1.
         13    1    3    3    0    0 -0.42592973034E+02 -0.37422449385E+02  0.23290749671E+02  0.61294861857E+02  0.00000000000E+00 0. -1.
         21    1    1    2  502  501 -0.53099024663E+01  0.21280243024E+02  0.35733484749E+02  0.41927625018E+02  0.00000000000E+00 0. -1.
<scales pt_clust_5="13000.00000" pt_clust_6="13000.00000" pt_clust_7="13000.00000" pt_clust_8="13000.00000" pt_clust_9="21.93271"></scales>
<clustering>
<clus scale="   21.933">  1  9  2 -1</clus>
<clus scale="   78.978">  5  6 -1 -1</clus>
<clus scale="   94.365">  7  8 -1 -1</clus>
<clus scale="  130.701">  1  5  2 -1</clus>
<clus scale="   21.933">  1  5  2 -1</clus>
</clustering>
</event>
<event>
 9    1  0.3846604E-005  0.9438249E+02  0.7546771E-02  0.1300835E+00
          1   -1    0    0  502    0  0.00000000000E+00  0.00000000000E+00  0.55918564202E+03  0.55918564202E+03  0.00000000000E+00 0. -1.
         -2   -1    0    0    0  501 -0.00000000000E+00 -0.00000000000E+00 -0.77891159788E+02  0.77891159788E+02  0.00000000000E+00 0.  1.
        -24    2    1    2    0    0  0.38612230983E+01  0.58427212630E+01  0.49104700541E+02  0.92307964525E+02  0.77848842406E+02 0.  0.
         23    2    1    2    0    0 -0.24218647985E+02 -0.91613724104E+01  0.48175189778E+03  0.49108605098E+03  0.91706841568E+02 0.  0.
         11    1    3    3    0    0  0.18095651390E+02  0.20130862507E+02  0.62490784397E+02  0.68101412313E+02  0.00000000000E+00 0. -1.
        -12    1    3    3    0    0 -0.14234428292E+02 -0.14288141244E+02 -0.13386083856E+02  0.24206552212E+02  0.00000000000E+00 0.  1.
        -13    1    4    4    0    0 -0.54755658387E+02 -0.25650412899E+02  0.31786707673E+03  0.32356700122E+03  0.00000000000E+00 0. -1.
         13    1    4    4    0    0  0.30537010402E+02  0.16489040489E+02  0.16388482105E+03  0.16751904976E+03  0.00000000000E+00 0.  1.
         21    1    1    2  502  501  0.20357424887E+02  0.33186511474E+01 -0.49562116096E+02  0.53682786304E+02  0.00000000000E+00 0.  1.
<scales pt_clust_5="13000.00000" pt_clust_6="13000.00000" pt_clust_7="13000.00000" pt_clust_8="13000.00000" pt_clust_9="20.62615"></scales>
<clustering>
<clus scale="   20.626">  2  9  1 -1</clus>
<clus scale="   77.849">  5  6 -1 -1</clus>
<clus scale="   80.984">  2  5  1 -1</clus>
<clus scale="   91.707">  7  8 -1 -1</clus>
<clus scale="   94.382">  1  5  2 -1</clus>
</clustering>
</event>
<event>
 9    1  0.3846604E-005  0.1784924E+03  0.7546771E-02  0.1171025E+00
         -2   -1    0    0    0  501 -0.00000000000E+00  0.00000000000E+00  0.10893534998E+04  0.10893534998E+04  0.00000000000E+00 0.  1.
          1   -1    0    0  502    0  0.00000000000E+00 -0.00000000000E+00 -0.38028457393E+02  0.38028457393E+02  0.00000000000E+00 0. -1.
        -24    2    1    2    0    0 -0.12997078960E+03  0.12443178693E+03  0.53049544037E+03  0.56545055780E+03  0.77027562048E+02 0.  0.
         23    2    1    2    0    0  0.90206643745E+02 -0.99446099984E+02  0.37447176016E+03  0.40822359306E+03  0.91600422485E+02 0.  0.
         11    1    3    3    0    0 -0.21865476861E+02  0.12187450359E+02  0.21062934311E+02  0.32715137573E+02  0.00000000000E+00 0. -1.
        -12    1    3    3    0    0 -0.10810531274E+03  0.11224433657E+03  0.50943250606E+03  0.53273542023E+03  0.00000000000E+00 0.  1.
        -11    1    4    4    0    0  0.34164526251E+02 -0.61209606309E+02  0.29738104508E+03  0.30553120419E+03  0.00000000000E+00 0.  1.
         11    1    4    4    0    0  0.56042117494E+02 -0.38236493675E+02  0.77090715073E+02  0.10269238887E+03  0.00000000000E+00 0. -1.
         21    1    1    2  502  501  0.39764145854E+02 -0.24985686941E+02  0.14635784187E+03  0.15370780632E+03  0.00000000000E+00 0.  1.
<scales pt_clust_5="13000.00000" pt_clust_6="13000.00000" pt_clust_7="13000.00000" pt_clust_8="13000.00000" pt_clust_9="46.96245"></scales>
<clustering>
<clus scale="   46.962">  1  9  2 -1</clus>
<clus scale="   77.028">  5  6 -1 -1</clus>
<clus scale="   91.600">  7  8 -1 -1</clus>
<clus scale="  171.471">  1  5  2 -1</clus>
<clus scale="  178.492">  2  5  1 -1</clus>
</clustering>
</event>
<event>
 9    1  0.3846604E-005  0.1142633E+03  0.7546771E-02  0.1257188E+00
         -4   -1    0    0    0  501 -0.00000000000E+00  0.00000000000E+00  0.10195775977E+04  0.10195775977E+04  0.00000000000E+00 0.  1.
          3   -1    0    0  502    0  0.00000000000E+00 -0.00000000000E+00 -0.22061792223E+02  0.22061792223E+02  0.00000000000E+00 0. -1.
        -24    2    1    2    0    0  0.53162684928E+02 -0.10407546130E+02  0.70801715935E+03  0.71465392426E+03  0.80668119106E+02 0.  0.
         23    2    1    2    0    0 -0.70815883142E+02 -0.46750768967E+01  0.17589845765E+03  0.21103666771E+03  0.92517360888E+02 0.  0.
         13    1    3    3    0    0  0.38530520681E+02 -0.14388960441E+02  0.12814970754E+03  0.13458822664E+03  0.00000000000E+00 0. -1.
        -14    1    3    3    0    0  0.14632164247E+02  0.39814143109E+01  0.57986745181E+03  0.58006569762E+03  0.00000000000E+00 0.  1.
        -13    1    4    4    0    0 -0.85243724017E+02  0.13247612003E+02  0.10173769868E+03  0.13338872157E+03  0.00000000000E+00 0. -1.
         13    1    4    4    0    0  0.14427840875E+02 -0.17922688900E+02  0.74160758969E+02  0.77647946145E+02  0.00000000000E+00 0.  1.
         21    1    1    2  502  501  0.17653198214E+02  0.15082623027E+02  0.11360018849E+03  0.11594879796E+03  0.00000000000E+00 0.  1.
<scales pt_clust_5="13000.00000" pt_clust_6="13000.00000" pt_clust_7="13000.00000" pt_clust_8="13000.00000" pt_clust_9="23.21898"></scales>
<clustering>
<clus scale="   23.219">  1  9  2 -1</clus>
<clus scale="   80.668">  5  6 -1 -1</clus>
<clus scale="   92.517">  7  8 -1 -1</clus>
<clus scale="  104.900">  1  5  2 -1</clus>
<clus scale="  114.263">  2  5  1 -1</clus>
</clustering>
</event>
<event>
 9    1  0.3846604E-005  0.1416066E+03  0.7546771E-02  0.1213460E+00
         -2   -1    0    0    0  501 -0.00000000000E+00  0.00000000000E+00  0.65881521560E+03  0.65881521560E+03  0.00000000000E+00 0.  1.
          1   -1    0    0  502    0  0.00000000000E+00 -0.00000000000E+00 -0.74477527788E+02  0.74477527788E+02  0.00000000000E+00 0. -1.
        -24    2    1    2    0    0  0.76414350303E+01  0.15463330567E+03  0.26456307422E+03  0.31732541402E+03  0.82048445377E+02 0.  0.
         23    2    1    2    0    0  0.54252500918E+01 -0.91409249185E+02  0.51563034246E+02  0.14009512912E+03  0.92643480753E+02 0.  0.
         13    1    3    3    0    0 -0.62477498161E+01  0.11868200182E+03  0.24871890882E+03  0.27565476150E+03  0.00000000000E+00 0. -1.
        -14    1    3    3    0    0  0.13889184846E+02  0.35951303846E+02  0.15844165404E+02  0.41670652518E+02  0.00000000000E+00 0.  1.
        -11    1    4    4    0    0 -0.28535646268E+02 -0.55580811733E+02 -0.77154631803E+01  0.62952665654E+02  0.00000000000E+00 0. -1.
         11    1    4    4    0    0  0.33960896360E+02 -0.35828437452E+02  0.59278497426E+02  0.77142463462E+02  0.00000000000E+00 0.  1.
         21    1    1    2  502  501 -0.13066685122E+02 -0.63224056486E+02  0.26821157935E+03  0.27587220026E+03  0.00000000000E+00 0.  1.
<scales pt_clust_5="13000.00000" pt_clust_6="13000.00000" pt_clust_7="13000.00000" pt_clust_8="13000.00000" pt_clust_9="64.56020"></scales>
<clustering>
<clus scale="   64.560">  1  9  2 -1</clus>
<clus scale="   82.048">  5  6 -1 -1</clus>
<clus scale="   92.643">  7  8 -1 -1</clus>
<clus scale="  134.913">  1  5  2 -1</clus>
<clus scale="  141.607">  2  5  1 -1</clus>
</clustering>
</event>
<event>
 9    1  0.3846604E-005  0.1045932E+03  0.7546771E-02  0.1274691E+00
          1   -1    0    0  502    0  0.00000000000E+00  0.00000000000E+00  0.27056788084E+03  0.27056788084E+03  0.00000000000E+00 0. -1.
         -2   -1    0    0    0  501 -0.00000000000E+00 -0.00000000000E+00 -0.11677021300E+03  0.11677021300E+03  0.00000000000E+00 0.  1.
        -24    2    1    2    0    0 -0.17460568239E+02 -0.30475782901E+01 -0.35176257050E+02  0.90724789008E+02  0.81727957908E+02 0.  0.
         23    2    1    2    0    0  0.50280807534E+02 -0.34560838072E+02  0.21446029710E+03  0.24056764258E+03  0.90315892785E+02 0.  0.
         13    1    3    3    0    0 -0.85566517342E+01  0.34650036768E+02  0.36545552489E+01  0.35877529332E+02  0.00000000000E+00 0. -1.
        -14    1    3    3    0    0 -0.89039165045E+01 -0.37697615058E+02 -0.38830812299E+02  0.54847259676E+02  0.00000000000E+00 0.  1.
        -13    1    4    4    0    0  0.70163465680E+02 -0.26222838534E+01  0.15564910164E+03  0.17075254355E+03  0.00000000000E+00 0. -1.
         13    1    4    4    0    0 -0.19882658146E+02 -0.31938554219E+02  0.58811195463E+02  0.69815099028E+02  0.00000000000E+00 0.  1.
         21    1    1    2  502  501 -0.32820239296E+02  0.37608416362E+02 -0.25486372210E+02  0.56045662251E+02  0.00000000000E+00 0.  1.
<scales pt_clust_5="13000.00000" pt_clust_6="13000.00000" pt_clust_7="13000.00000" pt_clust_8="13000.00000" pt_clust_9="49.91554"></scales>
<clustering>
<clus scale="   49.916">  2  9  1 -1</clus>
<clus scale="   81.728">  5  6 -1 -1</clus>
<clus scale="   90.316">  7  8 -1 -1</clus>
<clus scale="   97.274">  2  5  1 -1</clus>
<clus scale="  104.593">  1  5  2 -1</clus>
</clustering>
</event>
<event>
 9    1  0.3846604E-005  0.8706805E+02  0.7546771E-02  0.1313218E+00
          1   -1    0    0  502    0  0.00000000000E+00  0.00000000000E+00  0.91832893766E+02  0.91832893766E+02  0.00000000000E+00 0. -1.
         -2   -1    0    0    0  501 -0.00000000000E+00 -0.00000000000E+00 -0.16725774209E+03  0.16725774209E+03  0.00000000000E+00 0.  1.
        -24    2    1    2    0    0  0.25867590590E+02  0.31088743026E+02 -0.89654741652E+02  0.12636597606E+03  0.79339429161E+02 0.  0.
         23    2    1    2    0    0 -0.11373622843E+02 -0.13071911022E+02  0.42702089841E+02  0.96045683380E+02  0.84267850718E+02 0.  0.
         11    1    3    3    0    0  0.51732258317E+02  0.14296630913E+02 -0.36476651361E+02  0.64893499678E+02  0.00000000000E+00 0. -1.
        -12    1    3    3    0    0 -0.25864667726E+02  0.16792112113E+02 -0.53178090291E+02  0.61472476384E+02  0.00000000000E+00 0.  1.
        -13    1    4    4    0    0  0.25219467601E+01 -0.40777402025E+02  0.49633119046E+02  0.64285326767E+02  0.00000000000E+00 0. -1.
         13    1    4    4    0    0 -0.13895569603E+02  0.27705491003E+02 -0.69310292048E+01  0.31760356612E+02  0.00000000000E+00 0.  1.
         21    1    1    2  502  501 -0.14493967747E+02 -0.18016832003E+02 -0.28472196512E+02  0.36678976413E+02  0.00000000000E+00 0. -1.
<scales pt_clust_5="13000.00000" pt_clust_6="13000.00000" pt_clust_7="13000.00000" pt_clust_8="13000.00000" pt_clust_9="23.12318"></scales>
<clustering>
<clus scale="   23.123">  2  9  1 -1</clus>
<clus scale="   79.339">  5  6 -1 -1</clus>
<clus scale="   82.307">  2  5  1 -1</clus>
<clus scale="   84.268">  7  8 -1 -1</clus>
<clus scale="   87.068">  1  5  2 -1</clus>
</clustering>
</event>
<event>
 9    1  0.5052844E-005  0.1429592E+03  0.7546771E-02  0.1215703E+00
          1   -1    0    0  502    0  0.00000000000E+00  0.00000000000E+00  0.76528238963E+03  0.76528238963E+03  0.00000000000E+00 0. -1.
         -2   -1    0    0    0  501 -0.00000000000E+00 -0.00000000000E+00 -0.98624051436E+02  0.98624051436E+02  0.00000000000E+00 0.  1.
        -24    2    1    2    0    0  0.43511577640E+02 -0.67269478965E+02 -0.40058319899E+02  0.12106500342E+03  0.81447074055E+02 0.  0.
         23    2    1    2    0    0 -0.73493231350E+02  0.62549675866E+02  0.69584961657E+03  0.71060374709E+03  0.10694521728E+03 0.  0.
         13    1    3    3    0    0 -0.23404924720E+02 -0.10403187772E+02 -0.31401517421E+01  0.25804599782E+02  0.00000000000E+00 0. -1.
        -14    1    3    3    0    0  0.66916502360E+02 -0.56866291193E+02 -0.36918168156E+02  0.95260403643E+02  0.00000000000E+00 0.  1.
        -11    1    4    4    0    0 -0.51415251176E+02 -0.21478687418E+02  0.32252605189E+03  0.32730401191E+03  0.00000000000E+00 0.  1.
         11    1    4    4    0    0 -0.22077980174E+02  0.84028363285E+02  0.37332356468E+03  0.38329973518E+03  0.00000000000E+00 0. -1.
         21    1    1    2  502  501  0.29981653710E+02  0.47198030987E+01  0.10867041525E+02  0.32237690550E+02  0.00000000000E+00 0.  1.
<scales pt_clust_5="13000.00000" pt_clust_6="13000.00000" pt_clust_7="13000.00000" pt_clust_8="13000.00000" pt_clust_9="30.35088"></scales>
<clustering>
<clus scale="   30.351">  2  9  1 -1</clus>
<clus scale="   81.447">  5  6 -1 -1</clus>
<clus scale="  106.945">  7  8 -1 -1</clus>
<clus scale="  125.035">  2  5  1 -1</clus>
<clus scale="  142.959">  1  5  2 -1</clus>
</clustering>
</event>
<event>
 9    1  0.3846604E-005  0.1128428E+03  0.7546771E-02  0.1258754E+00
         -4   -1    0    0    0  501 -0.00000000000E+00  0.00000000000E+00  0.52483414216E+03  0.52483414216E+03  0.00000000000E+00 0.  1.
          3   -1    0    0  502    0  0.00000000000E+00 -0.00000000000E+00 -0.66477344140E+02  0.66477344140E+02  0.00000000000E+00 0. -1.
        -24    2    1    2    0    0  0.83564363862E+02  0.34707160403E+02  0.39318506964E+03  0.41150841191E+03  0.80975824738E+02 0.  0.
         23    2    1    2    0    0 -0.53269189572E+02 -0.36869489275E+02  0.35765220227E+01  0.11112671239E+03  0.90218561839E+02 0.  0.
         13    1    3    3    0    0  0.70133538993E+02 -0.89363925417E+01  0.29297202260E+03  0.30138211365E+03  0.00000000000E+00 0. -1.
        -14    1    3    3    0    0  0.13430824869E+02  0.43643552945E+02  0.10021304704E+03  0.11012629825E+03  0.00000000000E+00 0.  1.
        -13    1    4    4    0    0 -0.31040980337E+02  0.25374849884E+02  0.17227788060E+02  0.43637393923E+02  0.00000000000E+00 0.  1.
         13    1    4    4    0    0 -0.22228209235E+02 -0.62244339158E+02 -0.13651266038E+02  0.67489318470E+02  0.00000000000E+00 0. -1.
         21    1    1    2  502  501 -0.30295174290E+02  0.21623288715E+01  0.61595206359E+02  0.68676362002E+02  0.00000000000E+00 0. -1.
<scales pt_clust_5="13000.00000" pt_clust_6="13000.00000" pt_clust_7="13000.00000" pt_clust_8="13000.00000" pt_clust_9="30.37224"></scales>
<clustering>
<clus scale="   30.372">  1  9  2 -1</clus>
<clus scale="   80.976">  5  6 -1 -1</clus>
<clus scale="   90.219">  7  8 -1 -1</clus>
<clus scale="  105.599">  1  5  2 -1</clus>
<clus scale="  112.843">  2  5  1 -1</clus>
</clustering>
</event>
<event>
 9    1  0.3846604E-005  0.9510685E+02  0.7546771E-02  0.1297652E+00
         -2   -1    0    0    0  501 -0.00000000000E+00  0.00000000000E+00  0.14763791893E+03  0.14763791893E+03  0.00000000000E+00 0.  1.
          1   -1    0    0  502    0  0.00000000000E+00 -0.00000000000E+00 -0.32507307564E+03  0.32507307564E+03  0.00000000000E+00 0. -1.
        -24    2    1    2    0    0  0.25122337435E+02 -0.15611641412E+02  0.12077053597E+03  0.14719107222E+03  0.78770769927E+02 0.  0.
         23    2    1    2    0    0 -0.53050112560E+00  0.30100653442E+02 -0.26535894623E+03  0.28200442356E+03  0.90580316801E+02 0.  0.
         11    1    3    3    0    0  0.45979517634E+02  0.13117724559E+02  0.58966592810E+02  0.75916070809E+02  0.00000000000E+00 0. -1.
        -12    1    3    3    0    0 -0.20857180199E+02 -0.28729365971E+02  0.61803943164E+02  0.71275001407E+02  0.00000000000E+00 0.  1.
        -13    1    4    4    0    0  0.26391536959E+02 -0.23360345609E+02 -0.11024929867E+03  0.11574595814E+03  0.00000000000E+00 0.  1.
         13    1    4    4    0    0 -0.26922038085E+02  0.53460999051E+02 -0.15510964756E+03  0.16625846541E+03  0.00000000000E+00 0. -1.
         21    1    1    2  502  501 -0.24591836310E+02 -0.14489012031E+02 -0.32846746455E+02  0.43515498795E+02  0.00000000000E+00 0.  1.
<scales pt_clust_5="13000.00000" pt_clust_6="13000.00000" pt_clust_7="13000.00000" pt_clust_8="13000.00000" pt_clust_9="28.54277"></scales>
<clustering>
<clus scale="   28.543">  2  9  1 -1</clus>
<clus scale="   78.771">  5  6 -1 -1</clus>
<clus scale="   83.937">  1  5  2 -1</clus>
<clus scale="   90.580">  7  8 -1 -1</clus>
<clus scale="   28.543">  2  5  1 -1</clus>
</clustering>
</event>
<event>
 9    1  0.3846604E-005  0.1577188E+03  0.7546771E-02  0.1192825E+00
         -2   -1    0    0    0  501 -0.00000000000E+00  0.00000000000E+00  0.31060716909E+02  0.31060716909E+02  0.00000000000E+00 0.  1.
          1   -1    0    0  502    0  0.00000000000E+00 -0.00000000000E+00 -0.10352559445E+04  0.10352559445E+04  0.00000000000E+00 0. -1.
         23    2    1    2    0    0  0.12514457032E+03  0.65527447866E+02 -0.44775112072E+03  0.47800900544E+03  0.89758193347E+02 0.  0.
        -24    2    1    2    0    0 -0.11172209683E+03 -0.50025560166E+02 -0.54603753711E+03  0.56531269976E+03  0.80231371601E+02 0.  0.
         13    1    4    4    0    0 -0.49507362398E+02  0.17978648939E+02 -0.16097707272E+03  0.16937481716E+03  0.00000000000E+00 0. -1.
        -14    1    4    4    0    0 -0.62214734429E+02 -0.68004209105E+02 -0.38506046439E+03  0.39593788260E+03  0.00000000000E+00 0.  1.
        -11    1    3    3    0    0  0.35969872878E+02  0.68946651841E+02 -0.22420717007E+03  0.23731061431E+03  0.00000000000E+00 0. -1.
         11    1    3    3    0    0  0.89174697439E+02 -0.34192039753E+01 -0.22354395065E+03  0.24069839113E+03  0.00000000000E+00 0.  1.
         21    1    1    2  502  501 -0.13422473490E+02 -0.15501887700E+02 -0.10406569765E+02  0.22994956211E+02  0.00000000000E+00 0.  1.
<scales pt_clust_5="13000.00000" pt_clust_6="13000.00000" pt_clust_7="13000.00000" pt_clust_8="13000.00000" pt_clust_9="20.50540"></scales>
<clustering>
<clus scale="   20.505">  1  9  2 -1</clus>
<clus scale="   80.231">  5  6 -1 -1</clus>
<clus scale="   89.758">  7  8 -1 -1</clus>
<clus scale="  152.498">  2  5  1 -1</clus>
<clus scale="  152.498">  2  5  1 -1</clus>
</clustering>
</event>
<event>
 9    1  0.3846604E-005  0.1064032E+03  0.7546771E-02  0.1270964E+00
         -2   -1    0    0    0  501 -0.00000000000E+00  0.00000000000E+00  0.90546588058E+02  0.90546588058E+02  0.00000000000E+00 0.  1.
          1   -1    0    0  502    0  0.00000000000E+00 -0.00000000000E+00 -0.20249811750E+03  0.20249811750E+03  0.00000000000E+00 0. -1.
         23    2    1    2    0    0 -0.38376589534E+02  0.11857639803E+02  0.27063000240E+02  0.10201510139E+03  0.89784790943E+02 0.  0.
        -24    2    1    2    0    0  0.55915189991E+02 -0.26144518005E+02 -0.13302559443E+03  0.16762907553E+03  0.81201317087E+02 0.  0.
         13    1    4    4    0    0  0.73985955181E+02 -0.64084239570E+01 -0.86956538218E+02  0.11435221467E+03  0.00000000000E+00 0. -1.
        -14    1    4    4    0    0 -0.18070765189E+02 -0.19736094048E+02 -0.46069056211E+02  0.53276860859E+02  0.00000000000E+00 0.  1.
        -13    1    3    3    0    0 -0.28985151016E+02 -0.23398073332E+02  0.47367844621E+02  0.60260447385E+02  0.00000000000E+00 0.  1.
         13    1    3    3    0    0 -0.93914385185E+01  0.35255713135E+02 -0.20304844380E+02  0.41754654009E+02  0.00000000000E+00 0. -1.
         21    1    1    2  502  501 -0.17538600457E+02  0.14286878202E+02 -0.59889352515E+01  0.23400528631E+02  0.00000000000E+00 0. -1.
<scales pt_clust_5="13000.00000" pt_clust_6="13000.00000" pt_clust_7="13000.00000" pt_clust_8="13000.00000" pt_clust_9="22.62117"></scales>
<clustering>
<clus scale="   22.621">  1  9  2 -1</clus>
<clus scale="   81.201">  5  6 -1 -1</clus>
<clus scale="   89.785">  7  8 -1 -1</clus>
<clus scale="   99.267">  2  5  1 -1</clus>
<clus scale="   99.267">  2  5  1 -1</clus>
</clustering>
</event>
<event>
 9    1  0.3846604E-005  0.1402972E+03  0.7546771E-02  0.1213564E+00
          3   -1    0    0  502    0  0.00000000000E+00  0.00000000000E+00  0.81940391332E+02  0.81940391332E+02  0.00000000000E+00 0. -1.
         -4   -1    0    0    0  501 -0.00000000000E+00 -0.00000000000E+00 -0.41874269535E+03  0.41874269535E+03  0.00000000000E+00 0.  1.
         23    2    1    2    0    0 -0.35307279515E+01 -0.11402908473E+03 -0.29477216833E+03  0.32887396326E+03  0.90842469576E+02 0.  0.
        -24    2    1    2    0    0 -0.14942147683E+02  0.10441578764E+03 -0.15655791002E+02  0.13820453040E+03  0.87917369986E+02 0.  0.
         11    1    4    4    0    0 -0.13042893964E+02  0.84701417679E+02  0.28088566775E+02  0.90185446849E+02  0.00000000000E+00 0. -1.
        -12    1    4    4    0    0 -0.18992537185E+01  0.19714369958E+02 -0.43744357777E+02  0.48019083548E+02  0.00000000000E+00 0.  1.
        -13    1    3    3    0    0 -0.38453567451E+02 -0.36113119996E+02 -0.64769655299E+02  0.83534080069E+02  0.00000000000E+00 0. -1.
         13    1    3    3    0    0  0.34922839499E+02 -0.77915964734E+02 -0.23000251304E+03  0.24533988319E+03  0.00000000000E+00 0.  1.
         21    1    1    2  502  501  0.18472875634E+02  0.96132970933E+01 -0.26374344677E+02  0.33604593025E+02  0.00000000000E+00 0.  1.
<scales pt_clust_5="13000.00000" pt_clust_6="13000.00000" pt_clust_7="13000.00000" pt_clust_8="13000.00000" pt_clust_9="20.82457"></scales>
<clustering>
<clus scale="   20.825">  2  9  1 -1</clus>
<clus scale="   87.917">  5  6 -1 -1</clus>
<clus scale="   90.842">  7  8 -1 -1</clus>
<clus scale="  138.421">  1  5  2 -1</clus>
<clus scale="  138.421">  1  5  2 -1</clus>
</clustering>
</event>
<event>
 9    1  0.3846604E-005  0.1143294E+03  0.7546771E-02  0.1264496E+00
          1   -1    0    0  502    0  0.00000000000E+00  0.00000000000E+00  0.98416084014E+02  0.98416084014E+02  0.00000000000E+00 0. -1.
         -2   -1    0    0    0  501 -0.00000000000E+00 -0.00000000000E+00 -0.36960833197E+03  0.36960833197E+03  0.00000000000E+00 0.  1.
        -24    2    1    2    0    0  0.50714113940E+02  0.17724572635E+02 -0.27244836082E+03  0.28929458379E+03  0.81099722977E+02 0.  0.
         23    2    1    2    0    0 -0.25251978505E+02 -0.30774268016E+02  0.48165565687E+02  0.12378338869E+03  0.10685358022E+03 0.  0.
         13    1    3    3    0    0  0.40034551017E+01 -0.28244855799E+02 -0.52003285935E+02  0.59313921468E+02  0.00000000000E+00 0. -1.
        -14    1    3    3    0    0  0.46710658838E+02  0.45969428433E+02 -0.22044507489E+03  0.22998066232E+03  0.00000000000E+00 0.  1.
        -13    1    4    4    0    0  0.40163312709E+02 -0.27095809016E+02  0.18481803542E+02  0.51854137888E+02  0.00000000000E+00 0.  1.
         13    1    4    4    0    0 -0.65415291213E+02 -0.36784589992E+01  0.29683762145E+02  0.71929250797E+02  0.00000000000E+00 0. -1.
         21    1    1    2  502  501 -0.25462135435E+02  0.13049695381E+02 -0.46909452821E+02  0.54946443511E+02  0.00000000000E+00 0.  1.
<scales pt_clust_5="13000.00000" pt_clust_6="13000.00000" pt_clust_7="13000.00000" pt_clust_8="13000.00000" pt_clust_9="28.61145"></scales>
<clustering>
<clus scale="   28.611">  2  9  1 -1</clus>
<clus scale="   81.100">  5  6 -1 -1</clus>
<clus scale="   90.723">  2  5  1 -1</clus>
<clus scale="  106.854">  7  8 -1 -1</clus>
<clus scale="  114.329">  1  5  2 -1</clus>
</clustering>
</event>
<event>
 9    1  0.3846604E-005  0.2126662E+03  0.7546771E-02  0.1140864E+00
         -2   -1    0    0    0  501 -0.00000000000E+00  0.00000000000E+00  0.52264068581E+03  0.52264068581E+03  0.00000000000E+00 0.  1.
          1   -1    0    0  502    0  0.00000000000E+00 -0.00000000000E+00 -0.16966486669E+03  0.16966486669E+03  0.00000000000E+00 0. -1.
        -24    2    1    2    0    0  0.65029530714E+02 -0.18341068180E+03  0.34327176793E+03  0.40091429042E+03  0.70911519108E+02 0.  0.
         23    2    1    2    0    0 -0.15925521842E+02  0.19323898258E+03 -0.44027116060E+02  0.21794170445E+03  0.89248377883E+02 0.  0.
         13    1    3    3    0    0  0.55098682793E+02 -0.18105568738E+03  0.28738640961E+03  0.34410459923E+03  0.00000000000E+00 0. -1.
        -14    1    3    3    0    0  0.99308479206E+01 -0.23549944143E+01  0.55885358313E+02  0.56809691188E+02  0.00000000000E+00 0.  1.
        -13    1    4    4    0    0 -0.27356961550E+02  0.16077307153E+03 -0.67265741796E+02  0.17641163197E+03  0.00000000000E+00 0.  1.
         13    1    4    4    0    0  0.11431439708E+02  0.32465911050E+02  0.23238625736E+02  0.41530072480E+02  0.00000000000E+00 0. -1.
         21    1    1    2  502  501 -0.49104008872E+02 -0.98283007804E+01  0.53731167252E+02  0.73449557642E+02  0.00000000000E+00 0.  1.
<scales pt_clust_5="13000.00000" pt_clust_6="13000.00000" pt_clust_7="13000.00000" pt_clust_8="13000.00000" pt_clust_9="50.07793"></scales>
<clustering>
<clus scale="   50.078">  1  9  2 -1</clus>
<clus scale="   70.912">  5  6 -1 -1</clus>
<clus scale="   89.248">  7  8 -1 -1</clus>
<clus scale="  205.646">  1  5  2 -1</clus>
<clus scale="  212.666">  2  5  1 -1</clus>
</clustering>
</event>
<event>
 9    1  0.3846604E-005  0.9465115E+02  0.7546771E-02  0.1299567E+00
          1   -1    0    0  502    0  0.00000000000E+00  0.00000000000E+00  0.99255225249E+02  0.99255225249E+02  0.00000000000E+00 0. -1.
         -2   -1    0    0    0  501 -0.00000000000E+00 -0.00000000000E+00 -0.28910502164E+03  0.28910502164E+03  0.00000000000E+00 0.  1.
        -24    2    1    2    0    0 -0.11273819351E+02  0.11358995477E+02 -0.22167468872E+03  0.23645074828E+03  0.80704169420E+02 0.  0.
         23    2    1    2    0    0 -0.16379178663E+02  0.10257062387E+02  0.54793175222E+02  0.10996329168E+03  0.93360316212E+02 0.  0.
         13    1    3    3    0    0 -0.34668846116E+02  0.31498744438E+02 -0.93066128323E+02  0.10418927024E+03  0.00000000000E+00 0. -1.
        -14    1    3    3    0    0  0.23395026766E+02 -0.20139748961E+02 -0.12860856040E+03  0.13226147804E+03  0.00000000000E+00 0.  1.
        -11    1    4    4    0    0  0.19131964166E+02 -0.19529080397E+02 -0.11012241780E+02  0.29473488138E+02  0.00000000000E+00 0.  1.
         11    1    4    4    0    0 -0.35511142829E+02  0.29786142784E+02  0.65805417003E+02  0.80489803540E+02  0.00000000000E+00 0. -1.
         21    1    1    2  502  501  0.27652998014E+02 -0.21616057864E+02 -0.22968282892E+02  0.41946206929E+02  0.00000000000E+00 0.  1.
<scales pt_clust_5="13000.00000" pt_clust_6="13000.00000" pt_clust_7="13000.00000" pt_clust_8="13000.00000" pt_clust_9="35.09903"></scales>
<clustering>
<clus scale="   35.099">  2  9  1 -1</clus>
<clus scale="   80.704">  5  6 -1 -1</clus>
<clus scale="   82.194">  2  5  1 -1</clus>
<clus scale="   93.360">  7  8 -1 -1</clus>
<clus scale="   94.651">  1  5  2 -1</clus>
</clustering>
</event>
<event>
 9    1  0.3846604E-005  0.1378016E+03  0.7546771E-02  0.1218836E+00
         -2   -1    0    0    0  501 -0.00000000000E+00  0.00000000000E+00  0.70900856436E+02  0.70900856436E+02  0.00000000000E+00 0.  1.
          1   -1    0    0  502    0  0.00000000000E+00 -0.00000000000E+00 -0.62185778355E+03  0.62185778355E+03  0.00000000000E+00 0. -1.
         23    2    1    2    0    0 -0.69660205260E+02 -0.95784290649E+02 -0.89926866808E+02  0.17442985825E+03  0.91168851829E+02 0.  0.
        -24    2    1    2    0    0  0.78644302528E+02  0.63218170596E+02 -0.46664321672E+03  0.48408299800E+03  0.79993711161E+02 0.  0.
         11    1    4    4    0    0  0.33002567738E+02  0.64925027972E+02 -0.37115907686E+03  0.37823734489E+03  0.00000000000E+00 0. -1.
        -12    1    4    4    0    0  0.45641734790E+02 -0.17068573756E+01 -0.95484139863E+02  0.10584565311E+03  0.00000000000E+00 0.  1.
        -11    1    3    3    0    0 -0.37106886566E+02 -0.75551644778E+02 -0.10382570850E+03  0.13365908052E+03  0.00000000000E+00 0. -1.
         11    1    3    3    0    0 -0.32553318694E+02 -0.20232645871E+02  0.13898841689E+02  0.40770777736E+02  0.00000000000E+00 0.  1.
         21    1    1    2  502  501 -0.89840972680E+01  0.32566120053E+02  0.56131564116E+01  0.34245783739E+02  0.00000000000E+00 0. -1.
<scales pt_clust_5="13000.00000" pt_clust_6="13000.00000" pt_clust_7="13000.00000" pt_clust_8="13000.00000" pt_clust_9="33.78263"></scales>
<clustering>
<clus scale="   33.783">  1  9  2 -1</clus>
<clus scale="   79.994">  5  6 -1 -1</clus>
<clus scale="   91.169">  7  8 -1 -1</clus>
<clus scale="  130.677">  2  5  1 -1</clus>
<clus scale="  130.677">  2  5  1 -1</clus>
</clustering>
</event>
<event>
 9    1  0.5179920E-005  0.2954553E+03  0.7546771E-02  0.1087839E+00
          1   -1    0    0  502    0  0.00000000000E+00  0.00000000000E+00  0.12415747249E+04  0.12415747249E+04  0.00000000000E+00 0. -1.
         -2   -1    0    0    0  501 -0.00000000000E+00 -0.00000000000E+00 -0.19115107765E+03  0.19115107765E+03  0.00000000000E+00 0.  1.
        -24    2    1    2    0    0 -0.29115317424E+03 -0.60442988874E+02  0.11657454294E+02  0.30915923766E+03  0.83785513173E+02 0.  0.
         23    2    1    2    0    0  0.27561480708E+03  0.41187589671E+02  0.10542928692E+04  0.10943554552E+04  0.91763112822E+02 0.  0.
         13    1    3    3    0    0 -0.42660768007E+02 -0.22003951102E+02  0.30720085089E+02  0.56989811536E+02  0.00000000000E+00 0. -1.
        -14    1    3    3    0    0 -0.24849240623E+03 -0.38439037772E+02 -0.19062630795E+02  0.25216942613E+03  0.00000000000E+00 0.  1.
        -11    1    4    4    0    0  0.21718966304E+03  0.61393967808E+02  0.90605881669E+03  0.93374683310E+03  0.00000000000E+00 0. -1.
         11    1    4    4    0    0  0.58425144037E+02 -0.20206378137E+02  0.14823405250E+03  0.16060862210E+03  0.00000000000E+00 0.  1.
         21    1    1    2  502  501  0.15538367162E+02  0.19255399203E+02 -0.15526676250E+02  0.29211109666E+02  0.00000000000E+00 0.  1.
<scales pt_clust_5="13000.00000" pt_clust_6="13000.00000" pt_clust_7="13000.00000" pt_clust_8="13000.00000" pt_clust_9="24.74290"></scales>
<clustering>
<clus scale="   24.743">  2  9  1 -1</clus>
<clus scale="   83.786">  5  6 -1 -1</clus>
<clus scale="   91.763">  7  8 -1 -1</clus>
<clus scale="  293.076">  2  5  1 -1</clus>
<clus scale="  295.455">  1  5  2 -1</clus>
</clustering>
</event>
<event>
 9    1  0.3846604E-005  0.1380401E+03  0.7546771E-02  0.1229500E+00
          1   -1    0    0  502    0  0.00000000000E+00  0.00000000000E+00  0.63236370241E+03  0.63236370241E+03  0.00000000000E+00 0. -1.
         -2   -1    0    0    0  501 -0.00000000000E+00 -0.00000000000E+00 -0.39529895860E+02  0.39529895860E+02  0.00000000000E+00 0.  1.
         23    2    1    2    0    0 -0.61875497269E+02  0.16188682573E+02  0.29623221850E+03  0.32641644209E+03  0.12125805450E+03 0.  0.
        -24    2    1    2    0    0  0.68403922934E+02  0.14334920484E+02  0.29560956493E+03  0.31424744605E+03  0.80509973630E+02 0.  0.
         13    1    4    4    0    0  0.35027410235E+02  0.31661747634E+02  0.63604719544E+02  0.79214557244E+02  0.00000000000E+00 0. -1.
        -14    1    4    4    0    0  0.33376512699E+02 -0.17326827150E+02  0.23200484538E+03  0.23503288880E+03  0.00000000000E+00 0.  1.
        -11    1    3    3    0    0 -0.23812181011E+02 -0.46347976498E+02  0.61887610973E+02  0.80902603678E+02  0.00000000000E+00 0.  1.
         11    1    3    3    0    0 -0.38063316258E+02  0.62536659071E+02  0.23434460753E+03  0.24551383841E+03  0.00000000000E+00 0. -1.
         21    1    1    2  502  501 -0.65284256656E+01 -0.30523603057E+02  0.99202312059E+00  0.31229710135E+02  0.00000000000E+00 0.  1.
<scales pt_clust_5="13000.00000" pt_clust_6="13000.00000" pt_clust_7="13000.00000" pt_clust_8="13000.00000" pt_clust_9="31.21395"></scales>
<clustering>
<clus scale="   31.214">  2  9  1 -1</clus>
<clus scale="   80.510">  5  6 -1 -1</clus>
<clus scale="  104.084">  1  5  2 -1</clus>
<clus scale="  121.258">  7  8 -1 -1</clus>
<clus scale="  104.084">  1  5  2 -1</clus>
</clustering>
</event>
<event>
 9    1  0.3846604E-005  0.1106703E+03  0.7546771E-02  0.1263560E+00
          1   -1    0    0  502    0  0.00000000000E+00  0.00000000000E+00  0.69225353712E+03  0.69225353712E+03  0.00000000000E+00 0. -1.
         -2   -1    0    0    0  501 -0.00000000000E+00 -0.00000000000E+00 -0.31259182945E+02  0.31259182945E+02  0.00000000000E+00 0.  1.
        -24    2    1    2    0    0  0.42808152616E+02  0.46027303783E+02  0.91195130977E+02  0.13703665070E+03  0.80693500966E+02 0.  0.
         23    2    1    2    0    0 -0.56246100868E+02 -0.27984407828E+02  0.52156538623E+03  0.53325363447E+03  0.91554549924E+02 0.  0.
         13    1    3    3    0    0  0.53740747342E+02  0.36348990719E+02  0.10057259905E+03  0.11968360260E+03  0.00000000000E+00 0. -1.
        -14    1    3    3    0    0 -0.10932594726E+02  0.96783130639E+01 -0.93774680704E+01  0.17353048107E+02  0.00000000000E+00 0.  1.
        -11    1    4    4    0    0 -0.40225697806E+02  0.28864544779E+02  0.29447836589E+03  0.29861141419E+03  0.00000000000E+00 0.  1.
         11    1    4    4    0    0 -0.16020403062E+02 -0.56848952607E+02  0.22708702035E+03  0.23464222028E+03  0.00000000000E+00 0. -1.
         21    1    1    2  502  501  0.13437948252E+02 -0.18042895955E+02  0.48233836967E+02  0.53222434896E+02  0.00000000000E+00 0. -1.
<scales pt_clust_5="13000.00000" pt_clust_6="13000.00000" pt_clust_7="13000.00000" pt_clust_8="13000.00000" pt_clust_9="22.49721"></scales>
<clustering>
<clus scale="   22.497">  2  9  1 -1</clus>
<clus scale="   80.694">  5  6 -1 -1</clus>
<clus scale="   91.555">  7  8 -1 -1</clus>
<clus scale="  101.868">  2  5  1 -1</clus>
<clus scale="  110.670">  1  5  2 -1</clus>
</clustering>
</event>
<event>
 9    1  0.3846604E-005  0.1035187E+03  0.7546771E-02  0.1282448E+00
         -2   -1    0    0    0  501 -0.00000000000E+00  0.00000000000E+00  0.32470766907E+02  0.32470766907E+02  0.00000000000E+00 0.  1.
          1   -1    0    0  502    0  0.00000000000E+00 -0.00000000000E+00 -0.66600043186E+03  0.66600043186E+03  0.00000000000E+00 0. -1.
         23    2    1    2    0    0  0.22547630780E+02  0.53607530320E+02 -0.11800977382E+03  0.16295706199E+03  0.96158901697E+02 0.  0.
        -24    2    1    2    0    0  0.58414394096E+01 -0.14288289290E+02 -0.18145000106E+03  0.19794246516E+03  0.77581176872E+02 0.  0.
         11    1    4    4    0    0  0.27091732895E+02 -0.32902059060E+02 -0.62262277576E+02  0.75452625472E+02  0.00000000000E+00 0. -1.
        -12    1    4    4    0    0 -0.21250293486E+02  0.18613769770E+02 -0.11918772348E+03  0.12248983969E+03  0.00000000000E+00 0.  1.
        -13    1    3    3    0    0  0.57045865286E+02  0.17489885741E+02 -0.81877584174E+02  0.10131172508E+03  0.00000000000E+00 0.  1.
         13    1    3    3    0    0 -0.34498234506E+02  0.36117644579E+02 -0.36132189647E+02  0.61645336909E+02  0.00000000000E+00 0. -1.
         21    1    1    2  502  501 -0.28389070190E+02 -0.39319241030E+02 -0.33406989007E+03  0.33757167161E+03  0.00000000000E+00 0. -1.
<scales pt_clust_5="13000.00000" pt_clust_6="13000.00000" pt_clust_7="13000.00000" pt_clust_8="13000.00000" pt_clust_9="48.49682"></scales>
<clustering>
<clus scale="   48.497">  2  9  1 -1</clus>
<clus scale="   77.581">  5  6 -1 -1</clus>
<clus scale="   86.536">  2  5  1 -1</clus>
<clus scale="   96.159">  7  8 -1 -1</clus>
<clus scale="   48.497">  2  5  1 -1</clus>
</clustering>
</event>
<event>
 9    1  0.3846604E-005  0.9657166E+02  0.7546771E-02  0.1293863E+00
         -4   -1    0    0    0  501 -0.00000000000E+00  0.00000000000E+00  0.85692110843E+02  0.85692110843E+02  0.00000000000E+00 0.  1.
          3   -1    0    0  502    0  0.00000000000E+00 -0.00000000000E+00 -0.36496182315E+03  0.36496182315E+03  0.00000000000E+00 0. -1.
         23    2    1    2    0    0 -0.87963818874E+01  0.38614814921E+02 -0.12315768921E+02  0.10188581313E+03  0.93062132402E+02 0.  0.
        -24    2    1    2    0    0  0.16406181067E+02 -0.18199348525E+02 -0.29843750931E+03  0.31048084837E+03  0.82055049701E+02 0.  0.
         13    1    4    4    0    0  0.75513728806E+01 -0.50650614618E+02 -0.20011206146E+03  0.20656075410E+03  0.00000000000E+00 0. -1.
        -14    1    4    4    0    0  0.88548081866E+01  0.32451266093E+02 -0.98325447851E+02  0.10392009427E+03  0.00000000000E+00 0.  1.
        -13    1    3    3    0    0 -0.15616747560E+02 -0.18147476564E+02 -0.33276068835E+02  0.40994029652E+02  0.00000000000E+00 0. -1.
         13    1    3    3    0    0  0.68203656729E+01  0.56762291485E+02  0.20960299914E+02  0.60891783477E+02  0.00000000000E+00 0.  1.
         21    1    1    2  502  501 -0.76097991798E+01 -0.20415466396E+02  0.31483565921E+02  0.38287272491E+02  0.00000000000E+00 0.  1.
<scales pt_clust_5="13000.00000" pt_clust_6="13000.00000" pt_clust_7="13000.00000" pt_clust_8="13000.00000" pt_clust_9="21.78762"></scales>
<clustering>
<clus scale="   21.788">  1  9  2 -1</clus>
<clus scale="   82.055">  5  6 -1 -1</clus>
<clus scale="   86.015">  2  5  1 -1</clus>
<clus scale="   93.062">  7  8 -1 -1</clus>
<clus scale="   86.015">  2  5  1 -1</clus>
</clustering>
</event>
<event>
 9    1  0.3846604E-005  0.1565675E+03  0.7546771E-02  0.1194688E+00
         -2   -1    0    0    0  501 -0.00000000000E+00  0.00000000000E+00  0.43340496646E+03  0.43340496646E+03  0.00000000000E+00 0.  1.
          1   -1    0    0  502    0  0.00000000000E+00 -0.00000000000E+00 -0.36729514063E+03  0.36729514063E+03  0.00000000000E+00 0. -1.
        -24    2    1    2    0    0  0.13002191227E+03 -0.66956930596E+02  0.20094374647E+03  0.26123678759E+03  0.80481934127E+02 0.  0.
         23    2    1    2    0    0 -0.10657697345E+03  0.64591710424E+02 -0.31846401551E+03  0.35432750135E+03  0.92724908798E+02 0.  0.
         11    1    3    3    0    0  0.10758468757E+03 -0.80064287318E+02  0.13468713193E+03  0.19006677408E+03  0.00000000000E+00 0. -1.
        -12    1    3    3    0    0  0.22437224701E+02  0.13107356722E+02  0.66256614539E+02  0.71170013508E+02  0.00000000000E+00 0.  1.
        -13    1    4    4    0    0 -0.35648957644E+02  0.73182674765E+02 -0.13778455009E+03  0.16003479094E+03  0.00000000000E+00 0.  1.
         13    1    4    4    0    0 -0.70928015805E+02 -0.85909643404E+01 -0.18067946542E+03  0.19429271041E+03  0.00000000000E+00 0. -1.
         21    1    1    2  502  501 -0.23444938819E+02  0.23652201714E+01  0.18363009487E+03  0.18513581815E+03  0.00000000000E+00 0.  1.
<scales pt_clust_5="13000.00000" pt_clust_6="13000.00000" pt_clust_7="13000.00000" pt_clust_8="13000.00000" pt_clust_9="23.56394"></scales>
<clustering>
<clus scale="   23.564">  1  9  2 -1</clus>
<clus scale="   80.482">  5  6 -1 -1</clus>
<clus scale="   92.725">  7  8 -1 -1</clus>
<clus scale="  149.642">  1  5  2 -1</clus>
<clus scale="  156.568">  2  5  1 -1</clus>
</clustering>
</event>
<event>
 9    1  0.3846604E-005  0.1185771E+03  0.7546771E-02  0.1250244E+00
          3   -1    0    0  502    0  0.00000000000E+00  0.00000000000E+00  0.51708717083E+03  0.51708717083E+03  0.00000000000E+00 0. -1.
         -4   -1    0    0    0  501 -0.00000000000E+00 -0.00000000000E+00 -0.35693010674E+02  0.35693010674E+02  0.00000000000E+00 0.  1.
        -24    2    1    2    0    0  0.60038523460E+02  0.29959744813E+02  0.10156239546E+03  0.14430855005E+03  0.77510172465E+02 0.  0.
         23    2    1    2    0    0 -0.77343805596E+02 -0.16850054558E+02  0.35655882820E+03  0.37664449930E+03  0.91983108686E+02 0.  0.
         13    1    3    3    0    0  0.37909574198E+02 -0.59380258607E+01  0.93913389479E+02  0.10145008965E+03  0.00000000000E+00 0. -1.
        -14    1    3    3    0    0  0.22128949262E+02  0.35897770673E+02  0.76490059846E+01  0.42858460394E+02  0.00000000000E+00 0.  1.
        -11    1    4    4    0    0 -0.52290811565E+02  0.24624797352E+02  0.99589303474E+02  0.11514659780E+03  0.00000000000E+00 0.  1.
         11    1    4    4    0    0 -0.25052994031E+02 -0.41474851910E+02  0.25696952473E+03  0.26149790150E+03  0.00000000000E+00 0. -1.
         21    1    1    2  502  501  0.17305282136E+02 -0.13109690255E+02  0.23272936495E+02  0.31827132159E+02  0.00000000000E+00 0. -1.
<scales pt_clust_5="13000.00000" pt_clust_6="13000.00000" pt_clust_7="13000.00000" pt_clust_8="13000.00000" pt_clust_9="21.71029"></scales>
<clustering>
<clus scale="   21.710">  2  9  1 -1</clus>
<clus scale="   77.510">  5  6 -1 -1</clus>
<clus scale="   91.983">  7  8 -1 -1</clus>
<clus scale="  107.738">  2  5  1 -1</clus>
<clus scale="  118.577">  1  5  2 -1</clus>
</clustering>
</event>
<event>
 9    1  0.3846604E-005  0.9246968E+02  0.7546771E-02  0.1303869E+00
          3   -1    0    0  502    0  0.00000000000E+00  0.00000000000E+00  0.48646971143E+03  0.48646971143E+03  0.00000000000E+00 0. -1.
         -4   -1    0    0    0  501 -0.00000000000E+00 -0.00000000000E+00 -0.65737503672E+02  0.65737503672E+02  0.00000000000E+00 0.  1.
         23    2    1    2    0    0  0.18275143518E+02  0.29845398072E+02  0.20306890596E+02  0.10008566625E+03  0.91542570020E+02 0.  0.
        -24    2    1    2    0    0 -0.95372118821E+01  0.11871319418E+02  0.40123423575E+03  0.40949186065E+03  0.80391450777E+02 0.  0.
         13    1    4    4    0    0 -0.41972884395E+02 -0.62142056237E+01  0.16561640009E+03  0.17096529284E+03  0.00000000000E+00 0. -1.
        -14    1    4    4    0    0  0.32435672513E+02  0.18085525041E+02  0.23561783566E+03  0.23852656781E+03  0.00000000000E+00 0.  1.
        -13    1    3    3    0    0  0.26490326982E+02 -0.20640428088E+02 -0.16159264521E+02  0.37267767912E+02  0.00000000000E+00 0.  1.
         13    1    3    3    0    0 -0.82151834635E+01  0.50485826160E+02  0.36466155117E+02  0.62817898336E+02  0.00000000000E+00 0. -1.
         21    1    1    2  502  501 -0.87379316364E+01 -0.41716717490E+02 -0.80891859351E+00  0.42629688208E+02  0.00000000000E+00 0. -1.
<scales pt_clust_5="13000.00000" pt_clust_6="13000.00000" pt_clust_7="13000.00000" pt_clust_8="13000.00000" pt_clust_9="42.62201"></scales>
<clustering>
<clus scale="   42.622">  2  9  1 -1</clus>
<clus scale="   80.391">  5  6 -1 -1</clus>
<clus scale="   81.446">  1  5  2 -1</clus>
<clus scale="   91.543">  7  8 -1 -1</clus>
<clus scale="   81.446">  1  5  2 -1</clus>
</clustering>
</event>
<event>
 9    1  0.3846604E-005  0.1105514E+03  0.7546771E-02  0.1264073E+00
          1   -1    0    0  502    0  0.00000000000E+00  0.00000000000E+00  0.16321246613E+03  0.16321246613E+03  0.00000000000E+00 0. -1.
         -2   -1    0    0    0  501 -0.00000000000E+00 -0.00000000000E+00 -0.24323220227E+03  0.24323220227E+03  0.00000000000E+00 0.  1.
         23    2    1    2    0    0  0.17550166334E+02  0.71674588722E+01 -0.41717302305E+02  0.10171713099E+03  0.90811126081E+02 0.  0.
        -24    2    1    2    0    0 -0.77385128355E+01 -0.82659153471E+02  0.96517130575E+02  0.14989995769E+03  0.79132929850E+02 0.  0.
         11    1    4    4    0    0 -0.39182465237E+02 -0.47456609685E+02  0.77619491327E+02  0.99056452686E+02  0.00000000000E+00 0. -1.
        -12    1    4    4    0    0  0.31443952401E+02 -0.35202543786E+02  0.18897639248E+02  0.50843505001E+02  0.00000000000E+00 0.  1.
        -11    1    3    3    0    0  0.40409033550E+02  0.32369108764E+02 -0.43533000660E+02  0.67644447969E+02  0.00000000000E+00 0. -1.
         11    1    3    3    0    0 -0.22858867216E+02 -0.25201649892E+02  0.18156983543E+01  0.34072683020E+02  0.00000000000E+00 0.  1.
         21    1    1    2  502  501 -0.98116534988E+01  0.75491694599E+02 -0.13481956441E+03  0.15482757973E+03  0.00000000000E+00 0.  1.
<scales pt_clust_5="13000.00000" pt_clust_6="13000.00000" pt_clust_7="13000.00000" pt_clust_8="13000.00000" pt_clust_9="76.12663"></scales>
<clustering>
<clus scale="   76.127">  2  9  1 -1</clus>
<clus scale="   79.133">  5  6 -1 -1</clus>
<clus scale="   90.811">  7  8 -1 -1</clus>
<clus scale="  101.178">  1  5  2 -1</clus>
<clus scale="  101.178">  1  5  2 -1</clus>
</clustering>
</event>
<event>
 9    1  0.3846604E-005  0.1095381E+03  0.7546771E-02  0.1265272E+00
         -2   -1    0    0    0  501 -0.00000000000E+00  0.00000000000E+00  0.20148559457E+03  0.20148559457E+03  0.00000000000E+00 0.  1.
          1   -1    0    0  502    0  0.00000000000E+00 -0.00000000000E+00 -0.13097822230E+03  0.13097822230E+03  0.00000000000E+00 0. -1.
         23    2    1    2    0    0 -0.78039011668E+02  0.19150442928E+02  0.12659401204E+03  0.17453336547E+03  0.89325388176E+02 0.  0.
        -24    2    1    2    0    0  0.54569352201E+02 -0.26975959890E+02 -0.76427485961E+02  0.12590212558E+03  0.79401939546E+02 0.  0.
         13    1    4    4    0    0  0.44264794603E+02 -0.41354568376E+02 -0.86456983129E+02  0.10556695647E+03  0.00000000000E+00 0. -1.
        -14    1    4    4    0    0  0.10304557599E+02  0.14378608486E+02  0.10029497167E+02  0.20335169110E+02  0.00000000000E+00 0.  1.
        -11    1    3    3    0    0 -0.49271304749E+02  0.44777705302E+02  0.11733681609E+03  0.13490972083E+03  0.00000000000E+00 0.  1.
         11    1    3    3    0    0 -0.28767706919E+02 -0.25627262374E+02  0.92571959504E+01  0.39623644646E+02  0.00000000000E+00 0. -1.
         21    1    1    2  502  501  0.23469659466E+02  0.78255169629E+01  0.20340846187E+02  0.32028325819E+02  0.00000000000E+00 0.  1.
<scales pt_clust_5="13000.00000" pt_clust_6="13000.00000" pt_clust_7="13000.00000" pt_clust_8="13000.00000" pt_clust_9="24.73992"></scales>
<clustering>
<clus scale="   24.740">  1  9  2 -1</clus>
<clus scale="   79.402">  5  6 -1 -1</clus>
<clus scale="   89.325">  7  8 -1 -1</clus>
<clus scale="  101.608">  2  5  1 -1</clus>
<clus scale="  101.608">  2  5  1 -1</clus>
</clustering>
</event>
<event>
 9    1  0.3846604E-005  0.1563982E+03  0.7546771E-02  0.1194544E+00
          1   -1    0    0  502    0  0.00000000000E+00  0.00000000000E+00  0.25065046470E+03  0.25065046470E+03  0.00000000000E+00 0. -1.
         -2   -1    0    0    0  501 -0.00000000000E+00 -0.00000000000E+00 -0.30002387402E+03  0.30002387402E+03  0.00000000000E+00 0.  1.
         23    2    1    2    0    0  0.36242638302E+02  0.14000071399E+03 -0.19943893898E+03  0.26255394427E+03  0.90801731948E+02 0.  0.
        -24    2    1    2    0    0 -0.43902643575E+02 -0.11756292194E+03  0.19011850725E+03  0.24157610148E+03  0.80408228953E+02 0.  0.
         13    1    4    4    0    0  0.11676030725E+02 -0.80123190354E+02  0.11822218228E+03  0.14329179917E+03  0.00000000000E+00 0. -1.
        -14    1    4    4    0    0 -0.55578674300E+02 -0.37439731585E+02  0.71896324968E+02  0.98284302317E+02  0.00000000000E+00 0.  1.
        -11    1    3    3    0    0  0.46618012262E+02  0.24637570696E+02 -0.82873595004E+02  0.98225667246E+02  0.00000000000E+00 0.  1.
         11    1    3    3    0    0 -0.10375373959E+02  0.11536314329E+03 -0.11656534397E+03  0.16432827703E+03  0.00000000000E+00 0. -1.
         21    1    1    2  502  501  0.76600052729E+01 -0.22437792052E+02 -0.40052977597E+02  0.46544292962E+02  0.00000000000E+00 0.  1.
<scales pt_clust_5="13000.00000" pt_clust_6="13000.00000" pt_clust_7="13000.00000" pt_clust_8="13000.00000" pt_clust_9="23.70928"></scales>
<clustering>
<clus scale="   23.709">  2  9  1 -1</clus>
<clus scale="   80.408">  5  6 -1 -1</clus>
<clus scale="   90.802">  7  8 -1 -1</clus>
<clus scale="  150.602">  1  5  2 -1</clus>
<clus scale="  150.602">  1  5  2 -1</clus>
</clustering>
</event>
<event>
 9    1  0.3846604E-005  0.1002124E+03  0.7546771E-02  0.1284809E+00
          1   -1    0    0  502    0  0.00000000000E+00  0.00000000000E+00  0.10885765778E+03  0.10885765778E+03  0.00000000000E+00 0. -1.
         -2   -1    0    0    0  501 -0.00000000000E+00 -0.00000000000E+00 -0.24497159823E+03  0.24497159823E+03  0.00000000000E+00 0.  1.
        -24    2    1    2    0    0 -0.22604461803E+02  0.61239621678E+02 -0.17475894162E+03  0.20330372814E+03  0.80811294035E+02 0.  0.
         23    2    1    2    0    0  0.17036372295E+02 -0.35069971866E+02  0.60569554046E+02  0.11593448551E+03  0.90840481868E+02 0.  0.
         11    1    3    3    0    0  0.22081531853E+02  0.40520935883E+02 -0.12518798342E+03  0.13342252990E+03  0.00000000000E+00 0. -1.
        -12    1    3    3    0    0 -0.44685993656E+02  0.20718685795E+02 -0.49570958204E+02  0.69881198240E+02  0.00000000000E+00 0.  1.
        -11    1    4    4    0    0  0.49367038181E+02 -0.15220361019E+02  0.98412848453E+01  0.52589112331E+02  0.00000000000E+00 0.  1.
         11    1    4    4    0    0 -0.32330665886E+02 -0.19849610847E+02  0.50728269201E+02  0.63345373181E+02  0.00000000000E+00 0. -1.
         21    1    1    2  502  501  0.55680895077E+01 -0.26169649812E+02 -0.21924552879E+02  0.34591042352E+02  0.00000000000E+00 0.  1.
<scales pt_clust_5="13000.00000" pt_clust_6="13000.00000" pt_clust_7="13000.00000" pt_clust_8="13000.00000" pt_clust_9="26.75545"></scales>
<clustering>
<clus scale="   26.755">  2  9  1 -1</clus>
<clus scale="   80.811">  5  6 -1 -1</clus>
<clus scale="   90.840">  7  8 -1 -1</clus>
<clus scale="   91.219">  2  5  1 -1</clus>
<clus scale="  100.212">  1  5  2 -1</clus>
</clustering>
</event>
<event>
 9    1  0.3846604E-005  0.2193972E+03  0.7546771E-02  0.1135200E+00
          1   -1    0    0  502    0  0.00000000000E+00  0.00000000000E+00  0.70310535039E+02  0.70310535039E+02  0.00000000000E+00 0. -1.
         -2   -1    0    0    0  501 -0.00000000000E+00 -0.00000000000E+00 -0.85934749705E+03  0.85934749705E+03  0.00000000000E+00 0.  1.
        -24    2    1    2    0    0 -0.13964394751E+03  0.14855052107E+03 -0.41322835087E+03  0.46763224962E+03  0.79715503762E+02 0.  0.
         23    2    1    2    0    0  0.11428835162E+03 -0.16092117511E+03 -0.24240279339E+03  0.32566944219E+03  0.91345604250E+02 0.  0.
         11    1    3    3    0    0 -0.24485750331E+02  0.36917570508E+01 -0.16189681997E+02  0.29585247043E+02  0.00000000000E+00 0. -1.
        -12    1    3    3    0    0 -0.11515819717E+03  0.14485876402E+03 -0.39703866887E+03  0.43804700258E+03  0.00000000000E+00 0.  1.
        -11    1    4    4    0    0  0.44303817536E+02 -0.13626758562E+03 -0.15947295605E+03  0.21439054748E+03  0.00000000000E+00 0.  1.
         11    1    4    4    0    0  0.69984534082E+02 -0.24653589497E+02 -0.82929837338E+02  0.11127889470E+03  0.00000000000E+00 0. -1.
         21    1    1    2  502  501  0.25355595888E+02  0.12370654041E+02 -0.13340581775E+03  0.13635634028E+03  0.00000000000E+00 0. -1.
<scales pt_clust_5="13000.00000" pt_clust_6="13000.00000" pt_clust_7="13000.00000" pt_clust_8="13000.00000" pt_clust_9="28.21240"></scales>
<clustering>
<clus scale="   28.212">  2  9  1 -1</clus>
<clus scale="   79.716">  5  6 -1 -1</clus>
<clus scale="   91.346">  7  8 -1 -1</clus>
<clus scale="  214.815">  2  5  1 -1</clus>
<clus scale="  219.397">  1  5  2 -1</clus>
</clustering>
</event>
<event>
 9    1  0.3846604E-005  0.1205364E+03  0.7546771E-02  0.1249605E+00
         -4   -1    0    0    0  501 -0.00000000000E+00  0.00000000000E+00  0.70557347169E+02  0.70557347169E+02  0.00000000000E+00 0.  1.
          3   -1    0    0  502    0  0.00000000000E+00 -0.00000000000E+00 -0.26485419218E+03  0.26485419218E+03  0.00000000000E+00 0. -1.
        -24    2    1    2    0    0  0.20526183471E+02  0.68433131782E+02 -0.50082488282E+02  0.11602433432E+03  0.76478577311E+02 0.  0.
         23    2    1    2    0    0 -0.40234030262E+02 -0.58416392567E+02 -0.15351243562E+03  0.19540411598E+03  0.97905303940E+02 0.  0.
         11    1    3    3    0    0  0.37658770763E+02  0.14916679394E+02  0.36862130812E+00  0.40507113217E+02  0.00000000000E+00 0. -1.
        -12    1    3    3    0    0 -0.17132587292E+02  0.53516452388E+02 -0.50451109590E+02  0.75517221098E+02  0.00000000000E+00 0.  1.
        -13    1    4    4    0    0 -0.64376832531E+02 -0.49917373894E+02 -0.67906670920E+02  0.10605393316E+03  0.00000000000E+00 0.  1.
         13    1    4    4    0    0  0.24142802270E+02 -0.84990186728E+01 -0.85605764698E+02  0.89350182816E+02  0.00000000000E+00 0. -1.
         21    1    1    2  502  501  0.19707846791E+02 -0.10016739216E+02  0.92980788898E+01  0.23983089057E+02  0.00000000000E+00 0. -1.
<scales pt_clust_5="13000.00000" pt_clust_6="13000.00000" pt_clust_7="13000.00000" pt_clust_8="13000.00000" pt_clust_9="22.10734"></scales>
<clustering>
<clus scale="   22.107">  1  9  2 -1</clus>
<clus scale="   76.479">  5  6 -1 -1</clus>
<clus scale="   97.905">  7  8 -1 -1</clus>
<clus scale="  103.887">  1  5  2 -1</clus>
<clus scale="  120.536">  2  5  1 -1</clus>
</clustering>
</event>
<event>
 9    1  0.3846604E-005  0.1087187E+03  0.7546771E-02  0.1266833E+00
          1   -1    0    0  502    0  0.00000000000E+00  0.00000000000E+00  0.36514740498E+03  0.36514740498E+03  0.00000000000E+00 0. -1.
         -2   -1    0    0    0  501 -0.00000000000E+00 -0.00000000000E+00 -0.17288903055E+03  0.17288903055E+03  0.00000000000E+00 0.  1.
         23    2    1    2    0    0  0.34723301983E+01 -0.78741552793E+02 -0.29975863074E+02  0.12220407556E+03  0.88447693596E+02 0.  0.
        -24    2    1    2    0    0 -0.24700532197E+02  0.56950528195E+02  0.30851376282E+03  0.32434661352E+03  0.78527096628E+02 0.  0.
         11    1    4    4    0    0  0.20815523761E+02  0.48408472924E+02  0.14011190551E+03  0.14969306045E+03  0.00000000000E+00 0. -1.
        -12    1    4    4    0    0 -0.45516055958E+02  0.85420552713E+01  0.16840185731E+03  0.17465355308E+03  0.00000000000E+00 0.  1.
        -13    1    3    3    0    0 -0.97296906684E+01 -0.95758541363E+02 -0.29464152891E+02  0.10066032699E+03  0.00000000000E+00 0.  1.
         13    1    3    3    0    0  0.13202020867E+02  0.17016988570E+02 -0.51171018290E+00  0.21543748566E+02  0.00000000000E+00 0. -1.
         21    1    1    2  502  501  0.21228201999E+02  0.21791024598E+02 -0.86279525323E+02  0.91485746448E+02  0.00000000000E+00 0.  1.
<scales pt_clust_5="13000.00000" pt_clust_6="13000.00000" pt_clust_7="13000.00000" pt_clust_8="13000.00000" pt_clust_9="30.42179"></scales>
<clustering>
<clus scale="   30.422">  2  9  1 -1</clus>
<clus scale="   78.527">  5  6 -1 -1</clus>
<clus scale="   88.448">  7  8 -1 -1</clus>
<clus scale="  100.813">  1  5  2 -1</clus>
<clus scale="  100.813">  1  5  2 -1</clus>
</clustering>
</event>
<event>
 9    1  0.3846604E-005  0.9713480E+02  0.7546771E-02  0.1291940E+00
         -2   -1    0    0    0  501 -0.00000000000E+00  0.00000000000E+00  0.78232087163E+02  0.78232087163E+02  0.00000000000E+00 0.  1.
          1   -1    0    0  502    0  0.00000000000E+00 -0.00000000000E+00 -0.39776538469E+03  0.39776538469E+03  0.00000000000E+00 0. -1.
         23    2    1    2    0    0  0.67290042889E+02 -0.16223318122E+02 -0.16553394319E+03  0.20103739772E+03  0.90682980823E+02 0.  0.
        -24    2    1    2    0    0 -0.18414795588E+02  0.23018241789E+01 -0.19365347673E+03  0.21050041842E+03  0.80401206542E+02 0.  0.
         11    1    4    4    0    0  0.21866282242E+02 -0.89137506926E+01 -0.14244730330E+03  0.14439121673E+03  0.00000000000E+00 0. -1.
        -12    1    4    4    0    0 -0.40281077830E+02  0.11215574872E+02 -0.51206173430E+02  0.66109201691E+02  0.00000000000E+00 0.  1.
        -13    1    3    3    0    0 -0.22738191861E+02 -0.56484482859E+01 -0.33250274479E+02  0.40675681803E+02  0.00000000000E+00 0. -1.
         13    1    3    3    0    0  0.90028234750E+02 -0.10574869836E+02 -0.13228366871E+03  0.16036171591E+03  0.00000000000E+00 0.  1.
         21    1    1    2  502  501 -0.48875247301E+02  0.13921493943E+02  0.39654122392E+02  0.64459655716E+02  0.00000000000E+00 0.  1.
<scales pt_clust_5="13000.00000" pt_clust_6="13000.00000" pt_clust_7="13000.00000" pt_clust_8="13000.00000" pt_clust_9="50.81927"></scales>
<clustering>
<clus scale="   50.819">  1  9  2 -1</clus>
<clus scale="   80.401">  5  6 -1 -1</clus>
<clus scale="   87.613">  2  5  1 -1</clus>
<clus scale="   90.683">  7  8 -1 -1</clus>
<clus scale="   87.613">  2  5  1 -1</clus>
</clustering>
</event>
<event>
 9    1  0.3846604E-005  0.2384100E+03  0.7546771E-02  0.1121609E+00
         -2   -1    0    0    0  501 -0.00000000000E+00  0.00000000000E+00  0.22780121374E+03  0.22780121374E+03  0.00000000000E+00 0.  1.
          1   -1    0    0  502    0  0.00000000000E+00 -0.00000000000E+00 -0.60995809470E+03  0.60995809470E+03  0.00000000000E+00 0. -1.
         23    2    1    2    0    0  0.32652800306E+02  0.19649794329E+03 -0.60912321638E+02  0.22786341265E+03  0.92378443428E+02 0.  0.
        -24    2    1    2    0    0 -0.23349153916E+03 -0.13453850263E+03 -0.27782607781E+03  0.39527917732E+03  0.80245815859E+02 0.  0.
         13    1    4    4    0    0 -0.13814768687E+03 -0.10896220895E+03 -0.21684509593E+03  0.27924781467E+03  0.00000000000E+00 0. -1.
        -14    1    4    4    0    0 -0.95343852293E+02 -0.25576293681E+02 -0.60980981873E+02  0.11603136265E+03  0.00000000000E+00 0.  1.
        -11    1    3    3    0    0  0.20697141524E+02  0.24375032733E+02 -0.44149740797E+02  0.54513424956E+02  0.00000000000E+00 0.  1.
         11    1    3    3    0    0  0.11955658782E+02  0.17212291056E+03 -0.16762580841E+02  0.17334998769E+03  0.00000000000E+00 0. -1.
         21    1    1    2  502  501  0.20083873886E+03 -0.61959440658E+02 -0.43418481520E+02  0.21461671848E+03  0.00000000000E+00 0. -1.
<scales pt_clust_5="13000.00000" pt_clust_6="13000.00000" pt_clust_7="13000.00000" pt_clust_8="13000.00000" pt_clust_9="210.17890"></scales>
<clustering>
<clus scale="   80.246">  5  6 -1 -1</clus>
<clus scale="   92.378">  7  8 -1 -1</clus>
<clus scale="  210.179">  1  9  2 -1</clus>
<clus scale="  233.976">  2  5  1 -1</clus>
<clus scale="  233.976">  2  5  1 -1</clus>
</clustering>
</event>
<event>
 9    1  0.3846604E-005  0.1291898E+03  0.7546771E-02  0.1231395E+00
         -2   -1    0    0    0  501 -0.00000000000E+00  0.00000000000E+00  0.27464602849E+03  0.27464602849E+03  0.00000000000E+00 0.  1.
          1   -1    0    0  502    0  0.00000000000E+00 -0.00000000000E+00 -0.79510524987E+02  0.79510524987E+02  0.00000000000E+00 0. -1.
        -24    2    1    2    0    0  0.32329614528E+02 -0.66600805457E+02  0.10994442926E+03  0.15416527411E+03  0.78729174734E+02 0.  0.
         23    2    1    2    0    0 -0.48254946581E+02  0.95555949113E+02  0.42002977579E+02  0.14561087629E+03  0.89324117053E+02 0.  0.
         13    1    3    3    0    0  0.78393813870E+01 -0.51412782891E+02  0.13816854668E+02  0.53811110544E+02  0.00000000000E+00 0. -1.
        -14    1    3    3    0    0  0.24490233141E+02 -0.15188022567E+02  0.96127574592E+02  0.10035416357E+03  0.00000000000E+00 0.  1.
        -11    1    4    4    0    0 -0.19764714503E+02  0.73830065943E+02 -0.15379028920E+02  0.77961766956E+02  0.00000000000E+00 0. -1.
         11    1    4    4    0    0 -0.28490232078E+02  0.21725883170E+02  0.57382006499E+02  0.67649109331E+02  0.00000000000E+00 0.  1.
         21    1    1    2  502  501  0.15925332052E+02 -0.28955143655E+02  0.43188096660E+02  0.54380403071E+02  0.00000000000E+00 0. -1.
<scales pt_clust_5="13000.00000" pt_clust_6="13000.00000" pt_clust_7="13000.00000" pt_clust_8="13000.00000" pt_clust_9="33.04567"></scales>
<clustering>
<clus scale="   33.046">  1  9  2 -1</clus>
<clus scale="   78.729">  5  6 -1 -1</clus>
<clus scale="   89.324">  7  8 -1 -1</clus>
<clus scale="  122.104">  1  5  2 -1</clus>
<clus scale="  129.190">  2  5  1 -1</clus>
</clustering>
</event>
<event>
 9    1  0.3846604E-005  0.1279731E+03  0.7546771E-02  0.1233363E+00
         -2   -1    0    0    0  501 -0.00000000000E+00  0.00000000000E+00  0.14848336075E+03  0.14848336075E+03  0.00000000000E+00 0.  1.
          1   -1    0    0  502    0  0.00000000000E+00 -0.00000000000E+00 -0.26057513348E+03  0.26057513348E+03  0.00000000000E+00 0. -1.
         23    2    1    2    0    0 -0.10807561478E+03  0.53122477937E+02 -0.37490411833E+02  0.15561907059E+03  0.91156063859E+02 0.  0.
        -24    2    1    2    0    0  0.71440494388E+02 -0.34506364783E+02 -0.13768661108E+03  0.17815037725E+03  0.80532729961E+02 0.  0.
         13    1    4    4    0    0  0.84144667990E+02 -0.91113647322E+01 -0.10176855709E+03  0.13236382183E+03  0.00000000000E+00 0. -1.
        -14    1    4    4    0    0 -0.12704173602E+02 -0.25395000051E+02 -0.35918053990E+02  0.45786555416E+02  0.00000000000E+00 0.  1.
        -13    1    3    3    0    0 -0.44213344306E+02 -0.80473553704E+01  0.20989743569E+02  0.49599889902E+02  0.00000000000E+00 0.  1.
         13    1    3    3    0    0 -0.63862270475E+02  0.61169833307E+02 -0.58480155403E+02  0.10601918068E+03  0.00000000000E+00 0. -1.
         21    1    1    2  502  501  0.36635120392E+02 -0.18616113153E+02  0.63085250187E+02  0.75289046389E+02  0.00000000000E+00 0. -1.
<scales pt_clust_5="13000.00000" pt_clust_6="13000.00000" pt_clust_7="13000.00000" pt_clust_8="13000.00000" pt_clust_9="41.09369"></scales>
<clustering>
<clus scale="   41.094">  1  9  2 -1</clus>
<clus scale="   80.533">  5  6 -1 -1</clus>
<clus scale="   91.156">  7  8 -1 -1</clus>
<clus scale="  120.637">  2  5  1 -1</clus>
<clus scale="  120.637">  2  5  1 -1</clus>
</clustering>
</event>
<event>
 9    1  0.3846604E-005  0.9497275E+02  0.7546771E-02  0.1297498E+00
          3   -1    0    0  502    0  0.00000000000E+00  0.00000000000E+00  0.71719424095E+03  0.71719424095E+03  0.00000000000E+00 0. -1.
         -4   -1    0    0    0  501 -0.00000000000E+00 -0.00000000000E+00 -0.41611820160E+02  0.41611820160E+02  0.00000000000E+00 0.  1.
         23    2    1    2    0    0 -0.67941241280E+01  0.14616651677E+02  0.58300217779E+02  0.10975996283E+03  0.91588904452E+02 0.  0.
        -24    2    1    2    0    0 -0.27261269454E+02  0.11391077981E+02  0.59418057662E+03  0.60036492147E+03  0.80712748820E+02 0.  0.
         13    1    4    4    0    0 -0.32880503885E+02  0.38773228356E+02  0.25398714770E+03  0.25902502190E+03  0.00000000000E+00 0. -1.
        -14    1    4    4    0    0  0.56192344314E+01 -0.27382150375E+02  0.34019342892E+03  0.34133989956E+03  0.00000000000E+00 0.  1.
        -11    1    3    3    0    0  0.35927300925E+02  0.26363069842E+02  0.13058385302E+02  0.46436018670E+02  0.00000000000E+00 0.  1.
         11    1    3    3    0    0 -0.42721425053E+02 -0.11746418165E+02  0.45241832477E+02  0.63323944161E+02  0.00000000000E+00 0. -1.
         21    1    1    2  502  501  0.34055393582E+02 -0.26007729658E+02  0.23101626386E+02  0.48681176810E+02  0.00000000000E+00 0.  1.
<scales pt_clust_5="13000.00000" pt_clust_6="13000.00000" pt_clust_7="13000.00000" pt_clust_8="13000.00000" pt_clust_9="42.85058"></scales>
<clustering>
<clus scale="   42.851">  2  9  1 -1</clus>
<clus scale="   80.713">  5  6 -1 -1</clus>
<clus scale="   84.533">  1  5  2 -1</clus>
<clus scale="   91.589">  7  8 -1 -1</clus>
<clus scale="   84.533">  1  5  2 -1</clus>
</clustering>
</event>
<event>
 9    1  0.3846604E-005  0.9770608E+02  0.7546771E-02  0.1288974E+00
         -2   -1    0    0    0  501 -0.00000000000E+00  0.00000000000E+00  0.80456158839E+02  0.80456158839E+02  0.00000000000E+00 0.  1.
          1   -1    0    0  502    0  0.00000000000E+00 -0.00000000000E+00 -0.22462523073E+03  0.22462523073E+03  0.00000000000E+00 0. -1.
        -24    2    1    2    0    0  0.41539924226E+02 -0.38039443501E+01  0.13423694572E+02  0.92123713437E+02  0.81034237851E+02 0.  0.
         23    2    1    2    0    0 -0.35054449447E+02 -0.26088014802E+02 -0.15293419214E+03  0.18201752552E+03  0.88499228977E+02 0.  0.
         13    1    3    3    0    0  0.18541628950E+01 -0.38106261473E+02  0.75043768477E+00  0.38158724300E+02  0.00000000000E+00 0. -1.
        -14    1    3    3    0    0  0.39685761331E+02  0.34302317123E+02  0.12673256887E+02  0.53964989137E+02  0.00000000000E+00 0.  1.
        -11    1    4    4    0    0 -0.20330436843E+02  0.21783523210E+02 -0.11605695377E+03  0.11982097089E+03  0.00000000000E+00 0. -1.
         11    1    4    4    0    0 -0.14724012604E+02 -0.47871538012E+02 -0.36877238367E+02  0.62196554634E+02  0.00000000000E+00 0.  1.
         21    1    1    2  502  501 -0.64854747797E+01  0.29891959152E+02 -0.46585743235E+01  0.30940150610E+02  0.00000000000E+00 0. -1.
<scales pt_clust_5="13000.00000" pt_clust_6="13000.00000" pt_clust_7="13000.00000" pt_clust_8="13000.00000" pt_clust_9="30.58743"></scales>
<clustering>
<clus scale="   30.587">  1  9  2 -1</clus>
<clus scale="   81.034">  5  6 -1 -1</clus>
<clus scale="   88.499">  7  8 -1 -1</clus>
<clus scale="   91.000">  1  5  2 -1</clus>
<clus scale="   97.706">  2  5  1 -1</clus>
</clustering>
</event>
<event>
 9    1  0.3846604E-005  0.1072210E+03  0.7546771E-02  0.1270612E+00
          1   -1    0    0  502    0  0.00000000000E+00  0.00000000000E+00  0.16204183895E+03  0.16204183895E+03  0.00000000000E+00 0. -1.
         -2   -1    0    0    0  501 -0.00000000000E+00 -0.00000000000E+00 -0.17501905408E+03  0.17501905408E+03  0.00000000000E+00 0.  1.
         23    2    1    2    0    0 -0.70845058734E+02  0.30452054938E+02 -0.10884518675E+03  0.16209445470E+03  0.92092277466E+02 0.  0.
        -24    2    1    2    0    0  0.40021182532E+02 -0.33556584831E+02  0.10526237486E+03  0.14259354439E+03  0.80777545786E+02 0.  0.
         11    1    4    4    0    0 -0.11014469308E+02 -0.22051146132E+02  0.81477106172E+02  0.85123970831E+02  0.00000000000E+00 0. -1.
        -12    1    4    4    0    0  0.51035651840E+02 -0.11505438699E+02  0.23785268691E+02  0.57469573559E+02  0.00000000000E+00 0.  1.
        -13    1    3    3    0    0 -0.35318899265E+02  0.47480279177E+02 -0.10745714324E+03  0.12267371026E+03  0.00000000000E+00 0.  1.
         13    1    3    3    0    0 -0.35526159470E+02 -0.17028224239E+02 -0.13880435116E+01  0.39420744440E+02  0.00000000000E+00 0. -1.
         21    1    1    2  502  501  0.30823876203E+02  0.31045298924E+01 -0.93944032382E+01  0.32372893942E+02  0.00000000000E+00 0. -1.
<scales pt_clust_5="13000.00000" pt_clust_6="13000.00000" pt_clust_7="13000.00000" pt_clust_8="13000.00000" pt_clust_9="30.97982"></scales>
<clustering>
<clus scale="   30.980">  2  9  1 -1</clus>
<clus scale="   80.778">  5  6 -1 -1</clus>
<clus scale="   92.092">  7  8 -1 -1</clus>
<clus scale="   97.675">  1  5  2 -1</clus>
<clus scale="   97.675">  1  5  2 -1</clus>
</clustering>
</event>
<event>
 9    1  0.3846604E-005  0.8739645E+02  0.7546771E-02  0.1315045E+00
          1   -1    0    0  502    0  0.00000000000E+00  0.00000000000E+00  0.13129436773E+03  0.13129436773E+03  0.00000000000E+00 0. -1.
         -2   -1    0    0    0  501 -0.00000000000E+00 -0.00000000000E+00 -0.12042179525E+03  0.12042179525E+03  0.00000000000E+00 0.  1.
         23    2    1    2    0    0  0.23969509617E+02 -0.27170509063E+02 -0.58750339061E+02  0.11055903301E+03  0.86365059402E+02 0.  0.
        -24    2    1    2    0    0 -0.83856394203E+01  0.41817629095E+01  0.79682743457E+02  0.11161834737E+03  0.77598387704E+02 0.  0.
         13    1    4    4    0    0 -0.37111164458E+02 -0.17746879332E+02  0.33993140703E+02  0.53364069076E+02  0.00000000000E+00 0. -1.
        -14    1    4    4    0    0  0.28725525038E+02  0.21928642242E+02  0.45689602754E+02  0.58254278290E+02  0.00000000000E+00 0.  1.
        -13    1    3    3    0    0  0.49439446286E+02 -0.27941763615E+02 -0.62898385263E+02  0.84742007716E+02  0.00000000000E+00 0.  1.
         13    1    3    3    0    0 -0.25469936670E+02  0.77125455197E+00  0.41480462021E+01  0.25817025290E+02  0.00000000000E+00 0. -1.
         21    1    1    2  502  501 -0.15583870196E+02  0.22988746154E+02 -0.10059831914E+02  0.29538782611E+02  0.00000000000E+00 0.  1.
<scales pt_clust_5="13000.00000" pt_clust_6="13000.00000" pt_clust_7="13000.00000" pt_clust_8="13000.00000" pt_clust_9="27.77300"></scales>
<clustering>
<clus scale="   27.773">  2  9  1 -1</clus>
<clus scale="   77.598">  5  6 -1 -1</clus>
<clus scale="   78.745">  1  5  2 -1</clus>
<clus scale="   86.365">  7  8 -1 -1</clus>
<clus scale="   78.745">  1  5  2 -1</clus>
</clustering>
</event>
<event>
 9    1  0.3846604E-005  0.1026948E+03  0.7546771E-02  0.1283472E+00
         -4   -1    0    0    0  501 -0.00000000000E+00  0.00000000000E+00  0.13839626157E+03  0.13839626157E+03  0.00000000000E+00 0.  1.
          3   -1    0    0  502    0  0.00000000000E+00 -0.00000000000E+00 -0.22811258137E+03  0.22811258137E+03  0.00000000000E+00 0. -1.
         23    2    1    2    0    0  0.12435454571E+02 -0.13543822512E+01  0.74623738434E+02  0.12210286714E+03  0.95832838545E+02 0.  0.
        -24    2    1    2    0    0 -0.39246778995E+02  0.25574240963E+01 -0.18867152785E+03  0.20818008946E+03  0.78709301536E+02 0.  0.
         13    1    4    4    0    0 -0.62876715495E+02  0.88228306536E+01 -0.13930346532E+03  0.15309075460E+03  0.00000000000E+00 0. -1.
        -14    1    4    4    0    0  0.23629936500E+02 -0.62654065573E+01 -0.49368062524E+02  0.55089334864E+02  0.00000000000E+00 0.  1.
        -13    1    3    3    0    0  0.34813065926E+01  0.38645399022E+02  0.21755139635E+01  0.38862825710E+02  0.00000000000E+00 0. -1.
         13    1    3    3    0    0  0.89541479787E+01 -0.39999781273E+02  0.72448224470E+02  0.83240041427E+02  0.00000000000E+00 0.  1.
         21    1    1    2  502  501  0.26811324424E+02 -0.12030418451E+01  0.24331469616E+02  0.36225886335E+02  0.00000000000E+00 0.  1.
<scales pt_clust_5="13000.00000" pt_clust_6="13000.00000" pt_clust_7="13000.00000" pt_clust_8="13000.00000" pt_clust_9="26.83830"></scales>
<clustering>
<clus scale="   26.838">  1  9  2 -1</clus>
<clus scale="   78.709">  5  6 -1 -1</clus>
<clus scale="   86.934">  2  5  1 -1</clus>
<clus scale="   95.833">  7  8 -1 -1</clus>
<clus scale="   86.934">  2  5  1 -1</clus>
</clustering>
</event>
<event>
 9    1  0.3846604E-005  0.2224921E+03  0.7546771E-02  0.1132886E+00
         -2   -1    0    0    0  501 -0.00000000000E+00  0.00000000000E+00  0.10447485629E+03  0.10447485629E+03  0.00000000000E+00 0.  1.
          1   -1    0    0  502    0  0.00000000000E+00 -0.00000000000E+00 -0.11479474376E+04  0.11479474376E+04  0.00000000000E+00 0. -1.
         23    2    1    2    0    0  0.21899124428E+03  0.60908175869E+02 -0.24781493391E+03  0.34862096710E+03  0.91963940064E+02 0.  0.
        -24    2    1    2    0    0 -0.19012650731E+03 -0.47982134311E+02 -0.83028990388E+03  0.85690091338E+03  0.80296182188E+02 0.  0.
         11    1    4    4    0    0 -0.14317714998E+03 -0.70429639634E+02 -0.60622944246E+03  0.62687651681E+03  0.00000000000E+00 0. -1.
        -12    1    4    4    0    0 -0.46949357332E+02  0.22447505323E+02 -0.22406046141E+03  0.23002439657E+03  0.00000000000E+00 0.  1.
        -11    1    3    3    0    0  0.75806448481E+02  0.60440962088E+02 -0.13564065320E+03  0.16672766516E+03  0.00000000000E+00 0. -1.
         11    1    3    3    0    0  0.14318479579E+03  0.46721378082E+00 -0.11217428071E+03  0.18189330193E+03  0.00000000000E+00 0.  1.
         21    1    1    2  502  501 -0.28864736962E+02 -0.12926041558E+02  0.34632256481E+02  0.46900413423E+02  0.00000000000E+00 0. -1.
<scales pt_clust_5="13000.00000" pt_clust_6="13000.00000" pt_clust_7="13000.00000" pt_clust_8="13000.00000" pt_clust_9="31.62682"></scales>
<clustering>
<clus scale="   31.627">  1  9  2 -1</clus>
<clus scale="   80.296">  5  6 -1 -1</clus>
<clus scale="   91.964">  7  8 -1 -1</clus>
<clus scale="  217.929">  2  5  1 -1</clus>
<clus scale="  217.929">  2  5  1 -1</clus>
</clustering>
</event>
<event>
 9    1  0.3846604E-005  0.1473344E+03  0.7546771E-02  0.1223288E+00
          1   -1    0    0  502    0  0.00000000000E+00  0.00000000000E+00  0.20867433059E+03  0.20867433059E+03  0.00000000000E+00 0. -1.
         -2   -1    0    0    0  501 -0.00000000000E+00 -0.00000000000E+00 -0.18037560176E+03  0.18037560176E+03  0.00000000000E+00 0.  1.
        -24    2    1    2    0    0  0.10813394557E+03 -0.34516915605E+02 -0.36828075572E+01  0.13931883878E+03  0.80695775105E+02 0.  0.
         23    2    1    2    0    0  0.24075199548E+02  0.25198096837E+02  0.59827844075E+02  0.11430024299E+03  0.90942923328E+02 0.  0.
         11    1    3    3    0    0  0.41880403871E+02 -0.47163641598E+02 -0.26071654777E+02  0.68250336996E+02  0.00000000000E+00 0. -1.
        -12    1    3    3    0    0  0.66253541699E+02  0.12646725993E+02  0.22388847219E+02  0.71068501784E+02  0.00000000000E+00 0.  1.
        -13    1    4    4    0    0 -0.13670198900E+02  0.41778956382E+02  0.58339203235E+02  0.73046684856E+02  0.00000000000E+00 0. -1.
         13    1    4    4    0    0  0.37745398447E+02 -0.16580859544E+02  0.14886408396E+01  0.41253558134E+02  0.00000000000E+00 0.  1.
         21    1    1    2  502  501 -0.13220914512E+03  0.93188187679E+01 -0.27846307695E+02  0.13543085058E+03  0.00000000000E+00 0. -1.
<scales pt_clust_5="13000.00000" pt_clust_6="13000.00000" pt_clust_7="13000.00000" pt_clust_8="13000.00000" pt_clust_9="123.27048"></scales>
<clustering>
<clus scale="   80.696">  5  6 -1 -1</clus>
<clus scale="   90.943">  7  8 -1 -1</clus>
<clus scale="   97.392">  1  7  2 -1</clus>
<clus scale="  123.270">  2  9  1 -1</clus>
<clus scale="   97.392">  1  5  2 -1</clus>
</clustering>
</event>
<event>
 9    1  0.3846604E-005  0.1300409E+03  0.7546771E-02  0.1230184E+00
         -2   -1    0    0    0  501 -0.00000000000E+00  0.00000000000E+00  0.26134772799E+03  0.26134772799E+03  0.00000000000E+00 0.  1.
          1   -1    0    0  502    0  0.00000000000E+00 -0.00000000000E+00 -0.17909570740E+03  0.17909570740E+03  0.00000000000E+00 0. -1.
        -24    2    1    2    0    0  0.54868210003E+02 -0.74339901510E+02  0.17508908369E+03  0.21343257931E+03  0.79751722597E+02 0.  0.
         23    2    1    2    0    0 -0.35361174052E+01  0.95665434019E+02 -0.10687828488E+03  0.16967920709E+03  0.90574202442E+02 0.  0.
         13    1    3    3    0    0  0.18511579593E+02 -0.56395114655E+02  0.38009178582E+02  0.70482516928E+02  0.00000000000E+00 0. -1.
        -14    1    3    3    0    0  0.36356630409E+02 -0.17944786855E+02  0.13707990511E+03  0.14295006238E+03  0.00000000000E+00 0.  1.
        -13    1    4    4    0    0 -0.46486316147E+02  0.39041769023E+02 -0.50364068301E+02  0.78878239668E+02  0.00000000000E+00 0. -1.
         13    1    4    4    0    0  0.42950198741E+02  0.56623664996E+02 -0.56514216580E+02  0.90800967424E+02  0.00000000000E+00 0.  1.
         21    1    1    2  502  501 -0.51332092597E+02 -0.21325532509E+02  0.14041221776E+02  0.57331648992E+02  0.00000000000E+00 0. -1.
<scales pt_clust_5="13000.00000" pt_clust_6="13000.00000" pt_clust_7="13000.00000" pt_clust_8="13000.00000" pt_clust_9="55.58563"></scales>
<clustering>
<clus scale="   55.586">  1  9  2 -1</clus>
<clus scale="   79.752">  5  6 -1 -1</clus>
<clus scale="   90.574">  7  8 -1 -1</clus>
<clus scale="  122.749">  1  5  2 -1</clus>
<clus scale="  130.041">  2  5  1 -1</clus>
</clustering>
</event>
<event>
 9    1  0.3846604E-005  0.1211550E+03  0.7546771E-02  0.1256052E+00
         -2   -1    0    0    0  501 -0.00000000000E+00  0.00000000000E+00  0.13148691282E+03  0.13148691282E+03  0.00000000000E+00 0.  1.
          1   -1    0    0  502    0  0.00000000000E+00 -0.00000000000E+00 -0.25292616390E+03  0.25292616390E+03  0.00000000000E+00 0. -1.
         23    2    1    2    0    0  0.43814034209E+02  0.46107454882E+02  0.84456852286E+01  0.11076445271E+03  0.90287692388E+02 0.  0.
        -24    2    1    2    0    0  0.38622977729E+02  0.74928557322E+00 -0.15166549428E+03  0.17635624112E+03  0.81282259997E+02 0.  0.
         13    1    4    4    0    0  0.18834550907E+02  0.26130742894E+02 -0.14250382606E+02  0.35222569987E+02  0.00000000000E+00 0. -1.
        -14    1    4    4    0    0  0.19788426821E+02 -0.25381457321E+02 -0.13741511167E+03  0.14113367113E+03  0.00000000000E+00 0.  1.
        -11    1    3    3    0    0  0.55588140210E+01  0.30323680151E+02  0.45670753920E+02  0.55102121147E+02  0.00000000000E+00 0.  1.
         11    1    3    3    0    0  0.38255220188E+02  0.15783774731E+02 -0.37225068692E+02  0.55662331567E+02  0.00000000000E+00 0. -1.
         21    1    1    2  502  501 -0.82437011938E+02 -0.46856740455E+02  0.21780557969E+02  0.97292382892E+02  0.00000000000E+00 0. -1.
<scales pt_clust_5="13000.00000" pt_clust_6="13000.00000" pt_clust_7="13000.00000" pt_clust_8="13000.00000" pt_clust_9="80.78783"></scales>
<clustering>
<clus scale="   81.282">  5  6 -1 -1</clus>
<clus scale="   89.995">  2  5  1 -1</clus>
<clus scale="   80.788">  2  9  1 -1</clus>
<clus scale="   90.288">  7  8 -1 -1</clus>
<clus scale="   89.995">  2  5  1 -1</clus>
</clustering>
</event>
<event>
 9    1  0.3846604E-005  0.1059390E+03  0.7546771E-02  0.1272571E+00
         -2   -1    0    0    0  501 -0.00000000000E+00  0.00000000000E+00  0.24911210057E+03  0.24911210057E+03  0.00000000000E+00 0.  1.
          1   -1    0    0  502    0  0.00000000000E+00 -0.00000000000E+00 -0.12329700273E+03  0.12329700273E+03  0.00000000000E+00 0. -1.
        -24    2    1    2    0    0 -0.18936166462E+02 -0.21639125514E+02  0.12787024770E+03  0.15492215370E+03  0.82602925534E+02 0.  0.
         23    2    1    2    0    0  0.57502910114E+02  0.63865701982E+01 -0.75867440643E+02  0.13282120428E+03  0.92402547613E+02 0.  0.
         13    1    3    3    0    0  0.24857951062E+02 -0.10544808255E+02  0.10177629365E+02  0.28856452513E+02  0.00000000000E+00 0. -1.
        -14    1    3    3    0    0 -0.43794117525E+02 -0.11094317259E+02  0.11769261833E+03  0.12606570118E+03  0.00000000000E+00 0.  1.
        -13    1    4    4    0    0  0.13303542954E+02  0.46938727598E+02 -0.38515244430E+02  0.62158285507E+02  0.00000000000E+00 0. -1.
         13    1    4    4    0    0  0.44199367160E+02 -0.40552157400E+02 -0.37352196213E+02  0.70662918770E+02  0.00000000000E+00 0.  1.
         21    1    1    2  502  501 -0.38566743652E+02  0.15252555316E+02  0.73812290787E+02  0.84665745322E+02  0.00000000000E+00 0.  1.
<scales pt_clust_5="13000.00000" pt_clust_6="13000.00000" pt_clust_7="13000.00000" pt_clust_8="13000.00000" pt_clust_9="41.47329"></scales>
<clustering>
<clus scale="   41.473">  1  9  2 -1</clus>
<clus scale="   82.603">  5  6 -1 -1</clus>
<clus scale="   92.403">  7  8 -1 -1</clus>
<clus scale="   97.509">  1  5  2 -1</clus>
<clus scale="  105.939">  2  5  1 -1</clus>
</clustering>
</event>
<event>
 9    1  0.3846604E-005  0.8713567E+02  0.7546771E-02  0.1315113E+00
          1   -1    0    0  502    0  0.00000000000E+00  0.00000000000E+00  0.55382963848E+03  0.55382963848E+03  0.00000000000E+00 0. -1.
         -2   -1    0    0    0  501 -0.00000000000E+00 -0.00000000000E+00 -0.30386031480E+02  0.30386031480E+02  0.00000000000E+00 0.  1.
        -24    2    1    2    0    0  0.29204450647E+02  0.13773193935E+02  0.58884632555E+02  0.10070147404E+03  0.75038564184E+02 0.  0.
         23    2    1    2    0    0 -0.22962148927E+02  0.14299128578E+02  0.42874052274E+03  0.43757964351E+03  0.83221290629E+02 0.  0.
         13    1    3    3    0    0 -0.17268385063E+02  0.20747078715E+02  0.43610118880E+02  0.51288213720E+02  0.00000000000E+00 0. -1.
        -14    1    3    3    0    0  0.46472835710E+02 -0.69738847798E+01  0.15274513675E+02  0.49413260324E+02  0.00000000000E+00 0.  1.
        -11    1    4    4    0    0 -0.41203621377E+02  0.38475314840E+02  0.24868088299E+03  0.25499072499E+03  0.00000000000E+00 0. -1.
         11    1    4    4    0    0  0.18241472450E+02 -0.24176186262E+02  0.18005963975E+03  0.18258891852E+03  0.00000000000E+00 0.  1.
         21    1    1    2  502  501 -0.62423017203E+01 -0.28072322513E+02  0.35818451705E+02  0.45934552405E+02  0.00000000000E+00 0. -1.
<scales pt_clust_5="13000.00000" pt_clust_6="13000.00000" pt_clust_7="13000.00000" pt_clust_8="13000.00000" pt_clust_9="28.75798"></scales>
<clustering>
<clus scale="   28.758">  2  9  1 -1</clus>
<clus scale="   75.039">  5  6 -1 -1</clus>
<clus scale="   79.358">  2  5  1 -1</clus>
<clus scale="   83.221">  7  8 -1 -1</clus>
<clus scale="   87.136">  1  5  2 -1</clus>
</clustering>
</event>
<event>
 9    1  0.3846604E-005  0.2037643E+03  0.7546771E-02  0.1147536E+00
          1   -1    0    0  502    0  0.00000000000E+00  0.00000000000E+00  0.24050772961E+03  0.24050772961E+03  0.00000000000E+00 0. -1.
         -2   -1    0    0    0  501 -0.00000000000E+00 -0.00000000000E+00 -0.39971385854E+03  0.39971385854E+03  0.00000000000E+00 0.  1.
        -24    2    1    2    0    0 -0.11564024489E+03 -0.17800422776E+03 -0.24585987556E+03  0.33469483788E+03  0.80717933312E+02 0.  0.
         23    2    1    2    0    0 -0.97675713050E+01  0.12624511950E+03  0.60368746023E+02  0.16733475735E+03  0.91232120838E+02 0.  0.
         13    1    3    3    0    0 -0.31384426042E+02 -0.44243286854E+02 -0.17581829163E+02  0.57022551208E+02  0.00000000000E+00 0. -1.
        -14    1    3    3    0    0 -0.84255818851E+02 -0.13376094091E+03 -0.22827804639E+03  0.27767228667E+03  0.00000000000E+00 0.  1.
        -13    1    4    4    0    0  0.23053440541E+02  0.15784685252E+02 -0.12907112277E+02  0.30776792500E+02  0.00000000000E+00 0. -1.
         13    1    4    4    0    0 -0.32821011846E+02  0.11046043425E+03  0.73275858301E+02  0.13655796485E+03  0.00000000000E+00 0.  1.
         21    1    1    2  502  501  0.12540781620E+03  0.51759108256E+02  0.26285000609E+02  0.13819199292E+03  0.00000000000E+00 0. -1.
<scales pt_clust_5="13000.00000" pt_clust_6="13000.00000" pt_clust_7="13000.00000" pt_clust_8="13000.00000" pt_clust_9="135.66918"></scales>
<clustering>
<clus scale="   80.718">  5  6 -1 -1</clus>
<clus scale="   91.232">  7  8 -1 -1</clus>
<clus scale="  135.669">  1  9  2 -1</clus>
<clus scale="  199.279">  2  5  1 -1</clus>
<clus scale="  135.669">  1  5  2 -1</clus>
</clustering>
</event>
<event>
 9    1  0.3846604E-005  0.1449573E+03  0.7546771E-02  0.1207336E+00
          1   -1    0    0  502    0  0.00000000000E+00  0.00000000000E+00  0.62954965244E+03  0.62954965244E+03  0.00000000000E+00 0. -1.
         -2   -1    0    0    0  501 -0.00000000000E+00 -0.00000000000E+00 -0.49487958555E+02  0.49487958555E+02  0.00000000000E+00 0.  1.
         23    2    1    2    0    0 -0.41998872295E+02  0.10319838945E+03  0.11939586909E+03  0.18690947653E+03  0.90917358086E+02 0.  0.
        -24    2    1    2    0    0  0.18237127025E+02 -0.10980398762E+03  0.42138627215E+03  0.44574777524E+03  0.93462186370E+02 0.  0.
         11    1    4    4    0    0  0.48434965849E+02 -0.88273880411E+02  0.23426964339E+03  0.25499115611E+03  0.00000000000E+00 0. -1.
        -12    1    4    4    0    0 -0.30197838824E+02 -0.21530107206E+02  0.18711662876E+03  0.19075661914E+03  0.00000000000E+00 0.  1.
        -13    1    3    3    0    0  0.21097042160E+02  0.21742282797E+01  0.50590829484E+01  0.21803824820E+02  0.00000000000E+00 0.  1.
         13    1    3    3    0    0 -0.63095914455E+02  0.10102416117E+03  0.11433678614E+03  0.16510565171E+03  0.00000000000E+00 0. -1.
         21    1    1    2  502  501  0.23761745270E+02  0.66055981646E+01  0.39279552650E+02  0.46380359224E+02  0.00000000000E+00 0. -1.
<scales pt_clust_5="13000.00000" pt_clust_6="13000.00000" pt_clust_7="13000.00000" pt_clust_8="13000.00000" pt_clust_9="24.66282"></scales>
<clustering>
<clus scale="   24.663">  2  9  1 -1</clus>
<clus scale="   90.917">  7  8 -1 -1</clus>
<clus scale="   93.462">  5  6 -1 -1</clus>
<clus scale="  143.330">  2  7  1 -1</clus>
<clus scale="  144.957">  1  5  2 -1</clus>
</clustering>
</event>
<event>
 9    1  0.3846604E-005  0.1218168E+03  0.7546771E-02  0.1245411E+00
         -2   -1    0    0    0  501 -0.00000000000E+00  0.00000000000E+00  0.70895188046E+02  0.70895188046E+02  0.00000000000E+00 0.  1.
          1   -1    0    0  502    0  0.00000000000E+00 -0.00000000000E+00 -0.30278145479E+03  0.30278145479E+03  0.00000000000E+00 0. -1.
        -24    2    1    2    0    0  0.65821748937E+02 -0.17835708160E+02 -0.27156955088E+02  0.10836708819E+03  0.79720201172E+02 0.  0.
         23    2    1    2    0    0 -0.65636823808E+02  0.44187555810E+02 -0.20402557965E+03  0.23894766339E+03  0.95962575828E+02 0.  0.
         11    1    3    3    0    0 -0.12907404604E+02 -0.21601240953E+02 -0.52172554145E+00  0.25169165697E+02  0.00000000000E+00 0. -1.
        -12    1    3    3    0    0  0.78729153541E+02  0.37655327938E+01 -0.26635229546E+02  0.83197922495E+02  0.00000000000E+00 0.  1.
        -13    1    4    4    0    0 -0.80560560245E+02  0.26536963371E+02 -0.19748012113E+03  0.21492466712E+03  0.00000000000E+00 0. -1.
         13    1    4    4    0    0  0.14923736438E+02  0.17650592440E+02 -0.65454585159E+01  0.24022996273E+02  0.00000000000E+00 0.  1.
         21    1    1    2  502  501 -0.18492512970E+00 -0.26351847651E+02 -0.70373200717E+00  0.26361891257E+02  0.00000000000E+00 0.  1.
<scales pt_clust_5="13000.00000" pt_clust_6="13000.00000" pt_clust_7="13000.00000" pt_clust_8="13000.00000" pt_clust_9="26.35250"></scales>
<clustering>
<clus scale="   26.352">  1  9  2 -1</clus>
<clus scale="   79.720">  5  6 -1 -1</clus>
<clus scale="   95.963">  7  8 -1 -1</clus>
<clus scale="  109.480">  1  5  2 -1</clus>
<clus scale="  121.817">  2  5  1 -1</clus>
</clustering>
</event>
<event>
 9    1  0.3846604E-005  0.1456209E+03  0.7546771E-02  0.1208310E+00
          1   -1    0    0  502    0  0.00000000000E+00  0.00000000000E+00  0.23265947525E+03  0.23265947525E+03  0.00000000000E+00 0. -1.
         -2   -1    0    0    0  501 -0.00000000000E+00 -0.00000000000E+00 -0.16664362941E+03  0.16664362941E+03  0.00000000000E+00 0.  1.
        -24    2    1    2    0    0 -0.71229405088E+02 -0.13912094762E+00 -0.36485000878E+02  0.11191959596E+03  0.78238054467E+02 0.  0.
         23    2    1    2    0    0  0.13346714404E+03 -0.39364348590E+02  0.12784272702E+03  0.20943306834E+03  0.90307346228E+02 0.  0.
         13    1    3    3    0    0 -0.32715410250E+02 -0.35662789985E+02 -0.57387672844E+00  0.48398987509E+02  0.00000000000E+00 0. -1.
        -14    1    3    3    0    0 -0.38513994838E+02  0.35523669038E+02 -0.35911124149E+02  0.63520608450E+02  0.00000000000E+00 0.  1.
        -11    1    4    4    0    0  0.11312254929E+03 -0.47059065266E+02  0.56634314279E+02  0.13497671035E+03  0.00000000000E+00 0.  1.
         11    1    4    4    0    0  0.20344594748E+02  0.76947166754E+01  0.71208412738E+02  0.74456357988E+02  0.00000000000E+00 0. -1.
         21    1    1    2  502  501 -0.62237738954E+02  0.39503469538E+02 -0.25341880301E+02  0.77950440363E+02  0.00000000000E+00 0.  1.
<scales pt_clust_5="13000.00000" pt_clust_6="13000.00000" pt_clust_7="13000.00000" pt_clust_8="13000.00000" pt_clust_9="73.71608"></scales>
<clustering>
<clus scale="   73.716">  2  9  1 -1</clus>
<clus scale="   78.238">  5  6 -1 -1</clus>
<clus scale="   90.307">  7  8 -1 -1</clus>
<clus scale="  138.460">  2  5  1 -1</clus>
<clus scale="  145.621">  1  5  2 -1</clus>
</clustering>
</event>
<event>
 9    1  0.3846604E-005  0.1034358E+03  0.7546771E-02  0.1277526E+00
         -2   -1    0    0    0  501 -0.00000000000E+00  0.00000000000E+00  0.16759411835E+02  0.16759411835E+02  0.00000000000E+00 0.  1.
          1   -1    0    0  502    0  0.00000000000E+00 -0.00000000000E+00 -0.80043223911E+03  0.80043223911E+03  0.00000000000E+00 0. -1.
        -24    2    1    2    0    0 -0.15305435870E+02  0.33797024775E+02 -0.19476879105E+03  0.21452686875E+03  0.81917032401E+02 0.  0.
         23    2    1    2    0    0  0.12446987177E+02 -0.53800143826E+02 -0.52125003614E+03  0.53205770586E+03  0.91293040407E+02 0.  0.
         13    1    3    3    0    0  0.25377906564E+02  0.16547630175E+02 -0.25544019855E+02  0.39627757397E+02  0.00000000000E+00 0. -1.
        -14    1    3    3    0    0 -0.40683342434E+02  0.17249394600E+02 -0.16922477120E+03  0.17489911135E+03  0.00000000000E+00 0.  1.
        -13    1    4    4    0    0  0.50547483220E+02 -0.44740561223E+02 -0.32392947863E+03  0.33088830896E+03  0.00000000000E+00 0. -1.
         13    1    4    4    0    0 -0.38100496044E+02 -0.90595826027E+01 -0.19732055751E+03  0.20116939691E+03  0.00000000000E+00 0.  1.
         21    1    1    2  502  501  0.28584486932E+01  0.20003119051E+02 -0.67654000086E+02  0.70607076333E+02  0.00000000000E+00 0.  1.
<scales pt_clust_5="13000.00000" pt_clust_6="13000.00000" pt_clust_7="13000.00000" pt_clust_8="13000.00000" pt_clust_9="20.20632"></scales>
<clustering>
<clus scale="   20.206">  1  9  2 -1</clus>
<clus scale="   81.917">  5  6 -1 -1</clus>
<clus scale="   91.293">  7  8 -1 -1</clus>
<clus scale="   95.263">  1  5  2 -1</clus>
<clus scale="  103.436">  2  5  1 -1</clus>
</clustering>
</event>
<event>
 9    1  0.3846604E-005  0.1198073E+03  0.7546771E-02  0.1243572E+00
         -4   -1    0    0    0  501 -0.00000000000E+00  0.00000000000E+00  0.34269423958E+03  0.34269423958E+03  0.00000000000E+00 0.  1.
          3   -1    0    0  502    0  0.00000000000E+00 -0.00000000000E+00 -0.12547070077E+03  0.12547070077E+03  0.00000000000E+00 0. -1.
         23    2    1    2    0    0 -0.55887785563E+02 -0.36162347610E+02  0.20387398508E+03  0.22864449362E+03  0.79262492469E+02 0.  0.
        -24    2    1    2    0    0  0.53196919183E+02  0.77913703051E+02 -0.73471620660E+02  0.14314444988E+03  0.78687973391E+02 0.  0.
         13    1    4    4    0    0  0.57084331954E+02  0.90141497025E+02 -0.53377621642E+02  0.11930331484E+03  0.00000000000E+00 0. -1.
        -14    1    4    4    0    0 -0.38874127702E+01 -0.12227793973E+02 -0.20093999018E+02  0.23841135041E+02  0.00000000000E+00 0.  1.
        -13    1    3    3    0    0 -0.25171122670E+02 -0.39687602169E+02  0.18820188682E+03  0.19398103357E+03  0.00000000000E+00 0.  1.
         13    1    3    3    0    0 -0.30716662894E+02  0.35252545591E+01  0.15672098259E+02  0.34663460053E+02  0.00000000000E+00 0. -1.
         21    1    1    2  502  501  0.26908663799E+01 -0.41751355441E+02  0.86821174395E+02  0.96375996838E+02  0.00000000000E+00 0.  1.
<scales pt_clust_5="13000.00000" pt_clust_6="13000.00000" pt_clust_7="13000.00000" pt_clust_8="13000.00000" pt_clust_9="41.83798"></scales>
<clustering>
<clus scale="   41.838">  1  9  2 -1</clus>
<clus scale="   78.688">  5  6 -1 -1</clus>
<clus scale="   79.262">  7  8 -1 -1</clus>
<clus scale="  119.428">  2  5  1 -1</clus>
<clus scale="  119.428">  2  5  1 -1</clus>
</clustering>
</event>
<event>
 9    1  0.3846604E-005  0.1204977E+03  0.7546771E-02  0.1245973E+00
         -2   -1    0    0    0  501 -0.00000000000E+00  0.00000000000E+00  0.70304348016E+02  0.70304348016E+02  0.00000000000E+00 0.  1.
          1   -1    0    0  502    0  0.00000000000E+00 -0.00000000000E+00 -0.28497416507E+03  0.28497416507E+03  0.00000000000E+00 0. -1.
        -24    2    1    2    0    0 -0.26951214531E+02 -0.67281219364E+02 -0.24525608448E+02  0.11387772968E+03  0.84341575768E+02 0.  0.
         23    2    1    2    0    0  0.48250582221E+01  0.78668843524E+02 -0.15865203305E+03  0.20126349528E+03  0.95522033126E+02 0.  0.
         11    1    3    3    0    0  0.26930440064E+02 -0.50510396881E+01  0.17892975819E+01  0.27458390154E+02  0.00000000000E+00 0. -1.
        -12    1    3    3    0    0 -0.53881654596E+02 -0.62230179676E+02 -0.26314906030E+02  0.86419339524E+02  0.00000000000E+00 0.  1.
        -13    1    4    4    0    0 -0.31507612158E+02  0.72641161660E+02 -0.13783272532E+03  0.15895700098E+03  0.00000000000E+00 0. -1.
         13    1    4    4    0    0  0.36332670380E+02  0.60276818634E+01 -0.20819307732E+02  0.42306494301E+02  0.00000000000E+00 0.  1.
         21    1    1    2  502  501  0.22126156309E+02 -0.11387624160E+02 -0.31492175551E+02  0.40137288124E+02  0.00000000000E+00 0.  1.
<scales pt_clust_5="13000.00000" pt_clust_6="13000.00000" pt_clust_7="13000.00000" pt_clust_8="13000.00000" pt_clust_9="24.88463"></scales>
<clustering>
<clus scale="   24.885">  2  9  1 -1</clus>
<clus scale="   84.342">  5  6 -1 -1</clus>
<clus scale="   95.522">  7  8 -1 -1</clus>
<clus scale="  111.843">  1  5  2 -1</clus>
<clus scale="   24.885">  2  5  1 -1</clus>
</clustering>
</event>
<event>
 9    1  0.3846604E-005  0.8818669E+02  0.7546771E-02  0.1313008E+00
          1   -1    0    0  502    0  0.00000000000E+00  0.00000000000E+00  0.16376768962E+03  0.16376768962E+03  0.00000000000E+00 0. -1.
         -2   -1    0    0    0  501 -0.00000000000E+00 -0.00000000000E+00 -0.84863855838E+02  0.84863855838E+02  0.00000000000E+00 0.  1.
        -24    2    1    2    0    0 -0.15289454917E+02  0.15018967419E+02 -0.20732465624E+02  0.84199051262E+02  0.78742036351E+02 0.  0.
         23    2    1    2    0    0  0.98072226003E+01  0.50645729819E+01  0.11015789104E+03  0.14110638529E+03  0.87489539360E+02 0.  0.
         11    1    3    3    0    0 -0.34303524536E+02  0.37910710948E+02 -0.18446891942E+02  0.54352935730E+02  0.00000000000E+00 0. -1.
        -12    1    3    3    0    0  0.19014069619E+02 -0.22891743530E+02 -0.22855736829E+01  0.29846115532E+02  0.00000000000E+00 0.  1.
        -13    1    4    4    0    0  0.43704629549E+02  0.13550748983E+02  0.33033646982E+02  0.56435266235E+02  0.00000000000E+00 0.  1.
         13    1    4    4    0    0 -0.33897406949E+02 -0.84861760015E+01  0.77124244059E+02  0.84671119059E+02  0.00000000000E+00 0. -1.
         21    1    1    2  502  501  0.54822323162E+01 -0.20083540400E+02 -0.10521591631E+02  0.23326108905E+02  0.00000000000E+00 0.  1.
<scales pt_clust_5="13000.00000" pt_clust_6="13000.00000" pt_clust_7="13000.00000" pt_clust_8="13000.00000" pt_clust_9="20.81834"></scales>
<clustering>
<clus scale="   20.818">  2  9  1 -1</clus>
<clus scale="   78.742">  5  6 -1 -1</clus>
<clus scale="   79.516">  2  5  1 -1</clus>
<clus scale="   87.490">  7  8 -1 -1</clus>
<clus scale="   88.187">  1  5  2 -1</clus>
</clustering>
</event>
<event>
 9    1  0.3846604E-005  0.1407934E+03  0.7546771E-02  0.1233408E+00
          1   -1    0    0  502    0  0.00000000000E+00  0.00000000000E+00  0.19288215315E+03  0.19288215315E+03  0.00000000000E+00 0. -1.
         -2   -1    0    0    0  501 -0.00000000000E+00 -0.00000000000E+00 -0.27971377749E+03  0.27971377749E+03  0.00000000000E+00 0.  1.
        -24    2    1    2    0    0  0.41308980796E+02 -0.10608069414E+02 -0.15691926882E+03  0.18115018191E+03  0.79829621374E+02 0.  0.
         23    2    1    2    0    0 -0.85121914988E+02 -0.77501990573E+02  0.11229224768E+03  0.18437481708E+03  0.90178851899E+02 0.  0.
         11    1    3    3    0    0  0.17639687640E+02 -0.44479598131E+02 -0.68567751209E+02  0.83612975881E+02  0.00000000000E+00 0. -1.
        -12    1    3    3    0    0  0.23669293156E+02  0.33871528716E+02 -0.88351517612E+02  0.97537206032E+02  0.00000000000E+00 0.  1.
        -11    1    4    4    0    0 -0.71900608123E+02 -0.42005417284E+02  0.11966305879E+03  0.14578545939E+03  0.00000000000E+00 0. -1.
         11    1    4    4    0    0 -0.13221306865E+02 -0.35496573290E+02 -0.73708111118E+01  0.38589357690E+02  0.00000000000E+00 0.  1.
         21    1    1    2  502  501  0.43812934192E+02  0.88110059988E+02 -0.42204603195E+02  0.10707093165E+03  0.00000000000E+00 0.  1.
<scales pt_clust_5="13000.00000" pt_clust_6="13000.00000" pt_clust_7="13000.00000" pt_clust_8="13000.00000" pt_clust_9="108.12283"></scales>
<clustering>
<clus scale="   79.830">  5  6 -1 -1</clus>
<clus scale="   90.179">  7  8 -1 -1</clus>
<clus scale="   90.508">  2  5  1 -1</clus>
<clus scale="  108.123">  2  9  1 -1</clus>
<clus scale="  140.793">  1  5  2 -1</clus>
</clustering>
</event>
<event>
 9    1  0.3846604E-005  0.1172178E+03  0.7546771E-02  0.1251101E+00
         -2   -1    0    0    0  501 -0.00000000000E+00  0.00000000000E+00  0.32734429155E+03  0.32734429155E+03  0.00000000000E+00 0.  1.
          1   -1    0    0  502    0  0.00000000000E+00 -0.00000000000E+00 -0.27603424235E+03  0.27603424235E+03  0.00000000000E+00 0. -1.
         23    2    1    2    0    0 -0.21629534548E+02  0.15952728986E+02  0.25040557574E+03  0.26779306317E+03  0.91037607584E+02 0.  0.
        -24    2    1    2    0    0  0.33348249409E+02 -0.68497447445E+02 -0.24226404256E+03  0.26657969930E+03  0.81048526907E+02 0.  0.
         13    1    4    4    0    0  0.52832902241E+02 -0.45963376456E+02 -0.21528760790E+03  0.22639059532E+03  0.00000000000E+00 0. -1.
        -14    1    4    4    0    0 -0.19484652832E+02 -0.22534070989E+02 -0.26976434660E+02  0.40189103975E+02  0.00000000000E+00 0.  1.
        -13    1    3    3    0    0  0.25135265473E+02  0.33164381227E+02  0.15053348778E+03  0.15617934785E+03  0.00000000000E+00 0.  1.
         13    1    3    3    0    0 -0.46764800021E+02 -0.17211652241E+02  0.99872087959E+02  0.11161371532E+03  0.00000000000E+00 0. -1.
         21    1    1    2  502  501 -0.11718714862E+02  0.52544718459E+02  0.43168516019E+02  0.69005771434E+02  0.00000000000E+00 0.  1.
<scales pt_clust_5="13000.00000" pt_clust_6="13000.00000" pt_clust_7="13000.00000" pt_clust_8="13000.00000" pt_clust_9="53.83564"></scales>
<clustering>
<clus scale="   53.836">  1  9  2 -1</clus>
<clus scale="   81.049">  5  6 -1 -1</clus>
<clus scale="   91.038">  7  8 -1 -1</clus>
<clus scale="  109.640">  2  5  1 -1</clus>
<clus scale="  109.640">  2  5  1 -1</clus>
</clustering>
</event>
<event>
 9    1  0.3846604E-005  0.1218233E+03  0.7546771E-02  0.1243720E+00
         -2   -1    0    0    0  501 -0.00000000000E+00  0.00000000000E+00  0.69992365740E+03  0.69992365740E+03  0.00000000000E+00 0.  1.
          1   -1    0    0  502    0  0.00000000000E+00 -0.00000000000E+00 -0.82376699637E+02  0.82376699637E+02  0.00000000000E+00 0. -1.
        -24    2    1    2    0    0 -0.95170577718E+02 -0.19653062114E+02  0.57974074918E+03  0.59314539303E+03  0.79236603271E+02 0.  0.
         23    2    1    2    0    0  0.69991932836E+02  0.38432904418E+02 -0.20588955865E+02  0.12284778592E+03  0.91058852386E+02 0.  0.
         11    1    3    3    0    0 -0.26132192445E+02  0.19265973875E+02  0.68574073327E+02  0.75871422578E+02  0.00000000000E+00 0. -1.
        -12    1    3    3    0    0 -0.69038385273E+02 -0.38919035989E+02  0.51116667585E+03  0.51727397045E+03  0.00000000000E+00 0.  1.
        -13    1    4    4    0    0 -0.40075678413E+01  0.43975143201E+02  0.48010189860E+01  0.44417604650E+02  0.00000000000E+00 0.  1.
         13    1    4    4    0    0  0.73999500677E+02 -0.55422387832E+01 -0.25389974851E+02  0.78430181271E+02  0.00000000000E+00 0. -1.
         21    1    1    2  502  501  0.25178644882E+02 -0.18779842304E+02  0.58395164451E+02  0.66307178090E+02  0.00000000000E+00 0.  1.
<scales pt_clust_5="13000.00000" pt_clust_6="13000.00000" pt_clust_7="13000.00000" pt_clust_8="13000.00000" pt_clust_9="31.41093"></scales>
<clustering>
<clus scale="   31.411">  1  9  2 -1</clus>
<clus scale="   79.237">  5  6 -1 -1</clus>
<clus scale="   91.059">  7  8 -1 -1</clus>
<clus scale="  113.259">  1  5  2 -1</clus>
<clus scale="  121.823">  2  5  1 -1</clus>
</clustering>
</event>
<event>
 9    1  0.3846604E-005  0.1252438E+03  0.7546771E-02  0.1238145E+00
         -2   -1    0    0    0  501 -0.00000000000E+00  0.00000000000E+00  0.22897109427E+03  0.22897109427E+03  0.00000000000E+00 0.  1.
          1   -1    0    0  502    0  0.00000000000E+00 -0.00000000000E+00 -0.13528149453E+03  0.13528149453E+03  0.00000000000E+00 0. -1.
        -24    2    1    2    0    0  0.28870978640E+02 -0.58336661310E+02  0.98413201354E+02  0.14228133125E+03  0.79511757374E+02 0.  0.
         23    2    1    2    0    0 -0.60473219082E+02  0.70028250726E+02 -0.70511021492E+02  0.14805658054E+03  0.91585920117E+02 0.  0.
         11    1    3    3    0    0  0.24152210060E+02  0.15325496333E+02  0.32812197063E+02  0.43529764125E+02  0.00000000000E+00 0. -1.
        -12    1    3    3    0    0  0.47187685801E+01 -0.73662157643E+02  0.65601004291E+02  0.98751567124E+02  0.00000000000E+00 0.  1.
        -13    1    4    4    0    0 -0.35753411149E+02 -0.13866677799E+02 -0.47714886800E+01  0.38643993922E+02  0.00000000000E+00 0.  1.
         13    1    4    4    0    0 -0.24719807933E+02  0.83894928525E+02 -0.65739532812E+02  0.10941258662E+03  0.00000000000E+00 0. -1.
         21    1    1    2  502  501  0.31602240442E+02 -0.11691589416E+02  0.65787419870E+02  0.73914677008E+02  0.00000000000E+00 0. -1.
<scales pt_clust_5="13000.00000" pt_clust_6="13000.00000" pt_clust_7="13000.00000" pt_clust_8="13000.00000" pt_clust_9="33.69562"></scales>
<clustering>
<clus scale="   33.696">  1  9  2 -1</clus>
<clus scale="   79.512">  5  6 -1 -1</clus>
<clus scale="   91.586">  7  8 -1 -1</clus>
<clus scale="  116.705">  1  5  2 -1</clus>
<clus scale="  125.244">  2  5  1 -1</clus>
</clustering>
</event>
<event>
 9    1  0.3846604E-005  0.1246397E+03  0.7546771E-02  0.1237496E+00
         -2   -1    0    0    0  501 -0.00000000000E+00  0.00000000000E+00  0.24652061378E+02  0.24652061378E+02  0.00000000000E+00 0.  1.
          1   -1    0    0  502    0  0.00000000000E+00 -0.00000000000E+00 -0.96449833461E+03  0.96449833461E+03  0.00000000000E+00 0. -1.
        -24    2    1    2    0    0 -0.71032895141E+02 -0.64395724013E+02 -0.36949407047E+03  0.39012982469E+03  0.80516647557E+02 0.  0.
         23    2    1    2    0    0  0.21848619552E+02  0.87833857279E+02 -0.44303129955E+03  0.46053211889E+03  0.87298061202E+02 0.  0.
         13    1    3    3    0    0 -0.46770454071E+02 -0.23744670456E+02 -0.30845928649E+03  0.31288722597E+03  0.00000000000E+00 0. -1.
        -14    1    3    3    0    0 -0.24262441069E+02 -0.40651053557E+02 -0.61034783981E+02  0.77242598723E+02  0.00000000000E+00 0.  1.
        -11    1    4    4    0    0  0.47284820779E+02  0.87855606253E+02 -0.36912137387E+03  0.38236769015E+03  0.00000000000E+00 0. -1.
         11    1    4    4    0    0 -0.25436201227E+02 -0.21748974856E-01 -0.73909925685E+02  0.78164428742E+02  0.00000000000E+00 0.  1.
         21    1    1    2  502  501  0.49184275589E+02 -0.23438133265E+02 -0.12732090321E+03  0.13848845241E+03  0.00000000000E+00 0.  1.
<scales pt_clust_5="13000.00000" pt_clust_6="13000.00000" pt_clust_7="13000.00000" pt_clust_8="13000.00000" pt_clust_9="54.48338"></scales>
<clustering>
<clus scale="   54.483">  1  9  2 -1</clus>
<clus scale="   80.517">  5  6 -1 -1</clus>
<clus scale="   87.298">  7  8 -1 -1</clus>
<clus scale="  119.988">  1  5  2 -1</clus>
<clus scale="  124.640">  2  5  1 -1</clus>
</clustering>
</event>
<event>
 9    1  0.3846604E-005  0.1037670E+03  0.7546771E-02  0.1276443E+00
         -2   -1    0    0    0  501 -0.00000000000E+00  0.00000000000E+00  0.44303096466E+02  0.44303096466E+02  0.00000000000E+00 0.  1.
          1   -1    0    0  502    0  0.00000000000E+00 -0.00000000000E+00 -0.31576894301E+03  0.31576894301E+03  0.00000000000E+00 0. -1.
         23    2    1    2    0    0 -0.46991417675E+02  0.15489181408E+02 -0.76887707000E+02  0.12777899599E+03  0.89261661723E+02 0.  0.
        -24    2    1    2    0    0  0.39548364568E+02 -0.40707568775E+02 -0.16903206309E+03  0.19563287268E+03  0.80493498036E+02 0.  0.
         11    1    4    4    0    0  0.19094371719E+02  0.18714174237E+02 -0.18508396424E+02  0.32517319799E+02  0.00000000000E+00 0. -1.
        -12    1    4    4    0    0  0.20453992849E+02 -0.59421743012E+02 -0.15052366666E+03  0.16311555288E+03  0.00000000000E+00 0.  1.
        -13    1    3    3    0    0  0.22852631138E+02 -0.61797400112E+01 -0.38478020444E+02  0.45177317249E+02  0.00000000000E+00 0. -1.
         13    1    3    3    0    0 -0.69844048813E+02  0.21668921419E+02 -0.38409686556E+02  0.82601678744E+02  0.00000000000E+00 0.  1.
         21    1    1    2  502  501  0.74430531071E+01  0.25218387367E+02 -0.25546076457E+02  0.36660170803E+02  0.00000000000E+00 0.  1.
<scales pt_clust_5="13000.00000" pt_clust_6="13000.00000" pt_clust_7="13000.00000" pt_clust_8="13000.00000" pt_clust_9="26.29384"></scales>
<clustering>
<clus scale="   26.294">  1  9  2 -1</clus>
<clus scale="   80.493">  5  6 -1 -1</clus>
<clus scale="   89.262">  7  8 -1 -1</clus>
<clus scale="   96.328">  2  5  1 -1</clus>
<clus scale="   96.328">  2  5  1 -1</clus>
</clustering>
</event>
<event>
 9    1  0.3846604E-005  0.1506631E+03  0.7546771E-02  0.1201730E+00
          1   -1    0    0  502    0  0.00000000000E+00  0.00000000000E+00  0.58760474833E+03  0.58760474833E+03  0.00000000000E+00 0. -1.
         -2   -1    0    0    0  501 -0.00000000000E+00 -0.00000000000E+00 -0.70623002701E+02  0.70623002701E+02  0.00000000000E+00 0.  1.
        -24    2    1    2    0    0 -0.55084178278E+02  0.38943314373E+02  0.57001545408E+02  0.12003228272E+03  0.81287909829E+02 0.  0.
         23    2    1    2    0    0  0.99552907604E+02 -0.11742676217E+03  0.36732419251E+03  0.40888090908E+03  0.92502483833E+02 0.  0.
         11    1    3    3    0    0 -0.72869496934E+02  0.18977508523E+02  0.54944227983E+02  0.93214685548E+02  0.00000000000E+00 0. -1.
        -12    1    3    3    0    0  0.17785318656E+02  0.19965805851E+02  0.20573174252E+01  0.26817597169E+02  0.00000000000E+00 0.  1.
        -13    1    4    4    0    0  0.32843159610E+02 -0.80287749032E+02  0.10785064414E+03  0.13840721520E+03  0.00000000000E+00 0.  1.
         13    1    4    4    0    0  0.66709747994E+02 -0.37139013141E+02  0.25947354837E+03  0.27047369388E+03  0.00000000000E+00 0. -1.
         21    1    1    2  502  501 -0.44468729325E+02  0.78483447799E+02  0.92656007709E+02  0.12931455924E+03  0.00000000000E+00 0.  1.
<scales pt_clust_5="13000.00000" pt_clust_6="13000.00000" pt_clust_7="13000.00000" pt_clust_8="13000.00000" pt_clust_9="90.20598"></scales>
<clustering>
<clus scale="   81.288">  5  6 -1 -1</clus>
<clus scale="   90.206">  2  9  1 -1</clus>
<clus scale="   92.502">  7  8 -1 -1</clus>
<clus scale="  144.050">  2  5  1 -1</clus>
<clus scale="  150.663">  1  5  2 -1</clus>
</clustering>
</event>
<event>
 9    1  0.3846604E-005  0.1099653E+03  0.7546771E-02  0.1266771E+00
         -2   -1    0    0    0  501 -0.00000000000E+00  0.00000000000E+00  0.71548860326E+02  0.71548860326E+02  0.00000000000E+00 0.  1.
          1   -1    0    0  502    0  0.00000000000E+00 -0.00000000000E+00 -0.54527746590E+03  0.54527746590E+03  0.00000000000E+00 0. -1.
        -24    2    1    2    0    0 -0.41299386430E+02 -0.23219447219E+01 -0.15047627755E+02  0.92047176281E+02  0.80840712599E+02 0.  0.
         23    2    1    2    0    0  0.44284994502E+02  0.37588912565E+02 -0.47342717477E+03  0.48643696429E+03  0.95464880065E+02 0.  0.
         13    1    3    3    0    0  0.14201429074E+02  0.23193365924E+02 -0.14799159062E+02  0.30961717000E+02  0.00000000000E+00 0. -1.
        -14    1    3    3    0    0 -0.55500815503E+02 -0.25515310646E+02 -0.24846869331E+00  0.61085459281E+02  0.00000000000E+00 0.  1.
        -11    1    4    4    0    0  0.46511692987E+02 -0.22455405499E+02 -0.22265909268E+03  0.22857089573E+03  0.00000000000E+00 0. -1.
         11    1    4    4    0    0 -0.22266984853E+01  0.60044318064E+02 -0.25076808209E+03  0.25786606856E+03  0.00000000000E+00 0.  1.
         21    1    1    2  502  501 -0.29856080722E+01 -0.35266967843E+02  0.14746196953E+02  0.38342185657E+02  0.00000000000E+00 0.  1.
<scales pt_clust_5="13000.00000" pt_clust_6="13000.00000" pt_clust_7="13000.00000" pt_clust_8="13000.00000" pt_clust_9="35.39312"></scales>
<clustering>
<clus scale="   35.393">  1  9  2 -1</clus>
<clus scale="   80.841">  5  6 -1 -1</clus>
<clus scale="   95.465">  7  8 -1 -1</clus>
<clus scale="   97.540">  1  5  2 -1</clus>
<clus scale="  109.965">  2  5  1 -1</clus>
</clustering>
</event>
<event>
 9    1  0.3846604E-005  0.1912746E+03  0.7546771E-02  0.1158372E+00
         -2   -1    0    0    0  501 -0.00000000000E+00  0.00000000000E+00  0.28629932808E+02  0.28629932808E+02  0.00000000000E+00 0.  1.
          1   -1    0    0  502    0  0.00000000000E+00 -0.00000000000E+00 -0.17435527550E+04  0.17435527550E+04  0.00000000000E+00 0. -1.
         23    2    1    2    0    0 -0.68918802800E+02  0.14673638382E+03 -0.58847095601E+03  0.61606856371E+03  0.83432855697E+02 0.  0.
        -24    2    1    2    0    0  0.12374355750E+03 -0.13017276621E+03 -0.90654032277E+03  0.92886713494E+03  0.93388331587E+02 0.  0.
         11    1    4    4    0    0  0.10441506692E+03 -0.14032403209E+03 -0.85794468582E+03  0.87559261309E+03  0.00000000000E+00 0. -1.
        -12    1    4    4    0    0  0.19328490579E+02  0.10151265879E+02 -0.48595636950E+02  0.53274521843E+02  0.00000000000E+00 0.  1.
        -11    1    3    3    0    0 -0.48944859659E+02  0.22328750462E+02 -0.22625435665E+03  0.23256226324E+03  0.00000000000E+00 0.  1.
         11    1    3    3    0    0 -0.19973943141E+02  0.12440763336E+03 -0.36221659936E+03  0.38350630046E+03  0.00000000000E+00 0. -1.
         21    1    1    2  502  501 -0.54824754696E+02 -0.16563617609E+02 -0.21991154343E+03  0.22724698918E+03  0.00000000000E+00 0. -1.
<scales pt_clust_5="13000.00000" pt_clust_6="13000.00000" pt_clust_7="13000.00000" pt_clust_8="13000.00000" pt_clust_9="57.27222"></scales>
<clustering>
<clus scale="   57.272">  2  9  1 -1</clus>
<clus scale="   83.433">  7  8 -1 -1</clus>
<clus scale="   93.388">  5  6 -1 -1</clus>
<clus scale="  186.616">  1  7  2 -1</clus>
<clus scale="   57.272">  2  5  1 -1</clus>
</clustering>
</event>
<event>
 9    1  0.3846604E-005  0.9419057E+02  0.7546771E-02  0.1297948E+00
          3   -1    0    0  502    0  0.00000000000E+00  0.00000000000E+00  0.41191298754E+03  0.41191298754E+03  0.00000000000E+00 0. -1.
         -4   -1    0    0    0  501 -0.00000000000E+00 -0.00000000000E+00 -0.77501185295E+02  0.77501185295E+02  0.00000000000E+00 0.  1.
        -24    2    1    2    0    0 -0.46195731295E+02  0.48862652971E+02  0.71856982041E+02  0.12838028859E+03  0.82440694959E+02 0.  0.
         23    2    1    2    0    0 -0.18550950530E+01 -0.16167960394E+02  0.28431908967E+03  0.29897336330E+03  0.91010344948E+02 0.  0.
         13    1    3    3    0    0 -0.33781639696E+01  0.58309643113E+02  0.23106250974E+02  0.62811824570E+02  0.00000000000E+00 0. -1.
        -14    1    3    3    0    0 -0.42817567325E+02 -0.94469901421E+01  0.48750731067E+02  0.65568464020E+02  0.00000000000E+00 0.  1.
        -11    1    4    4    0    0 -0.14763548712E+02 -0.51261526707E+02  0.13799273979E+03  0.14794493139E+03  0.00000000000E+00 0.  1.
         11    1    4    4    0    0  0.12908453659E+02  0.35093566313E+02  0.14632634989E+03  0.15102843190E+03  0.00000000000E+00 0. -1.
         21    1    1    2  502  501  0.48050826348E+02 -0.32694692577E+02 -0.21764269466E+02  0.62060520952E+02  0.00000000000E+00 0.  1.
<scales pt_clust_5="13000.00000" pt_clust_6="13000.00000" pt_clust_7="13000.00000" pt_clust_8="13000.00000" pt_clust_9="58.11906"></scales>
<clustering>
<clus scale="   58.119">  2  9  1 -1</clus>
<clus scale="   82.441">  5  6 -1 -1</clus>
<clus scale="   85.939">  2  5  1 -1</clus>
<clus scale="   91.010">  7  8 -1 -1</clus>
<clus scale="   94.191">  1  5  2 -1</clus>
</clustering>
</event>
<event>
 9    1  0.3846604E-005  0.1242369E+03  0.7546771E-02  0.1238644E+00
         -4   -1    0    0    0  501 -0.00000000000E+00  0.00000000000E+00  0.38724653627E+03  0.38724653627E+03  0.00000000000E+00 0.  1.
          3   -1    0    0  502    0  0.00000000000E+00 -0.00000000000E+00 -0.12205480433E+03  0.12205480433E+03  0.00000000000E+00 0. -1.
         23    2    1    2    0    0  0.81187909437E+02 -0.89286375005E+02  0.20043312428E+03  0.25135986934E+03  0.91895664778E+02 0.  0.
        -24    2    1    2    0    0 -0.57348739828E+02  0.52696015973E+02 -0.57565606465E+02  0.12805546838E+03  0.83777418643E+02 0.  0.
         13    1    4    4    0    0 -0.11700375095E+01  0.36625280487E+02 -0.59173868442E+02  0.69601198732E+02  0.00000000000E+00 0. -1.
        -14    1    4    4    0    0 -0.56178702318E+02  0.16070735485E+02  0.16082619770E+01  0.58454269646E+02  0.00000000000E+00 0.  1.
        -11    1    3    3    0    0  0.83841207294E+02 -0.27980466122E+02  0.13753236731E+03  0.16348518766E+03  0.00000000000E+00 0.  1.
         11    1    3    3    0    0 -0.26532978568E+01 -0.61305908883E+02  0.62900756973E+02  0.87874681685E+02  0.00000000000E+00 0. -1.
         21    1    1    2  502  501 -0.23839169609E+02  0.36590359032E+02  0.12232421413E+03  0.12988600288E+03  0.00000000000E+00 0. -1.
<scales pt_clust_5="13000.00000" pt_clust_6="13000.00000" pt_clust_7="13000.00000" pt_clust_8="13000.00000" pt_clust_9="43.67105"></scales>
<clustering>
<clus scale="   43.671">  1  9  2 -1</clus>
<clus scale="   83.777">  5  6 -1 -1</clus>
<clus scale="   91.896">  7  8 -1 -1</clus>
<clus scale="  118.358">  2  5  1 -1</clus>
<clus scale="  118.358">  2  5  1 -1</clus>
</clustering>
</event>
<event>
 9    1  0.3846604E-005  0.1756375E+03  0.7546771E-02  0.1173062E+00
         -2   -1    0    0    0  501 -0.00000000000E+00  0.00000000000E+00  0.88077324655E+02  0.88077324655E+02  0.00000000000E+00 0.  1.
          1   -1    0    0  502    0  0.00000000000E+00 -0.00000000000E+00 -0.71720990538E+03  0.71720990538E+03  0.00000000000E+00 0. -1.
        -24    2    1    2    0    0 -0.13964337943E+03 -0.32753236791E+02 -0.27912569902E+03  0.32417994814E+03  0.81292281198E+02 0.  0.
         23    2    1    2    0    0  0.14346887086E+03  0.72349115019E+02 -0.38597651260E+03  0.42747629921E+03  0.89108960047E+02 0.  0.
         13    1    3    3    0    0 -0.11415158876E+03 -0.29133517300E+02 -0.27354316620E+03  0.29783420022E+03  0.00000000000E+00 0. -1.
        -14    1    3    3    0    0 -0.25491790671E+02 -0.36197194903E+01 -0.55825328255E+01  0.26345747922E+02  0.00000000000E+00 0.  1.
        -13    1    4    4    0    0  0.35774351893E+02  0.30608827094E+02 -0.36993769702E+02  0.59876903279E+02  0.00000000000E+00 0.  1.
         13    1    4    4    0    0  0.10769451897E+03  0.41740287925E+02 -0.34898274289E+03  0.36759939593E+03  0.00000000000E+00 0. -1.
         21    1    1    2  502  501 -0.38254914291E+01 -0.39595878228E+02  0.35969630892E+02  0.53630982686E+02  0.00000000000E+00 0.  1.
<scales pt_clust_5="13000.00000" pt_clust_6="13000.00000" pt_clust_7="13000.00000" pt_clust_8="13000.00000" pt_clust_9="39.78025"></scales>
<clustering>
<clus scale="   39.780">  1  9  2 -1</clus>
<clus scale="   81.292">  5  6 -1 -1</clus>
<clus scale="   89.109">  7  8 -1 -1</clus>
<clus scale="  171.804">  1  5  2 -1</clus>
<clus scale="  175.637">  2  5  1 -1</clus>
</clustering>
</event>
<event>
 9    1  0.3846604E-005  0.1031665E+03  0.7546771E-02  0.1282076E+00
         -2   -1    0    0    0  501 -0.00000000000E+00  0.00000000000E+00  0.14392344827E+03  0.14392344827E+03  0.00000000000E+00 0.  1.
          1   -1    0    0  502    0  0.00000000000E+00 -0.00000000000E+00 -0.96493859547E+02  0.96493859547E+02  0.00000000000E+00 0. -1.
        -24    2    1    2    0    0 -0.17180224305E+02 -0.19877936922E+02  0.30685017685E+02  0.89825473798E+02  0.80229377097E+02 0.  0.
         23    2    1    2    0    0  0.38999435634E+02  0.21326397144E+02 -0.19660750224E+02  0.10812392335E+03  0.96583986805E+02 0.  0.
         13    1    3    3    0    0 -0.13683101972E+02 -0.50625685397E+02  0.12425724994E+02  0.53894210664E+02  0.00000000000E+00 0. -1.
        -14    1    3    3    0    0 -0.34971223335E+01  0.30747748475E+02  0.18259292691E+02  0.35931263135E+02  0.00000000000E+00 0.  1.
        -11    1    4    4    0    0  0.10293765926E+02 -0.23253590148E+02 -0.43185767411E+02  0.50116879179E+02  0.00000000000E+00 0. -1.
         11    1    4    4    0    0  0.28705669707E+02  0.44579987292E+02  0.23525017187E+02  0.58007044175E+02  0.00000000000E+00 0.  1.
         21    1    1    2  502  501 -0.21819211328E+02 -0.14484602217E+01  0.36405321259E+02  0.42467910662E+02  0.00000000000E+00 0. -1.
<scales pt_clust_5="13000.00000" pt_clust_6="13000.00000" pt_clust_7="13000.00000" pt_clust_8="13000.00000" pt_clust_9="21.86724"></scales>
<clustering>
<clus scale="   21.867">  1  9  2 -1</clus>
<clus scale="   80.229">  5  6 -1 -1</clus>
<clus scale="   88.043">  1  5  2 -1</clus>
<clus scale="   96.584">  7  8 -1 -1</clus>
<clus scale="  103.167">  2  5  1 -1</clus>
</clustering>
</event>
<event>
 9    1  0.3846604E-005  0.1202249E+03  0.7546771E-02  0.1246309E+00
         -2   -1    0    0    0  501 -0.00000000000E+00  0.00000000000E+00  0.18253909148E+03  0.18253909148E+03  0.00000000000E+00 0.  1.
          1   -1    0    0  502    0  0.00000000000E+00 -0.00000000000E+00 -0.14506645762E+03  0.14506645762E+03  0.00000000000E+00 0. -1.
        -24    2    1    2    0    0 -0.59359660331E+02 -0.29336227565E+01  0.78107626051E+02  0.12879536519E+03  0.83398257949E+02 0.  0.
         23    2    1    2    0    0  0.69688143715E+02  0.42650723309E+02 -0.74725402463E+02  0.14545962893E+03  0.94335021604E+02 0.  0.
         11    1    3    3    0    0 -0.34070576689E+02 -0.21174679953E+01 -0.11236058946E+02  0.35937958864E+02  0.00000000000E+00 0. -1.
        -12    1    3    3    0    0 -0.25289083641E+02 -0.81615476116E+00  0.89343684997E+02  0.92857406322E+02  0.00000000000E+00 0.  1.
        -13    1    4    4    0    0  0.11762743799E+02 -0.28904650038E+02 -0.94566507449E+01  0.32607808556E+02  0.00000000000E+00 0.  1.
         13    1    4    4    0    0  0.57925399916E+02  0.71555373347E+02 -0.65268751718E+02  0.11285182037E+03  0.00000000000E+00 0. -1.
         21    1    1    2  502  501 -0.10328483384E+02 -0.39717100552E+02  0.34090410265E+02  0.53350554986E+02  0.00000000000E+00 0.  1.
<scales pt_clust_5="13000.00000" pt_clust_6="13000.00000" pt_clust_7="13000.00000" pt_clust_8="13000.00000" pt_clust_9="41.03810"></scales>
<clustering>
<clus scale="   41.038">  1  9  2 -1</clus>
<clus scale="   83.398">  5  6 -1 -1</clus>
<clus scale="   94.335">  7  8 -1 -1</clus>
<clus scale="  111.849">  1  5  2 -1</clus>
<clus scale="  120.225">  2  5  1 -1</clus>
</clustering>
</event>
<event>
 9    1  0.3846604E-005  0.1133493E+03  0.7546771E-02  0.1258637E+00
          1   -1    0    0  502    0  0.00000000000E+00  0.00000000000E+00  0.19932825406E+03  0.19932825406E+03  0.00000000000E+00 0. -1.
         -2   -1    0    0    0  501 -0.00000000000E+00 -0.00000000000E+00 -0.83835238036E+02  0.83835238036E+02  0.00000000000E+00 0.  1.
         23    2    1    2    0    0 -0.16160515330E+02 -0.56589319110E+02  0.78711053970E+01  0.10791740200E+03  0.90114915862E+02 0.  0.
        -24    2    1    2    0    0  0.36755458869E+01  0.73504210328E+02  0.11019024360E+03  0.15406628035E+03  0.78601211068E+02 0.  0.
         11    1    4    4    0    0 -0.98678131706E+01  0.87280057262E+02  0.84130334676E+02  0.12162686934E+03  0.00000000000E+00 0. -1.
        -12    1    4    4    0    0  0.13543359058E+02 -0.13775846934E+02  0.26059908926E+02  0.32439411008E+02  0.00000000000E+00 0.  1.
        -11    1    3    3    0    0 -0.46715997164E+02 -0.41413758215E+01  0.21403691108E+01  0.46948019817E+02  0.00000000000E+00 0. -1.
         11    1    3    3    0    0  0.30555481834E+02 -0.52447943288E+02  0.57307362862E+01  0.60969382182E+02  0.00000000000E+00 0.  1.
         21    1    1    2  502  501  0.12484969443E+02 -0.16914891218E+02 -0.25683329718E+01  0.21179809753E+02  0.00000000000E+00 0.  1.
<scales pt_clust_5="13000.00000" pt_clust_6="13000.00000" pt_clust_7="13000.00000" pt_clust_8="13000.00000" pt_clust_9="21.02351"></scales>
<clustering>
<clus scale="   21.024">  2  9  1 -1</clus>
<clus scale="   78.601">  5  6 -1 -1</clus>
<clus scale="   90.115">  7  8 -1 -1</clus>
<clus scale="  104.429">  1  5  2 -1</clus>
<clus scale="  104.429">  1  5  2 -1</clus>
</clustering>
</event>
<event>
 9    1  0.3846604E-005  0.1610321E+03  0.7546771E-02  0.1188023E+00
          1   -1    0    0  502    0  0.00000000000E+00  0.00000000000E+00  0.99174290982E+02  0.99174290982E+02  0.00000000000E+00 0. -1.
         -2   -1    0    0    0  501 -0.00000000000E+00 -0.00000000000E+00 -0.41926947931E+03  0.41926947931E+03  0.00000000000E+00 0.  1.
        -24    2    1    2    0    0  0.10085377919E+03 -0.29594300738E+02 -0.15227900129E+03  0.20515447468E+03  0.88612396615E+02 0.  0.
         23    2    1    2    0    0 -0.12566061984E+03  0.90551385442E+02 -0.65301996831E+02  0.19146850629E+03  0.91682568280E+02 0.  0.
         13    1    3    3    0    0  0.22216994404E+02 -0.51143747892E+02 -0.56751204463E+02  0.79561152561E+02  0.00000000000E+00 0. -1.
        -14    1    3    3    0    0  0.78636784785E+02  0.21549447154E+02 -0.95527796823E+02  0.12559332211E+03  0.00000000000E+00 0.  1.
        -13    1    4    4    0    0 -0.55296867387E+02  0.12941948553E+02  0.15842181411E+02  0.58959412201E+02  0.00000000000E+00 0. -1.
         13    1    4    4    0    0 -0.70363752448E+02  0.77609436889E+02 -0.81144178242E+02  0.13250909409E+03  0.00000000000E+00 0.  1.
         21    1    1    2  502  501  0.24806840647E+02 -0.60957084704E+02 -0.10251419021E+03  0.12182078933E+03  0.00000000000E+00 0. -1.
<scales pt_clust_5="13000.00000" pt_clust_6="13000.00000" pt_clust_7="13000.00000" pt_clust_8="13000.00000" pt_clust_9="65.81144"></scales>
<clustering>
<clus scale="   65.811">  2  9  1 -1</clus>
<clus scale="   88.612">  5  6 -1 -1</clus>
<clus scale="   91.683">  7  8 -1 -1</clus>
<clus scale="  159.304">  2  5  1 -1</clus>
<clus scale="  161.032">  1  5  2 -1</clus>
</clustering>
</event>
<event>
 9    1  0.3846604E-005  0.1186376E+03  0.7546771E-02  0.1247815E+00
          1   -1    0    0  502    0  0.00000000000E+00  0.00000000000E+00  0.36485381764E+02  0.36485381764E+02  0.00000000000E+00 0. -1.
         -2   -1    0    0    0  501 -0.00000000000E+00 -0.00000000000E+00 -0.79716904184E+03  0.79716904184E+03  0.00000000000E+00 0.  1.
        -24    2    1    2    0    0  0.56187373859E+02 -0.60569531598E+02 -0.60743970997E+03  0.61816000182E+03  0.79455002728E+02 0.  0.
         23    2    1    2    0    0 -0.70180633915E+02  0.27868595385E+02 -0.10982588955E+03  0.15936697272E+03  0.87373485643E+02 0.  0.
         11    1    3    3    0    0  0.53160245870E+01 -0.54101388709E+02 -0.19135179155E+03  0.19892392644E+03  0.00000000000E+00 0. -1.
        -12    1    3    3    0    0  0.50871349272E+02 -0.64681428892E+01 -0.41608791842E+03  0.41923607539E+03  0.00000000000E+00 0.  1.
        -13    1    4    4    0    0 -0.47710972097E+02  0.88931576537E+01 -0.30651616963E+01  0.48629418337E+02  0.00000000000E+00 0. -1.
         13    1    4    4    0    0 -0.22469661818E+02  0.18975437731E+02 -0.10676072785E+03  0.11073755438E+03  0.00000000000E+00 0.  1.
         21    1    1    2  502  501  0.13993260056E+02  0.32700936214E+02 -0.43418060559E+02  0.56127449068E+02  0.00000000000E+00 0. -1.
<scales pt_clust_5="13000.00000" pt_clust_6="13000.00000" pt_clust_7="13000.00000" pt_clust_8="13000.00000" pt_clust_9="35.56912"></scales>
<clustering>
<clus scale="   35.569">  1  9  2 -1</clus>
<clus scale="   79.455">  5  6 -1 -1</clus>
<clus scale="   87.373">  7  8 -1 -1</clus>
<clus scale="  112.933">  2  5  1 -1</clus>
<clus scale="   35.569">  1  5  2 -1</clus>
</clustering>
</event>
<event>
 9    1  0.3846604E-005  0.1070137E+03  0.7546771E-02  0.1271048E+00
          1   -1    0    0  502    0  0.00000000000E+00  0.00000000000E+00  0.60103739585E+03  0.60103739585E+03  0.00000000000E+00 0. -1.
         -2   -1    0    0    0  501 -0.00000000000E+00 -0.00000000000E+00 -0.59150546551E+02  0.59150546551E+02  0.00000000000E+00 0.  1.
        -24    2    1    2    0    0 -0.33356632644E+02  0.36471121584E+02  0.37260583423E+02  0.10138483199E+03  0.80297729916E+02 0.  0.
         23    2    1    2    0    0  0.93057736004E+01 -0.56647451989E+02  0.51461125330E+03  0.52586030994E+03  0.91699467284E+02 0.  0.
         13    1    3    3    0    0 -0.40996127046E+02  0.58067786227E+02  0.31593475508E+02  0.77786232231E+02  0.00000000000E+00 0. -1.
        -14    1    3    3    0    0  0.76394944029E+01 -0.21596664643E+02  0.56671079155E+01  0.23598599759E+02  0.00000000000E+00 0.  1.
        -11    1    4    4    0    0 -0.39882607494E+02 -0.27491264096E+02  0.18026331893E+03  0.18665812635E+03  0.00000000000E+00 0.  1.
         11    1    4    4    0    0  0.49188381095E+02 -0.29156187893E+02  0.33434793438E+03  0.33920218359E+03  0.00000000000E+00 0. -1.
         21    1    1    2  502  501  0.24050859043E+02  0.20176330406E+02 -0.99849874263E+01  0.32942800477E+02  0.00000000000E+00 0. -1.
<scales pt_clust_5="13000.00000" pt_clust_6="13000.00000" pt_clust_7="13000.00000" pt_clust_8="13000.00000" pt_clust_9="31.39312"></scales>
<clustering>
<clus scale="   31.393">  2  9  1 -1</clus>
<clus scale="   80.298">  5  6 -1 -1</clus>
<clus scale="   91.699">  7  8 -1 -1</clus>
<clus scale="   97.421">  2  5  1 -1</clus>
<clus scale="  107.014">  1  5  2 -1</clus>
</clustering>
</event>
<event>
 9    1  0.3846604E-005  0.1106113E+03  0.7546771E-02  0.1259633E+00
          1   -1    0    0  502    0  0.00000000000E+00  0.00000000000E+00  0.33832415129E+02  0.33832415129E+02  0.00000000000E+00 0. -1.
         -2   -1    0    0    0  501 -0.00000000000E+00 -0.00000000000E+00 -0.66975070915E+03  0.66975070915E+03  0.00000000000E+00 0.  1.
        -24    2    1    2    0    0  0.80454961295E+02 -0.28310818983E+02 -0.37015562228E+03  0.39033679778E+03  0.89850585585E+02 0.  0.
         23    2    1    2    0    0 -0.51820791626E+02  0.25527455016E+02 -0.10341144779E+03  0.14836581610E+03  0.89338919013E+02 0.  0.
         13    1    3    3    0    0  0.35051222897E+02 -0.94782081226E+01 -0.31312194709E+02  0.47946618163E+02  0.00000000000E+00 0. -1.
        -14    1    3    3    0    0  0.45403738397E+02 -0.18832610860E+02 -0.33884342757E+03  0.34239017962E+03  0.00000000000E+00 0.  1.
        -13    1    4    4    0    0 -0.31885189042E+02  0.14094767668E+02 -0.11671607009E+03  0.12181120134E+03  0.00000000000E+00 0.  1.
         13    1    4    4    0    0 -0.19935602584E+02  0.11432687347E+02  0.13304622303E+02  0.26554614759E+02  0.00000000000E+00 0. -1.
         21    1    1    2  502  501 -0.28634169669E+02  0.27833639672E+01 -0.16235122395E+03  0.16488051039E+03  0.00000000000E+00 0. -1.
<scales pt_clust_5="13000.00000" pt_clust_6="13000.00000" pt_clust_7="13000.00000" pt_clust_8="13000.00000" pt_clust_9="28.76913"></scales>
<clustering>
<clus scale="   28.769">  2  9  1 -1</clus>
<clus scale="   89.339">  7  8 -1 -1</clus>
<clus scale="   89.851">  5  6 -1 -1</clus>
<clus scale="  110.196">  1  7  2 -1</clus>
<clus scale="  110.196">  1  5  2 -1</clus>
</clustering>
</event>
<event>
 9    1  0.3846604E-005  0.1079586E+03  0.7546771E-02  0.1267249E+00
          1   -1    0    0  502    0  0.00000000000E+00  0.00000000000E+00  0.10778082134E+03  0.10778082134E+03  0.00000000000E+00 0. -1.
         -2   -1    0    0    0  501 -0.00000000000E+00 -0.00000000000E+00 -0.64690241622E+03  0.64690241622E+03  0.00000000000E+00 0.  1.
         23    2    1    2    0    0  0.95160266330E+02  0.34399654917E+02 -0.42069792860E+03  0.44156643863E+03  0.88064522101E+02 0.  0.
        -24    2    1    2    0    0 -0.22275427218E+01 -0.63862010391E+02  0.53040088121E+02  0.11587496620E+03  0.80811128725E+02 0.  0.
         11    1    4    4    0    0 -0.24442878993E+02 -0.50984336440E+02  0.66168797399E+02  0.87035433273E+02  0.00000000000E+00 0. -1.
        -12    1    4    4    0    0  0.22215336272E+02 -0.12877673951E+02 -0.13128709278E+02  0.28839532925E+02  0.00000000000E+00 0.  1.
        -11    1    3    3    0    0  0.80367103953E+02  0.62235907523E+02 -0.34213217015E+03  0.35691259635E+03  0.00000000000E+00 0.  1.
         11    1    3    3    0    0  0.14793162377E+02 -0.27836252606E+02 -0.78565758449E+02  0.84653842281E+02  0.00000000000E+00 0. -1.
         21    1    1    2  502  501 -0.92932723608E+02  0.29462355474E+02 -0.17146375440E+03  0.19724183274E+03  0.00000000000E+00 0. -1.
<scales pt_clust_5="13000.00000" pt_clust_6="13000.00000" pt_clust_7="13000.00000" pt_clust_8="13000.00000" pt_clust_9="97.49114"></scales>
<clustering>
<clus scale="   80.811">  5  6 -1 -1</clus>
<clus scale="   88.065">  7  8 -1 -1</clus>
<clus scale="   97.491">  2  9  1 -1</clus>
<clus scale="  102.128">  1  5  2 -1</clus>
<clus scale="  102.128">  1  5  2 -1</clus>
</clustering>
</event>
<event>
 9    1  0.3846604E-005  0.1127550E+03  0.7546771E-02  0.1256737E+00
         -2   -1    0    0    0  501 -0.00000000000E+00  0.00000000000E+00  0.71436138113E+02  0.71436138113E+02  0.00000000000E+00 0.  1.
          1   -1    0    0  502    0  0.00000000000E+00 -0.00000000000E+00 -0.41713444210E+03  0.41713444210E+03  0.00000000000E+00 0. -1.
        -24    2    1    2    0    0 -0.18096488769E+01  0.84557659835E+02 -0.23634800600E+02  0.11990150544E+03  0.81636355512E+02 0.  0.
         23    2    1    2    0    0 -0.24029856262E+02 -0.68611138172E+02 -0.31909283942E+03  0.33816011833E+03  0.85129919446E+02 0.  0.
         11    1    3    3    0    0  0.33279482094E+02  0.16981213175E+02 -0.22769556027E+02  0.43753150869E+02  0.00000000000E+00 0. -1.
        -12    1    3    3    0    0 -0.35089130971E+02  0.67576446661E+02 -0.86524457279E+00  0.76148354570E+02  0.00000000000E+00 0.  1.
        -11    1    4    4    0    0  0.29314988375E+02 -0.10299165913E+02 -0.11993223398E+03  0.12389181615E+03  0.00000000000E+00 0.  1.
         11    1    4    4    0    0 -0.53344844637E+02 -0.58311972259E+02 -0.19916060544E+03  0.21426830217E+03  0.00000000000E+00 0. -1.
         21    1    1    2  502  501  0.25839505139E+02 -0.15946521663E+02 -0.29706639660E+01  0.30508956445E+02  0.00000000000E+00 0.  1.
<scales pt_clust_5="13000.00000" pt_clust_6="13000.00000" pt_clust_7="13000.00000" pt_clust_8="13000.00000" pt_clust_9="30.36398"></scales>
<clustering>
<clus scale="   30.364">  1  9  2 -1</clus>
<clus scale="   81.636">  5  6 -1 -1</clus>
<clus scale="   85.130">  7  8 -1 -1</clus>
<clus scale="  110.141">  1  5  2 -1</clus>
<clus scale="  112.755">  2  5  1 -1</clus>
</clustering>
</event>
<event>
 9    1  0.3846604E-005  0.7677476E+02  0.7546771E-02  0.1339042E+00
          1   -1    0    0  502    0  0.00000000000E+00  0.00000000000E+00  0.18404727925E+02  0.18404727925E+02  0.00000000000E+00 0. -1.
         -2   -1    0    0    0  501 -0.00000000000E+00 -0.00000000000E+00 -0.82681807731E+03  0.82681807731E+03  0.00000000000E+00 0.  1.
        -24    2    1    2    0    0  0.21229722870E+01 -0.33995907210E+02 -0.64387148039E+03  0.64870455410E+03  0.71322412574E+02 0.  0.
         23    2    1    2    0    0  0.17631302085E+02  0.22620964111E+02 -0.86491323721E+02  0.11520706922E+03  0.70493608851E+02 0.  0.
         13    1    3    3    0    0 -0.32470653330E+02 -0.14365601688E+02 -0.20670820311E+03  0.20973553603E+03  0.00000000000E+00 0. -1.
        -14    1    3    3    0    0  0.34593625617E+02 -0.19630305522E+02 -0.43716327728E+03  0.43896901807E+03  0.00000000000E+00 0.  1.
        -13    1    4    4    0    0  0.35079893435E+02 -0.41493793436E+01 -0.18039715632E+02  0.39664185514E+02  0.00000000000E+00 0. -1.
         13    1    4    4    0    0 -0.17448591351E+02  0.26770343454E+02 -0.68451608089E+02  0.75542883707E+02  0.00000000000E+00 0.  1.
         21    1    1    2  502  501 -0.19754274372E+02  0.11374943099E+02 -0.78050545273E+02  0.81311181912E+02  0.00000000000E+00 0.  1.
<scales pt_clust_5="13000.00000" pt_clust_6="13000.00000" pt_clust_7="13000.00000" pt_clust_8="13000.00000" pt_clust_9="22.79519"></scales>
<clustering>
<clus scale="   22.795">  2  9  1 -1</clus>
<clus scale="   70.494">  7  8 -1 -1</clus>
<clus scale="   71.322">  5  6 -1 -1</clus>
<clus scale="   76.005">  1  7  2 -1</clus>
<clus scale="   76.005">  1  5  2 -1</clus>
</clustering>
</event>
<event>
 9    1  0.3846604E-005  0.9636526E+02  0.7546771E-02  0.1292684E+00
         -2   -1    0    0    0  501 -0.00000000000E+00  0.00000000000E+00  0.41159544769E+02  0.41159544769E+02  0.00000000000E+00 0.  1.
          1   -1    0    0  502    0  0.00000000000E+00 -0.00000000000E+00 -0.48430490338E+03  0.48430490338E+03  0.00000000000E+00 0. -1.
        -24    2    1    2    0    0 -0.10510255667E+02 -0.46910366142E+02 -0.14652242273E+03  0.17442908426E+03  0.81520777400E+02 0.  0.
         23    2    1    2    0    0 -0.50581726997E+01  0.28123927148E+02 -0.30940223650E+03  0.32349236521E+03  0.90005699880E+02 0.  0.
         11    1    3    3    0    0  0.31895143089E+02 -0.68107492752E+00 -0.48560918444E+02  0.58102726407E+02  0.00000000000E+00 0. -1.
        -12    1    3    3    0    0 -0.42405398756E+02 -0.46229291214E+02 -0.97961504289E+02  0.11632635786E+03  0.00000000000E+00 0.  1.
        -11    1    4    4    0    0  0.28822769508E+02  0.47378128000E+02 -0.17984514553E+03  0.18820126309E+03  0.00000000000E+00 0.  1.
         11    1    4    4    0    0 -0.33880942208E+02 -0.19254200852E+02 -0.12955709096E+03  0.13529110213E+03  0.00000000000E+00 0. -1.
         21    1    1    2  502  501  0.15568428366E+02  0.18786438993E+02  0.12779300617E+02  0.27542998677E+02  0.00000000000E+00 0. -1.
<scales pt_clust_5="13000.00000" pt_clust_6="13000.00000" pt_clust_7="13000.00000" pt_clust_8="13000.00000" pt_clust_9="24.39890"></scales>
<clustering>
<clus scale="   24.399">  1  9  2 -1</clus>
<clus scale="   81.521">  5  6 -1 -1</clus>
<clus scale="   88.492">  1  5  2 -1</clus>
<clus scale="   90.006">  7  8 -1 -1</clus>
<clus scale="   96.365">  2  5  1 -1</clus>
</clustering>
</event>
<event>
 9    1  0.3846604E-005  0.1019774E+03  0.7546771E-02  0.1286409E+00
         -2   -1    0    0    0  501 -0.00000000000E+00  0.00000000000E+00  0.76606343525E+02  0.76606343525E+02  0.00000000000E+00 0.  1.
          1   -1    0    0  502    0  0.00000000000E+00 -0.00000000000E+00 -0.30345318609E+03  0.30345318609E+03  0.00000000000E+00 0. -1.
        -24    2    1    2    0    0 -0.47422979157E+02  0.73064690398E+01  0.10807134350E+02  0.94905804003E+02  0.81166458827E+02 0.  0.
         23    2    1    2    0    0  0.37405632966E+01 -0.20542806758E+02 -0.20542764924E+03  0.22927984721E+03  0.99663085158E+02 0.  0.
         13    1    3    3    0    0  0.20349014837E+02  0.12817072699E+02 -0.61593552709E+01  0.24825338160E+02  0.00000000000E+00 0. -1.
        -14    1    3    3    0    0 -0.67771993994E+02 -0.55106036595E+01  0.16966489621E+02  0.70080465842E+02  0.00000000000E+00 0.  1.
        -11    1    4    4    0    0 -0.29284422846E+02  0.29241667434E+02 -0.71119927522E+02  0.82284242881E+02  0.00000000000E+00 0.  1.
         11    1    4    4    0    0  0.33024986143E+02 -0.49784474192E+02 -0.13430772172E+03  0.14699560433E+03  0.00000000000E+00 0. -1.
         21    1    1    2  502  501  0.43682415860E+02  0.13236337718E+02 -0.32226327672E+02  0.55873878394E+02  0.00000000000E+00 0.  1.
<scales pt_clust_5="13000.00000" pt_clust_6="13000.00000" pt_clust_7="13000.00000" pt_clust_8="13000.00000" pt_clust_9="45.64377"></scales>
<clustering>
<clus scale="   45.644">  1  9  2 -1</clus>
<clus scale="   81.166">  5  6 -1 -1</clus>
<clus scale="   83.992">  1  5  2 -1</clus>
<clus scale="   99.663">  7  8 -1 -1</clus>
<clus scale="  101.977">  2  5  1 -1</clus>
</clustering>
</event>
<event>
 9    1  0.3846604E-005  0.9432708E+02  0.7546771E-02  0.1300661E+00
         -2   -1    0    0    0  501 -0.00000000000E+00  0.00000000000E+00  0.48370090118E+03  0.48370090118E+03  0.00000000000E+00 0.  1.
          1   -1    0    0  502    0  0.00000000000E+00 -0.00000000000E+00 -0.68227145013E+02  0.68227145013E+02  0.00000000000E+00 0. -1.
         23    2    1    2    0    0 -0.29856488497E+02 -0.42488102523E+02  0.35330285666E+03  0.36910347237E+03  0.93369245650E+02 0.  0.
        -24    2    1    2    0    0 -0.10390517964E+02  0.86201683586E+01 -0.21318631253E+02  0.84146510198E+02  0.80273787589E+02 0.  0.
         13    1    4    4    0    0 -0.25932187563E+01  0.42274547189E+02  0.21082289841E+01  0.42406447069E+02  0.00000000000E+00 0. -1.
        -14    1    4    4    0    0 -0.77972992077E+01 -0.33654378831E+02 -0.23426860237E+02  0.41740063129E+02  0.00000000000E+00 0.  1.
        -13    1    3    3    0    0 -0.39342461190E+02 -0.68344306119E+02  0.27579571556E+03  0.28684847944E+03  0.00000000000E+00 0.  1.
         13    1    3    3    0    0  0.94859726936E+01  0.25856203596E+02  0.77507141092E+02  0.82254992934E+02  0.00000000000E+00 0. -1.
         21    1    1    2  502  501  0.40247006461E+02  0.33867934165E+02  0.83489530762E+02  0.98678063623E+02  0.00000000000E+00 0. -1.
<scales pt_clust_5="13000.00000" pt_clust_6="13000.00000" pt_clust_7="13000.00000" pt_clust_8="13000.00000" pt_clust_9="52.60094"></scales>
<clustering>
<clus scale="   52.601">  1  9  2 -1</clus>
<clus scale="   80.274">  5  6 -1 -1</clus>
<clus scale="   81.386">  2  5  1 -1</clus>
<clus scale="   93.369">  7  8 -1 -1</clus>
<clus scale="   81.386">  2  5  1 -1</clus>
</clustering>
</event>
<event>
 9    1  0.3846604E-005  0.1640550E+03  0.7546771E-02  0.1190695E+00
         -4   -1    0    0    0  501 -0.00000000000E+00  0.00000000000E+00  0.43960288010E+02  0.43960288010E+02  0.00000000000E+00 0.  1.
          3   -1    0    0  502    0  0.00000000000E+00 -0.00000000000E+00 -0.90157506967E+03  0.90157506967E+03  0.00000000000E+00 0. -1.
        -24    2    1    2    0    0 -0.10188083426E+03 -0.24624367058E+01 -0.20345222266E+03  0.23950828393E+03  0.74737160661E+02 0.  0.
         23    2    1    2    0    0  0.13214745409E+03  0.11326441100E+02 -0.65184178364E+03  0.67440390427E+03  0.11104808551E+03 0.  0.
         13    1    3    3    0    0 -0.84530086431E+01 -0.25991877437E+02 -0.26731979137E+02  0.38231266738E+02  0.00000000000E+00 0. -1.
        -14    1    3    3    0    0 -0.93427825618E+02  0.23529440731E+02 -0.17672024352E+03  0.20127701720E+03  0.00000000000E+00 0.  1.
        -11    1    4    4    0    0 -0.22128808107E+01  0.36256736966E+02 -0.13888730318E+03  0.14355880607E+03  0.00000000000E+00 0.  1.
         11    1    4    4    0    0  0.13436033490E+03 -0.24930295866E+02 -0.51295448047E+03  0.53084509820E+03  0.00000000000E+00 0. -1.
         21    1    1    2  502  501 -0.30266619826E+02 -0.88640043942E+01 -0.23207753535E+01  0.31623169478E+02  0.00000000000E+00 0.  1.
<scales pt_clust_5="13000.00000" pt_clust_6="13000.00000" pt_clust_7="13000.00000" pt_clust_8="13000.00000" pt_clust_9="31.53790"></scales>
<clustering>
<clus scale="   31.538">  1  9  2 -1</clus>
<clus scale="   74.737">  5  6 -1 -1</clus>
<clus scale="  111.048">  7  8 -1 -1</clus>
<clus scale="  142.014">  1  5  2 -1</clus>
<clus scale="  164.055">  2  5  1 -1</clus>
</clustering>
</event>
<event>
 9    1  0.3846604E-005  0.9599841E+02  0.7546771E-02  0.1296349E+00
         -2   -1    0    0    0  501 -0.00000000000E+00  0.00000000000E+00  0.12722009051E+03  0.12722009051E+03  0.00000000000E+00 0.  1.
          1   -1    0    0  502    0  0.00000000000E+00 -0.00000000000E+00 -0.14629898538E+03  0.14629898538E+03  0.00000000000E+00 0. -1.
        -24    2    1    2    0    0  0.79544489173E+01 -0.26568942793E+00  0.73514880765E+02  0.11093399144E+03  0.82695640244E+02 0.  0.
         23    2    1    2    0    0  0.13678803955E+02  0.89319493914E+01 -0.99102765064E+02  0.13838862530E+03  0.95200652165E+02 0.  0.
         11    1    3    3    0    0  0.20253209288E+02  0.62002466498E+01 -0.11968572063E+02  0.24328630504E+02  0.00000000000E+00 0. -1.
        -12    1    3    3    0    0 -0.12298760371E+02 -0.64659360777E+01  0.85483452829E+02  0.86605360940E+02  0.00000000000E+00 0.  1.
        -11    1    4    4    0    0  0.22891374934E+02 -0.37419174627E+02 -0.24972175183E+02  0.50475927029E+02  0.00000000000E+00 0. -1.
         11    1    4    4    0    0 -0.92125709792E+01  0.46351124018E+02 -0.74130589881E+02  0.87912698275E+02  0.00000000000E+00 0.  1.
         21    1    1    2  502  501 -0.21633252872E+02 -0.86662599635E+01  0.65089894279E+01  0.24196459141E+02  0.00000000000E+00 0. -1.
<scales pt_clust_5="13000.00000" pt_clust_6="13000.00000" pt_clust_7="13000.00000" pt_clust_8="13000.00000" pt_clust_9="23.30454"></scales>
<clustering>
<clus scale="   23.305">  1  9  2 -1</clus>
<clus scale="   82.696">  5  6 -1 -1</clus>
<clus scale="   83.613">  1  5  2 -1</clus>
<clus scale="   95.201">  7  8 -1 -1</clus>
<clus scale="   95.998">  2  5  1 -1</clus>
</clustering>
</event>
<event>
 9    1  0.3846604E-005  0.1060498E+03  0.7546771E-02  0.1273852E+00
         -2   -1    0    0    0  501 -0.00000000000E+00  0.00000000000E+00  0.31939601657E+03  0.31939601657E+03  0.00000000000E+00 0.  1.
          1   -1    0    0  502    0  0.00000000000E+00 -0.00000000000E+00 -0.77371113631E+02  0.77371113631E+02  0.00000000000E+00 0. -1.
        -24    2    1    2    0    0  0.19946744510E+02 -0.36991590906E+02  0.17149960705E+03  0.19395023671E+03  0.80239196713E+02 0.  0.
         23    2    1    2    0    0  0.19492881358E+02  0.52552900457E+02 -0.12597801158E+02  0.10950511660E+03  0.93224922618E+02 0.  0.
         13    1    3    3    0    0  0.42721049472E+02  0.39240598033E+01  0.95319985481E+02  0.10452935447E+03  0.00000000000E+00 0. -1.
        -14    1    3    3    0    0 -0.22774304962E+02 -0.40915650709E+02  0.76179621569E+02  0.89420882247E+02  0.00000000000E+00 0.  1.
        -11    1    4    4    0    0  0.45139102766E+02  0.63316671391E+01 -0.29161490061E+02  0.54111192094E+02  0.00000000000E+00 0.  1.
         11    1    4    4    0    0 -0.25646221408E+02  0.46221233318E+02  0.16563688903E+02  0.55393924504E+02  0.00000000000E+00 0. -1.
         21    1    1    2  502  501 -0.39439625868E+02 -0.15561309551E+02  0.83123097045E+02  0.93311776888E+02  0.00000000000E+00 0.  1.
<scales pt_clust_5="13000.00000" pt_clust_6="13000.00000" pt_clust_7="13000.00000" pt_clust_8="13000.00000" pt_clust_9="42.39857"></scales>
<clustering>
<clus scale="   42.399">  1  9  2 -1</clus>
<clus scale="   80.239">  5  6 -1 -1</clus>
<clus scale="   93.225">  7  8 -1 -1</clus>
<clus scale="   94.837">  1  5  2 -1</clus>
<clus scale="  106.050">  2  5  1 -1</clus>
</clustering>
</event>
<event>
 9    1  0.3846604E-005  0.1423786E+03  0.7546771E-02  0.1213275E+00
          1   -1    0    0  502    0  0.00000000000E+00  0.00000000000E+00  0.38812075965E+03  0.38812075965E+03  0.00000000000E+00 0. -1.
         -2   -1    0    0    0  501 -0.00000000000E+00 -0.00000000000E+00 -0.12922006183E+03  0.12922006183E+03  0.00000000000E+00 0.  1.
         23    2    1    2    0    0 -0.76551648064E+02 -0.23662405316E+02 -0.10955515555E+01  0.12646828268E+03  0.97841514938E+02 0.  0.
        -24    2    1    2    0    0  0.78840289182E+02  0.50640006993E+02  0.30549441733E+03  0.33792811362E+03  0.10994712114E+03 0.  0.
         13    1    4    4    0    0  0.76452332116E+02  0.28491585613E+02  0.30491689019E+03  0.31564384908E+03  0.00000000000E+00 0. -1.
        -14    1    4    4    0    0  0.23879570659E+01  0.22148421379E+02  0.57752714065E+00  0.22284264541E+02  0.00000000000E+00 0.  1.
        -11    1    3    3    0    0  0.23411322060E+02 -0.95601071370E+01  0.27847760466E+01  0.25440924250E+02  0.00000000000E+00 0. -1.
         11    1    3    3    0    0 -0.99962970124E+02 -0.14102298179E+02 -0.38803276021E+01  0.10102735843E+03  0.00000000000E+00 0.  1.
         21    1    1    2  502  501 -0.22886411182E+01 -0.26977601676E+02 -0.45498167956E+02  0.52944425181E+02  0.00000000000E+00 0.  1.
<scales pt_clust_5="13000.00000" pt_clust_6="13000.00000" pt_clust_7="13000.00000" pt_clust_8="13000.00000" pt_clust_9="27.07451"></scales>
<clustering>
<clus scale="   27.075">  2  9  1 -1</clus>
<clus scale="   97.842">  7  8 -1 -1</clus>
<clus scale="  109.947">  5  6 -1 -1</clus>
<clus scale="  133.253">  2  7  1 -1</clus>
<clus scale="  142.379">  1  5  2 -1</clus>
</clustering>
</event>
<event>
 9    1  0.3846604E-005  0.1115603E+03  0.7546771E-02  0.1257964E+00
          1   -1    0    0  502    0  0.00000000000E+00  0.00000000000E+00  0.18285961465E+03  0.18285961465E+03  0.00000000000E+00 0. -1.
         -2   -1    0    0    0  501 -0.00000000000E+00 -0.00000000000E+00 -0.18041503514E+03  0.18041503514E+03  0.00000000000E+00 0.  1.
        -24    2    1    2    0    0 -0.78559072400E+02 -0.44314542979E+01 -0.90406745399E+02  0.15145792957E+03  0.92601075438E+02 0.  0.
         23    2    1    2    0    0  0.51848435768E+02  0.31480784926E+02  0.12167104781E+03  0.16411241407E+03  0.91922469867E+02 0.  0.
         13    1    3    3    0    0 -0.53320082459E+02  0.12245843271E+02  0.14710913099E+01  0.54728018240E+02  0.00000000000E+00 0. -1.
        -14    1    3    3    0    0 -0.25238989940E+02 -0.16677297569E+02 -0.91877836709E+02  0.96729911329E+02  0.00000000000E+00 0.  1.
        -13    1    4    4    0    0 -0.55412048016E+01 -0.27372373567E+02  0.31254303953E+02  0.41913998866E+02  0.00000000000E+00 0.  1.
         13    1    4    4    0    0  0.57389640570E+02  0.58853158493E+02  0.90416743859E+02  0.12219841521E+03  0.00000000000E+00 0. -1.
         21    1    1    2  502  501  0.26710636632E+02 -0.27049330628E+02 -0.28819722904E+02  0.47704306147E+02  0.00000000000E+00 0.  1.
<scales pt_clust_5="13000.00000" pt_clust_6="13000.00000" pt_clust_7="13000.00000" pt_clust_8="13000.00000" pt_clust_9="38.01479"></scales>
<clustering>
<clus scale="   38.015">  2  9  1 -1</clus>
<clus scale="   91.922">  7  8 -1 -1</clus>
<clus scale="   92.601">  5  6 -1 -1</clus>
<clus scale="  110.998">  1  7  2 -1</clus>
<clus scale="  110.998">  1  5  2 -1</clus>
</clustering>
</event>
<event>
 9    1  0.3846604E-005  0.9287215E+02  0.7546771E-02  0.1304738E+00
          1   -1    0    0  502    0  0.00000000000E+00  0.00000000000E+00  0.33382179516E+03  0.33382179516E+03  0.00000000000E+00 0. -1.
         -2   -1    0    0    0  501 -0.00000000000E+00 -0.00000000000E+00 -0.37804525628E+02  0.37804525628E+02  0.00000000000E+00 0.  1.
         23    2    1    2    0    0  0.27311800183E+01  0.11957367949E+02  0.89821950196E+02  0.12957910995E+03  0.92586851145E+02 0.  0.
        -24    2    1    2    0    0 -0.71801580339E+01  0.10265347145E+02  0.20427710412E+03  0.21930249670E+03  0.78787802168E+02 0.  0.
         11    1    4    4    0    0  0.18811697626E+01  0.43909959244E+02  0.13070898371E+03  0.13790018761E+03  0.00000000000E+00 0. -1.
        -12    1    4    4    0    0 -0.90613277965E+01 -0.33644612099E+02  0.73568120409E+02  0.81402309090E+02  0.00000000000E+00 0.  1.
        -11    1    3    3    0    0  0.45782925426E+02  0.90108450089E+01  0.28774878071E+02  0.54820299127E+02  0.00000000000E+00 0.  1.
         11    1    3    3    0    0 -0.43051745408E+02  0.29465229398E+01  0.61047072125E+02  0.74758810820E+02  0.00000000000E+00 0. -1.
         21    1    1    2  502  501  0.44489780156E+01 -0.22222715094E+02  0.19182152130E+01  0.22744714136E+02  0.00000000000E+00 0.  1.
<scales pt_clust_5="13000.00000" pt_clust_6="13000.00000" pt_clust_7="13000.00000" pt_clust_8="13000.00000" pt_clust_9="22.66368"></scales>
<clustering>
<clus scale="   22.664">  2  9  1 -1</clus>
<clus scale="   78.788">  5  6 -1 -1</clus>
<clus scale="   79.123">  1  5  2 -1</clus>
<clus scale="   92.587">  7  8 -1 -1</clus>
<clus scale="   79.123">  1  5  2 -1</clus>
</clustering>
</event>
<event>
 9    1  0.3846604E-005  0.1284984E+03  0.7546771E-02  0.1230483E+00
          1   -1    0    0  502    0  0.00000000000E+00  0.00000000000E+00  0.16602957575E+03  0.16602957575E+03  0.00000000000E+00 0. -1.
         -2   -1    0    0    0  501 -0.00000000000E+00 -0.00000000000E+00 -0.45156262970E+03  0.45156262970E+03  0.00000000000E+00 0.  1.
        -24    2    1    2    0    0  0.57183050073E+02 -0.43970231062E+02 -0.34999369128E+03  0.36807202485E+03  0.88193815540E+02 0.  0.
         23    2    1    2    0    0 -0.79470653179E+02  0.46424808560E+02  0.12802956660E+03  0.18211268124E+03  0.91118665374E+02 0.  0.
         11    1    3    3    0    0  0.30409667184E+01 -0.55365400279E+02 -0.13214118985E+03  0.14330341616E+03  0.00000000000E+00 0. -1.
        -12    1    3    3    0    0  0.54142083355E+02  0.11395169217E+02 -0.21785250143E+03  0.22476860869E+03  0.00000000000E+00 0.  1.
        -11    1    4    4    0    0 -0.53747500278E+02  0.46927087654E+02  0.24509042099E+02  0.75442948554E+02  0.00000000000E+00 0.  1.
         11    1    4    4    0    0 -0.25723152901E+02 -0.50227909427E+00  0.10352052450E+03  0.10666973269E+03  0.00000000000E+00 0. -1.
         21    1    1    2  502  501  0.22287603105E+02 -0.24545774977E+01 -0.63568929265E+02  0.67407499366E+02  0.00000000000E+00 0.  1.
<scales pt_clust_5="13000.00000" pt_clust_6="13000.00000" pt_clust_7="13000.00000" pt_clust_8="13000.00000" pt_clust_9="22.42236"></scales>
<clustering>
<clus scale="   22.422">  2  9  1 -1</clus>
<clus scale="   88.194">  5  6 -1 -1</clus>
<clus scale="   91.119">  7  8 -1 -1</clus>
<clus scale="  126.441">  2  5  1 -1</clus>
<clus scale="  128.498">  1  5  2 -1</clus>
</clustering>
</event>
<event>
 9    1  0.3846604E-005  0.1019471E+03  0.7546771E-02  0.1279691E+00
         -2   -1    0    0    0  501 -0.00000000000E+00  0.00000000000E+00  0.42278770936E+03  0.42278770936E+03  0.00000000000E+00 0.  1.
          1   -1    0    0  502    0  0.00000000000E+00 -0.00000000000E+00 -0.61224069536E+02  0.61224069536E+02  0.00000000000E+00 0. -1.
        -24    2    1    2    0    0 -0.89469228634E+01 -0.13797331189E+02  0.25930972573E+03  0.27187251437E+03  0.80016975932E+02 0.  0.
         23    2    1    2    0    0 -0.10269755632E+02  0.73813851232E+02  0.14867421041E+02  0.10440040163E+03  0.71585271786E+02 0.  0.
         11    1    3    3    0    0  0.11607387207E+02  0.23628858807E+02  0.36471291560E+02  0.44980101315E+02  0.00000000000E+00 0. -1.
        -12    1    3    3    0    0 -0.20554310071E+02 -0.37426189996E+02  0.22283843417E+03  0.22689241306E+03  0.00000000000E+00 0.  1.
        -13    1    4    4    0    0  0.27388013376E+02  0.53869459140E+02  0.48546314384E+01  0.60626638956E+02  0.00000000000E+00 0.  1.
         13    1    4    4    0    0 -0.37657769008E+02  0.19944392092E+02  0.10012789603E+02  0.43773762669E+02  0.00000000000E+00 0. -1.
         21    1    1    2  502  501  0.19216678495E+02 -0.60016520043E+02  0.87386493059E+02  0.10773886290E+03  0.00000000000E+00 0.  1.
<scales pt_clust_5="13000.00000" pt_clust_6="13000.00000" pt_clust_7="13000.00000" pt_clust_8="13000.00000" pt_clust_9="63.01796"></scales>
<clustering>
<clus scale="   63.018">  1  9  2 -1</clus>
<clus scale="   71.585">  7  8 -1 -1</clus>
<clus scale="   80.017">  5  6 -1 -1</clus>
<clus scale="   95.472">  2  7  1 -1</clus>
<clus scale="   95.472">  2  5  1 -1</clus>
</clustering>
</event>
<event>
 9    1  0.3846604E-005  0.1019860E+03  0.7546771E-02  0.1281633E+00
          1   -1    0    0  502    0  0.00000000000E+00  0.00000000000E+00  0.75985022285E+02  0.75985022285E+02  0.00000000000E+00 0. -1.
         -2   -1    0    0    0  501 -0.00000000000E+00 -0.00000000000E+00 -0.30471785613E+03  0.30471785613E+03  0.00000000000E+00 0.  1.
         23    2    1    2    0    0  0.71555452518E+01  0.32655439315E+02 -0.20623403575E+03  0.22789357643E+03  0.91024310649E+02 0.  0.
        -24    2    1    2    0    0  0.35611092493E+02 -0.36339129474E+02  0.15225461723E+02  0.95663220270E+02  0.79567297228E+02 0.  0.
         11    1    4    4    0    0  0.32072537631E+02  0.13427082546E+02 -0.14405419060E+02  0.37635758450E+02  0.00000000000E+00 0. -1.
        -12    1    4    4    0    0  0.35385548617E+01 -0.49766212020E+02  0.29630880783E+02  0.58027461820E+02  0.00000000000E+00 0.  1.
        -11    1    3    3    0    0  0.36646047095E+02  0.31774555106E+02 -0.18574492036E+03  0.19197325480E+03  0.00000000000E+00 0. -1.
         11    1    3    3    0    0 -0.29490501844E+02  0.88088420917E+00 -0.20489115391E+02  0.35920321623E+02  0.00000000000E+00 0.  1.
         21    1    1    2  502  501 -0.42766637745E+02  0.36836901587E+01 -0.37724259816E+02  0.57146081719E+02  0.00000000000E+00 0.  1.
<scales pt_clust_5="13000.00000" pt_clust_6="13000.00000" pt_clust_7="13000.00000" pt_clust_8="13000.00000" pt_clust_9="42.92499"></scales>
<clustering>
<clus scale="   42.925">  2  9  1 -1</clus>
<clus scale="   79.567">  5  6 -1 -1</clus>
<clus scale="   91.024">  7  8 -1 -1</clus>
<clus scale="   91.906">  1  5  2 -1</clus>
<clus scale="   91.906">  1  5  2 -1</clus>
</clustering>
</event>
<event>
 9    1  0.3846604E-005  0.1206881E+03  0.7546771E-02  0.1244296E+00
         -2   -1    0    0    0  501 -0.00000000000E+00  0.00000000000E+00  0.23368744320E+03  0.23368744320E+03  0.00000000000E+00 0.  1.
          1   -1    0    0  502    0  0.00000000000E+00 -0.00000000000E+00 -0.16617998809E+03  0.16617998809E+03  0.00000000000E+00 0. -1.
        -24    2    1    2    0    0  0.28492997370E+02 -0.50147366636E+02  0.39645324816E+02  0.10638563804E+03  0.80122050164E+02 0.  0.
         23    2    1    2    0    0  0.27244184368E+02  0.98721471099E+02 -0.84309469916E+02  0.15913692007E+03  0.87910739816E+02 0.  0.
         11    1    3    3    0    0  0.54925946305E+02 -0.31839024275E+02  0.13413058832E+02  0.64888313212E+02  0.00000000000E+00 0. -1.
        -12    1    3    3    0    0 -0.26432948936E+02 -0.18308342361E+02  0.26232265984E+02  0.41497324831E+02  0.00000000000E+00 0.  1.
        -11    1    4    4    0    0  0.29096544209E+02 -0.62191291197E+01 -0.14630304326E+02  0.33156179765E+02  0.00000000000E+00 0. -1.
         11    1    4    4    0    0 -0.18523598411E+01  0.10494060022E+03 -0.69679165590E+02  0.12598074031E+03  0.00000000000E+00 0.  1.
         21    1    1    2  502  501 -0.55737181738E+02 -0.48574104463E+02  0.11217160021E+03  0.13434487317E+03  0.00000000000E+00 0.  1.
<scales pt_clust_5="13000.00000" pt_clust_6="13000.00000" pt_clust_7="13000.00000" pt_clust_8="13000.00000" pt_clust_9="73.93292"></scales>
<clustering>
<clus scale="   73.933">  1  9  2 -1</clus>
<clus scale="   80.122">  5  6 -1 -1</clus>
<clus scale="   87.911">  7  8 -1 -1</clus>
<clus scale="  115.138">  1  5  2 -1</clus>
<clus scale="  120.688">  2  5  1 -1</clus>
</clustering>
</event>
<event>
 9    1  0.3846604E-005  0.2757900E+03  0.7546771E-02  0.1098541E+00
         -4   -1    0    0    0  501 -0.00000000000E+00  0.00000000000E+00  0.86525947387E+02  0.86525947387E+02  0.00000000000E+00 0.  1.
          3   -1    0    0  502    0  0.00000000000E+00 -0.00000000000E+00 -0.10505404065E+04  0.10505404065E+04  0.00000000000E+00 0. -1.
        -24    2    1    2    0    0 -0.89976944065E+02  0.23519206495E+03 -0.30653239780E+03  0.40480526244E+03  0.80585555297E+02 0.  0.
         23    2    1    2    0    0  0.11215145083E+03 -0.23981192676E+03 -0.65078189399E+03  0.70864025076E+03  0.92553894050E+02 0.  0.
         13    1    3    3    0    0 -0.62457486783E+02  0.93950160924E+02 -0.18387033006E+03  0.21572173898E+03  0.00000000000E+00 0. -1.
        -14    1    3    3    0    0 -0.27519457282E+02  0.14124190403E+03 -0.12266206773E+03  0.18908352346E+03  0.00000000000E+00 0.  1.
        -13    1    4    4    0    0 -0.65632191734E+01 -0.21526270871E+02 -0.17990249027E+02  0.28811547053E+02  0.00000000000E+00 0.  1.
         13    1    4    4    0    0  0.11871467000E+03 -0.21828565589E+03 -0.63279164497E+03  0.67982870370E+03  0.00000000000E+00 0. -1.
         21    1    1    2  502  501 -0.22174506761E+02  0.46198618083E+01 -0.67001673423E+01  0.23620840705E+02  0.00000000000E+00 0. -1.
<scales pt_clust_5="13000.00000" pt_clust_6="13000.00000" pt_clust_7="13000.00000" pt_clust_8="13000.00000" pt_clust_9="22.65065"></scales>
<clustering>
<clus scale="   22.651">  1  9  2 -1</clus>
<clus scale="   80.586">  5  6 -1 -1</clus>
<clus scale="   92.554">  7  8 -1 -1</clus>
<clus scale="  272.007">  1  5  2 -1</clus>
<clus scale="  275.790">  2  5  1 -1</clus>
</clustering>
</event>
<event>
 9    1  0.3846604E-005  0.1296551E+03  0.7546771E-02  0.1231382E+00
         -2   -1    0    0    0  501 -0.00000000000E+00  0.00000000000E+00  0.53447421757E+02  0.53447421757E+02  0.00000000000E+00 0.  1.
          1   -1    0    0  502    0  0.00000000000E+00 -0.00000000000E+00 -0.51198476579E+03  0.51198476579E+03  0.00000000000E+00 0. -1.
        -24    2    1    2    0    0 -0.13720394999E+02  0.74656572300E+02 -0.57732002798E+02  0.12498664226E+03  0.80788758939E+02 0.  0.
         23    2    1    2    0    0 -0.26994588834E+01 -0.94822057306E+02 -0.39030406968E+03  0.41240031233E+03  0.93478559947E+02 0.  0.
         11    1    3    3    0    0  0.29247006914E+02  0.92418253874E+01 -0.27140467105E+02  0.40956119257E+02  0.00000000000E+00 0. -1.
        -12    1    3    3    0    0 -0.42967401913E+02  0.65414746913E+02 -0.30591535693E+02  0.84030523007E+02  0.00000000000E+00 0.  1.
        -11    1    4    4    0    0 -0.31219352959E+02 -0.33061430109E+02 -0.27330282225E+03  0.27705981089E+03  0.00000000000E+00 0. -1.
         11    1    4    4    0    0  0.28519894075E+02 -0.61760627197E+02 -0.11700124743E+03  0.13534050144E+03  0.00000000000E+00 0.  1.
         21    1    1    2  502  501  0.16419853882E+02  0.20165485005E+02 -0.10501271552E+02  0.28045232950E+02  0.00000000000E+00 0.  1.
<scales pt_clust_5="13000.00000" pt_clust_6="13000.00000" pt_clust_7="13000.00000" pt_clust_8="13000.00000" pt_clust_9="26.00497"></scales>
<clustering>
<clus scale="   26.005">  1  9  2 -1</clus>
<clus scale="   80.789">  5  6 -1 -1</clus>
<clus scale="   93.479">  7  8 -1 -1</clus>
<clus scale="  120.826">  1  5  2 -1</clus>
<clus scale="  129.655">  2  5  1 -1</clus>
</clustering>
</event>
<event>
 9    1  0.3846604E-005  0.1165426E+03  0.7546771E-02  0.1250133E+00
         -2   -1    0    0    0  501 -0.00000000000E+00  0.00000000000E+00  0.95269045406E+02  0.95269045406E+02  0.00000000000E+00 0.  1.
          1   -1    0    0  502    0  0.00000000000E+00 -0.00000000000E+00 -0.42436146669E+03  0.42436146669E+03  0.00000000000E+00 0. -1.
        -24    2    1    2    0    0  0.51589975501E+02  0.36511854001E+02  0.34547720467E+02  0.10952126904E+03  0.82502862542E+02 0.  0.
         23    2    1    2    0    0 -0.54768559234E+02 -0.64904962375E+02 -0.36359295681E+03  0.38153872987E+03  0.78483851340E+02 0.  0.
         13    1    3    3    0    0 -0.19672564801E+01 -0.23047360587E+02  0.13178250184E+02  0.26621743106E+02  0.00000000000E+00 0. -1.
        -14    1    3    3    0    0  0.53557231982E+02  0.59559214587E+02  0.21369470282E+02  0.82899525933E+02  0.00000000000E+00 0.  1.
        -13    1    4    4    0    0 -0.30992930608E+02  0.12226473975E+02 -0.79410389074E+02  0.86116539099E+02  0.00000000000E+00 0.  1.
         13    1    4    4    0    0 -0.23775628626E+02 -0.77131436349E+02 -0.28418256774E+03  0.29542219077E+03  0.00000000000E+00 0. -1.
         21    1    1    2  502  501  0.31785837325E+01  0.28393108374E+02 -0.47184937002E-01  0.28570513193E+02  0.00000000000E+00 0.  1.
<scales pt_clust_5="13000.00000" pt_clust_6="13000.00000" pt_clust_7="13000.00000" pt_clust_8="13000.00000" pt_clust_9="28.57047"></scales>
<clustering>
<clus scale="   28.570">  1  9  2 -1</clus>
<clus scale="   78.484">  7  8 -1 -1</clus>
<clus scale="   82.503">  5  6 -1 -1</clus>
<clus scale="  113.733">  2  7  1 -1</clus>
<clus scale="  113.733">  2  5  1 -1</clus>
</clustering>
</event>
<event>
 9    1  0.3846604E-005  0.9742776E+02  0.7546771E-02  0.1291324E+00
          3   -1    0    0  502    0  0.00000000000E+00  0.00000000000E+00  0.12303228532E+03  0.12303228532E+03  0.00000000000E+00 0. -1.
         -4   -1    0    0    0  501 -0.00000000000E+00 -0.00000000000E+00 -0.28246272757E+03  0.28246272757E+03  0.00000000000E+00 0.  1.
         23    2    1    2    0    0 -0.40249118684E+02  0.13730240901E+02 -0.20515329146E+03  0.22854055108E+03  0.91292931943E+02 0.  0.
        -24    2    1    2    0    0 -0.21314580921E+02  0.19769953933E+02  0.60692153664E+02  0.10528555475E+03  0.80971279380E+02 0.  0.
         13    1    4    4    0    0  0.12417817446E+02 -0.20726550220E+02  0.43654409943E+02  0.49894885325E+02  0.00000000000E+00 0. -1.
        -14    1    4    4    0    0 -0.33732398367E+02  0.40496504154E+02  0.17037743721E+02  0.55390669425E+02  0.00000000000E+00 0.  1.
        -11    1    3    3    0    0 -0.49777346910E+02  0.35265883801E+02 -0.19223148159E+03  0.20167897595E+03  0.00000000000E+00 0.  1.
         11    1    3    3    0    0  0.95282282263E+01 -0.21535642900E+02 -0.12921809864E+02  0.26861575129E+02  0.00000000000E+00 0. -1.
         21    1    1    2  502  501  0.61563699605E+02 -0.33500194834E+02 -0.14969304465E+02  0.71668907060E+02  0.00000000000E+00 0. -1.
<scales pt_clust_5="13000.00000" pt_clust_6="13000.00000" pt_clust_7="13000.00000" pt_clust_8="13000.00000" pt_clust_9="70.08817"></scales>
<clustering>
<clus scale="   70.088">  1  9  2 -1</clus>
<clus scale="   80.971">  5  6 -1 -1</clus>
<clus scale="   87.830">  1  5  2 -1</clus>
<clus scale="   91.293">  7  8 -1 -1</clus>
<clus scale="   70.088">  1  5  2 -1</clus>
</clustering>
</event>
<event>
 9    1  0.3846604E-005  0.1024211E+03  0.7546771E-02  0.1281217E+00
          1   -1    0    0  502    0  0.00000000000E+00  0.00000000000E+00  0.79712347709E+02  0.79712347709E+02  0.00000000000E+00 0. -1.
         -2   -1    0    0    0  501 -0.00000000000E+00 -0.00000000000E+00 -0.72989762432E+03  0.72989762432E+03  0.00000000000E+00 0.  1.
        -24    2    1    2    0    0 -0.16287651059E+02  0.41730046231E+02 -0.47357150667E+03  0.48614786370E+03  0.10031494964E+03 0.  0.
         23    2    1    2    0    0 -0.15386250785E+01  0.24746849422E+02  0.36566200642E+02  0.99447256953E+02  0.89094870574E+02 0.  0.
         11    1    3    3    0    0 -0.37380106493E+01  0.35010005463E+02 -0.44057526965E+02  0.56398039756E+02  0.00000000000E+00 0. -1.
        -12    1    3    3    0    0 -0.12549640409E+02  0.67200407678E+01 -0.42951397970E+03  0.42974982395E+03  0.00000000000E+00 0.  1.
        -13    1    4    4    0    0 -0.11499589903E+02 -0.29188363252E+02 -0.34395061402E+01  0.31559963874E+02  0.00000000000E+00 0.  1.
         13    1    4    4    0    0  0.99609648246E+01  0.53935212674E+02  0.40005706782E+02  0.67887293079E+02  0.00000000000E+00 0. -1.
         21    1    1    2  502  501  0.17826276137E+02 -0.66476895653E+02 -0.21317997058E+03  0.22401485137E+03  0.00000000000E+00 0.  1.
<scales pt_clust_5="13000.00000" pt_clust_6="13000.00000" pt_clust_7="13000.00000" pt_clust_8="13000.00000" pt_clust_9="68.82553"></scales>
<clustering>
<clus scale="   68.826">  2  9  1 -1</clus>
<clus scale="   89.095">  7  8 -1 -1</clus>
<clus scale="   91.460">  1  7  2 -1</clus>
<clus scale="  100.315">  5  6 -1 -1</clus>
<clus scale="   91.460">  1  5  2 -1</clus>
</clustering>
</event>
<event>
 9    1  0.3846604E-005  0.1131487E+03  0.7546771E-02  0.1264520E+00
          1   -1    0    0  502    0  0.00000000000E+00  0.00000000000E+00  0.17184375460E+03  0.17184375460E+03  0.00000000000E+00 0. -1.
         -2   -1    0    0    0  501 -0.00000000000E+00 -0.00000000000E+00 -0.16136277915E+03  0.16136277915E+03  0.00000000000E+00 0.  1.
         23    2    1    2    0    0 -0.39543895546E+01  0.62038018359E+02 -0.95497719361E+02  0.14533211576E+03  0.90206743367E+02 0.  0.
        -24    2    1    2    0    0  0.15942513540E+02 -0.96772546262E+02  0.90639105932E+02  0.14805601103E+03  0.63922182620E+02 0.  0.
         13    1    4    4    0    0 -0.23932105773E+02 -0.23535068535E+02  0.23089190986E+02  0.40740101596E+02  0.00000000000E+00 0. -1.
        -14    1    4    4    0    0  0.39874619313E+02 -0.73237477726E+02  0.67549914946E+02  0.10731590944E+03  0.00000000000E+00 0.  1.
        -11    1    3    3    0    0  0.17689219413E+01  0.22133422900E+02 -0.10209614799E+03  0.10448273028E+03  0.00000000000E+00 0.  1.
         11    1    3    3    0    0 -0.57233114959E+01  0.39904595460E+02  0.65984286248E+01  0.40849385474E+02  0.00000000000E+00 0. -1.
         21    1    1    2  502  501 -0.11988123986E+02  0.34734527902E+02  0.15339588878E+02  0.39818406952E+02  0.00000000000E+00 0.  1.
<scales pt_clust_5="13000.00000" pt_clust_6="13000.00000" pt_clust_7="13000.00000" pt_clust_8="13000.00000" pt_clust_9="36.74510"></scales>
<clustering>
<clus scale="   36.745">  1  9  2 -1</clus>
<clus scale="   63.922">  5  6 -1 -1</clus>
<clus scale="   90.207">  7  8 -1 -1</clus>
<clus scale="   93.549">  1  5  2 -1</clus>
<clus scale="   36.745">  1  5  2 -1</clus>
</clustering>
</event>
<event>
 9    1  0.3846604E-005  0.1657607E+03  0.7546771E-02  0.1184130E+00
          1   -1    0    0  502    0  0.00000000000E+00  0.00000000000E+00  0.65080794354E+03  0.65080794354E+03  0.00000000000E+00 0. -1.
         -2   -1    0    0    0  501 -0.00000000000E+00 -0.00000000000E+00 -0.13830673453E+04  0.13830673453E+04  0.00000000000E+00 0.  1.
         23    2    1    2    0    0 -0.14986759127E+03 -0.62627066361E+02 -0.34495676646E+03  0.39230351031E+03  0.92327835032E+02 0.  0.
        -24    2    1    2    0    0  0.12008366254E+03 -0.69446596861E+02  0.61226795467E+03  0.63287365755E+03  0.80088090684E+02 0.  0.
         13    1    4    4    0    0  0.10654512241E+03 -0.83938799976E+02  0.57357184631E+03  0.58939142183E+03  0.00000000000E+00 0. -1.
        -14    1    4    4    0    0  0.13538540134E+02  0.14492203115E+02  0.38696108363E+02  0.43482235712E+02  0.00000000000E+00 0.  1.
        -11    1    3    3    0    0 -0.12998530370E+02 -0.17629974898E+02 -0.41494946096E+01  0.22293409614E+02  0.00000000000E+00 0. -1.
         11    1    3    3    0    0 -0.13686906090E+03 -0.44997091463E+02 -0.34080727185E+03  0.37001010070E+03  0.00000000000E+00 0.  1.
         21    1    1    2  502  501  0.29783928726E+02  0.13207366322E+03 -0.99957059003E+03  0.10086981210E+04  0.00000000000E+00 0.  1.
<scales pt_clust_5="13000.00000" pt_clust_6="13000.00000" pt_clust_7="13000.00000" pt_clust_8="13000.00000" pt_clust_9="135.39031"></scales>
<clustering>
<clus scale="   80.088">  5  6 -1 -1</clus>
<clus scale="   92.328">  7  8 -1 -1</clus>
<clus scale="  135.390">  2  9  1 -1</clus>
<clus scale="  159.268">  1  5  2 -1</clus>
<clus scale="  159.268">  1  5  2 -1</clus>
</clustering>
</event>
<event>
 9    1  0.3846604E-005  0.1026669E+03  0.7546771E-02  0.1275773E+00
         -2   -1    0    0    0  501 -0.00000000000E+00  0.00000000000E+00  0.68799565517E+02  0.68799565517E+02  0.00000000000E+00 0.  1.
          1   -1    0    0  502    0  0.00000000000E+00 -0.00000000000E+00 -0.30130550994E+03  0.30130550994E+03  0.00000000000E+00 0. -1.
        -24    2    1    2    0    0 -0.60843973547E+02  0.12866176604E+02 -0.16985547274E+02  0.10288628265E+03  0.80184479321E+02 0.  0.
         23    2    1    2    0    0  0.51584519092E+02 -0.33571998778E+02 -0.22105288310E+03  0.24387190929E+03  0.82589886193E+02 0.  0.
         11    1    3    3    0    0 -0.35107882673E+02  0.46311174343E+02 -0.17467012098E+02  0.60682656554E+02  0.00000000000E+00 0. -1.
        -12    1    3    3    0    0 -0.25736090874E+02 -0.33444997740E+02  0.48146482325E+00  0.42203626096E+02  0.00000000000E+00 0.  1.
        -11    1    4    4    0    0  0.53166886211E+02  0.34950102401E+01 -0.18351542478E+03  0.19109380948E+03  0.00000000000E+00 0. -1.
         11    1    4    4    0    0 -0.15823671187E+01 -0.37067009018E+02 -0.37537458321E+02  0.52778099818E+02  0.00000000000E+00 0.  1.
         21    1    1    2  502  501  0.92594544551E+01  0.20705822174E+02  0.55324859599E+01  0.23346883510E+02  0.00000000000E+00 0.  1.
<scales pt_clust_5="13000.00000" pt_clust_6="13000.00000" pt_clust_7="13000.00000" pt_clust_8="13000.00000" pt_clust_9="22.68190"></scales>
<clustering>
<clus scale="   22.682">  1  9  2 -1</clus>
<clus scale="   80.184">  5  6 -1 -1</clus>
<clus scale="   82.590">  7  8 -1 -1</clus>
<clus scale="  100.742">  1  5  2 -1</clus>
<clus scale="  102.667">  2  5  1 -1</clus>
</clustering>
</event>
<event>
 9    1  0.3846604E-005  0.1146067E+03  0.7546771E-02  0.1252645E+00
          1   -1    0    0  502    0  0.00000000000E+00  0.00000000000E+00  0.25972043473E+03  0.25972043473E+03  0.00000000000E+00 0. -1.
         -2   -1    0    0    0  501 -0.00000000000E+00 -0.00000000000E+00 -0.11288838732E+03  0.11288838732E+03  0.00000000000E+00 0.  1.
         23    2    1    2    0    0  0.89930140626E+00 -0.82636461855E+02 -0.33757647453E+02  0.13051637199E+03  0.95212136958E+02 0.  0.
        -24    2    1    2    0    0 -0.98116497488E+01  0.57625739685E+02  0.18359625161E+03  0.21537156760E+03  0.96230630149E+02 0.  0.
         13    1    4    4    0    0  0.37312939185E+02 -0.10465661946E+01  0.59398491459E+02  0.70153627982E+02  0.00000000000E+00 0. -1.
        -14    1    4    4    0    0 -0.47124588934E+02  0.58672305880E+02  0.12419776016E+03  0.14521793962E+03  0.00000000000E+00 0.  1.
        -13    1    3    3    0    0  0.20674276152E+02  0.60582422499E+01  0.16072351203E+02  0.26878401491E+02  0.00000000000E+00 0. -1.
         13    1    3    3    0    0 -0.19774974745E+02 -0.88694704105E+02 -0.49829998655E+02  0.10363797050E+03  0.00000000000E+00 0.  1.
         21    1    1    2  502  501  0.89123483425E+01  0.25010722170E+02 -0.30065567523E+01  0.26720882470E+02  0.00000000000E+00 0. -1.
<scales pt_clust_5="13000.00000" pt_clust_6="13000.00000" pt_clust_7="13000.00000" pt_clust_8="13000.00000" pt_clust_9="26.55120"></scales>
<clustering>
<clus scale="   26.551">  2  9  1 -1</clus>
<clus scale="   95.212">  7  8 -1 -1</clus>
<clus scale="   96.231">  5  6 -1 -1</clus>
<clus scale="  113.753">  2  7  1 -1</clus>
<clus scale="  114.607">  1  5  2 -1</clus>
</clustering>
</event>
<event>
 9    1  0.3846604E-005  0.1346981E+03  0.7546771E-02  0.1223966E+00
         -4   -1    0    0    0  501 -0.00000000000E+00  0.00000000000E+00  0.31883984099E+02  0.31883984099E+02  0.00000000000E+00 0.  1.
          3   -1    0    0  502    0  0.00000000000E+00 -0.00000000000E+00 -0.10349939369E+04  0.10349939369E+04  0.00000000000E+00 0. -1.
         23    2    1    2    0    0 -0.72788445998E+02  0.12516348845E+03 -0.50408788375E+03  0.53276023640E+03  0.93620607954E+02 0.  0.
        -24    2    1    2    0    0  0.14471658442E+02 -0.69001017443E+02 -0.32764349454E+03  0.34457695900E+03  0.80077786258E+02 0.  0.
         11    1    4    4    0    0  0.43074253539E+02 -0.64752732635E+02 -0.24016122990E+03  0.25243954534E+03  0.00000000000E+00 0. -1.
        -12    1    4    4    0    0 -0.28602595097E+02 -0.42482848079E+01 -0.87482264634E+02  0.92137413658E+02  0.00000000000E+00 0.  1.
        -13    1    3    3    0    0 -0.94509970578E+02  0.11368032305E+03 -0.43467616149E+03  0.45912821276E+03  0.00000000000E+00 0.  1.
         13    1    3    3    0    0  0.21721524580E+02  0.11483165394E+02 -0.69411722261E+02  0.73632023637E+02  0.00000000000E+00 0. -1.
         21    1    1    2  502  501  0.58316787556E+02 -0.56162471005E+02 -0.17137857452E+03  0.18954072561E+03  0.00000000000E+00 0.  1.
<scales pt_clust_5="13000.00000" pt_clust_6="13000.00000" pt_clust_7="13000.00000" pt_clust_8="13000.00000" pt_clust_9="80.96339"></scales>
<clustering>
<clus scale="   80.078">  5  6 -1 -1</clus>
<clus scale="   80.963">  1  9  2 -1</clus>
<clus scale="   93.621">  7  8 -1 -1</clus>
<clus scale="  125.663">  2  5  1 -1</clus>
<clus scale="  125.663">  2  5  1 -1</clus>
</clustering>
</event>
<event>
 9    1  0.3846604E-005  0.1157242E+03  0.7546771E-02  0.1252642E+00
          1   -1    0    0  502    0  0.00000000000E+00  0.00000000000E+00  0.69102401651E+02  0.69102401651E+02  0.00000000000E+00 0. -1.
         -2   -1    0    0    0  501 -0.00000000000E+00 -0.00000000000E+00 -0.37650416276E+03  0.37650416276E+03  0.00000000000E+00 0.  1.
        -24    2    1    2    0    0  0.18390805657E+02  0.86061235141E+02 -0.21274219456E+03  0.24477632487E+03  0.83135130622E+02 0.  0.
         23    2    1    2    0    0 -0.32381695137E+02 -0.61206137969E+02 -0.12925554715E+02  0.11426252307E+03  0.89967153504E+02 0.  0.
         13    1    3    3    0    0  0.33037088041E+02  0.22804163097E+01 -0.37794279529E+02  0.50249945770E+02  0.00000000000E+00 0. -1.
        -14    1    3    3    0    0 -0.14646282384E+02  0.83780818831E+02 -0.17494791503E+03  0.19452637910E+03  0.00000000000E+00 0.  1.
        -13    1    4    4    0    0 -0.33174159535E+02 -0.84104192085E+02 -0.13070487237E+02  0.91350301717E+02  0.00000000000E+00 0. -1.
         13    1    4    4    0    0  0.79246439777E+00  0.22898054116E+02  0.14493252160E+00  0.22912221358E+02  0.00000000000E+00 0.  1.
         21    1    1    2  502  501  0.13990889480E+02 -0.24855097172E+02 -0.81734011827E+02  0.86567716461E+02  0.00000000000E+00 0. -1.
<scales pt_clust_5="13000.00000" pt_clust_6="13000.00000" pt_clust_7="13000.00000" pt_clust_8="13000.00000" pt_clust_9="28.52229"></scales>
<clustering>
<clus scale="   28.522">  2  9  1 -1</clus>
<clus scale="   83.135">  5  6 -1 -1</clus>
<clus scale="   89.967">  7  8 -1 -1</clus>
<clus scale="  110.496">  2  5  1 -1</clus>
<clus scale="  115.724">  1  5  2 -1</clus>
</clustering>
</event>
<event>
 9    1  0.3846604E-005  0.1089555E+03  0.7546771E-02  0.1267046E+00
          3   -1    0    0  502    0  0.00000000000E+00  0.00000000000E+00  0.23264521068E+03  0.23264521068E+03  0.00000000000E+00 0. -1.
         -4   -1    0    0    0  501 -0.00000000000E+00 -0.00000000000E+00 -0.10412728501E+03  0.10412728501E+03  0.00000000000E+00 0.  1.
         23    2    1    2    0    0 -0.63957862182E+02  0.35065548625E+02 -0.24261091590E+02  0.11865410399E+03  0.90388024612E+02 0.  0.
        -24    2    1    2    0    0  0.52080377198E+01 -0.38534745953E+02  0.12530567166E+03  0.15316947390E+03  0.79040028351E+02 0.  0.
         13    1    4    4    0    0 -0.13536062426E+02 -0.56948837070E+02  0.65489996137E+02  0.87836977542E+02  0.00000000000E+00 0. -1.
        -14    1    4    4    0    0  0.18744100146E+02  0.18414091117E+02  0.59815675524E+02  0.65332496358E+02  0.00000000000E+00 0.  1.
        -13    1    3    3    0    0 -0.74036758966E+02 -0.55998145593E+01 -0.15938769347E+02  0.75939739067E+02  0.00000000000E+00 0. -1.
         13    1    3    3    0    0  0.10078896784E+02  0.40665363184E+02 -0.83223222428E+01  0.42714364923E+02  0.00000000000E+00 0.  1.
         21    1    1    2  502  501  0.58749824463E+02  0.34691973283E+01  0.27473345602E+02  0.64948917797E+02  0.00000000000E+00 0.  1.
<scales pt_clust_5="13000.00000" pt_clust_6="13000.00000" pt_clust_7="13000.00000" pt_clust_8="13000.00000" pt_clust_9="58.85216"></scales>
<clustering>
<clus scale="   58.852">  1  9  2 -1</clus>
<clus scale="   79.040">  5  6 -1 -1</clus>
<clus scale="   90.388">  7  8 -1 -1</clus>
<clus scale="   99.743">  1  5  2 -1</clus>
<clus scale="   58.852">  1  5  2 -1</clus>
</clustering>
</event>
<event>
 9    1  0.3846604E-005  0.9661616E+02  0.7546771E-02  0.1290335E+00
          1   -1    0    0  502    0  0.00000000000E+00  0.00000000000E+00  0.10972080728E+03  0.10972080728E+03  0.00000000000E+00 0. -1.
         -2   -1    0    0    0  501 -0.00000000000E+00 -0.00000000000E+00 -0.23849882892E+03  0.23849882892E+03  0.00000000000E+00 0.  1.
        -24    2    1    2    0    0 -0.90498777179E+01 -0.83223952337E+01 -0.16662929511E+03  0.18797743739E+03  0.86133805379E+02 0.  0.
         23    2    1    2    0    0  0.28287842444E+02 -0.22336655729E+02  0.62573191961E+02  0.11641013353E+03  0.91306005375E+02 0.  0.
         13    1    3    3    0    0  0.37388077330E+02 -0.89300319105E+01 -0.55280279269E+02  0.67331441930E+02  0.00000000000E+00 0. -1.
        -14    1    3    3    0    0 -0.46437955048E+02  0.60763667680E+00 -0.11134901584E+03  0.12064599546E+03  0.00000000000E+00 0.  1.
        -11    1    4    4    0    0 -0.27513147693E+02 -0.23426250861E+02  0.45381501435E+02  0.58010716233E+02  0.00000000000E+00 0.  1.
         11    1    4    4    0    0  0.55800990137E+02  0.10895951319E+01  0.17191690526E+02  0.58399417300E+02  0.00000000000E+00 0. -1.
         21    1    1    2  502  501 -0.19237964726E+02  0.30659050963E+02 -0.24721918490E+02  0.43832065278E+02  0.00000000000E+00 0.  1.
<scales pt_clust_5="13000.00000" pt_clust_6="13000.00000" pt_clust_7="13000.00000" pt_clust_8="13000.00000" pt_clust_9="36.19498"></scales>
<clustering>
<clus scale="   36.195">  2  9  1 -1</clus>
<clus scale="   86.134">  5  6 -1 -1</clus>
<clus scale="   91.306">  7  8 -1 -1</clus>
<clus scale="   91.744">  2  5  1 -1</clus>
<clus scale="   96.616">  1  5  2 -1</clus>
</clustering>
</event>
<event>
 9    1  0.3846604E-005  0.1985029E+03  0.7546771E-02  0.1152157E+00
         -2   -1    0    0    0  501 -0.00000000000E+00  0.00000000000E+00  0.37659975736E+03  0.37659975736E+03  0.00000000000E+00 0.  1.
          1   -1    0    0  502    0  0.00000000000E+00 -0.00000000000E+00 -0.31214351843E+03  0.31214351843E+03  0.00000000000E+00 0. -1.
         23    2    1    2    0    0 -0.10661409018E+03 -0.16859367400E+03  0.26633275120E+03  0.34517193248E+03  0.91761307041E+02 0.  0.
        -24    2    1    2    0    0  0.66089812709E+02  0.16057141184E+03 -0.22585764626E+03  0.29580452908E+03  0.79609053524E+02 0.  0.
         11    1    4    4    0    0  0.45519920238E+02  0.21390424103E+02 -0.61878000230E+02  0.79740205005E+02  0.00000000000E+00 0. -1.
        -12    1    4    4    0    0  0.20569892471E+02  0.13918098774E+03 -0.16397964603E+03  0.21606432407E+03  0.00000000000E+00 0.  1.
        -11    1    3    3    0    0 -0.23512456333E+02 -0.80980704476E+01  0.87311148986E+02  0.90783539725E+02  0.00000000000E+00 0.  1.
         11    1    3    3    0    0 -0.83101633844E+02 -0.16049560355E+03  0.17902160222E+03  0.25438839275E+03  0.00000000000E+00 0. -1.
         21    1    1    2  502  501  0.40524277468E+02  0.80222621552E+01  0.23981133985E+02  0.47766814229E+02  0.00000000000E+00 0.  1.
<scales pt_clust_5="13000.00000" pt_clust_6="13000.00000" pt_clust_7="13000.00000" pt_clust_8="13000.00000" pt_clust_9="41.31070"></scales>
<clustering>
<clus scale="   41.311">  1  9  2 -1</clus>
<clus scale="   79.609">  5  6 -1 -1</clus>
<clus scale="   91.761">  7  8 -1 -1</clus>
<clus scale="  193.186">  2  5  1 -1</clus>
<clus scale="  193.186">  2  5  1 -1</clus>
</clustering>
</event>
<event>
 9    1  0.3846604E-005  0.1118352E+03  0.7546771E-02  0.1260845E+00
          1   -1    0    0  502    0  0.00000000000E+00  0.00000000000E+00  0.47905021940E+03  0.47905021940E+03  0.00000000000E+00 0. -1.
         -2   -1    0    0    0  501 -0.00000000000E+00 -0.00000000000E+00 -0.16803091340E+03  0.16803091340E+03  0.00000000000E+00 0.  1.
         23    2    1    2    0    0  0.77631993456E+01  0.15880228724E+02 -0.11039688240E+03  0.14439220753E+03  0.91373896835E+02 0.  0.
        -24    2    1    2    0    0 -0.59716957861E+02  0.32257661941E+02  0.41852913009E+03  0.43180320988E+03  0.81735595176E+02 0.  0.
         11    1    4    4    0    0 -0.55385261946E+02  0.57238324311E+02  0.34324005523E+03  0.35235988496E+03  0.00000000000E+00 0. -1.
        -12    1    4    4    0    0 -0.43316959142E+01 -0.24980662370E+02  0.75289074857E+02  0.79443324923E+02  0.00000000000E+00 0.  1.
        -13    1    3    3    0    0  0.43297759159E+02  0.31698459281E+02 -0.56449460943E+02  0.77884721928E+02  0.00000000000E+00 0.  1.
         13    1    3    3    0    0 -0.35534559814E+02 -0.15818230557E+02 -0.53947421456E+02  0.66507485600E+02  0.00000000000E+00 0. -1.
         21    1    1    2  502  501  0.51953758515E+02 -0.48137890665E+02  0.28870583131E+01  0.70885715396E+02  0.00000000000E+00 0.  1.
<scales pt_clust_5="13000.00000" pt_clust_6="13000.00000" pt_clust_7="13000.00000" pt_clust_8="13000.00000" pt_clust_9="70.82690"></scales>
<clustering>
<clus scale="   70.827">  2  9  1 -1</clus>
<clus scale="   81.736">  5  6 -1 -1</clus>
<clus scale="   91.374">  7  8 -1 -1</clus>
<clus scale="  104.109">  1  5  2 -1</clus>
<clus scale="  104.109">  1  5  2 -1</clus>
</clustering>
</event>
<event>
 9    1  0.3846604E-005  0.1517829E+03  0.7546771E-02  0.1199337E+00
         -2   -1    0    0    0  501 -0.00000000000E+00  0.00000000000E+00  0.25216515706E+03  0.25216515706E+03  0.00000000000E+00 0.  1.
          1   -1    0    0  502    0  0.00000000000E+00 -0.00000000000E+00 -0.32304819408E+03  0.32304819408E+03  0.00000000000E+00 0. -1.
         23    2    1    2    0    0  0.63815079578E+02  0.10687471403E+03  0.52567740414E+02  0.16225796403E+03  0.89831568386E+02 0.  0.
        -24    2    1    2    0    0  0.89783742819E+02 -0.98033705988E+02 -0.19055971190E+03  0.24510315820E+03  0.78043746550E+02 0.  0.
         11    1    4    4    0    0  0.53467853451E+02 -0.15887917402E+02 -0.11468021862E+03  0.12752564375E+03  0.00000000000E+00 0. -1.
        -12    1    4    4    0    0  0.36315889368E+02 -0.82145788586E+02 -0.75879493287E+02  0.11757751445E+03  0.00000000000E+00 0.  1.
        -11    1    3    3    0    0  0.17134944674E+02  0.90339201376E+02  0.27166592042E+01  0.91989987887E+02  0.00000000000E+00 0.  1.
         11    1    3    3    0    0  0.46680134904E+02  0.16535512651E+02  0.49851081209E+02  0.70267976141E+02  0.00000000000E+00 0. -1.
         21    1    1    2  502  501 -0.15359882240E+03 -0.88410080385E+01  0.67108934468E+02  0.16785222891E+03  0.00000000000E+00 0.  1.
<scales pt_clust_5="13000.00000" pt_clust_6="13000.00000" pt_clust_7="13000.00000" pt_clust_8="13000.00000" pt_clust_9="128.19022"></scales>
<clustering>
<clus scale="   78.044">  5  6 -1 -1</clus>
<clus scale="   89.832">  7  8 -1 -1</clus>
<clus scale="  153.507">  1  7  2 -1</clus>
<clus scale="  128.190">  1  9  2 -1</clus>
<clus scale="  150.079">  2  5  1 -1</clus>
</clustering>
</event>
<event>
 9    1  0.3846604E-005  0.9496285E+02  0.7546771E-02  0.1296718E+00
          1   -1    0    0  502    0  0.00000000000E+00  0.00000000000E+00  0.50640779110E+03  0.50640779110E+03  0.00000000000E+00 0. -1.
         -2   -1    0    0    0  501 -0.00000000000E+00 -0.00000000000E+00 -0.36516820234E+02  0.36516820234E+02  0.00000000000E+00 0.  1.
         23    2    1    2    0    0 -0.31148484562E+02 -0.12068107820E+02  0.64416655083E+02  0.11615998015E+03  0.90707046139E+02 0.  0.
        -24    2    1    2    0    0  0.17018180537E+02 -0.28908034221E+02  0.30442851160E+03  0.31681480512E+03  0.81053125530E+02 0.  0.
         13    1    4    4    0    0  0.47071826014E+02 -0.61401359210E+01  0.20632046361E+03  0.21171110453E+03  0.00000000000E+00 0. -1.
        -14    1    4    4    0    0 -0.30053645477E+02 -0.22767898300E+02  0.98108047987E+02  0.10510370060E+03  0.00000000000E+00 0.  1.
        -11    1    3    3    0    0  0.19732445803E+02 -0.32839463804E+02  0.11830968083E+02  0.40097027396E+02  0.00000000000E+00 0. -1.
         11    1    3    3    0    0 -0.50880930365E+02  0.20771355983E+02  0.52585687000E+02  0.76062952753E+02  0.00000000000E+00 0.  1.
         21    1    1    2  502  501  0.14130304025E+02  0.40976142041E+02  0.10104580419E+03  0.10994982607E+03  0.00000000000E+00 0.  1.
<scales pt_clust_5="13000.00000" pt_clust_6="13000.00000" pt_clust_7="13000.00000" pt_clust_8="13000.00000" pt_clust_9="43.34409"></scales>
<clustering>
<clus scale="   43.344">  1  9  2 -1</clus>
<clus scale="   81.053">  5  6 -1 -1</clus>
<clus scale="   85.789">  1  5  2 -1</clus>
<clus scale="   90.707">  7  8 -1 -1</clus>
<clus scale="   43.344">  1  5  2 -1</clus>
</clustering>
</event>
<event>
 9    1  0.3846604E-005  0.1645019E+03  0.7546771E-02  0.1185436E+00
         -2   -1    0    0    0  501 -0.00000000000E+00  0.00000000000E+00  0.11222757337E+03  0.11222757337E+03  0.00000000000E+00 0.  1.
          1   -1    0    0  502    0  0.00000000000E+00 -0.00000000000E+00 -0.33205043767E+03  0.33205043767E+03  0.00000000000E+00 0. -1.
         23    2    1    2    0    0  0.14616409069E+03 -0.94328490135E+01 -0.63848190799E+02  0.18439076138E+03  0.92035000781E+02 0.  0.
        -24    2    1    2    0    0 -0.12764928906E+03  0.34264770780E+02 -0.16640840981E+03  0.22720261914E+03  0.80379448718E+02 0.  0.
         11    1    4    4    0    0 -0.10394635994E+03  0.55270555592E+02 -0.15238913452E+03  0.19256720483E+03  0.00000000000E+00 0. -1.
        -12    1    4    4    0    0 -0.23702929122E+02 -0.21005784812E+02 -0.14019275296E+02  0.34635414309E+02  0.00000000000E+00 0.  1.
        -11    1    3    3    0    0  0.11799116201E+02  0.20520441494E+02 -0.37321649771E+02  0.44195171726E+02  0.00000000000E+00 0. -1.
         11    1    3    3    0    0  0.13436497449E+03 -0.29953290507E+02 -0.26526541028E+02  0.14019558966E+03  0.00000000000E+00 0.  1.
         21    1    1    2  502  501 -0.18514801629E+02 -0.24831921766E+02  0.10433736315E+02  0.32684630508E+02  0.00000000000E+00 0. -1.
<scales pt_clust_5="13000.00000" pt_clust_6="13000.00000" pt_clust_7="13000.00000" pt_clust_8="13000.00000" pt_clust_9="30.97454"></scales>
<clustering>
<clus scale="   30.975">  1  9  2 -1</clus>
<clus scale="   80.379">  5  6 -1 -1</clus>
<clus scale="   92.035">  7  8 -1 -1</clus>
<clus scale="  158.276">  2  5  1 -1</clus>
<clus scale="  158.276">  2  5  1 -1</clus>
</clustering>
</event>
<event>
 9    1  0.3846604E-005  0.9492314E+02  0.7546771E-02  0.1298200E+00
          1   -1    0    0  502    0  0.00000000000E+00  0.00000000000E+00  0.33188568012E+03  0.33188568012E+03  0.00000000000E+00 0. -1.
         -2   -1    0    0    0  501 -0.00000000000E+00 -0.00000000000E+00 -0.41296199652E+02  0.41296199652E+02  0.00000000000E+00 0.  1.
         23    2    1    2    0    0  0.19285389433E+02  0.28822316454E+02  0.81342564221E+02  0.12815047527E+03  0.92753864531E+02 0.  0.
        -24    2    1    2    0    0 -0.16233793495E+02 -0.46214429051E+01  0.20386412081E+03  0.22005203291E+03  0.81101317181E+02 0.  0.
         11    1    4    4    0    0 -0.36024358289E+02 -0.20429694051E+02  0.53947551163E+02  0.68010771688E+02  0.00000000000E+00 0. -1.
        -12    1    4    4    0    0  0.19790564794E+02  0.15808251145E+02  0.14991656965E+03  0.15204126122E+03  0.00000000000E+00 0.  1.
        -11    1    3    3    0    0  0.12709795928E+02  0.62897207828E+02  0.56151835486E+02  0.85267967570E+02  0.00000000000E+00 0.  1.
         11    1    3    3    0    0  0.65755935054E+01 -0.34074891374E+02  0.25190728736E+02  0.42882507696E+02  0.00000000000E+00 0. -1.
         21    1    1    2  502  501 -0.30515959382E+01 -0.24200873549E+02  0.53827954289E+01  0.24979371588E+02  0.00000000000E+00 0.  1.
<scales pt_clust_5="13000.00000" pt_clust_6="13000.00000" pt_clust_7="13000.00000" pt_clust_8="13000.00000" pt_clust_9="24.39251"></scales>
<clustering>
<clus scale="   24.393">  2  9  1 -1</clus>
<clus scale="   81.101">  5  6 -1 -1</clus>
<clus scale="   83.574">  1  5  2 -1</clus>
<clus scale="   92.754">  7  8 -1 -1</clus>
<clus scale="   83.574">  1  5  2 -1</clus>
</clustering>
</event>
<event>
 9    1  0.3846604E-005  0.2251165E+03  0.7546771E-02  0.1131178E+00
         -2   -1    0    0    0  501 -0.00000000000E+00  0.00000000000E+00  0.66696440311E+02  0.66696440311E+02  0.00000000000E+00 0.  1.
          1   -1    0    0  502    0  0.00000000000E+00 -0.00000000000E+00 -0.11724623928E+04  0.11724623928E+04  0.00000000000E+00 0. -1.
         23    2    1    2    0    0  0.12676376762E+03  0.14246999580E+03 -0.27639496670E+03  0.34805731405E+03  0.91558526443E+02 0.  0.
        -24    2    1    2    0    0 -0.14574209800E+03 -0.15381167442E+03 -0.83771831091E+03  0.86746915708E+03  0.76367399699E+02 0.  0.
         13    1    4    4    0    0 -0.29191696350E+02 -0.80657707072E+02 -0.26926708325E+03  0.28259968678E+03  0.00000000000E+00 0. -1.
        -14    1    4    4    0    0 -0.11655040165E+03 -0.73153967348E+02 -0.56845122766E+03  0.58486947030E+03  0.00000000000E+00 0.  1.
        -13    1    3    3    0    0  0.13317310097E+03  0.10036186715E+03 -0.23870260211E+03  0.29118123472E+03  0.00000000000E+00 0.  1.
         13    1    3    3    0    0 -0.64093333428E+01  0.42108128645E+02 -0.37692364589E+02  0.56876079332E+02  0.00000000000E+00 0. -1.
         21    1    1    2  502  501  0.18978330378E+02  0.11341678622E+02  0.83473250893E+01  0.23632362007E+02  0.00000000000E+00 0.  1.
<scales pt_clust_5="13000.00000" pt_clust_6="13000.00000" pt_clust_7="13000.00000" pt_clust_8="13000.00000" pt_clust_9="22.10906"></scales>
<clustering>
<clus scale="   22.109">  1  9  2 -1</clus>
<clus scale="   76.367">  5  6 -1 -1</clus>
<clus scale="   91.559">  7  8 -1 -1</clus>
<clus scale="  219.377">  2  5  1 -1</clus>
<clus scale="  219.377">  2  5  1 -1</clus>
</clustering>
</event>
<event>
 9    1  0.3846604E-005  0.1339565E+03  0.7546771E-02  0.1225067E+00
          1   -1    0    0  502    0  0.00000000000E+00  0.00000000000E+00  0.17776391083E+03  0.17776391083E+03  0.00000000000E+00 0. -1.
         -2   -1    0    0    0  501 -0.00000000000E+00 -0.00000000000E+00 -0.13943405976E+03  0.13943405976E+03  0.00000000000E+00 0.  1.
         23    2    1    2    0    0  0.82523647492E+02 -0.65201843562E+02  0.31758296649E+02  0.14327672318E+03  0.91968457638E+02 0.  0.
        -24    2    1    2    0    0 -0.58065271394E+02  0.72065476846E+02  0.43847408834E+02  0.12881236863E+03  0.78134642473E+02 0.  0.
         13    1    4    4    0    0 -0.44398546891E+02  0.19966660736E+02  0.55374851777E+02  0.73731083786E+02  0.00000000000E+00 0. -1.
        -14    1    4    4    0    0 -0.13666724503E+02  0.52098816110E+02 -0.11527442944E+02  0.55081284839E+02  0.00000000000E+00 0.  1.
        -11    1    3    3    0    0  0.10092426730E+03 -0.56071601356E+02  0.38424836403E+02  0.12168073086E+03  0.00000000000E+00 0. -1.
         11    1    3    3    0    0 -0.18400619811E+02 -0.91302422053E+01 -0.66665397546E+01  0.21595992324E+02  0.00000000000E+00 0.  1.
         21    1    1    2  502  501 -0.24458376098E+02 -0.68636332842E+01 -0.37275854409E+02  0.45108878784E+02  0.00000000000E+00 0.  1.
<scales pt_clust_5="13000.00000" pt_clust_6="13000.00000" pt_clust_7="13000.00000" pt_clust_8="13000.00000" pt_clust_9="25.40318"></scales>
<clustering>
<clus scale="   25.403">  2  9  1 -1</clus>
<clus scale="   78.135">  5  6 -1 -1</clus>
<clus scale="   91.968">  7  8 -1 -1</clus>
<clus scale="  124.865">  1  5  2 -1</clus>
<clus scale="  124.865">  1  5  2 -1</clus>
</clustering>
</event>
<event>
 9    1  0.3846604E-005  0.9684805E+02  0.7546771E-02  0.1297513E+00
         -2   -1    0    0    0  501 -0.00000000000E+00  0.00000000000E+00  0.22112560419E+03  0.22112560419E+03  0.00000000000E+00 0.  1.
          1   -1    0    0  502    0  0.00000000000E+00 -0.00000000000E+00 -0.78011491000E+02  0.78011491000E+02  0.00000000000E+00 0. -1.
        -24    2    1    2    0    0 -0.84469219978E+01  0.21549009855E+02  0.13557676095E+03  0.15886040158E+03  0.79497539355E+02 0.  0.
         23    2    1    2    0    0 -0.41284129337E+01 -0.12525830844E+01 -0.24961838571E+02  0.99949514295E+02  0.96686086203E+02 0.  0.
         13    1    3    3    0    0  0.21460435745E+02  0.41331968423E+02  0.69094164288E+02  0.83323978870E+02  0.00000000000E+00 0. -1.
        -14    1    3    3    0    0 -0.29907357743E+02 -0.19782958568E+02  0.66482596667E+02  0.75536422714E+02  0.00000000000E+00 0.  1.
        -11    1    4    4    0    0 -0.18624550588E+02  0.33013503046E+02 -0.44065741544E+02  0.58125337382E+02  0.00000000000E+00 0.  1.
         11    1    4    4    0    0  0.14496137654E+02 -0.34266086130E+02  0.19103902974E+02  0.41824176912E+02  0.00000000000E+00 0. -1.
         21    1    1    2  502  501  0.12575334931E+02 -0.20296426770E+02  0.32499190807E+02  0.40327179314E+02  0.00000000000E+00 0. -1.
<scales pt_clust_5="13000.00000" pt_clust_6="13000.00000" pt_clust_7="13000.00000" pt_clust_8="13000.00000" pt_clust_9="23.87643"></scales>
<clustering>
<clus scale="   23.876">  1  9  2 -1</clus>
<clus scale="   79.498">  5  6 -1 -1</clus>
<clus scale="   79.694">  1  5  2 -1</clus>
<clus scale="   96.686">  7  8 -1 -1</clus>
<clus scale="   96.848">  2  5  1 -1</clus>
</clustering>
</event>
<event>
 9    1  0.3846604E-005  0.9324998E+02  0.7546771E-02  0.1302121E+00
         -2   -1    0    0    0  501 -0.00000000000E+00  0.00000000000E+00  0.22199132097E+03  0.22199132097E+03  0.00000000000E+00 0.  1.
          1   -1    0    0  502    0  0.00000000000E+00 -0.00000000000E+00 -0.20863833816E+03  0.20863833816E+03  0.00000000000E+00 0. -1.
        -24    2    1    2    0    0 -0.20437912405E+02 -0.33088982106E+02  0.34155854665E+02  0.95822766202E+02  0.80639885382E+02 0.  0.
         23    2    1    2    0    0  0.71966224566E+01 -0.20488774765E+02 -0.15955633100E+03  0.18548030381E+03  0.92049655483E+02 0.  0.
         11    1    3    3    0    0 -0.49136665901E+02 -0.50443361113E+01  0.19459962749E+02  0.53089993528E+02  0.00000000000E+00 0. -1.
        -12    1    3    3    0    0  0.28698753495E+02 -0.28044645995E+02  0.14695891916E+02  0.42732772674E+02  0.00000000000E+00 0.  1.
        -13    1    4    4    0    0  0.35621696170E+02 -0.30205558222E+02 -0.14453587626E+03  0.15189437287E+03  0.00000000000E+00 0.  1.
         13    1    4    4    0    0 -0.28425073714E+02  0.97167834570E+01 -0.15020454743E+02  0.33585930939E+02  0.00000000000E+00 0. -1.
         21    1    1    2  502  501  0.13241289949E+02  0.53577756871E+02  0.13875345915E+03  0.14932658912E+03  0.00000000000E+00 0.  1.
<scales pt_clust_5="13000.00000" pt_clust_6="13000.00000" pt_clust_7="13000.00000" pt_clust_8="13000.00000" pt_clust_9="55.18974"></scales>
<clustering>
<clus scale="   55.190">  1  9  2 -1</clus>
<clus scale="   80.640">  5  6 -1 -1</clus>
<clus scale="   82.007">  1  5  2 -1</clus>
<clus scale="   92.050">  7  8 -1 -1</clus>
<clus scale="   93.250">  2  5  1 -1</clus>
</clustering>
</event>
<event>
 9    1  0.3846604E-005  0.1472153E+03  0.7546771E-02  0.1206548E+00
          1   -1    0    0  502    0  0.00000000000E+00  0.00000000000E+00  0.30046756611E+03  0.30046756611E+03  0.00000000000E+00 0. -1.
         -2   -1    0    0    0  501 -0.00000000000E+00 -0.00000000000E+00 -0.31821555272E+03  0.31821555272E+03  0.00000000000E+00 0.  1.
         23    2    1    2    0    0 -0.80575865801E+02  0.11389162655E+03 -0.92571393714E+02  0.19215473431E+03  0.94287890193E+02 0.  0.
        -24    2    1    2    0    0 -0.35543818788E+02 -0.11087187355E+03  0.20673518803E+03  0.25076258009E+03  0.81157243715E+02 0.  0.
         13    1    4    4    0    0 -0.52328840519E+02 -0.69224539931E+02  0.86976754899E+02  0.12286293327E+03  0.00000000000E+00 0. -1.
        -14    1    4    4    0    0  0.16785021730E+02 -0.41647333616E+02  0.11975843313E+03  0.12789964682E+03  0.00000000000E+00 0.  1.
        -13    1    3    3    0    0  0.61915942470E+01  0.35884006871E+02  0.89439678683E+01  0.37496564505E+02  0.00000000000E+00 0. -1.
         13    1    3    3    0    0 -0.86767460048E+02  0.78007619675E+02 -0.10151536158E+03  0.15465816981E+03  0.00000000000E+00 0.  1.
         21    1    1    2  502  501  0.11611968459E+03 -0.30197529985E+01 -0.13191178093E+03  0.17576580442E+03  0.00000000000E+00 0. -1.
<scales pt_clust_5="13000.00000" pt_clust_6="13000.00000" pt_clust_7="13000.00000" pt_clust_8="13000.00000" pt_clust_9="116.15894"></scales>
<clustering>
<clus scale="   81.157">  5  6 -1 -1</clus>
<clus scale="   94.288">  7  8 -1 -1</clus>
<clus scale="  116.159">  2  9  1 -1</clus>
<clus scale="  139.171">  1  5  2 -1</clus>
<clus scale="  139.171">  1  5  2 -1</clus>
</clustering>
</event>
<event>
 9    1  0.3846604E-005  0.2645732E+03  0.7546771E-02  0.1105264E+00
          1   -1    0    0  502    0  0.00000000000E+00  0.00000000000E+00  0.45031933576E+03  0.45031933576E+03  0.00000000000E+00 0. -1.
         -2   -1    0    0    0  501 -0.00000000000E+00 -0.00000000000E+00 -0.80099016926E+03  0.80099016926E+03  0.00000000000E+00 0.  1.
         23    2    1    2    0    0 -0.97207816742E+02  0.20258684679E+03 -0.70123401286E+03  0.74282235611E+03  0.97801440776E+02 0.  0.
        -24    2    1    2    0    0  0.12166672581E+03 -0.21498508073E+03  0.38491219161E+03  0.46453479880E+03  0.81325315471E+02 0.  0.
         13    1    4    4    0    0  0.75583867898E+02 -0.15681631880E+03  0.19921401999E+03  0.26455718604E+03  0.00000000000E+00 0. -1.
        -14    1    4    4    0    0  0.46082857914E+02 -0.58168761935E+02  0.18569817163E+03  0.19997761276E+03  0.00000000000E+00 0.  1.
        -11    1    3    3    0    0 -0.37600526324E+02  0.40607048381E+02 -0.31434060206E+03  0.31917510251E+03  0.00000000000E+00 0. -1.
         11    1    3    3    0    0 -0.59607290417E+02  0.16197979841E+03 -0.38689341079E+03  0.42364725359E+03  0.00000000000E+00 0.  1.
         21    1    1    2  502  501 -0.24458909070E+02  0.12398233946E+02 -0.34349012251E+02  0.43952350113E+02  0.00000000000E+00 0.  1.
<scales pt_clust_5="13000.00000" pt_clust_6="13000.00000" pt_clust_7="13000.00000" pt_clust_8="13000.00000" pt_clust_9="27.42179"></scales>
<clustering>
<clus scale="   27.422">  2  9  1 -1</clus>
<clus scale="   81.325">  5  6 -1 -1</clus>
<clus scale="   97.801">  7  8 -1 -1</clus>
<clus scale="  258.936">  1  5  2 -1</clus>
<clus scale="  258.936">  1  5  2 -1</clus>
</clustering>
</event>
<event>
 9    1  0.3846604E-005  0.1225295E+03  0.7546771E-02  0.1240262E+00
          1   -1    0    0  502    0  0.00000000000E+00  0.00000000000E+00  0.53396121497E+03  0.53396121497E+03  0.00000000000E+00 0. -1.
         -2   -1    0    0    0  501 -0.00000000000E+00 -0.00000000000E+00 -0.49534221755E+02  0.49534221755E+02  0.00000000000E+00 0.  1.
         23    2    1    2    0    0  0.34184600379E+02  0.10804038130E+03  0.19432366892E+03  0.24288236286E+03  0.91590627217E+02 0.  0.
        -24    2    1    2    0    0  0.13387227251E+02 -0.66872558197E+02  0.22059294013E+03  0.24686041017E+03  0.87336475658E+02 0.  0.
         13    1    4    4    0    0  0.45984709591E+02 -0.50513211745E+02  0.10179926317E+03  0.12259391526E+03  0.00000000000E+00 0. -1.
        -14    1    4    4    0    0 -0.32597482340E+02 -0.16359346452E+02  0.11879367696E+03  0.12426649491E+03  0.00000000000E+00 0.  1.
        -13    1    3    3    0    0  0.15874401785E+02  0.64197367160E+02  0.31465801825E+02  0.73235205105E+02  0.00000000000E+00 0.  1.
         13    1    3    3    0    0  0.18310198594E+02  0.43843014136E+02  0.16285786709E+03  0.16964715776E+03  0.00000000000E+00 0. -1.
         21    1    1    2  502  501 -0.47571827631E+02 -0.41167823099E+02  0.69510384173E+02  0.93752663699E+02  0.00000000000E+00 0.  1.
<scales pt_clust_5="13000.00000" pt_clust_6="13000.00000" pt_clust_7="13000.00000" pt_clust_8="13000.00000" pt_clust_9="62.91159"></scales>
<clustering>
<clus scale="   62.912">  2  9  1 -1</clus>
<clus scale="   87.336">  5  6 -1 -1</clus>
<clus scale="   91.591">  7  8 -1 -1</clus>
<clus scale="  119.383">  1  5  2 -1</clus>
<clus scale="  119.383">  1  5  2 -1</clus>
</clustering>
</event>
<event>
 9    1  0.3846604E-005  0.1097216E+03  0.7546771E-02  0.1266328E+00
         -2   -1    0    0    0  501 -0.00000000000E+00  0.00000000000E+00  0.24605538852E+03  0.24605538852E+03  0.00000000000E+00 0.  1.
          1   -1    0    0  502    0  0.00000000000E+00 -0.00000000000E+00 -0.11313203807E+03  0.11313203807E+03  0.00000000000E+00 0. -1.
        -24    2    1    2    0    0 -0.13988733932E+02  0.22678811651E+02  0.88583266760E+02  0.12393575943E+03  0.82480689508E+02 0.  0.
         23    2    1    2    0    0  0.85845477633E+01 -0.64629912014E+02 -0.54687211876E+02  0.12756923908E+03  0.95039463534E+02 0.  0.
         13    1    3    3    0    0 -0.38073244580E+02 -0.15728419079E+02  0.38542191398E+02  0.56413257637E+02  0.00000000000E+00 0. -1.
        -14    1    3    3    0    0  0.24084510648E+02  0.38407230730E+02  0.50041075363E+02  0.67522501797E+02  0.00000000000E+00 0.  1.
        -13    1    4    4    0    0  0.50966423568E+01  0.20424652196E+02  0.72834376797E+01  0.22275337149E+02  0.00000000000E+00 0. -1.
         13    1    4    4    0    0  0.34879054065E+01 -0.85054564211E+02 -0.61970649555E+02  0.10529390193E+03  0.00000000000E+00 0.  1.
         21    1    1    2  502  501  0.54041861686E+01  0.41951100363E+02  0.99027295561E+02  0.10768242807E+03  0.00000000000E+00 0. -1.
<scales pt_clust_5="13000.00000" pt_clust_6="13000.00000" pt_clust_7="13000.00000" pt_clust_8="13000.00000" pt_clust_9="42.29775"></scales>
<clustering>
<clus scale="   42.298">  1  9  2 -1</clus>
<clus scale="   82.481">  5  6 -1 -1</clus>
<clus scale="   95.039">  7  8 -1 -1</clus>
<clus scale="   99.042">  1  5  2 -1</clus>
<clus scale="  109.722">  2  5  1 -1</clus>
</clustering>
</event>
<event>
 9    1  0.3846604E-005  0.1663713E+03  0.7546771E-02  0.1206539E+00
          1   -1    0    0  502    0  0.00000000000E+00  0.00000000000E+00  0.12591556225E+03  0.12591556225E+03  0.00000000000E+00 0. -1.
         -2   -1    0    0    0  501 -0.00000000000E+00 -0.00000000000E+00 -0.50853861787E+03  0.50853861787E+03  0.00000000000E+00 0.  1.
         23    2    1    2    0    0 -0.10992692888E+03  0.14244513636E+03 -0.76617520815E+02  0.21547068999E+03  0.90458980655E+02 0.  0.
        -24    2    1    2    0    0  0.15352012764E+02 -0.50736180259E+02 -0.12470053648E+02  0.97241316814E+02  0.80563808095E+02 0.  0.
         11    1    4    4    0    0 -0.34757347157E+01 -0.30809119757E+02  0.32282158403E+02  0.44759583814E+02  0.00000000000E+00 0. -1.
        -12    1    4    4    0    0  0.18827747479E+02 -0.19927060501E+02 -0.44752212051E+02  0.52481733001E+02  0.00000000000E+00 0.  1.
        -13    1    3    3    0    0 -0.69820092663E+02  0.33275142119E+02 -0.21592258498E+01  0.77374043960E+02  0.00000000000E+00 0. -1.
         13    1    3    3    0    0 -0.40106836218E+02  0.10916999425E+03 -0.74458294965E+02  0.13809664603E+03  0.00000000000E+00 0.  1.
         21    1    1    2  502  501  0.94574916117E+02 -0.91708956106E+02 -0.29353548116E+03  0.32174217331E+03  0.00000000000E+00 0.  1.
<scales pt_clust_5="13000.00000" pt_clust_6="13000.00000" pt_clust_7="13000.00000" pt_clust_8="13000.00000" pt_clust_9="139.63011"></scales>
<clustering>
<clus scale="   80.564">  5  6 -1 -1</clus>
<clus scale="   90.459">  7  8 -1 -1</clus>
<clus scale="   96.438">  1  5  2 -1</clus>
<clus scale="  139.630">  2  9  1 -1</clus>
<clus scale="   96.438">  1  5  2 -1</clus>
</clustering>
</event>
<event>
 9    1  0.3846604E-005  0.1148355E+03  0.7546771E-02  0.1258617E+00
          1   -1    0    0  502    0  0.00000000000E+00  0.00000000000E+00  0.35987652287E+03  0.35987652287E+03  0.00000000000E+00 0. -1.
         -2   -1    0    0    0  501 -0.00000000000E+00 -0.00000000000E+00 -0.75326897472E+02  0.75326897472E+02  0.00000000000E+00 0.  1.
         23    2    1    2    0    0  0.34701948670E+01 -0.41613046208E+02  0.48740750162E+02  0.11166514622E+03  0.91377000866E+02 0.  0.
        -24    2    1    2    0    0  0.24353716374E+02 -0.64681747493E+02  0.15566112325E+03  0.18753674710E+03  0.78503593926E+02 0.  0.
         13    1    4    4    0    0  0.32992291362E+02  0.41547838257E+01  0.34483873092E+02  0.47905020837E+02  0.00000000000E+00 0. -1.
        -14    1    4    4    0    0 -0.86385749882E+01 -0.68836531318E+02  0.12117725016E+03  0.13963172626E+03  0.00000000000E+00 0.  1.
        -11    1    3    3    0    0 -0.16410207629E+02 -0.50839936117E+02  0.65174102550E+02  0.84271333572E+02  0.00000000000E+00 0. -1.
         11    1    3    3    0    0  0.19880402495E+02  0.92268899095E+01 -0.16433352388E+02  0.27393812650E+02  0.00000000000E+00 0.  1.
         21    1    1    2  502  501 -0.27823911241E+02  0.10629479370E+03  0.80147751979E+02  0.13600152702E+03  0.00000000000E+00 0. -1.
<scales pt_clust_5="13000.00000" pt_clust_6="13000.00000" pt_clust_7="13000.00000" pt_clust_8="13000.00000" pt_clust_9="83.81156"></scales>
<clustering>
<clus scale="   78.504">  5  6 -1 -1</clus>
<clus scale="   91.377">  7  8 -1 -1</clus>
<clus scale="  100.466">  2  7  1 -1</clus>
<clus scale="   83.812">  2  9  1 -1</clus>
<clus scale="  114.835">  1  5  2 -1</clus>
</clustering>
</event>
<event>
 9    1  0.3846604E-005  0.1102471E+03  0.7546771E-02  0.1263516E+00
          1   -1    0    0  502    0  0.00000000000E+00  0.00000000000E+00  0.35711870885E+03  0.35711870885E+03  0.00000000000E+00 0. -1.
         -2   -1    0    0    0  501 -0.00000000000E+00 -0.00000000000E+00 -0.18453336819E+03  0.18453336819E+03  0.00000000000E+00 0.  1.
         23    2    1    2    0    0 -0.15869012526E+01 -0.25728303169E+02  0.34153379652E+02  0.99412632604E+02  0.89732682675E+02 0.  0.
        -24    2    1    2    0    0 -0.48711391908E+02  0.62650190649E+02  0.27209319546E+03  0.29473192033E+03  0.80835337284E+02 0.  0.
         13    1    4    4    0    0 -0.32948630175E+02  0.62792286059E+02  0.26960332229E+03  0.27877308839E+03  0.00000000000E+00 0. -1.
        -14    1    4    4    0    0 -0.15762761733E+02 -0.14209540964E+00  0.24898731729E+01  0.15958831943E+02  0.00000000000E+00 0.  1.
        -13    1    3    3    0    0 -0.38217982232E+02 -0.12392497832E+02 -0.90893077157E+01  0.41192276984E+02  0.00000000000E+00 0. -1.
         13    1    3    3    0    0  0.36631080979E+02 -0.13335805337E+02  0.43242687368E+02  0.58220355619E+02  0.00000000000E+00 0.  1.
         21    1    1    2  502  501  0.50298293160E+02 -0.36921887480E+02 -0.13366123446E+03  0.14750752410E+03  0.00000000000E+00 0.  1.
<scales pt_clust_5="13000.00000" pt_clust_6="13000.00000" pt_clust_7="13000.00000" pt_clust_8="13000.00000" pt_clust_9="62.39506"></scales>
<clustering>
<clus scale="   62.395">  2  9  1 -1</clus>
<clus scale="   80.835">  5  6 -1 -1</clus>
<clus scale="   89.733">  7  8 -1 -1</clus>
<clus scale="  103.135">  1  5  2 -1</clus>
<clus scale="  103.135">  1  5  2 -1</clus>
</clustering>
</event>
<event>
 9    1  0.3846604E-005  0.1978388E+03  0.7546771E-02  0.1179547E+00
         -2   -1    0    0    0  501 -0.00000000000E+00  0.00000000000E+00  0.18634394992E+03  0.18634394992E+03  0.00000000000E+00 0.  1.
          1   -1    0    0  502    0  0.00000000000E+00 -0.00000000000E+00 -0.47879671329E+03  0.47879671329E+03  0.00000000000E+00 0. -1.
        -24    2    1    2    0    0  0.47975346633E+02  0.44035906247E+02 -0.44482393958E+02  0.11293803048E+03  0.80842565723E+02 0.  0.
         23    2    1    2    0    0  0.14713956382E+03  0.69859830824E+02 -0.26633767185E+03  0.32553233250E+03  0.92223082004E+02 0.  0.
         11    1    3    3    0    0  0.65223191771E+02  0.11441529030E+02 -0.22145627413E+02  0.69824079979E+02  0.00000000000E+00 0. -1.
        -12    1    3    3    0    0 -0.17247845138E+02  0.32594377217E+02 -0.22336766544E+02  0.43113950500E+02  0.00000000000E+00 0.  1.
        -11    1    4    4    0    0  0.12987250104E+03  0.90692117943E+02 -0.24142375302E+03  0.28875137282E+03  0.00000000000E+00 0. -1.
         11    1    4    4    0    0  0.17267062784E+02 -0.20832287119E+02 -0.24913918826E+02  0.36780959680E+02  0.00000000000E+00 0.  1.
         21    1    1    2  502  501 -0.19511491045E+03 -0.11389573707E+03  0.18367302437E+02  0.22667030022E+03  0.00000000000E+00 0.  1.
<scales pt_clust_5="13000.00000" pt_clust_6="13000.00000" pt_clust_7="13000.00000" pt_clust_8="13000.00000" pt_clust_9="175.02886"></scales>
<clustering>
<clus scale="   80.843">  5  6 -1 -1</clus>
<clus scale="   92.223">  7  8 -1 -1</clus>
<clus scale="  103.809">  1  5  2 -1</clus>
<clus scale="  175.029">  1  9  2 -1</clus>
<clus scale="  197.839">  2  5  1 -1</clus>
</clustering>
</event>
<event>
 9    1  0.3846604E-005  0.3246342E+03  0.7546771E-02  0.1073858E+00
         -2   -1    0    0    0  501 -0.00000000000E+00  0.00000000000E+00  0.19343403093E+03  0.19343403093E+03  0.00000000000E+00 0.  1.
          1   -1    0    0  502    0  0.00000000000E+00 -0.00000000000E+00 -0.88441933302E+03  0.88441933302E+03  0.00000000000E+00 0. -1.
        -24    2    1    2    0    0  0.87756775091E+02 -0.24642627880E+03 -0.13717522249E+03  0.30618512511E+03  0.80654365744E+02 0.  0.
         23    2    1    2    0    0 -0.95339380846E+02  0.32699994510E+03 -0.58652529062E+03  0.68437621948E+03  0.91325416044E+02 0.  0.
         11    1    3    3    0    0  0.71407619084E+02 -0.83144158689E+02 -0.57491781139E+02  0.12376309662E+03  0.00000000000E+00 0. -1.
        -12    1    3    3    0    0  0.16349156008E+02 -0.16328212012E+03 -0.79683441355E+02  0.18242202849E+03  0.00000000000E+00 0.  1.
        -13    1    4    4    0    0 -0.35068230298E+02  0.11475142150E+03 -0.12753564696E+03  0.17510856848E+03  0.00000000000E+00 0.  1.
         13    1    4    4    0    0 -0.60271150548E+02  0.21224852361E+03 -0.45898964367E+03  0.50926765100E+03  0.00000000000E+00 0. -1.
         21    1    1    2  502  501  0.75826057552E+01 -0.80573666298E+02  0.32715211032E+02  0.87292019358E+02  0.00000000000E+00 0.  1.
<scales pt_clust_5="13000.00000" pt_clust_6="13000.00000" pt_clust_7="13000.00000" pt_clust_8="13000.00000" pt_clust_9="80.92967"></scales>
<clustering>
<clus scale="   80.654">  5  6 -1 -1</clus>
<clus scale="   80.930">  1  9  2 -1</clus>
<clus scale="   91.325">  7  8 -1 -1</clus>
<clus scale="  321.795">  1  5  2 -1</clus>
<clus scale="  324.634">  2  5  1 -1</clus>
</clustering>
</event>
<event>
 9    1  0.3846604E-005  0.1894703E+03  0.7546771E-02  0.1190960E+00
         -4   -1    0    0    0  501 -0.00000000000E+00  0.00000000000E+00  0.56639457491E+03  0.56639457491E+03  0.00000000000E+00 0.  1.
          3   -1    0    0  502    0  0.00000000000E+00 -0.00000000000E+00 -0.20928780442E+03  0.20928780442E+03  0.00000000000E+00 0. -1.
         23    2    1    2    0    0 -0.19823082146E+03 -0.42805219347E+02 -0.66940375667E+02  0.23234570737E+03  0.91519224528E+02 0.  0.
        -24    2    1    2    0    0  0.43386435703E+02 -0.56824324779E+01  0.25493298967E+01  0.91686093197E+02  0.80530539306E+02 0.  0.
         13    1    4    4    0    0  0.51888091128E+02 -0.29517833927E+01 -0.28572697181E+02  0.59308397806E+02  0.00000000000E+00 0. -1.
        -14    1    4    4    0    0 -0.85016554249E+01 -0.27306490852E+01  0.31122027078E+02  0.32377695391E+02  0.00000000000E+00 0.  1.
        -11    1    3    3    0    0 -0.17745993762E+03 -0.65952122901E+02 -0.68177895105E+02  0.20122111558E+03  0.00000000000E+00 0. -1.
         11    1    3    3    0    0 -0.20770883847E+02  0.23146903554E+02  0.12375194378E+01  0.31124591793E+02  0.00000000000E+00 0.  1.
         21    1    1    2  502  501  0.15484438576E+03  0.48487651825E+02  0.42149781626E+03  0.45165057876E+03  0.00000000000E+00 0.  1.
<scales pt_clust_5="13000.00000" pt_clust_6="13000.00000" pt_clust_7="13000.00000" pt_clust_8="13000.00000" pt_clust_9="165.90127"></scales>
<clustering>
<clus scale="   80.531">  5  6 -1 -1</clus>
<clus scale="   91.519">  7  8 -1 -1</clus>
<clus scale="   91.651">  2  5  1 -1</clus>
<clus scale="  165.901">  1  9  2 -1</clus>
<clus scale="   91.651">  2  5  1 -1</clus>
</clustering>
</event>
<event>
 9    1  0.3846604E-005  0.1240156E+03  0.7546771E-02  0.1239338E+00
          1   -1    0    0  502    0  0.00000000000E+00  0.00000000000E+00  0.32109407763E+03  0.32109407763E+03  0.00000000000E+00 0. -1.
         -2   -1    0    0    0  501 -0.00000000000E+00 -0.00000000000E+00 -0.67531496005E+02  0.67531496005E+02  0.00000000000E+00 0.  1.
        -24    2    1    2    0    0  0.22093606817E+01 -0.99486099292E+02  0.80153790985E+02  0.15057597107E+03  0.79662586127E+02 0.  0.
         23    2    1    2    0    0  0.20342058398E+02  0.77452966305E+02  0.16747930868E+03  0.20596870157E+03  0.89224581055E+02 0.  0.
         11    1    3    3    0    0  0.12883084294E+02 -0.46635650059E+02  0.83554191766E+02  0.96551337013E+02  0.00000000000E+00 0. -1.
        -12    1    3    3    0    0 -0.10673723613E+02 -0.52850449234E+02 -0.34004007806E+01  0.54024634061E+02  0.00000000000E+00 0.  1.
        -13    1    4    4    0    0 -0.25656351078E+02  0.67770593213E+02  0.93044345552E+02  0.11793367583E+03  0.00000000000E+00 0. -1.
         13    1    4    4    0    0  0.45998409476E+02  0.96823730919E+01  0.74434963124E+02  0.88035025747E+02  0.00000000000E+00 0.  1.
         21    1    1    2  502  501 -0.22551419080E+02  0.22033132987E+02  0.59294819630E+01  0.32080900986E+02  0.00000000000E+00 0. -1.
<scales pt_clust_5="13000.00000" pt_clust_6="13000.00000" pt_clust_7="13000.00000" pt_clust_8="13000.00000" pt_clust_9="31.52817"></scales>
<clustering>
<clus scale="   31.528">  2  9  1 -1</clus>
<clus scale="   79.663">  5  6 -1 -1</clus>
<clus scale="   89.225">  7  8 -1 -1</clus>
<clus scale="  117.324">  2  5  1 -1</clus>
<clus scale="  124.016">  1  5  2 -1</clus>
</clustering>
</event>
<event>
 9    1  0.3846604E-005  0.1683585E+03  0.7546771E-02  0.1200935E+00
         -2   -1    0    0    0  501 -0.00000000000E+00  0.00000000000E+00  0.26684686871E+03  0.26684686871E+03  0.00000000000E+00 0.  1.
          1   -1    0    0  502    0  0.00000000000E+00 -0.00000000000E+00 -0.31865277180E+03  0.31865277180E+03  0.00000000000E+00 0. -1.
        -24    2    1    2    0    0  0.34675186611E+02  0.25523236890E+02  0.68522318855E+02  0.12540476645E+03  0.95797928370E+02 0.  0.
         23    2    1    2    0    0 -0.76349689257E+02  0.11881839148E+03 -0.22228639394E+03  0.27852742464E+03  0.90659804423E+02 0.  0.
         13    1    3    3    0    0  0.43636794051E+02  0.26632753224E+02 -0.49668821468E+01  0.51362858736E+02  0.00000000000E+00 0. -1.
        -14    1    3    3    0    0 -0.89616074396E+01 -0.11095163338E+01  0.73489201002E+02  0.74041907717E+02  0.00000000000E+00 0.  1.
        -13    1    4    4    0    0 -0.28667117196E+02 -0.49856462515E+01 -0.15845921642E+02  0.33132363477E+02  0.00000000000E+00 0.  1.
         13    1    4    4    0    0 -0.47682572061E+02  0.12380403774E+03 -0.20644047230E+03  0.24539506116E+03  0.00000000000E+00 0. -1.
         21    1    1    2  502  501  0.41674502646E+02 -0.14434162837E+03  0.10195817200E+03  0.18156744942E+03  0.00000000000E+00 0. -1.
<scales pt_clust_5="13000.00000" pt_clust_6="13000.00000" pt_clust_7="13000.00000" pt_clust_8="13000.00000" pt_clust_9="141.86401"></scales>
<clustering>
<clus scale="   90.660">  7  8 -1 -1</clus>
<clus scale="   95.798">  5  6 -1 -1</clus>
<clus scale="  105.029">  1  5  2 -1</clus>
<clus scale="  141.864">  1  9  2 -1</clus>
<clus scale="  168.359">  2  5  1 -1</clus>
</clustering>
</event>
<event>
 9    1  0.3846604E-005  0.1190264E+03  0.7546771E-02  0.1248666E+00
         -2   -1    0    0    0  501 -0.00000000000E+00  0.00000000000E+00  0.66344375796E+02  0.66344375796E+02  0.00000000000E+00 0.  1.
          1   -1    0    0  502    0  0.00000000000E+00 -0.00000000000E+00 -0.28623815793E+03  0.28623815793E+03  0.00000000000E+00 0. -1.
        -24    2    1    2    0    0 -0.82677673584E+02  0.14898698278E+02 -0.69408355703E+02  0.13461068757E+03  0.79024986228E+02 0.  0.
         23    2    1    2    0    0  0.55747084869E+02 -0.45961239393E+02 -0.10642153373E+03  0.15770772159E+03  0.91246970415E+02 0.  0.
         13    1    3    3    0    0 -0.39808244192E+02  0.28703068332E+02 -0.74578465298E+02  0.89277712356E+02  0.00000000000E+00 0. -1.
        -14    1    3    3    0    0 -0.42869429392E+02 -0.13804370054E+02  0.51701095950E+01  0.45332975219E+02  0.00000000000E+00 0.  1.
        -11    1    4    4    0    0  0.61411271919E+02  0.81697391799E+01 -0.57642637895E+02  0.84621289641E+02  0.00000000000E+00 0. -1.
         11    1    4    4    0    0 -0.56641870507E+01 -0.54130978573E+02 -0.48778895835E+02  0.73086431949E+02  0.00000000000E+00 0.  1.
         21    1    1    2  502  501  0.26930588715E+02  0.31062541114E+02 -0.44063892703E+02  0.60264124561E+02  0.00000000000E+00 0. -1.
<scales pt_clust_5="13000.00000" pt_clust_6="13000.00000" pt_clust_7="13000.00000" pt_clust_8="13000.00000" pt_clust_9="41.11129"></scales>
<clustering>
<clus scale="   41.111">  2  9  1 -1</clus>
<clus scale="   79.025">  5  6 -1 -1</clus>
<clus scale="   91.247">  7  8 -1 -1</clus>
<clus scale="  109.937">  1  5  2 -1</clus>
<clus scale="   41.111">  2  5  1 -1</clus>
</clustering>
</event>
<event>
 9    1  0.3846604E-005  0.1051604E+03  0.7546771E-02  0.1277821E+00
         -2   -1    0    0    0  501 -0.00000000000E+00  0.00000000000E+00  0.25780504977E+03  0.25780504977E+03  0.00000000000E+00 0.  1.
          1   -1    0    0  502    0  0.00000000000E+00 -0.00000000000E+00 -0.80673965967E+02  0.80673965967E+02  0.00000000000E+00 0. -1.
        -24    2    1    2    0    0  0.51577008087E+02  0.47946327222E+02  0.16395246980E+03  0.19321917164E+03  0.74122856670E+02 0.  0.
         23    2    1    2    0    0 -0.30070362217E+02 -0.35859571791E+02 -0.18933331919E+02  0.10476536861E+03  0.91799650487E+02 0.  0.
         13    1    3    3    0    0  0.29554616586E+01  0.50006020495E+02  0.10808021314E+03  0.11912459575E+03  0.00000000000E+00 0. -1.
        -14    1    3    3    0    0  0.48621546428E+02 -0.20596932735E+01  0.55872256658E+02  0.74094575898E+02  0.00000000000E+00 0.  1.
        -13    1    4    4    0    0 -0.48154826837E+02  0.10901721363E+02  0.41950986960E+01  0.49551324195E+02  0.00000000000E+00 0.  1.
         13    1    4    4    0    0  0.18084464620E+02 -0.46761293154E+02 -0.23128430615E+02  0.55214044416E+02  0.00000000000E+00 0. -1.
         21    1    1    2  502  501 -0.21506645870E+02 -0.12086755431E+02  0.32111945922E+02  0.40494475479E+02  0.00000000000E+00 0. -1.
<scales pt_clust_5="13000.00000" pt_clust_6="13000.00000" pt_clust_7="13000.00000" pt_clust_8="13000.00000" pt_clust_9="24.67034"></scales>
<clustering>
<clus scale="   24.670">  1  9  2 -1</clus>
<clus scale="   74.123">  5  6 -1 -1</clus>
<clus scale="   90.143">  1  5  2 -1</clus>
<clus scale="   91.800">  7  8 -1 -1</clus>
<clus scale="  105.160">  2  5  1 -1</clus>
</clustering>
</event>
<event>
 9    1  0.3846604E-005  0.1159730E+03  0.7546771E-02  0.1253673E+00
          3   -1    0    0  502    0  0.00000000000E+00  0.00000000000E+00  0.12640690950E+03  0.12640690950E+03  0.00000000000E+00 0. -1.
         -4   -1    0    0    0  501 -0.00000000000E+00 -0.00000000000E+00 -0.19728082930E+03  0.19728082930E+03  0.00000000000E+00 0.  1.
         23    2    1    2    0    0  0.67332802846E+02  0.25039486569E+02 -0.10964521115E+03  0.15949148329E+03  0.90855812617E+02 0.  0.
        -24    2    1    2    0    0 -0.43961352526E+02 -0.60344222631E+02  0.50285064925E+02  0.12031897141E+03  0.79837593942E+02 0.  0.
         11    1    4    4    0    0 -0.65947229266E+02 -0.31672749635E+02  0.32639129277E+02  0.80109380707E+02  0.00000000000E+00 0. -1.
        -12    1    4    4    0    0  0.21985876740E+02 -0.28671472995E+02  0.17645935648E+02  0.40209590705E+02  0.00000000000E+00 0.  1.
        -11    1    3    3    0    0  0.85971456254E+02  0.18995383663E+01 -0.78264312690E+02  0.11627554419E+03  0.00000000000E+00 0.  1.
         11    1    3    3    0    0 -0.18638653408E+02  0.23139948202E+02 -0.31380898461E+02  0.43215939095E+02  0.00000000000E+00 0. -1.
         21    1    1    2  502  501 -0.23371450320E+02  0.35304736062E+02 -0.11513773573E+02  0.43877284104E+02  0.00000000000E+00 0.  1.
<scales pt_clust_5="13000.00000" pt_clust_6="13000.00000" pt_clust_7="13000.00000" pt_clust_8="13000.00000" pt_clust_9="42.33969"></scales>
<clustering>
<clus scale="   42.340">  2  9  1 -1</clus>
<clus scale="   79.838">  5  6 -1 -1</clus>
<clus scale="   90.856">  7  8 -1 -1</clus>
<clus scale="  107.559">  1  5  2 -1</clus>
<clus scale="  107.559">  1  5  2 -1</clus>
</clustering>
</event>
<event>
 9    1  0.3846604E-005  0.9659263E+02  0.7546771E-02  0.1293290E+00
         -2   -1    0    0    0  501 -0.00000000000E+00  0.00000000000E+00  0.38040874548E+03  0.38040874548E+03  0.00000000000E+00 0.  1.
          1   -1    0    0  502    0  0.00000000000E+00 -0.00000000000E+00 -0.58011151659E+02  0.58011151659E+02  0.00000000000E+00 0. -1.
         23    2    1    2    0    0 -0.21748093847E+02 -0.59477118062E+01  0.18665411723E+03  0.20896976732E+03  0.91215400638E+02 0.  0.
        -24    2    1    2    0    0  0.26374086853E+02 -0.24349336343E+02 -0.18451624473E+01  0.88489339063E+02  0.80860842598E+02 0.  0.
         11    1    4    4    0    0  0.52141756484E+02 -0.23902855046E+02  0.12907756072E+02  0.58793872260E+02  0.00000000000E+00 0. -1.
        -12    1    4    4    0    0 -0.25767669631E+02 -0.44648129713E+00 -0.14752918520E+02  0.29695466803E+02  0.00000000000E+00 0.  1.
        -13    1    3    3    0    0 -0.51355301174E+02  0.18099763678E+02  0.12677496938E+03  0.13797413260E+03  0.00000000000E+00 0.  1.
         13    1    3    3    0    0  0.29607207327E+02 -0.24047475484E+02  0.59879147847E+02  0.70995634723E+02  0.00000000000E+00 0. -1.
         21    1    1    2  502  501 -0.46259930057E+01  0.30297048149E+02  0.13758863904E+03  0.14096079075E+03  0.00000000000E+00 0. -1.
<scales pt_clust_5="13000.00000" pt_clust_6="13000.00000" pt_clust_7="13000.00000" pt_clust_8="13000.00000" pt_clust_9="30.64818"></scales>
<clustering>
<clus scale="   30.648">  1  9  2 -1</clus>
<clus scale="   80.861">  5  6 -1 -1</clus>
<clus scale="   86.881">  2  5  1 -1</clus>
<clus scale="   91.215">  7  8 -1 -1</clus>
<clus scale="   86.881">  2  5  1 -1</clus>
</clustering>
</event>
<event>
 9    1  0.3846604E-005  0.1080892E+03  0.7546771E-02  0.1267778E+00
         -2   -1    0    0    0  501 -0.00000000000E+00  0.00000000000E+00  0.53344615437E+02  0.53344615437E+02  0.00000000000E+00 0.  1.
          1   -1    0    0  502    0  0.00000000000E+00 -0.00000000000E+00 -0.40779544269E+03  0.40779544269E+03  0.00000000000E+00 0. -1.
         23    2    1    2    0    0 -0.53463121549E+02  0.26850557495E+02 -0.10572603666E+03  0.15110699744E+03  0.89866968586E+02 0.  0.
        -24    2    1    2    0    0  0.61673469368E+02  0.35345003105E+02 -0.21087114138E+03  0.23676235489E+03  0.80851025702E+02 0.  0.
         11    1    4    4    0    0  0.38061062192E+02  0.45878285307E+02 -0.20003487223E+03  0.20872808059E+03  0.00000000000E+00 0. -1.
        -12    1    4    4    0    0  0.23612407175E+02 -0.10533282201E+02 -0.10836269153E+02  0.28034274303E+02  0.00000000000E+00 0.  1.
        -11    1    3    3    0    0  0.92576432406E+01 -0.24588250365E+02 -0.19470336647E+02  0.32701376478E+02  0.00000000000E+00 0. -1.
         11    1    3    3    0    0 -0.62720764789E+02  0.51438807860E+02 -0.86255700017E+02  0.11840562096E+03  0.00000000000E+00 0.  1.
         21    1    1    2  502  501 -0.82103478188E+01 -0.62195560600E+02 -0.37853649203E+02  0.73270705794E+02  0.00000000000E+00 0.  1.
<scales pt_clust_5="13000.00000" pt_clust_6="13000.00000" pt_clust_7="13000.00000" pt_clust_8="13000.00000" pt_clust_9="62.73514"></scales>
<clustering>
<clus scale="   62.735">  1  9  2 -1</clus>
<clus scale="   80.851">  5  6 -1 -1</clus>
<clus scale="   89.867">  7  8 -1 -1</clus>
<clus scale="  100.718">  2  5  1 -1</clus>
<clus scale="  100.718">  2  5  1 -1</clus>
</clustering>
</event>
<event>
 9    1  0.3846604E-005  0.1356737E+03  0.7546771E-02  0.1233674E+00
          1   -1    0    0  502    0  0.00000000000E+00  0.00000000000E+00  0.18265333752E+03  0.18265333752E+03  0.00000000000E+00 0. -1.
         -2   -1    0    0    0  501 -0.00000000000E+00 -0.00000000000E+00 -0.22116994267E+03  0.22116994267E+03  0.00000000000E+00 0.  1.
        -24    2    1    2    0    0 -0.75192817954E+02  0.47453165077E+02 -0.48397227991E+02  0.12877095750E+03  0.79585834607E+02 0.  0.
         23    2    1    2    0    0 -0.29485480528E+02  0.30727422479E+02  0.78387592680E+02  0.12752959441E+03  0.91135145303E+02 0.  0.
         11    1    3    3    0    0 -0.69473447625E+02  0.62127006749E+02 -0.18557321165E+02  0.95029990326E+02  0.00000000000E+00 0. -1.
        -12    1    3    3    0    0 -0.57193703299E+01 -0.14673841672E+02 -0.29839906826E+02  0.33740967173E+02  0.00000000000E+00 0.  1.
        -13    1    4    4    0    0  0.97956057398E+01  0.47972624084E+02  0.15412966956E+02  0.51331141656E+02  0.00000000000E+00 0. -1.
         13    1    4    4    0    0 -0.39281086268E+02 -0.17245201605E+02  0.62974625724E+02  0.76198452752E+02  0.00000000000E+00 0.  1.
         21    1    1    2  502  501  0.10467829848E+03 -0.78180587556E+02 -0.68506969843E+02  0.14752272829E+03  0.00000000000E+00 0.  1.
<scales pt_clust_5="13000.00000" pt_clust_6="13000.00000" pt_clust_7="13000.00000" pt_clust_8="13000.00000" pt_clust_9="109.87918"></scales>
<clustering>
<clus scale="   79.586">  5  6 -1 -1</clus>
<clus scale="   91.135">  7  8 -1 -1</clus>
<clus scale="  100.594">  1  7  2 -1</clus>
<clus scale="  109.879">  1  9  2 -1</clus>
<clus scale="  100.594">  1  5  2 -1</clus>
</clustering>
</event>
<event>
 9    1  0.3846604E-005  0.1004389E+03  0.7546771E-02  0.1285329E+00
          3   -1    0    0  502    0  0.00000000000E+00  0.00000000000E+00  0.20609520960E+03  0.20609520960E+03  0.00000000000E+00 0. -1.
         -4   -1    0    0    0  501 -0.00000000000E+00 -0.00000000000E+00 -0.20253852751E+03  0.20253852751E+03  0.00000000000E+00 0.  1.
         23    2    1    2    0    0  0.17904796519E+02 -0.29743549264E+02 -0.88923793674E+02  0.13290347583E+03  0.92469629318E+02 0.  0.
        -24    2    1    2    0    0  0.12868033295E+02 -0.46332027860E+02  0.14896218493E+03  0.17610775397E+03  0.80696749526E+02 0.  0.
         11    1    4    4    0    0  0.30501673100E+02 -0.59246462435E+02  0.13389526634E+03  0.14956081613E+03  0.00000000000E+00 0. -1.
        -12    1    4    4    0    0 -0.17633639805E+02  0.12914434575E+02  0.15066918592E+02  0.26546937846E+02  0.00000000000E+00 0.  1.
        -13    1    3    3    0    0 -0.33254197987E+02 -0.18303302723E+02 -0.65018058689E+02  0.75287452673E+02  0.00000000000E+00 0. -1.
         13    1    3    3    0    0  0.51158994505E+02 -0.11440246541E+02 -0.23905734984E+02  0.57616023161E+02  0.00000000000E+00 0.  1.
         21    1    1    2  502  501 -0.30772829813E+02  0.76075577125E+02 -0.56481709173E+02  0.99622507300E+02  0.00000000000E+00 0.  1.
<scales pt_clust_5="13000.00000" pt_clust_6="13000.00000" pt_clust_7="13000.00000" pt_clust_8="13000.00000" pt_clust_9="82.06376"></scales>
<clustering>
<clus scale="   80.697">  5  6 -1 -1</clus>
<clus scale="   82.064">  2  9  1 -1</clus>
<clus scale="   89.718">  1  5  2 -1</clus>
<clus scale="   92.470">  7  8 -1 -1</clus>
<clus scale="   89.718">  1  5  2 -1</clus>
</clustering>
</event>
<event>
 9    1  0.3846604E-005  0.9759685E+02  0.7546771E-02  0.1289853E+00
         -4   -1    0    0    0  501 -0.00000000000E+00  0.00000000000E+00  0.30874778447E+03  0.30874778447E+03  0.00000000000E+00 0.  1.
          3   -1    0    0  502    0  0.00000000000E+00 -0.00000000000E+00 -0.24320048785E+03  0.24320048785E+03  0.00000000000E+00 0. -1.
        -24    2    1    2    0    0 -0.15269738202E+02 -0.19491186545E+02  0.13977923684E+03  0.16499223336E+03  0.84090015815E+02 0.  0.
         23    2    1    2    0    0  0.31130570525E+02 -0.11430465968E+02 -0.21798889060E+03  0.23905818442E+03  0.92357409773E+02 0.  0.
         13    1    3    3    0    0 -0.34976390662E+01  0.22272342050E+02  0.45868406925E+01  0.23007168600E+02  0.00000000000E+00 0. -1.
        -14    1    3    3    0    0 -0.11772099136E+02 -0.41763528595E+02  0.13519239615E+03  0.14198506476E+03  0.00000000000E+00 0.  1.
        -11    1    4    4    0    0  0.12805917604E+02 -0.46284389707E+02 -0.63411443434E+02  0.79543996723E+02  0.00000000000E+00 0. -1.
         11    1    4    4    0    0  0.18324652921E+02  0.34853923739E+02 -0.15457744716E+03  0.15951418770E+03  0.00000000000E+00 0.  1.
         21    1    1    2  502  501 -0.15860832322E+02  0.30921652513E+02  0.14375695038E+03  0.14789785454E+03  0.00000000000E+00 0.  1.
<scales pt_clust_5="13000.00000" pt_clust_6="13000.00000" pt_clust_7="13000.00000" pt_clust_8="13000.00000" pt_clust_9="34.75219"></scales>
<clustering>
<clus scale="   34.752">  1  9  2 -1</clus>
<clus scale="   84.090">  5  6 -1 -1</clus>
<clus scale="   89.813">  1  5  2 -1</clus>
<clus scale="   92.357">  7  8 -1 -1</clus>
<clus scale="   97.597">  2  5  1 -1</clus>
</clustering>
</event>
<event>
 9    1  0.3846604E-005  0.1337968E+03  0.7546771E-02  0.1224228E+00
         -2   -1    0    0    0  501 -0.00000000000E+00  0.00000000000E+00  0.96340454889E+02  0.96340454889E+02  0.00000000000E+00 0.  1.
          1   -1    0    0  502    0  0.00000000000E+00 -0.00000000000E+00 -0.64641779069E+03  0.64641779069E+03  0.00000000000E+00 0. -1.
         23    2    1    2    0    0 -0.10984428287E+03 -0.85857556578E+02 -0.71486555966E+02  0.18066323324E+03  0.89953263753E+02 0.  0.
        -24    2    1    2    0    0  0.72378657460E+02  0.59168902153E+02 -0.49736681354E+03  0.51241104305E+03  0.80322479993E+02 0.  0.
         13    1    4    4    0    0  0.43933837938E+02 -0.12162343903E+02 -0.21561643268E+03  0.22038273700E+03  0.00000000000E+00 0. -1.
        -14    1    4    4    0    0  0.28444819522E+02  0.71331246056E+02 -0.28175038087E+03  0.29202830606E+03  0.00000000000E+00 0.  1.
        -13    1    3    3    0    0 -0.11445883750E+03 -0.45557307996E+02 -0.40705557509E+02  0.12974296207E+03  0.00000000000E+00 0.  1.
         13    1    3    3    0    0  0.46145546300E+01 -0.40300248581E+02 -0.30780998458E+02  0.50920271172E+02  0.00000000000E+00 0. -1.
         21    1    1    2  502  501  0.37465625414E+02  0.26688654425E+02  0.18776033703E+02  0.49683969288E+02  0.00000000000E+00 0. -1.
<scales pt_clust_5="13000.00000" pt_clust_6="13000.00000" pt_clust_7="13000.00000" pt_clust_8="13000.00000" pt_clust_9="45.99954"></scales>
<clustering>
<clus scale="   46.000">  1  9  2 -1</clus>
<clus scale="   80.322">  5  6 -1 -1</clus>
<clus scale="   89.953">  7  8 -1 -1</clus>
<clus scale="  127.521">  2  5  1 -1</clus>
<clus scale="  127.521">  2  5  1 -1</clus>
</clustering>
</event>
<event>
 9    1  0.3846604E-005  0.1615194E+03  0.7546771E-02  0.1202747E+00
         -2   -1    0    0    0  501 -0.00000000000E+00  0.00000000000E+00  0.38584953150E+02  0.38584953150E+02  0.00000000000E+00 0.  1.
          1   -1    0    0  502    0  0.00000000000E+00 -0.00000000000E+00 -0.18062500423E+04  0.18062500423E+04  0.00000000000E+00 0. -1.
        -24    2    1    2    0    0  0.43646232373E+02 -0.12444056708E+03 -0.21774352960E+03  0.26693443405E+03  0.80319979235E+02 0.  0.
         23    2    1    2    0    0 -0.39533844081E+02 -0.56482248559E+02 -0.55654553260E+03  0.56817490169E+03  0.91250314078E+02 0.  0.
         11    1    3    3    0    0  0.38038891532E+02 -0.11898598438E+02 -0.39885415252E+02  0.56385993505E+02  0.00000000000E+00 0. -1.
        -12    1    3    3    0    0  0.56073408412E+01 -0.11254196864E+03 -0.17785811434E+03  0.21054844055E+03  0.00000000000E+00 0.  1.
        -11    1    4    4    0    0 -0.13879416350E+02 -0.77529883956E+02 -0.44015101697E+03  0.44714252632E+03  0.00000000000E+00 0. -1.
         11    1    4    4    0    0 -0.25654427732E+02  0.21047635397E+02 -0.11639451563E+03  0.12103237537E+03  0.00000000000E+00 0.  1.
         21    1    1    2  502  501 -0.41123882915E+01  0.18092281564E+03 -0.99337602697E+03  0.10097256597E+04  0.00000000000E+00 0. -1.
<scales pt_clust_5="13000.00000" pt_clust_6="13000.00000" pt_clust_7="13000.00000" pt_clust_8="13000.00000" pt_clust_9="140.13290"></scales>
<clustering>
<clus scale="   80.320">  5  6 -1 -1</clus>
<clus scale="   91.250">  7  8 -1 -1</clus>
<clus scale="  114.367">  2  7  1 -1</clus>
<clus scale="  140.133">  2  9  1 -1</clus>
<clus scale="  114.367">  2  5  1 -1</clus>
</clustering>
</event>
<event>
 9    1  0.3846604E-005  0.2276857E+03  0.7546771E-02  0.1129036E+00
          1   -1    0    0  502    0  0.00000000000E+00  0.00000000000E+00  0.38003320054E+03  0.38003320054E+03  0.00000000000E+00 0. -1.
         -2   -1    0    0    0  501 -0.00000000000E+00 -0.00000000000E+00 -0.27703609367E+03  0.27703609367E+03  0.00000000000E+00 0.  1.
        -24    2    1    2    0    0  0.20927353545E+03  0.76026836184E+02 -0.11880825455E+03  0.26512582926E+03  0.81245378514E+02 0.  0.
         23    2    1    2    0    0 -0.18804069748E+03 -0.81984766523E+02  0.26249590625E+03  0.34566117048E+03  0.92177752929E+02 0.  0.
         13    1    3    3    0    0  0.43814846998E+02  0.47050534955E+02 -0.10201038919E+02  0.65096504146E+02  0.00000000000E+00 0. -1.
        -14    1    3    3    0    0  0.16545868845E+03  0.28976301229E+02 -0.10860721563E+03  0.20002932511E+03  0.00000000000E+00 0.  1.
        -11    1    4    4    0    0 -0.52574389500E+02 -0.68394615671E+02  0.77491741043E+02  0.11596059595E+03  0.00000000000E+00 0. -1.
         11    1    4    4    0    0 -0.13546630798E+03 -0.13590150852E+02  0.18500416520E+03  0.22970057453E+03  0.00000000000E+00 0.  1.
         21    1    1    2  502  501 -0.21232837974E+02  0.59579303384E+01 -0.40690544836E+02  0.46282294470E+02  0.00000000000E+00 0. -1.
<scales pt_clust_5="13000.00000" pt_clust_6="13000.00000" pt_clust_7="13000.00000" pt_clust_8="13000.00000" pt_clust_9="22.05290"></scales>
<clustering>
<clus scale="   22.053">  2  9  1 -1</clus>
<clus scale="   81.245">  5  6 -1 -1</clus>
<clus scale="   92.178">  7  8 -1 -1</clus>
<clus scale="  223.483">  2  5  1 -1</clus>
<clus scale="  227.686">  1  5  2 -1</clus>
</clustering>
</event>
<event>
 9    1  0.3846604E-005  0.1225191E+03  0.7546771E-02  0.1241626E+00
          1   -1    0    0  502    0  0.00000000000E+00  0.00000000000E+00  0.92239294150E+03  0.92239294150E+03  0.00000000000E+00 0. -1.
         -2   -1    0    0    0  501 -0.00000000000E+00 -0.00000000000E+00 -0.22329007940E+02  0.22329007940E+02  0.00000000000E+00 0.  1.
        -24    2    1    2    0    0 -0.12127857265E+02  0.91207574007E+02  0.39855698143E+03  0.41731864600E+03  0.82712020756E+02 0.  0.
         23    2    1    2    0    0 -0.24495544268E+02 -0.72268574136E+02  0.41179589035E+03  0.42867117158E+03  0.91434892330E+02 0.  0.
         11    1    3    3    0    0 -0.37196938769E+02  0.78782344042E+02  0.22068707733E+03  0.23726157735E+03  0.00000000000E+00 0. -1.
        -12    1    3    3    0    0  0.25069081505E+02  0.12425229965E+02  0.17786990411E+03  0.18005706866E+03  0.00000000000E+00 0.  1.
        -11    1    4    4    0    0  0.25499644572E+02 -0.28828653002E+02  0.64451577484E+02  0.75068828067E+02  0.00000000000E+00 0.  1.
         11    1    4    4    0    0 -0.49995188840E+02 -0.43439921134E+02  0.34734431287E+03  0.35360234351E+03  0.00000000000E+00 0. -1.
         21    1    1    2  502  501  0.36623401532E+02 -0.18938999871E+02  0.89711061773E+02  0.98732131854E+02  0.00000000000E+00 0.  1.
<scales pt_clust_5="13000.00000" pt_clust_6="13000.00000" pt_clust_7="13000.00000" pt_clust_8="13000.00000" pt_clust_9="41.23056"></scales>
<clustering>
<clus scale="   41.231">  2  9  1 -1</clus>
<clus scale="   82.712">  5  6 -1 -1</clus>
<clus scale="   91.435">  7  8 -1 -1</clus>
<clus scale="  116.154">  2  5  1 -1</clus>
<clus scale="  122.519">  1  5  2 -1</clus>
</clustering>
</event>
<event>
 9    1  0.3846604E-005  0.1549715E+03  0.7546771E-02  0.1195962E+00
          3   -1    0    0  502    0  0.00000000000E+00  0.00000000000E+00  0.52250734420E+03  0.52250734420E+03  0.00000000000E+00 0. -1.
         -4   -1    0    0    0  501 -0.00000000000E+00 -0.00000000000E+00 -0.23298081774E+03  0.23298081774E+03  0.00000000000E+00 0.  1.
         23    2    1    2    0    0  0.10907600732E+03  0.11354919008E+03 -0.11370340815E+03  0.21447936246E+03  0.91005153462E+02 0.  0.
        -24    2    1    2    0    0 -0.10157912176E+03 -0.69950260383E+02  0.45167538173E+03  0.47540368298E+03  0.82381153353E+02 0.  0.
         13    1    4    4    0    0 -0.41062072154E+02 -0.63082664675E+02  0.33967035480E+03  0.34791014110E+03  0.00000000000E+00 0. -1.
        -14    1    4    4    0    0 -0.60517049603E+02 -0.68675957078E+01  0.11200502693E+03  0.12749354188E+03  0.00000000000E+00 0.  1.
        -11    1    3    3    0    0 -0.15263395039E+02  0.24420226887E+02 -0.15762627424E+02  0.32829546641E+02  0.00000000000E+00 0. -1.
         11    1    3    3    0    0  0.12433940236E+03  0.89128963190E+02 -0.97940780729E+02  0.18164981582E+03  0.00000000000E+00 0.  1.
         21    1    1    2  502  501 -0.74968855610E+01 -0.43598929695E+02 -0.48445447122E+02  0.65605116496E+02  0.00000000000E+00 0. -1.
<scales pt_clust_5="13000.00000" pt_clust_6="13000.00000" pt_clust_7="13000.00000" pt_clust_8="13000.00000" pt_clust_9="44.23878"></scales>
<clustering>
<clus scale="   44.239">  2  9  1 -1</clus>
<clus scale="   82.381">  5  6 -1 -1</clus>
<clus scale="   91.005">  7  8 -1 -1</clus>
<clus scale="  150.070">  1  5  2 -1</clus>
<clus scale="  150.070">  1  5  2 -1</clus>
</clustering>
</event>
<event>
 9    1  0.3846604E-005  0.1271051E+03  0.7546771E-02  0.1234419E+00
         -2   -1    0    0    0  501 -0.00000000000E+00  0.00000000000E+00  0.16812167759E+03  0.16812167759E+03  0.00000000000E+00 0.  1.
          1   -1    0    0  502    0  0.00000000000E+00 -0.00000000000E+00 -0.22364693886E+03  0.22364693886E+03  0.00000000000E+00 0. -1.
         23    2    1    2    0    0 -0.90858173370E+02 -0.20371594249E+02  0.10706892274E+03  0.16820013848E+03  0.90317898823E+02 0.  0.
        -24    2    1    2    0    0  0.71834662170E+02 -0.79843386698E+01 -0.15409248307E+03  0.18837995955E+03  0.80737522063E+02 0.  0.
         11    1    4    4    0    0  0.32667529568E+02  0.18865439843E+02 -0.12954108332E+03  0.13492206853E+03  0.00000000000E+00 0. -1.
        -12    1    4    4    0    0  0.39167132602E+02 -0.26849778513E+02 -0.24551399742E+02  0.53457891015E+02  0.00000000000E+00 0.  1.
        -11    1    3    3    0    0 -0.20988192016E+02  0.26934162830E+02  0.66107226063E+02  0.74405098409E+02  0.00000000000E+00 0. -1.
         11    1    3    3    0    0 -0.69869981355E+02 -0.47305757079E+02  0.40961696672E+02  0.93795040069E+02  0.00000000000E+00 0.  1.
         21    1    1    2  502  501  0.19023511201E+02  0.28355932919E+02 -0.85017009394E+01  0.35188518425E+02  0.00000000000E+00 0. -1.
<scales pt_clust_5="13000.00000" pt_clust_6="13000.00000" pt_clust_7="13000.00000" pt_clust_8="13000.00000" pt_clust_9="34.14605"></scales>
<clustering>
<clus scale="   34.146">  2  9  1 -1</clus>
<clus scale="   80.738">  5  6 -1 -1</clus>
<clus scale="   90.318">  7  8 -1 -1</clus>
<clus scale="  120.486">  2  5  1 -1</clus>
<clus scale="   34.146">  2  5  1 -1</clus>
</clustering>
</event>
<event>
 9    1  0.3846604E-005  0.9371808E+02  0.7546771E-02  0.1298036E+00
         -2   -1    0    0    0  501 -0.00000000000E+00  0.00000000000E+00  0.16150277381E+03  0.16150277381E+03  0.00000000000E+00 0.  1.
          1   -1    0    0  502    0  0.00000000000E+00 -0.00000000000E+00 -0.12970876841E+03  0.12970876841E+03  0.00000000000E+00 0. -1.
        -24    2    1    2    0    0 -0.39357809182E+00  0.39144259419E+01  0.33199473387E+02  0.90388503766E+02  0.83978562418E+02 0.  0.
         23    2    1    2    0    0 -0.25913810070E+02 -0.17317220850E+02 -0.74797113667E+02  0.12171521811E+03  0.90821662702E+02 0.  0.
         13    1    3    3    0    0 -0.33483444145E+02 -0.16233205069E+02 -0.30463145026E+01  0.37335479248E+02  0.00000000000E+00 0. -1.
        -14    1    3    3    0    0  0.33089866054E+02  0.20147631010E+02  0.36245787890E+02  0.53053024518E+02  0.00000000000E+00 0.  1.
        -11    1    4    4    0    0  0.48425801304E+01  0.27219825479E+02 -0.59279657966E+02  0.65409841232E+02  0.00000000000E+00 0.  1.
         11    1    4    4    0    0 -0.30756390201E+02 -0.44537046328E+02 -0.15517455702E+02  0.56305376877E+02  0.00000000000E+00 0. -1.
         21    1    1    2  502  501  0.26307388162E+02  0.13402794908E+02  0.73391645680E+02  0.79107820340E+02  0.00000000000E+00 0. -1.
<scales pt_clust_5="13000.00000" pt_clust_6="13000.00000" pt_clust_7="13000.00000" pt_clust_8="13000.00000" pt_clust_9="29.52480"></scales>
<clustering>
<clus scale="   29.525">  1  9  2 -1</clus>
<clus scale="   83.979">  5  6 -1 -1</clus>
<clus scale="   87.103">  1  5  2 -1</clus>
<clus scale="   90.822">  7  8 -1 -1</clus>
<clus scale="   93.718">  2  5  1 -1</clus>
</clustering>
</event>
<event>
 9    1  0.3846604E-005  0.1674546E+03  0.7546771E-02  0.1181865E+00
          1   -1    0    0  502    0  0.00000000000E+00  0.00000000000E+00  0.86086104881E+03  0.86086104881E+03  0.00000000000E+00 0. -1.
         -2   -1    0    0    0  501 -0.00000000000E+00 -0.00000000000E+00 -0.77335782073E+02  0.77335782073E+02  0.00000000000E+00 0.  1.
         23    2    1    2    0    0 -0.60754064020E+02 -0.10532740349E+03  0.95499174992E+02  0.17931208458E+03  0.90817470947E+02 0.  0.
        -24    2    1    2    0    0  0.12635676088E+03  0.78259079753E+02  0.66193183166E+03  0.68327179507E+03  0.81339299201E+02 0.  0.
         13    1    4    4    0    0  0.10390234612E+03  0.21863742099E+02  0.47535843839E+03  0.48707223869E+03  0.00000000000E+00 0. -1.
        -14    1    4    4    0    0  0.22454414759E+02  0.56395337653E+02  0.18657339327E+03  0.19619955639E+03  0.00000000000E+00 0.  1.
        -13    1    3    3    0    0  0.15097869232E+02 -0.58775294877E+02  0.53510595195E+02  0.80906518534E+02  0.00000000000E+00 0. -1.
         13    1    3    3    0    0 -0.75851933251E+02 -0.46552108616E+02  0.41988579797E+02  0.98405566041E+02  0.00000000000E+00 0.  1.
         21    1    1    2  502  501 -0.65602696860E+02  0.27068323740E+02  0.26094260089E+02  0.75612951238E+02  0.00000000000E+00 0.  1.
<scales pt_clust_5="13000.00000" pt_clust_6="13000.00000" pt_clust_7="13000.00000" pt_clust_8="13000.00000" pt_clust_9="70.96765"></scales>
<clustering>
<clus scale="   70.968">  2  9  1 -1</clus>
<clus scale="   81.339">  5  6 -1 -1</clus>
<clus scale="   90.817">  7  8 -1 -1</clus>
<clus scale="  162.509">  1  5  2 -1</clus>
<clus scale="  162.509">  1  5  2 -1</clus>
</clustering>
</event>
<event>
 9    1  0.3846604E-005  0.9023454E+02  0.7546771E-02  0.1307958E+00
         -2   -1    0    0    0  501 -0.00000000000E+00  0.00000000000E+00  0.24904099868E+03  0.24904099868E+03  0.00000000000E+00 0.  1.
          1   -1    0    0  502    0  0.00000000000E+00 -0.00000000000E+00 -0.77661932951E+02  0.77661932951E+02  0.00000000000E+00 0. -1.
        -24    2    1    2    0    0  0.31256972518E+02 -0.17838216166E+02  0.35660671010E+02  0.95255175886E+02  0.80663900162E+02 0.  0.
         23    2    1    2    0    0  0.14196833683E+02  0.31417522647E+01  0.34984676844E+01  0.90862750661E+02  0.89623543155E+02 0.  0.
         11    1    3    3    0    0 -0.63223345278E+01 -0.42720596819E+02  0.19371340412E+02  0.47331492010E+02  0.00000000000E+00 0. -1.
        -12    1    3    3    0    0  0.37579307046E+02  0.24882380653E+02  0.16289330597E+02  0.47923683877E+02  0.00000000000E+00 0.  1.
        -11    1    4    4    0    0 -0.16224957991E+02 -0.35969715590E+02 -0.73519079779E+01  0.40138762466E+02  0.00000000000E+00 0. -1.
         11    1    4    4    0    0  0.30421791674E+02  0.39111467854E+02  0.10850375662E+02  0.50723988195E+02  0.00000000000E+00 0.  1.
         21    1    1    2  502  501 -0.45453806202E+02  0.14696463902E+02  0.13221992704E+03  0.14058500509E+03  0.00000000000E+00 0.  1.
<scales pt_clust_5="13000.00000" pt_clust_6="13000.00000" pt_clust_7="13000.00000" pt_clust_8="13000.00000" pt_clust_9="47.77065"></scales>
<clustering>
<clus scale="   47.771">  1  9  2 -1</clus>
<clus scale="   80.664">  5  6 -1 -1</clus>
<clus scale="   81.342">  1  5  2 -1</clus>
<clus scale="   89.624">  7  8 -1 -1</clus>
<clus scale="   90.235">  2  5  1 -1</clus>
</clustering>
</event>
<event>
 9    1  0.3846604E-005  0.9261076E+02  0.7546771E-02  0.1303241E+00
          1   -1    0    0  502    0  0.00000000000E+00  0.00000000000E+00  0.12167731988E+03  0.12167731988E+03  0.00000000000E+00 0. -1.
         -2   -1    0    0    0  501 -0.00000000000E+00 -0.00000000000E+00 -0.17236775387E+03  0.17236775387E+03  0.00000000000E+00 0.  1.
        -24    2    1    2    0    0  0.29691985297E+02  0.14517654659E+01 -0.92313006803E+02  0.12552792108E+03  0.79698470075E+02 0.  0.
         23    2    1    2    0    0 -0.10933063308E+00  0.22813776750E+02  0.73393885344E+02  0.11878420287E+03  0.90567897637E+02 0.  0.
         11    1    3    3    0    0  0.41810881328E+02  0.30240681187E+02 -0.43069483487E+02  0.67213309723E+02  0.00000000000E+00 0. -1.
        -12    1    3    3    0    0 -0.12118896031E+02 -0.28788915721E+02 -0.49243523316E+02  0.58314611359E+02  0.00000000000E+00 0.  1.
        -11    1    4    4    0    0 -0.21092934022E+02 -0.23422921793E+02  0.25501335704E+01  0.31623540476E+02  0.00000000000E+00 0.  1.
         11    1    4    4    0    0  0.20983603389E+02  0.46236698543E+02  0.70843751774E+02  0.87160662393E+02  0.00000000000E+00 0. -1.
         21    1    1    2  502  501 -0.29582654664E+02 -0.24265542216E+02 -0.31771312526E+02  0.49732949799E+02  0.00000000000E+00 0. -1.
<scales pt_clust_5="13000.00000" pt_clust_6="13000.00000" pt_clust_7="13000.00000" pt_clust_8="13000.00000" pt_clust_9="38.26160"></scales>
<clustering>
<clus scale="   38.262">  2  9  1 -1</clus>
<clus scale="   79.698">  5  6 -1 -1</clus>
<clus scale="   82.013">  2  5  1 -1</clus>
<clus scale="   90.568">  7  8 -1 -1</clus>
<clus scale="   92.611">  1  5  2 -1</clus>
</clustering>
</event>
<event>
 9    1  0.3846604E-005  0.1315719E+03  0.7546771E-02  0.1226433E+00
         -4   -1    0    0    0  501 -0.00000000000E+00  0.00000000000E+00  0.12533381413E+03  0.12533381413E+03  0.00000000000E+00 0.  1.
          3   -1    0    0  502    0  0.00000000000E+00 -0.00000000000E+00 -0.27414069241E+03  0.27414069241E+03  0.00000000000E+00 0. -1.
        -24    2    1    2    0    0 -0.71363675213E+02 -0.63880432150E+02  0.47692659844E+02  0.13381252240E+03  0.80359925318E+02 0.  0.
         23    2    1    2    0    0  0.10265905357E+03  0.61082402024E+02 -0.16742714902E+03  0.22285505144E+03  0.85805492874E+02 0.  0.
         13    1    3    3    0    0 -0.21539637375E+02 -0.66612321791E+02  0.88250350263E+01  0.70562303221E+02  0.00000000000E+00 0. -1.
        -14    1    3    3    0    0 -0.49824037838E+02  0.27318896413E+01  0.38867624818E+02  0.63250219181E+02  0.00000000000E+00 0.  1.
        -13    1    4    4    0    0  0.99690520936E+02  0.32388083365E+02 -0.16281881609E+03  0.19364182085E+03  0.00000000000E+00 0. -1.
         13    1    4    4    0    0  0.29685326295E+01  0.28694318659E+02 -0.46083329319E+01  0.29213230593E+02  0.00000000000E+00 0.  1.
         21    1    1    2  502  501 -0.31295378353E+02  0.27980301256E+01 -0.29072389106E+02  0.42806932700E+02  0.00000000000E+00 0. -1.
<scales pt_clust_5="13000.00000" pt_clust_6="13000.00000" pt_clust_7="13000.00000" pt_clust_8="13000.00000" pt_clust_9="31.42021"></scales>
<clustering>
<clus scale="   31.420">  2  9  1 -1</clus>
<clus scale="   80.360">  5  6 -1 -1</clus>
<clus scale="   85.805">  7  8 -1 -1</clus>
<clus scale="  128.087">  1  5  2 -1</clus>
<clus scale="   31.420">  2  5  1 -1</clus>
</clustering>
</event>
<event>
 9    1  0.3846604E-005  0.1975402E+03  0.7546771E-02  0.1152936E+00
         -2   -1    0    0    0  501 -0.00000000000E+00  0.00000000000E+00  0.56070304292E+02  0.56070304292E+02  0.00000000000E+00 0.  1.
          1   -1    0    0  502    0  0.00000000000E+00 -0.00000000000E+00 -0.85342128961E+03  0.85342128961E+03  0.00000000000E+00 0. -1.
        -24    2    1    2    0    0  0.14791539126E+03 -0.66227596465E+02 -0.26208113514E+03  0.31825260389E+03  0.79581034059E+02 0.  0.
         23    2    1    2    0    0 -0.18246945304E+03  0.41961616942E+02 -0.45969674436E+03  0.50467043180E+03  0.91188098821E+02 0.  0.
         11    1    3    3    0    0  0.14454218944E+03 -0.37344450416E+02 -0.23563437281E+03  0.27894553260E+03  0.00000000000E+00 0. -1.
        -12    1    3    3    0    0  0.33732018226E+01 -0.28883146049E+02 -0.26446762329E+02  0.39307071297E+02  0.00000000000E+00 0.  1.
        -11    1    4    4    0    0 -0.10848876491E+03  0.26468483456E+02 -0.37441589396E+03  0.39071428740E+03  0.00000000000E+00 0.  1.
         11    1    4    4    0    0 -0.73980688130E+02  0.15493133486E+02 -0.85280850403E+02  0.11395614440E+03  0.00000000000E+00 0. -1.
         21    1    1    2  502  501  0.34554061781E+02  0.24265979524E+02 -0.75573105820E+02  0.86568558213E+02  0.00000000000E+00 0. -1.
<scales pt_clust_5="13000.00000" pt_clust_6="13000.00000" pt_clust_7="13000.00000" pt_clust_8="13000.00000" pt_clust_9="42.22346"></scales>
<clustering>
<clus scale="   42.223">  1  9  2 -1</clus>
<clus scale="   79.581">  5  6 -1 -1</clus>
<clus scale="   91.188">  7  8 -1 -1</clus>
<clus scale="  192.458">  1  5  2 -1</clus>
<clus scale="  197.540">  2  5  1 -1</clus>
</clustering>
</event>
<event>
 9    1  0.3846604E-005  0.1043301E+03  0.7546771E-02  0.1282142E+00
         -2   -1    0    0    0  501 -0.00000000000E+00  0.00000000000E+00  0.37564019657E+02  0.37564019657E+02  0.00000000000E+00 0.  1.
          1   -1    0    0  502    0  0.00000000000E+00 -0.00000000000E+00 -0.53541714234E+03  0.53541714234E+03  0.00000000000E+00 0. -1.
         23    2    1    2    0    0  0.34697203398E+02  0.14218252209E+02 -0.57853003860E+02  0.11497403926E+03  0.92010896253E+02 0.  0.
        -24    2    1    2    0    0 -0.51327873054E+02  0.67987579099E+01 -0.40376590266E+03  0.41293814994E+03  0.69355878377E+02 0.  0.
         13    1    4    4    0    0 -0.19798076182E+02  0.34838432126E+02 -0.13303092701E+03  0.13893490459E+03  0.00000000000E+00 0. -1.
        -14    1    4    4    0    0 -0.31529796872E+02 -0.28039674216E+02 -0.27073497565E+03  0.27400324535E+03  0.00000000000E+00 0.  1.
        -11    1    3    3    0    0  0.10729370811E+02  0.45188212096E+02 -0.59856006403E+02  0.75761701492E+02  0.00000000000E+00 0. -1.
         11    1    3    3    0    0  0.23967832587E+02 -0.30969959887E+02  0.20030025429E+01  0.39212337771E+02  0.00000000000E+00 0.  1.
         21    1    1    2  502  501  0.16630669656E+02 -0.21017010119E+02 -0.36234216167E+02  0.45068972795E+02  0.00000000000E+00 0. -1.
<scales pt_clust_5="13000.00000" pt_clust_6="13000.00000" pt_clust_7="13000.00000" pt_clust_8="13000.00000" pt_clust_9="26.80101"></scales>
<clustering>
<clus scale="   26.801">  1  9  2 -1</clus>
<clus scale="   69.356">  5  6 -1 -1</clus>
<clus scale="   85.024">  2  5  1 -1</clus>
<clus scale="   92.011">  7  8 -1 -1</clus>
<clus scale="   85.024">  2  5  1 -1</clus>
</clustering>
</event>
<event>
 9    1  0.3846604E-005  0.9333198E+02  0.7546771E-02  0.1301928E+00
          3   -1    0    0  502    0  0.00000000000E+00  0.00000000000E+00  0.36988024186E+03  0.36988024186E+03  0.00000000000E+00 0. -1.
         -4   -1    0    0    0  501 -0.00000000000E+00 -0.00000000000E+00 -0.41497681328E+02  0.41497681328E+02  0.00000000000E+00 0.  1.
         23    2    1    2    0    0  0.19084875750E+02 -0.29241832751E+01  0.45177499761E+02  0.10339967695E+03  0.90981884891E+02 0.  0.
        -24    2    1    2    0    0 -0.12491407640E+02  0.35128533311E+02  0.19399334028E+03  0.21290288110E+03  0.79398813537E+02 0.  0.
         11    1    4    4    0    0 -0.44815986817E+02  0.31305580480E+02  0.11033636945E+03  0.12313661709E+03  0.00000000000E+00 0. -1.
        -12    1    4    4    0    0  0.32324579176E+02  0.38229528303E+01  0.83656970822E+02  0.89766264010E+02  0.00000000000E+00 0.  1.
        -11    1    3    3    0    0  0.52224335725E+02 -0.14742575659E+02  0.40909114945E+02  0.67957931579E+02  0.00000000000E+00 0.  1.
         11    1    3    3    0    0 -0.33139459975E+02  0.11818392383E+02  0.42683848165E+01  0.35441745370E+02  0.00000000000E+00 0. -1.
         21    1    1    2  502  501 -0.65934681103E+01 -0.32204350036E+02  0.89211720493E+02  0.95075365139E+02  0.00000000000E+00 0. -1.
<scales pt_clust_5="13000.00000" pt_clust_6="13000.00000" pt_clust_7="13000.00000" pt_clust_8="13000.00000" pt_clust_9="32.87239"></scales>
<clustering>
<clus scale="   32.872">  1  9  2 -1</clus>
<clus scale="   79.399">  5  6 -1 -1</clus>
<clus scale="   82.081">  1  5  2 -1</clus>
<clus scale="   90.982">  7  8 -1 -1</clus>
<clus scale="   32.872">  1  5  2 -1</clus>
</clustering>
</event>
<event>
 9    1  0.3846604E-005  0.1189349E+03  0.7546771E-02  0.1249072E+00
          1   -1    0    0  502    0  0.00000000000E+00  0.00000000000E+00  0.17490358304E+03  0.17490358304E+03  0.00000000000E+00 0. -1.
         -2   -1    0    0    0  501 -0.00000000000E+00 -0.00000000000E+00 -0.11191873804E+03  0.11191873804E+03  0.00000000000E+00 0.  1.
         23    2    1    2    0    0 -0.17491971080E+02 -0.69116625208E+02  0.30801364604E+02  0.12157545681E+03  0.93534970486E+02 0.  0.
        -24    2    1    2    0    0  0.51287983601E+02  0.59654620734E+02  0.52732262722E+02  0.12457805011E+03  0.80931254780E+02 0.  0.
         13    1    4    4    0    0  0.11608291860E+02  0.31880734267E+02 -0.18342672608E+02  0.38569253243E+02  0.00000000000E+00 0. -1.
        -14    1    4    4    0    0  0.39679691740E+02  0.27773886468E+02  0.71074935330E+02  0.86008796866E+02  0.00000000000E+00 0.  1.
        -11    1    3    3    0    0 -0.24792127224E+02  0.37073529439E+01 -0.20346087195E+02  0.32285558727E+02  0.00000000000E+00 0.  1.
         11    1    3    3    0    0  0.73001561442E+01 -0.72823978152E+02  0.51147451799E+02  0.89289898080E+02  0.00000000000E+00 0. -1.
         21    1    1    2  502  501 -0.33796012521E+02  0.94620044744E+01 -0.20548782323E+02  0.40668814169E+02  0.00000000000E+00 0. -1.
<scales pt_clust_5="13000.00000" pt_clust_6="13000.00000" pt_clust_7="13000.00000" pt_clust_8="13000.00000" pt_clust_9="35.09558"></scales>
<clustering>
<clus scale="   35.096">  2  9  1 -1</clus>
<clus scale="   80.931">  5  6 -1 -1</clus>
<clus scale="   93.535">  7  8 -1 -1</clus>
<clus scale="  109.300">  1  5  2 -1</clus>
<clus scale="  109.300">  1  5  2 -1</clus>
</clustering>
</event>
<event>
 9    1  0.3846604E-005  0.1092746E+03  0.7546771E-02  0.1266155E+00
         -2   -1    0    0    0  501 -0.00000000000E+00  0.00000000000E+00  0.18344210528E+03  0.18344210528E+03  0.00000000000E+00 0.  1.
          1   -1    0    0  502    0  0.00000000000E+00 -0.00000000000E+00 -0.17729779689E+03  0.17729779689E+03  0.00000000000E+00 0. -1.
        -24    2    1    2    0    0 -0.10947750911E+02  0.72300455996E+02  0.88352374107E+02  0.13978815482E+03  0.79921067508E+02 0.  0.
         23    2    1    2    0    0 -0.10057093345E+02 -0.58687270387E+02 -0.12862290946E+03  0.16821788703E+03  0.90598365582E+02 0.  0.
         11    1    3    3    0    0 -0.39921531030E+02  0.41999318206E+02  0.23424052781E+02  0.62500860940E+02  0.00000000000E+00 0. -1.
        -12    1    3    3    0    0  0.28973780120E+02  0.30301137791E+02  0.64928321326E+02  0.77287293884E+02  0.00000000000E+00 0.  1.
        -13    1    4    4    0    0  0.67366058974E+01 -0.36566352392E+02 -0.56832490772E+00  0.37186058940E+02  0.00000000000E+00 0.  1.
         13    1    4    4    0    0 -0.16793699243E+02 -0.22120917995E+02 -0.12805458455E+03  0.13103182809E+03  0.00000000000E+00 0. -1.
         21    1    1    2  502  501  0.21004844256E+02 -0.13613185609E+02  0.46414843739E+02  0.52733860318E+02  0.00000000000E+00 0.  1.
<scales pt_clust_5="13000.00000" pt_clust_6="13000.00000" pt_clust_7="13000.00000" pt_clust_8="13000.00000" pt_clust_9="25.03043"></scales>
<clustering>
<clus scale="   25.030">  1  9  2 -1</clus>
<clus scale="   79.921">  5  6 -1 -1</clus>
<clus scale="   90.598">  7  8 -1 -1</clus>
<clus scale="  100.599">  1  5  2 -1</clus>
<clus scale="  109.275">  2  5  1 -1</clus>
</clustering>
</event>
<event>
 9    1  0.3846604E-005  0.2150684E+03  0.7546771E-02  0.1138487E+00
          1   -1    0    0  502    0  0.00000000000E+00  0.00000000000E+00  0.39894322367E+03  0.39894322367E+03  0.00000000000E+00 0. -1.
         -2   -1    0    0    0  501 -0.00000000000E+00 -0.00000000000E+00 -0.96273133823E+03  0.96273133823E+03  0.00000000000E+00 0.  1.
        -24    2    1    2    0    0 -0.52815876596E+02  0.17975631424E+03 -0.83543966036E+03  0.85998272709E+03  0.80678469609E+02 0.  0.
         23    2    1    2    0    0 -0.13831448151E+02 -0.19469380812E+03  0.34155776489E+03  0.40395814520E+03  0.91779564394E+02 0.  0.
         13    1    3    3    0    0 -0.70270978396E+02  0.10876690340E+03 -0.48422211627E+03  0.50123777547E+03  0.00000000000E+00 0. -1.
        -14    1    3    3    0    0  0.17455101801E+02  0.70989410847E+02 -0.35121754410E+03  0.35874495162E+03  0.00000000000E+00 0.  1.
        -11    1    4    4    0    0 -0.39228015849E+02 -0.53105398302E+02  0.15426513716E+03  0.16779974106E+03  0.00000000000E+00 0. -1.
         11    1    4    4    0    0  0.25396567698E+02 -0.14158840981E+03  0.18729262772E+03  0.23615840414E+03  0.00000000000E+00 0.  1.
         21    1    1    2  502  501  0.66647324747E+02  0.14937493871E+02 -0.69906219083E+02  0.97733689614E+02  0.00000000000E+00 0. -1.
<scales pt_clust_5="13000.00000" pt_clust_6="13000.00000" pt_clust_7="13000.00000" pt_clust_8="13000.00000" pt_clust_9="68.30077"></scales>
<clustering>
<clus scale="   68.301">  2  9  1 -1</clus>
<clus scale="   80.678">  5  6 -1 -1</clus>
<clus scale="   91.780">  7  8 -1 -1</clus>
<clus scale="  210.571">  2  5  1 -1</clus>
<clus scale="  215.068">  1  5  2 -1</clus>
</clustering>
</event>
<event>
 9    1  0.3846604E-005  0.1561115E+03  0.7546771E-02  0.1195276E+00
          1   -1    0    0  502    0  0.00000000000E+00  0.00000000000E+00  0.35026583167E+03  0.35026583167E+03  0.00000000000E+00 0. -1.
         -2   -1    0    0    0  501 -0.00000000000E+00 -0.00000000000E+00 -0.19892627865E+03  0.19892627865E+03  0.00000000000E+00 0.  1.
        -24    2    1    2    0    0  0.89909548912E+02 -0.18780366724E+02 -0.94723272260E+02  0.15287871301E+03  0.77220291539E+02 0.  0.
         23    2    1    2    0    0 -0.13209141918E+03  0.18954518364E+02  0.29230114723E+03  0.33372487660E+03  0.90138314858E+02 0.  0.
         11    1    3    3    0    0  0.38872046589E+02  0.30190017776E+02 -0.36757904833E+02  0.61429770853E+02  0.00000000000E+00 0. -1.
        -12    1    3    3    0    0  0.51037502323E+02 -0.48970384500E+02 -0.57965367427E+02  0.91448942162E+02  0.00000000000E+00 0.  1.
        -13    1    4    4    0    0 -0.12724010040E+03 -0.11253922179E+02  0.25711406241E+03  0.28709638625E+03  0.00000000000E+00 0. -1.
         13    1    4    4    0    0 -0.48513187830E+01  0.30208440542E+02  0.35187084823E+02  0.46628490349E+02  0.00000000000E+00 0.  1.
         21    1    1    2  502  501  0.42181870267E+02 -0.17415163921E+00 -0.46238321948E+02  0.62588520709E+02  0.00000000000E+00 0. -1.
<scales pt_clust_5="13000.00000" pt_clust_6="13000.00000" pt_clust_7="13000.00000" pt_clust_8="13000.00000" pt_clust_9="42.18223"></scales>
<clustering>
<clus scale="   42.182">  2  9  1 -1</clus>
<clus scale="   77.220">  5  6 -1 -1</clus>
<clus scale="   90.138">  7  8 -1 -1</clus>
<clus scale="  149.026">  2  5  1 -1</clus>
<clus scale="  156.111">  1  5  2 -1</clus>
</clustering>
</event>
<event>
 9    1  0.3846604E-005  0.1045973E+03  0.7546771E-02  0.1275257E+00
         -2   -1    0    0    0  501 -0.00000000000E+00  0.00000000000E+00  0.10528082227E+03  0.10528082227E+03  0.00000000000E+00 0.  1.
          1   -1    0    0  502    0  0.00000000000E+00 -0.00000000000E+00 -0.57966480539E+03  0.57966480539E+03  0.00000000000E+00 0. -1.
        -24    2    1    2    0    0 -0.78511197969E+02 -0.14841225761E+02 -0.20793768800E+03  0.23686087182E+03  0.80502921176E+02 0.  0.
         23    2    1    2    0    0  0.26144410723E+02  0.36698157735E+02 -0.34029166227E+03  0.35495503914E+03  0.90356955506E+02 0.  0.
         13    1    3    3    0    0 -0.37557583013E+02 -0.46822543966E+02 -0.13001704423E+03  0.14320389120E+03  0.00000000000E+00 0. -1.
        -14    1    3    3    0    0 -0.40953614956E+02  0.31981318205E+02 -0.77920643775E+02  0.93656980617E+02  0.00000000000E+00 0.  1.
        -13    1    4    4    0    0 -0.33831872669E+02  0.11767278225E+02 -0.13176612467E+03  0.13654807232E+03  0.00000000000E+00 0.  1.
         13    1    4    4    0    0  0.59976283392E+02  0.24930879510E+02 -0.20852553761E+03  0.21840696682E+03  0.00000000000E+00 0. -1.
         21    1    1    2  502  501  0.52366787246E+02 -0.21856931974E+02  0.73845367156E+02  0.93129716698E+02  0.00000000000E+00 0.  1.
<scales pt_clust_5="13000.00000" pt_clust_6="13000.00000" pt_clust_7="13000.00000" pt_clust_8="13000.00000" pt_clust_9="56.74510"></scales>
<clustering>
<clus scale="   56.745">  1  9  2 -1</clus>
<clus scale="   80.503">  5  6 -1 -1</clus>
<clus scale="   90.357">  7  8 -1 -1</clus>
<clus scale="   96.213">  1  5  2 -1</clus>
<clus scale="  104.597">  2  5  1 -1</clus>
</clustering>
</event>
<event>
 9    1  0.3846604E-005  0.1251262E+03  0.7546771E-02  0.1245813E+00
          1   -1    0    0  502    0  0.00000000000E+00  0.00000000000E+00  0.40162743188E+03  0.40162743188E+03  0.00000000000E+00 0. -1.
         -2   -1    0    0    0  501 -0.00000000000E+00 -0.00000000000E+00 -0.43872825139E+02  0.43872825139E+02  0.00000000000E+00 0.  1.
         23    2    1    2    0    0  0.56750498667E+02 -0.43823599112E+02  0.21340551167E+03  0.25136458711E+03  0.11180839103E+03 0.  0.
        -24    2    1    2    0    0 -0.35773516820E+02  0.25935336726E+02  0.13599839759E+03  0.16533015226E+03  0.82982581931E+02 0.  0.
         11    1    4    4    0    0  0.36359586408E+01  0.43818983769E+02  0.37671071560E+02  0.57900200054E+02  0.00000000000E+00 0. -1.
        -12    1    4    4    0    0 -0.39409475461E+02 -0.17883647043E+02  0.98327326030E+02  0.10742995221E+03  0.00000000000E+00 0.  1.
        -13    1    3    3    0    0  0.30684639166E+02  0.24250466546E+01 -0.68715623107E+00  0.30787986548E+02  0.00000000000E+00 0.  1.
         13    1    3    3    0    0  0.26065859501E+02 -0.46248645767E+02  0.21409266790E+03  0.22057660056E+03  0.00000000000E+00 0. -1.
         21    1    1    2  502  501 -0.20976981847E+02  0.17888262386E+02  0.83506974886E+01  0.28805517651E+02  0.00000000000E+00 0.  1.
<scales pt_clust_5="13000.00000" pt_clust_6="13000.00000" pt_clust_7="13000.00000" pt_clust_8="13000.00000" pt_clust_9="27.56853"></scales>
<clustering>
<clus scale="   27.569">  2  9  1 -1</clus>
<clus scale="   82.983">  5  6 -1 -1</clus>
<clus scale="  100.208">  1  5  2 -1</clus>
<clus scale="  111.808">  7  8 -1 -1</clus>
<clus scale="  100.208">  1  5  2 -1</clus>
</clustering>
</event>
<event>
 9    1  0.3846604E-005  0.1115743E+03  0.7546771E-02  0.1261128E+00
          1   -1    0    0  502    0  0.00000000000E+00  0.00000000000E+00  0.37729876594E+03  0.37729876594E+03  0.00000000000E+00 0. -1.
         -2   -1    0    0    0  501 -0.00000000000E+00 -0.00000000000E+00 -0.43209174354E+02  0.43209174354E+02  0.00000000000E+00 0.  1.
         23    2    1    2    0    0  0.33015601237E+02  0.42159237938E+02  0.10122596162E+03  0.14508806085E+03  0.89086580515E+02 0.  0.
        -24    2    1    2    0    0 -0.65173777593E+02 -0.41629277161E+02  0.20363288616E+03  0.23195879859E+03  0.79736528114E+02 0.  0.
         11    1    4    4    0    0 -0.48354092789E+02 -0.59754766541E+02  0.18693312144E+03  0.20212061326E+03  0.00000000000E+00 0. -1.
        -12    1    4    4    0    0 -0.16819684804E+02  0.18125489380E+02  0.16699764722E+02  0.29838185333E+02  0.00000000000E+00 0.  1.
        -13    1    3    3    0    0 -0.12077174278E+02  0.52430925115E+02  0.73762586418E+02  0.91300488509E+02  0.00000000000E+00 0. -1.
         13    1    3    3    0    0  0.45092775516E+02 -0.10271687177E+02  0.27463375198E+02  0.53787572342E+02  0.00000000000E+00 0.  1.
         21    1    1    2  502  501  0.32158176355E+02 -0.52996077692E+00  0.29230743807E+02  0.43461080848E+02  0.00000000000E+00 0. -1.
<scales pt_clust_5="13000.00000" pt_clust_6="13000.00000" pt_clust_7="13000.00000" pt_clust_8="13000.00000" pt_clust_9="32.16254"></scales>
<clustering>
<clus scale="   32.163">  2  9  1 -1</clus>
<clus scale="   79.737">  5  6 -1 -1</clus>
<clus scale="   89.087">  7  8 -1 -1</clus>
<clus scale="  104.261">  1  5  2 -1</clus>
<clus scale="  104.261">  1  5  2 -1</clus>
</clustering>
</event>
<event>
 9    1  0.3846604E-005  0.1695189E+03  0.7546771E-02  0.1179893E+00
         -2   -1    0    0    0  501 -0.00000000000E+00  0.00000000000E+00  0.31004125745E+03  0.31004125745E+03  0.00000000000E+00 0.  1.
          1   -1    0    0  502    0  0.00000000000E+00 -0.00000000000E+00 -0.17502799850E+03  0.17502799850E+03  0.00000000000E+00 0. -1.
         23    2    1    2    0    0 -0.12376484546E+03  0.76091092059E+02  0.21576780767E+03  0.27558597960E+03  0.91018097430E+02 0.  0.
        -24    2    1    2    0    0  0.12958990012E+03 -0.42785334950E+02 -0.75874941381E+02  0.17532167092E+03  0.79728003008E+02 0.  0.
         13    1    4    4    0    0  0.11883331202E+03 -0.42777837861E+02 -0.91777337383E+02  0.15612296153E+03  0.00000000000E+00 0. -1.
        -14    1    4    4    0    0  0.10756588097E+02 -0.74970881108E-02  0.15902396002E+02  0.19198709391E+02  0.00000000000E+00 0.  1.
        -13    1    3    3    0    0 -0.10991252162E+03  0.95468031285E+02  0.19850543267E+03  0.24616927957E+03  0.00000000000E+00 0.  1.
         13    1    3    3    0    0 -0.13852323836E+02 -0.19376939225E+02  0.17262375003E+02  0.29416700022E+02  0.00000000000E+00 0. -1.
         21    1    1    2  502  501 -0.58250546581E+01 -0.33305757110E+02 -0.48796073444E+01  0.34161605440E+02  0.00000000000E+00 0. -1.
<scales pt_clust_5="13000.00000" pt_clust_6="13000.00000" pt_clust_7="13000.00000" pt_clust_8="13000.00000" pt_clust_9="33.81131"></scales>
<clustering>
<clus scale="   33.811">  2  9  1 -1</clus>
<clus scale="   79.728">  5  6 -1 -1</clus>
<clus scale="   91.018">  7  8 -1 -1</clus>
<clus scale="  163.734">  2  5  1 -1</clus>
<clus scale="   33.811">  2  5  1 -1</clus>
</clustering>
</event>
<event>
 9    1  0.3846604E-005  0.1816415E+03  0.7546771E-02  0.1167295E+00
         -4   -1    0    0    0  501 -0.00000000000E+00  0.00000000000E+00  0.61865630859E+03  0.61865630859E+03  0.00000000000E+00 0.  1.
          3   -1    0    0  502    0  0.00000000000E+00 -0.00000000000E+00 -0.62126366392E+02  0.62126366392E+02  0.00000000000E+00 0. -1.
        -24    2    1    2    0    0 -0.12203093913E+02 -0.16394353469E+03  0.25327097951E+03  0.31326138967E+03  0.83427280505E+02 0.  0.
         23    2    1    2    0    0  0.37326688434E+02  0.14493421256E+03  0.25119762638E+03  0.30666956333E+03  0.92448720562E+02 0.  0.
         13    1    3    3    0    0 -0.32636210025E+02 -0.13151168606E+03  0.14524788593E+03  0.19863885356E+03  0.00000000000E+00 0. -1.
        -14    1    3    3    0    0  0.20433116111E+02 -0.32431848622E+02  0.10802309358E+03  0.11462253611E+03  0.00000000000E+00 0.  1.
        -11    1    4    4    0    0  0.43199366568E+02  0.64954085400E+02  0.57146798937E+02  0.96700440075E+02  0.00000000000E+00 0. -1.
         11    1    4    4    0    0 -0.58726781341E+01  0.79980127164E+02  0.19405082744E+03  0.20996912325E+03  0.00000000000E+00 0.  1.
         21    1    1    2  502  501 -0.25123594520E+02  0.19009322122E+02  0.52061336313E+02  0.60851721980E+02  0.00000000000E+00 0. -1.
<scales pt_clust_5="13000.00000" pt_clust_6="13000.00000" pt_clust_7="13000.00000" pt_clust_8="13000.00000" pt_clust_9="31.50475"></scales>
<clustering>
<clus scale="   31.505">  1  9  2 -1</clus>
<clus scale="   83.427">  5  6 -1 -1</clus>
<clus scale="   92.449">  7  8 -1 -1</clus>
<clus scale="  177.220">  1  5  2 -1</clus>
<clus scale="  181.641">  2  5  1 -1</clus>
</clustering>
</event>
<event>
 9    1  0.3846604E-005  0.9768640E+02  0.7546771E-02  0.1289428E+00
          1   -1    0    0  502    0  0.00000000000E+00  0.00000000000E+00  0.24929464290E+03  0.24929464290E+03  0.00000000000E+00 0. -1.
         -2   -1    0    0    0  501 -0.00000000000E+00 -0.00000000000E+00 -0.17472479178E+03  0.17472479178E+03  0.00000000000E+00 0.  1.
         23    2    1    2    0    0  0.59427115232E+01  0.11651369332E+02 -0.13769086082E+03  0.16539511833E+03  0.90695654720E+02 0.  0.
        -24    2    1    2    0    0 -0.19151333680E+02 -0.32471558006E+02  0.21539059906E+03  0.23376985702E+03  0.82668375003E+02 0.  0.
         11    1    4    4    0    0  0.12335991713E+02 -0.45196589739E+02  0.68396152116E+02  0.82903208863E+02  0.00000000000E+00 0. -1.
        -12    1    4    4    0    0 -0.31487325394E+02  0.12725031733E+02  0.14699444694E+03  0.15086664815E+03  0.00000000000E+00 0.  1.
        -13    1    3    3    0    0  0.46324832667E+02  0.11299670232E+02 -0.51339224538E+02  0.70067029658E+02  0.00000000000E+00 0.  1.
         13    1    3    3    0    0 -0.40382121144E+02  0.35169909977E+00 -0.86351636287E+02  0.95328088671E+02  0.00000000000E+00 0. -1.
         21    1    1    2  502  501  0.13208622157E+02  0.20820188674E+02 -0.31298871177E+01  0.24854459340E+02  0.00000000000E+00 0. -1.
<scales pt_clust_5="13000.00000" pt_clust_6="13000.00000" pt_clust_7="13000.00000" pt_clust_8="13000.00000" pt_clust_9="24.65660"></scales>
<clustering>
<clus scale="   24.657">  2  9  1 -1</clus>
<clus scale="   82.668">  5  6 -1 -1</clus>
<clus scale="   90.283">  1  5  2 -1</clus>
<clus scale="   90.696">  7  8 -1 -1</clus>
<clus scale="   90.283">  1  5  2 -1</clus>
</clustering>
</event>
<event>
 9    1  0.3846604E-005  0.9154500E+02  0.7546771E-02  0.1304823E+00
          3   -1    0    0  502    0  0.00000000000E+00  0.00000000000E+00  0.19952403552E+03  0.19952403552E+03  0.00000000000E+00 0. -1.
         -4   -1    0    0    0  501 -0.00000000000E+00 -0.00000000000E+00 -0.11023132194E+03  0.11023132194E+03  0.00000000000E+00 0.  1.
        -24    2    1    2    0    0  0.51092517008E+01  0.46261558219E+01 -0.62365456406E+02  0.10302676281E+03  0.81716325980E+02 0.  0.
         23    2    1    2    0    0 -0.35851481814E+02 -0.23841734305E+02  0.13055450159E+03  0.16477995953E+03  0.90852628655E+02 0.  0.
         11    1    3    3    0    0 -0.11933831945E+02 -0.20511777738E+02 -0.68102718747E+02  0.72118857947E+02  0.00000000000E+00 0. -1.
        -12    1    3    3    0    0  0.17043083646E+02  0.25137933560E+02  0.57372623415E+01  0.30907904862E+02  0.00000000000E+00 0.  1.
        -13    1    4    4    0    0  0.13266521268E+02  0.22226876585E+02  0.12217053414E+02  0.28623260181E+02  0.00000000000E+00 0.  1.
         13    1    4    4    0    0 -0.49118003082E+02 -0.46068610890E+02  0.11833744818E+03  0.13615669935E+03  0.00000000000E+00 0. -1.
         21    1    1    2  502  501  0.30742230114E+02  0.19215578483E+02  0.21103668398E+02  0.41948635122E+02  0.00000000000E+00 0.  1.
<scales pt_clust_5="13000.00000" pt_clust_6="13000.00000" pt_clust_7="13000.00000" pt_clust_8="13000.00000" pt_clust_9="36.25360"></scales>
<clustering>
<clus scale="   36.254">  1  9  2 -1</clus>
<clus scale="   81.716">  5  6 -1 -1</clus>
<clus scale="   82.485">  2  5  1 -1</clus>
<clus scale="   90.853">  7  8 -1 -1</clus>
<clus scale="   36.254">  1  5  2 -1</clus>
</clustering>
</event>
<event>
 9    1  0.3846604E-005  0.1121714E+03  0.7546771E-02  0.1261597E+00
         -2   -1    0    0    0  501 -0.00000000000E+00  0.00000000000E+00  0.18096381586E+03  0.18096381586E+03  0.00000000000E+00 0.  1.
          1   -1    0    0  502    0  0.00000000000E+00 -0.00000000000E+00 -0.12230562713E+03  0.12230562713E+03  0.00000000000E+00 0. -1.
         23    2    1    2    0    0 -0.17409282192E+02 -0.54359668854E+02  0.66205966575E+01  0.10690749439E+03  0.90151668604E+02 0.  0.
        -24    2    1    2    0    0  0.44189363291E+02  0.60751638275E+02 -0.28649245311E+02  0.11110706169E+03  0.76684669382E+02 0.  0.
         13    1    4    4    0    0 -0.13656292571E+02  0.22220963385E+02 -0.32290423131E+02  0.41508275880E+02  0.00000000000E+00 0. -1.
        -14    1    4    4    0    0  0.57845655862E+02  0.38530674890E+02  0.36411778203E+01  0.69598785805E+02  0.00000000000E+00 0.  1.
        -13    1    3    3    0    0 -0.36082153285E+02 -0.61181454866E+01  0.32608622396E+02  0.49017096451E+02  0.00000000000E+00 0.  1.
         13    1    3    3    0    0  0.18672871093E+02 -0.48241523368E+02 -0.25988025739E+02  0.57890397938E+02  0.00000000000E+00 0. -1.
         21    1    1    2  502  501 -0.26780081099E+02 -0.63919694212E+01  0.80686837385E+02  0.85254886921E+02  0.00000000000E+00 0. -1.
<scales pt_clust_5="13000.00000" pt_clust_6="13000.00000" pt_clust_7="13000.00000" pt_clust_8="13000.00000" pt_clust_9="27.53234"></scales>
<clustering>
<clus scale="   27.532">  1  9  2 -1</clus>
<clus scale="   76.685">  5  6 -1 -1</clus>
<clus scale="   90.152">  7  8 -1 -1</clus>
<clus scale="  101.664">  2  5  1 -1</clus>
<clus scale="  101.664">  2  5  1 -1</clus>
</clustering>
</event>
<event>
 9    1  0.3846604E-005  0.1011592E+03  0.7546771E-02  0.1282350E+00
          1   -1    0    0  502    0  0.00000000000E+00  0.00000000000E+00  0.17780240117E+03  0.17780240117E+03  0.00000000000E+00 0. -1.
         -2   -1    0    0    0  501 -0.00000000000E+00 -0.00000000000E+00 -0.23833676367E+03  0.23833676367E+03  0.00000000000E+00 0.  1.
        -24    2    1    2    0    0  0.46968570087E+02 -0.55062000224E+01 -0.18397606163E+03  0.20621139328E+03  0.80247010234E+02 0.  0.
         23    2    1    2    0    0 -0.44835345855E+02 -0.14429613228E+02  0.14729917477E+03  0.17876422812E+03  0.89672628994E+02 0.  0.
         13    1    3    3    0    0  0.35102721883E+02 -0.39198267472E+02 -0.13996346460E+03  0.14952751145E+03  0.00000000000E+00 0. -1.
        -14    1    3    3    0    0  0.11865848204E+02  0.33692067450E+02 -0.44012597031E+02  0.56683881837E+02  0.00000000000E+00 0.  1.
        -13    1    4    4    0    0 -0.24971861037E+01 -0.36892529665E+02  0.18520336629E+02  0.41355743886E+02  0.00000000000E+00 0.  1.
         13    1    4    4    0    0 -0.42338159751E+02  0.22462916436E+02  0.12877883814E+03  0.13740848423E+03  0.00000000000E+00 0. -1.
         21    1    1    2  502  501 -0.21332242320E+01  0.19935813251E+02 -0.23857475643E+02  0.31163543438E+02  0.00000000000E+00 0.  1.
<scales pt_clust_5="13000.00000" pt_clust_6="13000.00000" pt_clust_7="13000.00000" pt_clust_8="13000.00000" pt_clust_9="20.04962"></scales>
<clustering>
<clus scale="   20.050">  2  9  1 -1</clus>
<clus scale="   80.247">  5  6 -1 -1</clus>
<clus scale="   89.673">  7  8 -1 -1</clus>
<clus scale="   92.906">  2  5  1 -1</clus>
<clus scale="  101.159">  1  5  2 -1</clus>
</clustering>
</event>
<event>
 9    1  0.3846604E-005  0.1748996E+03  0.7546771E-02  0.1174411E+00
         -2   -1    0    0    0  501 -0.00000000000E+00  0.00000000000E+00  0.99847016414E+02  0.99847016414E+02  0.00000000000E+00 0.  1.
          1   -1    0    0  502    0  0.00000000000E+00 -0.00000000000E+00 -0.43159384735E+03  0.43159384735E+03  0.00000000000E+00 0. -1.
        -24    2    1    2    0    0 -0.16447292212E+03 -0.36109300379E+02 -0.68053925947E+02  0.19829626268E+03  0.79591753805E+02 0.  0.
         23    2    1    2    0    0  0.11714069845E+03  0.24801008624E+02 -0.16849752396E+03  0.22623165786E+03  0.91936468136E+02 0.  0.
         13    1    3    3    0    0 -0.26142849549E+02 -0.16516215247E+02 -0.48078847356E+02  0.57164757603E+02  0.00000000000E+00 0. -1.
        -14    1    3    3    0    0 -0.13833007257E+03 -0.19593085132E+02 -0.19975078591E+02  0.14113150508E+03  0.00000000000E+00 0.  1.
        -13    1    4    4    0    0  0.71386737523E+02 -0.86210800509E+01 -0.32512209063E+02  0.78914086534E+02  0.00000000000E+00 0.  1.
         13    1    4    4    0    0  0.45753960924E+02  0.33422088675E+02 -0.13598531490E+03  0.14731757132E+03  0.00000000000E+00 0. -1.
         21    1    1    2  502  501  0.47332223671E+02  0.11308291755E+02 -0.95195381022E+02  0.10691294322E+03  0.00000000000E+00 0. -1.
<scales pt_clust_5="13000.00000" pt_clust_6="13000.00000" pt_clust_7="13000.00000" pt_clust_8="13000.00000" pt_clust_9="48.66433"></scales>
<clustering>
<clus scale="   48.664">  2  9  1 -1</clus>
<clus scale="   79.592">  5  6 -1 -1</clus>
<clus scale="   91.936">  7  8 -1 -1</clus>
<clus scale="  168.738">  1  5  2 -1</clus>
<clus scale="   48.664">  2  5  1 -1</clus>
</clustering>
</event>
<event>
 9    1  0.3846604E-005  0.9447665E+02  0.7546771E-02  0.1295002E+00
         -2   -1    0    0    0  501 -0.00000000000E+00  0.00000000000E+00  0.32418294824E+03  0.32418294824E+03  0.00000000000E+00 0.  1.
          1   -1    0    0  502    0  0.00000000000E+00 -0.00000000000E+00 -0.50000922541E+02  0.50000922541E+02  0.00000000000E+00 0. -1.
        -24    2    1    2    0    0 -0.55468926062E+01  0.18970415448E+02  0.20622776486E+03  0.22251175343E+03  0.81184633596E+02 0.  0.
         23    2    1    2    0    0  0.47822925605E+01 -0.43874258773E+02  0.21842983254E+02  0.99259943715E+02  0.86183522809E+02 0.  0.
         13    1    3    3    0    0 -0.42481886816E+02  0.48170566536E+01  0.12614629913E+03  0.13319460772E+03  0.00000000000E+00 0. -1.
        -14    1    3    3    0    0  0.36934994210E+02  0.14153358794E+02  0.80081465736E+02  0.89317145705E+02  0.00000000000E+00 0.  1.
        -11    1    4    4    0    0 -0.39598790823E+02 -0.97707137212E+01  0.11067227399E+02  0.42261265996E+02  0.00000000000E+00 0. -1.
         11    1    4    4    0    0  0.44381083384E+02 -0.34103545052E+02  0.10775755855E+02  0.56998677719E+02  0.00000000000E+00 0.  1.
         21    1    1    2  502  501  0.76460004567E+00  0.24903843326E+02  0.46111277584E+02  0.52412173643E+02  0.00000000000E+00 0. -1.
<scales pt_clust_5="13000.00000" pt_clust_6="13000.00000" pt_clust_7="13000.00000" pt_clust_8="13000.00000" pt_clust_9="24.91558"></scales>
<clustering>
<clus scale="   24.916">  1  9  2 -1</clus>
<clus scale="   81.185">  5  6 -1 -1</clus>
<clus scale="   86.184">  7  8 -1 -1</clus>
<clus scale="   89.940">  1  5  2 -1</clus>
<clus scale="   94.477">  2  5  1 -1</clus>
</clustering>
</event>
<event>
 9    1  0.3846604E-005  0.9652739E+02  0.7546771E-02  0.1293841E+00
         -4   -1    0    0    0  501 -0.00000000000E+00  0.00000000000E+00  0.24228282627E+03  0.24228282627E+03  0.00000000000E+00 0.  1.
          3   -1    0    0  502    0  0.00000000000E+00 -0.00000000000E+00 -0.18844510534E+03  0.18844510534E+03  0.00000000000E+00 0. -1.
         23    2    1    2    0    0  0.27759511791E+02 -0.29540877105E+02  0.58468979489E+02  0.11372222075E+03  0.88717912598E+02 0.  0.
        -24    2    1    2    0    0 -0.74692805138E+01  0.37699885917E+02 -0.14834145650E+03  0.17164105249E+03  0.77320059728E+02 0.  0.
         13    1    4    4    0    0 -0.38034081185E+02  0.16508788265E+02 -0.11287389579E+03  0.12024827555E+03  0.00000000000E+00 0. -1.
        -14    1    4    4    0    0  0.30564800671E+02  0.21191097652E+02 -0.35467560708E+02  0.51392776947E+02  0.00000000000E+00 0.  1.
        -11    1    3    3    0    0  0.33993177258E+02 -0.52640224579E+02  0.15514813716E+02  0.64554153920E+02  0.00000000000E+00 0. -1.
         11    1    3    3    0    0 -0.62336654668E+01  0.23099347473E+02  0.42954165774E+02  0.49168066834E+02  0.00000000000E+00 0.  1.
         21    1    1    2  502  501 -0.20290231277E+02 -0.81590088115E+01  0.14371019794E+03  0.14536465837E+03  0.00000000000E+00 0.  1.
<scales pt_clust_5="13000.00000" pt_clust_6="13000.00000" pt_clust_7="13000.00000" pt_clust_8="13000.00000" pt_clust_9="21.86922"></scales>
<clustering>
<clus scale="   21.869">  1  9  2 -1</clus>
<clus scale="   77.320">  5  6 -1 -1</clus>
<clus scale="   86.169">  2  5  1 -1</clus>
<clus scale="   88.718">  7  8 -1 -1</clus>
<clus scale="   86.169">  2  5  1 -1</clus>
</clustering>
</event>
<event>
 9    1  0.3846604E-005  0.9553674E+02  0.7546771E-02  0.1298914E+00
          1   -1    0    0  502    0  0.00000000000E+00  0.00000000000E+00  0.12927847048E+03  0.12927847048E+03  0.00000000000E+00 0. -1.
         -2   -1    0    0    0  501 -0.00000000000E+00 -0.00000000000E+00 -0.26138060102E+03  0.26138060102E+03  0.00000000000E+00 0.  1.
        -24    2    1    2    0    0 -0.26229371889E+01 -0.11175358309E+02 -0.21390644466E+03  0.22841974088E+03  0.79295917444E+02 0.  0.
         23    2    1    2    0    0 -0.17586073605E+02 -0.31536549495E+01  0.94319782115E+02  0.13448394057E+03  0.94183297074E+02 0.  0.
         11    1    3    3    0    0  0.34724356792E+02 -0.57496827865E+00 -0.56700320156E+02  0.66490885457E+02  0.00000000000E+00 0. -1.
        -12    1    3    3    0    0 -0.37347293981E+02 -0.10600390030E+02 -0.15720612450E+03  0.16192885542E+03  0.00000000000E+00 0.  1.
        -11    1    4    4    0    0 -0.33691494343E+02 -0.20885878997E+02  0.26417115986E+01  0.39728017478E+02  0.00000000000E+00 0.  1.
         11    1    4    4    0    0  0.16105420738E+02  0.17732224048E+02  0.91678070517E+02  0.94755923089E+02  0.00000000000E+00 0. -1.
         21    1    1    2  502  501  0.20209010794E+02  0.14329013258E+02 -0.12515467999E+02  0.27755390061E+02  0.00000000000E+00 0. -1.
<scales pt_clust_5="13000.00000" pt_clust_6="13000.00000" pt_clust_7="13000.00000" pt_clust_8="13000.00000" pt_clust_9="24.77347"></scales>
<clustering>
<clus scale="   24.773">  2  9  1 -1</clus>
<clus scale="   79.296">  5  6 -1 -1</clus>
<clus scale="   80.899">  2  5  1 -1</clus>
<clus scale="   94.183">  7  8 -1 -1</clus>
<clus scale="   95.537">  1  5  2 -1</clus>
</clustering>
</event>
<event>
 9    1  0.3846604E-005  0.3835704E+03  0.7546771E-02  0.1049849E+00
          1   -1    0    0  502    0  0.00000000000E+00  0.00000000000E+00  0.35503034729E+03  0.35503034729E+03  0.00000000000E+00 0. -1.
         -2   -1    0    0    0  501 -0.00000000000E+00 -0.00000000000E+00 -0.72949306210E+03  0.72949306210E+03  0.00000000000E+00 0.  1.
        -24    2    1    2    0    0  0.12730550366E+03 -0.32322918955E+03 -0.49391760974E+03  0.60910078092E+03  0.79783180359E+02 0.  0.
         23    2    1    2    0    0 -0.15769586425E+03  0.34433741789E+03  0.15952093340E+03  0.42088439638E+03  0.90887314647E+02 0.  0.
         13    1    3    3    0    0  0.85902442775E+02 -0.18421322859E+03 -0.22255624532E+03  0.30140508555E+03  0.00000000000E+00 0. -1.
        -14    1    3    3    0    0  0.41403060888E+02 -0.13901596095E+03 -0.27136136442E+03  0.30769569537E+03  0.00000000000E+00 0.  1.
        -11    1    4    4    0    0 -0.60315699865E+00  0.88475049753E+02  0.47552996717E+02  0.10044643211E+03  0.00000000000E+00 0.  1.
         11    1    4    4    0    0 -0.15709270725E+03  0.25586236814E+03  0.11196793668E+03  0.32043796427E+03  0.00000000000E+00 0. -1.
         21    1    1    2  502  501  0.30390360588E+02 -0.21108228344E+02 -0.40066038478E+02  0.54538232093E+02  0.00000000000E+00 0.  1.
<scales pt_clust_5="13000.00000" pt_clust_6="13000.00000" pt_clust_7="13000.00000" pt_clust_8="13000.00000" pt_clust_9="37.00177"></scales>
<clustering>
<clus scale="   37.002">  2  9  1 -1</clus>
<clus scale="   79.783">  5  6 -1 -1</clus>
<clus scale="   90.887">  7  8 -1 -1</clus>
<clus scale="  381.092">  2  5  1 -1</clus>
<clus scale="  383.570">  1  5  2 -1</clus>
</clustering>
</event>
<event>
 9    1  0.3846604E-005  0.1041909E+03  0.7546771E-02  0.1278888E+00
         -2   -1    0    0    0  501 -0.00000000000E+00  0.00000000000E+00  0.69917501072E+02  0.69917501072E+02  0.00000000000E+00 0.  1.
          1   -1    0    0  502    0  0.00000000000E+00 -0.00000000000E+00 -0.33059964343E+03  0.33059964343E+03  0.00000000000E+00 0. -1.
        -24    2    1    2    0    0  0.13181878412E+02  0.82029010934E+02 -0.26814950690E+02  0.11171530705E+03  0.69704717891E+02 0.  0.
         23    2    1    2    0    0 -0.36549500872E+01 -0.52093727616E+02 -0.23662531241E+03  0.25726628956E+03  0.86413483625E+02 0.  0.
         11    1    3    3    0    0  0.29799652495E+02  0.85678234805E+02 -0.17734129435E+02  0.92429857486E+02  0.00000000000E+00 0. -1.
        -12    1    3    3    0    0 -0.16617774083E+02 -0.36492238714E+01 -0.90808212549E+01  0.19285449567E+02  0.00000000000E+00 0.  1.
        -11    1    4    4    0    0  0.32206352880E+02  0.46300345915E+01 -0.58846748676E+02  0.67243038420E+02  0.00000000000E+00 0. -1.
         11    1    4    4    0    0 -0.35861302967E+02 -0.56723762207E+02 -0.17777856374E+03  0.19002325114E+03  0.00000000000E+00 0.  1.
         21    1    1    2  502  501 -0.95269283246E+01 -0.29935283318E+02  0.27581207451E+01  0.31535547889E+02  0.00000000000E+00 0.  1.
<scales pt_clust_5="13000.00000" pt_clust_6="13000.00000" pt_clust_7="13000.00000" pt_clust_8="13000.00000" pt_clust_9="31.41470"></scales>
<clustering>
<clus scale="   31.415">  1  9  2 -1</clus>
<clus scale="   69.705">  5  6 -1 -1</clus>
<clus scale="   86.413">  7  8 -1 -1</clus>
<clus scale="   90.814">  1  5  2 -1</clus>
<clus scale="  104.191">  2  5  1 -1</clus>
</clustering>
</event>
<event>
 9    1  0.3846604E-005  0.9522533E+02  0.7546771E-02  0.1301052E+00
         -2   -1    0    0    0  501 -0.00000000000E+00  0.00000000000E+00  0.11282202848E+03  0.11282202848E+03  0.00000000000E+00 0.  1.
          1   -1    0    0  502    0  0.00000000000E+00 -0.00000000000E+00 -0.18328275212E+03  0.18328275212E+03  0.00000000000E+00 0. -1.
        -24    2    1    2    0    0 -0.35902795640E+02  0.12121075710E+02  0.48264651395E+02  0.97630126994E+02  0.75935722235E+02 0.  0.
         23    2    1    2    0    0  0.15896298014E+02 -0.44597067186E+01 -0.13957454601E+03  0.16858076706E+03  0.93090492828E+02 0.  0.
         13    1    3    3    0    0  0.53863303640E+01  0.31033875684E+02  0.40898981407E+02  0.51622094832E+02  0.00000000000E+00 0. -1.
        -14    1    3    3    0    0 -0.41289126004E+02 -0.18912799974E+02  0.73656699888E+01  0.46008032162E+02  0.00000000000E+00 0.  1.
        -11    1    4    4    0    0 -0.22297582367E+02  0.36841282160E+01 -0.12479548703E+03  0.12682534669E+03  0.00000000000E+00 0. -1.
         11    1    4    4    0    0  0.38193880380E+02 -0.81438349346E+01 -0.14779058976E+02  0.41755420369E+02  0.00000000000E+00 0.  1.
         21    1    1    2  502  501  0.20006497627E+02 -0.76613689914E+01  0.20849170972E+02  0.29893886538E+02  0.00000000000E+00 0.  1.
<scales pt_clust_5="13000.00000" pt_clust_6="13000.00000" pt_clust_7="13000.00000" pt_clust_8="13000.00000" pt_clust_9="21.42327"></scales>
<clustering>
<clus scale="   21.423">  1  9  2 -1</clus>
<clus scale="   75.936">  5  6 -1 -1</clus>
<clus scale="   78.538">  1  5  2 -1</clus>
<clus scale="   93.090">  7  8 -1 -1</clus>
<clus scale="   95.225">  2  5  1 -1</clus>
</clustering>
</event>
<event>
 9    1  0.3846604E-005  0.3384984E+03  0.7546771E-02  0.1085735E+00
          1   -1    0    0  502    0  0.00000000000E+00  0.00000000000E+00  0.30525963878E+03  0.30525963878E+03  0.00000000000E+00 0. -1.
         -2   -1    0    0    0  501 -0.00000000000E+00 -0.00000000000E+00 -0.72760774292E+03  0.72760774292E+03  0.00000000000E+00 0.  1.
         23    2    1    2    0    0  0.58345285693E+02 -0.24899960087E+03 -0.59002230197E+02  0.27775564482E+03  0.90895332458E+02 0.  0.
        -24    2    1    2    0    0  0.17982322325E+03 -0.59984658906E+02  0.21361808166E+02  0.20721073112E+03  0.80903703996E+02 0.  0.
         11    1    4    4    0    0  0.10007693094E+03  0.18937890884E+01  0.33485861148E+02  0.10554753167E+03  0.00000000000E+00 0. -1.
        -12    1    4    4    0    0  0.79746292303E+02 -0.61878447995E+02 -0.12124052982E+02  0.10166319945E+03  0.00000000000E+00 0.  1.
        -11    1    3    3    0    0  0.12010584341E+02 -0.22222650442E+02 -0.37611832653E+02  0.45307287321E+02  0.00000000000E+00 0.  1.
         11    1    3    3    0    0  0.46334701352E+02 -0.22677695043E+03 -0.21390397544E+02  0.23244835750E+03  0.00000000000E+00 0. -1.
         21    1    1    2  502  501 -0.23816850894E+03  0.30898425978E+03 -0.38470768211E+03  0.54790100576E+03  0.00000000000E+00 0.  1.
<scales pt_clust_5="13000.00000" pt_clust_6="13000.00000" pt_clust_7="13000.00000" pt_clust_8="13000.00000" pt_clust_9="326.06628"></scales>
<clustering>
<clus scale="   80.904">  5  6 -1 -1</clus>
<clus scale="   90.895">  7  8 -1 -1</clus>
<clus scale="  206.107">  1  5  2 -1</clus>
<clus scale="  326.066">  2  9  1 -1</clus>
<clus scale="  206.107">  1  5  2 -1</clus>
</clustering>
</event>
<event>
 9    1  0.3846604E-005  0.1086854E+03  0.7546771E-02  0.1268062E+00
          1   -1    0    0  502    0  0.00000000000E+00  0.00000000000E+00  0.33431706114E+02  0.33431706114E+02  0.00000000000E+00 0. -1.
         -2   -1    0    0    0  501 -0.00000000000E+00 -0.00000000000E+00 -0.70379729877E+03  0.70379729877E+03  0.00000000000E+00 0.  1.
        -24    2    1    2    0    0  0.40271749313E+02  0.25396905986E+02 -0.47945697613E+03  0.48853407695E+03  0.80744880647E+02 0.  0.
         23    2    1    2    0    0 -0.59103992448E+02 -0.63841943089E+01 -0.84358691357E+02  0.13883582208E+03  0.92870645655E+02 0.  0.
         13    1    3    3    0    0  0.85295231042E+01 -0.27152240440E+02 -0.93845928996E+02  0.98066586126E+02  0.00000000000E+00 0. -1.
        -14    1    3    3    0    0  0.31742226209E+02  0.52549146426E+02 -0.38561104714E+03  0.39046749082E+03  0.00000000000E+00 0.  1.
        -11    1    4    4    0    0  0.98119927708E+01  0.27147608022E+02 -0.42879006352E+02  0.51690202255E+02  0.00000000000E+00 0.  1.
         11    1    4    4    0    0 -0.68915985219E+02 -0.33531802331E+02 -0.41479685005E+02  0.87145619823E+02  0.00000000000E+00 0. -1.
         21    1    1    2  502  501  0.18832243135E+02 -0.19012711677E+02 -0.10654992516E+03  0.10985910585E+03  0.00000000000E+00 0. -1.
<scales pt_clust_5="13000.00000" pt_clust_6="13000.00000" pt_clust_7="13000.00000" pt_clust_8="13000.00000" pt_clust_9="26.76073"></scales>
<clustering>
<clus scale="   26.761">  2  9  1 -1</clus>
<clus scale="   80.745">  5  6 -1 -1</clus>
<clus scale="   92.871">  7  8 -1 -1</clus>
<clus scale="   98.526">  2  5  1 -1</clus>
<clus scale="  108.685">  1  5  2 -1</clus>
</clustering>
</event>
<event>
 9    1  0.3846604E-005  0.9250029E+02  0.7546771E-02  0.1300134E+00
         -2   -1    0    0    0  501 -0.00000000000E+00  0.00000000000E+00  0.48936245855E+02  0.48936245855E+02  0.00000000000E+00 0.  1.
          1   -1    0    0  502    0  0.00000000000E+00 -0.00000000000E+00 -0.40945312129E+03  0.40945312129E+03  0.00000000000E+00 0. -1.
         23    2    1    2    0    0 -0.11096697123E+02 -0.81447706529E+01 -0.84860783593E+02  0.12517117488E+03  0.90977999832E+02 0.  0.
        -24    2    1    2    0    0  0.16353213360E+02 -0.12120838358E+02 -0.29307837539E+03  0.30598105152E+03  0.85528518364E+02 0.  0.
         11    1    4    4    0    0  0.45458836598E+02 -0.10842756860E+02 -0.24759582303E+03  0.25196778124E+03  0.00000000000E+00 0. -1.
        -12    1    4    4    0    0 -0.29105623237E+02 -0.12780814973E+01 -0.45482552363E+02  0.54013270275E+02  0.00000000000E+00 0.  1.
        -13    1    3    3    0    0 -0.85851694222E+01  0.41217748862E+02 -0.45465964110E+02  0.61965811927E+02  0.00000000000E+00 0. -1.
         13    1    3    3    0    0 -0.25115277011E+01 -0.49362519515E+02 -0.39394819482E+02  0.63205362955E+02  0.00000000000E+00 0.  1.
         21    1    1    2  502  501 -0.52565162372E+01  0.20265609011E+02  0.17422283556E+02  0.27237140742E+02  0.00000000000E+00 0.  1.
<scales pt_clust_5="13000.00000" pt_clust_6="13000.00000" pt_clust_7="13000.00000" pt_clust_8="13000.00000" pt_clust_9="20.93623"></scales>
<clustering>
<clus scale="   20.936">  1  9  2 -1</clus>
<clus scale="   85.529">  5  6 -1 -1</clus>
<clus scale="   87.146">  2  5  1 -1</clus>
<clus scale="   90.978">  7  8 -1 -1</clus>
<clus scale="   87.146">  2  5  1 -1</clus>
</clustering>
</event>
<event>
 9    1  0.3846604E-005  0.1237185E+03  0.7546771E-02  0.1240319E+00
          1   -1    0    0  502    0  0.00000000000E+00  0.00000000000E+00  0.19458509899E+03  0.19458509899E+03  0.00000000000E+00 0. -1.
         -2   -1    0    0    0  501 -0.00000000000E+00 -0.00000000000E+00 -0.19059764176E+03  0.19059764176E+03  0.00000000000E+00 0.  1.
        -24    2    1    2    0    0  0.68014904330E+02  0.19906525559E+02 -0.27440753200E+02  0.11048622195E+03  0.80199210306E+02 0.  0.
         23    2    1    2    0    0 -0.88528991906E+02 -0.82010033417E+01  0.12483600555E+03  0.17834890217E+03  0.91212190840E+02 0.  0.
         13    1    3    3    0    0 -0.28603856473E+00 -0.21115399866E+02 -0.22201982433E+02  0.30640984866E+02  0.00000000000E+00 0. -1.
        -14    1    3    3    0    0  0.68300942895E+02  0.41021925425E+02 -0.52387707671E+01  0.79845237084E+02  0.00000000000E+00 0.  1.
        -11    1    4    4    0    0 -0.36004284561E+00  0.24746117964E+02  0.38255645241E+01  0.25042662180E+02  0.00000000000E+00 0.  1.
         11    1    4    4    0    0 -0.88168949061E+02 -0.32947121306E+02  0.12101044103E+03  0.15330623999E+03  0.00000000000E+00 0. -1.
         21    1    1    2  502  501  0.20514087576E+02 -0.11705522218E+02 -0.93407795126E+02  0.96347616627E+02  0.00000000000E+00 0.  1.
<scales pt_clust_5="13000.00000" pt_clust_6="13000.00000" pt_clust_7="13000.00000" pt_clust_8="13000.00000" pt_clust_9="23.61879"></scales>
<clustering>
<clus scale="   23.619">  2  9  1 -1</clus>
<clus scale="   80.199">  5  6 -1 -1</clus>
<clus scale="   91.212">  7  8 -1 -1</clus>
<clus scale="  115.838">  2  5  1 -1</clus>
<clus scale="  123.718">  1  5  2 -1</clus>
</clustering>
</event>
<event>
 9    1  0.3846604E-005  0.9411954E+02  0.7546771E-02  0.1298892E+00
         -2   -1    0    0    0  501 -0.00000000000E+00  0.00000000000E+00  0.23240364129E+03  0.23240364129E+03  0.00000000000E+00 0.  1.
          1   -1    0    0  502    0  0.00000000000E+00 -0.00000000000E+00 -0.14718601521E+03  0.14718601521E+03  0.00000000000E+00 0. -1.
        -24    2    1    2    0    0  0.17722481384E+02 -0.10934072020E+02  0.13828803053E+03  0.16117778163E+03  0.80131502076E+02 0.  0.
         23    2    1    2    0    0 -0.27263062074E+02 -0.91861817477E+01 -0.11716054608E+03  0.15056356210E+03  0.90084028466E+02 0.  0.
         11    1    3    3    0    0  0.20910859347E+01 -0.38522645388E+02  0.31574883175E+02  0.49853185411E+02  0.00000000000E+00 0. -1.
        -12    1    3    3    0    0  0.15631395449E+02  0.27588573369E+02  0.10671314735E+03  0.11132459622E+03  0.00000000000E+00 0.  1.
        -11    1    4    4    0    0 -0.33774859977E+02  0.35628986705E+02 -0.56204781304E+02  0.74626692956E+02  0.00000000000E+00 0.  1.
         11    1    4    4    0    0  0.65117979028E+01 -0.44815168453E+02 -0.60955764779E+02  0.75936869142E+02  0.00000000000E+00 0. -1.
         21    1    1    2  502  501  0.95405806906E+01  0.20120253767E+02  0.64090141636E+02  0.67848312776E+02  0.00000000000E+00 0.  1.
<scales pt_clust_5="13000.00000" pt_clust_6="13000.00000" pt_clust_7="13000.00000" pt_clust_8="13000.00000" pt_clust_9="22.26763"></scales>
<clustering>
<clus scale="   22.268">  1  9  2 -1</clus>
<clus scale="   80.132">  5  6 -1 -1</clus>
<clus scale="   84.643">  1  5  2 -1</clus>
<clus scale="   90.084">  7  8 -1 -1</clus>
<clus scale="   94.120">  2  5  1 -1</clus>
</clustering>
</event>
<event>
 9    1  0.3846604E-005  0.9161893E+02  0.7546771E-02  0.1306066E+00
         -2   -1    0    0    0  501 -0.00000000000E+00  0.00000000000E+00  0.66235174323E+02  0.66235174323E+02  0.00000000000E+00 0.  1.
          1   -1    0    0  502    0  0.00000000000E+00 -0.00000000000E+00 -0.34415766627E+03  0.34415766627E+03  0.00000000000E+00 0. -1.
         23    2    1    2    0    0 -0.26849346717E+02 -0.92856334723E+01 -0.18275688801E+02  0.95003091445E+02  0.88794572891E+02 0.  0.
        -24    2    1    2    0    0 -0.14599183065E+02  0.22697813164E+02 -0.25922767071E+03  0.27182321547E+03  0.77204587529E+02 0.  0.
         11    1    4    4    0    0 -0.41410518911E+02  0.11616724078E+02 -0.21260277452E+03  0.21690947211E+03  0.00000000000E+00 0. -1.
        -12    1    4    4    0    0  0.26811335846E+02  0.11081089086E+02 -0.46624896189E+02  0.54913743360E+02  0.00000000000E+00 0.  1.
        -11    1    3    3    0    0  0.27193111228E+02 -0.21960044173E+02  0.40212679060E+01  0.35183510824E+02  0.00000000000E+00 0.  1.
         11    1    3    3    0    0 -0.54042457945E+02  0.12674410700E+02 -0.22296956707E+02  0.59819580621E+02  0.00000000000E+00 0. -1.
         21    1    1    2  502  501  0.41448529782E+02 -0.13412179691E+02 -0.41913243530E+00  0.43566533683E+02  0.00000000000E+00 0. -1.
<scales pt_clust_5="13000.00000" pt_clust_6="13000.00000" pt_clust_7="13000.00000" pt_clust_8="13000.00000" pt_clust_9="43.56452"></scales>
<clustering>
<clus scale="   43.565">  1  9  2 -1</clus>
<clus scale="   77.205">  5  6 -1 -1</clus>
<clus scale="   80.437">  2  5  1 -1</clus>
<clus scale="   88.795">  7  8 -1 -1</clus>
<clus scale="   80.437">  2  5  1 -1</clus>
</clustering>
</event>
<event>
 9    1  0.3846604E-005  0.1093133E+03  0.7546771E-02  0.1263331E+00
         -2   -1    0    0    0  501 -0.00000000000E+00  0.00000000000E+00  0.50213410252E+02  0.50213410252E+02  0.00000000000E+00 0.  1.
          1   -1    0    0  502    0  0.00000000000E+00 -0.00000000000E+00 -0.48425114589E+03  0.48425114589E+03  0.00000000000E+00 0. -1.
         23    2    1    2    0    0  0.46546230763E+02  0.63817086233E+01 -0.68689530543E+02  0.12257213996E+03  0.89991111146E+02 0.  0.
        -24    2    1    2    0    0 -0.59388882581E+02 -0.31457325797E+02 -0.36772667482E+03  0.38361915318E+03  0.86163475977E+02 0.  0.
         13    1    4    4    0    0 -0.63123121842E+02 -0.54304499751E+02 -0.31875170433E+03  0.32944826030E+03  0.00000000000E+00 0. -1.
        -14    1    4    4    0    0  0.37342392610E+01  0.22847173954E+02 -0.48974970489E+02  0.54170892876E+02  0.00000000000E+00 0.  1.
        -11    1    3    3    0    0  0.24543723065E+02 -0.29343314077E+02 -0.70894625417E+02  0.80557261224E+02  0.00000000000E+00 0. -1.
         11    1    3    3    0    0  0.22002507698E+02  0.35725022700E+02  0.22050948743E+01  0.42014878737E+02  0.00000000000E+00 0.  1.
         21    1    1    2  502  501  0.12842651818E+02  0.25075617174E+02  0.23784697266E+01  0.28273262999E+02  0.00000000000E+00 0.  1.
<scales pt_clust_5="13000.00000" pt_clust_6="13000.00000" pt_clust_7="13000.00000" pt_clust_8="13000.00000" pt_clust_9="28.17304"></scales>
<clustering>
<clus scale="   28.173">  1  9  2 -1</clus>
<clus scale="   86.163">  5  6 -1 -1</clus>
<clus scale="   89.991">  7  8 -1 -1</clus>
<clus scale="  106.185">  2  5  1 -1</clus>
<clus scale="  106.185">  2  5  1 -1</clus>
</clustering>
</event>
<event>
 9    1  0.3846604E-005  0.1290743E+03  0.7546771E-02  0.1249813E+00
         -2   -1    0    0    0  501 -0.00000000000E+00  0.00000000000E+00  0.69345370590E+03  0.69345370590E+03  0.00000000000E+00 0.  1.
          1   -1    0    0  502    0  0.00000000000E+00 -0.00000000000E+00 -0.56044349887E+02  0.56044349887E+02  0.00000000000E+00 0. -1.
        -24    2    1    2    0    0  0.18181345030E+02 -0.22023210704E+02  0.21983727478E+03  0.23543020119E+03  0.79267705486E+02 0.  0.
         23    2    1    2    0    0  0.49016438323E+02 -0.71176084777E+02  0.59975899956E+02  0.13846609791E+03  0.90039465922E+02 0.  0.
         11    1    3    3    0    0 -0.21411978020E+02 -0.22804634505E+02  0.37462098640E+02  0.48805050888E+02  0.00000000000E+00 0. -1.
        -12    1    3    3    0    0  0.39593323050E+02  0.78142380102E+00  0.18237517614E+03  0.18662515030E+03  0.00000000000E+00 0.  1.
        -13    1    4    4    0    0  0.69723934446E+02 -0.24785765505E+02  0.35150418639E+02  0.81922604553E+02  0.00000000000E+00 0.  1.
         13    1    4    4    0    0 -0.20707496123E+02 -0.46390319272E+02  0.24825481317E+02  0.56543493352E+02  0.00000000000E+00 0. -1.
         21    1    1    2  502  501 -0.67197783353E+02  0.93199295481E+02  0.35759618128E+03  0.37560175669E+03  0.00000000000E+00 0. -1.
<scales pt_clust_5="13000.00000" pt_clust_6="13000.00000" pt_clust_7="13000.00000" pt_clust_8="13000.00000" pt_clust_9="92.48283"></scales>
<clustering>
<clus scale="   79.268">  5  6 -1 -1</clus>
<clus scale="   84.255">  1  5  2 -1</clus>
<clus scale="   90.039">  7  8 -1 -1</clus>
<clus scale="   92.483">  1  9  2 -1</clus>
<clus scale="  129.074">  2  5  1 -1</clus>
</clustering>
</event>
<event>
 9    1  0.3846604E-005  0.8213022E+02  0.7546771E-02  0.1327696E+00
          1   -1    0    0  502    0  0.00000000000E+00  0.00000000000E+00  0.10589589130E+03  0.10589589130E+03  0.00000000000E+00 0. -1.
         -2   -1    0    0    0  501 -0.00000000000E+00 -0.00000000000E+00 -0.40344626695E+03  0.40344626695E+03  0.00000000000E+00 0.  1.
        -24    2    1    2    0    0  0.49405408927E+02 -0.45691422997E+02 -0.25467931612E+03  0.27546773753E+03  0.80574932789E+02 0.  0.
         23    2    1    2    0    0 -0.12471978118E+02  0.40702736007E+01  0.73336783603E+02  0.10503086755E+03  0.74034329490E+02 0.  0.
         11    1    3    3    0    0  0.71592309876E+02 -0.31121804751E+02 -0.17950046250E+03  0.19574075100E+03  0.00000000000E+00 0. -1.
        -12    1    3    3    0    0 -0.22186900949E+02 -0.14569618246E+02 -0.75178853626E+02  0.79726986536E+02  0.00000000000E+00 0.  1.
        -13    1    4    4    0    0  0.10021686903E+02 -0.24643303768E+02  0.60961803244E+02  0.66513668398E+02  0.00000000000E+00 0. -1.
         13    1    4    4    0    0 -0.22493665021E+02  0.28713577369E+02  0.12374980359E+02  0.38517199149E+02  0.00000000000E+00 0.  1.
         21    1    1    2  502  501 -0.36933430809E+02  0.41621149396E+02 -0.11620784313E+03  0.12884355317E+03  0.00000000000E+00 0.  1.
<scales pt_clust_5="13000.00000" pt_clust_6="13000.00000" pt_clust_7="13000.00000" pt_clust_8="13000.00000" pt_clust_9="55.64529"></scales>
<clustering>
<clus scale="   55.645">  2  9  1 -1</clus>
<clus scale="   74.034">  7  8 -1 -1</clus>
<clus scale="   75.724">  1  7  2 -1</clus>
<clus scale="   80.575">  5  6 -1 -1</clus>
<clus scale="   75.724">  1  5  2 -1</clus>
</clustering>
</event>
<event>
 9    1  0.3846604E-005  0.1209652E+03  0.7546771E-02  0.1246177E+00
          3   -1    0    0  502    0  0.00000000000E+00  0.00000000000E+00  0.15946916613E+03  0.15946916613E+03  0.00000000000E+00 0. -1.
         -4   -1    0    0    0  501 -0.00000000000E+00 -0.00000000000E+00 -0.24246081415E+03  0.24246081415E+03  0.00000000000E+00 0.  1.
        -24    2    1    2    0    0 -0.25423471624E+02  0.34380401149E+02 -0.17379601159E+03  0.19660814001E+03  0.81371630072E+02 0.  0.
         23    2    1    2    0    0  0.18790608127E+02 -0.77425344996E+02  0.10139352086E+03  0.16050005628E+03  0.95560718871E+02 0.  0.
         13    1    3    3    0    0  0.14375009403E+02 -0.16433303415E+02 -0.78732453631E+02  0.81703693988E+02  0.00000000000E+00 0. -1.
        -14    1    3    3    0    0 -0.39798481027E+02  0.50813704564E+02 -0.95063557960E+02  0.11490444602E+03  0.00000000000E+00 0.  1.
        -13    1    4    4    0    0  0.15131675807E+01 -0.97736702412E+02  0.80116511813E+02  0.12638594914E+03  0.00000000000E+00 0. -1.
         13    1    4    4    0    0  0.17277440546E+02  0.20311357416E+02  0.21277009044E+02  0.34114107137E+02  0.00000000000E+00 0.  1.
         21    1    1    2  502  501  0.66328634967E+01  0.43044943847E+02 -0.10589157284E+02  0.44821784000E+02  0.00000000000E+00 0. -1.
<scales pt_clust_5="13000.00000" pt_clust_6="13000.00000" pt_clust_7="13000.00000" pt_clust_8="13000.00000" pt_clust_9="43.55298"></scales>
<clustering>
<clus scale="   43.553">  2  9  1 -1</clus>
<clus scale="   81.372">  5  6 -1 -1</clus>
<clus scale="   95.561">  7  8 -1 -1</clus>
<clus scale="  110.100">  2  5  1 -1</clus>
<clus scale="  120.965">  1  5  2 -1</clus>
</clustering>
</event>
<event>
 9    1  0.3846604E-005  0.1431651E+03  0.7546771E-02  0.1211568E+00
         -2   -1    0    0    0  501 -0.00000000000E+00  0.00000000000E+00  0.51795506339E+02  0.51795506339E+02  0.00000000000E+00 0.  1.
          1   -1    0    0  502    0  0.00000000000E+00 -0.00000000000E+00 -0.51965885082E+03  0.51965885082E+03  0.00000000000E+00 0. -1.
        -24    2    1    2    0    0 -0.85004370579E+02 -0.80425805837E+02 -0.16364969010E+03  0.21639672425E+03  0.79701116262E+02 0.  0.
         23    2    1    2    0    0  0.62373226138E+02  0.86603353113E+02 -0.29987956605E+03  0.33120149931E+03  0.91521139073E+02 0.  0.
         13    1    3    3    0    0 -0.39886091751E+02 -0.10377386523E+02 -0.10956706112E+03  0.11706208331E+03  0.00000000000E+00 0. -1.
        -14    1    3    3    0    0 -0.45118278828E+02 -0.70048419314E+02 -0.54082628977E+02  0.99334640936E+02  0.00000000000E+00 0.  1.
        -13    1    4    4    0    0  0.85883070692E+02  0.76290136237E+02 -0.24836048176E+03  0.27364030335E+03  0.00000000000E+00 0.  1.
         13    1    4    4    0    0 -0.23509844554E+02  0.10313216876E+02 -0.51519084292E+02  0.57561195953E+02  0.00000000000E+00 0. -1.
         21    1    1    2  502  501  0.22631144441E+02 -0.61775472760E+01 -0.43340883297E+01  0.23856133608E+02  0.00000000000E+00 0.  1.
<scales pt_clust_5="13000.00000" pt_clust_6="13000.00000" pt_clust_7="13000.00000" pt_clust_8="13000.00000" pt_clust_9="23.45913"></scales>
<clustering>
<clus scale="   23.459">  1  9  2 -1</clus>
<clus scale="   79.701">  5  6 -1 -1</clus>
<clus scale="   91.521">  7  8 -1 -1</clus>
<clus scale="  135.913">  1  5  2 -1</clus>
<clus scale="  143.165">  2  5  1 -1</clus>
</clustering>
</event>
<event>
 9    1  0.3846604E-005  0.1220582E+03  0.7546771E-02  0.1243163E+00
         -2   -1    0    0    0  501 -0.00000000000E+00  0.00000000000E+00  0.53398656149E+02  0.53398656149E+02  0.00000000000E+00 0.  1.
          1   -1    0    0  502    0  0.00000000000E+00 -0.00000000000E+00 -0.32214221268E+03  0.32214221268E+03  0.00000000000E+00 0. -1.
         23    2    1    2    0    0 -0.78904186747E+02 -0.41254460128E+02 -0.12914506753E+03  0.18161199942E+03  0.91524142715E+02 0.  0.
        -24    2    1    2    0    0  0.58017764030E+02  0.47749839170E+02 -0.12933761133E+03  0.16976860838E+03  0.80293552669E+02 0.  0.
         11    1    4    4    0    0  0.16478826343E+02 -0.15308942882E+02 -0.70618081524E+02  0.74113621473E+02  0.00000000000E+00 0. -1.
        -12    1    4    4    0    0  0.41538937687E+02  0.63058782052E+02 -0.58719529811E+02  0.95654986902E+02  0.00000000000E+00 0.  1.
        -11    1    3    3    0    0  0.20086864280E+01 -0.23074337571E+02 -0.84113935883E+02  0.87244564789E+02  0.00000000000E+00 0.  1.
         11    1    3    3    0    0 -0.80912873175E+02 -0.18180122556E+02 -0.45031131647E+02  0.94367434632E+02  0.00000000000E+00 0. -1.
         21    1    1    2  502  501  0.20886422717E+02 -0.64953790430E+01 -0.10260877671E+02  0.24160261038E+02  0.00000000000E+00 0.  1.
<scales pt_clust_5="13000.00000" pt_clust_6="13000.00000" pt_clust_7="13000.00000" pt_clust_8="13000.00000" pt_clust_9="21.87310"></scales>
<clustering>
<clus scale="   21.873">  1  9  2 -1</clus>
<clus scale="   80.294">  5  6 -1 -1</clus>
<clus scale="   91.524">  7  8 -1 -1</clus>
<clus scale="  113.880">  2  5  1 -1</clus>
<clus scale="  113.880">  2  5  1 -1</clus>
</clustering>
</event>
<event>
 9    1  0.3846604E-005  0.2405452E+03  0.7546771E-02  0.1120344E+00
         -2   -1    0    0    0  501 -0.00000000000E+00  0.00000000000E+00  0.40626977279E+03  0.40626977279E+03  0.00000000000E+00 0.  1.
          1   -1    0    0  502    0  0.00000000000E+00 -0.00000000000E+00 -0.41398100322E+03  0.41398100322E+03  0.00000000000E+00 0. -1.
        -24    2    1    2    0    0 -0.11101952453E+03  0.14961156375E+03  0.10955956256E+03  0.22898102602E+03  0.75631063045E+02 0.  0.
         23    2    1    2    0    0  0.61114646446E+02 -0.22746599398E+03 -0.29656713323E+03  0.38952985113E+03  0.91135404644E+02 0.  0.
         13    1    3    3    0    0 -0.47158751105E+02  0.14943333725E+02  0.12183817588E+02  0.50947977777E+02  0.00000000000E+00 0. -1.
        -14    1    3    3    0    0 -0.63860773429E+02  0.13466823002E+03  0.97375744967E+02  0.17803304825E+03  0.00000000000E+00 0.  1.
        -13    1    4    4    0    0 -0.96956544688E+01 -0.70454198364E+02 -0.43361357348E+02  0.83294700274E+02  0.00000000000E+00 0.  1.
         13    1    4    4    0    0  0.70810300915E+02 -0.15701179562E+03 -0.25320577588E+03  0.30623515085E+03  0.00000000000E+00 0. -1.
         21    1    1    2  502  501  0.49904878088E+02  0.77854430234E+02  0.17929634025E+03  0.20173989886E+03  0.00000000000E+00 0.  1.
<scales pt_clust_5="13000.00000" pt_clust_6="13000.00000" pt_clust_7="13000.00000" pt_clust_8="13000.00000" pt_clust_9="92.47599"></scales>
<clustering>
<clus scale="   75.631">  5  6 -1 -1</clus>
<clus scale="   91.135">  7  8 -1 -1</clus>
<clus scale="   92.476">  1  9  2 -1</clus>
<clus scale="  235.109">  1  5  2 -1</clus>
<clus scale="  240.545">  2  5  1 -1</clus>
</clustering>
</event>
<event>
 9    1  0.3846604E-005  0.1397773E+03  0.7546771E-02  0.1215786E+00
          1   -1    0    0  502    0  0.00000000000E+00  0.00000000000E+00  0.29336405958E+03  0.29336405958E+03  0.00000000000E+00 0. -1.
         -2   -1    0    0    0  501 -0.00000000000E+00 -0.00000000000E+00 -0.18308739330E+03  0.18308739330E+03  0.00000000000E+00 0.  1.
         23    2    1    2    0    0 -0.79444556027E+02  0.58431525755E+01 -0.10425398280E+03  0.15934024219E+03  0.90414821451E+02 0.  0.
        -24    2    1    2    0    0  0.10423762736E+03 -0.37395356306E+02  0.23508537894E+03  0.27202534964E+03  0.80428600811E+02 0.  0.
         11    1    4    4    0    0  0.11499283058E+03 -0.27034440846E+02  0.22462469121E+03  0.25379216690E+03  0.00000000000E+00 0. -1.
        -12    1    4    4    0    0 -0.10755203217E+02 -0.10360915460E+02  0.10460687722E+02  0.18233182745E+02  0.00000000000E+00 0.  1.
        -13    1    3    3    0    0 -0.47481151273E+02  0.98793883308E+01  0.17690763517E+01  0.48530317031E+02  0.00000000000E+00 0. -1.
         13    1    3    3    0    0 -0.31963404754E+02 -0.40362357553E+01 -0.10602305915E+03  0.11080992516E+03  0.00000000000E+00 0.  1.
         21    1    1    2  502  501 -0.24793071337E+02  0.31552203730E+02 -0.20554729852E+02  0.45085861042E+02  0.00000000000E+00 0.  1.
<scales pt_clust_5="13000.00000" pt_clust_6="13000.00000" pt_clust_7="13000.00000" pt_clust_8="13000.00000" pt_clust_9="40.12777"></scales>
<clustering>
<clus scale="   40.128">  2  9  1 -1</clus>
<clus scale="   80.429">  5  6 -1 -1</clus>
<clus scale="   90.415">  7  8 -1 -1</clus>
<clus scale="  133.535">  1  5  2 -1</clus>
<clus scale="  133.535">  1  5  2 -1</clus>
</clustering>
</event>
<event>
 9    1  0.3846604E-005  0.3850953E+03  0.7546771E-02  0.1049259E+00
         -4   -1    0    0    0  501 -0.00000000000E+00  0.00000000000E+00  0.14777672573E+04  0.14777672573E+04  0.00000000000E+00 0.  1.
          3   -1    0    0  502    0  0.00000000000E+00 -0.00000000000E+00 -0.10556294985E+03  0.10556294985E+03  0.00000000000E+00 0. -1.
         23    2    1    2    0    0  0.11740062818E+03 -0.34626137307E+03  0.66097206426E+03  0.76065875701E+03  0.89653939712E+02 0.  0.
        -24    2    1    2    0    0 -0.13342219230E+03  0.36006097562E+03  0.67751631776E+03  0.78287342035E+03  0.80106453598E+02 0.  0.
         11    1    4    4    0    0 -0.78370538422E+02  0.29044464347E+03  0.48233003046E+03  0.56845605855E+03  0.00000000000E+00 0. -1.
        -12    1    4    4    0    0 -0.55051653873E+02  0.69616332150E+02  0.19518628729E+03  0.21441736181E+03  0.00000000000E+00 0.  1.
        -11    1    3    3    0    0  0.69031825987E+02 -0.24601715615E+03  0.37489058503E+03  0.45368798184E+03  0.00000000000E+00 0.  1.
         11    1    3    3    0    0  0.48368802190E+02 -0.10024421692E+03  0.28608147923E+03  0.30697077517E+03  0.00000000000E+00 0. -1.
         21    1    1    2  502  501  0.16021564118E+02 -0.13799602556E+02  0.33715925465E+02  0.39798029819E+02  0.00000000000E+00 0.  1.
<scales pt_clust_5="13000.00000" pt_clust_6="13000.00000" pt_clust_7="13000.00000" pt_clust_8="13000.00000" pt_clust_9="21.14520"></scales>
<clustering>
<clus scale="   21.145">  2  9  1 -1</clus>
<clus scale="   80.106">  5  6 -1 -1</clus>
<clus scale="   89.654">  7  8 -1 -1</clus>
<clus scale="  382.985">  2  5  1 -1</clus>
<clus scale="   21.145">  2  5  1 -1</clus>
</clustering>
</event>
<event>
 9    1  0.3846604E-005  0.1095914E+03  0.7546771E-02  0.1265165E+00
         -2   -1    0    0    0  501 -0.00000000000E+00  0.00000000000E+00  0.21208535960E+03  0.21208535960E+03  0.00000000000E+00 0.  1.
          1   -1    0    0  502    0  0.00000000000E+00 -0.00000000000E+00 -0.13517241574E+03  0.13517241574E+03  0.00000000000E+00 0. -1.
         23    2    1    2    0    0 -0.26580210130E+02  0.51671289010E+02  0.95798128897E+02  0.14401071381E+03  0.90473059600E+02 0.  0.
        -24    2    1    2    0    0  0.58138627502E+02 -0.28430877237E+02 -0.79914688366E+02  0.13071671806E+03  0.80697510344E+02 0.  0.
         13    1    4    4    0    0 -0.43833242750E+01 -0.39667321665E+02 -0.29915719900E+02  0.49876449722E+02  0.00000000000E+00 0. -1.
        -14    1    4    4    0    0  0.62521951777E+02  0.11236444428E+02 -0.49998968466E+02  0.80840268338E+02  0.00000000000E+00 0.  1.
        -13    1    3    3    0    0  0.32730352289E+02  0.20257503134E+02  0.48425184817E+02  0.61859849004E+02  0.00000000000E+00 0.  1.
         13    1    3    3    0    0 -0.59310562420E+02  0.31413785875E+02  0.47372944080E+02  0.82150864806E+02  0.00000000000E+00 0. -1.
         21    1    1    2  502  501 -0.31558417371E+02 -0.23240411773E+02  0.61029503331E+02  0.72530343465E+02  0.00000000000E+00 0. -1.
<scales pt_clust_5="13000.00000" pt_clust_6="13000.00000" pt_clust_7="13000.00000" pt_clust_8="13000.00000" pt_clust_9="39.19248"></scales>
<clustering>
<clus scale="   39.192">  1  9  2 -1</clus>
<clus scale="   80.698">  5  6 -1 -1</clus>
<clus scale="   90.473">  7  8 -1 -1</clus>
<clus scale="  101.671">  2  5  1 -1</clus>
<clus scale="  101.671">  2  5  1 -1</clus>
</clustering>
</event>
<event>
 9    1  0.3846604E-005  0.1176777E+03  0.7546771E-02  0.1247088E+00
         -2   -1    0    0    0  501 -0.00000000000E+00  0.00000000000E+00  0.48453552225E+03  0.48453552225E+03  0.00000000000E+00 0.  1.
          1   -1    0    0  502    0  0.00000000000E+00 -0.00000000000E+00 -0.35879034112E+02  0.35879034112E+02  0.00000000000E+00 0. -1.
         23    2    1    2    0    0 -0.33389492362E+02  0.81453476375E+02  0.26095596951E+03  0.28959846430E+03  0.89552920064E+02 0.  0.
        -24    2    1    2    0    0  0.19886317635E+02 -0.65670540965E+02  0.15111051983E+03  0.18874157732E+03  0.89893872023E+02 0.  0.
         13    1    4    4    0    0  0.50628326757E+02 -0.30682817712E+02  0.50267402291E+02  0.77662568243E+02  0.00000000000E+00 0. -1.
        -14    1    4    4    0    0 -0.30742009122E+02 -0.34987723253E+02  0.10084311754E+03  0.11107900908E+03  0.00000000000E+00 0.  1.
        -13    1    3    3    0    0 -0.47281095160E+02  0.43085219748E+02  0.72106709897E+02  0.96390952545E+02  0.00000000000E+00 0. -1.
         13    1    3    3    0    0  0.13891602798E+02  0.38368256627E+02  0.18884925961E+03  0.19320751176E+03  0.00000000000E+00 0.  1.
         21    1    1    2  502  501  0.13503174727E+02 -0.15782935411E+02  0.36589998795E+02  0.42074514730E+02  0.00000000000E+00 0.  1.
<scales pt_clust_5="13000.00000" pt_clust_6="13000.00000" pt_clust_7="13000.00000" pt_clust_8="13000.00000" pt_clust_9="20.77106"></scales>
<clustering>
<clus scale="   20.771">  1  9  2 -1</clus>
<clus scale="   89.553">  7  8 -1 -1</clus>
<clus scale="   89.894">  5  6 -1 -1</clus>
<clus scale="  117.417">  1  7  2 -1</clus>
<clus scale="  117.678">  2  5  1 -1</clus>
</clustering>
</event>
<event>
 9    1  0.3846604E-005  0.1065755E+03  0.7546771E-02  0.1271920E+00
         -2   -1    0    0    0  501 -0.00000000000E+00  0.00000000000E+00  0.22410394446E+02  0.22410394446E+02  0.00000000000E+00 0.  1.
          1   -1    0    0  502    0  0.00000000000E+00 -0.00000000000E+00 -0.73721980683E+03  0.73721980683E+03  0.00000000000E+00 0. -1.
         23    2    1    2    0    0 -0.24080063054E+02 -0.37896167947E+02 -0.20171096104E+03  0.22585261812E+03  0.91137941189E+02 0.  0.
        -24    2    1    2    0    0  0.58336944528E+02  0.45402021617E+02 -0.33296173899E+03  0.35025890045E+03  0.79707183153E+02 0.  0.
         11    1    4    4    0    0 -0.94291963784E+01  0.39508433448E+02 -0.13060464873E+03  0.13677499891E+03  0.00000000000E+00 0. -1.
        -12    1    4    4    0    0  0.67766140906E+02  0.58935881690E+01 -0.20235709026E+03  0.21348390153E+03  0.00000000000E+00 0.  1.
        -13    1    3    3    0    0  0.25939076179E+02 -0.68369334034E+01 -0.13156478764E+03  0.13427163765E+03  0.00000000000E+00 0. -1.
         13    1    3    3    0    0 -0.50019139232E+02 -0.31059234543E+02 -0.70146173407E+02  0.91580980468E+02  0.00000000000E+00 0.  1.
         21    1    1    2  502  501 -0.34256881474E+02 -0.75058536698E+01 -0.18013671234E+03  0.18351868271E+03  0.00000000000E+00 0. -1.
<scales pt_clust_5="13000.00000" pt_clust_6="13000.00000" pt_clust_7="13000.00000" pt_clust_8="13000.00000" pt_clust_9="35.06953"></scales>
<clustering>
<clus scale="   35.070">  2  9  1 -1</clus>
<clus scale="   79.707">  5  6 -1 -1</clus>
<clus scale="   91.138">  7  8 -1 -1</clus>
<clus scale="   96.982">  2  5  1 -1</clus>
<clus scale="   35.070">  2  5  1 -1</clus>
</clustering>
</event>
<event>
 9    1  0.3846604E-005  0.1352456E+03  0.7546771E-02  0.1222703E+00
         -2   -1    0    0    0  501 -0.00000000000E+00  0.00000000000E+00  0.24238337674E+03  0.24238337674E+03  0.00000000000E+00 0.  1.
          1   -1    0    0  502    0  0.00000000000E+00 -0.00000000000E+00 -0.47697194965E+03  0.47697194965E+03  0.00000000000E+00 0. -1.
        -24    2    1    2    0    0  0.82968271059E+02 -0.29703896822E+02  0.18310104585E+03  0.21741523982E+03  0.77313246101E+02 0.  0.
         23    2    1    2    0    0 -0.40850540886E+02  0.95238733895E+02 -0.39895941425E+03  0.42181806321E+03  0.89569420617E+02 0.  0.
         11    1    3    3    0    0  0.64871648253E+02 -0.25358372923E+02  0.57151624070E+02  0.90098201748E+02  0.00000000000E+00 0. -1.
        -12    1    3    3    0    0  0.18096622806E+02 -0.43455238990E+01  0.12594942178E+03  0.12731703807E+03  0.00000000000E+00 0.  1.
        -13    1    4    4    0    0 -0.32917715687E+02  0.53222978027E+01 -0.42026161826E+02  0.53647936938E+02  0.00000000000E+00 0.  1.
         13    1    4    4    0    0 -0.79328251993E+01  0.89916436092E+02 -0.35693325242E+03  0.36817012628E+03  0.00000000000E+00 0. -1.
         21    1    1    2  502  501 -0.42117730173E+02 -0.65534837073E+02 -0.18730204511E+02  0.80122023353E+02  0.00000000000E+00 0.  1.
<scales pt_clust_5="13000.00000" pt_clust_6="13000.00000" pt_clust_7="13000.00000" pt_clust_8="13000.00000" pt_clust_9="77.90198"></scales>
<clustering>
<clus scale="   77.313">  5  6 -1 -1</clus>
<clus scale="   77.902">  1  9  2 -1</clus>
<clus scale="   89.569">  7  8 -1 -1</clus>
<clus scale="  127.460">  1  5  2 -1</clus>
<clus scale="  135.246">  2  5  1 -1</clus>
</clustering>
</event>
<event>
 9    1  0.3846604E-005  0.8930383E+02  0.7546771E-02  0.1308733E+00
         -2   -1    0    0    0  501 -0.00000000000E+00  0.00000000000E+00  0.82714962009E+02  0.82714962009E+02  0.00000000000E+00 0.  1.
          1   -1    0    0  502    0  0.00000000000E+00 -0.00000000000E+00 -0.26833961556E+03  0.26833961556E+03  0.00000000000E+00 0. -1.
        -24    2    1    2    0    0  0.98944455717E+01  0.42407003902E+02 -0.48358844867E+01  0.89792180810E+02  0.78377266619E+02 0.  0.
         23    2    1    2    0    0 -0.30738483436E+02  0.12048859930E+02 -0.18118182241E+03  0.20295228176E+03  0.85280399335E+02 0.  0.
         11    1    3    3    0    0 -0.19464250469E+02  0.14157523739E+02 -0.32575620846E+02  0.40502636929E+02  0.00000000000E+00 0. -1.
        -12    1    3    3    0    0  0.29358696041E+02  0.28249480163E+02  0.27739736359E+02  0.49289543881E+02  0.00000000000E+00 0.  1.
        -13    1    4    4    0    0 -0.18515182041E+02  0.41115698456E+02 -0.47070759433E+02  0.65184116310E+02  0.00000000000E+00 0.  1.
         13    1    4    4    0    0 -0.12223301395E+02 -0.29066838527E+02 -0.13411106298E+03  0.13776816545E+03  0.00000000000E+00 0. -1.
         21    1    1    2  502  501  0.20844037865E+02 -0.54455863832E+02  0.39305334566E+00  0.58310114998E+02  0.00000000000E+00 0. -1.
<scales pt_clust_5="13000.00000" pt_clust_6="13000.00000" pt_clust_7="13000.00000" pt_clust_8="13000.00000" pt_clust_9="58.30879"></scales>
<clustering>
<clus scale="   58.309">  1  9  2 -1</clus>
<clus scale="   78.377">  5  6 -1 -1</clus>
<clus scale="   82.737">  1  5  2 -1</clus>
<clus scale="   85.280">  7  8 -1 -1</clus>
<clus scale="   89.304">  2  5  1 -1</clus>
</clustering>
</event>
<event>
 9    1  0.3846604E-005  0.1273468E+03  0.7546771E-02  0.1234416E+00
          1   -1    0    0  502    0  0.00000000000E+00  0.00000000000E+00  0.27868236907E+03  0.27868236907E+03  0.00000000000E+00 0. -1.
         -2   -1    0    0    0  501 -0.00000000000E+00 -0.00000000000E+00 -0.10651692088E+03  0.10651692088E+03  0.00000000000E+00 0.  1.
        -24    2    1    2    0    0 -0.15856918857E+01  0.66093509265E+02 -0.38350861791E+02  0.11086803605E+03  0.80312305609E+02 0.  0.
         23    2    1    2    0    0 -0.14657764343E+02 -0.93997943400E+02  0.20158276476E+03  0.24083027563E+03  0.91176461849E+02 0.  0.
         11    1    3    3    0    0 -0.16876781019E+02  0.31194912744E+02  0.20346098214E+02  0.40889020913E+02  0.00000000000E+00 0. -1.
        -12    1    3    3    0    0  0.15291089134E+02  0.34898596521E+02 -0.58696960005E+02  0.69979015139E+02  0.00000000000E+00 0.  1.
        -13    1    4    4    0    0 -0.46110285612E+02 -0.34306495763E+02  0.13168727379E+03  0.14368240035E+03  0.00000000000E+00 0.  1.
         13    1    4    4    0    0  0.31452521269E+02 -0.59691447637E+02  0.69895490966E+02  0.97147875286E+02  0.00000000000E+00 0. -1.
         21    1    1    2  502  501  0.16243456229E+02  0.27904434135E+02  0.89335452149E+01  0.33500978265E+02  0.00000000000E+00 0. -1.
<scales pt_clust_5="13000.00000" pt_clust_6="13000.00000" pt_clust_7="13000.00000" pt_clust_8="13000.00000" pt_clust_9="32.28788"></scales>
<clustering>
<clus scale="   32.288">  2  9  1 -1</clus>
<clus scale="   80.312">  5  6 -1 -1</clus>
<clus scale="   91.176">  7  8 -1 -1</clus>
<clus scale="  119.809">  2  5  1 -1</clus>
<clus scale="  127.347">  1  5  2 -1</clus>
</clustering>
</event>
<event>
 9    1  0.3846604E-005  0.1435918E+03  0.7546771E-02  0.1212005E+00
          1   -1    0    0  502    0  0.00000000000E+00  0.00000000000E+00  0.25877670952E+02  0.25877670952E+02  0.00000000000E+00 0. -1.
         -2   -1    0    0    0  501 -0.00000000000E+00 -0.00000000000E+00 -0.11726120248E+04  0.11726120248E+04  0.00000000000E+00 0.  1.
        -24    2    1    2    0    0  0.10803990283E+03 -0.74549935113E+02 -0.44728038918E+03  0.47245990683E+03  0.76995477676E+02 0.  0.
         23    2    1    2    0    0 -0.83693785046E+02  0.38831706011E+02 -0.34852062098E+03  0.37244424475E+03  0.93464116920E+02 0.  0.
         13    1    3    3    0    0  0.96876325831E+02 -0.72626342004E+02 -0.28329690544E+03  0.30808561260E+03  0.00000000000E+00 0. -1.
        -14    1    3    3    0    0  0.11163576995E+02 -0.19235931082E+01 -0.16398348374E+03  0.16437429422E+03  0.00000000000E+00 0.  1.
        -13    1    4    4    0    0 -0.16467294404E+02 -0.29986592846E+02 -0.73214455922E+02  0.80812895576E+02  0.00000000000E+00 0. -1.
         13    1    4    4    0    0 -0.67226490643E+02  0.68818298857E+02 -0.27530616505E+03  0.29163134917E+03  0.00000000000E+00 0.  1.
         21    1    1    2  502  501 -0.24346117779E+02  0.35718229102E+02 -0.35093334371E+03  0.35358554420E+03  0.00000000000E+00 0.  1.
<scales pt_clust_5="13000.00000" pt_clust_6="13000.00000" pt_clust_7="13000.00000" pt_clust_8="13000.00000" pt_clust_9="43.22644"></scales>
<clustering>
<clus scale="   43.226">  2  9  1 -1</clus>
<clus scale="   76.995">  5  6 -1 -1</clus>
<clus scale="   93.464">  7  8 -1 -1</clus>
<clus scale="  133.459">  2  5  1 -1</clus>
<clus scale="  143.592">  1  5  2 -1</clus>
</clustering>
</event>
<event>
 9    1  0.6129641E-005  0.9261662E+02  0.7546771E-02  0.1301041E+00
         -2   -1    0    0    0  501 -0.00000000000E+00  0.00000000000E+00  0.18101697429E+03  0.18101697429E+03  0.00000000000E+00 0.  1.
          1   -1    0    0  502    0  0.00000000000E+00 -0.00000000000E+00 -0.30895910119E+03  0.30895910119E+03  0.00000000000E+00 0. -1.
        -24    2    1    2    0    0 -0.17374326795E+02 -0.98179702005E+00  0.14482802081E+03  0.16727913196E+03  0.81879919520E+02 0.  0.
         23    2    1    2    0    0  0.10521233852E+02  0.22617057767E+02 -0.28297915052E+03  0.29781174452E+03  0.89400267804E+02 0.  0.
         11    1    3    3    0    0 -0.23778679225E+02 -0.87972443372E+01  0.35045462488E+01  0.25594900626E+02  0.00000000000E+00 0. -1.
        -12    1    3    3    0    0  0.64043524300E+01  0.78154473172E+01  0.14132347456E+03  0.14168423133E+03  0.00000000000E+00 0.  1.
        -11    1    4    4    0    0  0.47819344735E+02  0.26053311980E+02 -0.14678360425E+03  0.15655954545E+03  0.00000000000E+00 0. -1.
         11    1    4    4    0    0 -0.37298110883E+02 -0.34362542132E+01 -0.13619554627E+03  0.14125219907E+03  0.00000000000E+00 0.  1.
         21    1    1    2  502  501  0.68530929437E+01 -0.21635260747E+02  0.10209002808E+02  0.24885198991E+02  0.00000000000E+00 0.  1.
<scales pt_clust_5="13000.00000" pt_clust_6="13000.00000" pt_clust_7="13000.00000" pt_clust_8="13000.00000" pt_clust_9="22.69470"></scales>
<clustering>
<clus scale="   22.695">  1  9  2 -1</clus>
<clus scale="   81.880">  5  6 -1 -1</clus>
<clus scale="   85.380">  1  5  2 -1</clus>
<clus scale="   89.400">  7  8 -1 -1</clus>
<clus scale="   92.617">  2  5  1 -1</clus>
</clustering>
</event>
<event>
 9    1  0.3846604E-005  0.1356622E+03  0.7546771E-02  0.1222424E+00
          1   -1    0    0  502    0  0.00000000000E+00  0.00000000000E+00  0.30468200800E+03  0.30468200800E+03  0.00000000000E+00 0. -1.
         -2   -1    0    0    0  501 -0.00000000000E+00 -0.00000000000E+00 -0.11955304583E+03  0.11955304583E+03  0.00000000000E+00 0.  1.
         23    2    1    2    0    0  0.70654758672E+02  0.93704361367E+02 -0.80191837371E+01  0.14791574236E+03  0.89678075736E+02 0.  0.
        -24    2    1    2    0    0 -0.47853803856E+02 -0.86222640239E+02  0.21196781325E+03  0.24582276132E+03  0.75987800963E+02 0.  0.
         13    1    4    4    0    0 -0.68738102492E+02 -0.66551131942E+02  0.16761938627E+03  0.19300320865E+03  0.00000000000E+00 0. -1.
        -14    1    4    4    0    0  0.20884298636E+02 -0.19671508297E+02  0.44348426982E+02  0.52819552667E+02  0.00000000000E+00 0.  1.
        -13    1    3    3    0    0  0.37255198102E+02  0.96895764651E+02 -0.29690890204E+02  0.10797355210E+03  0.00000000000E+00 0.  1.
         13    1    3    3    0    0  0.33399560570E+02 -0.31914032840E+01  0.21671706467E+02  0.39942190255E+02  0.00000000000E+00 0. -1.
         21    1    1    2  502  501 -0.22800954816E+02 -0.74817211277E+01 -0.18819667355E+02  0.30496550148E+02  0.00000000000E+00 0.  1.
<scales pt_clust_5="13000.00000" pt_clust_6="13000.00000" pt_clust_7="13000.00000" pt_clust_8="13000.00000" pt_clust_9="23.99708"></scales>
<clustering>
<clus scale="   23.997">  2  9  1 -1</clus>
<clus scale="   75.988">  5  6 -1 -1</clus>
<clus scale="   89.678">  7  8 -1 -1</clus>
<clus scale="  127.028">  1  5  2 -1</clus>
<clus scale="  127.028">  1  5  2 -1</clus>
</clustering>
</event>
<event>
 9    1  0.3846604E-005  0.1181442E+03  0.7546771E-02  0.1251481E+00
          1   -1    0    0  502    0  0.00000000000E+00  0.00000000000E+00  0.31164889798E+03  0.31164889798E+03  0.00000000000E+00 0. -1.
         -2   -1    0    0    0  501 -0.00000000000E+00 -0.00000000000E+00 -0.74514036476E+02  0.74514036476E+02  0.00000000000E+00 0.  1.
         23    2    1    2    0    0 -0.10700346973E+03 -0.12558814908E+02  0.58134949377E+02  0.15260423257E+03  0.91109346896E+02 0.  0.
        -24    2    1    2    0    0  0.65095889357E+02  0.46085618652E+01  0.15621741173E+03  0.18520072281E+03  0.75078055034E+02 0.  0.
         13    1    4    4    0    0  0.15519554916E+02 -0.15598269801E+02  0.11644990083E+03  0.11851051434E+03  0.00000000000E+00 0. -1.
        -14    1    4    4    0    0  0.49576334440E+02  0.20206831667E+02  0.39767510900E+02  0.66690208469E+02  0.00000000000E+00 0.  1.
        -13    1    3    3    0    0 -0.65638330713E+02 -0.78052680606E+01  0.81439245368E+02  0.10488881425E+03  0.00000000000E+00 0. -1.
         13    1    3    3    0    0 -0.41365139018E+02 -0.47535468470E+01 -0.23304295992E+02  0.47715418318E+02  0.00000000000E+00 0.  1.
         21    1    1    2  502  501  0.41907580375E+02  0.79502530425E+01  0.22782500394E+02  0.48357979078E+02  0.00000000000E+00 0.  1.
<scales pt_clust_5="13000.00000" pt_clust_6="13000.00000" pt_clust_7="13000.00000" pt_clust_8="13000.00000" pt_clust_9="42.65503"></scales>
<clustering>
<clus scale="   42.655">  2  9  1 -1</clus>
<clus scale="   75.078">  5  6 -1 -1</clus>
<clus scale="   91.109">  7  8 -1 -1</clus>
<clus scale="  106.272">  1  5  2 -1</clus>
<clus scale="  106.272">  1  5  2 -1</clus>
</clustering>
</event>
<event>
 9    1  0.3846604E-005  0.1056555E+03  0.7546771E-02  0.1272940E+00
          3   -1    0    0  502    0  0.00000000000E+00  0.00000000000E+00  0.54775623838E+02  0.54775623838E+02  0.00000000000E+00 0. -1.
         -4   -1    0    0    0  501 -0.00000000000E+00 -0.00000000000E+00 -0.74795859438E+03  0.74795859438E+03  0.00000000000E+00 0.  1.
        -24    2    1    2    0    0  0.38219907443E+02 -0.16515350950E+02 -0.60943917786E+03  0.61600367805E+03  0.79441184051E+02 0.  0.
         23    2    1    2    0    0 -0.44898300242E+02  0.37091535665E+02 -0.66908766083E+01  0.10669847045E+03  0.89152433412E+02 0.  0.
         13    1    3    3    0    0 -0.89579128284E+01 -0.33465131250E+02 -0.15591809041E+03  0.15972041237E+03  0.00000000000E+00 0. -1.
        -14    1    3    3    0    0  0.47177820272E+02  0.16949780300E+02 -0.45352108744E+03  0.45628326567E+03  0.00000000000E+00 0.  1.
        -11    1    4    4    0    0 -0.52970883369E+02 -0.12268833935E+02 -0.14011477544E+02  0.56149445892E+02  0.00000000000E+00 0. -1.
         11    1    4    4    0    0  0.80725831264E+01  0.49360369600E+02  0.73206009359E+01  0.50549024555E+02  0.00000000000E+00 0.  1.
         21    1    1    2  502  501  0.66783927992E+01 -0.20576184715E+02 -0.77052916078E+02  0.80032069721E+02  0.00000000000E+00 0. -1.
<scales pt_clust_5="13000.00000" pt_clust_6="13000.00000" pt_clust_7="13000.00000" pt_clust_8="13000.00000" pt_clust_9="21.63285"></scales>
<clustering>
<clus scale="   21.633">  2  9  1 -1</clus>
<clus scale="   79.441">  5  6 -1 -1</clus>
<clus scale="   89.152">  7  8 -1 -1</clus>
<clus scale="   97.600">  2  5  1 -1</clus>
<clus scale="  105.656">  1  5  2 -1</clus>
</clustering>
</event>
<event>
 9    1  0.3846604E-005  0.9962057E+02  0.7546771E-02  0.1288246E+00
          1   -1    0    0  502    0  0.00000000000E+00  0.00000000000E+00  0.24151927632E+03  0.24151927632E+03  0.00000000000E+00 0. -1.
         -2   -1    0    0    0  501 -0.00000000000E+00 -0.00000000000E+00 -0.16666665247E+03  0.16666665247E+03  0.00000000000E+00 0.  1.
        -24    2    1    2    0    0  0.22581176578E+02 -0.29207517114E+02 -0.11198929454E+03  0.14257370527E+03  0.80141566927E+02 0.  0.
         23    2    1    2    0    0 -0.34869640715E+02  0.13361053696E+00  0.20580699744E+03  0.22878869005E+03  0.93658073877E+02 0.  0.
         11    1    3    3    0    0  0.82532024071E+01  0.24439958502E+02 -0.12562869543E+02  0.28692379000E+02  0.00000000000E+00 0. -1.
        -12    1    3    3    0    0  0.14327974171E+02 -0.53647475616E+02 -0.99426425000E+02  0.11388132627E+03  0.00000000000E+00 0.  1.
        -11    1    4    4    0    0 -0.25464340510E+01 -0.44461867390E+02  0.10126872281E+03  0.11062864095E+03  0.00000000000E+00 0.  1.
         11    1    4    4    0    0 -0.32323206664E+02  0.44595477927E+02  0.10453827463E+03  0.11816004910E+03  0.00000000000E+00 0. -1.
         21    1    1    2  502  501  0.12288464137E+02  0.29073906577E+02 -0.18965079046E+02  0.36823533477E+02  0.00000000000E+00 0.  1.
<scales pt_clust_5="13000.00000" pt_clust_6="13000.00000" pt_clust_7="13000.00000" pt_clust_8="13000.00000" pt_clust_9="31.56419"></scales>
<clustering>
<clus scale="   31.564">  2  9  1 -1</clus>
<clus scale="   80.142">  5  6 -1 -1</clus>
<clus scale="   87.035">  2  5  1 -1</clus>
<clus scale="   93.658">  7  8 -1 -1</clus>
<clus scale="   99.621">  1  5  2 -1</clus>
</clustering>
</event>
<event>
 9    1  0.3846604E-005  0.1327890E+03  0.7546771E-02  0.1245050E+00
          3   -1    0    0  502    0  0.00000000000E+00  0.00000000000E+00  0.45205572075E+03  0.45205572075E+03  0.00000000000E+00 0. -1.
         -4   -1    0    0    0  501 -0.00000000000E+00 -0.00000000000E+00 -0.67797359738E+02  0.67797359738E+02  0.00000000000E+00 0.  1.
         23    2    1    2    0    0 -0.69119970214E+02  0.44278384879E+02  0.83563945654E+02  0.15399887705E+03  0.99972873674E+02 0.  0.
        -24    2    1    2    0    0 -0.21462015760E+02 -0.22223326984E+02  0.23988812660E+03  0.25454864870E+03  0.79336037778E+02 0.  0.
         13    1    4    4    0    0 -0.38692985635E+02 -0.29484531077E+02  0.22620939756E+03  0.23138101965E+03  0.00000000000E+00 0. -1.
        -14    1    4    4    0    0  0.17230969875E+02  0.72612040928E+01  0.13678729036E+02  0.23167629049E+02  0.00000000000E+00 0.  1.
        -13    1    3    3    0    0 -0.44724522446E+02  0.74526687022E+02  0.40176515275E+02  0.95753132409E+02  0.00000000000E+00 0.  1.
         13    1    3    3    0    0 -0.24395447767E+02 -0.30248302143E+02  0.43387430379E+02  0.58245744644E+02  0.00000000000E+00 0. -1.
         21    1    1    2  502  501  0.90581985974E+02 -0.22055057896E+02  0.60806288762E+02  0.11130555473E+03  0.00000000000E+00 0.  1.
<scales pt_clust_5="13000.00000" pt_clust_6="13000.00000" pt_clust_7="13000.00000" pt_clust_8="13000.00000" pt_clust_9="87.39760"></scales>
<clustering>
<clus scale="   79.336">  5  6 -1 -1</clus>
<clus scale="   85.139">  1  5  2 -1</clus>
<clus scale="   87.398">  1  9  2 -1</clus>
<clus scale="   99.973">  7  8 -1 -1</clus>
<clus scale="   85.139">  1  5  2 -1</clus>
</clustering>
</event>
<event>
 9    1  0.3846604E-005  0.9933708E+02  0.7546771E-02  0.1287218E+00
         -2   -1    0    0    0  501 -0.00000000000E+00  0.00000000000E+00  0.11020612394E+03  0.11020612394E+03  0.00000000000E+00 0.  1.
          1   -1    0    0  502    0  0.00000000000E+00 -0.00000000000E+00 -0.28457707576E+03  0.28457707576E+03  0.00000000000E+00 0. -1.
         23    2    1    2    0    0  0.10499204863E+02  0.35937503238E+01  0.60141941550E+02  0.11022176612E+03  0.91698616398E+02 0.  0.
        -24    2    1    2    0    0 -0.36609202394E+02  0.19020546979E+02 -0.23289222659E+03  0.24998159878E+03  0.80932043206E+02 0.  0.
         11    1    4    4    0    0 -0.62590439380E+02  0.16033267070E+02 -0.16104858825E+03  0.17352601111E+03  0.00000000000E+00 0. -1.
        -12    1    4    4    0    0  0.25981236986E+02  0.29872799099E+01 -0.71843638342E+02  0.76455587676E+02  0.00000000000E+00 0.  1.
        -11    1    3    3    0    0  0.32947327497E+02  0.14317895022E+02  0.73627234698E+02  0.81923734024E+02  0.00000000000E+00 0.  1.
         11    1    3    3    0    0 -0.22448122633E+02 -0.10724144699E+02 -0.13485293149E+02  0.28298032097E+02  0.00000000000E+00 0. -1.
         21    1    1    2  502  501  0.26109997531E+02 -0.22614297303E+02 -0.16206667721E+01  0.34579834794E+02  0.00000000000E+00 0. -1.
<scales pt_clust_5="13000.00000" pt_clust_6="13000.00000" pt_clust_7="13000.00000" pt_clust_8="13000.00000" pt_clust_9="34.54184"></scales>
<clustering>
<clus scale="   34.542">  1  9  2 -1</clus>
<clus scale="   80.932">  5  6 -1 -1</clus>
<clus scale="   89.494">  2  5  1 -1</clus>
<clus scale="   91.699">  7  8 -1 -1</clus>
<clus scale="   89.494">  2  5  1 -1</clus>
</clustering>
</event>
<event>
 9    1  0.3846604E-005  0.1052533E+03  0.7546771E-02  0.1274459E+00
          1   -1    0    0  502    0  0.00000000000E+00  0.00000000000E+00  0.61630833277E+03  0.61630833277E+03  0.00000000000E+00 0. -1.
         -2   -1    0    0    0  501 -0.00000000000E+00 -0.00000000000E+00 -0.42120461888E+03  0.42120461888E+03  0.00000000000E+00 0.  1.
        -24    2    1    2    0    0 -0.17109610194E+02  0.22509778408E+02  0.19092852596E+03  0.20919019179E+03  0.80668490948E+02 0.  0.
         23    2    1    2    0    0 -0.20681144046E+02 -0.81971134050E+02  0.40376467009E+03  0.42256969682E+03  0.91609297138E+02 0.  0.
         11    1    3    3    0    0 -0.41615366726E+02 -0.10560836207E+02  0.78665667942E+02  0.89619514180E+02  0.00000000000E+00 0. -1.
        -12    1    3    3    0    0  0.24505756532E+02  0.33070614615E+02  0.11226285802E+03  0.11957067761E+03  0.00000000000E+00 0.  1.
        -11    1    4    4    0    0 -0.56276418184E+02 -0.42603926232E+02  0.25644117246E+03  0.26597782747E+03  0.00000000000E+00 0. -1.
         11    1    4    4    0    0  0.35595274138E+02 -0.39367207818E+02  0.14732349763E+03  0.15659186935E+03  0.00000000000E+00 0.  1.
         21    1    1    2  502  501  0.37790754240E+02  0.59461355642E+02 -0.39958948215E+03  0.40575306304E+03  0.00000000000E+00 0.  1.
<scales pt_clust_5="13000.00000" pt_clust_6="13000.00000" pt_clust_7="13000.00000" pt_clust_8="13000.00000" pt_clust_9="70.45420"></scales>
<clustering>
<clus scale="   70.454">  2  9  1 -1</clus>
<clus scale="   80.668">  5  6 -1 -1</clus>
<clus scale="   91.609">  7  8 -1 -1</clus>
<clus scale="   95.882">  2  5  1 -1</clus>
<clus scale="  105.253">  1  5  2 -1</clus>
</clustering>
</event>
<event>
 9    1  0.3846604E-005  0.1255770E+03  0.7546771E-02  0.1256501E+00
         -2   -1    0    0    0  501 -0.00000000000E+00  0.00000000000E+00  0.54359458991E+02  0.54359458991E+02  0.00000000000E+00 0.  1.
          1   -1    0    0  502    0  0.00000000000E+00 -0.00000000000E+00 -0.66678815968E+03  0.66678815968E+03  0.00000000000E+00 0. -1.
         23    2    1    2    0    0  0.88063161901E+02  0.63890328236E+00 -0.56043302523E+02  0.13821506054E+03  0.90592618472E+02 0.  0.
        -24    2    1    2    0    0 -0.33830254401E+01 -0.34185315577E+01 -0.36411293180E+03  0.37282031867E+03  0.79960188198E+02 0.  0.
         11    1    4    4    0    0 -0.27328935657E+02  0.24168277806E+02 -0.10527270156E+03  0.11141507110E+03  0.00000000000E+00 0. -1.
        -12    1    4    4    0    0  0.23945910216E+02 -0.27586809363E+02 -0.25884023024E+03  0.26140524757E+03  0.00000000000E+00 0.  1.
        -11    1    3    3    0    0  0.39761569636E+02  0.42186518887E+02 -0.82199946562E+01  0.58551286133E+02  0.00000000000E+00 0. -1.
         11    1    3    3    0    0  0.48301592265E+02 -0.41547615604E+02 -0.47823307867E+02  0.79663774409E+02  0.00000000000E+00 0.  1.
         21    1    1    2  502  501 -0.84680136461E+02  0.27796282754E+01 -0.19227246637E+03  0.21011223946E+03  0.00000000000E+00 0.  1.
<scales pt_clust_5="13000.00000" pt_clust_6="13000.00000" pt_clust_7="13000.00000" pt_clust_8="13000.00000" pt_clust_9="86.96299"></scales>
<clustering>
<clus scale="   79.960">  5  6 -1 -1</clus>
<clus scale="   80.105">  2  5  1 -1</clus>
<clus scale="   86.963">  2  9  1 -1</clus>
<clus scale="   90.593">  7  8 -1 -1</clus>
<clus scale="   80.105">  2  5  1 -1</clus>
</clustering>
</event>
<event>
 9    1  0.3846604E-005  0.8904889E+02  0.7546771E-02  0.1309923E+00
         -2   -1    0    0    0  501 -0.00000000000E+00  0.00000000000E+00  0.12607764736E+03  0.12607764736E+03  0.00000000000E+00 0.  1.
          1   -1    0    0  502    0  0.00000000000E+00 -0.00000000000E+00 -0.10025585345E+03  0.10025585345E+03  0.00000000000E+00 0. -1.
        -24    2    1    2    0    0  0.25780993790E+02 -0.16570913977E+01  0.24727801905E+02  0.87282827223E+02  0.79620488245E+02 0.  0.
         23    2    1    2    0    0 -0.10500392502E+02 -0.14528839058E+02 -0.35823665188E+02  0.95941573234E+02  0.87178581544E+02 0.  0.
         13    1    3    3    0    0  0.45683660900E+02 -0.25611753656E+02  0.12652493864E+02  0.53879907197E+02  0.00000000000E+00 0. -1.
        -14    1    3    3    0    0 -0.19902667110E+02  0.23954662259E+02  0.12075308041E+02  0.33402920027E+02  0.00000000000E+00 0.  1.
        -13    1    4    4    0    0  0.46842050345E+01 -0.49378367850E+02 -0.11838542587E+02  0.50993294451E+02  0.00000000000E+00 0. -1.
         13    1    4    4    0    0 -0.15184597537E+02  0.34849528793E+02 -0.23985122601E+02  0.44948278784E+02  0.00000000000E+00 0.  1.
         21    1    1    2  502  501 -0.15280601288E+02  0.16185930455E+02  0.36917657194E+02  0.43109100351E+02  0.00000000000E+00 0.  1.
<scales pt_clust_5="13000.00000" pt_clust_6="13000.00000" pt_clust_7="13000.00000" pt_clust_8="13000.00000" pt_clust_9="22.25941"></scales>
<clustering>
<clus scale="   22.259">  1  9  2 -1</clus>
<clus scale="   79.620">  5  6 -1 -1</clus>
<clus scale="   81.664">  1  5  2 -1</clus>
<clus scale="   87.179">  7  8 -1 -1</clus>
<clus scale="   89.049">  2  5  1 -1</clus>
</clustering>
</event>
<event>
 9    1  0.3846604E-005  0.1245848E+03  0.7546771E-02  0.1237532E+00
          1   -1    0    0  502    0  0.00000000000E+00  0.00000000000E+00  0.28455958789E+03  0.28455958789E+03  0.00000000000E+00 0. -1.
         -2   -1    0    0    0  501 -0.00000000000E+00 -0.00000000000E+00 -0.14883192409E+03  0.14883192409E+03  0.00000000000E+00 0.  1.
         23    2    1    2    0    0 -0.49532092502E+02 -0.47713374955E+02 -0.62647862822E+02  0.12972748460E+03  0.90412782318E+02 0.  0.
        -24    2    1    2    0    0  0.52795810561E+02  0.71022483461E+02  0.23227630672E+03  0.26239382886E+03  0.84063357004E+02 0.  0.
         11    1    4    4    0    0  0.72601850677E+02  0.66093580274E+02  0.16410185041E+03  0.19122972411E+03  0.00000000000E+00 0. -1.
        -12    1    4    4    0    0 -0.19806040116E+02  0.49289031869E+01  0.68174456318E+02  0.71164104757E+02  0.00000000000E+00 0.  1.
        -13    1    3    3    0    0 -0.16864787117E+02 -0.68220178772E+02 -0.57529629737E+02  0.90818897449E+02  0.00000000000E+00 0.  1.
         13    1    3    3    0    0 -0.32667305385E+02  0.20506803817E+02 -0.51182330843E+01  0.38908587148E+02  0.00000000000E+00 0. -1.
         21    1    1    2  502  501 -0.32637180593E+01 -0.23309108506E+02 -0.33900780096E+02  0.41270198522E+02  0.00000000000E+00 0.  1.
<scales pt_clust_5="13000.00000" pt_clust_6="13000.00000" pt_clust_7="13000.00000" pt_clust_8="13000.00000" pt_clust_9="23.53649"></scales>
<clustering>
<clus scale="   23.536">  2  9  1 -1</clus>
<clus scale="   84.063">  5  6 -1 -1</clus>
<clus scale="   90.413">  7  8 -1 -1</clus>
<clus scale="  120.056">  1  5  2 -1</clus>
<clus scale="  120.056">  1  5  2 -1</clus>
</clustering>
</event>
<event>
 9    1  0.3846604E-005  0.1551074E+03  0.7546771E-02  0.1194492E+00
         -2   -1    0    0    0  501 -0.00000000000E+00  0.00000000000E+00  0.10514494330E+03  0.10514494330E+03  0.00000000000E+00 0.  1.
          1   -1    0    0  502    0  0.00000000000E+00 -0.00000000000E+00 -0.31216396262E+03  0.31216396262E+03  0.00000000000E+00 0. -1.
        -24    2    1    2    0    0  0.21028922436E+02 -0.14871093379E+03 -0.90998727308E+02  0.19325504534E+03  0.80682010215E+02 0.  0.
         23    2    1    2    0    0 -0.39664558916E+02  0.11341897409E+03 -0.11292246102E+03  0.18402379783E+03  0.81707619278E+02 0.  0.
         11    1    3    3    0    0 -0.23847790441E+02 -0.36802565731E+02 -0.48565067565E+02  0.65434789989E+02  0.00000000000E+00 0. -1.
        -12    1    3    3    0    0  0.44876712877E+02 -0.11190836806E+03 -0.42433659743E+02  0.12782025535E+03  0.00000000000E+00 0.  1.
        -13    1    4    4    0    0  0.37702385113E+01  0.69396609505E+02 -0.98451083396E+02  0.12051024824E+03  0.00000000000E+00 0. -1.
         13    1    4    4    0    0 -0.43434797427E+02  0.44022364583E+02 -0.14471377621E+02  0.63513549588E+02  0.00000000000E+00 0.  1.
         21    1    1    2  502  501  0.18635636480E+02  0.35291959700E+02 -0.30978309973E+01  0.40030062745E+02  0.00000000000E+00 0. -1.
<scales pt_clust_5="13000.00000" pt_clust_6="13000.00000" pt_clust_7="13000.00000" pt_clust_8="13000.00000" pt_clust_9="39.91002"></scales>
<clustering>
<clus scale="   39.910">  1  9  2 -1</clus>
<clus scale="   80.682">  5  6 -1 -1</clus>
<clus scale="   81.708">  7  8 -1 -1</clus>
<clus scale="  154.570">  1  5  2 -1</clus>
<clus scale="  155.107">  2  5  1 -1</clus>
</clustering>
</event>
<event>
 9    1  0.3846604E-005  0.1097140E+03  0.7546771E-02  0.1265607E+00
          1   -1    0    0  502    0  0.00000000000E+00  0.00000000000E+00  0.37135753793E+03  0.37135753793E+03  0.00000000000E+00 0. -1.
         -2   -1    0    0    0  501 -0.00000000000E+00 -0.00000000000E+00 -0.22086265547E+03  0.22086265547E+03  0.00000000000E+00 0.  1.
         23    2    1    2    0    0  0.62652690410E+01 -0.28922417586E+02 -0.18092151239E+03  0.20520538575E+03  0.92200308348E+02 0.  0.
        -24    2    1    2    0    0  0.11659345758E+02  0.59580594063E+02  0.33627206852E+03  0.35117079605E+03  0.80970589735E+02 0.  0.
         13    1    4    4    0    0  0.87313996249E+01  0.50081674903E+02  0.80518612086E+02  0.95224253175E+02  0.00000000000E+00 0. -1.
        -14    1    4    4    0    0  0.29279461335E+01  0.94989191601E+01  0.25575345643E+03  0.25594654288E+03  0.00000000000E+00 0.  1.
        -13    1    3    3    0    0 -0.17778866682E+02 -0.40548129343E+02 -0.17112234132E+03  0.17675716278E+03  0.00000000000E+00 0.  1.
         13    1    3    3    0    0  0.24044135723E+02  0.11625711757E+02 -0.97991710659E+01  0.28448222969E+02  0.00000000000E+00 0. -1.
         21    1    1    2  502  501 -0.17924614799E+02 -0.30658176477E+02 -0.48556736658E+01  0.35844011596E+02  0.00000000000E+00 0.  1.
<scales pt_clust_5="13000.00000" pt_clust_6="13000.00000" pt_clust_7="13000.00000" pt_clust_8="13000.00000" pt_clust_9="35.51360"></scales>
<clustering>
<clus scale="   35.514">  2  9  1 -1</clus>
<clus scale="   80.971">  5  6 -1 -1</clus>
<clus scale="   92.200">  7  8 -1 -1</clus>
<clus scale="  100.461">  1  5  2 -1</clus>
<clus scale="  100.461">  1  5  2 -1</clus>
</clustering>
</event>
<event>
 9    1  0.3846604E-005  0.9670430E+02  0.7546771E-02  0.1293389E+00
          1   -1    0    0  502    0  0.00000000000E+00  0.00000000000E+00  0.14912645675E+03  0.14912645675E+03  0.00000000000E+00 0. -1.
         -2   -1    0    0    0  501 -0.00000000000E+00 -0.00000000000E+00 -0.13086680639E+03  0.13086680639E+03  0.00000000000E+00 0.  1.
        -24    2    1    2    0    0  0.46548475443E+02 -0.17039704398E+02  0.11156448108E+02  0.95266231491E+02  0.80585832726E+02 0.  0.
         23    2    1    2    0    0 -0.22045792141E+02 -0.37522036826E+01  0.67779721898E+02  0.11606608958E+03  0.91526774581E+02 0.  0.
         11    1    3    3    0    0  0.56767525991E+02  0.11980597587E+02  0.22845152159E+02  0.62353730465E+02  0.00000000000E+00 0. -1.
        -12    1    3    3    0    0 -0.10219050549E+02 -0.29020301985E+02 -0.11688704051E+02  0.32912501026E+02  0.00000000000E+00 0.  1.
        -13    1    4    4    0    0 -0.47682390331E+02  0.17391929461E+02  0.65351908509E+02  0.82746368523E+02  0.00000000000E+00 0. -1.
         13    1    4    4    0    0  0.25636598190E+02 -0.21144133144E+02  0.24278133891E+01  0.33319721052E+02  0.00000000000E+00 0.  1.
         21    1    1    2  502  501 -0.24502683302E+02  0.20791908080E+02 -0.60676519640E+02  0.68660942072E+02  0.00000000000E+00 0.  1.
<scales pt_clust_5="13000.00000" pt_clust_6="13000.00000" pt_clust_7="13000.00000" pt_clust_8="13000.00000" pt_clust_9="32.13542"></scales>
<clustering>
<clus scale="   32.135">  2  9  1 -1</clus>
<clus scale="   80.586">  5  6 -1 -1</clus>
<clus scale="   86.421">  2  5  1 -1</clus>
<clus scale="   91.527">  7  8 -1 -1</clus>
<clus scale="   96.704">  1  5  2 -1</clus>
</clustering>
</event>
<event>
 9    1  0.3846604E-005  0.3665970E+03  0.7546771E-02  0.1056207E+00
         -2   -1    0    0    0  501 -0.00000000000E+00  0.00000000000E+00  0.14741198164E+03  0.14741198164E+03  0.00000000000E+00 0.  1.
          1   -1    0    0  502    0  0.00000000000E+00 -0.00000000000E+00 -0.14113514969E+04  0.14113514969E+04  0.00000000000E+00 0. -1.
        -24    2    1    2    0    0  0.21463272853E+03 -0.31646419316E+03 -0.28715923189E+03  0.48506002599E+03  0.81277368566E+02 0.  0.
         23    2    1    2    0    0 -0.19459706203E+03  0.28679791668E+03 -0.97404281002E+03  0.10378006720E+04  0.90276117945E+02 0.  0.
         11    1    3    3    0    0  0.15735702794E+03 -0.24529003705E+03 -0.25783573160E+03  0.38911142493E+03  0.00000000000E+00 0. -1.
        -12    1    3    3    0    0  0.57275700593E+02 -0.71174156105E+02 -0.29323500290E+02  0.95948601058E+02  0.00000000000E+00 0.  1.
        -13    1    4    4    0    0 -0.13483877219E+03  0.13358096284E+03 -0.59716824477E+03  0.62660616074E+03  0.00000000000E+00 0. -1.
         13    1    4    4    0    0 -0.59758289841E+02  0.15321695384E+03 -0.37687456526E+03  0.41119451125E+03  0.00000000000E+00 0.  1.
         21    1    1    2  502  501 -0.20035666504E+02  0.29666276480E+02 -0.27374733663E+01  0.35902780573E+02  0.00000000000E+00 0.  1.
<scales pt_clust_5="13000.00000" pt_clust_6="13000.00000" pt_clust_7="13000.00000" pt_clust_8="13000.00000" pt_clust_9="35.79827"></scales>
<clustering>
<clus scale="   35.798">  1  9  2 -1</clus>
<clus scale="   81.277">  5  6 -1 -1</clus>
<clus scale="   90.276">  7  8 -1 -1</clus>
<clus scale="  364.485">  1  5  2 -1</clus>
<clus scale="  366.597">  2  5  1 -1</clus>
</clustering>
</event>
<event>
 9    1  0.3846604E-005  0.1312566E+03  0.7546771E-02  0.1228903E+00
         -2   -1    0    0    0  501 -0.00000000000E+00  0.00000000000E+00  0.23269662933E+03  0.23269662933E+03  0.00000000000E+00 0.  1.
          1   -1    0    0  502    0  0.00000000000E+00 -0.00000000000E+00 -0.99255234900E+02  0.99255234900E+02  0.00000000000E+00 0. -1.
        -24    2    1    2    0    0 -0.72669244679E+02 -0.82466102901E+02  0.10376012796E+03  0.17116771604E+03  0.80316533866E+02 0.  0.
         23    2    1    2    0    0  0.53942380853E+02  0.64802685253E+02  0.58318216811E+01  0.12569158817E+03  0.93033309754E+02 0.  0.
         11    1    3    3    0    0 -0.43183110269E+02 -0.90834828843E+02  0.97102721089E+02  0.13980230894E+03  0.00000000000E+00 0. -1.
        -12    1    3    3    0    0 -0.29486134410E+02  0.83687259423E+01  0.66574068695E+01  0.31365407100E+02  0.00000000000E+00 0.  1.
        -11    1    4    4    0    0  0.25804848220E+02  0.86207999202E+02  0.87325699053E+00  0.89991510132E+02  0.00000000000E+00 0.  1.
         11    1    4    4    0    0  0.28137532633E+02 -0.21405313949E+02  0.49585646906E+01  0.35700078035E+02  0.00000000000E+00 0. -1.
         21    1    1    2  502  501  0.18726863826E+02  0.17663417648E+02  0.23849444791E+02  0.35092560018E+02  0.00000000000E+00 0. -1.
<scales pt_clust_5="13000.00000" pt_clust_6="13000.00000" pt_clust_7="13000.00000" pt_clust_8="13000.00000" pt_clust_9="25.74280"></scales>
<clustering>
<clus scale="   25.743">  1  9  2 -1</clus>
<clus scale="   80.317">  5  6 -1 -1</clus>
<clus scale="   93.033">  7  8 -1 -1</clus>
<clus scale="  122.572">  1  5  2 -1</clus>
<clus scale="  131.257">  2  5  1 -1</clus>
</clustering>
</event>
<event>
 9    1  0.3846604E-005  0.1133717E+03  0.7546771E-02  0.1261183E+00
         -2   -1    0    0    0  501 -0.00000000000E+00  0.00000000000E+00  0.28793131679E+03  0.28793131679E+03  0.00000000000E+00 0.  1.
          1   -1    0    0  502    0  0.00000000000E+00 -0.00000000000E+00 -0.54849477929E+02  0.54849477929E+02  0.00000000000E+00 0. -1.
        -24    2    1    2    0    0 -0.49689955931E+02 -0.12805274587E+02  0.14691799366E+03  0.17494273621E+03  0.79918691892E+02 0.  0.
         23    2    1    2    0    0  0.54890794347E+02  0.32562916887E+02  0.50052533726E+02  0.12634781910E+03  0.96877099459E+02 0.  0.
         11    1    3    3    0    0 -0.72451130297E+00 -0.38705685656E+02  0.49059172113E+02  0.62493658776E+02  0.00000000000E+00 0. -1.
        -12    1    3    3    0    0 -0.48965444628E+02  0.25900411070E+02  0.97858821542E+02  0.11244907743E+03  0.00000000000E+00 0.  1.
        -11    1    4    4    0    0  0.55218964692E+02  0.54873490786E+02  0.63355575607E+02  0.10037013008E+03  0.00000000000E+00 0.  1.
         11    1    4    4    0    0 -0.32817034489E+00 -0.22310573899E+02 -0.13303041881E+02  0.25977689019E+02  0.00000000000E+00 0. -1.
         21    1    1    2  502  501 -0.52008384167E+01 -0.19757642300E+02  0.36111311475E+02  0.41490239406E+02  0.00000000000E+00 0.  1.
<scales pt_clust_5="13000.00000" pt_clust_6="13000.00000" pt_clust_7="13000.00000" pt_clust_8="13000.00000" pt_clust_9="20.43069"></scales>
<clustering>
<clus scale="   20.431">  1  9  2 -1</clus>
<clus scale="   79.919">  5  6 -1 -1</clus>
<clus scale="   96.877">  7  8 -1 -1</clus>
<clus scale="   99.272">  1  5  2 -1</clus>
<clus scale="  113.372">  2  5  1 -1</clus>
</clustering>
</event>
<event>
 9    1  0.3846604E-005  0.1207902E+03  0.7546771E-02  0.1248873E+00
          1   -1    0    0  502    0  0.00000000000E+00  0.00000000000E+00  0.74400091048E+02  0.74400091048E+02  0.00000000000E+00 0. -1.
         -2   -1    0    0    0  501 -0.00000000000E+00 -0.00000000000E+00 -0.32241044955E+03  0.32241044955E+03  0.00000000000E+00 0.  1.
        -24    2    1    2    0    0  0.37777229447E+02  0.73732208663E+02 -0.19608720486E+03  0.22388327175E+03  0.69353945828E+02 0.  0.
         23    2    1    2    0    0 -0.59381949094E+02 -0.51459914701E+02 -0.10664687748E+02  0.12130285604E+03  0.91794926982E+02 0.  0.
         11    1    3    3    0    0  0.17236826161E+02  0.24089534928E+02 -0.11732758016E+02  0.31860186437E+02  0.00000000000E+00 0. -1.
        -12    1    3    3    0    0  0.20540403286E+02  0.49642673735E+02 -0.18435444685E+03  0.19202308532E+03  0.00000000000E+00 0.  1.
        -11    1    4    4    0    0 -0.20539589422E+02  0.14952062681E+02 -0.32571541256E+02  0.41307919481E+02  0.00000000000E+00 0.  1.
         11    1    4    4    0    0 -0.38842359672E+02 -0.66411977382E+02  0.21906853508E+02  0.79994936561E+02  0.00000000000E+00 0. -1.
         21    1    1    2  502  501  0.21604719647E+02 -0.22272293962E+02 -0.41258465890E+02  0.51624412800E+02  0.00000000000E+00 0.  1.
<scales pt_clust_5="13000.00000" pt_clust_6="13000.00000" pt_clust_7="13000.00000" pt_clust_8="13000.00000" pt_clust_9="31.02932"></scales>
<clustering>
<clus scale="   31.029">  2  9  1 -1</clus>
<clus scale="   69.354">  5  6 -1 -1</clus>
<clus scale="   91.795">  7  8 -1 -1</clus>
<clus scale="  104.757">  2  5  1 -1</clus>
<clus scale="  120.790">  1  5  2 -1</clus>
</clustering>
</event>
<event>
 9    1  0.3846604E-005  0.9493062E+02  0.7546771E-02  0.1297151E+00
          1   -1    0    0  502    0  0.00000000000E+00  0.00000000000E+00  0.20235129421E+03  0.20235129421E+03  0.00000000000E+00 0. -1.
         -2   -1    0    0    0  501 -0.00000000000E+00 -0.00000000000E+00 -0.19000204621E+03  0.19000204621E+03  0.00000000000E+00 0.  1.
         23    2    1    2    0    0  0.83271655551E+01  0.33537072434E+02 -0.85327482752E+02  0.12755017098E+03  0.88284709272E+02 0.  0.
        -24    2    1    2    0    0  0.39442753640E+02  0.57640962641E+01  0.15663896988E+03  0.17934503533E+03  0.77716917023E+02 0.  0.
         13    1    4    4    0    0  0.35795624209E+02  0.18848276528E+02  0.26193363661E+02  0.48194154630E+02  0.00000000000E+00 0. -1.
        -14    1    4    4    0    0  0.36471294310E+01 -0.13084180264E+02  0.13044560622E+03  0.13115088070E+03  0.00000000000E+00 0.  1.
        -11    1    3    3    0    0 -0.56534580029E+01  0.57790157298E+02 -0.80321344335E+02  0.99111968115E+02  0.00000000000E+00 0.  1.
         11    1    3    3    0    0  0.13980623558E+02 -0.24253084864E+02 -0.50061384174E+01  0.28438202868E+02  0.00000000000E+00 0. -1.
         21    1    1    2  502  501 -0.47769919195E+02 -0.39301168698E+02 -0.58962239134E+02  0.85458134105E+02  0.00000000000E+00 0.  1.
<scales pt_clust_5="13000.00000" pt_clust_6="13000.00000" pt_clust_7="13000.00000" pt_clust_8="13000.00000" pt_clust_9="61.85909"></scales>
<clustering>
<clus scale="   61.859">  2  9  1 -1</clus>
<clus scale="   77.717">  5  6 -1 -1</clus>
<clus scale="   85.191">  1  5  2 -1</clus>
<clus scale="   88.285">  7  8 -1 -1</clus>
<clus scale="   85.191">  1  5  2 -1</clus>
</clustering>
</event>
<event>
 9    1  0.3846604E-005  0.1161943E+03  0.7546771E-02  0.1252526E+00
         -2   -1    0    0    0  501 -0.00000000000E+00  0.00000000000E+00  0.14101172364E+03  0.14101172364E+03  0.00000000000E+00 0.  1.
          1   -1    0    0  502    0  0.00000000000E+00 -0.00000000000E+00 -0.29644543295E+03  0.29644543295E+03  0.00000000000E+00 0. -1.
        -24    2    1    2    0    0 -0.86240532737E+02 -0.90755953852E+02  0.24483502987E+02  0.15197982741E+03  0.82609644566E+02 0.  0.
         23    2    1    2    0    0  0.35075117304E+02  0.52205057294E+02 -0.19058862725E+03  0.22053157905E+03  0.91403067035E+02 0.  0.
         13    1    3    3    0    0 -0.27168639891E+02  0.20490175828E+01 -0.19497744051E+02  0.33503663825E+02  0.00000000000E+00 0. -1.
        -14    1    3    3    0    0 -0.59071892845E+02 -0.92804971435E+02  0.43981247038E+02  0.11847616359E+03  0.00000000000E+00 0.  1.
        -11    1    4    4    0    0  0.13980939322E+02 -0.16926426707E+02 -0.67080604462E+01  0.22955797968E+02  0.00000000000E+00 0.  1.
         11    1    4    4    0    0  0.21094177982E+02  0.69131484001E+02 -0.18388056680E+03  0.19757578109E+03  0.00000000000E+00 0. -1.
         21    1    1    2  502  501  0.51165415432E+02  0.38550896558E+02  0.10671414958E+02  0.64945750123E+02  0.00000000000E+00 0.  1.
<scales pt_clust_5="13000.00000" pt_clust_6="13000.00000" pt_clust_7="13000.00000" pt_clust_8="13000.00000" pt_clust_9="64.06303"></scales>
<clustering>
<clus scale="   64.063">  1  9  2 -1</clus>
<clus scale="   82.610">  5  6 -1 -1</clus>
<clus scale="   91.403">  7  8 -1 -1</clus>
<clus scale="  109.412">  1  5  2 -1</clus>
<clus scale="  116.194">  2  5  1 -1</clus>
</clustering>
</event>
<event>
 9    1  0.3846604E-005  0.1226270E+03  0.7546771E-02  0.1243090E+00
          1   -1    0    0  502    0  0.00000000000E+00  0.00000000000E+00  0.12314087215E+03  0.12314087215E+03  0.00000000000E+00 0. -1.
         -2   -1    0    0    0  501 -0.00000000000E+00 -0.00000000000E+00 -0.36936195014E+03  0.36936195014E+03  0.00000000000E+00 0.  1.
        -24    2    1    2    0    0 -0.15321115453E+02 -0.80090937585E+02 -0.49965777069E+02  0.12246248555E+03  0.76493049536E+02 0.  0.
         23    2    1    2    0    0 -0.27702505423E+02  0.82217730209E+02  0.38523842683E+02  0.13134219792E+03  0.90771705576E+02 0.  0.
         13    1    3    3    0    0 -0.35473248771E+02 -0.19649407674E+02 -0.41784033094E+02  0.58226763794E+02  0.00000000000E+00 0. -1.
        -14    1    3    3    0    0  0.20152133318E+02 -0.60441529911E+02 -0.81817439752E+01  0.64235721757E+02  0.00000000000E+00 0.  1.
        -13    1    4    4    0    0  0.22964353979E+01  0.67211743707E+02 -0.14313247105E+02  0.68757262528E+02  0.00000000000E+00 0.  1.
         13    1    4    4    0    0 -0.29998940821E+02  0.15005986502E+02  0.52837089788E+02  0.62584935396E+02  0.00000000000E+00 0. -1.
         21    1    1    2  502  501  0.43023620876E+02 -0.21267926239E+01 -0.23477914361E+03  0.23869813882E+03  0.00000000000E+00 0.  1.
<scales pt_clust_5="13000.00000" pt_clust_6="13000.00000" pt_clust_7="13000.00000" pt_clust_8="13000.00000" pt_clust_9="43.07616"></scales>
<clustering>
<clus scale="   43.076">  2  9  1 -1</clus>
<clus scale="   76.493">  5  6 -1 -1</clus>
<clus scale="   90.772">  7  8 -1 -1</clus>
<clus scale="  112.468">  2  5  1 -1</clus>
<clus scale="  122.627">  1  5  2 -1</clus>
</clustering>
</event>
<event>
 9    1  0.3846604E-005  0.1007536E+03  0.7546771E-02  0.1281521E+00
          3   -1    0    0  502    0  0.00000000000E+00  0.00000000000E+00  0.10230635396E+03  0.10230635396E+03  0.00000000000E+00 0. -1.
         -4   -1    0    0    0  501 -0.00000000000E+00 -0.00000000000E+00 -0.19634167663E+03  0.19634167663E+03  0.00000000000E+00 0.  1.
         23    2    1    2    0    0  0.30079366710E+02  0.62925865675E+01 -0.68820983051E+02  0.11481589162E+03  0.86614065330E+02 0.  0.
        -24    2    1    2    0    0 -0.57800948682E+02 -0.10784722190E+02  0.44146577540E+02  0.10900164908E+03  0.80468498752E+02 0.  0.
         13    1    4    4    0    0 -0.72678623477E+02  0.10367248103E+02  0.36782066161E+02  0.82113229962E+02  0.00000000000E+00 0. -1.
        -14    1    4    4    0    0  0.14877674795E+02 -0.21151970293E+02  0.73645113786E+01  0.26888419113E+02  0.00000000000E+00 0.  1.
        -11    1    3    3    0    0  0.34059264111E+01  0.29130621475E+02 -0.73739701360E+02  0.79358282484E+02  0.00000000000E+00 0.  1.
         11    1    3    3    0    0  0.26673440299E+02 -0.22838034908E+02  0.49187183082E+01  0.35457609136E+02  0.00000000000E+00 0. -1.
         21    1    1    2  502  501  0.27721581972E+02  0.44921356224E+01 -0.69360917152E+02  0.74830489893E+02  0.00000000000E+00 0. -1.
<scales pt_clust_5="13000.00000" pt_clust_6="13000.00000" pt_clust_7="13000.00000" pt_clust_8="13000.00000" pt_clust_9="28.08319"></scales>
<clustering>
<clus scale="   28.083">  2  9  1 -1</clus>
<clus scale="   80.468">  5  6 -1 -1</clus>
<clus scale="   86.614">  7  8 -1 -1</clus>
<clus scale="   95.522">  1  5  2 -1</clus>
<clus scale="   95.522">  1  5  2 -1</clus>
</clustering>
</event>
<event>
 9    1  0.3846604E-005  0.1068734E+03  0.7546771E-02  0.1271411E+00
         -2   -1    0    0    0  501 -0.00000000000E+00  0.00000000000E+00  0.24898626021E+03  0.24898626021E+03  0.00000000000E+00 0.  1.
          1   -1    0    0  502    0  0.00000000000E+00 -0.00000000000E+00 -0.12755113010E+03  0.12755113010E+03  0.00000000000E+00 0. -1.
         23    2    1    2    0    0 -0.13532625112E+02  0.64885762881E+01  0.15084727739E+03  0.17722113034E+03  0.91799751508E+02 0.  0.
        -24    2    1    2    0    0  0.53470858881E+02 -0.28299226385E+02 -0.82053634890E+02  0.12973254643E+03  0.80235625754E+02 0.  0.
         11    1    4    4    0    0  0.42881578178E+02 -0.43470306481E+01  0.52104584952E+00  0.43104499896E+02  0.00000000000E+00 0. -1.
        -12    1    4    4    0    0  0.10589280703E+02 -0.23952195737E+02 -0.82574680740E+02  0.86628046531E+02  0.00000000000E+00 0.  1.
        -13    1    3    3    0    0  0.15087983145E+02  0.18015408752E+02  0.25489180937E+00  0.23500365055E+02  0.00000000000E+00 0. -1.
         13    1    3    3    0    0 -0.28620608257E+02 -0.11526832464E+02  0.15059238558E+03  0.15372076528E+03  0.00000000000E+00 0.  1.
         21    1    1    2  502  501 -0.39938233769E+02  0.21810650097E+02  0.52641487606E+02  0.69583713552E+02  0.00000000000E+00 0. -1.
<scales pt_clust_5="13000.00000" pt_clust_6="13000.00000" pt_clust_7="13000.00000" pt_clust_8="13000.00000" pt_clust_9="45.50568"></scales>
<clustering>
<clus scale="   45.506">  1  9  2 -1</clus>
<clus scale="   80.236">  5  6 -1 -1</clus>
<clus scale="   91.800">  7  8 -1 -1</clus>
<clus scale="   97.121">  2  5  1 -1</clus>
<clus scale="   97.121">  2  5  1 -1</clus>
</clustering>
</event>
<event>
 9    1  0.3846604E-005  0.1821335E+03  0.7546771E-02  0.1167154E+00
          1   -1    0    0  502    0  0.00000000000E+00  0.00000000000E+00  0.38088865630E+03  0.38088865630E+03  0.00000000000E+00 0. -1.
         -2   -1    0    0    0  501 -0.00000000000E+00 -0.00000000000E+00 -0.20750350502E+03  0.20750350502E+03  0.00000000000E+00 0.  1.
         23    2    1    2    0    0 -0.15062690722E+03  0.15859924584E+02 -0.92634495752E+02  0.19976974744E+03  0.91579472586E+02 0.  0.
        -24    2    1    2    0    0  0.18018809790E+03 -0.73857542323E+02  0.23836254956E+03  0.31789404124E+03  0.79480999239E+02 0.  0.
         11    1    4    4    0    0  0.37754566510E+02 -0.48239174418E+02  0.43327281215E+02  0.75031183773E+02  0.00000000000E+00 0. -1.
        -12    1    4    4    0    0  0.14243353139E+03 -0.25618367905E+02  0.19503526834E+03  0.24286285746E+03  0.00000000000E+00 0.  1.
        -13    1    3    3    0    0 -0.12729661686E+03 -0.14375683069E+02 -0.97882552071E+02  0.16122060330E+03  0.00000000000E+00 0.  1.
         13    1    3    3    0    0 -0.23330290367E+02  0.30235607652E+02  0.52480563195E+01  0.38549144139E+02  0.00000000000E+00 0. -1.
         21    1    1    2  502  501 -0.29561190677E+02  0.57997617739E+02  0.27657097477E+02  0.70728372655E+02  0.00000000000E+00 0.  1.
<scales pt_clust_5="13000.00000" pt_clust_6="13000.00000" pt_clust_7="13000.00000" pt_clust_8="13000.00000" pt_clust_9="65.09676"></scales>
<clustering>
<clus scale="   65.097">  1  9  2 -1</clus>
<clus scale="   79.481">  5  6 -1 -1</clus>
<clus scale="   91.579">  7  8 -1 -1</clus>
<clus scale="  176.361">  1  5  2 -1</clus>
<clus scale="   65.097">  1  5  2 -1</clus>
</clustering>
</event>
<event>
 9    1  0.3846604E-005  0.4498778E+03  0.7546771E-02  0.1027895E+00
          1   -1    0    0  502    0  0.00000000000E+00  0.00000000000E+00  0.86686316245E+03  0.86686316245E+03  0.00000000000E+00 0. -1.
         -2   -1    0    0    0  501 -0.00000000000E+00 -0.00000000000E+00 -0.32768759896E+03  0.32768759896E+03  0.00000000000E+00 0.  1.
        -24    2    1    2    0    0  0.37670852078E+03 -0.20726576374E+03 -0.11978169769E+02  0.43779565348E+03  0.81566851175E+02 0.  0.
         23    2    1    2    0    0 -0.39981589746E+03  0.19414181800E+03  0.56672108816E+03  0.72595687182E+03  0.91086720294E+02 0.  0.
         11    1    3    3    0    0  0.72496360252E+02 -0.78940486800E+02 -0.97064774550E+01  0.10761755624E+03  0.00000000000E+00 0. -1.
        -12    1    3    3    0    0  0.30421216053E+03 -0.12832527694E+03 -0.22716923137E+01  0.33017809725E+03  0.00000000000E+00 0.  1.
        -11    1    4    4    0    0 -0.19338989452E+03  0.13880140283E+03  0.26504176582E+03  0.35624797313E+03  0.00000000000E+00 0. -1.
         11    1    4    4    0    0 -0.20642600294E+03  0.55340415173E+02  0.30167932234E+03  0.36970889868E+03  0.00000000000E+00 0.  1.
         21    1    1    2  502  501  0.23107376676E+02  0.13123945740E+02 -0.15567354903E+02  0.30798236107E+02  0.00000000000E+00 0.  1.
<scales pt_clust_5="13000.00000" pt_clust_6="13000.00000" pt_clust_7="13000.00000" pt_clust_8="13000.00000" pt_clust_9="26.57421"></scales>
<clustering>
<clus scale="   26.574">  2  9  1 -1</clus>
<clus scale="   81.567">  5  6 -1 -1</clus>
<clus scale="   91.087">  7  8 -1 -1</clus>
<clus scale="  448.047">  2  5  1 -1</clus>
<clus scale="  449.878">  1  5  2 -1</clus>
</clustering>
</event>
<event>
 9    1  0.3846604E-005  0.1204334E+03  0.7546771E-02  0.1245414E+00
         -2   -1    0    0    0  501 -0.00000000000E+00  0.00000000000E+00  0.63592277823E+02  0.63592277823E+02  0.00000000000E+00 0.  1.
          1   -1    0    0  502    0  0.00000000000E+00 -0.00000000000E+00 -0.12591834261E+04  0.12591834261E+04  0.00000000000E+00 0. -1.
         23    2    1    2    0    0 -0.28964846510E+02  0.75007654397E+02 -0.91384123739E+01  0.12324671225E+03  0.92957683645E+02 0.  0.
        -24    2    1    2    0    0 -0.25881324176E+02 -0.34807520538E+02 -0.90933241617E+03  0.91418739847E+03  0.83497005903E+02 0.  0.
         13    1    4    4    0    0  0.12165658875E+02 -0.42962429114E+02 -0.26959374054E+03  0.27326646064E+03  0.00000000000E+00 0. -1.
        -14    1    4    4    0    0 -0.38046983051E+02  0.81549085760E+01 -0.63973867564E+03  0.64092093784E+03  0.00000000000E+00 0.  1.
        -13    1    3    3    0    0 -0.55269941550E+02  0.69902639406E+02  0.10913425888E+02  0.89778885600E+02  0.00000000000E+00 0.  1.
         13    1    3    3    0    0  0.26305095040E+02  0.51050149912E+01 -0.20051838262E+02  0.33467826652E+02  0.00000000000E+00 0. -1.
         21    1    1    2  502  501  0.54846170686E+02 -0.40200133859E+02 -0.27712031969E+03  0.28534159315E+03  0.00000000000E+00 0. -1.
<scales pt_clust_5="13000.00000" pt_clust_6="13000.00000" pt_clust_7="13000.00000" pt_clust_8="13000.00000" pt_clust_9="68.00113"></scales>
<clustering>
<clus scale="   68.001">  2  9  1 -1</clus>
<clus scale="   83.497">  5  6 -1 -1</clus>
<clus scale="   92.958">  7  8 -1 -1</clus>
<clus scale="  113.291">  2  5  1 -1</clus>
<clus scale="   68.001">  2  5  1 -1</clus>
</clustering>
</event>
<event>
 9    1  0.3846604E-005  0.1188390E+03  0.7546771E-02  0.1249050E+00
          1   -1    0    0  502    0  0.00000000000E+00  0.00000000000E+00  0.38447951283E+03  0.38447951283E+03  0.00000000000E+00 0. -1.
         -2   -1    0    0    0  501 -0.00000000000E+00 -0.00000000000E+00 -0.11376618415E+03  0.11376618415E+03  0.00000000000E+00 0.  1.
        -24    2    1    2    0    0 -0.52631613726E+02 -0.37132568924E+02 -0.17087971040E+01  0.10294751536E+03  0.80289205334E+02 0.  0.
         23    2    1    2    0    0  0.73953550480E+02  0.22655110645E+02  0.31957489143E+03  0.34156174061E+03  0.92487457279E+02 0.  0.
         13    1    3    3    0    0 -0.95692688481E+01  0.23476126462E+02 -0.11716344009E+02  0.27927981253E+02  0.00000000000E+00 0. -1.
        -14    1    3    3    0    0 -0.43062344878E+02 -0.60608695385E+02  0.10007546905E+02  0.75019534108E+02  0.00000000000E+00 0.  1.
        -13    1    4    4    0    0  0.85396146069E+02  0.39458750650E+02  0.29517331420E+03  0.30980119461E+03  0.00000000000E+00 0. -1.
         13    1    4    4    0    0 -0.11442595589E+02 -0.16803640006E+02  0.24401577224E+02  0.31760546001E+02  0.00000000000E+00 0.  1.
         21    1    1    2  502  501 -0.21321936754E+02  0.14477458279E+02 -0.47152765638E+02  0.53736441011E+02  0.00000000000E+00 0.  1.
<scales pt_clust_5="13000.00000" pt_clust_6="13000.00000" pt_clust_7="13000.00000" pt_clust_8="13000.00000" pt_clust_9="25.77250"></scales>
<clustering>
<clus scale="   25.773">  2  9  1 -1</clus>
<clus scale="   80.289">  5  6 -1 -1</clus>
<clus scale="   92.487">  7  8 -1 -1</clus>
<clus scale="  109.614">  2  5  1 -1</clus>
<clus scale="  118.839">  1  5  2 -1</clus>
</clustering>
</event>
<event>
 9    1  0.3846604E-005  0.2561883E+03  0.7546771E-02  0.1109993E+00
         -2   -1    0    0    0  501 -0.00000000000E+00  0.00000000000E+00  0.18023656640E+03  0.18023656640E+03  0.00000000000E+00 0.  1.
          1   -1    0    0  502    0  0.00000000000E+00 -0.00000000000E+00 -0.74582146956E+03  0.74582146956E+03  0.00000000000E+00 0. -1.
        -24    2    1    2    0    0 -0.75548151338E+02 -0.22930875679E+03 -0.41928351434E+02  0.25832027470E+03  0.81739516474E+02 0.  0.
         23    2    1    2    0    0  0.10111995045E+03  0.21640726228E+03 -0.56336075248E+03  0.61878074922E+03  0.91961571392E+02 0.  0.
         13    1    3    3    0    0 -0.70690029022E+01 -0.25220855925E+02  0.21514530843E+02  0.33895979304E+02  0.00000000000E+00 0. -1.
        -14    1    3    3    0    0 -0.68479148435E+02 -0.20408790087E+03 -0.63442882277E+02  0.22442429539E+03  0.00000000000E+00 0.  1.
        -13    1    4    4    0    0  0.10133138096E+03  0.11715805208E+03 -0.30666085667E+03  0.34356213259E+03  0.00000000000E+00 0. -1.
         13    1    4    4    0    0 -0.21143050417E+00  0.99249210204E+02 -0.25669989581E+03  0.27521861663E+03  0.00000000000E+00 0.  1.
         21    1    1    2  502  501 -0.25571799114E+02  0.12901494511E+02  0.39704200759E+02  0.48957012046E+02  0.00000000000E+00 0. -1.
<scales pt_clust_5="13000.00000" pt_clust_6="13000.00000" pt_clust_7="13000.00000" pt_clust_8="13000.00000" pt_clust_9="28.64202"></scales>
<clustering>
<clus scale="   28.642">  1  9  2 -1</clus>
<clus scale="   81.740">  5  6 -1 -1</clus>
<clus scale="   91.962">  7  8 -1 -1</clus>
<clus scale="  252.699">  1  5  2 -1</clus>
<clus scale="  256.188">  2  5  1 -1</clus>
</clustering>
</event>
<event>
 9    1  0.3846604E-005  0.1502291E+03  0.7546771E-02  0.1201583E+00
         -2   -1    0    0    0  501 -0.00000000000E+00  0.00000000000E+00  0.13729371718E+03  0.13729371718E+03  0.00000000000E+00 0.  1.
          1   -1    0    0  502    0  0.00000000000E+00 -0.00000000000E+00 -0.33952974811E+03  0.33952974811E+03  0.00000000000E+00 0. -1.
        -24    2    1    2    0    0 -0.44099320595E+02 -0.13134165565E+03  0.16130143194E+02  0.16206509439E+03  0.82519892841E+02 0.  0.
         23    2    1    2    0    0  0.54741992095E+02  0.10247761029E+03 -0.23690330794E+03  0.27884145424E+03  0.90172240614E+02 0.  0.
         11    1    3    3    0    0 -0.28580138248E+02 -0.14032364253E+03  0.16332659195E+02  0.14413294110E+03  0.00000000000E+00 0. -1.
        -12    1    3    3    0    0 -0.15519182347E+02  0.89819868736E+01 -0.20251600085E+00  0.17932153291E+02  0.00000000000E+00 0.  1.
        -13    1    4    4    0    0  0.74657089515E+02  0.47806936470E+02 -0.15061410236E+03  0.17476782318E+03  0.00000000000E+00 0. -1.
         13    1    4    4    0    0 -0.19915097420E+02  0.54670673822E+02 -0.86289205582E+02  0.10407363106E+03  0.00000000000E+00 0.  1.
         21    1    1    2  502  501 -0.10642671500E+02  0.28864045362E+02  0.18537133824E+02  0.35916916651E+02  0.00000000000E+00 0.  1.
<scales pt_clust_5="13000.00000" pt_clust_6="13000.00000" pt_clust_7="13000.00000" pt_clust_8="13000.00000" pt_clust_9="30.76361"></scales>
<clustering>
<clus scale="   30.764">  1  9  2 -1</clus>
<clus scale="   82.520">  5  6 -1 -1</clus>
<clus scale="   90.172">  7  8 -1 -1</clus>
<clus scale="  145.764">  1  5  2 -1</clus>
<clus scale="  150.229">  2  5  1 -1</clus>
</clustering>
</event>
<event>
 9    1  0.3846604E-005  0.1015766E+03  0.7546771E-02  0.1281968E+00
          3   -1    0    0  502    0  0.00000000000E+00  0.00000000000E+00  0.12849499957E+03  0.12849499957E+03  0.00000000000E+00 0. -1.
         -4   -1    0    0    0  501 -0.00000000000E+00 -0.00000000000E+00 -0.25614835163E+03  0.25614835163E+03  0.00000000000E+00 0.  1.
         23    2    1    2    0    0  0.12360349739E+01  0.61340678439E+01 -0.17853880007E+03  0.20060469968E+03  0.91252330557E+02 0.  0.
        -24    2    1    2    0    0 -0.49348116803E+02  0.56040104775E+01  0.82066588136E+02  0.12551670350E+03  0.80949838813E+02 0.  0.
         11    1    4    4    0    0 -0.37175025162E+02 -0.11208102377E+01  0.97731608292E+02  0.10456914445E+03  0.00000000000E+00 0. -1.
        -12    1    4    4    0    0 -0.12173091640E+02  0.67248207152E+01 -0.15665020156E+02  0.20947559051E+02  0.00000000000E+00 0.  1.
        -11    1    3    3    0    0  0.33445878849E+02 -0.27188230590E+02 -0.65228721559E+02  0.78183200311E+02  0.00000000000E+00 0.  1.
         11    1    3    3    0    0 -0.32209843875E+02  0.33322298434E+02 -0.11331007851E+03  0.12242149937E+03  0.00000000000E+00 0. -1.
         21    1    1    2  502  501  0.48112081829E+02 -0.11738078321E+02 -0.31181140121E+02  0.58521948018E+02  0.00000000000E+00 0. -1.
<scales pt_clust_5="13000.00000" pt_clust_6="13000.00000" pt_clust_7="13000.00000" pt_clust_8="13000.00000" pt_clust_9="49.52328"></scales>
<clustering>
<clus scale="   49.523">  2  9  1 -1</clus>
<clus scale="   80.950">  5  6 -1 -1</clus>
<clus scale="   91.252">  7  8 -1 -1</clus>
<clus scale="   92.432">  1  5  2 -1</clus>
<clus scale="   92.432">  1  5  2 -1</clus>
</clustering>
</event>
<event>
 9    1  0.3846604E-005  0.9202621E+02  0.7546771E-02  0.1301608E+00
         -2   -1    0    0    0  501 -0.00000000000E+00  0.00000000000E+00  0.31268835860E+03  0.31268835860E+03  0.00000000000E+00 0.  1.
          1   -1    0    0  502    0  0.00000000000E+00 -0.00000000000E+00 -0.14253763848E+03  0.14253763848E+03  0.00000000000E+00 0. -1.
        -24    2    1    2    0    0 -0.27123304016E+02 -0.94652355533E+02  0.13710844107E+03  0.18740442533E+03  0.81406093088E+02 0.  0.
         23    2    1    2    0    0  0.13618089495E+02  0.15348808298E+02 -0.85782798040E+02  0.12432647647E+03  0.87620465842E+02 0.  0.
         13    1    3    3    0    0 -0.15745473630E+00 -0.60544726291E+02  0.22101394819E+02  0.64452775941E+02  0.00000000000E+00 0. -1.
        -14    1    3    3    0    0 -0.26965849280E+02 -0.34107629243E+02  0.11500704625E+03  0.12295164939E+03  0.00000000000E+00 0.  1.
        -11    1    4    4    0    0  0.27013986179E+02 -0.19467025082E+02 -0.79901118919E+02  0.86561592634E+02  0.00000000000E+00 0. -1.
         11    1    4    4    0    0 -0.13395896684E+02  0.34815833380E+02 -0.58816791212E+01  0.37764883837E+02  0.00000000000E+00 0.  1.
         21    1    1    2  502  501  0.13505214522E+02  0.79303547235E+02  0.11882507709E+03  0.14349509528E+03  0.00000000000E+00 0.  1.
<scales pt_clust_5="13000.00000" pt_clust_6="13000.00000" pt_clust_7="13000.00000" pt_clust_8="13000.00000" pt_clust_9="80.44528"></scales>
<clustering>
<clus scale="   80.445">  1  9  2 -1</clus>
<clus scale="   81.406">  5  6 -1 -1</clus>
<clus scale="   86.130">  1  5  2 -1</clus>
<clus scale="   87.620">  7  8 -1 -1</clus>
<clus scale="   92.026">  2  5  1 -1</clus>
</clustering>
</event>
<event>
 9    1  0.3846604E-005  0.1224488E+03  0.7546771E-02  0.1242531E+00
         -2   -1    0    0    0  501 -0.00000000000E+00  0.00000000000E+00  0.14895238184E+03  0.14895238184E+03  0.00000000000E+00 0.  1.
          1   -1    0    0  502    0  0.00000000000E+00 -0.00000000000E+00 -0.58369905593E+03  0.58369905593E+03  0.00000000000E+00 0. -1.
        -24    2    1    2    0    0 -0.24418306299E+02 -0.44307263282E+02  0.53386433816E+02  0.10891337820E+03  0.80328235215E+02 0.  0.
         23    2    1    2    0    0  0.17618188039E+02  0.82197242233E+02 -0.54280936965E+03  0.55686963868E+03  0.91624208195E+02 0.  0.
         11    1    3    3    0    0 -0.52896516353E+02 -0.32292922116E+02  0.45871156414E+02  0.77104067674E+02  0.00000000000E+00 0. -1.
        -12    1    3    3    0    0  0.28478210055E+02 -0.12014341166E+02  0.75152774015E+01  0.31809310524E+02  0.00000000000E+00 0.  1.
        -13    1    4    4    0    0  0.49976789745E+02  0.42599138249E+02 -0.39601886820E+03  0.40142659362E+03  0.00000000000E+00 0. -1.
         13    1    4    4    0    0 -0.32358601707E+02  0.39598103984E+02 -0.14679050145E+03  0.15544304507E+03  0.00000000000E+00 0.  1.
         21    1    1    2  502  501  0.68001182602E+01 -0.37889978951E+02  0.54676261742E+02  0.66868420882E+02  0.00000000000E+00 0.  1.
<scales pt_clust_5="13000.00000" pt_clust_6="13000.00000" pt_clust_7="13000.00000" pt_clust_8="13000.00000" pt_clust_9="38.49535"></scales>
<clustering>
<clus scale="   38.495">  1  9  2 -1</clus>
<clus scale="   80.328">  5  6 -1 -1</clus>
<clus scale="   91.624">  7  8 -1 -1</clus>
<clus scale="  114.242">  1  5  2 -1</clus>
<clus scale="  122.449">  2  5  1 -1</clus>
</clustering>
</event>
<event>
 9    1  0.3846604E-005  0.1135494E+03  0.7546771E-02  0.1258987E+00
         -2   -1    0    0    0  501 -0.00000000000E+00  0.00000000000E+00  0.11620673278E+03  0.11620673278E+03  0.00000000000E+00 0.  1.
          1   -1    0    0  502    0  0.00000000000E+00 -0.00000000000E+00 -0.12655476446E+03  0.12655476446E+03  0.00000000000E+00 0. -1.
        -24    2    1    2    0    0  0.37822158637E+02  0.57328431541E+02  0.20545490079E+02  0.10670779469E+03  0.79040315904E+02 0.  0.
         23    2    1    2    0    0 -0.18110922866E+02 -0.61547660801E+02 -0.27224651734E+02  0.11556479534E+03  0.92184164492E+02 0.  0.
         11    1    3    3    0    0 -0.15315981271E+02  0.46855325886E+02  0.18030495616E+02  0.52489042841E+02  0.00000000000E+00 0. -1.
        -12    1    3    3    0    0  0.53138139909E+02  0.10473105655E+02  0.25149944634E+01  0.54218751850E+02  0.00000000000E+00 0.  1.
        -13    1    4    4    0    0 -0.34607918684E+02 -0.19028871441E+01 -0.39419789360E+02  0.52490463975E+02  0.00000000000E+00 0. -1.
         13    1    4    4    0    0  0.16496995818E+02 -0.59644773656E+02  0.12195137627E+02  0.63074331366E+02  0.00000000000E+00 0.  1.
         21    1    1    2  502  501 -0.19711235771E+02  0.42192292594E+01 -0.36688700323E+01  0.20488907206E+02  0.00000000000E+00 0. -1.
<scales pt_clust_5="13000.00000" pt_clust_6="13000.00000" pt_clust_7="13000.00000" pt_clust_8="13000.00000" pt_clust_9="20.15775"></scales>
<clustering>
<clus scale="   20.158">  2  9  1 -1</clus>
<clus scale="   79.040">  5  6 -1 -1</clus>
<clus scale="   92.184">  7  8 -1 -1</clus>
<clus scale="  103.164">  1  5  2 -1</clus>
<clus scale="   20.158">  2  5  1 -1</clus>
</clustering>
</event>
<event>
 9    1  0.3846604E-005  0.1054303E+03  0.7546771E-02  0.1276742E+00
          1   -1    0    0  502    0  0.00000000000E+00  0.00000000000E+00  0.51107495151E+02  0.51107495151E+02  0.00000000000E+00 0. -1.
         -2   -1    0    0    0  501 -0.00000000000E+00 -0.00000000000E+00 -0.39486127232E+03  0.39486127232E+03  0.00000000000E+00 0.  1.
        -24    2    1    2    0    0  0.32910986879E+02  0.16006202732E+02 -0.13414750071E+03  0.15836336713E+03  0.75789659698E+02 0.  0.
         23    2    1    2    0    0 -0.45366659321E+02 -0.37889604899E+02 -0.40843826314E+02  0.11697482968E+03  0.92310003216E+02 0.  0.
         11    1    3    3    0    0 -0.15671927863E+02 -0.13719865957E+02 -0.67774857895E+02  0.70903282064E+02  0.00000000000E+00 0. -1.
        -12    1    3    3    0    0  0.48582914742E+02  0.29726068690E+02 -0.66372642815E+02  0.87460085061E+02  0.00000000000E+00 0.  1.
        -13    1    4    4    0    0 -0.20837189640E+02  0.15167599683E+02 -0.51471447974E+02  0.57563482424E+02  0.00000000000E+00 0.  1.
         13    1    4    4    0    0 -0.24529469681E+02 -0.53057204581E+02  0.10627621660E+02  0.59411347258E+02  0.00000000000E+00 0. -1.
         21    1    1    2  502  501  0.12455672442E+02  0.21883402167E+02 -0.16876245015E+03  0.17063057067E+03  0.00000000000E+00 0.  1.
<scales pt_clust_5="13000.00000" pt_clust_6="13000.00000" pt_clust_7="13000.00000" pt_clust_8="13000.00000" pt_clust_9="25.17989"></scales>
<clustering>
<clus scale="   25.180">  2  9  1 -1</clus>
<clus scale="   75.790">  5  6 -1 -1</clus>
<clus scale="   91.315">  2  5  1 -1</clus>
<clus scale="   92.310">  7  8 -1 -1</clus>
<clus scale="  105.430">  1  5  2 -1</clus>
</clustering>
</event>
<event>
 9    1  0.3846604E-005  0.1048066E+03  0.7546771E-02  0.1275819E+00
          1   -1    0    0  502    0  0.00000000000E+00  0.00000000000E+00  0.25974601462E+02  0.25974601462E+02  0.00000000000E+00 0. -1.
         -2   -1    0    0    0  501 -0.00000000000E+00 -0.00000000000E+00 -0.76980262803E+03  0.76980262803E+03  0.00000000000E+00 0.  1.
        -24    2    1    2    0    0  0.40373962346E+02 -0.40005385395E+02 -0.51434701116E+03  0.52371110688E+03  0.80560461006E+02 0.  0.
         23    2    1    2    0    0 -0.32322019587E+02 -0.17349779763E+01 -0.12130924760E+03  0.15584124117E+03  0.92319206007E+02 0.  0.
         11    1    3    3    0    0  0.44296768151E+02 -0.15882300738E+01 -0.12837110325E+03  0.13580819671E+03  0.00000000000E+00 0. -1.
        -12    1    3    3    0    0 -0.39228058046E+01 -0.38417155322E+02 -0.38597590791E+03  0.38790291016E+03  0.00000000000E+00 0.  1.
        -11    1    4    4    0    0  0.52578545621E+01 -0.41988735286E+02 -0.60131178565E+02  0.73528617294E+02  0.00000000000E+00 0.  1.
         11    1    4    4    0    0 -0.37579874149E+02  0.40253757310E+02 -0.61178069032E+02  0.82312623875E+02  0.00000000000E+00 0. -1.
         21    1    1    2  502  501 -0.80519427590E+01  0.41740363372E+02 -0.10817176781E+03  0.11622488144E+03  0.00000000000E+00 0.  1.
<scales pt_clust_5="13000.00000" pt_clust_6="13000.00000" pt_clust_7="13000.00000" pt_clust_8="13000.00000" pt_clust_9="42.50990"></scales>
<clustering>
<clus scale="   42.510">  1  9  2 -1</clus>
<clus scale="   80.560">  5  6 -1 -1</clus>
<clus scale="   92.319">  7  8 -1 -1</clus>
<clus scale="   94.613">  2  5  1 -1</clus>
<clus scale="   42.510">  1  5  2 -1</clus>
</clustering>
</event>
<event>
 9    1  0.3846604E-005  0.9033326E+02  0.7546771E-02  0.1308866E+00
         -2   -1    0    0    0  501 -0.00000000000E+00  0.00000000000E+00  0.14438137275E+03  0.14438137275E+03  0.00000000000E+00 0.  1.
          1   -1    0    0  502    0  0.00000000000E+00 -0.00000000000E+00 -0.22582254035E+03  0.22582254035E+03  0.00000000000E+00 0. -1.
         23    2    1    2    0    0 -0.55868324913E+01 -0.23034657966E+02  0.71455927003E+02  0.11723564692E+03  0.89869011565E+02 0.  0.
        -24    2    1    2    0    0 -0.13332099828E+00 -0.11940960828E+02 -0.18721414587E+03  0.20363598392E+03  0.79220409069E+02 0.  0.
         13    1    4    4    0    0 -0.22370402324E+01  0.33859236319E+02 -0.70560721809E+02  0.78296026051E+02  0.00000000000E+00 0. -1.
        -14    1    4    4    0    0  0.21037192341E+01 -0.45800197148E+02 -0.11665342406E+03  0.12533995786E+03  0.00000000000E+00 0.  1.
        -11    1    3    3    0    0 -0.81032903007E+01 -0.56629492745E+02  0.56405452029E+02  0.80337648589E+02  0.00000000000E+00 0.  1.
         11    1    3    3    0    0  0.25164578094E+01  0.33594834779E+02  0.15050474974E+02  0.36897998329E+02  0.00000000000E+00 0. -1.
         21    1    1    2  502  501  0.57201534895E+01  0.34975618794E+02  0.34317051265E+02  0.49332282265E+02  0.00000000000E+00 0. -1.
<scales pt_clust_5="13000.00000" pt_clust_6="13000.00000" pt_clust_7="13000.00000" pt_clust_8="13000.00000" pt_clust_9="35.44029"></scales>
<clustering>
<clus scale="   35.440">  1  9  2 -1</clus>
<clus scale="   79.220">  5  6 -1 -1</clus>
<clus scale="   79.747">  2  5  1 -1</clus>
<clus scale="   89.869">  7  8 -1 -1</clus>
<clus scale="   79.747">  2  5  1 -1</clus>
</clustering>
</event>
<event>
 9    1  0.3846604E-005  0.9495362E+02  0.7546771E-02  0.1297879E+00
         -2   -1    0    0    0  501 -0.00000000000E+00  0.00000000000E+00  0.85110015056E+02  0.85110015056E+02  0.00000000000E+00 0.  1.
          1   -1    0    0  502    0  0.00000000000E+00 -0.00000000000E+00 -0.55715929125E+03  0.55715929125E+03  0.00000000000E+00 0. -1.
        -24    2    1    2    0    0  0.20696321254E+02 -0.19321366078E+01 -0.34570950641E+02  0.89523108384E+02  0.79919743751E+02 0.  0.
         23    2    1    2    0    0  0.15407061473E+02 -0.28357051156E+02 -0.47975004912E+03  0.48943910706E+03  0.91373026604E+02 0.  0.
         11    1    3    3    0    0 -0.76291671200E+00 -0.25146450630E+02 -0.48762950793E+02  0.54870314299E+02  0.00000000000E+00 0. -1.
        -12    1    3    3    0    0  0.21459237966E+02  0.23214314022E+02  0.14192000152E+02  0.34652794085E+02  0.00000000000E+00 0.  1.
        -13    1    4    4    0    0 -0.30665347858E+02 -0.38571290503E+02 -0.26824363146E+03  0.27273201834E+03  0.00000000000E+00 0.  1.
         13    1    4    4    0    0  0.46072409330E+02  0.10214239347E+02 -0.21150641766E+03  0.21670708872E+03  0.00000000000E+00 0. -1.
         21    1    1    2  502  501 -0.36103382727E+02  0.30289187763E+02  0.42271723571E+02  0.63307090862E+02  0.00000000000E+00 0. -1.
<scales pt_clust_5="13000.00000" pt_clust_6="13000.00000" pt_clust_7="13000.00000" pt_clust_8="13000.00000" pt_clust_9="47.12631"></scales>
<clustering>
<clus scale="   47.126">  1  9  2 -1</clus>
<clus scale="   79.920">  5  6 -1 -1</clus>
<clus scale="   83.990">  1  5  2 -1</clus>
<clus scale="   91.373">  7  8 -1 -1</clus>
<clus scale="   94.954">  2  5  1 -1</clus>
</clustering>
</event>
<event>
 9    1  0.3846604E-005  0.1262551E+03  0.7546771E-02  0.1235781E+00
         -2   -1    0    0    0  501 -0.00000000000E+00  0.00000000000E+00  0.11039125783E+03  0.11039125783E+03  0.00000000000E+00 0.  1.
          1   -1    0    0  502    0  0.00000000000E+00 -0.00000000000E+00 -0.25558683296E+03  0.25558683296E+03  0.00000000000E+00 0. -1.
        -24    2    1    2    0    0  0.42739476896E+02 -0.57982154749E+02 -0.57995019984E+01  0.10895731094E+03  0.81544271595E+02 0.  0.
         23    2    1    2    0    0 -0.60428697724E+02  0.72062965541E+02 -0.17273121603E+03  0.21674163490E+03  0.91083284934E+02 0.  0.
         13    1    3    3    0    0  0.25655151615E+02 -0.32539184729E+02 -0.43696418210E+02  0.60219285213E+02  0.00000000000E+00 0. -1.
        -14    1    3    3    0    0  0.17084325281E+02 -0.25442970020E+02  0.37896916211E+02  0.48738025730E+02  0.00000000000E+00 0.  1.
        -13    1    4    4    0    0  0.87928832495E+01  0.26343953277E+02 -0.31419910470E+01  0.27949790300E+02  0.00000000000E+00 0.  1.
         13    1    4    4    0    0 -0.69221580973E+02  0.45719012264E+02 -0.16958922499E+03  0.18879184460E+03  0.00000000000E+00 0. -1.
         21    1    1    2  502  501  0.17689220828E+02 -0.14080810792E+02  0.33335142894E+02  0.40279144949E+02  0.00000000000E+00 0.  1.
<scales pt_clust_5="13000.00000" pt_clust_6="13000.00000" pt_clust_7="13000.00000" pt_clust_8="13000.00000" pt_clust_9="22.60924"></scales>
<clustering>
<clus scale="   22.609">  1  9  2 -1</clus>
<clus scale="   81.544">  5  6 -1 -1</clus>
<clus scale="   91.083">  7  8 -1 -1</clus>
<clus scale="  119.556">  1  5  2 -1</clus>
<clus scale="  126.255">  2  5  1 -1</clus>
</clustering>
</event>
<event>
 9    1  0.3846604E-005  0.1328141E+03  0.7546771E-02  0.1226786E+00
         -2   -1    0    0    0  501 -0.00000000000E+00  0.00000000000E+00  0.13046782668E+03  0.13046782668E+03  0.00000000000E+00 0.  1.
          1   -1    0    0  502    0  0.00000000000E+00 -0.00000000000E+00 -0.31208819156E+03  0.31208819156E+03  0.00000000000E+00 0. -1.
        -24    2    1    2    0    0  0.49368707153E+01 -0.81058096948E+02 -0.95271324328E+02  0.14844111014E+03  0.79770609670E+02 0.  0.
         23    2    1    2    0    0 -0.15496122922E+02  0.10700572578E+03 -0.16048261733E+03  0.21486489576E+03  0.93391101222E+02 0.  0.
         11    1    3    3    0    0  0.34196582317E+02 -0.72878859267E+02 -0.83137410221E+02  0.11572624313E+03  0.00000000000E+00 0. -1.
        -12    1    3    3    0    0 -0.29259711602E+02 -0.81792376803E+01 -0.12133914107E+02  0.32714867012E+02  0.00000000000E+00 0.  1.
        -11    1    4    4    0    0  0.21792400400E+02  0.26872734570E+02 -0.35826523337E+01  0.34783443996E+02  0.00000000000E+00 0.  1.
         11    1    4    4    0    0 -0.37288523322E+02  0.80132991213E+02 -0.15689996500E+03  0.18008145176E+03  0.00000000000E+00 0. -1.
         21    1    1    2  502  501  0.10559252206E+02 -0.25947628835E+02  0.74133576786E+02  0.79250012343E+02  0.00000000000E+00 0.  1.
<scales pt_clust_5="13000.00000" pt_clust_6="13000.00000" pt_clust_7="13000.00000" pt_clust_8="13000.00000" pt_clust_9="28.01388"></scales>
<clustering>
<clus scale="   28.014">  1  9  2 -1</clus>
<clus scale="   79.771">  5  6 -1 -1</clus>
<clus scale="   93.391">  7  8 -1 -1</clus>
<clus scale="  123.616">  1  5  2 -1</clus>
<clus scale="  132.814">  2  5  1 -1</clus>
</clustering>
</event>
<event>
 9    1  0.3846604E-005  0.2178776E+03  0.7546771E-02  0.1135711E+00
         -4   -1    0    0    0  501 -0.00000000000E+00  0.00000000000E+00  0.50937769578E+03  0.50937769578E+03  0.00000000000E+00 0.  1.
          3   -1    0    0  502    0  0.00000000000E+00 -0.00000000000E+00 -0.22563565799E+03  0.22563565799E+03  0.00000000000E+00 0. -1.
        -24    2    1    2    0    0  0.24778178802E+03 -0.11733717349E+03  0.28831429421E+03  0.40588385296E+03  0.80328967969E+02 0.  0.
         23    2    1    2    0    0 -0.14344329694E+03  0.11896845466E+03 -0.57394163201E+02  0.21217080880E+03  0.83623498470E+02 0.  0.
         13    1    3    3    0    0  0.97165459181E+02 -0.47112167593E+02  0.60125709659E+02  0.12359524164E+03  0.00000000000E+00 0. -1.
        -14    1    3    3    0    0  0.15061632884E+03 -0.70225005896E+02  0.22818858455E+03  0.28228861133E+03  0.00000000000E+00 0.  1.
        -13    1    4    4    0    0 -0.13466221441E+03  0.67222532832E+02 -0.32035165670E+02  0.15387992965E+03  0.00000000000E+00 0. -1.
         13    1    4    4    0    0 -0.87810825321E+01  0.51745921829E+02 -0.25358997531E+02  0.58290879151E+02  0.00000000000E+00 0.  1.
         21    1    1    2  502  501 -0.10433849107E+03 -0.16312811713E+01  0.52821906778E+02  0.11695869200E+03  0.00000000000E+00 0. -1.
<scales pt_clust_5="13000.00000" pt_clust_6="13000.00000" pt_clust_7="13000.00000" pt_clust_8="13000.00000" pt_clust_9="104.35124"></scales>
<clustering>
<clus scale="   80.329">  5  6 -1 -1</clus>
<clus scale="   83.623">  7  8 -1 -1</clus>
<clus scale="  104.351">  1  9  2 -1</clus>
<clus scale="  216.635">  1  5  2 -1</clus>
<clus scale="  217.878">  2  5  1 -1</clus>
</clustering>
</event>
<event>
 9    1  0.3846604E-005  0.1256589E+03  0.7546771E-02  0.1238490E+00
          1   -1    0    0  502    0  0.00000000000E+00  0.00000000000E+00  0.60746777768E+03  0.60746777768E+03  0.00000000000E+00 0. -1.
         -2   -1    0    0    0  501 -0.00000000000E+00 -0.00000000000E+00 -0.44985619830E+02  0.44985619830E+02  0.00000000000E+00 0.  1.
        -24    2    1    2    0    0 -0.12750122931E+02  0.10624225027E+03  0.12595424248E+03  0.18056098180E+03  0.72717367746E+02 0.  0.
         23    2    1    2    0    0  0.14232857832E+02 -0.81911053382E+02  0.42964437188E+03  0.44656281217E+03  0.88949783680E+02 0.  0.
         13    1    3    3    0    0 -0.40597080144E+02  0.64106186236E+02  0.93960884768E+02  0.12077406136E+03  0.00000000000E+00 0. -1.
        -14    1    3    3    0    0  0.27846957213E+02  0.42136064034E+02  0.31993357712E+02  0.59786920442E+02  0.00000000000E+00 0.  1.
        -13    1    4    4    0    0 -0.22503421564E+02 -0.56833502657E+02  0.35037295426E+03  0.35566509259E+03  0.00000000000E+00 0. -1.
         13    1    4    4    0    0  0.36736279396E+02 -0.25077550725E+02  0.79271417614E+02  0.90897719580E+02  0.00000000000E+00 0.  1.
         21    1    1    2  502  501 -0.14827349004E+01 -0.24331196888E+02  0.68835434941E+01  0.25329603546E+02  0.00000000000E+00 0. -1.
<scales pt_clust_5="13000.00000" pt_clust_6="13000.00000" pt_clust_7="13000.00000" pt_clust_8="13000.00000" pt_clust_9="24.37633"></scales>
<clustering>
<clus scale="   24.376">  2  9  1 -1</clus>
<clus scale="   72.717">  5  6 -1 -1</clus>
<clus scale="   88.950">  7  8 -1 -1</clus>
<clus scale="  114.743">  2  5  1 -1</clus>
<clus scale="  125.659">  1  5  2 -1</clus>
</clustering>
</event>
<event>
 9    1  0.3846604E-005  0.8457878E+02  0.7546771E-02  0.1319775E+00
          1   -1    0    0  502    0  0.00000000000E+00  0.00000000000E+00  0.17379296265E+03  0.17379296265E+03  0.00000000000E+00 0. -1.
         -2   -1    0    0    0  501 -0.00000000000E+00 -0.00000000000E+00 -0.51178851820E+03  0.51178851820E+03  0.00000000000E+00 0.  1.
        -24    2    1    2    0    0 -0.38615429758E+02  0.41535638641E+02 -0.25796727182E+03  0.27612006858E+03  0.80491106647E+02 0.  0.
         23    2    1    2    0    0 -0.19541751788E+02 -0.18413089154E+02  0.15055425930E+03  0.17053627920E+03  0.75465989783E+02 0.  0.
         13    1    3    3    0    0 -0.38383728022E+02  0.49447963043E+02 -0.10014392286E+03  0.11809833577E+03  0.00000000000E+00 0. -1.
        -14    1    3    3    0    0 -0.23170173565E+00 -0.79123244022E+01 -0.15782334895E+03  0.15802173280E+03  0.00000000000E+00 0.  1.
        -11    1    4    4    0    0  0.25618026185E+02  0.61292707433E+01  0.32903458134E+02  0.42148413762E+02  0.00000000000E+00 0.  1.
         11    1    4    4    0    0 -0.45159777974E+02 -0.24542359898E+02  0.11765080117E+03  0.12838786544E+03  0.00000000000E+00 0. -1.
         21    1    1    2  502  501  0.58157181546E+02 -0.23122549486E+02 -0.23058254303E+03  0.23892513307E+03  0.00000000000E+00 0.  1.
<scales pt_clust_5="13000.00000" pt_clust_6="13000.00000" pt_clust_7="13000.00000" pt_clust_8="13000.00000" pt_clust_9="62.58522"></scales>
<clustering>
<clus scale="   62.585">  2  9  1 -1</clus>
<clus scale="   75.466">  7  8 -1 -1</clus>
<clus scale="   79.811">  1  7  2 -1</clus>
<clus scale="   80.491">  5  6 -1 -1</clus>
<clus scale="   79.811">  1  5  2 -1</clus>
</clustering>
</event>
<event>
 9    1  0.3846604E-005  0.9095448E+02  0.7546771E-02  0.1327799E+00
          1   -1    0    0  502    0  0.00000000000E+00  0.00000000000E+00  0.11706902829E+03  0.11706902829E+03  0.00000000000E+00 0. -1.
         -2   -1    0    0    0  501 -0.00000000000E+00 -0.00000000000E+00 -0.27736071053E+03  0.27736071053E+03  0.00000000000E+00 0.  1.
         23    2    1    2    0    0  0.34869962862E+02  0.29925207949E+01 -0.17289266537E+03  0.19785693490E+03  0.89613745938E+02 0.  0.
        -24    2    1    2    0    0  0.24079528895E+01  0.16320335264E+02  0.91478897531E+02  0.10721758699E+03  0.53432861486E+02 0.  0.
         11    1    4    4    0    0  0.62066583252E+00  0.35125570817E+02  0.45311903914E+02  0.57335500239E+02  0.00000000000E+00 0. -1.
        -12    1    4    4    0    0  0.17872870569E+01 -0.18805235553E+02  0.46166993617E+02  0.49882086753E+02  0.00000000000E+00 0.  1.
        -13    1    3    3    0    0 -0.26066767990E+02  0.18313585140E+02 -0.42493001601E+02  0.53108558437E+02  0.00000000000E+00 0. -1.
         13    1    3    3    0    0  0.60936730852E+02 -0.15321064345E+02 -0.13039966377E+03  0.14474837647E+03  0.00000000000E+00 0.  1.
         21    1    1    2  502  501 -0.37277915751E+02 -0.19312856059E+02 -0.78877914405E+02  0.89355216931E+02  0.00000000000E+00 0.  1.
<scales pt_clust_5="13000.00000" pt_clust_6="13000.00000" pt_clust_7="13000.00000" pt_clust_8="13000.00000" pt_clust_9="41.98368"></scales>
<clustering>
<clus scale="   41.984">  2  9  1 -1</clus>
<clus scale="   53.433">  5  6 -1 -1</clus>
<clus scale="   55.652">  1  5  2 -1</clus>
<clus scale="   89.614">  7  8 -1 -1</clus>
<clus scale="   55.652">  1  5  2 -1</clus>
</clustering>
</event>
<event>
 9    1  0.3846604E-005  0.1791126E+03  0.7546771E-02  0.1169901E+00
          1   -1    0    0  502    0  0.00000000000E+00  0.00000000000E+00  0.10437344726E+03  0.10437344726E+03  0.00000000000E+00 0. -1.
         -2   -1    0    0    0  501 -0.00000000000E+00 -0.00000000000E+00 -0.56136107022E+03  0.56136107022E+03  0.00000000000E+00 0.  1.
         23    2    1    2    0    0 -0.13328089528E+03  0.20055273911E+02 -0.30861346645E+03  0.34877068509E+03  0.90734271609E+02 0.  0.
        -24    2    1    2    0    0  0.15881417527E+03 -0.21133717403E+02 -0.13589855720E+02  0.17977812188E+03  0.80417116644E+02 0.  0.
         11    1    4    4    0    0  0.91378632433E+02  0.23949065280E+01  0.29877099443E+02  0.96168763711E+02  0.00000000000E+00 0. -1.
        -12    1    4    4    0    0  0.67435542839E+02 -0.23528623931E+02 -0.43466955163E+02  0.83609358168E+02  0.00000000000E+00 0.  1.
        -11    1    3    3    0    0 -0.83000758474E+02  0.40692112746E+02 -0.25966260450E+03  0.27562590975E+03  0.00000000000E+00 0.  1.
         11    1    3    3    0    0 -0.50280136804E+02 -0.20636838836E+02 -0.48950861946E+02  0.73144775339E+02  0.00000000000E+00 0. -1.
         21    1    1    2  502  501 -0.25533279995E+02  0.10784434922E+01 -0.13478430079E+03  0.13718571051E+03  0.00000000000E+00 0.  1.
<scales pt_clust_5="13000.00000" pt_clust_6="13000.00000" pt_clust_7="13000.00000" pt_clust_8="13000.00000" pt_clust_9="25.55604"></scales>
<clustering>
<clus scale="   25.556">  2  9  1 -1</clus>
<clus scale="   80.417">  5  6 -1 -1</clus>
<clus scale="   90.734">  7  8 -1 -1</clus>
<clus scale="  174.114">  1  5  2 -1</clus>
<clus scale="  174.114">  1  5  2 -1</clus>
</clustering>
</event>
<event>
 9    1  0.3846604E-005  0.9027078E+02  0.7546771E-02  0.1307894E+00
          1   -1    0    0  502    0  0.00000000000E+00  0.00000000000E+00  0.13921963752E+03  0.13921963752E+03  0.00000000000E+00 0. -1.
         -2   -1    0    0    0  501 -0.00000000000E+00 -0.00000000000E+00 -0.24342290499E+03  0.24342290499E+03  0.00000000000E+00 0.  1.
         23    2    1    2    0    0 -0.20507393231E+02 -0.28851130785E+02 -0.17404458832E+03  0.19909662890E+03  0.89972262344E+02 0.  0.
        -24    2    1    2    0    0  0.62703411850E+01 -0.88790897459E+00  0.10668435766E+03  0.13410389203E+03  0.81007383163E+02 0.  0.
         13    1    4    4    0    0 -0.37079595286E+02  0.51135546241E+01  0.46606113475E+02  0.59776037346E+02  0.00000000000E+00 0. -1.
        -14    1    4    4    0    0  0.43349936471E+02 -0.60014635987E+01  0.60078244187E+02  0.74327854685E+02  0.00000000000E+00 0.  1.
        -13    1    3    3    0    0  0.27201140359E+02  0.15422559238E+02 -0.48999920560E+02  0.58127012526E+02  0.00000000000E+00 0.  1.
         13    1    3    3    0    0 -0.47708533590E+02 -0.44273690024E+02 -0.12504466775E+03  0.14096961637E+03  0.00000000000E+00 0. -1.
         21    1    1    2  502  501  0.14237052046E+02  0.29739039760E+02 -0.36843036818E+02  0.49442021589E+02  0.00000000000E+00 0.  1.
<scales pt_clust_5="13000.00000" pt_clust_6="13000.00000" pt_clust_7="13000.00000" pt_clust_8="13000.00000" pt_clust_9="32.97126"></scales>
<clustering>
<clus scale="   32.971">  2  9  1 -1</clus>
<clus scale="   81.007">  5  6 -1 -1</clus>
<clus scale="   81.339">  1  5  2 -1</clus>
<clus scale="   89.972">  7  8 -1 -1</clus>
<clus scale="   81.339">  1  5  2 -1</clus>
</clustering>
</event>
<event>
 9    1  0.3846604E-005  0.1342165E+03  0.7546771E-02  0.1227396E+00
          1   -1    0    0  502    0  0.00000000000E+00  0.00000000000E+00  0.35093182802E+03  0.35093182802E+03  0.00000000000E+00 0. -1.
         -2   -1    0    0    0  501 -0.00000000000E+00 -0.00000000000E+00 -0.12307079852E+03  0.12307079852E+03  0.00000000000E+00 0.  1.
        -24    2    1    2    0    0  0.20931700852E+02 -0.85350543844E+02  0.27586212505E+02  0.12145050455E+03  0.79160435196E+02 0.  0.
         23    2    1    2    0    0  0.89915590183E+02  0.33746990904E+01  0.16720106354E+03  0.21077400583E+03  0.91505649737E+02 0.  0.
         13    1    3    3    0    0  0.47192541453E+02 -0.51852307594E+02 -0.11002844307E+01  0.70121383311E+02  0.00000000000E+00 0. -1.
        -14    1    3    3    0    0 -0.26260840601E+02 -0.33498236250E+02  0.28686496935E+02  0.51329121240E+02  0.00000000000E+00 0.  1.
        -13    1    4    4    0    0  0.37127709811E+02  0.15251122596E+02  0.14802290987E+03  0.15336833253E+03  0.00000000000E+00 0. -1.
         13    1    4    4    0    0  0.52787880372E+02 -0.11876423505E+02  0.19178153673E+02  0.57405673307E+02  0.00000000000E+00 0.  1.
         21    1    1    2  502  501 -0.11084729104E+03  0.81975844754E+02  0.33073753454E+02  0.14177811616E+03  0.00000000000E+00 0.  1.
<scales pt_clust_5="13000.00000" pt_clust_6="13000.00000" pt_clust_7="13000.00000" pt_clust_8="13000.00000" pt_clust_9="98.18747"></scales>
<clustering>
<clus scale="   79.160">  5  6 -1 -1</clus>
<clus scale="   91.506">  7  8 -1 -1</clus>
<clus scale="  118.276">  2  5  1 -1</clus>
<clus scale="   98.187">  2  9  1 -1</clus>
<clus scale="  134.216">  1  5  2 -1</clus>
</clustering>
</event>
<event>
 9    1  0.3846604E-005  0.1763834E+03  0.7546771E-02  0.1203402E+00
          1   -1    0    0  502    0  0.00000000000E+00  0.00000000000E+00  0.99870278687E+03  0.99870278687E+03  0.00000000000E+00 0. -1.
         -2   -1    0    0    0  501 -0.00000000000E+00 -0.00000000000E+00 -0.72311876649E+02  0.72311876649E+02  0.00000000000E+00 0.  1.
         23    2    1    2    0    0 -0.77091353831E+02 -0.13248479656E+03  0.82827177725E+02  0.19706058302E+03  0.92071895024E+02 0.  0.
        -24    2    1    2    0    0  0.30387382935E+02 -0.14563425704E+01  0.32616334030E+03  0.33746115837E+03  0.81067841211E+02 0.  0.
         11    1    4    4    0    0  0.54845742138E+02  0.82857592433E+01  0.16279897031E+03  0.17198899374E+03  0.00000000000E+00 0. -1.
        -12    1    4    4    0    0 -0.24458359202E+02 -0.97421018137E+01  0.16336436999E+03  0.16547216463E+03  0.00000000000E+00 0.  1.
        -11    1    3    3    0    0 -0.43827492491E+02 -0.22417542948E+02  0.63686498699E+02  0.80494505691E+02  0.00000000000E+00 0. -1.
         11    1    3    3    0    0 -0.33263861340E+02 -0.11006725362E+03  0.19140679026E+02  0.11656607733E+03  0.00000000000E+00 0.  1.
         21    1    1    2  502  501  0.46703970896E+02  0.13394113913E+03  0.51740039220E+03  0.53649292213E+03  0.00000000000E+00 0. -1.
<scales pt_clust_5="13000.00000" pt_clust_6="13000.00000" pt_clust_7="13000.00000" pt_clust_8="13000.00000" pt_clust_9="150.44554"></scales>
<clustering>
<clus scale="   81.068">  5  6 -1 -1</clus>
<clus scale="   86.588">  1  5  2 -1</clus>
<clus scale="   92.072">  7  8 -1 -1</clus>
<clus scale="  150.446">  1  9  2 -1</clus>
<clus scale="   86.588">  1  5  2 -1</clus>
</clustering>
</event>
<event>
 9    1  0.3846604E-005  0.1032309E+03  0.7546771E-02  0.1278455E+00
          1   -1    0    0  502    0  0.00000000000E+00  0.00000000000E+00  0.46100293943E+03  0.46100293943E+03  0.00000000000E+00 0. -1.
         -2   -1    0    0    0  501 -0.00000000000E+00 -0.00000000000E+00 -0.67565155491E+02  0.67565155491E+02  0.00000000000E+00 0.  1.
        -24    2    1    2    0    0  0.55666287810E+02  0.11483880265E+02  0.42151145753E+02  0.10744489977E+03  0.80852163193E+02 0.  0.
         23    2    1    2    0    0 -0.37030179465E+02 -0.29693220237E+02  0.37317423751E+03  0.38709450725E+03  0.91270063443E+02 0.  0.
         11    1    3    3    0    0 -0.19982957712E+02  0.11672780072E+02  0.11172879170E+02  0.25698358361E+02  0.00000000000E+00 0. -1.
        -12    1    3    3    0    0  0.75649245521E+02 -0.18889980677E+00  0.30978266583E+02  0.81746541404E+02  0.00000000000E+00 0.  1.
        -13    1    4    4    0    0  0.29206808113E+02 -0.13199199231E+01  0.79391779743E+02  0.84603986428E+02  0.00000000000E+00 0.  1.
         13    1    4    4    0    0 -0.66236987578E+02 -0.28373300313E+02  0.29378245777E+03  0.30249052082E+03  0.00000000000E+00 0. -1.
         21    1    1    2  502  501 -0.18636108344E+02  0.18209339972E+02 -0.21887599326E+02  0.34028687907E+02  0.00000000000E+00 0. -1.
<scales pt_clust_5="13000.00000" pt_clust_6="13000.00000" pt_clust_7="13000.00000" pt_clust_8="13000.00000" pt_clust_9="26.05541"></scales>
<clustering>
<clus scale="   26.055">  2  9  1 -1</clus>
<clus scale="   80.852">  5  6 -1 -1</clus>
<clus scale="   91.270">  7  8 -1 -1</clus>
<clus scale="   94.146">  2  5  1 -1</clus>
<clus scale="  103.231">  1  5  2 -1</clus>
</clustering>
</event>
<event>
 9    1  0.3846604E-005  0.1465772E+03  0.7546771E-02  0.1206944E+00
         -2   -1    0    0    0  501 -0.00000000000E+00  0.00000000000E+00  0.34692431885E+03  0.34692431885E+03  0.00000000000E+00 0.  1.
          1   -1    0    0  502    0  0.00000000000E+00 -0.00000000000E+00 -0.98058865614E+02  0.98058865614E+02  0.00000000000E+00 0. -1.
        -24    2    1    2    0    0  0.10649423602E+03  0.42935691815E+02  0.12319985229E+03  0.18647745436E+03  0.80069603736E+02 0.  0.
         23    2    1    2    0    0 -0.92388397254E+02 -0.69990784932E+02  0.20517688495E+02  0.14902040577E+03  0.91388072928E+02 0.  0.
         11    1    3    3    0    0  0.87927861185E+02  0.54615886970E+02  0.12739470285E+03  0.16414510104E+03  0.00000000000E+00 0. -1.
        -12    1    3    3    0    0  0.18566374838E+02 -0.11680195155E+02 -0.41948505591E+01  0.22332353317E+02  0.00000000000E+00 0.  1.
        -11    1    4    4    0    0 -0.48695161991E+02 -0.86869056450E+02  0.51328279567E+01  0.99718592512E+02  0.00000000000E+00 0.  1.
         11    1    4    4    0    0 -0.43693235263E+02  0.16878271518E+02  0.15384860539E+02  0.49301813263E+02  0.00000000000E+00 0. -1.
         21    1    1    2  502  501 -0.14105838768E+02  0.27055093117E+02  0.10514791245E+03  0.10948532433E+03  0.00000000000E+00 0.  1.
<scales pt_clust_5="13000.00000" pt_clust_6="13000.00000" pt_clust_7="13000.00000" pt_clust_8="13000.00000" pt_clust_9="30.51152"></scales>
<clustering>
<clus scale="   30.512">  1  9  2 -1</clus>
<clus scale="   80.070">  5  6 -1 -1</clus>
<clus scale="   91.388">  7  8 -1 -1</clus>
<clus scale="  139.801">  1  5  2 -1</clus>
<clus scale="  146.577">  2  5  1 -1</clus>
</clustering>
</event>
<event>
 9    1  0.3846604E-005  0.1031362E+03  0.7546771E-02  0.1278172E+00
          1   -1    0    0  502    0  0.00000000000E+00  0.00000000000E+00  0.15403500023E+03  0.15403500023E+03  0.00000000000E+00 0. -1.
         -2   -1    0    0    0  501 -0.00000000000E+00 -0.00000000000E+00 -0.14268396732E+03  0.14268396732E+03  0.00000000000E+00 0.  1.
         23    2    1    2    0    0  0.26261604792E+02 -0.23047815216E+02 -0.32626973324E+02  0.10214893793E+03  0.90271880782E+02 0.  0.
        -24    2    1    2    0    0 -0.56408662194E+02  0.39991006997E+01  0.91939469689E+02  0.13480381365E+03  0.80754393757E+02 0.  0.
         11    1    4    4    0    0 -0.48212601497E+02 -0.83394665248E+00  0.10678696500E+03  0.11716913546E+03  0.00000000000E+00 0. -1.
        -12    1    4    4    0    0 -0.81960606964E+01  0.48330473522E+01 -0.14847495315E+02  0.17634678188E+02  0.00000000000E+00 0.  1.
        -13    1    3    3    0    0 -0.25993490577E+02 -0.32061379000E+02 -0.29438078192E+01  0.41379458433E+02  0.00000000000E+00 0. -1.
         13    1    3    3    0    0  0.52255095369E+02  0.90135637844E+01 -0.29683165505E+02  0.60769479499E+02  0.00000000000E+00 0.  1.
         21    1    1    2  502  501  0.30147057402E+02  0.19048714516E+02 -0.47961463456E+02  0.59766215971E+02  0.00000000000E+00 0.  1.
<scales pt_clust_5="13000.00000" pt_clust_6="13000.00000" pt_clust_7="13000.00000" pt_clust_8="13000.00000" pt_clust_9="35.66088"></scales>
<clustering>
<clus scale="   35.661">  2  9  1 -1</clus>
<clus scale="   80.754">  5  6 -1 -1</clus>
<clus scale="   90.272">  7  8 -1 -1</clus>
<clus scale="   94.917">  1  5  2 -1</clus>
<clus scale="   94.917">  1  5  2 -1</clus>
</clustering>
</event>
<event>
 9    1  0.6276836E-005  0.1148633E+03  0.7546771E-02  0.1255620E+00
         -4   -1    0    0    0  501 -0.00000000000E+00  0.00000000000E+00  0.78037171350E+03  0.78037171350E+03  0.00000000000E+00 0.  1.
          3   -1    0    0  502    0  0.00000000000E+00 -0.00000000000E+00 -0.15025139888E+03  0.15025139888E+03  0.00000000000E+00 0. -1.
        -24    2    1    2    0    0  0.37237882042E+02  0.69840328625E+02  0.71965950168E+03  0.72847274590E+03  0.80612727280E+02 0.  0.
         23    2    1    2    0    0 -0.46651350324E+02 -0.51370170093E+02 -0.11953925553E+03  0.16568443375E+03  0.91358935593E+02 0.  0.
         13    1    3    3    0    0  0.61314240082E+02  0.38487172925E+02  0.41615255663E+03  0.42240223592E+03  0.00000000000E+00 0. -1.
        -14    1    3    3    0    0 -0.24076358040E+02  0.31353155700E+02  0.30350694505E+03  0.30607050998E+03  0.00000000000E+00 0.  1.
        -11    1    4    4    0    0 -0.26603475005E+02 -0.37041952337E+02 -0.20634720910E+01  0.45652043025E+02  0.00000000000E+00 0.  1.
         11    1    4    4    0    0 -0.20047875319E+02 -0.14328217755E+02 -0.11747578344E+03  0.12003239073E+03  0.00000000000E+00 0. -1.
         21    1    1    2  502  501  0.94134682819E+01 -0.18470158532E+02  0.30000068475E+02  0.36465932729E+02  0.00000000000E+00 0.  1.
<scales pt_clust_5="13000.00000" pt_clust_6="13000.00000" pt_clust_7="13000.00000" pt_clust_8="13000.00000" pt_clust_9="20.73066"></scales>
<clustering>
<clus scale="   20.731">  1  9  2 -1</clus>
<clus scale="   80.613">  5  6 -1 -1</clus>
<clus scale="   91.359">  7  8 -1 -1</clus>
<clus scale="  106.515">  1  5  2 -1</clus>
<clus scale="  114.863">  2  5  1 -1</clus>
</clustering>
</event>
<event>
 9    1  0.3846604E-005  0.1109667E+03  0.7546771E-02  0.1264039E+00
          1   -1    0    0  502    0  0.00000000000E+00  0.00000000000E+00  0.18160001846E+03  0.18160001846E+03  0.00000000000E+00 0. -1.
         -2   -1    0    0    0  501 -0.00000000000E+00 -0.00000000000E+00 -0.36825536173E+03  0.36825536173E+03  0.00000000000E+00 0.  1.
         23    2    1    2    0    0 -0.18587946690E+02 -0.42845716801E+02 -0.27320432083E+03  0.29239097692E+03  0.93116138536E+02 0.  0.
        -24    2    1    2    0    0 -0.13587938952E+02  0.60040089185E+02  0.15207226574E+03  0.18246950110E+03  0.79873026926E+02 0.  0.
         11    1    4    4    0    0  0.31138290733E+02  0.15665465676E+02  0.76584152272E+02  0.84143522293E+02  0.00000000000E+00 0. -1.
        -12    1    4    4    0    0 -0.44726229686E+02  0.44374623509E+02  0.75488113466E+02  0.98325978806E+02  0.00000000000E+00 0.  1.
        -13    1    3    3    0    0  0.17160688052E+02 -0.49699773887E+02 -0.22982688127E+03  0.23576461162E+03  0.00000000000E+00 0.  1.
         13    1    3    3    0    0 -0.35748634742E+02  0.68540570865E+01 -0.43377439558E+02  0.56626365300E+02  0.00000000000E+00 0. -1.
         21    1    1    2  502  501  0.32175885642E+02 -0.17194372384E+02 -0.65523288175E+02  0.74994902172E+02  0.00000000000E+00 0. -1.
<scales pt_clust_5="13000.00000" pt_clust_6="13000.00000" pt_clust_7="13000.00000" pt_clust_8="13000.00000" pt_clust_9="36.48197"></scales>
<clustering>
<clus scale="   36.482">  2  9  1 -1</clus>
<clus scale="   79.873">  5  6 -1 -1</clus>
<clus scale="   93.116">  7  8 -1 -1</clus>
<clus scale="  100.113">  1  5  2 -1</clus>
<clus scale="  100.113">  1  5  2 -1</clus>
</clustering>
</event>
<event>
 9    1  0.3846604E-005  0.1257262E+03  0.7546771E-02  0.1236237E+00
          1   -1    0    0  502    0  0.00000000000E+00  0.00000000000E+00  0.31452233658E+03  0.31452233658E+03  0.00000000000E+00 0. -1.
         -2   -1    0    0    0  501 -0.00000000000E+00 -0.00000000000E+00 -0.15948713013E+03  0.15948713013E+03  0.00000000000E+00 0.  1.
         23    2    1    2    0    0 -0.11971276556E+03  0.84173682451E+00  0.41235584345E+02  0.15657255001E+03  0.92101765671E+02 0.  0.
        -24    2    1    2    0    0  0.76410964204E+02  0.42283854704E+01  0.19475009092E+03  0.22549274591E+03  0.84040858234E+02 0.  0.
         11    1    4    4    0    0  0.40034231425E+02  0.42656699352E+02  0.12434962507E+03  0.13742329839E+03  0.00000000000E+00 0. -1.
        -12    1    4    4    0    0  0.36376732778E+02 -0.38428313882E+02  0.70400465853E+02  0.88069447527E+02  0.00000000000E+00 0.  1.
        -13    1    3    3    0    0 -0.27893264742E+02 -0.41444014993E+02  0.13621375705E+02  0.51780135890E+02  0.00000000000E+00 0.  1.
         13    1    3    3    0    0 -0.91819500819E+02  0.42285751817E+02  0.27614208639E+02  0.10479241412E+03  0.00000000000E+00 0. -1.
         21    1    1    2  502  501  0.43301801357E+02 -0.50701222949E+01 -0.80950468817E+02  0.91944170792E+02  0.00000000000E+00 0.  1.
<scales pt_clust_5="13000.00000" pt_clust_6="13000.00000" pt_clust_7="13000.00000" pt_clust_8="13000.00000" pt_clust_9="43.59762"></scales>
<clustering>
<clus scale="   43.598">  2  9  1 -1</clus>
<clus scale="   84.041">  5  6 -1 -1</clus>
<clus scale="   92.102">  7  8 -1 -1</clus>
<clus scale="  119.947">  1  5  2 -1</clus>
<clus scale="  119.947">  1  5  2 -1</clus>
</clustering>
</event>
<event>
 9    1  0.3846604E-005  0.1051018E+03  0.7546771E-02  0.1274461E+00
          1   -1    0    0  502    0  0.00000000000E+00  0.00000000000E+00  0.32749643901E+03  0.32749643901E+03  0.00000000000E+00 0. -1.
         -2   -1    0    0    0  501 -0.00000000000E+00 -0.00000000000E+00 -0.94651435246E+02  0.94651435246E+02  0.00000000000E+00 0.  1.
         23    2    1    2    0    0 -0.17563518890E+02 -0.16697837519E+02 -0.45299227752E+02  0.10492092390E+03  0.91482704725E+02 0.  0.
        -24    2    1    2    0    0  0.39570062519E+02  0.38102309150E+02  0.26722466247E+03  0.28464357490E+03  0.81211875268E+02 0.  0.
         11    1    4    4    0    0  0.50665218288E+02  0.54501155708E+02  0.17240337621E+03  0.18777716700E+03  0.00000000000E+00 0. -1.
        -12    1    4    4    0    0 -0.11095155769E+02 -0.16398846557E+02  0.94821286264E+02  0.96866407896E+02  0.00000000000E+00 0.  1.
        -13    1    3    3    0    0 -0.45828788973E+02  0.92070320572E+01 -0.15795987490E+01  0.46771171358E+02  0.00000000000E+00 0.  1.
         13    1    3    3    0    0  0.28265270083E+02 -0.25904869576E+02 -0.43719629003E+02  0.58149752543E+02  0.00000000000E+00 0. -1.
         21    1    1    2  502  501 -0.22006543630E+02 -0.21404471631E+02  0.10919569044E+02  0.32583375461E+02  0.00000000000E+00 0. -1.
<scales pt_clust_5="13000.00000" pt_clust_6="13000.00000" pt_clust_7="13000.00000" pt_clust_8="13000.00000" pt_clust_9="30.69918"></scales>
<clustering>
<clus scale="   30.699">  2  9  1 -1</clus>
<clus scale="   81.212">  5  6 -1 -1</clus>
<clus scale="   91.483">  7  8 -1 -1</clus>
<clus scale="   96.295">  1  5  2 -1</clus>
<clus scale="   96.295">  1  5  2 -1</clus>
</clustering>
</event>
<event>
 9    1  0.3846604E-005  0.1195463E+03  0.7546771E-02  0.1248258E+00
          1   -1    0    0  502    0  0.00000000000E+00  0.00000000000E+00  0.57800379922E+03  0.57800379922E+03  0.00000000000E+00 0. -1.
         -2   -1    0    0    0  501 -0.00000000000E+00 -0.00000000000E+00 -0.65396197140E+02  0.65396197140E+02  0.00000000000E+00 0.  1.
        -24    2    1    2    0    0  0.11055068113E+02  0.59700573581E+02  0.28848549928E+01  0.97338019982E+02  0.76026276569E+02 0.  0.
         23    2    1    2    0    0 -0.22148856627E+02 -0.78336184652E+02  0.51013155310E+03  0.52437038202E+03  0.90016478463E+02 0.  0.
         11    1    3    3    0    0 -0.18523410619E+02  0.32080018300E+02  0.30799249686E+02  0.48175077544E+02  0.00000000000E+00 0. -1.
        -12    1    3    3    0    0  0.29578478732E+02  0.27620555280E+02 -0.27914394694E+02  0.49162942439E+02  0.00000000000E+00 0.  1.
        -11    1    4    4    0    0  0.11382542644E+02 -0.82579136975E+02  0.41809178631E+03  0.42632102684E+03  0.00000000000E+00 0. -1.
         11    1    4    4    0    0 -0.33531399271E+02  0.42429523228E+01  0.92039766786E+02  0.98049355181E+02  0.00000000000E+00 0.  1.
         21    1    1    2  502  501  0.11093788513E+02  0.18635611072E+02 -0.40880600919E+00  0.21691594362E+02  0.00000000000E+00 0.  1.
<scales pt_clust_5="13000.00000" pt_clust_6="13000.00000" pt_clust_7="13000.00000" pt_clust_8="13000.00000" pt_clust_9="21.68774"></scales>
<clustering>
<clus scale="   21.688">  2  9  1 -1</clus>
<clus scale="   76.026">  5  6 -1 -1</clus>
<clus scale="   90.016">  7  8 -1 -1</clus>
<clus scale="  109.400">  2  5  1 -1</clus>
<clus scale="  119.546">  1  5  2 -1</clus>
</clustering>
</event>
<event>
 9    1  0.3846604E-005  0.1790432E+03  0.7546771E-02  0.1170141E+00
         -2   -1    0    0    0  501 -0.00000000000E+00  0.00000000000E+00  0.60924029139E+03  0.60924029139E+03  0.00000000000E+00 0.  1.
          1   -1    0    0  502    0  0.00000000000E+00 -0.00000000000E+00 -0.21337716571E+03  0.21337716571E+03  0.00000000000E+00 0. -1.
         23    2    1    2    0    0 -0.79817735311E+02  0.23005511270E+03  0.25293850876E+03  0.36290398371E+03  0.91788814287E+02 0.  0.
        -24    2    1    2    0    0  0.40999376136E+02 -0.13472236825E+03 -0.10376790952E+03  0.19240765645E+03  0.80136520153E+02 0.  0.
         13    1    4    4    0    0  0.52387450641E+02 -0.86336443614E+02 -0.10068524477E+03  0.14260415490E+03  0.00000000000E+00 0. -1.
        -14    1    4    4    0    0 -0.11388074505E+02 -0.48385924638E+02 -0.30826647455E+01  0.49803501543E+02  0.00000000000E+00 0.  1.
        -13    1    3    3    0    0  0.11618671118E+02  0.31450179069E+02  0.77932922921E+01  0.34421543933E+02  0.00000000000E+00 0. -1.
         13    1    3    3    0    0 -0.91436406429E+02  0.19860493363E+03  0.24514521647E+03  0.32848243977E+03  0.00000000000E+00 0.  1.
         21    1    1    2  502  501  0.38818359175E+02 -0.95332744444E+02  0.24669252644E+03  0.26730581695E+03  0.00000000000E+00 0. -1.
<scales pt_clust_5="13000.00000" pt_clust_6="13000.00000" pt_clust_7="13000.00000" pt_clust_8="13000.00000" pt_clust_9="102.93297"></scales>
<clustering>
<clus scale="   80.137">  5  6 -1 -1</clus>
<clus scale="   91.789">  7  8 -1 -1</clus>
<clus scale="  102.933">  1  9  2 -1</clus>
<clus scale="  173.358">  2  5  1 -1</clus>
<clus scale="  173.358">  2  5  1 -1</clus>
</clustering>
</event>
<event>
 9    1  0.3846604E-005  0.1333849E+03  0.7546771E-02  0.1224657E+00
         -2   -1    0    0    0  501 -0.00000000000E+00  0.00000000000E+00  0.16660973404E+03  0.16660973404E+03  0.00000000000E+00 0.  1.
          1   -1    0    0  502    0  0.00000000000E+00 -0.00000000000E+00 -0.44916136746E+03  0.44916136746E+03  0.00000000000E+00 0. -1.
         23    2    1    2    0    0  0.56706982696E+02  0.13321655823E+02 -0.31204224230E+02  0.11080736743E+03  0.88946167234E+02 0.  0.
        -24    2    1    2    0    0 -0.11244401398E+03 -0.99249758350E+01 -0.35843067995E+03  0.38419543953E+03  0.79946369538E+02 0.  0.
         11    1    4    4    0    0 -0.54714765709E+02  0.33742757821E+02 -0.19843554945E+03  0.20858798282E+03  0.00000000000E+00 0. -1.
        -12    1    4    4    0    0 -0.57729248273E+02 -0.43667733656E+02 -0.15999513050E+03  0.17560745671E+03  0.00000000000E+00 0.  1.
        -11    1    3    3    0    0  0.23320053445E+02 -0.32051643317E+02  0.10159763054E+02  0.40918865054E+02  0.00000000000E+00 0.  1.
         11    1    3    3    0    0  0.33386929251E+02  0.45373299140E+02 -0.41363987285E+02  0.69888502371E+02  0.00000000000E+00 0. -1.
         21    1    1    2  502  501  0.55737031286E+02 -0.33966799876E+01  0.10708327076E+03  0.12076829455E+03  0.00000000000E+00 0.  1.
<scales pt_clust_5="13000.00000" pt_clust_6="13000.00000" pt_clust_7="13000.00000" pt_clust_8="13000.00000" pt_clust_9="55.84043"></scales>
<clustering>
<clus scale="   55.840">  1  9  2 -1</clus>
<clus scale="   79.946">  5  6 -1 -1</clus>
<clus scale="   88.946">  7  8 -1 -1</clus>
<clus scale="  127.560">  2  5  1 -1</clus>
<clus scale="  127.560">  2  5  1 -1</clus>
</clustering>
</event>
<event>
 9    1  0.3846604E-005  0.9736352E+02  0.7546771E-02  0.1299406E+00
          1   -1    0    0  502    0  0.00000000000E+00  0.00000000000E+00  0.32349610730E+03  0.32349610730E+03  0.00000000000E+00 0. -1.
         -2   -1    0    0    0  501 -0.00000000000E+00 -0.00000000000E+00 -0.54197007510E+02  0.54197007510E+02  0.00000000000E+00 0.  1.
        -24    2    1    2    0    0  0.67185668013E+01  0.70902651686E+01 -0.68515345999E+01  0.69359505724E+02  0.68325591895E+02 0.  0.
         23    2    1    2    0    0 -0.19486974333E+02 -0.33145102594E+02  0.25082348389E+03  0.26981930867E+03  0.91715316419E+02 0.  0.
         13    1    3    3    0    0  0.21313456012E+02  0.24136367246E+02 -0.24784489028E+02  0.40633711711E+02  0.00000000000E+00 0. -1.
        -14    1    3    3    0    0 -0.14594889211E+02 -0.17046102078E+02  0.17932954428E+02  0.28725794013E+02  0.00000000000E+00 0.  1.
        -13    1    4    4    0    0 -0.52312744341E+02 -0.18398328717E+02  0.95969253692E+02  0.11083870883E+03  0.00000000000E+00 0.  1.
         13    1    4    4    0    0  0.32825770008E+02 -0.14746773877E+02  0.15485423020E+03  0.15898059985E+03  0.00000000000E+00 0. -1.
         21    1    1    2  502  501  0.12768407532E+02  0.26054837425E+02  0.25327150499E+02  0.38514300417E+02  0.00000000000E+00 0. -1.
<scales pt_clust_5="13000.00000" pt_clust_6="13000.00000" pt_clust_7="13000.00000" pt_clust_8="13000.00000" pt_clust_9="29.01529"></scales>
<clustering>
<clus scale="   29.015">  2  9  1 -1</clus>
<clus scale="   68.326">  5  6 -1 -1</clus>
<clus scale="   75.739">  2  5  1 -1</clus>
<clus scale="   91.715">  7  8 -1 -1</clus>
<clus scale="   97.364">  1  5  2 -1</clus>
</clustering>
</event>
<event>
 9    1  0.3846604E-005  0.9326285E+02  0.7546771E-02  0.1295201E+00
         -2   -1    0    0    0  501 -0.00000000000E+00  0.00000000000E+00  0.22351483777E+03  0.22351483777E+03  0.00000000000E+00 0.  1.
          1   -1    0    0  502    0  0.00000000000E+00 -0.00000000000E+00 -0.79271521844E+02  0.79271521844E+02  0.00000000000E+00 0. -1.
         23    2    1    2    0    0  0.23520335756E+02  0.98477413696E+01  0.12351774626E+03  0.14946275223E+03  0.80201598860E+02 0.  0.
        -24    2    1    2    0    0 -0.52442127615E+02  0.19973992010E+02 -0.14245772273E+02  0.99020747575E+02  0.80330749512E+02 0.  0.
         11    1    4    4    0    0 -0.46769904540E+02 -0.85356320952E+01 -0.38489256857E+02  0.61169468522E+02  0.00000000000E+00 0. -1.
        -12    1    4    4    0    0 -0.56722230758E+01  0.28509624105E+02  0.24243484583E+02  0.37851279053E+02  0.00000000000E+00 0.  1.
        -13    1    3    3    0    0 -0.27157116344E+02 -0.44494029195E+01  0.22505068415E+02  0.35549743443E+02  0.00000000000E+00 0. -1.
         13    1    3    3    0    0  0.50677452100E+02  0.14297144289E+02  0.10101267784E+03  0.11391300879E+03  0.00000000000E+00 0.  1.
         21    1    1    2  502  501  0.28921791859E+02 -0.29821733379E+02  0.34971341939E+02  0.54302859806E+02  0.00000000000E+00 0.  1.
<scales pt_clust_5="13000.00000" pt_clust_6="13000.00000" pt_clust_7="13000.00000" pt_clust_8="13000.00000" pt_clust_9="41.54282"></scales>
<clustering>
<clus scale="   41.543">  1  9  2 -1</clus>
<clus scale="   80.202">  7  8 -1 -1</clus>
<clus scale="   80.331">  5  6 -1 -1</clus>
<clus scale="   93.152">  1  7  2 -1</clus>
<clus scale="   93.263">  2  5  1 -1</clus>
</clustering>
</event>
<event>
 9    1  0.3846604E-005  0.1020534E+03  0.7546771E-02  0.1282102E+00
         -2   -1    0    0    0  501 -0.00000000000E+00  0.00000000000E+00  0.41913603671E+03  0.41913603671E+03  0.00000000000E+00 0.  1.
          1   -1    0    0  502    0  0.00000000000E+00 -0.00000000000E+00 -0.12260916667E+03  0.12260916667E+03  0.00000000000E+00 0. -1.
        -24    2    1    2    0    0  0.96006443984E+01 -0.39820428556E+02  0.29387346884E+03  0.30737208807E+03  0.80238057861E+02 0.  0.
         23    2    1    2    0    0  0.40157018369E+02  0.20975528580E+02 -0.83770010133E+02  0.13288439039E+03  0.92673014890E+02 0.  0.
         11    1    3    3    0    0 -0.24293153519E+02  0.12711563213E+02  0.81523046825E+02  0.86010163997E+02  0.00000000000E+00 0. -1.
        -12    1    3    3    0    0  0.33893797917E+02 -0.52531991769E+02  0.21235042202E+03  0.22136192407E+03  0.00000000000E+00 0.  1.
        -11    1    4    4    0    0 -0.23214988688E+02  0.75932465364E+01 -0.58438166743E+02  0.63337290951E+02  0.00000000000E+00 0.  1.
         11    1    4    4    0    0  0.63372007057E+02  0.13382282043E+02 -0.25331843390E+02  0.69547099441E+02  0.00000000000E+00 0. -1.
         21    1    1    2  502  501 -0.49757662767E+02  0.18844899976E+02  0.86423411329E+02  0.10148872492E+03  0.00000000000E+00 0. -1.
<scales pt_clust_5="13000.00000" pt_clust_6="13000.00000" pt_clust_7="13000.00000" pt_clust_8="13000.00000" pt_clust_9="53.20672"></scales>
<clustering>
<clus scale="   53.207">  1  9  2 -1</clus>
<clus scale="   80.238">  5  6 -1 -1</clus>
<clus scale="   90.911">  1  5  2 -1</clus>
<clus scale="   92.673">  7  8 -1 -1</clus>
<clus scale="  102.053">  2  5  1 -1</clus>
</clustering>
</event>
<event>
 9    1  0.3846604E-005  0.1898067E+03  0.7546771E-02  0.1159648E+00
          1   -1    0    0  502    0  0.00000000000E+00  0.00000000000E+00  0.87435624416E+02  0.87435624416E+02  0.00000000000E+00 0. -1.
         -2   -1    0    0    0  501 -0.00000000000E+00 -0.00000000000E+00 -0.71339169620E+03  0.71339169620E+03  0.00000000000E+00 0.  1.
         23    2    1    2    0    0  0.27235320414E+02  0.18049693654E+03 -0.52690212480E+03  0.56498029229E+03  0.90862394744E+02 0.  0.
        -24    2    1    2    0    0 -0.11967827753E+02 -0.12044386045E+03 -0.42169668403E+02  0.15173228866E+03  0.81206244012E+02 0.  0.
         13    1    4    4    0    0 -0.33716619031E+02 -0.98774014985E+02 -0.55560504586E+02  0.11823741415E+03  0.00000000000E+00 0. -1.
        -14    1    4    4    0    0  0.21748791278E+02 -0.21669845469E+02  0.13390836183E+02  0.33494874509E+02  0.00000000000E+00 0.  1.
        -13    1    3    3    0    0 -0.21571329035E+02  0.76656816230E+02 -0.30430146696E+03  0.31454883962E+03  0.00000000000E+00 0.  1.
         13    1    3    3    0    0  0.48806649449E+02  0.10384012031E+03 -0.22260065784E+03  0.25043145267E+03  0.00000000000E+00 0. -1.
         21    1    1    2  502  501 -0.15267492661E+02 -0.60053076085E+02 -0.56884278580E+02  0.84114739665E+02  0.00000000000E+00 0. -1.
<scales pt_clust_5="13000.00000" pt_clust_6="13000.00000" pt_clust_7="13000.00000" pt_clust_8="13000.00000" pt_clust_9="61.96344"></scales>
<clustering>
<clus scale="   61.963">  1  9  2 -1</clus>
<clus scale="   81.206">  5  6 -1 -1</clus>
<clus scale="   90.862">  7  8 -1 -1</clus>
<clus scale="  185.378">  1  5  2 -1</clus>
<clus scale="   61.963">  1  5  2 -1</clus>
</clustering>
</event>
<event>
 9    1  0.3846604E-005  0.1258819E+03  0.7546771E-02  0.1237235E+00
         -2   -1    0    0    0  501 -0.00000000000E+00  0.00000000000E+00  0.65359750081E+02  0.65359750081E+02  0.00000000000E+00 0.  1.
          1   -1    0    0  502    0  0.00000000000E+00 -0.00000000000E+00 -0.37433772019E+03  0.37433772019E+03  0.00000000000E+00 0. -1.
        -24    2    1    2    0    0  0.73246671995E+02 -0.31412843585E+02 -0.96805004797E+02  0.14886043120E+03  0.80227036102E+02 0.  0.
         23    2    1    2    0    0 -0.89623700944E+02  0.11010424614E+02 -0.22663826925E+03  0.26094204293E+03  0.92586216345E+02 0.  0.
         11    1    3    3    0    0  0.80518756517E+01 -0.45600657532E+02 -0.37320659710E+02  0.59473391614E+02  0.00000000000E+00 0. -1.
        -12    1    3    3    0    0  0.65194796344E+02  0.14187813947E+02 -0.59484345087E+02  0.89387039583E+02  0.00000000000E+00 0.  1.
        -13    1    4    4    0    0 -0.52566329988E+02  0.58563094730E+01 -0.30063738371E+02  0.60838670054E+02  0.00000000000E+00 0.  1.
         13    1    4    4    0    0 -0.37057370956E+02  0.51541151409E+01 -0.19657453088E+03  0.20010337287E+03  0.00000000000E+00 0. -1.
         21    1    1    2  502  501  0.16377028948E+02  0.20402418971E+02  0.14465303933E+02  0.29894996152E+02  0.00000000000E+00 0.  1.
<scales pt_clust_5="13000.00000" pt_clust_6="13000.00000" pt_clust_7="13000.00000" pt_clust_8="13000.00000" pt_clust_9="26.16230"></scales>
<clustering>
<clus scale="   26.162">  1  9  2 -1</clus>
<clus scale="   80.227">  5  6 -1 -1</clus>
<clus scale="   92.586">  7  8 -1 -1</clus>
<clus scale="  117.091">  1  5  2 -1</clus>
<clus scale="  125.882">  2  5  1 -1</clus>
</clustering>
</event>
<event>
 9    1  0.3846604E-005  0.1029949E+03  0.7546771E-02  0.1282769E+00
          1   -1    0    0  502    0  0.00000000000E+00  0.00000000000E+00  0.56765514815E+03  0.56765514815E+03  0.00000000000E+00 0. -1.
         -2   -1    0    0    0  501 -0.00000000000E+00 -0.00000000000E+00 -0.43407046405E+02  0.43407046405E+02  0.00000000000E+00 0.  1.
        -24    2    1    2    0    0  0.30995915085E+02 -0.39055435634E+02  0.31351125114E+02  0.94751157004E+02  0.74221391143E+02 0.  0.
         23    2    1    2    0    0 -0.43768008891E+02  0.15616453031E+02  0.46983613871E+03  0.48103619480E+03  0.92142885005E+02 0.  0.
         13    1    3    3    0    0 -0.24310963162E+02 -0.14496811551E+02  0.15155328855E+02  0.32107078156E+02  0.00000000000E+00 0. -1.
        -14    1    3    3    0    0  0.55306878247E+02 -0.24558624083E+02  0.16195796259E+02  0.62644078848E+02  0.00000000000E+00 0.  1.
        -11    1    4    4    0    0  0.27681010564E+02  0.15541283079E+02  0.14637724432E+03  0.14978006370E+03  0.00000000000E+00 0.  1.
         11    1    4    4    0    0 -0.71449019455E+02  0.75169952366E-01  0.32345889439E+03  0.33125613110E+03  0.00000000000E+00 0. -1.
         21    1    1    2  502  501  0.12772093806E+02  0.23438982603E+02  0.23060837914E+02  0.35274842749E+02  0.00000000000E+00 0. -1.
<scales pt_clust_5="13000.00000" pt_clust_6="13000.00000" pt_clust_7="13000.00000" pt_clust_8="13000.00000" pt_clust_9="26.69293"></scales>
<clustering>
<clus scale="   26.693">  2  9  1 -1</clus>
<clus scale="   74.221">  5  6 -1 -1</clus>
<clus scale="   87.330">  2  5  1 -1</clus>
<clus scale="   92.143">  7  8 -1 -1</clus>
<clus scale="  102.995">  1  5  2 -1</clus>
</clustering>
</event>
<event>
 9    1  0.3846604E-005  0.9749730E+02  0.7546771E-02  0.1290994E+00
          1   -1    0    0  502    0  0.00000000000E+00  0.00000000000E+00  0.62577484450E+03  0.62577484450E+03  0.00000000000E+00 0. -1.
         -2   -1    0    0    0  501 -0.00000000000E+00 -0.00000000000E+00 -0.52341833101E+02  0.52341833101E+02  0.00000000000E+00 0.  1.
         23    2    1    2    0    0 -0.17264708959E+02 -0.25282537248E+02  0.21855108033E+02  0.97637310283E+02  0.90100620126E+02 0.  0.
        -24    2    1    2    0    0 -0.42990950725E+02  0.43850711114E+01  0.45995951182E+03  0.46884882363E+03  0.79931321830E+02 0.  0.
         13    1    4    4    0    0 -0.39288291642E+02  0.39043134894E+02  0.30824503199E+03  0.31318195348E+03  0.00000000000E+00 0. -1.
        -14    1    4    4    0    0 -0.37026590825E+01 -0.34658063783E+02  0.15171447984E+03  0.15566687015E+03  0.00000000000E+00 0.  1.
        -11    1    3    3    0    0  0.37069516553E+01  0.32721052869E+02  0.26442802539E+01  0.33036358902E+02  0.00000000000E+00 0.  1.
         11    1    3    3    0    0 -0.20971660615E+02 -0.58003590117E+02  0.19210827779E+02  0.64600951381E+02  0.00000000000E+00 0. -1.
         21    1    1    2  502  501  0.60255659684E+02  0.20897466137E+02  0.91618391537E+02  0.11163054368E+03  0.00000000000E+00 0. -1.
<scales pt_clust_5="13000.00000" pt_clust_6="13000.00000" pt_clust_7="13000.00000" pt_clust_8="13000.00000" pt_clust_9="63.77655"></scales>
<clustering>
<clus scale="   63.777">  2  9  1 -1</clus>
<clus scale="   79.931">  5  6 -1 -1</clus>
<clus scale="   88.185">  1  5  2 -1</clus>
<clus scale="   90.101">  7  8 -1 -1</clus>
<clus scale="   88.185">  1  5  2 -1</clus>
</clustering>
</event>
<event>
 9    1  0.3846604E-005  0.1344845E+03  0.7546771E-02  0.1223195E+00
         -2   -1    0    0    0  501 -0.00000000000E+00  0.00000000000E+00  0.37099693274E+03  0.37099693274E+03  0.00000000000E+00 0.  1.
          1   -1    0    0  502    0  0.00000000000E+00 -0.00000000000E+00 -0.81758833806E+02  0.81758833806E+02  0.00000000000E+00 0. -1.
         23    2    1    2    0    0 -0.11164829027E+03  0.32224583949E+02  0.22572985064E+03  0.26916705111E+03  0.89404537936E+02 0.  0.
        -24    2    1    2    0    0  0.55727918578E+02 -0.54815395034E+02  0.36760215429E+02  0.11761228042E+03  0.79818585716E+02 0.  0.
         13    1    4    4    0    0  0.74929062748E+02 -0.54242936211E+02  0.30968444007E+02  0.97548475628E+02  0.00000000000E+00 0. -1.
        -14    1    4    4    0    0 -0.19201144170E+02 -0.57245882262E+00  0.57917714219E+01  0.20063804793E+02  0.00000000000E+00 0.  1.
        -11    1    3    3    0    0 -0.56961145007E+02  0.92038094450E+01  0.30798231760E+02  0.65404993910E+02  0.00000000000E+00 0. -1.
         11    1    3    3    0    0 -0.54687145258E+02  0.23020774504E+02  0.19493161888E+03  0.20376205720E+03  0.00000000000E+00 0.  1.
         21    1    1    2  502  501  0.55920371687E+02  0.22590811085E+02  0.26748032863E+02  0.65976435014E+02  0.00000000000E+00 0. -1.
<scales pt_clust_5="13000.00000" pt_clust_6="13000.00000" pt_clust_7="13000.00000" pt_clust_8="13000.00000" pt_clust_9="60.31113"></scales>
<clustering>
<clus scale="   60.311">  2  9  1 -1</clus>
<clus scale="   79.819">  5  6 -1 -1</clus>
<clus scale="   89.405">  7  8 -1 -1</clus>
<clus scale="  128.312">  2  5  1 -1</clus>
<clus scale="   60.311">  2  5  1 -1</clus>
</clustering>
</event>
<event>
 9    1  0.3846604E-005  0.1799718E+03  0.7546771E-02  0.1168768E+00
         -2   -1    0    0    0  501 -0.00000000000E+00  0.00000000000E+00  0.11845248447E+03  0.11845248447E+03  0.00000000000E+00 0.  1.
          1   -1    0    0  502    0  0.00000000000E+00 -0.00000000000E+00 -0.60701676054E+03  0.60701676054E+03  0.00000000000E+00 0. -1.
         23    2    1    2    0    0 -0.25311397120E+02  0.16301873944E+03 -0.67149258165E+02  0.19876361662E+03  0.88216643480E+02 0.  0.
        -24    2    1    2    0    0 -0.94860130017E+02 -0.14289024695E+03 -0.21027547193E+03  0.28293060911E+03  0.80111725333E+02 0.  0.
         11    1    4    4    0    0 -0.98187391453E+02 -0.14376683753E+03 -0.21527419315E+03  0.27686214196E+03  0.00000000000E+00 0. -1.
        -12    1    4    4    0    0  0.33272614357E+01  0.87659057907E+00  0.49987212216E+01  0.60684671504E+01  0.00000000000E+00 0.  1.
        -13    1    3    3    0    0 -0.56554329525E+01  0.14970885871E+03 -0.27157565287E+02  0.15225721543E+03  0.00000000000E+00 0.  1.
         13    1    3    3    0    0 -0.19655964167E+02  0.13309880731E+02 -0.39991692878E+02  0.46506401190E+02  0.00000000000E+00 0. -1.
         21    1    1    2  502  501  0.12017152714E+03 -0.20128492492E+02 -0.21113954598E+03  0.24377501927E+03  0.00000000000E+00 0.  1.
<scales pt_clust_5="13000.00000" pt_clust_6="13000.00000" pt_clust_7="13000.00000" pt_clust_8="13000.00000" pt_clust_9="121.84561"></scales>
<clustering>
<clus scale="   80.112">  5  6 -1 -1</clus>
<clus scale="   88.217">  7  8 -1 -1</clus>
<clus scale="  121.846">  2  9  1 -1</clus>
<clus scale="  176.141">  2  5  1 -1</clus>
<clus scale="  121.846">  2  5  1 -1</clus>
</clustering>
</event>
<event>
 9    1  0.3846604E-005  0.1309816E+03  0.7546771E-02  0.1246224E+00
          1   -1    0    0  502    0  0.00000000000E+00  0.00000000000E+00  0.30270513649E+03  0.30270513649E+03  0.00000000000E+00 0. -1.
         -2   -1    0    0    0  501 -0.00000000000E+00 -0.00000000000E+00 -0.12193241808E+03  0.12193241808E+03  0.00000000000E+00 0.  1.
         23    2    1    2    0    0  0.83781163545E+02  0.47712635106E+02  0.54904122453E+02  0.14323088158E+03  0.90580593181E+02 0.  0.
        -24    2    1    2    0    0 -0.24559051635E+02  0.27632432446E+02  0.15811131399E+03  0.18029420784E+03  0.78358888639E+02 0.  0.
         11    1    4    4    0    0 -0.47780590905E+02  0.36771730117E+02  0.96072091435E+02  0.11342394701E+03  0.00000000000E+00 0. -1.
        -12    1    4    4    0    0  0.23221539270E+02 -0.91392976710E+01  0.62039222556E+02  0.66870260829E+02  0.00000000000E+00 0.  1.
        -13    1    3    3    0    0  0.17691537786E+02 -0.16833634121E+02 -0.13849107577E+02  0.28074179019E+02  0.00000000000E+00 0.  1.
         13    1    3    3    0    0  0.66089625760E+02  0.64546269227E+02  0.68753230030E+02  0.11515670256E+03  0.00000000000E+00 0. -1.
         21    1    1    2  502  501 -0.59222111910E+02 -0.75345067552E+02 -0.32242718031E+02  0.10111246515E+03  0.00000000000E+00 0. -1.
<scales pt_clust_5="13000.00000" pt_clust_6="13000.00000" pt_clust_7="13000.00000" pt_clust_8="13000.00000" pt_clust_9="94.61153"></scales>
<clustering>
<clus scale="   78.359">  5  6 -1 -1</clus>
<clus scale="   86.642">  1  5  2 -1</clus>
<clus scale="   90.581">  7  8 -1 -1</clus>
<clus scale="   94.612">  2  9  1 -1</clus>
<clus scale="   86.642">  1  5  2 -1</clus>
</clustering>
</event>
<event>
 9    1  0.3846604E-005  0.9371751E+02  0.7546771E-02  0.1301686E+00
          1   -1    0    0  502    0  0.00000000000E+00  0.00000000000E+00  0.18679726471E+03  0.18679726471E+03  0.00000000000E+00 0. -1.
         -2   -1    0    0    0  501 -0.00000000000E+00 -0.00000000000E+00 -0.14499823863E+03  0.14499823863E+03  0.00000000000E+00 0.  1.
        -24    2    1    2    0    0  0.27671787677E+02  0.43462645945E+01 -0.66246937285E+02  0.10765746557E+03  0.80105276629E+02 0.  0.
         23    2    1    2    0    0  0.12847865975E+02 -0.14194859245E+02  0.14184927836E+03  0.17045842103E+03  0.92565078952E+02 0.  0.
         11    1    3    3    0    0  0.25145532087E+02 -0.35680609571E+02 -0.25841817847E+02  0.50726750664E+02  0.00000000000E+00 0. -1.
        -12    1    3    3    0    0  0.25262555895E+01  0.40026874165E+02 -0.40405119438E+02  0.56930714904E+02  0.00000000000E+00 0.  1.
        -13    1    4    4    0    0 -0.38505828242E+02 -0.81487856641E+01  0.84641349649E+02  0.93344842315E+02  0.00000000000E+00 0.  1.
         13    1    4    4    0    0  0.51353694217E+02 -0.60460735813E+01  0.57207928706E+02  0.77113578716E+02  0.00000000000E+00 0. -1.
         21    1    1    2  502  501 -0.40519653652E+02  0.98485946509E+01 -0.33803314995E+02  0.53679616740E+02  0.00000000000E+00 0.  1.
<scales pt_clust_5="13000.00000" pt_clust_6="13000.00000" pt_clust_7="13000.00000" pt_clust_8="13000.00000" pt_clust_9="41.69937"></scales>
<clustering>
<clus scale="   41.699">  2  9  1 -1</clus>
<clus scale="   80.105">  5  6 -1 -1</clus>
<clus scale="   81.434">  2  5  1 -1</clus>
<clus scale="   92.565">  7  8 -1 -1</clus>
<clus scale="   93.718">  1  5  2 -1</clus>
</clustering>
</event>
<event>
 9    1  0.3846604E-005  0.9723977E+02  0.7546771E-02  0.1291698E+00
          1   -1    0    0  502    0  0.00000000000E+00  0.00000000000E+00  0.51912484774E+03  0.51912484774E+03  0.00000000000E+00 0. -1.
         -2   -1    0    0    0  501 -0.00000000000E+00 -0.00000000000E+00 -0.15218483546E+03  0.15218483546E+03  0.00000000000E+00 0.  1.
         23    2    1    2    0    0  0.92218534246E+01  0.56891265125E+02 -0.58865358002E+02  0.12298079721E+03  0.91309843294E+02 0.  0.
        -24    2    1    2    0    0  0.75133609397E+00 -0.32419523812E+02  0.48008078364E+03  0.48796208114E+03  0.81103907286E+02 0.  0.
         13    1    4    4    0    0 -0.57542616231E+00 -0.59797423108E+02  0.34157233118E+03  0.34676753071E+03  0.00000000000E+00 0. -1.
        -14    1    4    4    0    0  0.13267622563E+01  0.27377899296E+02  0.13850845246E+03  0.14119455043E+03  0.00000000000E+00 0.  1.
        -11    1    3    3    0    0  0.17115604219E+02  0.80660437009E+02 -0.49895024524E+02  0.96377193767E+02  0.00000000000E+00 0.  1.
         11    1    3    3    0    0 -0.78937507940E+01 -0.23769171883E+02 -0.89703334779E+01  0.26603603446E+02  0.00000000000E+00 0. -1.
         21    1    1    2  502  501 -0.99731895186E+01 -0.24471741314E+02 -0.54275413358E+02  0.60366804845E+02  0.00000000000E+00 0.  1.
<scales pt_clust_5="13000.00000" pt_clust_6="13000.00000" pt_clust_7="13000.00000" pt_clust_8="13000.00000" pt_clust_9="26.42595"></scales>
<clustering>
<clus scale="   26.426">  2  9  1 -1</clus>
<clus scale="   81.104">  5  6 -1 -1</clus>
<clus scale="   87.726">  1  5  2 -1</clus>
<clus scale="   91.310">  7  8 -1 -1</clus>
<clus scale="   87.726">  1  5  2 -1</clus>
</clustering>
</event>
<event>
 9    1  0.3846604E-005  0.1326959E+03  0.7546771E-02  0.1225120E+00
         -4   -1    0    0    0  501 -0.00000000000E+00  0.00000000000E+00  0.13288316825E+03  0.13288316825E+03  0.00000000000E+00 0.  1.
          3   -1    0    0  502    0  0.00000000000E+00 -0.00000000000E+00 -0.21519804484E+03  0.21519804484E+03  0.00000000000E+00 0. -1.
        -24    2    1    2    0    0  0.96630292600E+02  0.32575363947E+02 -0.46178204464E+02  0.13986730304E+03  0.83856234753E+02 0.  0.
         23    2    1    2    0    0 -0.76270319822E+02 -0.57535801764E+02 -0.79876170654E+02  0.15389360374E+03  0.90418518359E+02 0.  0.
         13    1    3    3    0    0  0.58559164406E+02 -0.28415501098E+01 -0.62181861930E+02  0.85462471858E+02  0.00000000000E+00 0. -1.
        -14    1    3    3    0    0  0.38071128194E+02  0.35416914057E+02  0.16003657467E+02  0.54404831178E+02  0.00000000000E+00 0.  1.
        -13    1    4    4    0    0 -0.30422741666E+02 -0.77124333703E+01 -0.80266714276E+02  0.86184512876E+02  0.00000000000E+00 0. -1.
         13    1    4    4    0    0 -0.45847578156E+02 -0.49823368394E+02  0.39054362170E+00  0.67709090861E+02  0.00000000000E+00 0.  1.
         21    1    1    2  502  501 -0.20359972778E+02  0.24960437818E+02  0.43739498524E+02  0.54320306320E+02  0.00000000000E+00 0.  1.
<scales pt_clust_5="13000.00000" pt_clust_6="13000.00000" pt_clust_7="13000.00000" pt_clust_8="13000.00000" pt_clust_9="32.21105"></scales>
<clustering>
<clus scale="   32.211">  1  9  2 -1</clus>
<clus scale="   83.856">  5  6 -1 -1</clus>
<clus scale="   90.419">  7  8 -1 -1</clus>
<clus scale="  128.314">  1  5  2 -1</clus>
<clus scale="  132.696">  2  5  1 -1</clus>
</clustering>
</event>
<event>
 9    1  0.3846604E-005  0.1191402E+03  0.7546771E-02  0.1247129E+00
          1   -1    0    0  502    0  0.00000000000E+00  0.00000000000E+00  0.23863263699E+03  0.23863263699E+03  0.00000000000E+00 0. -1.
         -2   -1    0    0    0  501 -0.00000000000E+00 -0.00000000000E+00 -0.31846401913E+03  0.31846401913E+03  0.00000000000E+00 0.  1.
        -24    2    1    2    0    0  0.55864811011E+02 -0.22312029570E+02 -0.64472139890E+02  0.11974895729E+03  0.81021306926E+02 0.  0.
         23    2    1    2    0    0 -0.57747259188E+02  0.60149928904E+02  0.19143755836E+03  0.22710934129E+03  0.89317155469E+02 0.  0.
         11    1    3    3    0    0 -0.54348834024E+01  0.22150441437E+02 -0.26729922399E+02  0.35137853732E+02  0.00000000000E+00 0. -1.
        -12    1    3    3    0    0  0.61299694414E+02 -0.44462471008E+02 -0.37742217491E+02  0.84611103553E+02  0.00000000000E+00 0.  1.
        -13    1    4    4    0    0 -0.50683079882E+02  0.79449469592E+02  0.11890535348E+03  0.15172170540E+03  0.00000000000E+00 0.  1.
         13    1    4    4    0    0 -0.70641793056E+01 -0.19299540688E+02  0.72532204883E+02  0.75387635891E+02  0.00000000000E+00 0. -1.
         21    1    1    2  502  501  0.18824481764E+01 -0.37837899334E+02 -0.20679680062E+03  0.21023835754E+03  0.00000000000E+00 0.  1.
<scales pt_clust_5="13000.00000" pt_clust_6="13000.00000" pt_clust_7="13000.00000" pt_clust_8="13000.00000" pt_clust_9="37.88470"></scales>
<clustering>
<clus scale="   37.885">  2  9  1 -1</clus>
<clus scale="   81.021">  5  6 -1 -1</clus>
<clus scale="   89.317">  7  8 -1 -1</clus>
<clus scale="  113.054">  2  5  1 -1</clus>
<clus scale="  119.140">  1  5  2 -1</clus>
</clustering>
</event>
<event>
 9    1  0.3846604E-005  0.1534852E+03  0.7546771E-02  0.1208231E+00
         -2   -1    0    0    0  501 -0.00000000000E+00  0.00000000000E+00  0.40561698038E+02  0.40561698038E+02  0.00000000000E+00 0.  1.
          1   -1    0    0  502    0  0.00000000000E+00 -0.00000000000E+00 -0.14027197978E+04  0.14027197978E+04  0.00000000000E+00 0. -1.
        -24    2    1    2    0    0  0.12571869465E+03  0.46119727496E+02 -0.21931369219E+03  0.26889184494E+03  0.79196649215E+02 0.  0.
         23    2    1    2    0    0 -0.37397507016E+02  0.59406484090E+02 -0.34504565409E+03  0.36480996700E+03  0.95404951306E+02 0.  0.
         11    1    3    3    0    0  0.41910452820E+02 -0.21123411521E+02 -0.82650551353E+02  0.95046295082E+02  0.00000000000E+00 0. -1.
        -12    1    3    3    0    0  0.83808241829E+02  0.67243139017E+02 -0.13666314083E+03  0.17384554986E+03  0.00000000000E+00 0.  1.
        -13    1    4    4    0    0  0.96141055526E+01  0.57229361377E+02 -0.10292107228E+03  0.11815404331E+03  0.00000000000E+00 0.  1.
         13    1    4    4    0    0 -0.47011612568E+02  0.21771227132E+01 -0.24212458180E+03  0.24665592369E+03  0.00000000000E+00 0. -1.
         21    1    1    2  502  501 -0.88321187633E+02 -0.10552621159E+03 -0.79779875351E+03  0.80957968393E+03  0.00000000000E+00 0. -1.
<scales pt_clust_5="13000.00000" pt_clust_6="13000.00000" pt_clust_7="13000.00000" pt_clust_8="13000.00000" pt_clust_9="131.47476"></scales>
<clustering>
<clus scale="   79.197">  5  6 -1 -1</clus>
<clus scale="   95.405">  7  8 -1 -1</clus>
<clus scale="  118.447">  2  7  1 -1</clus>
<clus scale="  131.475">  2  9  1 -1</clus>
<clus scale="  118.447">  2  5  1 -1</clus>
</clustering>
</event>
<event>
 9    1  0.3846604E-005  0.3089220E+03  0.7546771E-02  0.1081276E+00
         -2   -1    0    0    0  501 -0.00000000000E+00  0.00000000000E+00  0.52827151809E+03  0.52827151809E+03  0.00000000000E+00 0.  1.
          1   -1    0    0  502    0  0.00000000000E+00 -0.00000000000E+00 -0.32260421717E+03  0.32260421717E+03  0.00000000000E+00 0. -1.
        -24    2    1    2    0    0 -0.45384546216E+02 -0.25709705632E+03  0.26637620962E+03  0.38164422021E+03  0.80854018869E+02 0.  0.
         23    2    1    2    0    0  0.44174942246E+02  0.30152885590E+03 -0.16287992404E+03  0.35781085120E+03  0.92885193223E+02 0.  0.
         11    1    3    3    0    0 -0.14760976023E+02 -0.14279878084E+02  0.88397359150E+00  0.20556817374E+02  0.00000000000E+00 0. -1.
        -12    1    3    3    0    0 -0.30623570193E+02 -0.24281717824E+03  0.26549223602E+03  0.36108740284E+03  0.00000000000E+00 0.  1.
        -11    1    4    4    0    0  0.66209927208E+02  0.16217694178E+03 -0.11158062804E+03  0.20769051847E+03  0.00000000000E+00 0. -1.
         11    1    4    4    0    0 -0.22034984962E+02  0.13935191412E+03 -0.51299295998E+02  0.15012033274E+03  0.00000000000E+00 0.  1.
         21    1    1    2  502  501  0.12096039704E+01 -0.44431799576E+02  0.10217101534E+03  0.11142066384E+03  0.00000000000E+00 0. -1.
<scales pt_clust_5="13000.00000" pt_clust_6="13000.00000" pt_clust_7="13000.00000" pt_clust_8="13000.00000" pt_clust_9="44.44826"></scales>
<clustering>
<clus scale="   44.448">  1  9  2 -1</clus>
<clus scale="   80.854">  5  6 -1 -1</clus>
<clus scale="   92.885">  7  8 -1 -1</clus>
<clus scale="  305.520">  1  5  2 -1</clus>
<clus scale="  308.922">  2  5  1 -1</clus>
</clustering>
</event>
<event>
 9    1  0.3846604E-005  0.1195156E+03  0.7546771E-02  0.1248326E+00
         -2   -1    0    0    0  501 -0.00000000000E+00  0.00000000000E+00  0.77971064923E+02  0.77971064923E+02  0.00000000000E+00 0.  1.
          1   -1    0    0  502    0  0.00000000000E+00 -0.00000000000E+00 -0.51673207179E+03  0.51673207179E+03  0.00000000000E+00 0. -1.
        -24    2    1    2    0    0  0.53438708874E+02  0.11783882114E+02 -0.83203466867E+01  0.96385751965E+02  0.78907727943E+02 0.  0.
         23    2    1    2    0    0 -0.66242932945E+02 -0.45393100771E+02 -0.44346079563E+03  0.46006752645E+03  0.92498604738E+02 0.  0.
         13    1    3    3    0    0  0.11724818762E+02  0.42585107321E+02 -0.42046257079E+01  0.44369377028E+02  0.00000000000E+00 0. -1.
        -14    1    3    3    0    0  0.41713890111E+02 -0.30801225206E+02 -0.41157209788E+01  0.52016374937E+02  0.00000000000E+00 0.  1.
        -13    1    4    4    0    0  0.17966930801E+02 -0.32430999239E+02 -0.12219728431E+03  0.12769791152E+03  0.00000000000E+00 0.  1.
         13    1    4    4    0    0 -0.84209863746E+02 -0.12962101532E+02 -0.32126351132E+03  0.33236961493E+03  0.00000000000E+00 0. -1.
         21    1    1    2  502  501  0.12804224071E+02  0.33609218656E+02  0.13020135442E+02  0.38249858296E+02  0.00000000000E+00 0.  1.
<scales pt_clust_5="13000.00000" pt_clust_6="13000.00000" pt_clust_7="13000.00000" pt_clust_8="13000.00000" pt_clust_9="35.96565"></scales>
<clustering>
<clus scale="   35.966">  1  9  2 -1</clus>
<clus scale="   78.908">  5  6 -1 -1</clus>
<clus scale="   92.499">  7  8 -1 -1</clus>
<clus scale="  109.336">  1  5  2 -1</clus>
<clus scale="  119.516">  2  5  1 -1</clus>
</clustering>
</event>
<event>
 9    1  0.3846604E-005  0.1495087E+03  0.7546771E-02  0.1210858E+00
         -2   -1    0    0    0  501 -0.00000000000E+00  0.00000000000E+00  0.33025093573E+03  0.33025093573E+03  0.00000000000E+00 0.  1.
          1   -1    0    0  502    0  0.00000000000E+00 -0.00000000000E+00 -0.96411653846E+02  0.96411653846E+02  0.00000000000E+00 0. -1.
         23    2    1    2    0    0 -0.61484954871E+02 -0.25801282807E+02  0.14065956166E+03  0.19678383537E+03  0.12038546301E+03 0.  0.
        -24    2    1    2    0    0  0.11859332510E+03  0.41977609014E+02  0.72375587865E+02  0.16698319473E+03  0.82575209274E+02 0.  0.
         11    1    4    4    0    0  0.60914570990E+02 -0.19786156392E+02  0.44527658014E+02  0.78005059271E+02  0.00000000000E+00 0. -1.
        -12    1    4    4    0    0  0.57678754105E+02  0.61763765405E+02  0.27847929851E+02  0.88978135455E+02  0.00000000000E+00 0.  1.
        -13    1    3    3    0    0 -0.11800875667E+02  0.39046218980E+02  0.88942025985E+01  0.41748948765E+02  0.00000000000E+00 0. -1.
         13    1    3    3    0    0 -0.49684079203E+02 -0.64847501787E+02  0.13176535906E+03  0.15503488660E+03  0.00000000000E+00 0.  1.
         21    1    1    2  502  501 -0.57108370224E+02 -0.16176326207E+02  0.20804132355E+02  0.62895559480E+02  0.00000000000E+00 0. -1.
<scales pt_clust_5="13000.00000" pt_clust_6="13000.00000" pt_clust_7="13000.00000" pt_clust_8="13000.00000" pt_clust_9="59.35520"></scales>
<clustering>
<clus scale="   59.355">  2  9  1 -1</clus>
<clus scale="   82.575">  5  6 -1 -1</clus>
<clus scale="  120.385">  7  8 -1 -1</clus>
<clus scale="  121.156">  2  5  1 -1</clus>
<clus scale="   59.355">  2  5  1 -1</clus>
</clustering>
</event>
<event>
 9    1  0.3846604E-005  0.2741516E+03  0.7546771E-02  0.1099207E+00
         -4   -1    0    0    0  501 -0.00000000000E+00  0.00000000000E+00  0.16801750450E+04  0.16801750450E+04  0.00000000000E+00 0.  1.
          3   -1    0    0  502    0  0.00000000000E+00 -0.00000000000E+00 -0.36622233196E+03  0.36622233196E+03  0.00000000000E+00 0. -1.
        -24    2    1    2    0    0  0.18255762887E+03 -0.26361415591E+03  0.13058848150E+04  0.13472739221E+04  0.83619136819E+02 0.  0.
         23    2    1    2    0    0 -0.14199700508E+03  0.21360056990E+03 -0.28808233005E+03  0.39605336301E+03  0.89880390245E+02 0.  0.
         11    1    3    3    0    0 -0.46212769574E+01 -0.33814336980E+02  0.16728739483E+03  0.17073323653E+03  0.00000000000E+00 0. -1.
        -12    1    3    3    0    0  0.18717890583E+03 -0.22979981893E+03  0.11385974201E+04  0.11765406855E+04  0.00000000000E+00 0.  1.
        -13    1    4    4    0    0 -0.13563614052E+03  0.13902377442E+03 -0.23173270923E+03  0.30236537665E+03  0.00000000000E+00 0. -1.
         13    1    4    4    0    0 -0.63608645674E+01  0.74576795480E+02 -0.56349620817E+02  0.93687986361E+02  0.00000000000E+00 0.  1.
         21    1    1    2  502  501 -0.40560623788E+02  0.50013586013E+02  0.29615022807E+03  0.30307009185E+03  0.00000000000E+00 0. -1.
<scales pt_clust_5="13000.00000" pt_clust_6="13000.00000" pt_clust_7="13000.00000" pt_clust_8="13000.00000" pt_clust_9="64.39350"></scales>
<clustering>
<clus scale="   64.394">  1  9  2 -1</clus>
<clus scale="   83.619">  5  6 -1 -1</clus>
<clus scale="   89.880">  7  8 -1 -1</clus>
<clus scale="  272.163">  1  5  2 -1</clus>
<clus scale="  274.152">  2  5  1 -1</clus>
</clustering>
</event>
<event>
 9    1  0.3846604E-005  0.1434011E+03  0.7546771E-02  0.1209014E+00
          1   -1    0    0  502    0  0.00000000000E+00  0.00000000000E+00  0.38566845331E+03  0.38566845331E+03  0.00000000000E+00 0. -1.
         -2   -1    0    0    0  501 -0.00000000000E+00 -0.00000000000E+00 -0.13386270681E+03  0.13386270681E+03  0.00000000000E+00 0.  1.
         23    2    1    2    0    0  0.80801669978E+02 -0.10680922462E+03  0.18022396426E+02  0.16212638639E+03  0.89571413166E+02 0.  0.
        -24    2    1    2    0    0 -0.56087321699E+02  0.90034191440E+02  0.27392495720E+03  0.30736929259E+03  0.90493406223E+02 0.  0.
         13    1    4    4    0    0 -0.70827625770E+02  0.51215926016E+02  0.23389664172E+03  0.24969433846E+03  0.00000000000E+00 0. -1.
        -14    1    4    4    0    0  0.14740304071E+02  0.38818265423E+02  0.40028315481E+02  0.57674954138E+02  0.00000000000E+00 0.  1.
        -11    1    3    3    0    0  0.46284042855E+02 -0.65919846943E+02 -0.34062408968E+02  0.87452195791E+02  0.00000000000E+00 0.  1.
         11    1    3    3    0    0  0.34517627122E+02 -0.40889377676E+02  0.52084805394E+02  0.74674190600E+02  0.00000000000E+00 0. -1.
         21    1    1    2  502  501 -0.24714348278E+02  0.16775033179E+02 -0.40141607126E+02  0.50035481128E+02  0.00000000000E+00 0.  1.
<scales pt_clust_5="13000.00000" pt_clust_6="13000.00000" pt_clust_7="13000.00000" pt_clust_8="13000.00000" pt_clust_9="29.86973"></scales>
<clustering>
<clus scale="   29.870">  2  9  1 -1</clus>
<clus scale="   89.571">  7  8 -1 -1</clus>
<clus scale="   90.493">  5  6 -1 -1</clus>
<clus scale="  142.821">  2  7  1 -1</clus>
<clus scale="  143.401">  1  5  2 -1</clus>
</clustering>
</event>
<event>
 9    1  0.3846604E-005  0.1180531E+03  0.7546771E-02  0.1248232E+00
          1   -1    0    0  502    0  0.00000000000E+00  0.00000000000E+00  0.16600280337E+03  0.16600280337E+03  0.00000000000E+00 0. -1.
         -2   -1    0    0    0  501 -0.00000000000E+00 -0.00000000000E+00 -0.16856264832E+03  0.16856264832E+03  0.00000000000E+00 0.  1.
         23    2    1    2    0    0  0.75026307193E+02 -0.30963856878E+02 -0.62722235368E+02  0.13620563046E+03  0.89611314885E+02 0.  0.
        -24    2    1    2    0    0 -0.76422597446E+02 -0.23545904794E+02  0.79553811148E+02  0.14048676237E+03  0.83743050466E+02 0.  0.
         11    1    4    4    0    0 -0.42276963242E+02 -0.53891159363E+02  0.58967932386E+02  0.90381501030E+02  0.00000000000E+00 0. -1.
        -12    1    4    4    0    0 -0.34145634204E+02  0.30345254569E+02  0.20585878762E+02  0.50105261345E+02  0.00000000000E+00 0.  1.
        -11    1    3    3    0    0  0.75089585036E+02 -0.55229525746E+01 -0.76446648485E+02  0.10729882968E+03  0.00000000000E+00 0.  1.
         11    1    3    3    0    0 -0.63277843704E-01 -0.25440904303E+02  0.13724413118E+02  0.28906800779E+02  0.00000000000E+00 0. -1.
         21    1    1    2  502  501  0.13962902534E+01  0.54509761672E+02 -0.19391420725E+02  0.57873058859E+02  0.00000000000E+00 0. -1.
<scales pt_clust_5="13000.00000" pt_clust_6="13000.00000" pt_clust_7="13000.00000" pt_clust_8="13000.00000" pt_clust_9="54.52764"></scales>
<clustering>
<clus scale="   54.528">  2  9  1 -1</clus>
<clus scale="   83.743">  5  6 -1 -1</clus>
<clus scale="   89.611">  7  8 -1 -1</clus>
<clus scale="  113.663">  1  5  2 -1</clus>
<clus scale="  113.663">  1  5  2 -1</clus>
</clustering>
</event>
<event>
 9    1  0.3846604E-005  0.1023708E+03  0.7546771E-02  0.1279908E+00
         -2   -1    0    0    0  501 -0.00000000000E+00  0.00000000000E+00  0.49795211560E+02  0.49795211560E+02  0.00000000000E+00 0.  1.
          1   -1    0    0  502    0  0.00000000000E+00 -0.00000000000E+00 -0.61579444270E+03  0.61579444270E+03  0.00000000000E+00 0. -1.
        -24    2    1    2    0    0 -0.26119591665E+02  0.86345341495E+02 -0.19404507614E+03  0.22950530768E+03  0.82954467105E+02 0.  0.
         23    2    1    2    0    0 -0.84126185408E+01 -0.28342354949E+02 -0.35281667640E+03  0.36591980370E+03  0.92431782189E+02 0.  0.
         13    1    3    3    0    0  0.21502676477E+02  0.46753020097E+02 -0.13272721191E+03  0.14235421583E+03  0.00000000000E+00 0. -1.
        -14    1    3    3    0    0 -0.47622268142E+02  0.39592321398E+02 -0.61317864235E+02  0.87151091852E+02  0.00000000000E+00 0.  1.
        -11    1    4    4    0    0  0.44470815730E+01 -0.60793896229E+02 -0.25060670119E+03  0.25791353790E+03  0.00000000000E+00 0.  1.
         11    1    4    4    0    0 -0.12859700114E+02  0.32451541280E+02 -0.10220997521E+03  0.10800626580E+03  0.00000000000E+00 0. -1.
         21    1    1    2  502  501  0.34532210206E+02 -0.58002986546E+02 -0.19137478595E+02  0.70164542876E+02  0.00000000000E+00 0.  1.
<scales pt_clust_5="13000.00000" pt_clust_6="13000.00000" pt_clust_7="13000.00000" pt_clust_8="13000.00000" pt_clust_9="67.50422"></scales>
<clustering>
<clus scale="   67.504">  1  9  2 -1</clus>
<clus scale="   82.954">  5  6 -1 -1</clus>
<clus scale="   92.432">  7  8 -1 -1</clus>
<clus scale="   93.902">  1  5  2 -1</clus>
<clus scale="  102.371">  2  5  1 -1</clus>
</clustering>
</event>
<event>
 9    1  0.3846604E-005  0.1470986E+03  0.7546771E-02  0.1209816E+00
          1   -1    0    0  502    0  0.00000000000E+00  0.00000000000E+00  0.71423467920E+03  0.71423467920E+03  0.00000000000E+00 0. -1.
         -2   -1    0    0    0  501 -0.00000000000E+00 -0.00000000000E+00 -0.39534869870E+03  0.39534869870E+03  0.00000000000E+00 0.  1.
         23    2    1    2    0    0  0.73309971618E+02  0.13526215139E+03  0.94664112884E+02  0.20745102411E+03  0.10200211567E+03 0.  0.
        -24    2    1    2    0    0 -0.49598661420E+02 -0.86897428503E+02  0.55399747780E+03  0.56798668836E+03  0.75395506784E+02 0.  0.
         11    1    4    4    0    0 -0.57540208739E+02 -0.76115568316E+02  0.32810736113E+03  0.34170000847E+03  0.00000000000E+00 0. -1.
        -12    1    4    4    0    0  0.79415473190E+01 -0.10781860187E+02  0.22589011667E+03  0.22628667988E+03  0.00000000000E+00 0.  1.
        -13    1    3    3    0    0  0.45255150111E+02  0.11761448502E+02 -0.39693460069E+01  0.46926708708E+02  0.00000000000E+00 0.  1.
         13    1    3    3    0    0  0.28054821506E+02  0.12350070289E+03  0.98633458891E+02  0.16052431541E+03  0.00000000000E+00 0. -1.
         21    1    1    2  502  501 -0.23711310198E+02 -0.48364722888E+02 -0.32977561019E+03  0.33414566543E+03  0.00000000000E+00 0.  1.
<scales pt_clust_5="13000.00000" pt_clust_6="13000.00000" pt_clust_7="13000.00000" pt_clust_8="13000.00000" pt_clust_9="53.86439"></scales>
<clustering>
<clus scale="   53.864">  2  9  1 -1</clus>
<clus scale="   75.396">  5  6 -1 -1</clus>
<clus scale="  102.002">  7  8 -1 -1</clus>
<clus scale="  130.069">  1  5  2 -1</clus>
<clus scale="  130.069">  1  5  2 -1</clus>
</clustering>
</event>
<event>
 9    1  0.3846604E-005  0.1160586E+03  0.7546771E-02  0.1251998E+00
          1   -1    0    0  502    0  0.00000000000E+00  0.00000000000E+00  0.44537497164E+03  0.44537497164E+03  0.00000000000E+00 0. -1.
         -2   -1    0    0    0  501 -0.00000000000E+00 -0.00000000000E+00 -0.63611056278E+02  0.63611056278E+02  0.00000000000E+00 0.  1.
        -24    2    1    2    0    0  0.69652674983E+02  0.63110025578E+02  0.63954121405E+02  0.13839476810E+03  0.78921554292E+02 0.  0.
         23    2    1    2    0    0 -0.45476255893E+02 -0.58555565126E+02  0.32557477726E+03  0.34479324990E+03  0.85945363636E+02 0.  0.
         13    1    3    3    0    0 -0.67029546295E+01  0.43044176604E+02  0.26741231920E+02  0.51115792324E+02  0.00000000000E+00 0. -1.
        -14    1    3    3    0    0  0.76355629612E+02  0.20065848973E+02  0.37212889486E+02  0.87278975775E+02  0.00000000000E+00 0.  1.
        -11    1    4    4    0    0 -0.64041108977E+02 -0.27246926915E+02  0.26621835145E+03  0.27516516734E+03  0.00000000000E+00 0. -1.
         11    1    4    4    0    0  0.18564853083E+02 -0.31308638211E+02  0.59356425808E+02  0.69628082562E+02  0.00000000000E+00 0.  1.
         21    1    1    2  502  501 -0.24176419090E+02 -0.45544604513E+01 -0.77649833058E+01  0.25798009918E+02  0.00000000000E+00 0.  1.
<scales pt_clust_5="13000.00000" pt_clust_6="13000.00000" pt_clust_7="13000.00000" pt_clust_8="13000.00000" pt_clust_9="24.60167"></scales>
<clustering>
<clus scale="   24.602">  2  9  1 -1</clus>
<clus scale="   78.922">  5  6 -1 -1</clus>
<clus scale="   85.945">  7  8 -1 -1</clus>
<clus scale="  110.958">  2  5  1 -1</clus>
<clus scale="  116.059">  1  5  2 -1</clus>
</clustering>
</event>
<event>
 9    1  0.3846604E-005  0.1802378E+03  0.7546771E-02  0.1168982E+00
         -2   -1    0    0    0  501 -0.00000000000E+00  0.00000000000E+00  0.17384291883E+03  0.17384291883E+03  0.00000000000E+00 0.  1.
          1   -1    0    0  502    0  0.00000000000E+00 -0.00000000000E+00 -0.28526057450E+03  0.28526057450E+03  0.00000000000E+00 0. -1.
         23    2    1    2    0    0  0.90743833859E+02  0.10096002278E+03 -0.30779599308E+02  0.16628236871E+03  0.90967427286E+02 0.  0.
        -24    2    1    2    0    0 -0.69263958432E+02 -0.17510547691E+03 -0.55058950561E+02  0.21149939278E+03  0.79000513469E+02 0.  0.
         11    1    4    4    0    0 -0.45503823940E+02 -0.16391344572E+03 -0.25592186682E+02  0.17202667148E+03  0.00000000000E+00 0. -1.
        -12    1    4    4    0    0 -0.23760134492E+02 -0.11192031185E+02 -0.29466763880E+02  0.39472721298E+02  0.00000000000E+00 0.  1.
        -11    1    3    3    0    0  0.17789747351E+02  0.23134243652E+02  0.31353322838E+02  0.42833388766E+02  0.00000000000E+00 0.  1.
         11    1    3    3    0    0  0.72954086508E+02  0.77825779125E+02 -0.62132922146E+02  0.12344897994E+03  0.00000000000E+00 0. -1.
         21    1    1    2  502  501 -0.21479875427E+02  0.74145454128E+02 -0.25579105796E+02  0.81321731840E+02  0.00000000000E+00 0.  1.
<scales pt_clust_5="13000.00000" pt_clust_6="13000.00000" pt_clust_7="13000.00000" pt_clust_8="13000.00000" pt_clust_9="77.19413"></scales>
<clustering>
<clus scale="   77.194">  2  9  1 -1</clus>
<clus scale="   79.001">  5  6 -1 -1</clus>
<clus scale="   90.967">  7  8 -1 -1</clus>
<clus scale="  174.504">  2  5  1 -1</clus>
<clus scale="   77.194">  2  5  1 -1</clus>
</clustering>
</event>
<event>
 9    1  0.3846604E-005  0.1074680E+03  0.7546771E-02  0.1269318E+00
         -2   -1    0    0    0  501 -0.00000000000E+00  0.00000000000E+00  0.40380997332E+02  0.40380997332E+02  0.00000000000E+00 0.  1.
          1   -1    0    0  502    0  0.00000000000E+00 -0.00000000000E+00 -0.38935243412E+03  0.38935243412E+03  0.00000000000E+00 0. -1.
         23    2    1    2    0    0  0.25745892492E+02  0.64447065060E+02 -0.14300984857E+03  0.18259149149E+03  0.89841865534E+02 0.  0.
        -24    2    1    2    0    0 -0.54244033371E+01 -0.53798905864E+02 -0.20191012072E+03  0.22384471685E+03  0.80093782469E+02 0.  0.
         11    1    4    4    0    0 -0.28924455307E+02 -0.61055172564E+01 -0.23751006082E+02  0.37921125322E+02  0.00000000000E+00 0. -1.
        -12    1    4    4    0    0  0.23500051970E+02 -0.47693388607E+02 -0.17815911463E+03  0.18592359153E+03  0.00000000000E+00 0.  1.
        -13    1    3    3    0    0 -0.15331559283E+02  0.58966277230E+02 -0.12145372702E+03  0.13587894012E+03  0.00000000000E+00 0. -1.
         13    1    3    3    0    0  0.41077451775E+02  0.54807878307E+01 -0.21556121545E+02  0.46712551372E+02  0.00000000000E+00 0.  1.
         21    1    1    2  502  501 -0.20321489155E+02 -0.10648159197E+02 -0.40514675053E+01  0.23297223111E+02  0.00000000000E+00 0. -1.
<scales pt_clust_5="13000.00000" pt_clust_6="13000.00000" pt_clust_7="13000.00000" pt_clust_8="13000.00000" pt_clust_9="22.94224"></scales>
<clustering>
<clus scale="   22.942">  1  9  2 -1</clus>
<clus scale="   80.094">  5  6 -1 -1</clus>
<clus scale="   89.842">  7  8 -1 -1</clus>
<clus scale="   99.463">  2  5  1 -1</clus>
<clus scale="   99.463">  2  5  1 -1</clus>
</clustering>
</event>
<event>
 9    1  0.3846604E-005  0.1964548E+03  0.7546771E-02  0.1173914E+00
          1   -1    0    0  502    0  0.00000000000E+00  0.00000000000E+00  0.66447048307E+02  0.66447048307E+02  0.00000000000E+00 0. -1.
         -2   -1    0    0    0  501 -0.00000000000E+00 -0.00000000000E+00 -0.12162653702E+04  0.12162653702E+04  0.00000000000E+00 0.  1.
        -24    2    1    2    0    0  0.86109235474E+02  0.23473163490E+02 -0.31257431482E+03  0.33496676602E+03  0.80834659736E+02 0.  0.
         23    2    1    2    0    0 -0.11722514149E+03 -0.15305679164E+03 -0.18434679975E+03  0.28138623023E+03  0.89589914179E+02 0.  0.
         11    1    3    3    0    0  0.43111454010E+02 -0.29225907090E+02 -0.12362193309E+03  0.13414594087E+03  0.00000000000E+00 0. -1.
        -12    1    3    3    0    0  0.42997781464E+02  0.52699070580E+02 -0.18895238173E+03  0.20082082515E+03  0.00000000000E+00 0.  1.
        -13    1    4    4    0    0 -0.52456544367E+02 -0.14291050511E+02 -0.77459499184E+02  0.94635602103E+02  0.00000000000E+00 0.  1.
         13    1    4    4    0    0 -0.64768597119E+02 -0.13876574113E+03 -0.10688730057E+03  0.18675062813E+03  0.00000000000E+00 0. -1.
         21    1    1    2  502  501  0.31115906012E+02  0.12958362815E+03 -0.65289720728E+03  0.66635942221E+03  0.00000000000E+00 0.  1.
<scales pt_clust_5="13000.00000" pt_clust_6="13000.00000" pt_clust_7="13000.00000" pt_clust_8="13000.00000" pt_clust_9="174.83745"></scales>
<clustering>
<clus scale="   80.835">  5  6 -1 -1</clus>
<clus scale="   89.590">  7  8 -1 -1</clus>
<clus scale="  120.416">  2  5  1 -1</clus>
<clus scale="  174.837">  2  9  1 -1</clus>
<clus scale="  196.455">  1  5  2 -1</clus>
</clustering>
</event>
<event>
 9    1  0.3846604E-005  0.9230938E+02  0.7546771E-02  0.1302768E+00
         -2   -1    0    0    0  501 -0.00000000000E+00  0.00000000000E+00  0.69839993184E+02  0.69839993184E+02  0.00000000000E+00 0.  1.
          1   -1    0    0  502    0  0.00000000000E+00 -0.00000000000E+00 -0.30718594977E+03  0.30718594977E+03  0.00000000000E+00 0. -1.
        -24    2    1    2    0    0  0.46974827010E+02  0.17922857676E+02 -0.17090409432E+02  0.96842175468E+02  0.80984329687E+02 0.  0.
         23    2    1    2    0    0 -0.11417734210E+02  0.15758556360E+02 -0.21116705945E+03  0.23037066571E+03  0.90002332586E+02 0.  0.
         11    1    3    3    0    0  0.48851376301E+02 -0.23137596208E+02 -0.68812513576E+01  0.54489971050E+02  0.00000000000E+00 0. -1.
        -12    1    3    3    0    0 -0.18765492911E+01  0.41060453884E+02 -0.10209158075E+02  0.42352204417E+02  0.00000000000E+00 0.  1.
        -11    1    4    4    0    0  0.57659736520E+01 -0.36550897869E+02 -0.87215564961E+02  0.94740537040E+02  0.00000000000E+00 0. -1.
         11    1    4    4    0    0 -0.17183707862E+02  0.52309454229E+02 -0.12395149449E+03  0.13563012867E+03  0.00000000000E+00 0.  1.
         21    1    1    2  502  501 -0.35557092800E+02 -0.33681414036E+02 -0.90884877062E+01  0.49813101777E+02  0.00000000000E+00 0. -1.
<scales pt_clust_5="13000.00000" pt_clust_6="13000.00000" pt_clust_7="13000.00000" pt_clust_8="13000.00000" pt_clust_9="48.97698"></scales>
<clustering>
<clus scale="   48.977">  1  9  2 -1</clus>
<clus scale="   80.984">  5  6 -1 -1</clus>
<clus scale="   83.541">  1  5  2 -1</clus>
<clus scale="   90.002">  7  8 -1 -1</clus>
<clus scale="   92.309">  2  5  1 -1</clus>
</clustering>
</event>
<event>
 9    1  0.3846604E-005  0.1258068E+03  0.7546771E-02  0.1236882E+00
          1   -1    0    0  502    0  0.00000000000E+00  0.00000000000E+00  0.57842422949E+03  0.57842422949E+03  0.00000000000E+00 0. -1.
         -2   -1    0    0    0  501 -0.00000000000E+00 -0.00000000000E+00 -0.46525599045E+02  0.46525599045E+02  0.00000000000E+00 0.  1.
         23    2    1    2    0    0  0.65534727831E+02 -0.27364942428E+02  0.67369773488E+02  0.13415319023E+03  0.91731954326E+02 0.  0.
        -24    2    1    2    0    0 -0.73507988969E+02  0.52292602062E+02  0.43392544445E+03  0.45052841304E+03  0.80911179382E+02 0.  0.
         13    1    4    4    0    0 -0.83950663660E+02  0.20078116954E+02  0.33609676508E+03  0.34700415013E+03  0.00000000000E+00 0. -1.
        -14    1    4    4    0    0  0.10442674691E+02  0.32214485108E+02  0.97828679363E+02  0.10352426291E+03  0.00000000000E+00 0.  1.
        -13    1    3    3    0    0  0.53215106569E+02  0.26556948487E+02  0.44597624413E+02  0.74337522042E+02  0.00000000000E+00 0. -1.
         13    1    3    3    0    0  0.12319621262E+02 -0.53921890915E+02  0.22772149074E+02  0.59815668193E+02  0.00000000000E+00 0.  1.
         21    1    1    2  502  501  0.79732611378E+01 -0.24927659634E+02  0.30603412513E+02  0.40268225258E+02  0.00000000000E+00 0.  1.
<scales pt_clust_5="13000.00000" pt_clust_6="13000.00000" pt_clust_7="13000.00000" pt_clust_8="13000.00000" pt_clust_9="26.17176"></scales>
<clustering>
<clus scale="   26.172">  2  9  1 -1</clus>
<clus scale="   80.911">  5  6 -1 -1</clus>
<clus scale="   91.732">  7  8 -1 -1</clus>
<clus scale="  118.149">  1  5  2 -1</clus>
<clus scale="  118.149">  1  5  2 -1</clus>
</clustering>
</event>
<event>
 9    1  0.3846604E-005  0.1022857E+03  0.7546771E-02  0.1278773E+00
          1   -1    0    0  502    0  0.00000000000E+00  0.00000000000E+00  0.45767893001E+03  0.45767893001E+03  0.00000000000E+00 0. -1.
         -2   -1    0    0    0  501 -0.00000000000E+00 -0.00000000000E+00 -0.76973107283E+02  0.76973107283E+02  0.00000000000E+00 0.  1.
        -24    2    1    2    0    0  0.24860221569E+02 -0.84197181627E+01  0.59948330084E+01  0.88203991744E+02  0.83994546647E+02 0.  0.
         23    2    1    2    0    0 -0.32247834188E+02  0.39357360097E+02  0.39514182845E+03  0.40864416110E+03  0.90906882040E+02 0.  0.
         13    1    3    3    0    0 -0.16343339176E+02  0.23835607617E+02  0.18614601146E+02  0.34376507992E+02  0.00000000000E+00 0. -1.
        -14    1    3    3    0    0  0.41203560745E+02 -0.32255325780E+02 -0.12619768137E+02  0.53827483752E+02  0.00000000000E+00 0.  1.
        -13    1    4    4    0    0 -0.23123353966E+02 -0.27816543641E+02  0.12524734990E+03  0.13036620826E+03  0.00000000000E+00 0.  1.
         13    1    4    4    0    0 -0.91244802226E+01  0.67173903738E+02  0.26989447855E+03  0.27827795283E+03  0.00000000000E+00 0. -1.
         21    1    1    2  502  501  0.73876126196E+01 -0.30937641934E+02 -0.20430838730E+02  0.37803884455E+02  0.00000000000E+00 0.  1.
<scales pt_clust_5="13000.00000" pt_clust_6="13000.00000" pt_clust_7="13000.00000" pt_clust_8="13000.00000" pt_clust_9="31.80746"></scales>
<clustering>
<clus scale="   31.807">  2  9  1 -1</clus>
<clus scale="   83.995">  5  6 -1 -1</clus>
<clus scale="   90.907">  7  8 -1 -1</clus>
<clus scale="   96.194">  2  5  1 -1</clus>
<clus scale="  102.286">  1  5  2 -1</clus>
</clustering>
</event>
<event>
 9    1  0.3846604E-005  0.9872271E+02  0.7546771E-02  0.1289215E+00
         -2   -1    0    0    0  501 -0.00000000000E+00  0.00000000000E+00  0.56596448727E+03  0.56596448727E+03  0.00000000000E+00 0.  1.
          1   -1    0    0  502    0  0.00000000000E+00 -0.00000000000E+00 -0.17956027804E+03  0.17956027804E+03  0.00000000000E+00 0. -1.
         23    2    1    2    0    0  0.65803441232E+02  0.13349329840E+02  0.28762601820E+03  0.30889802214E+03  0.90448682945E+02 0.  0.
        -24    2    1    2    0    0 -0.35288145110E+02  0.16565382212E+02 -0.15567538575E+03  0.17860989096E+03  0.78402821042E+02 0.  0.
         13    1    4    4    0    0 -0.40398671912E+02  0.43885510071E+02 -0.10182634921E+03  0.11801099983E+03  0.00000000000E+00 0. -1.
        -14    1    4    4    0    0  0.51105268020E+01 -0.27320127859E+02 -0.53849036541E+02  0.60598891136E+02  0.00000000000E+00 0.  1.
        -11    1    3    3    0    0  0.62958833055E+02  0.37787061089E+02  0.26662399407E+03  0.27655023207E+03  0.00000000000E+00 0.  1.
         11    1    3    3    0    0  0.28446081766E+01 -0.24437731249E+02  0.21002024134E+02  0.32347790064E+02  0.00000000000E+00 0. -1.
         21    1    1    2  502  501 -0.30515296122E+02 -0.29914712052E+02  0.25445357677E+03  0.25801685222E+03  0.00000000000E+00 0.  1.
<scales pt_clust_5="13000.00000" pt_clust_6="13000.00000" pt_clust_7="13000.00000" pt_clust_8="13000.00000" pt_clust_9="42.73258"></scales>
<clustering>
<clus scale="   42.733">  1  9  2 -1</clus>
<clus scale="   78.403">  5  6 -1 -1</clus>
<clus scale="   87.819">  2  5  1 -1</clus>
<clus scale="   90.449">  7  8 -1 -1</clus>
<clus scale="   87.819">  2  5  1 -1</clus>
</clustering>
</event>
<event>
 9    1  0.3846604E-005  0.1224268E+03  0.7546771E-02  0.1239866E+00
          1   -1    0    0  502    0  0.00000000000E+00  0.00000000000E+00  0.27881495951E+03  0.27881495951E+03  0.00000000000E+00 0. -1.
         -2   -1    0    0    0  501 -0.00000000000E+00 -0.00000000000E+00 -0.10367145132E+03  0.10367145132E+03  0.00000000000E+00 0.  1.
        -24    2    1    2    0    0  0.93218665466E+02 -0.35352870640E+02 -0.10663512531E+02  0.12837213379E+03  0.80163265785E+02 0.  0.
         23    2    1    2    0    0 -0.73649337484E+02  0.48650670943E+02  0.19435176787E+03  0.22895870520E+03  0.82815254138E+02 0.  0.
         11    1    3    3    0    0  0.21702971835E+02 -0.48730858520E+02 -0.15218213810E+02  0.55473503497E+02  0.00000000000E+00 0. -1.
        -12    1    3    3    0    0  0.71515693631E+02  0.13377987881E+02  0.45547012796E+01  0.72898630296E+02  0.00000000000E+00 0.  1.
        -13    1    4    4    0    0 -0.10620623522E+02  0.24716845023E+02  0.42246494668E+01  0.27231741314E+02  0.00000000000E+00 0.  1.
         13    1    4    4    0    0 -0.63028713962E+02  0.23933825920E+02  0.19012711840E+03  0.20172696388E+03  0.00000000000E+00 0. -1.
         21    1    1    2  502  501 -0.19569327982E+02 -0.13297800303E+02 -0.85447471525E+01  0.25155571838E+02  0.00000000000E+00 0. -1.
<scales pt_clust_5="13000.00000" pt_clust_6="13000.00000" pt_clust_7="13000.00000" pt_clust_8="13000.00000" pt_clust_9="23.65988"></scales>
<clustering>
<clus scale="   23.660">  2  9  1 -1</clus>
<clus scale="   80.163">  5  6 -1 -1</clus>
<clus scale="   82.815">  7  8 -1 -1</clus>
<clus scale="  120.649">  2  5  1 -1</clus>
<clus scale="  122.427">  1  5  2 -1</clus>
</clustering>
</event>
<event>
 9    1  0.3846604E-005  0.1024595E+03  0.7546771E-02  0.1282406E+00
          3   -1    0    0  502    0  0.00000000000E+00  0.00000000000E+00  0.15898720374E+03  0.15898720374E+03  0.00000000000E+00 0. -1.
         -4   -1    0    0    0  501 -0.00000000000E+00 -0.00000000000E+00 -0.18268547776E+03  0.18268547776E+03  0.00000000000E+00 0.  1.
        -24    2    1    2    0    0  0.39221823604E+02 -0.62440514076E+01 -0.13822475499E+02  0.90415271423E+02  0.80040744954E+02 0.  0.
         23    2    1    2    0    0 -0.38088405403E+02 -0.16562449246E+02  0.97200864192E+02  0.14177301481E+03  0.94480359747E+02 0.  0.
         11    1    3    3    0    0  0.84306986328E+01  0.36058132377E+02 -0.57852520865E+01  0.37479790977E+02  0.00000000000E+00 0. -1.
        -12    1    3    3    0    0  0.30791124972E+02 -0.42302183784E+02 -0.80372234121E+01  0.52935480447E+02  0.00000000000E+00 0.  1.
        -11    1    4    4    0    0 -0.36859884280E+02  0.87831190526E+01 -0.33783525521E+01  0.38042180739E+02  0.00000000000E+00 0.  1.
         11    1    4    4    0    0 -0.12285211234E+01 -0.25345568298E+02  0.10057921674E+03  0.10373083407E+03  0.00000000000E+00 0. -1.
         21    1    1    2  502  501 -0.11334182008E+01  0.22806500653E+02 -0.10707666271E+03  0.10948439526E+03  0.00000000000E+00 0.  1.
<scales pt_clust_5="13000.00000" pt_clust_6="13000.00000" pt_clust_7="13000.00000" pt_clust_8="13000.00000" pt_clust_9="22.83465"></scales>
<clustering>
<clus scale="   22.835">  2  9  1 -1</clus>
<clus scale="   80.041">  5  6 -1 -1</clus>
<clus scale="   89.319">  2  5  1 -1</clus>
<clus scale="   94.480">  7  8 -1 -1</clus>
<clus scale="  102.459">  1  5  2 -1</clus>
</clustering>
</event>
<event>
 9    1  0.3846604E-005  0.1460963E+03  0.7546771E-02  0.1207938E+00
          1   -1    0    0  502    0  0.00000000000E+00  0.00000000000E+00  0.29469341756E+03  0.29469341756E+03  0.00000000000E+00 0. -1.
         -2   -1    0    0    0  501 -0.00000000000E+00 -0.00000000000E+00 -0.88452964902E+02  0.88452964902E+02  0.00000000000E+00 0.  1.
        -24    2    1    2    0    0 -0.11211193010E+03 -0.37291548409E+02  0.30370156492E+02  0.14556097613E+03  0.79409740674E+02 0.  0.
         23    2    1    2    0    0  0.10120057119E+03  0.19764699936E+02  0.15950675493E+03  0.21124126747E+03  0.92456850686E+02 0.  0.
         13    1    3    3    0    0 -0.67858027956E+02  0.15687322787E+02  0.31689524331E+02  0.76518167821E+02  0.00000000000E+00 0. -1.
        -14    1    3    3    0    0 -0.44253902145E+02 -0.52978871196E+02 -0.13193678387E+01  0.69042808314E+02  0.00000000000E+00 0.  1.
        -13    1    4    4    0    0  0.87696528301E+02 -0.24780780631E+02  0.94438856986E+02  0.13123820280E+03  0.00000000000E+00 0.  1.
         13    1    4    4    0    0  0.13504042894E+02  0.44545480568E+02  0.65067897949E+02  0.80003064672E+02  0.00000000000E+00 0. -1.
         21    1    1    2  502  501  0.10911358907E+02  0.17526848473E+02  0.16363541234E+02  0.26344138861E+02  0.00000000000E+00 0.  1.
<scales pt_clust_5="13000.00000" pt_clust_6="13000.00000" pt_clust_7="13000.00000" pt_clust_8="13000.00000" pt_clust_9="20.64578"></scales>
<clustering>
<clus scale="   20.646">  1  9  2 -1</clus>
<clus scale="   79.410">  5  6 -1 -1</clus>
<clus scale="   92.457">  7  8 -1 -1</clus>
<clus scale="  138.209">  2  5  1 -1</clus>
<clus scale="   20.646">  1  5  2 -1</clus>
</clustering>
</event>
<event>
 9    1  0.3846604E-005  0.2100724E+03  0.7546771E-02  0.1141816E+00
         -2   -1    0    0    0  501 -0.00000000000E+00  0.00000000000E+00  0.29393209721E+03  0.29393209721E+03  0.00000000000E+00 0.  1.
          1   -1    0    0  502    0  0.00000000000E+00 -0.00000000000E+00 -0.48533863727E+03  0.48533863727E+03  0.00000000000E+00 0. -1.
        -24    2    1    2    0    0  0.17425537409E+03 -0.50870196242E+00  0.11625731902E+03  0.22605922382E+03  0.84981258362E+02 0.  0.
         23    2    1    2    0    0 -0.18017017351E+03 -0.74384377006E+02 -0.38802597749E+03  0.44320229194E+03  0.88711810979E+02 0.  0.
         13    1    3    3    0    0  0.53159655649E+02  0.14786287013E+02  0.82796624106E+02  0.99498061467E+02  0.00000000000E+00 0. -1.
        -14    1    3    3    0    0  0.12109571844E+03 -0.15294988975E+02  0.33460694910E+02  0.12656116235E+03  0.00000000000E+00 0.  1.
        -11    1    4    4    0    0 -0.10416552958E+03 -0.57412197894E+01 -0.25351355154E+03  0.27413963590E+03  0.00000000000E+00 0.  1.
         11    1    4    4    0    0 -0.76004643927E+02 -0.68643157216E+02 -0.13451242595E+03  0.16906265604E+03  0.00000000000E+00 0. -1.
         21    1    1    2  502  501  0.59147994182E+01  0.74893078968E+02  0.80362118408E+02  0.11000921873E+03  0.00000000000E+00 0.  1.
<scales pt_clust_5="13000.00000" pt_clust_6="13000.00000" pt_clust_7="13000.00000" pt_clust_8="13000.00000" pt_clust_9="75.12628"></scales>
<clustering>
<clus scale="   75.126">  1  9  2 -1</clus>
<clus scale="   84.981">  5  6 -1 -1</clus>
<clus scale="   88.712">  7  8 -1 -1</clus>
<clus scale="  208.524">  1  5  2 -1</clus>
<clus scale="  210.072">  2  5  1 -1</clus>
</clustering>
</event>
<event>
 9    1  0.3846604E-005  0.9589778E+02  0.7546771E-02  0.1295355E+00
          1   -1    0    0  502    0  0.00000000000E+00  0.00000000000E+00  0.55149377743E+03  0.55149377743E+03  0.00000000000E+00 0. -1.
         -2   -1    0    0    0  501 -0.00000000000E+00 -0.00000000000E+00 -0.32991311303E+02  0.32991311303E+02  0.00000000000E+00 0.  1.
        -24    2    1    2    0    0 -0.31503866471E+02 -0.15318672010E+02  0.73568774165E+02  0.11497291236E+03  0.81112580586E+02 0.  0.
         23    2    1    2    0    0  0.24583089773E+02 -0.12318398609E+02  0.42239237898E+03  0.43318290975E+03  0.92065412793E+02 0.  0.
         13    1    3    3    0    0  0.95837175722E+01  0.21153723906E+02  0.50117975616E+02  0.55237117570E+02  0.00000000000E+00 0. -1.
        -14    1    3    3    0    0 -0.41087584043E+02 -0.36472395916E+02  0.23450798548E+02  0.59735794788E+02  0.00000000000E+00 0.  1.
        -13    1    4    4    0    0 -0.34206096851E+01 -0.48043416251E+02  0.16781054426E+03  0.17458593638E+03  0.00000000000E+00 0.  1.
         13    1    4    4    0    0  0.28003699458E+02  0.35725017642E+02  0.25458183472E+03  0.25859697337E+03  0.00000000000E+00 0. -1.
         21    1    1    2  502  501  0.69207766984E+01  0.27637070619E+02  0.22541312987E+02  0.36329266628E+02  0.00000000000E+00 0.  1.
<scales pt_clust_5="13000.00000" pt_clust_6="13000.00000" pt_clust_7="13000.00000" pt_clust_8="13000.00000" pt_clust_9="28.49043"></scales>
<clustering>
<clus scale="   28.490">  2  9  1 -1</clus>
<clus scale="   81.113">  5  6 -1 -1</clus>
<clus scale="   85.438">  2  5  1 -1</clus>
<clus scale="   92.065">  7  8 -1 -1</clus>
<clus scale="   95.898">  1  5  2 -1</clus>
</clustering>
</event>
<event>
 9    1  0.3846604E-005  0.1149076E+03  0.7546771E-02  0.1257357E+00
          1   -1    0    0  502    0  0.00000000000E+00  0.00000000000E+00  0.27991906025E+03  0.27991906025E+03  0.00000000000E+00 0. -1.
         -2   -1    0    0    0  501 -0.00000000000E+00 -0.00000000000E+00 -0.19374195419E+03  0.19374195419E+03  0.00000000000E+00 0.  1.
         23    2    1    2    0    0  0.20214749488E+02  0.18022062404E+02 -0.12925474529E+03  0.16318975767E+03  0.95868018640E+02 0.  0.
        -24    2    1    2    0    0 -0.44265436790E+02 -0.49010349126E+02  0.24166350245E+03  0.26328217972E+03  0.80961809048E+02 0.  0.
         11    1    4    4    0    0 -0.62934194586E+02 -0.14307023140E+02  0.13683813466E+03  0.15129467557E+03  0.00000000000E+00 0. -1.
        -12    1    4    4    0    0  0.18668757796E+02 -0.34703325986E+02  0.10482536779E+03  0.11198750415E+03  0.00000000000E+00 0.  1.
        -11    1    3    3    0    0  0.54419618783E+00 -0.27294616363E+02 -0.28187543937E+01  0.27445174589E+02  0.00000000000E+00 0. -1.
         11    1    3    3    0    0  0.19670553300E+02  0.45316678767E+02 -0.12643599089E+03  0.13574458308E+03  0.00000000000E+00 0.  1.
         21    1    1    2  502  501  0.24050687302E+02  0.30988286722E+02 -0.26231651104E+02  0.47189077055E+02  0.00000000000E+00 0.  1.
<scales pt_clust_5="13000.00000" pt_clust_6="13000.00000" pt_clust_7="13000.00000" pt_clust_8="13000.00000" pt_clust_9="39.22639"></scales>
<clustering>
<clus scale="   39.226">  2  9  1 -1</clus>
<clus scale="   80.962">  5  6 -1 -1</clus>
<clus scale="   95.868">  7  8 -1 -1</clus>
<clus scale="  102.800">  1  5  2 -1</clus>
<clus scale="  102.800">  1  5  2 -1</clus>
</clustering>
</event>
<event>
 9    1  0.3846604E-005  0.9406584E+02  0.7546771E-02  0.1297899E+00
          1   -1    0    0  502    0  0.00000000000E+00  0.00000000000E+00  0.36257541828E+03  0.36257541828E+03  0.00000000000E+00 0. -1.
         -2   -1    0    0    0  501 -0.00000000000E+00 -0.00000000000E+00 -0.79374660349E+02  0.79374660349E+02  0.00000000000E+00 0.  1.
         23    2    1    2    0    0 -0.74199314617E+02  0.29675203759E+02  0.89072542732E+01  0.11990651638E+03  0.88949859381E+02 0.  0.
        -24    2    1    2    0    0  0.22855313536E+02  0.14260466840E+02  0.21820342517E+03  0.23422188780E+03  0.80755381857E+02 0.  0.
         13    1    4    4    0    0 -0.26788128046E+02  0.22152110160E+02  0.83602685607E+02  0.90541310071E+02  0.00000000000E+00 0. -1.
        -14    1    4    4    0    0  0.49643441582E+02 -0.78916433198E+01  0.13460073956E+03  0.14368057773E+03  0.00000000000E+00 0.  1.
        -13    1    3    3    0    0 -0.83414236812E+02  0.42240135524E+01 -0.13702719765E+02  0.84637708631E+02  0.00000000000E+00 0.  1.
         13    1    3    3    0    0  0.92149221952E+01  0.25451190207E+02  0.22609974038E+02  0.35268807749E+02  0.00000000000E+00 0. -1.
         21    1    1    2  502  501  0.51344001080E+02 -0.43935670599E+02  0.56090078495E+02  0.87821674452E+02  0.00000000000E+00 0.  1.
<scales pt_clust_5="13000.00000" pt_clust_6="13000.00000" pt_clust_7="13000.00000" pt_clust_8="13000.00000" pt_clust_9="67.57625"></scales>
<clustering>
<clus scale="   67.576">  2  9  1 -1</clus>
<clus scale="   80.755">  5  6 -1 -1</clus>
<clus scale="   86.358">  1  5  2 -1</clus>
<clus scale="   88.950">  7  8 -1 -1</clus>
<clus scale="   86.358">  1  5  2 -1</clus>
</clustering>
</event>
<event>
 9    1  0.3846604E-005  0.1049898E+03  0.7546771E-02  0.1274374E+00
         -2   -1    0    0    0  501 -0.00000000000E+00  0.00000000000E+00  0.30318910717E+03  0.30318910717E+03  0.00000000000E+00 0.  1.
          1   -1    0    0  502    0  0.00000000000E+00 -0.00000000000E+00 -0.61008211206E+02  0.61008211206E+02  0.00000000000E+00 0. -1.
        -24    2    1    2    0    0  0.49920052435E+02  0.48828967975E+02  0.12578793247E+03  0.16511508141E+03  0.81019173077E+02 0.  0.
         23    2    1    2    0    0  0.61667995154E+01 -0.51510296067E+02  0.65577388113E+02  0.12335148242E+03  0.90685469436E+02 0.  0.
         11    1    3    3    0    0  0.53588797281E+02 -0.11394228677E+01  0.44684262432E+02  0.69783528054E+02  0.00000000000E+00 0. -1.
        -12    1    3    3    0    0 -0.36687448463E+01  0.49968390843E+02  0.81103670035E+02  0.95331553356E+02  0.00000000000E+00 0.  1.
        -11    1    4    4    0    0 -0.14950962501E+02  0.18123759517E+02  0.39681070057E+02  0.46114957005E+02  0.00000000000E+00 0.  1.
         11    1    4    4    0    0  0.21117762016E+02 -0.69634055584E+02  0.25896318056E+02  0.77236525417E+02  0.00000000000E+00 0. -1.
         21    1    1    2  502  501 -0.56086851951E+02  0.26813280921E+01  0.50815575384E+02  0.75730754543E+02  0.00000000000E+00 0. -1.
<scales pt_clust_5="13000.00000" pt_clust_6="13000.00000" pt_clust_7="13000.00000" pt_clust_8="13000.00000" pt_clust_9="56.15091"></scales>
<clustering>
<clus scale="   56.151">  1  9  2 -1</clus>
<clus scale="   81.019">  5  6 -1 -1</clus>
<clus scale="   90.685">  7  8 -1 -1</clus>
<clus scale="   96.763">  1  5  2 -1</clus>
<clus scale="  104.990">  2  5  1 -1</clus>
</clustering>
</event>
<event>
 9    1  0.3846604E-005  0.1341256E+03  0.7546771E-02  0.1224811E+00
          1   -1    0    0  502    0  0.00000000000E+00  0.00000000000E+00  0.82392664939E+03  0.82392664939E+03  0.00000000000E+00 0. -1.
         -2   -1    0    0    0  501 -0.00000000000E+00 -0.00000000000E+00 -0.15894185875E+03  0.15894185875E+03  0.00000000000E+00 0.  1.
         23    2    1    2    0    0  0.10553739351E+03 -0.10473529995E+02 -0.12278173530E+03  0.17495288000E+03  0.65462351294E+02 0.  0.
        -24    2    1    2    0    0 -0.12213614086E+03 -0.82124280822E+01  0.73455074689E+03  0.74912274947E+03  0.81458045295E+02 0.  0.
         11    1    4    4    0    0 -0.12125742316E+03  0.95246758813E+01  0.52884852441E+03  0.54265536383E+03  0.00000000000E+00 0. -1.
        -12    1    4    4    0    0 -0.87871770265E+00 -0.17737103963E+02  0.20570222248E+03  0.20646738565E+03  0.00000000000E+00 0.  1.
        -11    1    3    3    0    0  0.24362056666E+02 -0.29987413654E+02 -0.23451750147E+02  0.45196674298E+02  0.00000000000E+00 0. -1.
         11    1    3    3    0    0  0.81175336844E+02  0.19513883659E+02 -0.99329985149E+02  0.12975620570E+03  0.00000000000E+00 0.  1.
         21    1    1    2  502  501  0.16598747352E+02  0.18685958077E+02  0.53215779050E+02  0.58792878674E+02  0.00000000000E+00 0.  1.
<scales pt_clust_5="13000.00000" pt_clust_6="13000.00000" pt_clust_7="13000.00000" pt_clust_8="13000.00000" pt_clust_9="24.99367"></scales>
<clustering>
<clus scale="   24.994">  1  9  2 -1</clus>
<clus scale="   65.462">  7  8 -1 -1</clus>
<clus scale="   81.458">  5  6 -1 -1</clus>
<clus scale="  125.058">  2  7  1 -1</clus>
<clus scale="   24.994">  1  5  2 -1</clus>
</clustering>
</event>
<event>
 9    1  0.3846604E-005  0.1141209E+03  0.7546771E-02  0.1256619E+00
         -2   -1    0    0    0  501 -0.00000000000E+00  0.00000000000E+00  0.22888189148E+03  0.22888189148E+03  0.00000000000E+00 0.  1.
          1   -1    0    0  502    0  0.00000000000E+00 -0.00000000000E+00 -0.95282026818E+02  0.95282026818E+02  0.00000000000E+00 0. -1.
         23    2    1    2    0    0 -0.12499179553E+02 -0.50510399308E+02  0.13943185809E+03  0.17399992678E+03  0.90150993006E+02 0.  0.
        -24    2    1    2    0    0  0.26121173699E+02  0.70021241974E+02 -0.32537535224E+02  0.11439504313E+03  0.80263594813E+02 0.  0.
         13    1    4    4    0    0  0.52259039107E+02  0.64278146868E+02 -0.26305804033E+02  0.86917677483E+02  0.00000000000E+00 0. -1.
        -14    1    4    4    0    0 -0.26137865409E+02  0.57430951061E+01 -0.62317311914E+01  0.27477365652E+02  0.00000000000E+00 0.  1.
        -11    1    3    3    0    0 -0.70104730672E+01 -0.75335268795E+02  0.12056742799E+03  0.14234132973E+03  0.00000000000E+00 0.  1.
         11    1    3    3    0    0 -0.54887064856E+01  0.24824869487E+02  0.18864430098E+02  0.31658597045E+02  0.00000000000E+00 0. -1.
         21    1    1    2  502  501 -0.13621994146E+02 -0.19510842666E+02  0.26705541798E+02  0.35768948388E+02  0.00000000000E+00 0. -1.
<scales pt_clust_5="13000.00000" pt_clust_6="13000.00000" pt_clust_7="13000.00000" pt_clust_8="13000.00000" pt_clust_9="23.79562"></scales>
<clustering>
<clus scale="   23.796">  1  9  2 -1</clus>
<clus scale="   80.264">  5  6 -1 -1</clus>
<clus scale="   90.151">  7  8 -1 -1</clus>
<clus scale="  106.483">  2  5  1 -1</clus>
<clus scale="  106.483">  2  5  1 -1</clus>
</clustering>
</event>
<event>
 9    1  0.3846604E-005  0.1143815E+03  0.7546771E-02  0.1254459E+00
         -2   -1    0    0    0  501 -0.00000000000E+00  0.00000000000E+00  0.34790977158E+03  0.34790977158E+03  0.00000000000E+00 0.  1.
          1   -1    0    0  502    0  0.00000000000E+00 -0.00000000000E+00 -0.17655454075E+03  0.17655454075E+03  0.00000000000E+00 0. -1.
         23    2    1    2    0    0 -0.62963079715E+02 -0.68706149262E+02  0.17780891279E+03  0.22051763335E+03  0.91253124872E+02 0.  0.
        -24    2    1    2    0    0  0.60084947840E+02  0.29914153525E+02 -0.13268159524E+03  0.17186114355E+03  0.86178822283E+02 0.  0.
         13    1    4    4    0    0  0.32347760239E+02 -0.28752748520E+02 -0.65048714053E+02  0.78130873154E+02  0.00000000000E+00 0. -1.
        -14    1    4    4    0    0  0.27737187601E+02  0.58666902044E+02 -0.67632881188E+02  0.93730270400E+02  0.00000000000E+00 0.  1.
        -11    1    3    3    0    0  0.16100829751E+01 -0.39275346112E+02  0.13538389736E+02  0.41574429353E+02  0.00000000000E+00 0. -1.
         11    1    3    3    0    0 -0.64573162690E+02 -0.29430803151E+02  0.16427052305E+03  0.17894320400E+03  0.00000000000E+00 0.  1.
         21    1    1    2  502  501  0.28781318753E+01  0.38791995738E+02  0.12622791328E+03  0.13208553542E+03  0.00000000000E+00 0.  1.
<scales pt_clust_5="13000.00000" pt_clust_6="13000.00000" pt_clust_7="13000.00000" pt_clust_8="13000.00000" pt_clust_9="38.89862"></scales>
<clustering>
<clus scale="   38.899">  1  9  2 -1</clus>
<clus scale="   86.179">  5  6 -1 -1</clus>
<clus scale="   91.253">  7  8 -1 -1</clus>
<clus scale="  110.376">  2  5  1 -1</clus>
<clus scale="  110.376">  2  5  1 -1</clus>
</clustering>
</event>
<event>
 9    1  0.3846604E-005  0.1207453E+03  0.7546771E-02  0.1245318E+00
          1   -1    0    0  502    0  0.00000000000E+00  0.00000000000E+00  0.56219086460E+03  0.56219086460E+03  0.00000000000E+00 0. -1.
         -2   -1    0    0    0  501 -0.00000000000E+00 -0.00000000000E+00 -0.87329605929E+02  0.87329605929E+02  0.00000000000E+00 0.  1.
        -24    2    1    2    0    0 -0.49040669308E+02 -0.70567410293E+01 -0.11645519292E+02  0.94592555107E+02  0.79732982648E+02 0.  0.
         23    2    1    2    0    0  0.64405866745E+02  0.55492646620E+02  0.48848032374E+03  0.50407497917E+03  0.90835061737E+02 0.  0.
         13    1    3    3    0    0  0.49542368201E+01 -0.33270516190E+02 -0.72519154031E+01  0.34410201787E+02  0.00000000000E+00 0. -1.
        -14    1    3    3    0    0 -0.53994906128E+02  0.26213775161E+02 -0.43936038885E+01  0.60182353320E+02  0.00000000000E+00 0.  1.
        -11    1    4    4    0    0 -0.75935132841E+01 -0.18999991393E+02  0.67409336920E+02  0.70446290328E+02  0.00000000000E+00 0.  1.
         11    1    4    4    0    0  0.71999380029E+02  0.74492638013E+02  0.42107098682E+03  0.43362868884E+03  0.00000000000E+00 0. -1.
         21    1    1    2  502  501 -0.15365197437E+02 -0.48435905591E+02 -0.19735457793E+01  0.50852936254E+02  0.00000000000E+00 0. -1.
<scales pt_clust_5="13000.00000" pt_clust_6="13000.00000" pt_clust_7="13000.00000" pt_clust_8="13000.00000" pt_clust_9="50.81463"></scales>
<clustering>
<clus scale="   50.815">  2  9  1 -1</clus>
<clus scale="   79.733">  5  6 -1 -1</clus>
<clus scale="   90.835">  7  8 -1 -1</clus>
<clus scale="  112.631">  2  5  1 -1</clus>
<clus scale="  120.745">  1  5  2 -1</clus>
</clustering>
</event>
<event>
 9    1  0.3846604E-005  0.1438631E+03  0.7546771E-02  0.1210310E+00
          1   -1    0    0  502    0  0.00000000000E+00  0.00000000000E+00  0.41485292086E+02  0.41485292086E+02  0.00000000000E+00 0. -1.
         -2   -1    0    0    0  501 -0.00000000000E+00 -0.00000000000E+00 -0.57173306067E+03  0.57173306067E+03  0.00000000000E+00 0.  1.
        -24    2    1    2    0    0  0.11735266182E+03  0.40614300072E+01 -0.27965813550E+03  0.31376855856E+03  0.80336125997E+02 0.  0.
         23    2    1    2    0    0 -0.10707174489E+03  0.14722598369E+02 -0.20235805744E+03  0.24667838276E+03  0.90666022613E+02 0.  0.
         11    1    3    3    0    0  0.44493069081E+02  0.17509493161E+02 -0.38203515603E+02  0.61202321454E+02  0.00000000000E+00 0. -1.
        -12    1    3    3    0    0  0.72859592744E+02 -0.13448063154E+02 -0.24145461990E+03  0.25256623711E+03  0.00000000000E+00 0.  1.
        -11    1    4    4    0    0 -0.31453394153E+02  0.69170220554E+01 -0.15227514967E+03  0.15564344639E+03  0.00000000000E+00 0.  1.
         11    1    4    4    0    0 -0.75618350736E+02  0.78055763136E+01 -0.50082907767E+02  0.91034936370E+02  0.00000000000E+00 0. -1.
         21    1    1    2  502  501 -0.10280916936E+02 -0.18784028376E+02 -0.48231575650E+02  0.52771411434E+02  0.00000000000E+00 0.  1.
<scales pt_clust_5="13000.00000" pt_clust_6="13000.00000" pt_clust_7="13000.00000" pt_clust_8="13000.00000" pt_clust_9="21.41348"></scales>
<clustering>
<clus scale="   21.413">  2  9  1 -1</clus>
<clus scale="   80.336">  5  6 -1 -1</clus>
<clus scale="   90.666">  7  8 -1 -1</clus>
<clus scale="  137.587">  2  5  1 -1</clus>
<clus scale="  143.863">  1  5  2 -1</clus>
</clustering>
</event>
<event>
 9    1  0.6531473E-005  0.9810208E+02  0.7546771E-02  0.1289977E+00
         -2   -1    0    0    0  501 -0.00000000000E+00  0.00000000000E+00  0.36710963012E+03  0.36710963012E+03  0.00000000000E+00 0.  1.
          1   -1    0    0  502    0  0.00000000000E+00 -0.00000000000E+00 -0.31217230784E+03  0.31217230784E+03  0.00000000000E+00 0. -1.
         23    2    1    2    0    0 -0.60654656616E+00  0.31131243682E+02  0.28085964610E+03  0.29662908028E+03  0.90206142957E+02 0.  0.
        -24    2    1    2    0    0 -0.37381252676E+02 -0.11901674085E+02 -0.29140013837E+03  0.30454912258E+03  0.79354391967E+02 0.  0.
         11    1    4    4    0    0 -0.27898333374E+02  0.32410966070E+02 -0.12633610839E+03  0.13337765933E+03  0.00000000000E+00 0. -1.
        -12    1    4    4    0    0 -0.94829193024E+01 -0.44312640155E+02 -0.16506402999E+03  0.17117146325E+03  0.00000000000E+00 0.  1.
        -11    1    3    3    0    0  0.37087946085E+02  0.10531004127E+01  0.19175658335E+03  0.19531311278E+03  0.00000000000E+00 0.  1.
         11    1    3    3    0    0 -0.37694492652E+02  0.30078143269E+02  0.89103062746E+02  0.10131596750E+03  0.00000000000E+00 0. -1.
         21    1    1    2  502  501  0.37987799242E+02 -0.19229569597E+02  0.65477814558E+02  0.78103735105E+02  0.00000000000E+00 0.  1.
<scales pt_clust_5="13000.00000" pt_clust_6="13000.00000" pt_clust_7="13000.00000" pt_clust_8="13000.00000" pt_clust_9="42.57757"></scales>
<clustering>
<clus scale="   42.578">  1  9  2 -1</clus>
<clus scale="   79.354">  5  6 -1 -1</clus>
<clus scale="   88.227">  2  5  1 -1</clus>
<clus scale="   90.206">  7  8 -1 -1</clus>
<clus scale="   88.227">  2  5  1 -1</clus>
</clustering>
</event>
<event>
 9    1  0.3846604E-005  0.1050703E+03  0.7546771E-02  0.1275527E+00
          1   -1    0    0  502    0  0.00000000000E+00  0.00000000000E+00  0.60451113981E+03  0.60451113981E+03  0.00000000000E+00 0. -1.
         -2   -1    0    0    0  501 -0.00000000000E+00 -0.00000000000E+00 -0.92464866898E+02  0.92464866898E+02  0.00000000000E+00 0.  1.
         23    2    1    2    0    0 -0.41802994952E+02  0.58266292725E+02 -0.25697620705E+02  0.11818734802E+03  0.90362770365E+02 0.  0.
        -24    2    1    2    0    0  0.13946199221E+02 -0.50955083472E+02  0.54163308425E+03  0.54972698886E+03  0.77733180284E+02 0.  0.
         11    1    4    4    0    0  0.30958454747E+01 -0.70948784422E+02  0.42575499980E+03  0.43163715564E+03  0.00000000000E+00 0. -1.
        -12    1    4    4    0    0  0.10850353746E+02  0.19993700950E+02  0.11587808445E+03  0.11808983322E+03  0.00000000000E+00 0.  1.
        -11    1    3    3    0    0 -0.53520308406E+02  0.76558178032E+02 -0.17921184359E+02  0.95114388419E+02  0.00000000000E+00 0. -1.
         11    1    3    3    0    0  0.11717313454E+02 -0.18291885307E+02 -0.77764363466E+01  0.23072959605E+02  0.00000000000E+00 0.  1.
         21    1    1    2  502  501  0.27856795731E+02 -0.73112092529E+01 -0.38891906371E+01  0.29061669824E+02  0.00000000000E+00 0.  1.
<scales pt_clust_5="13000.00000" pt_clust_6="13000.00000" pt_clust_7="13000.00000" pt_clust_8="13000.00000" pt_clust_9="28.80026"></scales>
<clustering>
<clus scale="   28.800">  2  9  1 -1</clus>
<clus scale="   77.733">  5  6 -1 -1</clus>
<clus scale="   90.363">  7  8 -1 -1</clus>
<clus scale="   94.429">  1  5  2 -1</clus>
<clus scale="   94.429">  1  5  2 -1</clus>
</clustering>
</event>
<event>
 9    1  0.3846604E-005  0.1128445E+03  0.7546771E-02  0.1259785E+00
          1   -1    0    0  502    0  0.00000000000E+00  0.00000000000E+00  0.69132187179E+03  0.69132187179E+03  0.00000000000E+00 0. -1.
         -2   -1    0    0    0  501 -0.00000000000E+00 -0.00000000000E+00 -0.11966265438E+03  0.11966265438E+03  0.00000000000E+00 0.  1.
        -24    2    1    2    0    0  0.81785640751E+02  0.10935709174E+03  0.21489083274E+03  0.26702437805E+03  0.80474119614E+02 0.  0.
         23    2    1    2    0    0 -0.19277847879E+02 -0.44152207980E+02  0.42065094655E+03  0.43332614455E+03  0.92213208544E+02 0.  0.
         13    1    3    3    0    0  0.50326787726E+02  0.40537866271E+02  0.16280647301E+03  0.17516292935E+03  0.00000000000E+00 0. -1.
        -14    1    3    3    0    0  0.31458853025E+02  0.68819225469E+02  0.52084359731E+02  0.91861448695E+02  0.00000000000E+00 0.  1.
        -13    1    4    4    0    0 -0.35396457508E+02  0.16815061094E+02  0.20184761189E+03  0.20561642422E+03  0.00000000000E+00 0.  1.
         13    1    4    4    0    0  0.16118609628E+02 -0.60967269074E+02  0.21880333465E+03  0.22770972032E+03  0.00000000000E+00 0. -1.
         21    1    1    2  502  501 -0.62507792872E+02 -0.65204883760E+02 -0.63882561873E+02  0.11063400358E+03  0.00000000000E+00 0.  1.
<scales pt_clust_5="13000.00000" pt_clust_6="13000.00000" pt_clust_7="13000.00000" pt_clust_8="13000.00000" pt_clust_9="90.32664"></scales>
<clustering>
<clus scale="   80.474">  5  6 -1 -1</clus>
<clus scale="   90.327">  2  9  1 -1</clus>
<clus scale="   92.213">  7  8 -1 -1</clus>
<clus scale="  103.473">  2  5  1 -1</clus>
<clus scale="  112.845">  1  5  2 -1</clus>
</clustering>
</event>
<event>
 9    1  0.3846604E-005  0.4528605E+03  0.7546771E-02  0.1046936E+00
         -2   -1    0    0    0  501 -0.00000000000E+00  0.00000000000E+00  0.62883833418E+03  0.62883833418E+03  0.00000000000E+00 0.  1.
          1   -1    0    0  502    0  0.00000000000E+00 -0.00000000000E+00 -0.11034012109E+04  0.11034012109E+04  0.00000000000E+00 0. -1.
        -24    2    1    2    0    0 -0.14331280036E+03 -0.32620247248E+03 -0.62666439624E+03  0.72539905716E+03  0.80925365785E+02 0.  0.
         23    2    1    2    0    0  0.19012394024E+03 -0.13675639953E+03 -0.27671711277E+03  0.37406278650E+03  0.92201856168E+02 0.  0.
         11    1    3    3    0    0 -0.49137120562E+02 -0.15312893935E+03 -0.21009322396E+03  0.26457908352E+03  0.00000000000E+00 0. -1.
        -12    1    3    3    0    0 -0.94175679800E+02 -0.17307353312E+03 -0.41657117228E+03  0.46081997364E+03  0.00000000000E+00 0.  1.
        -13    1    4    4    0    0  0.74341686822E+02 -0.58184690594E+02 -0.47919196969E+02  0.10586970321E+03  0.00000000000E+00 0.  1.
         13    1    4    4    0    0  0.11578225342E+03 -0.78571708936E+02 -0.22879791580E+03  0.26819308330E+03  0.00000000000E+00 0. -1.
         21    1    1    2  502  501 -0.46811139876E+02  0.46295887201E+03  0.42881863230E+03  0.63277770140E+03  0.00000000000E+00 0.  1.
<scales pt_clust_5="13000.00000" pt_clust_6="13000.00000" pt_clust_7="13000.00000" pt_clust_8="13000.00000" pt_clust_9="445.57127"></scales>
<clustering>
<clus scale="   80.925">  5  6 -1 -1</clus>
<clus scale="   92.202">  7  8 -1 -1</clus>
<clus scale="  251.695">  2  7  1 -1</clus>
<clus scale="  445.571">  1  9  2 -1</clus>
<clus scale="  251.695">  2  5  1 -1</clus>
</clustering>
</event>
<event>
 9    1  0.3846604E-005  0.9728881E+02  0.7546771E-02  0.1292056E+00
         -2   -1    0    0    0  501 -0.00000000000E+00  0.00000000000E+00  0.36361113245E+02  0.36361113245E+02  0.00000000000E+00 0.  1.
          1   -1    0    0  502    0  0.00000000000E+00 -0.00000000000E+00 -0.43450022692E+03  0.43450022692E+03  0.00000000000E+00 0. -1.
         23    2    1    2    0    0  0.21857504617E+01  0.49641444141E+02 -0.86617706866E+02  0.13484622238E+03  0.90619126375E+02 0.  0.
        -24    2    1    2    0    0 -0.12939602525E+02 -0.29709109918E+02 -0.29689685335E+03  0.30905550270E+03  0.79482688015E+02 0.  0.
         11    1    4    4    0    0 -0.36359579821E+02  0.37448339265E+01 -0.20852545993E+03  0.21170477147E+03  0.00000000000E+00 0. -1.
        -12    1    4    4    0    0  0.23419977295E+02 -0.33453943844E+02 -0.88371393429E+02  0.97350731234E+02  0.00000000000E+00 0.  1.
        -11    1    3    3    0    0 -0.41505486476E+02  0.14861701978E+02 -0.55630022972E+02  0.70980807611E+02  0.00000000000E+00 0. -1.
         11    1    3    3    0    0  0.43691236937E+02  0.34779742162E+02 -0.30987683894E+02  0.63865414765E+02  0.00000000000E+00 0.  1.
         21    1    1    2  502  501  0.10753852063E+02 -0.19932334223E+02 -0.14624553457E+02  0.26959615086E+02  0.00000000000E+00 0. -1.
<scales pt_clust_5="13000.00000" pt_clust_6="13000.00000" pt_clust_7="13000.00000" pt_clust_8="13000.00000" pt_clust_9="22.64825"></scales>
<clustering>
<clus scale="   22.648">  1  9  2 -1</clus>
<clus scale="   79.483">  5  6 -1 -1</clus>
<clus scale="   87.010">  2  5  1 -1</clus>
<clus scale="   90.619">  7  8 -1 -1</clus>
<clus scale="   87.010">  2  5  1 -1</clus>
</clustering>
</event>
<event>
 9    1  0.3846604E-005  0.1542526E+03  0.7546771E-02  0.1197585E+00
          1   -1    0    0  502    0  0.00000000000E+00  0.00000000000E+00  0.70532691241E+03  0.70532691241E+03  0.00000000000E+00 0. -1.
         -2   -1    0    0    0  501 -0.00000000000E+00 -0.00000000000E+00 -0.11301401238E+03  0.11301401238E+03  0.00000000000E+00 0.  1.
         23    2    1    2    0    0  0.68005603826E+02 -0.41327105406E+02 -0.33526614937E+02  0.12626465077E+03  0.92119684826E+02 0.  0.
        -24    2    1    2    0    0 -0.10045549044E+03  0.80596037942E+02  0.62297540057E+03  0.64105424589E+03  0.79152824106E+02 0.  0.
         13    1    4    4    0    0 -0.10922884675E+03  0.57891230171E+02  0.56124042016E+03  0.57469395744E+03  0.00000000000E+00 0. -1.
        -14    1    4    4    0    0  0.87733563156E+01  0.22704807770E+02  0.61734980410E+02  0.66360288450E+02  0.00000000000E+00 0.  1.
        -11    1    3    3    0    0  0.16782661943E+02 -0.58050801643E+02  0.40636669985E+01  0.60564566396E+02  0.00000000000E+00 0. -1.
         11    1    3    3    0    0  0.51222941883E+02  0.16723696237E+02 -0.37590281935E+02  0.65700084376E+02  0.00000000000E+00 0.  1.
         21    1    1    2  502  501  0.32449886612E+02 -0.39268932536E+02  0.28641143969E+01  0.51022028134E+02  0.00000000000E+00 0.  1.
<scales pt_clust_5="13000.00000" pt_clust_6="13000.00000" pt_clust_7="13000.00000" pt_clust_8="13000.00000" pt_clust_9="50.94158"></scales>
<clustering>
<clus scale="   50.942">  2  9  1 -1</clus>
<clus scale="   79.153">  5  6 -1 -1</clus>
<clus scale="   92.120">  7  8 -1 -1</clus>
<clus scale="  146.877">  1  5  2 -1</clus>
<clus scale="  146.877">  1  5  2 -1</clus>
</clustering>
</event>
<event>
 9    1  0.3846604E-005  0.9693174E+02  0.7546771E-02  0.1290537E+00
          1   -1    0    0  502    0  0.00000000000E+00  0.00000000000E+00  0.52414961783E+03  0.52414961783E+03  0.00000000000E+00 0. -1.
         -2   -1    0    0    0  501 -0.00000000000E+00 -0.00000000000E+00 -0.22246092279E+03  0.22246092279E+03  0.00000000000E+00 0.  1.
        -24    2    1    2    0    0 -0.13221445964E+02 -0.86641736033E+02  0.18448424776E+03  0.21972226351E+03  0.81005174865E+02 0.  0.
         23    2    1    2    0    0 -0.14025503874E+02  0.33242064021E+00  0.30453489792E+03  0.31883926380E+03  0.93381726400E+02 0.  0.
         13    1    3    3    0    0  0.27000988394E+02 -0.28384734430E+02  0.11088449439E+03  0.11760152048E+03  0.00000000000E+00 0. -1.
        -14    1    3    3    0    0 -0.40222434358E+02 -0.58257001603E+02  0.73599753373E+02  0.10212074303E+03  0.00000000000E+00 0.  1.
        -13    1    4    4    0    0 -0.35109986950E+02 -0.37054768446E+02  0.14964009477E+03  0.15810732118E+03  0.00000000000E+00 0.  1.
         13    1    4    4    0    0  0.21084483076E+02  0.37387189086E+02  0.15489480315E+03  0.16073194262E+03  0.00000000000E+00 0. -1.
         21    1    1    2  502  501  0.27246949838E+02  0.86309315393E+02 -0.18733045065E+03  0.20804901331E+03  0.00000000000E+00 0.  1.
<scales pt_clust_5="13000.00000" pt_clust_6="13000.00000" pt_clust_7="13000.00000" pt_clust_8="13000.00000" pt_clust_9="90.50798"></scales>
<clustering>
<clus scale="   81.005">  5  6 -1 -1</clus>
<clus scale="   90.508">  2  9  1 -1</clus>
<clus scale="   90.508">  2  5  1 -1</clus>
<clus scale="   93.382">  7  8 -1 -1</clus>
<clus scale="   96.932">  1  5  2 -1</clus>
</clustering>
</event>
<event>
 9    1  0.4649540E-005  0.9234661E+02  0.7546771E-02  0.1304070E+00
         -2   -1    0    0    0  501 -0.00000000000E+00  0.00000000000E+00  0.24889239831E+03  0.24889239831E+03  0.00000000000E+00 0.  1.
          1   -1    0    0  502    0  0.00000000000E+00 -0.00000000000E+00 -0.23745855107E+03  0.23745855107E+03  0.00000000000E+00 0. -1.
         23    2    1    2    0    0  0.71097716318E+01  0.12843849908E+02  0.16339842628E+03  0.18808593800E+03  0.91987830886E+02 0.  0.
        -24    2    1    2    0    0  0.87242046766E+01  0.14957135346E+01 -0.21593627608E+03  0.23082084256E+03  0.81064401113E+02 0.  0.
         13    1    4    4    0    0  0.37449991986E+02  0.96668027444E+01 -0.55617590215E+02  0.67744116471E+02  0.00000000000E+00 0. -1.
        -14    1    4    4    0    0 -0.28725787310E+02 -0.81710892098E+01 -0.16031868586E+03  0.16307672609E+03  0.00000000000E+00 0.  1.
        -13    1    3    3    0    0 -0.11255522832E+02  0.34016331439E+02  0.15461761475E+03  0.15871485246E+03  0.00000000000E+00 0.  1.
         13    1    3    3    0    0  0.18365294464E+02 -0.21172481531E+02  0.87808115208E+01  0.29371085541E+02  0.00000000000E+00 0. -1.
         21    1    1    2  502  501 -0.15833976308E+02 -0.14339563443E+02  0.63971697039E+02  0.67444168817E+02  0.00000000000E+00 0.  1.
<scales pt_clust_5="13000.00000" pt_clust_6="13000.00000" pt_clust_7="13000.00000" pt_clust_8="13000.00000" pt_clust_9="21.36207"></scales>
<clustering>
<clus scale="   21.362">  1  9  2 -1</clus>
<clus scale="   81.064">  5  6 -1 -1</clus>
<clus scale="   81.471">  2  5  1 -1</clus>
<clus scale="   91.988">  7  8 -1 -1</clus>
<clus scale="   81.471">  2  5  1 -1</clus>
</clustering>
</event>
<event>
 9    1  0.3846604E-005  0.2180922E+03  0.7546771E-02  0.1155100E+00
         -2   -1    0    0    0  501 -0.00000000000E+00  0.00000000000E+00  0.73741261027E+03  0.73741261027E+03  0.00000000000E+00 0.  1.
          1   -1    0    0  502    0  0.00000000000E+00 -0.00000000000E+00 -0.15583854481E+03  0.15583854481E+03  0.00000000000E+00 0. -1.
         23    2    1    2    0    0  0.77998302629E+02  0.66418540136E+02  0.36860573405E+03  0.39286506618E+03  0.89317497522E+02 0.  0.
        -24    2    1    2    0    0  0.27356283556E+02 -0.23044196484E+03  0.17485209230E+03  0.30175044164E+03  0.81413816000E+02 0.  0.
         11    1    4    4    0    0  0.50721262747E+02 -0.16571453542E+03  0.10005224405E+03  0.20011098242E+03  0.00000000000E+00 0. -1.
        -12    1    4    4    0    0 -0.23364979191E+02 -0.64727429420E+02  0.74799848252E+02  0.10163945922E+03  0.00000000000E+00 0.  1.
        -13    1    3    3    0    0  0.46998236046E+02  0.43354937284E+01  0.25808706615E+03  0.26236723197E+03  0.00000000000E+00 0.  1.
         13    1    3    3    0    0  0.31000066583E+02  0.62083046407E+02  0.11051866790E+03  0.13049783421E+03  0.00000000000E+00 0. -1.
         21    1    1    2  502  501 -0.10535458619E+03  0.16402342470E+03  0.38116239116E+02  0.19863564727E+03  0.00000000000E+00 0.  1.
<scales pt_clust_5="13000.00000" pt_clust_6="13000.00000" pt_clust_7="13000.00000" pt_clust_8="13000.00000" pt_clust_9="202.32652"></scales>
<clustering>
<clus scale="   81.414">  5  6 -1 -1</clus>
<clus scale="   89.317">  7  8 -1 -1</clus>
<clus scale="  135.915">  1  7  2 -1</clus>
<clus scale="  202.327">  2  9  1 -1</clus>
<clus scale="  202.327">  2  5  1 -1</clus>
</clustering>
</event>
<event>
 9    1  0.3846604E-005  0.1011183E+03  0.7546771E-02  0.1285916E+00
          1   -1    0    0  502    0  0.00000000000E+00  0.00000000000E+00  0.20181896129E+03  0.20181896129E+03  0.00000000000E+00 0. -1.
         -2   -1    0    0    0  501 -0.00000000000E+00 -0.00000000000E+00 -0.71391249120E+02  0.71391249120E+02  0.00000000000E+00 0.  1.
         23    2    1    2    0    0 -0.14558018870E+02 -0.35964693973E+02  0.76991109864E+01  0.10345184776E+03  0.95590864460E+02 0.  0.
        -24    2    1    2    0    0  0.27109397743E+02  0.18327027821E+02  0.11970812874E+03  0.14790092381E+03  0.80460224849E+02 0.  0.
         13    1    4    4    0    0  0.18643672974E+02  0.11725926846E+02  0.13069636548E+03  0.13253914083E+03  0.00000000000E+00 0. -1.
        -14    1    4    4    0    0  0.84657247687E+01  0.66011009751E+01 -0.10988236734E+02  0.15361782985E+02  0.00000000000E+00 0.  1.
        -13    1    3    3    0    0  0.39605847343E+02 -0.34904253777E+01  0.65019954042E+01  0.40287493808E+02  0.00000000000E+00 0.  1.
         13    1    3    3    0    0 -0.54163866213E+02 -0.32474268595E+02  0.11971155822E+01  0.63164353948E+02  0.00000000000E+00 0. -1.
         21    1    1    2  502  501 -0.12551378873E+02  0.17637666152E+02  0.30204724396E+01  0.21857438840E+02  0.00000000000E+00 0. -1.
<scales pt_clust_5="13000.00000" pt_clust_6="13000.00000" pt_clust_7="13000.00000" pt_clust_8="13000.00000" pt_clust_9="21.64773"></scales>
<clustering>
<clus scale="   21.648">  2  9  1 -1</clus>
<clus scale="   80.460">  5  6 -1 -1</clus>
<clus scale="   86.955">  1  5  2 -1</clus>
<clus scale="   95.591">  7  8 -1 -1</clus>
<clus scale="   86.955">  1  5  2 -1</clus>
</clustering>
</event>
<event>
 9    1  0.3846604E-005  0.1257267E+03  0.7546771E-02  0.1237072E+00
          1   -1    0    0  502    0  0.00000000000E+00  0.00000000000E+00  0.16267953521E+03  0.16267953521E+03  0.00000000000E+00 0. -1.
         -2   -1    0    0    0  501 -0.00000000000E+00 -0.00000000000E+00 -0.26863135016E+03  0.26863135016E+03  0.00000000000E+00 0.  1.
         23    2    1    2    0    0  0.70332811527E+02 -0.79270341038E+02 -0.17070964810E+03  0.22037781282E+03  0.90521296306E+02 0.  0.
        -24    2    1    2    0    0 -0.47409448049E+02  0.70498901281E+02  0.10963790387E+03  0.15977997395E+03  0.79318467362E+02 0.  0.
         11    1    4    4    0    0 -0.63053208747E+02  0.39548523140E+02  0.98290097464E+02  0.12329126520E+03  0.00000000000E+00 0. -1.
        -12    1    4    4    0    0  0.15643760698E+02  0.30950378141E+02  0.11347806405E+02  0.36488708747E+02  0.00000000000E+00 0.  1.
        -13    1    3    3    0    0  0.42349430140E+02 -0.96731745322E+02 -0.13958256270E+03  0.17502513133E+03  0.00000000000E+00 0.  1.
         13    1    3    3    0    0  0.27983381387E+02  0.17461404283E+02 -0.31127085398E+02  0.45352681495E+02  0.00000000000E+00 0. -1.
         21    1    1    2  502  501 -0.22923363478E+02  0.87714397576E+01 -0.44880070713E+02  0.51153098594E+02  0.00000000000E+00 0. -1.
<scales pt_clust_5="13000.00000" pt_clust_6="13000.00000" pt_clust_7="13000.00000" pt_clust_8="13000.00000" pt_clust_9="24.54422"></scales>
<clustering>
<clus scale="   24.544">  2  9  1 -1</clus>
<clus scale="   79.318">  5  6 -1 -1</clus>
<clus scale="   90.521">  7  8 -1 -1</clus>
<clus scale="  117.917">  1  5  2 -1</clus>
<clus scale="  117.917">  1  5  2 -1</clus>
</clustering>
</event>
<event>
 9    1  0.3846604E-005  0.1863398E+03  0.7546771E-02  0.1162557E+00
         -2   -1    0    0    0  501 -0.00000000000E+00  0.00000000000E+00  0.35093425607E+02  0.35093425607E+02  0.00000000000E+00 0.  1.
          1   -1    0    0  502    0  0.00000000000E+00 -0.00000000000E+00 -0.13587272185E+04  0.13587272185E+04  0.00000000000E+00 0. -1.
        -24    2    1    2    0    0  0.14778778958E+03 -0.13710011600E+02 -0.43324685957E+03  0.46521435105E+03  0.81806820748E+02 0.  0.
         23    2    1    2    0    0 -0.18141732851E+03  0.54960217005E+02 -0.67311097861E+03  0.70490701763E+03  0.88784240951E+02 0.  0.
         13    1    3    3    0    0  0.44490795060E+02  0.74059341735E+01 -0.24797575481E+03  0.25204415026E+03  0.00000000000E+00 0. -1.
        -14    1    3    3    0    0  0.10329699452E+03 -0.21115945774E+02 -0.18527110476E+03  0.21317020079E+03  0.00000000000E+00 0.  1.
        -13    1    4    4    0    0 -0.37014311313E+02 -0.24273299766E+02 -0.12665300721E+03  0.13416496025E+03  0.00000000000E+00 0.  1.
         13    1    4    4    0    0 -0.14440301719E+03  0.79233516771E+02 -0.54645797141E+03  0.57074205738E+03  0.00000000000E+00 0. -1.
         21    1    1    2  502  501  0.33629538925E+02 -0.41250205405E+02 -0.21727595468E+03  0.22369927540E+03  0.00000000000E+00 0.  1.
<scales pt_clust_5="13000.00000" pt_clust_6="13000.00000" pt_clust_7="13000.00000" pt_clust_8="13000.00000" pt_clust_9="53.22147"></scales>
<clustering>
<clus scale="   53.221">  2  9  1 -1</clus>
<clus scale="   81.807">  5  6 -1 -1</clus>
<clus scale="   88.784">  7  8 -1 -1</clus>
<clus scale="  183.118">  1  5  2 -1</clus>
<clus scale="   53.221">  2  5  1 -1</clus>
</clustering>
</event>
<event>
 9    1  0.3846604E-005  0.1159745E+03  0.7546771E-02  0.1253215E+00
         -4   -1    0    0    0  501 -0.00000000000E+00  0.00000000000E+00  0.36607734883E+03  0.36607734883E+03  0.00000000000E+00 0.  1.
          3   -1    0    0  502    0  0.00000000000E+00 -0.00000000000E+00 -0.68647445361E+02  0.68647445361E+02  0.00000000000E+00 0. -1.
         23    2    1    2    0    0 -0.64806740722E+01 -0.69177187239E+02  0.25114362226E+03  0.27616640428E+03  0.91472845607E+02 0.  0.
        -24    2    1    2    0    0  0.39990094337E+02  0.72960640400E+02  0.27289247289E+02  0.11985331192E+03  0.81839175625E+02 0.  0.
         11    1    4    4    0    0 -0.10277484692E+02  0.45872792497E+02 -0.14384895099E+02  0.49161621109E+02  0.00000000000E+00 0. -1.
        -12    1    4    4    0    0  0.50267579029E+02  0.27087847903E+02  0.41674142388E+02  0.70691690807E+02  0.00000000000E+00 0.  1.
        -13    1    3    3    0    0 -0.91086073435E+01 -0.46098731289E+02  0.24836742442E+03  0.25277349004E+03  0.00000000000E+00 0.  1.
         13    1    3    3    0    0  0.26279332713E+01 -0.23078455950E+02  0.27761978365E+01  0.23392914242E+02  0.00000000000E+00 0. -1.
         21    1    1    2  502  501 -0.33509420265E+02 -0.37834531612E+01  0.18997033920E+02  0.38705077988E+02  0.00000000000E+00 0.  1.
<scales pt_clust_5="13000.00000" pt_clust_6="13000.00000" pt_clust_7="13000.00000" pt_clust_8="13000.00000" pt_clust_9="33.72233"></scales>
<clustering>
<clus scale="   33.722">  2  9  1 -1</clus>
<clus scale="   81.839">  5  6 -1 -1</clus>
<clus scale="   91.473">  7  8 -1 -1</clus>
<clus scale="  108.538">  2  5  1 -1</clus>
<clus scale="   33.722">  2  5  1 -1</clus>
</clustering>
</event>
<event>
 9    1  0.3846604E-005  0.9379605E+02  0.7546771E-02  0.1300132E+00
          1   -1    0    0  502    0  0.00000000000E+00  0.00000000000E+00  0.11629620044E+03  0.11629620044E+03  0.00000000000E+00 0. -1.
         -2   -1    0    0    0  501 -0.00000000000E+00 -0.00000000000E+00 -0.20876666551E+03  0.20876666551E+03  0.00000000000E+00 0.  1.
         23    2    1    2    0    0  0.13187843256E+02  0.25896742135E+02 -0.12175828895E+03  0.15519053693E+03  0.91730373173E+02 0.  0.
        -24    2    1    2    0    0 -0.20254515737E+02  0.71728637283E+00  0.77656800123E+02  0.11421442540E+03  0.81262515690E+02 0.  0.
         13    1    4    4    0    0 -0.26847360852E+02  0.33285181663E+02  0.66690404579E+02  0.79223065871E+02  0.00000000000E+00 0. -1.
        -14    1    4    4    0    0  0.65928451156E+01 -0.32567895291E+02  0.10966395545E+02  0.34991359528E+02  0.00000000000E+00 0.  1.
        -13    1    3    3    0    0 -0.39626049662E+02  0.81046483962E+01 -0.53611786618E+02  0.67157522302E+02  0.00000000000E+00 0. -1.
         13    1    3    3    0    0  0.52813892918E+02  0.17792093738E+02 -0.68146502334E+02  0.88033014631E+02  0.00000000000E+00 0.  1.
         21    1    1    2  502  501  0.70666724810E+01 -0.26614028507E+02 -0.48368976240E+02  0.55657903624E+02  0.00000000000E+00 0. -1.
<scales pt_clust_5="13000.00000" pt_clust_6="13000.00000" pt_clust_7="13000.00000" pt_clust_8="13000.00000" pt_clust_9="27.53624"></scales>
<clustering>
<clus scale="   27.536">  2  9  1 -1</clus>
<clus scale="   81.263">  5  6 -1 -1</clus>
<clus scale="   83.587">  1  5  2 -1</clus>
<clus scale="   91.730">  7  8 -1 -1</clus>
<clus scale="   83.587">  1  5  2 -1</clus>
</clustering>
</event>
<event>
 9    1  0.3846604E-005  0.9821904E+02  0.7546771E-02  0.1289777E+00
          1   -1    0    0  502    0  0.00000000000E+00  0.00000000000E+00  0.36877288487E+03  0.36877288487E+03  0.00000000000E+00 0. -1.
         -2   -1    0    0    0  501 -0.00000000000E+00 -0.00000000000E+00 -0.11997056345E+03  0.11997056345E+03  0.00000000000E+00 0.  1.
        -24    2    1    2    0    0 -0.17083146381E+01 -0.18543006727E+02 -0.74090236516E+02  0.11070291566E+03  0.80118730339E+02 0.  0.
         23    2    1    2    0    0  0.22720020907E+02  0.31199477148E+02  0.33599566167E+03  0.35023101322E+03  0.90989401743E+02 0.  0.
         11    1    3    3    0    0 -0.30024191592E+02  0.16304132803E+02 -0.47526998544E+02  0.58532831965E+02  0.00000000000E+00 0. -1.
        -12    1    3    3    0    0  0.28315876954E+02 -0.34847139531E+02 -0.26563237972E+02  0.52170083695E+02  0.00000000000E+00 0.  1.
        -13    1    4    4    0    0  0.54121515884E+02  0.35373417236E+02  0.25954799343E+03  0.26748005164E+03  0.00000000000E+00 0. -1.
         13    1    4    4    0    0 -0.31401494977E+02 -0.41739400874E+01  0.76447668240E+02  0.82750961578E+02  0.00000000000E+00 0.  1.
         21    1    1    2  502  501 -0.21011706269E+02 -0.12656470421E+02 -0.13103103747E+02  0.27809519443E+02  0.00000000000E+00 0.  1.
<scales pt_clust_5="13000.00000" pt_clust_6="13000.00000" pt_clust_7="13000.00000" pt_clust_8="13000.00000" pt_clust_9="24.52913"></scales>
<clustering>
<clus scale="   24.529">  2  9  1 -1</clus>
<clus scale="   80.119">  5  6 -1 -1</clus>
<clus scale="   88.244">  2  5  1 -1</clus>
<clus scale="   90.989">  7  8 -1 -1</clus>
<clus scale="   98.219">  1  5  2 -1</clus>
</clustering>
</event>
<event>
 9    1  0.3846604E-005  0.9790394E+02  0.7546771E-02  0.1289734E+00
          1   -1    0    0  502    0  0.00000000000E+00  0.00000000000E+00  0.28715333628E+03  0.28715333628E+03  0.00000000000E+00 0. -1.
         -2   -1    0    0    0  501 -0.00000000000E+00 -0.00000000000E+00 -0.18391845742E+03  0.18391845742E+03  0.00000000000E+00 0.  1.
         23    2    1    2    0    0  0.21851992641E+01  0.15566886422E+02 -0.10083025998E+03  0.13672959076E+03  0.91000750623E+02 0.  0.
        -24    2    1    2    0    0 -0.26578729214E+00  0.39601795498E+02  0.24783733412E+03  0.26389170481E+03  0.81529840145E+02 0.  0.
         11    1    4    4    0    0  0.29246913076E+02  0.28344193471E+02  0.21303140054E+03  0.21688972508E+03  0.00000000000E+00 0. -1.
        -12    1    4    4    0    0 -0.29512700368E+02  0.11257602027E+02  0.34805933580E+02  0.47001979733E+02  0.00000000000E+00 0.  1.
        -13    1    3    3    0    0  0.65539844484E+01  0.51953626870E+02 -0.76626484538E+02  0.92810302175E+02  0.00000000000E+00 0.  1.
         13    1    3    3    0    0 -0.43687851843E+01 -0.36386740448E+02 -0.24203775439E+02  0.43919288586E+02  0.00000000000E+00 0. -1.
         21    1    1    2  502  501 -0.19194119720E+01 -0.55168681920E+02 -0.43772195287E+02  0.70450498134E+02  0.00000000000E+00 0. -1.
<scales pt_clust_5="13000.00000" pt_clust_6="13000.00000" pt_clust_7="13000.00000" pt_clust_8="13000.00000" pt_clust_9="55.20206"></scales>
<clustering>
<clus scale="   55.202">  2  9  1 -1</clus>
<clus scale="   81.530">  5  6 -1 -1</clus>
<clus scale="   89.169">  1  5  2 -1</clus>
<clus scale="   91.001">  7  8 -1 -1</clus>
<clus scale="   89.169">  1  5  2 -1</clus>
</clustering>
</event>
<event>
 9    1  0.3846604E-005  0.1964054E+03  0.7546771E-02  0.1153867E+00
         -2   -1    0    0    0  501 -0.00000000000E+00  0.00000000000E+00  0.30222657530E+03  0.30222657530E+03  0.00000000000E+00 0.  1.
          1   -1    0    0  502    0  0.00000000000E+00 -0.00000000000E+00 -0.30233699238E+03  0.30233699238E+03  0.00000000000E+00 0. -1.
         23    2    1    2    0    0 -0.13061307094E+03  0.53784660617E+02  0.10200167931E+03  0.19659254443E+03  0.91058892627E+02 0.  0.
        -24    2    1    2    0    0  0.93581747880E+02 -0.16935162709E+03 -0.16927587945E+03  0.26926984668E+03  0.80090010843E+02 0.  0.
         13    1    4    4    0    0  0.84413349499E+02 -0.73967857897E+02 -0.76015941500E+02  0.13555545337E+03  0.00000000000E+00 0. -1.
        -14    1    4    4    0    0  0.91683983809E+01 -0.95383769195E+02 -0.93259937945E+02  0.13371439332E+03  0.00000000000E+00 0.  1.
        -11    1    3    3    0    0 -0.10856485937E+03  0.23588020885E+02  0.29389355636E+02  0.11491935279E+03  0.00000000000E+00 0. -1.
         11    1    3    3    0    0 -0.22048211563E+02  0.30196639733E+02  0.72612323672E+02  0.81673191644E+02  0.00000000000E+00 0.  1.
         21    1    1    2  502  501  0.37031323056E+02  0.11556696647E+03  0.67163783052E+02  0.13870117657E+03  0.00000000000E+00 0.  1.
<scales pt_clust_5="13000.00000" pt_clust_6="13000.00000" pt_clust_7="13000.00000" pt_clust_8="13000.00000" pt_clust_9="121.35503"></scales>
<clustering>
<clus scale="   80.090">  5  6 -1 -1</clus>
<clus scale="   91.059">  7  8 -1 -1</clus>
<clus scale="  121.355">  1  9  2 -1</clus>
<clus scale="  191.567">  2  5  1 -1</clus>
<clus scale="  191.567">  2  5  1 -1</clus>
</clustering>
</event>
<event>
 9    1  0.3846604E-005  0.1733451E+03  0.7546771E-02  0.1175987E+00
         -2   -1    0    0    0  501 -0.00000000000E+00  0.00000000000E+00  0.18282790181E+03  0.18282790181E+03  0.00000000000E+00 0.  1.
          1   -1    0    0  502    0  0.00000000000E+00 -0.00000000000E+00 -0.26188076422E+03  0.26188076422E+03  0.00000000000E+00 0. -1.
        -24    2    1    2    0    0 -0.42035860552E+02  0.11265903385E+03  0.82262713465E+02  0.16605682363E+03  0.79678373266E+02 0.  0.
         23    2    1    2    0    0  0.56420722115E+02 -0.14514538320E+03 -0.16253647233E+03  0.24310219086E+03  0.91815522736E+02 0.  0.
         11    1    3    3    0    0  0.20519707194E+02  0.11146656184E+02  0.47267755649E+01  0.23825380053E+02  0.00000000000E+00 0. -1.
        -12    1    3    3    0    0 -0.62555567746E+02  0.10151237767E+03  0.77535937900E+02  0.14223144358E+03  0.00000000000E+00 0.  1.
        -11    1    4    4    0    0  0.45150534616E+02 -0.60317221267E+02 -0.21874610583E+02  0.78455315598E+02  0.00000000000E+00 0.  1.
         11    1    4    4    0    0  0.11270187499E+02 -0.84828161935E+02 -0.14066186175E+03  0.16464687526E+03  0.00000000000E+00 0. -1.
         21    1    1    2  502  501 -0.14384861563E+02  0.32486349348E+02  0.12208964588E+01  0.35549651536E+02  0.00000000000E+00 0. -1.
<scales pt_clust_5="13000.00000" pt_clust_6="13000.00000" pt_clust_7="13000.00000" pt_clust_8="13000.00000" pt_clust_9="35.52868"></scales>
<clustering>
<clus scale="   35.529">  1  9  2 -1</clus>
<clus scale="   79.678">  5  6 -1 -1</clus>
<clus scale="   91.816">  7  8 -1 -1</clus>
<clus scale="  167.234">  1  5  2 -1</clus>
<clus scale="  173.345">  2  5  1 -1</clus>
</clustering>
</event>
<event>
 9    1  0.3846604E-005  0.9856804E+02  0.7546771E-02  0.1283587E+00
          1   -1    0    0  502    0  0.00000000000E+00  0.00000000000E+00  0.79943680869E+03  0.79943680869E+03  0.00000000000E+00 0. -1.
         -2   -1    0    0    0  501 -0.00000000000E+00 -0.00000000000E+00 -0.33207073189E+02  0.33207073189E+02  0.00000000000E+00 0.  1.
         23    2    1    2    0    0 -0.18904443163E+02 -0.64283271020E+02  0.91803751009E+02  0.13913885398E+03  0.80261915528E+02 0.  0.
        -24    2    1    2    0    0  0.40498675827E+02  0.38571111440E+02  0.63101091592E+03  0.63862065659E+03  0.80831266419E+02 0.  0.
         13    1    4    4    0    0  0.21999408272E+02  0.63306745132E+02  0.40477624388E+03  0.41028712575E+03  0.00000000000E+00 0. -1.
        -14    1    4    4    0    0  0.18499267556E+02 -0.24735633692E+02  0.22623467204E+03  0.22833353084E+03  0.00000000000E+00 0.  1.
        -11    1    3    3    0    0 -0.30469878805E+02 -0.25543959037E+02  0.10355913932E+01  0.39774109760E+02  0.00000000000E+00 0.  1.
         11    1    3    3    0    0  0.11565435642E+02 -0.38739311983E+02  0.90768159616E+02  0.99364744223E+02  0.00000000000E+00 0. -1.
         21    1    1    2  502  501 -0.21594232665E+02  0.25712159580E+02  0.43415068574E+02  0.54884371308E+02  0.00000000000E+00 0.  1.
<scales pt_clust_5="13000.00000" pt_clust_6="13000.00000" pt_clust_7="13000.00000" pt_clust_8="13000.00000" pt_clust_9="33.57717"></scales>
<clustering>
<clus scale="   33.577">  2  9  1 -1</clus>
<clus scale="   80.262">  7  8 -1 -1</clus>
<clus scale="   80.831">  5  6 -1 -1</clus>
<clus scale="   98.102">  2  7  1 -1</clus>
<clus scale="   98.568">  1  5  2 -1</clus>
</clustering>
</event>
<event>
 9    1  0.3846604E-005  0.1060155E+03  0.7546771E-02  0.1273108E+00
          1   -1    0    0  502    0  0.00000000000E+00  0.00000000000E+00  0.68799182067E+03  0.68799182067E+03  0.00000000000E+00 0. -1.
         -2   -1    0    0    0  501 -0.00000000000E+00 -0.00000000000E+00 -0.16688361380E+03  0.16688361380E+03  0.00000000000E+00 0.  1.
         23    2    1    2    0    0 -0.73788295479E+01 -0.84785526762E+02  0.16679851922E+02  0.12569220946E+03  0.90979565758E+02 0.  0.
        -24    2    1    2    0    0 -0.53265656298E+02  0.18905174216E+02  0.59434308024E+03  0.60228707716E+03  0.79444260526E+02 0.  0.
         11    1    4    4    0    0 -0.61655615639E+02  0.36699629735E+02  0.35756012283E+03  0.36468824934E+03  0.00000000000E+00 0. -1.
        -12    1    4    4    0    0  0.83899593419E+01 -0.17794455519E+02  0.23678295740E+03  0.23759882782E+03  0.00000000000E+00 0.  1.
        -11    1    3    3    0    0 -0.10326495649E+02  0.17572993664E+02  0.10934320050E+02  0.23130196144E+02  0.00000000000E+00 0.  1.
         11    1    3    3    0    0  0.29476661006E+01 -0.10235852043E+03  0.57455318718E+01  0.10256201332E+03  0.00000000000E+00 0. -1.
         21    1    1    2  502  501  0.60644485846E+02  0.65880352546E+02 -0.89914725294E+02  0.12689614785E+03  0.00000000000E+00 0.  1.
<scales pt_clust_5="13000.00000" pt_clust_6="13000.00000" pt_clust_7="13000.00000" pt_clust_8="13000.00000" pt_clust_9="89.54314"></scales>
<clustering>
<clus scale="   79.444">  5  6 -1 -1</clus>
<clus scale="   89.543">  2  9  1 -1</clus>
<clus scale="   90.980">  7  8 -1 -1</clus>
<clus scale="   96.298">  1  5  2 -1</clus>
<clus scale="   96.298">  1  5  2 -1</clus>
</clustering>
</event>
<event>
 9    1  0.4538425E-005  0.1267099E+03  0.7546771E-02  0.1234998E+00
          1   -1    0    0  502    0  0.00000000000E+00  0.00000000000E+00  0.75582327384E+03  0.75582327384E+03  0.00000000000E+00 0. -1.
         -2   -1    0    0    0  501 -0.00000000000E+00 -0.00000000000E+00 -0.72446571981E+02  0.72446571981E+02  0.00000000000E+00 0.  1.
         23    2    1    2    0    0  0.59328738302E+02 -0.23891140026E+02 -0.10902454624E+02  0.11063383547E+03  0.89611920379E+02 0.  0.
        -24    2    1    2    0    0 -0.72032543249E+02  0.57612276139E+02  0.64566757407E+03  0.65712495660E+03  0.80116981556E+02 0.  0.
         13    1    4    4    0    0 -0.47313412626E+02  0.76239936694E+02  0.52116039840E+03  0.52882818365E+03  0.00000000000E+00 0. -1.
        -14    1    4    4    0    0 -0.24719130623E+02 -0.18627660555E+02  0.12450717567E+03  0.12829677295E+03  0.00000000000E+00 0.  1.
        -11    1    3    3    0    0  0.23201071957E+02  0.16234828594E+02  0.31222984763E+02  0.42151324735E+02  0.00000000000E+00 0.  1.
         11    1    3    3    0    0  0.36127666345E+02 -0.40125968620E+02 -0.42125439387E+02  0.68482510736E+02  0.00000000000E+00 0. -1.
         21    1    1    2  502  501  0.12703804947E+02 -0.33721136114E+02  0.48611582406E+02  0.60511053742E+02  0.00000000000E+00 0.  1.
<scales pt_clust_5="13000.00000" pt_clust_6="13000.00000" pt_clust_7="13000.00000" pt_clust_8="13000.00000" pt_clust_9="36.03473"></scales>
<clustering>
<clus scale="   36.035">  2  9  1 -1</clus>
<clus scale="   80.117">  5  6 -1 -1</clus>
<clus scale="   89.612">  7  8 -1 -1</clus>
<clus scale="  120.182">  1  5  2 -1</clus>
<clus scale="  120.182">  1  5  2 -1</clus>
</clustering>
</event>
<event>
 9    1  0.3846604E-005  0.2072198E+03  0.7546771E-02  0.1144884E+00
         -2   -1    0    0    0  501 -0.00000000000E+00  0.00000000000E+00  0.12931458787E+03  0.12931458787E+03  0.00000000000E+00 0.  1.
          1   -1    0    0  502    0  0.00000000000E+00 -0.00000000000E+00 -0.66613772464E+03  0.66613772464E+03  0.00000000000E+00 0. -1.
        -24    2    1    2    0    0  0.13515217000E+03  0.91426635077E+02  0.15483054672E+02  0.18219651667E+03  0.79566997231E+02 0.  0.
         23    2    1    2    0    0 -0.17205308871E+03 -0.81697240606E+02 -0.52575432418E+03  0.56676557564E+03  0.92352064795E+02 0.  0.
         13    1    3    3    0    0  0.20531570968E+02  0.39950754846E+01 -0.24868595037E+02  0.32495431274E+02  0.00000000000E+00 0. -1.
        -14    1    3    3    0    0  0.11462059903E+03  0.87431559593E+02  0.40351649709E+02  0.14970108540E+03  0.00000000000E+00 0.  1.
        -13    1    4    4    0    0 -0.65782663441E+02 -0.68272391539E+02 -0.16342182503E+03  0.18893165736E+03  0.00000000000E+00 0.  1.
         13    1    4    4    0    0 -0.10627042527E+03 -0.13424849067E+02 -0.36233249915E+03  0.37783391828E+03  0.00000000000E+00 0. -1.
         21    1    1    2  502  501  0.36900918718E+02 -0.97293944712E+01 -0.26551867263E+02  0.46490220199E+02  0.00000000000E+00 0.  1.
<scales pt_clust_5="13000.00000" pt_clust_6="13000.00000" pt_clust_7="13000.00000" pt_clust_8="13000.00000" pt_clust_9="38.16201"></scales>
<clustering>
<clus scale="   38.162">  1  9  2 -1</clus>
<clus scale="   79.567">  5  6 -1 -1</clus>
<clus scale="   92.352">  7  8 -1 -1</clus>
<clus scale="  201.847">  1  5  2 -1</clus>
<clus scale="  207.220">  2  5  1 -1</clus>
</clustering>
</event>
<event>
 9    1  0.3846604E-005  0.1006381E+03  0.7546771E-02  0.1284723E+00
         -2   -1    0    0    0  501 -0.00000000000E+00  0.00000000000E+00  0.79531480218E+02  0.79531480218E+02  0.00000000000E+00 0.  1.
          1   -1    0    0  502    0  0.00000000000E+00 -0.00000000000E+00 -0.42559808730E+03  0.42559808730E+03  0.00000000000E+00 0. -1.
        -24    2    1    2    0    0 -0.25536951033E+02  0.65010369563E+02  0.19404568714E+02  0.10679254357E+03  0.78419551488E+02 0.  0.
         23    2    1    2    0    0  0.24608997314E+02 -0.34060170493E+02 -0.34970257335E+03  0.36358900612E+03  0.90218499183E+02 0.  0.
         13    1    3    3    0    0  0.74882754364E+01  0.68745870504E+02  0.17858927337E+01  0.69175562110E+02  0.00000000000E+00 0. -1.
        -14    1    3    3    0    0 -0.33025226469E+02 -0.37355009410E+01  0.17618675980E+02  0.37616981457E+02  0.00000000000E+00 0.  1.
        -11    1    4    4    0    0  0.36531431482E+02  0.21109721747E+02 -0.17402874263E+03  0.17907029095E+03  0.00000000000E+00 0. -1.
         11    1    4    4    0    0 -0.11922434168E+02 -0.55169892240E+02 -0.17567383072E+03  0.18451871516E+03  0.00000000000E+00 0.  1.
         21    1    1    2  502  501  0.92795371818E+00 -0.30950199070E+02 -0.15768602443E+02  0.34748017837E+02  0.00000000000E+00 0.  1.
<scales pt_clust_5="13000.00000" pt_clust_6="13000.00000" pt_clust_7="13000.00000" pt_clust_8="13000.00000" pt_clust_9="30.96411"></scales>
<clustering>
<clus scale="   30.964">  1  9  2 -1</clus>
<clus scale="   78.420">  5  6 -1 -1</clus>
<clus scale="   90.212">  1  5  2 -1</clus>
<clus scale="   90.218">  7  8 -1 -1</clus>
<clus scale="  100.638">  2  5  1 -1</clus>
</clustering>
</event>
<event>
 9    1  0.3846604E-005  0.9088713E+02  0.7546771E-02  0.1306301E+00
         -2   -1    0    0    0  501 -0.00000000000E+00  0.00000000000E+00  0.26344995992E+03  0.26344995992E+03  0.00000000000E+00 0.  1.
          1   -1    0    0  502    0  0.00000000000E+00 -0.00000000000E+00 -0.73223318792E+02  0.73223318792E+02  0.00000000000E+00 0. -1.
        -24    2    1    2    0    0 -0.35933161494E+02  0.15898636192E+02  0.91852341447E+02  0.12918660707E+03  0.81904628005E+02 0.  0.
         23    2    1    2    0    0 -0.11596925726E+02  0.12450527914E+02 -0.25567799271E+01  0.92378604475E+02  0.90762134778E+02 0.  0.
         11    1    3    3    0    0 -0.61804569632E+02  0.15425432984E+02  0.55011422105E+02  0.84166533564E+02  0.00000000000E+00 0. -1.
        -12    1    3    3    0    0  0.25871408138E+02  0.47320320792E+00  0.36840919342E+02  0.45020073504E+02  0.00000000000E+00 0.  1.
        -11    1    4    4    0    0  0.61902110357E+01  0.27120151113E+02 -0.39811099374E+02  0.48566912012E+02  0.00000000000E+00 0.  1.
         11    1    4    4    0    0 -0.17787136761E+02 -0.14669623199E+02  0.37254319447E+02  0.43811692462E+02  0.00000000000E+00 0. -1.
         21    1    1    2  502  501  0.47530087220E+02 -0.28349164106E+02  0.10093107961E+03  0.11510806717E+03  0.00000000000E+00 0.  1.
<scales pt_clust_5="13000.00000" pt_clust_6="13000.00000" pt_clust_7="13000.00000" pt_clust_8="13000.00000" pt_clust_9="55.34243"></scales>
<clustering>
<clus scale="   55.342">  1  9  2 -1</clus>
<clus scale="   81.905">  5  6 -1 -1</clus>
<clus scale="   82.043">  1  5  2 -1</clus>
<clus scale="   90.762">  7  8 -1 -1</clus>
<clus scale="   90.887">  2  5  1 -1</clus>
</clustering>
</event>
<event>
 9    1  0.3846604E-005  0.1929333E+03  0.7546771E-02  0.1164475E+00
          3   -1    0    0  502    0  0.00000000000E+00  0.00000000000E+00  0.61522617584E+03  0.61522617584E+03  0.00000000000E+00 0. -1.
         -4   -1    0    0    0  501 -0.00000000000E+00 -0.00000000000E+00 -0.24995218205E+03  0.24995218205E+03  0.00000000000E+00 0.  1.
         23    2    1    2    0    0 -0.60100909745E+02 -0.11438303786E+03 -0.12710797529E+03  0.20263909244E+03  0.90612171921E+02 0.  0.
        -24    2    1    2    0    0  0.19073566907E+03  0.14989688867E+02  0.44597915939E+03  0.49195878908E+03  0.80754277366E+02 0.  0.
         11    1    4    4    0    0  0.15987117591E+03 -0.15526557211E+02  0.38450744078E+03  0.41670833790E+03  0.00000000000E+00 0. -1.
        -12    1    4    4    0    0  0.30864493157E+02  0.30516246078E+02  0.61471718616E+02  0.75250451176E+02  0.00000000000E+00 0.  1.
        -11    1    3    3    0    0 -0.20679183147E+01 -0.42453361663E+02 -0.96225403529E+02  0.10519454590E+03  0.00000000000E+00 0. -1.
         11    1    3    3    0    0 -0.58032991430E+02 -0.71929676197E+02 -0.30882571764E+02  0.97444546543E+02  0.00000000000E+00 0.  1.
         21    1    1    2  502  501 -0.13063475933E+03  0.99393348994E+02  0.46402809694E+02  0.17058047636E+03  0.00000000000E+00 0.  1.
<scales pt_clust_5="13000.00000" pt_clust_6="13000.00000" pt_clust_7="13000.00000" pt_clust_8="13000.00000" pt_clust_9="175.21990"></scales>
<clustering>
<clus scale="   80.754">  5  6 -1 -1</clus>
<clus scale="   90.612">  7  8 -1 -1</clus>
<clus scale="  157.817">  2  7  1 -1</clus>
<clus scale="  175.220">  2  9  1 -1</clus>
<clus scale="  192.933">  1  5  2 -1</clus>
</clustering>
</event>
<event>
 9    1  0.3846604E-005  0.1762227E+03  0.7546771E-02  0.1172865E+00
         -2   -1    0    0    0  501 -0.00000000000E+00  0.00000000000E+00  0.13296378102E+03  0.13296378102E+03  0.00000000000E+00 0.  1.
          1   -1    0    0  502    0  0.00000000000E+00 -0.00000000000E+00 -0.53875624211E+03  0.53875624211E+03  0.00000000000E+00 0. -1.
        -24    2    1    2    0    0 -0.52178807070E+02  0.14700587458E+03 -0.47235773167E+02  0.18163416137E+03  0.80164800499E+02 0.  0.
         23    2    1    2    0    0  0.13468522205E+02 -0.14993132117E+03 -0.39775237855E+03  0.43491932702E+03  0.91033313749E+02 0.  0.
         13    1    3    3    0    0 -0.11408569441E+01  0.10319376790E+03 -0.74124280596E+01  0.10346593342E+03  0.00000000000E+00 0. -1.
        -14    1    3    3    0    0 -0.51037950126E+02  0.43812106682E+02 -0.39823345108E+02  0.78168227948E+02  0.00000000000E+00 0.  1.
        -13    1    4    4    0    0 -0.27339173278E+02 -0.10701021956E+03 -0.19977273790E+03  0.22827125157E+03  0.00000000000E+00 0.  1.
         13    1    4    4    0    0  0.40807695483E+02 -0.42921101618E+02 -0.19797964065E+03  0.20664807545E+03  0.00000000000E+00 0. -1.
         21    1    1    2  502  501  0.38710284865E+02  0.29254465911E+01  0.39195690622E+02  0.55166534742E+02  0.00000000000E+00 0. -1.
<scales pt_clust_5="13000.00000" pt_clust_6="13000.00000" pt_clust_7="13000.00000" pt_clust_8="13000.00000" pt_clust_9="38.82067"></scales>
<clustering>
<clus scale="   38.821">  1  9  2 -1</clus>
<clus scale="   80.165">  5  6 -1 -1</clus>
<clus scale="   91.033">  7  8 -1 -1</clus>
<clus scale="  170.862">  1  5  2 -1</clus>
<clus scale="  176.223">  2  5  1 -1</clus>
</clustering>
</event>
<event>
 9    1  0.3846604E-005  0.1070241E+03  0.7546771E-02  0.1272314E+00
          1   -1    0    0  502    0  0.00000000000E+00  0.00000000000E+00  0.18327035949E+03  0.18327035949E+03  0.00000000000E+00 0. -1.
         -2   -1    0    0    0  501 -0.00000000000E+00 -0.00000000000E+00 -0.34967896727E+03  0.34967896727E+03  0.00000000000E+00 0.  1.
         23    2    1    2    0    0  0.65726155765E+01 -0.17402967708E+02 -0.11065977699E+03  0.14556813544E+03  0.92727737239E+02 0.  0.
        -24    2    1    2    0    0 -0.38183359244E+02 -0.47608570906E+02  0.14395295659E+03  0.17499818081E+03  0.78596212560E+02 0.  0.
         13    1    4    4    0    0 -0.57777087354E+02 -0.48929789173E+02  0.90164081393E+02  0.11773647551E+03  0.00000000000E+00 0. -1.
        -14    1    4    4    0    0  0.19593728111E+02  0.13212182677E+01  0.53788875200E+02  0.57261705304E+02  0.00000000000E+00 0.  1.
        -13    1    3    3    0    0  0.15476990901E+02  0.35920223845E+02 -0.59039068501E+02  0.70819568891E+02  0.00000000000E+00 0.  1.
         13    1    3    3    0    0 -0.89043753247E+01 -0.53323191552E+02 -0.51620708486E+02  0.74748566554E+02  0.00000000000E+00 0. -1.
         21    1    1    2  502  501  0.31610743667E+02  0.65011538613E+02 -0.19970178738E+03  0.21238301051E+03  0.00000000000E+00 0.  1.
<scales pt_clust_5="13000.00000" pt_clust_6="13000.00000" pt_clust_7="13000.00000" pt_clust_8="13000.00000" pt_clust_9="72.28927"></scales>
<clustering>
<clus scale="   72.289">  2  9  1 -1</clus>
<clus scale="   78.596">  5  6 -1 -1</clus>
<clus scale="   92.728">  7  8 -1 -1</clus>
<clus scale="   95.043">  1  5  2 -1</clus>
<clus scale="   95.043">  1  5  2 -1</clus>
</clustering>
</event>
<event>
 9    1  0.3846604E-005  0.9257799E+02  0.7546771E-02  0.1303674E+00
         -2   -1    0    0    0  501 -0.00000000000E+00  0.00000000000E+00  0.37560499521E+03  0.37560499521E+03  0.00000000000E+00 0.  1.
          1   -1    0    0  502    0  0.00000000000E+00 -0.00000000000E+00 -0.71934173278E+02  0.71934173278E+02  0.00000000000E+00 0. -1.
         23    2    1    2    0    0 -0.28068018637E+02 -0.18063276051E+02  0.25610722398E+03  0.27425783628E+03  0.92262424495E+02 0.  0.
        -24    2    1    2    0    0  0.34409436115E+01  0.36951199756E+01 -0.33095887158E+02  0.87730825071E+02  0.81091712994E+02 0.  0.
         13    1    4    4    0    0  0.23513022569E+02 -0.12871820703E+02 -0.49975259412E+02  0.56710427188E+02  0.00000000000E+00 0. -1.
        -14    1    4    4    0    0 -0.20072078957E+02  0.16566940679E+02  0.16879372254E+02  0.31020397883E+02  0.00000000000E+00 0.  1.
        -11    1    3    3    0    0 -0.50928859975E+02 -0.40012495797E+02  0.19410903692E+03  0.20462909571E+03  0.00000000000E+00 0. -1.
         11    1    3    3    0    0  0.22860841337E+02  0.21949219746E+02  0.61998187068E+02  0.69628740573E+02  0.00000000000E+00 0.  1.
         21    1    1    2  502  501  0.24627075026E+02  0.14368156075E+02  0.80659485107E+02  0.85550507134E+02  0.00000000000E+00 0.  1.
<scales pt_clust_5="13000.00000" pt_clust_6="13000.00000" pt_clust_7="13000.00000" pt_clust_8="13000.00000" pt_clust_9="28.51205"></scales>
<clustering>
<clus scale="   28.512">  1  9  2 -1</clus>
<clus scale="   81.092">  5  6 -1 -1</clus>
<clus scale="   81.451">  2  5  1 -1</clus>
<clus scale="   92.262">  7  8 -1 -1</clus>
<clus scale="   81.451">  2  5  1 -1</clus>
</clustering>
</event>
<event>
 9    1  0.3846604E-005  0.9290105E+02  0.7546771E-02  0.1308454E+00
         -2   -1    0    0    0  501 -0.00000000000E+00  0.00000000000E+00  0.75246676929E+02  0.75246676929E+02  0.00000000000E+00 0.  1.
          1   -1    0    0  502    0  0.00000000000E+00 -0.00000000000E+00 -0.16066810522E+03  0.16066810522E+03  0.00000000000E+00 0. -1.
        -24    2    1    2    0    0  0.26232035525E+01  0.39158516348E+01  0.20146310322E+02  0.75797988851E+02  0.72919450103E+02 0.  0.
         23    2    1    2    0    0  0.48537160985E+01  0.17466203833E+02 -0.99161920891E+02  0.13657680340E+03  0.92149388695E+02 0.  0.
         13    1    3    3    0    0 -0.32350448787E+02  0.14977266691E+02  0.45487548805E+01  0.35938297473E+02  0.00000000000E+00 0. -1.
        -14    1    3    3    0    0  0.34973652340E+02 -0.11061415056E+02  0.15597555441E+02  0.39859691378E+02  0.00000000000E+00 0.  1.
        -13    1    4    4    0    0 -0.14770806942E+02 -0.24639012895E+02 -0.18992839943E+01  0.28790015176E+02  0.00000000000E+00 0.  1.
         13    1    4    4    0    0  0.19624523040E+02  0.42105216728E+02 -0.97262636897E+02  0.10778678823E+03  0.00000000000E+00 0. -1.
         21    1    1    2  502  501 -0.74769196510E+01 -0.21382055468E+02 -0.64058177192E+01  0.23539989893E+02  0.00000000000E+00 0.  1.
<scales pt_clust_5="13000.00000" pt_clust_6="13000.00000" pt_clust_7="13000.00000" pt_clust_8="13000.00000" pt_clust_9="22.65164"></scales>
<clustering>
<clus scale="   22.652">  1  9  2 -1</clus>
<clus scale="   72.919">  5  6 -1 -1</clus>
<clus scale="   73.867">  1  5  2 -1</clus>
<clus scale="   92.149">  7  8 -1 -1</clus>
<clus scale="   92.901">  2  5  1 -1</clus>
</clustering>
</event>
<event>
 9    1  0.3846604E-005  0.2307205E+03  0.7546771E-02  0.1126890E+00
          1   -1    0    0  502    0  0.00000000000E+00  0.00000000000E+00  0.13814609647E+04  0.13814609647E+04  0.00000000000E+00 0. -1.
         -2   -1    0    0    0  501 -0.00000000000E+00 -0.00000000000E+00 -0.62939010576E+02  0.62939010576E+02  0.00000000000E+00 0.  1.
        -24    2    1    2    0    0  0.21572399870E+03  0.84289640987E+02  0.31163858651E+03  0.39665165748E+03  0.81069979586E+02 0.  0.
         23    2    1    2    0    0 -0.19493013047E+03 -0.65033676375E+02  0.98877902150E+03  0.10141187998E+04  0.92335540137E+02 0.  0.
         13    1    3    3    0    0  0.30191335913E+02  0.86101496269E+01  0.10171026689E+03  0.10644543124E+03  0.00000000000E+00 0. -1.
        -14    1    3    3    0    0  0.18553266279E+03  0.75679491360E+02  0.20992831962E+03  0.29020622625E+03  0.00000000000E+00 0.  1.
        -13    1    4    4    0    0 -0.99775351956E+02 -0.80505729181E+02  0.52511557943E+03  0.54053923544E+03  0.00000000000E+00 0.  1.
         13    1    4    4    0    0 -0.95154778510E+02  0.15472052806E+02  0.46366344206E+03  0.47357956438E+03  0.00000000000E+00 0. -1.
         21    1    1    2  502  501 -0.20793868233E+02 -0.19255964612E+02  0.18104346072E+02  0.33629517926E+02  0.00000000000E+00 0. -1.
<scales pt_clust_5="13000.00000" pt_clust_6="13000.00000" pt_clust_7="13000.00000" pt_clust_8="13000.00000" pt_clust_9="28.34038"></scales>
<clustering>
<clus scale="   28.340">  2  9  1 -1</clus>
<clus scale="   81.070">  5  6 -1 -1</clus>
<clus scale="   92.336">  7  8 -1 -1</clus>
<clus scale="  226.447">  2  5  1 -1</clus>
<clus scale="  230.721">  1  5  2 -1</clus>
</clustering>
</event>
<event>
 9    1  0.3846604E-005  0.1451405E+03  0.7546771E-02  0.1208828E+00
          1   -1    0    0  502    0  0.00000000000E+00  0.00000000000E+00  0.90031559319E+03  0.90031559319E+03  0.00000000000E+00 0. -1.
         -2   -1    0    0    0  501 -0.00000000000E+00 -0.00000000000E+00 -0.40616501193E+02  0.40616501193E+02  0.00000000000E+00 0.  1.
        -24    2    1    2    0    0  0.11233409362E+02 -0.11700866343E+03  0.27394308272E+03  0.30900074531E+03  0.81359887088E+02 0.  0.
         23    2    1    2    0    0 -0.45788221466E+02  0.10113982090E+03  0.57432148578E+03  0.59222488196E+03  0.92516577935E+02 0.  0.
         13    1    3    3    0    0  0.39139413101E+02 -0.49359985230E+02  0.17458656066E+03  0.18560379566E+03  0.00000000000E+00 0. -1.
        -14    1    3    3    0    0 -0.27906003738E+02 -0.67648678204E+02  0.99356522065E+02  0.12339694966E+03  0.00000000000E+00 0.  1.
        -11    1    4    4    0    0 -0.10021849813E+02  0.10718635511E+03  0.45164318560E+03  0.46429615473E+03  0.00000000000E+00 0. -1.
         11    1    4    4    0    0 -0.35766371653E+02 -0.60465342160E+01  0.12267830018E+03  0.12792872723E+03  0.00000000000E+00 0.  1.
         21    1    1    2  502  501  0.34554812104E+02  0.15868842538E+02  0.11434523502E+02  0.39706467115E+02  0.00000000000E+00 0. -1.
<scales pt_clust_5="13000.00000" pt_clust_6="13000.00000" pt_clust_7="13000.00000" pt_clust_8="13000.00000" pt_clust_9="38.02440"></scales>
<clustering>
<clus scale="   38.024">  2  9  1 -1</clus>
<clus scale="   81.360">  5  6 -1 -1</clus>
<clus scale="   92.517">  7  8 -1 -1</clus>
<clus scale="  138.296">  2  5  1 -1</clus>
<clus scale="  145.140">  1  5  2 -1</clus>
</clustering>
</event>
<event>
 9    1  0.3846604E-005  0.5626439E+03  0.7546771E-02  0.9986090E-01
         -2   -1    0    0    0  501 -0.00000000000E+00  0.00000000000E+00  0.17675115535E+03  0.17675115535E+03  0.00000000000E+00 0.  1.
          1   -1    0    0  502    0  0.00000000000E+00 -0.00000000000E+00 -0.16229398372E+04  0.16229398372E+04  0.00000000000E+00 0. -1.
        -24    2    1    2    0    0  0.10240030925E+03  0.91781892431E+02 -0.29186443189E+03  0.33436846710E+03  0.87793428434E+02 0.  0.
         23    2    1    2    0    0  0.38423429058E+03  0.27700996424E+02 -0.57824533834E+03  0.70180677127E+03  0.98801506163E+02 0.  0.
         11    1    3    3    0    0  0.72654386801E+02  0.40208905889E+02 -0.24472554267E+03  0.25842988850E+03  0.00000000000E+00 0. -1.
        -12    1    3    3    0    0  0.29745922447E+02  0.51572986542E+02 -0.47138889219E+02  0.75938578601E+02  0.00000000000E+00 0.  1.
        -11    1    4    4    0    0  0.18254251125E+02  0.12171508024E+02 -0.66823593770E+01  0.22935065262E+02  0.00000000000E+00 0.  1.
         11    1    4    4    0    0  0.36598003945E+03  0.15529488399E+02 -0.57156297897E+03  0.67887170600E+03  0.00000000000E+00 0. -1.
         21    1    1    2  502  501 -0.48663459983E+03 -0.11948288885E+03 -0.57607891165E+03  0.76351575421E+03  0.00000000000E+00 0.  1.
<scales pt_clust_5="13000.00000" pt_clust_6="13000.00000" pt_clust_7="13000.00000" pt_clust_8="13000.00000" pt_clust_9="501.08821"></scales>
<clustering>
<clus scale="   87.793">  5  6 -1 -1</clus>
<clus scale="   98.802">  7  8 -1 -1</clus>
<clus scale="  136.279">  5  7 -1 -1</clus>
<clus scale="  501.088">  1  9  2 -1</clus>
<clus scale="  562.644">  2  5  1 -1</clus>
</clustering>
</event>
<event>
 9    1  0.3846604E-005  0.1042284E+03  0.7546771E-02  0.1276684E+00
         -4   -1    0    0    0  501 -0.00000000000E+00  0.00000000000E+00  0.60236727501E+03  0.60236727501E+03  0.00000000000E+00 0.  1.
          3   -1    0    0  502    0  0.00000000000E+00 -0.00000000000E+00 -0.60566831080E+02  0.60566831080E+02  0.00000000000E+00 0. -1.
        -24    2    1    2    0    0  0.27877128040E+02  0.35382226363E+02  0.36121761984E+03  0.37273665219E+03  0.80158635189E+02 0.  0.
         23    2    1    2    0    0 -0.10727106796E+03 -0.15669421375E+02  0.88829502330E+02  0.16727201133E+03  0.91305161421E+02 0.  0.
         13    1    3    3    0    0  0.35623184496E+02  0.34693784077E+02  0.10272961359E+03  0.11413169338E+03  0.00000000000E+00 0. -1.
        -14    1    3    3    0    0 -0.77460564565E+01  0.68844228565E+00  0.25848800626E+03  0.25860495881E+03  0.00000000000E+00 0.  1.
        -13    1    4    4    0    0 -0.29854304410E+02 -0.34263531385E+02 -0.32289898511E+01  0.45559800814E+02  0.00000000000E+00 0. -1.
         13    1    4    4    0    0 -0.77416763550E+02  0.18594110010E+02  0.92058492181E+02  0.12171221051E+03  0.00000000000E+00 0.  1.
         21    1    1    2  502  501  0.79393939920E+02 -0.19712804988E+02  0.91753321760E+02  0.12292544257E+03  0.00000000000E+00 0. -1.
<scales pt_clust_5="13000.00000" pt_clust_6="13000.00000" pt_clust_7="13000.00000" pt_clust_8="13000.00000" pt_clust_9="81.80460"></scales>
<clustering>
<clus scale="   80.159">  5  6 -1 -1</clus>
<clus scale="   81.805">  2  9  1 -1</clus>
<clus scale="   91.305">  7  8 -1 -1</clus>
<clus scale="   94.617">  1  5  2 -1</clus>
<clus scale="   81.805">  2  5  1 -1</clus>
</clustering>
</event>
<event>
 9    1  0.3846604E-005  0.8946693E+02  0.7546771E-02  0.1309513E+00
          1   -1    0    0  502    0  0.00000000000E+00  0.00000000000E+00  0.32308939638E+03  0.32308939638E+03  0.00000000000E+00 0. -1.
         -2   -1    0    0    0  501 -0.00000000000E+00 -0.00000000000E+00 -0.54327409354E+02  0.54327409354E+02  0.00000000000E+00 0.  1.
        -24    2    1    2    0    0  0.46660455017E+02 -0.32868553661E+01  0.48606194987E+02  0.10484692370E+03  0.80264025173E+02 0.  0.
         23    2    1    2    0    0 -0.21160081039E+00  0.15652555385E+01  0.20551233632E+03  0.22383703112E+03  0.88685970265E+02 0.  0.
         11    1    3    3    0    0  0.62641068186E+02  0.10489487853E+02  0.53665324276E+02  0.83149863552E+02  0.00000000000E+00 0. -1.
        -12    1    3    3    0    0 -0.15980613170E+02 -0.13776343219E+02 -0.50591292893E+01  0.21697060145E+02  0.00000000000E+00 0.  1.
        -13    1    4    4    0    0 -0.43462724597E+02  0.46785376068E+01  0.81842267581E+02  0.92784987506E+02  0.00000000000E+00 0.  1.
         13    1    4    4    0    0  0.43251123787E+02 -0.31132820683E+01  0.12367006874E+03  0.13105204362E+03  0.00000000000E+00 0. -1.
         21    1    1    2  502  501 -0.46448854206E+02  0.17215998276E+01  0.14643455719E+02  0.48732850916E+02  0.00000000000E+00 0.  1.
<scales pt_clust_5="13000.00000" pt_clust_6="13000.00000" pt_clust_7="13000.00000" pt_clust_8="13000.00000" pt_clust_9="46.48075"></scales>
<clustering>
<clus scale="   46.481">  2  9  1 -1</clus>
<clus scale="   80.264">  5  6 -1 -1</clus>
<clus scale="   81.126">  2  5  1 -1</clus>
<clus scale="   88.686">  7  8 -1 -1</clus>
<clus scale="   89.467">  1  5  2 -1</clus>
</clustering>
</event>
<event>
 9    1  0.3846604E-005  0.3107702E+03  0.7546771E-02  0.1080436E+00
         -2   -1    0    0    0  501 -0.00000000000E+00  0.00000000000E+00  0.40087096607E+03  0.40087096607E+03  0.00000000000E+00 0.  1.
          1   -1    0    0  502    0  0.00000000000E+00 -0.00000000000E+00 -0.13212060190E+04  0.13212060190E+04  0.00000000000E+00 0. -1.
        -24    2    1    2    0    0  0.12004094880E+03 -0.15595155414E+03  0.26389329369E+03  0.33877991862E+03  0.80009038121E+02 0.  0.
         23    2    1    2    0    0 -0.20983728368E+03  0.21869893530E+03 -0.12257616351E+04  0.12661406341E+04  0.93592785438E+02 0.  0.
         11    1    3    3    0    0  0.10394550883E+02 -0.51224596406E+02  0.11476943303E+03  0.12611117605E+03  0.00000000000E+00 0. -1.
        -12    1    3    3    0    0  0.10964639792E+03 -0.10472695773E+03  0.14912386066E+03  0.21266874258E+03  0.00000000000E+00 0.  1.
        -11    1    4    4    0    0 -0.62090099207E+02  0.10113312064E+03 -0.32983964317E+03  0.35053855525E+03  0.00000000000E+00 0. -1.
         11    1    4    4    0    0 -0.14774718447E+03  0.11756581465E+03 -0.89592199189E+03  0.91560207888E+03  0.00000000000E+00 0.  1.
         21    1    1    2  502  501  0.89796334877E+02 -0.62747381161E+02  0.41533288396E+02  0.11715643237E+03  0.00000000000E+00 0.  1.
<scales pt_clust_5="13000.00000" pt_clust_6="13000.00000" pt_clust_7="13000.00000" pt_clust_8="13000.00000" pt_clust_9="109.54732"></scales>
<clustering>
<clus scale="   80.009">  5  6 -1 -1</clus>
<clus scale="   93.593">  7  8 -1 -1</clus>
<clus scale="  109.547">  1  9  2 -1</clus>
<clus scale="  306.953">  1  5  2 -1</clus>
<clus scale="  310.770">  2  5  1 -1</clus>
</clustering>
</event>
<event>
 9    1  0.3846604E-005  0.1130821E+03  0.7546771E-02  0.1258967E+00
          1   -1    0    0  502    0  0.00000000000E+00  0.00000000000E+00  0.74394656078E+03  0.74394656078E+03  0.00000000000E+00 0. -1.
         -2   -1    0    0    0  501 -0.00000000000E+00 -0.00000000000E+00 -0.44373018187E+02  0.44373018187E+02  0.00000000000E+00 0.  1.
        -24    2    1    2    0    0  0.19511399446E+02 -0.68316945838E+02  0.16176386774E+03  0.19493477289E+03  0.82365751241E+02 0.  0.
         23    2    1    2    0    0 -0.74761008007E+02  0.10422554546E+02  0.47983988388E+03  0.49456792263E+03  0.93022997006E+02 0.  0.
         11    1    3    3    0    0  0.21776613510E+02 -0.38524832254E+02  0.17465289485E+02  0.47575413114E+02  0.00000000000E+00 0. -1.
        -12    1    3    3    0    0 -0.22652140637E+01 -0.29792113584E+02  0.14429857825E+03  0.14735935977E+03  0.00000000000E+00 0.  1.
        -11    1    4    4    0    0  0.46414167443E+00 -0.29078220306E+02  0.66426545580E+02  0.72513752360E+02  0.00000000000E+00 0. -1.
         11    1    4    4    0    0 -0.75225149682E+02  0.39500774852E+02  0.41341333830E+03  0.42205417027E+03  0.00000000000E+00 0.  1.
         21    1    1    2  502  501  0.55249608561E+02  0.57894391293E+02  0.57969790977E+02  0.98816883452E+02  0.00000000000E+00 0.  1.
<scales pt_clust_5="13000.00000" pt_clust_6="13000.00000" pt_clust_7="13000.00000" pt_clust_8="13000.00000" pt_clust_9="80.02674"></scales>
<clustering>
<clus scale="   80.027">  2  9  1 -1</clus>
<clus scale="   82.366">  5  6 -1 -1</clus>
<clus scale="   93.023">  7  8 -1 -1</clus>
<clus scale="  104.491">  2  5  1 -1</clus>
<clus scale="  113.082">  1  5  2 -1</clus>
</clustering>
</event>
<event>
 9    1  0.3846604E-005  0.1373784E+03  0.7546771E-02  0.1220394E+00
          1   -1    0    0  502    0  0.00000000000E+00  0.00000000000E+00  0.77926441153E+03  0.77926441153E+03  0.00000000000E+00 0. -1.
         -2   -1    0    0    0  501 -0.00000000000E+00 -0.00000000000E+00 -0.45657057336E+02  0.45657057336E+02  0.00000000000E+00 0.  1.
         23    2    1    2    0    0 -0.11152575717E+03  0.50837908256E+02  0.21061250592E+03  0.26093980580E+03  0.93324526103E+02 0.  0.
        -24    2    1    2    0    0  0.96875194743E+02  0.55720764378E+01  0.46627395550E+03  0.48265525265E+03  0.78286907897E+02 0.  0.
         11    1    4    4    0    0  0.70078379009E+02 -0.21236812031E+02  0.39692804265E+03  0.40362588177E+03  0.00000000000E+00 0. -1.
        -12    1    4    4    0    0  0.26796815733E+02  0.26808888469E+02  0.69345912845E+02  0.79029370886E+02  0.00000000000E+00 0.  1.
        -11    1    3    3    0    0 -0.88988296843E+02  0.41367708112E+02  0.75989803605E+02  0.12411548856E+03  0.00000000000E+00 0.  1.
         11    1    3    3    0    0 -0.22537460332E+02  0.94702001445E+01  0.13462270231E+03  0.13682431724E+03  0.00000000000E+00 0. -1.
         21    1    1    2  502  501  0.14650562432E+02 -0.56409984694E+02  0.56720892780E+02  0.81326410412E+02  0.00000000000E+00 0.  1.
<scales pt_clust_5="13000.00000" pt_clust_6="13000.00000" pt_clust_7="13000.00000" pt_clust_8="13000.00000" pt_clust_9="58.28143"></scales>
<clustering>
<clus scale="   58.281">  2  9  1 -1</clus>
<clus scale="   78.287">  5  6 -1 -1</clus>
<clus scale="   93.325">  7  8 -1 -1</clus>
<clus scale="  127.641">  1  5  2 -1</clus>
<clus scale="  127.641">  1  5  2 -1</clus>
</clustering>
</event>
<event>
 9    1  0.3846604E-005  0.9997241E+02  0.7546771E-02  0.1285902E+00
         -2   -1    0    0    0  501 -0.00000000000E+00  0.00000000000E+00  0.37181778673E+03  0.37181778673E+03  0.00000000000E+00 0.  1.
          1   -1    0    0  502    0  0.00000000000E+00 -0.00000000000E+00 -0.74627104245E+02  0.74627104245E+02  0.00000000000E+00 0. -1.
        -24    2    1    2    0    0 -0.53134230848E+02 -0.22147295575E+02  0.27899171085E+03  0.29599091524E+03  0.80377223106E+02 0.  0.
         23    2    1    2    0    0  0.30644540443E+02  0.23132495536E+02 -0.24554474649E+02  0.10213613262E+03  0.91403868371E+02 0.  0.
         13    1    3    3    0    0 -0.58988635988E+02  0.10593780367E+02  0.22254583724E+03  0.23047459086E+03  0.00000000000E+00 0. -1.
        -14    1    3    3    0    0  0.58544051396E+01 -0.32741075942E+02  0.56445873610E+02  0.65516324385E+02  0.00000000000E+00 0.  1.
        -11    1    4    4    0    0  0.61961031779E+02  0.13040897854E+02 -0.27642164468E+02  0.69089244694E+02  0.00000000000E+00 0.  1.
         11    1    4    4    0    0 -0.31316491336E+02  0.10091597682E+02  0.30876898193E+01  0.33046887929E+02  0.00000000000E+00 0. -1.
         21    1    1    2  502  501  0.22489690405E+02 -0.98519996174E+00  0.42753446281E+02  0.48317843106E+02  0.00000000000E+00 0. -1.
<scales pt_clust_5="13000.00000" pt_clust_6="13000.00000" pt_clust_7="13000.00000" pt_clust_8="13000.00000" pt_clust_9="22.51126"></scales>
<clustering>
<clus scale="   22.511">  1  9  2 -1</clus>
<clus scale="   80.377">  5  6 -1 -1</clus>
<clus scale="   90.002">  1  5  2 -1</clus>
<clus scale="   91.404">  7  8 -1 -1</clus>
<clus scale="   99.972">  2  5  1 -1</clus>
</clustering>
</event>
<event>
 9    1  0.3846604E-005  0.1114705E+03  0.7546771E-02  0.1260685E+00
          3   -1    0    0  502    0  0.00000000000E+00  0.00000000000E+00  0.27698681890E+03  0.27698681890E+03  0.00000000000E+00 0. -1.
         -4   -1    0    0    0  501 -0.00000000000E+00 -0.00000000000E+00 -0.16298720131E+03  0.16298720131E+03  0.00000000000E+00 0.  1.
        -24    2    1    2    0    0 -0.95182018613E+02  0.85910911864E+01 -0.16801170594E+02  0.12765213235E+03  0.82941931761E+02 0.  0.
         23    2    1    2    0    0  0.58043947059E+02 -0.13438612505E+02  0.20350693611E+03  0.23053607756E+03  0.90455038072E+02 0.  0.
         13    1    3    3    0    0 -0.26095483276E+02 -0.33455866708E+02  0.77508877616E+01  0.43131722962E+02  0.00000000000E+00 0. -1.
        -14    1    3    3    0    0 -0.69086535337E+02  0.42046957894E+02 -0.24552058355E+02  0.84520409384E+02  0.00000000000E+00 0.  1.
        -11    1    4    4    0    0  0.10363594640E+02  0.36961607198E+02  0.61704911549E+02  0.72670906213E+02  0.00000000000E+00 0.  1.
         11    1    4    4    0    0  0.47680352419E+02 -0.50400219702E+02  0.14180202456E+03  0.15786517134E+03  0.00000000000E+00 0. -1.
         21    1    1    2  502  501  0.37138071555E+02  0.48475213182E+01 -0.72706147929E+02  0.81785810312E+02  0.00000000000E+00 0.  1.
<scales pt_clust_5="13000.00000" pt_clust_6="13000.00000" pt_clust_7="13000.00000" pt_clust_8="13000.00000" pt_clust_9="37.45310"></scales>
<clustering>
<clus scale="   37.453">  2  9  1 -1</clus>
<clus scale="   82.942">  5  6 -1 -1</clus>
<clus scale="   90.455">  7  8 -1 -1</clus>
<clus scale="  105.465">  2  5  1 -1</clus>
<clus scale="  111.470">  1  5  2 -1</clus>
</clustering>
</event>
<event>
 9    1  0.3846604E-005  0.1226941E+03  0.7546771E-02  0.1241920E+00
          1   -1    0    0  502    0  0.00000000000E+00  0.00000000000E+00  0.45829251579E+03  0.45829251579E+03  0.00000000000E+00 0. -1.
         -2   -1    0    0    0  501 -0.00000000000E+00 -0.00000000000E+00 -0.82712453466E+02  0.82712453466E+02  0.00000000000E+00 0.  1.
        -24    2    1    2    0    0  0.62553824238E+02  0.66283704204E+02  0.67228194823E+02  0.13911065754E+03  0.80781399412E+02 0.  0.
         23    2    1    2    0    0 -0.38880203690E+02 -0.69572082134E+02  0.34071516253E+03  0.36166202861E+03  0.91436623471E+02 0.  0.
         13    1    3    3    0    0 -0.10608862163E+02  0.43817291062E+02  0.21400670014E+02  0.49904825714E+02  0.00000000000E+00 0. -1.
        -14    1    3    3    0    0  0.73162686401E+02  0.22466413142E+02  0.45827524808E+02  0.89205831821E+02  0.00000000000E+00 0.  1.
        -11    1    4    4    0    0  0.25880608789E+02 -0.98920637091E+01  0.42653359936E+02  0.50862244834E+02  0.00000000000E+00 0.  1.
         11    1    4    4    0    0 -0.64760812479E+02 -0.59680018425E+02  0.29806180259E+03  0.31079978378E+03  0.00000000000E+00 0. -1.
         21    1    1    2  502  501 -0.23673620548E+02  0.32883779302E+01 -0.32363295027E+02  0.40232283110E+02  0.00000000000E+00 0.  1.
<scales pt_clust_5="13000.00000" pt_clust_6="13000.00000" pt_clust_7="13000.00000" pt_clust_8="13000.00000" pt_clust_9="23.90092"></scales>
<clustering>
<clus scale="   23.901">  2  9  1 -1</clus>
<clus scale="   80.781">  5  6 -1 -1</clus>
<clus scale="   91.437">  7  8 -1 -1</clus>
<clus scale="  114.973">  2  5  1 -1</clus>
<clus scale="  122.694">  1  5  2 -1</clus>
</clustering>
</event>
<event>
 9    1  0.3846604E-005  0.1833456E+03  0.7546771E-02  0.1166118E+00
         -2   -1    0    0    0  501 -0.00000000000E+00  0.00000000000E+00  0.73276705687E+02  0.73276705687E+02  0.00000000000E+00 0.  1.
          1   -1    0    0  502    0  0.00000000000E+00 -0.00000000000E+00 -0.52292456927E+03  0.52292456927E+03  0.00000000000E+00 0. -1.
        -24    2    1    2    0    0  0.93527193134E+02 -0.12507136646E+03 -0.18114048841E+03  0.25345683266E+03  0.83894617923E+02 0.  0.
         23    2    1    2    0    0 -0.11421513133E+03  0.10741101679E+03 -0.24708750617E+03  0.30812234639E+03  0.96462023021E+02 0.  0.
         11    1    3    3    0    0  0.89782405132E+02 -0.53230671410E+02 -0.94060632105E+02  0.14050547022E+03  0.00000000000E+00 0. -1.
        -12    1    3    3    0    0  0.37447880025E+01 -0.71840695051E+02 -0.87079856309E+02  0.11295136244E+03  0.00000000000E+00 0.  1.
        -13    1    4    4    0    0 -0.22368899510E+02  0.86169909239E+02 -0.10580332782E+03  0.13827496194E+03  0.00000000000E+00 0.  1.
         13    1    4    4    0    0 -0.91846231818E+02  0.21241107554E+02 -0.14128417835E+03  0.16984738444E+03  0.00000000000E+00 0. -1.
         21    1    1    2  502  501  0.20687938194E+02  0.17660349669E+02 -0.21419869001E+02  0.34622095909E+02  0.00000000000E+00 0. -1.
<scales pt_clust_5="13000.00000" pt_clust_6="13000.00000" pt_clust_7="13000.00000" pt_clust_8="13000.00000" pt_clust_9="27.20071"></scales>
<clustering>
<clus scale="   27.201">  1  9  2 -1</clus>
<clus scale="   83.895">  5  6 -1 -1</clus>
<clus scale="   96.462">  7  8 -1 -1</clus>
<clus scale="  177.056">  1  5  2 -1</clus>
<clus scale="  183.346">  2  5  1 -1</clus>
</clustering>
</event>
<event>
 9    1  0.3846604E-005  0.1139297E+03  0.7546771E-02  0.1258639E+00
          1   -1    0    0  502    0  0.00000000000E+00  0.00000000000E+00  0.10366163057E+04  0.10366163057E+04  0.00000000000E+00 0. -1.
         -2   -1    0    0    0  501 -0.00000000000E+00 -0.00000000000E+00 -0.36175715822E+02  0.36175715822E+02  0.00000000000E+00 0.  1.
        -24    2    1    2    0    0  0.13283650568E+02 -0.41397928544E+02  0.83020113744E+02  0.13997570707E+03  0.10397410939E+03 0.  0.
         23    2    1    2    0    0 -0.60786391773E+02  0.47183303633E+02  0.70333756195E+03  0.71345023883E+03  0.91685700483E+02 0.  0.
         11    1    3    3    0    0 -0.30493881338E+02  0.14476039796E+02  0.53154859900E+02  0.62967226858E+02  0.00000000000E+00 0. -1.
        -12    1    3    3    0    0  0.43777531906E+02 -0.55873968340E+02  0.29865253844E+02  0.77008480215E+02  0.00000000000E+00 0.  1.
        -11    1    4    4    0    0 -0.12204743722E+02 -0.27792392612E+02  0.18093558960E+03  0.18346405763E+03  0.00000000000E+00 0.  1.
         11    1    4    4    0    0 -0.48581648051E+02  0.74975696246E+02  0.52240197235E+03  0.52998618121E+03  0.00000000000E+00 0. -1.
         21    1    1    2  502  501  0.47502741204E+02 -0.57853750889E+01  0.21408291421E+03  0.21936607564E+03  0.00000000000E+00 0.  1.
<scales pt_clust_5="13000.00000" pt_clust_6="13000.00000" pt_clust_7="13000.00000" pt_clust_8="13000.00000" pt_clust_9="47.85375"></scales>
<clustering>
<clus scale="   47.854">  1  9  2 -1</clus>
<clus scale="   91.686">  7  8 -1 -1</clus>
<clus scale="  102.838">  1  7  2 -1</clus>
<clus scale="  103.974">  5  6 -1 -1</clus>
<clus scale="   47.854">  1  5  2 -1</clus>
</clustering>
</event>
<event>
 9    1  0.3846604E-005  0.1447521E+03  0.7546771E-02  0.1209826E+00
          1   -1    0    0  502    0  0.00000000000E+00  0.00000000000E+00  0.96507261053E+03  0.96507261053E+03  0.00000000000E+00 0. -1.
         -2   -1    0    0    0  501 -0.00000000000E+00 -0.00000000000E+00 -0.17505443431E+03  0.17505443431E+03  0.00000000000E+00 0.  1.
         23    2    1    2    0    0  0.82156525097E+02 -0.84878747722E+02  0.44933132924E+01  0.15112442338E+03  0.94150438370E+02 0.  0.
        -24    2    1    2    0    0 -0.14788248754E+02  0.10994031754E+03  0.86846762692E+03  0.87924803596E+03  0.80842587926E+02 0.  0.
         13    1    4    4    0    0 -0.39614559492E+02  0.92467932649E+02  0.53303476413E+03  0.54244418299E+03  0.00000000000E+00 0. -1.
        -14    1    4    4    0    0  0.24826310738E+02  0.17472384888E+02  0.33543286279E+03  0.33680385297E+03  0.00000000000E+00 0.  1.
        -11    1    3    3    0    0  0.35886778179E+02 -0.29790793365E+02 -0.44196761021E+02  0.64255006825E+02  0.00000000000E+00 0.  1.
         11    1    3    3    0    0  0.46269746918E+02 -0.55087954357E+02  0.48690074313E+02  0.86869416550E+02  0.00000000000E+00 0. -1.
         21    1    1    2  502  501 -0.67368276343E+02 -0.25061569814E+02 -0.82942763994E+02  0.10975458550E+03  0.00000000000E+00 0.  1.
<scales pt_clust_5="13000.00000" pt_clust_6="13000.00000" pt_clust_7="13000.00000" pt_clust_8="13000.00000" pt_clust_9="71.87884"></scales>
<clustering>
<clus scale="   71.879">  2  9  1 -1</clus>
<clus scale="   80.843">  5  6 -1 -1</clus>
<clus scale="   94.150">  7  8 -1 -1</clus>
<clus scale="  136.471">  1  5  2 -1</clus>
<clus scale="  136.471">  1  5  2 -1</clus>
</clustering>
</event>
<event>
 9    1  0.3846604E-005  0.1318761E+03  0.7546771E-02  0.1226026E+00
          1   -1    0    0  502    0  0.00000000000E+00  0.00000000000E+00  0.53200846466E+03  0.53200846466E+03  0.00000000000E+00 0. -1.
         -2   -1    0    0    0  501 -0.00000000000E+00 -0.00000000000E+00 -0.14988495826E+03  0.14988495826E+03  0.00000000000E+00 0.  1.
        -24    2    1    2    0    0  0.11088660425E+02 -0.42631410880E+02 -0.26532902614E+02  0.10025015753E+03  0.86056397676E+02 0.  0.
         23    2    1    2    0    0 -0.65747581247E+01  0.10818903142E+03  0.47166812978E+03  0.49060122081E+03  0.80440283726E+02 0.  0.
         11    1    3    3    0    0 -0.33544007283E+02 -0.31886805319E+02  0.17765720056E+01  0.46315494018E+02  0.00000000000E+00 0. -1.
        -12    1    3    3    0    0  0.44632667708E+02 -0.10744605560E+02 -0.28309474619E+02  0.53934663516E+02  0.00000000000E+00 0.  1.
        -13    1    4    4    0    0 -0.39933270017E+02  0.76786552890E+02  0.25983412437E+03  0.27386970067E+03  0.00000000000E+00 0. -1.
         13    1    4    4    0    0  0.33358511892E+02  0.31402478535E+02  0.21183400541E+03  0.21673152014E+03  0.00000000000E+00 0.  1.
         21    1    1    2  502  501 -0.45139023001E+01 -0.65557620545E+02 -0.63011720772E+02  0.91042044573E+02  0.00000000000E+00 0.  1.
<scales pt_clust_5="13000.00000" pt_clust_6="13000.00000" pt_clust_7="13000.00000" pt_clust_8="13000.00000" pt_clust_9="65.71284"></scales>
<clustering>
<clus scale="   65.713">  2  9  1 -1</clus>
<clus scale="   80.440">  7  8 -1 -1</clus>
<clus scale="   86.056">  5  6 -1 -1</clus>
<clus scale="  128.282">  1  7  2 -1</clus>
<clus scale="  128.282">  1  5  2 -1</clus>
</clustering>
</event>
<event>
 9    1  0.3846604E-005  0.1508756E+03  0.7546771E-02  0.1201025E+00
          3   -1    0    0  502    0  0.00000000000E+00  0.00000000000E+00  0.49637427615E+03  0.49637427615E+03  0.00000000000E+00 0. -1.
         -4   -1    0    0    0  501 -0.00000000000E+00 -0.00000000000E+00 -0.62616511521E+02  0.62616511521E+02  0.00000000000E+00 0.  1.
         23    2    1    2    0    0  0.31909963822E+02  0.99974044467E+02  0.14999439482E+03  0.20464894582E+03  0.91486704996E+02 0.  0.
        -24    2    1    2    0    0  0.35629040653E+01 -0.13744882861E+03  0.22158793137E+03  0.27354290035E+03  0.82581064588E+02 0.  0.
         13    1    4    4    0    0 -0.31795003392E+02 -0.92625865921E+02  0.17199256546E+03  0.19791896284E+03  0.00000000000E+00 0. -1.
        -14    1    4    4    0    0  0.35357907457E+02 -0.44822962690E+02  0.49595365913E+02  0.75623937507E+02  0.00000000000E+00 0.  1.
        -11    1    3    3    0    0  0.31097050886E+02  0.39003379487E+02  0.85355584980E+01  0.50607765650E+02  0.00000000000E+00 0.  1.
         11    1    3    3    0    0  0.81291293564E+00  0.60970664980E+02  0.14145883632E+03  0.15404118017E+03  0.00000000000E+00 0. -1.
         21    1    1    2  502  501 -0.35472867887E+02  0.37474784144E+02  0.62175438430E+02  0.80798941495E+02  0.00000000000E+00 0.  1.
<scales pt_clust_5="13000.00000" pt_clust_6="13000.00000" pt_clust_7="13000.00000" pt_clust_8="13000.00000" pt_clust_9="51.60120"></scales>
<clustering>
<clus scale="   51.601">  2  9  1 -1</clus>
<clus scale="   82.581">  5  6 -1 -1</clus>
<clus scale="   91.487">  7  8 -1 -1</clus>
<clus scale="  145.648">  1  5  2 -1</clus>
<clus scale="  145.648">  1  5  2 -1</clus>
</clustering>
</event>
<event>
 9    1  0.3846604E-005  0.1059155E+03  0.7546771E-02  0.1271128E+00
         -2   -1    0    0    0  501 -0.00000000000E+00  0.00000000000E+00  0.97048391980E+02  0.97048391980E+02  0.00000000000E+00 0.  1.
          1   -1    0    0  502    0  0.00000000000E+00 -0.00000000000E+00 -0.33453741385E+03  0.33453741385E+03  0.00000000000E+00 0. -1.
         23    2    1    2    0    0 -0.44642707981E+02 -0.55895100656E+02  0.74529903949E+01  0.11381318452E+03  0.88208050944E+02 0.  0.
        -24    2    1    2    0    0  0.50358494338E+02  0.27551456879E+02 -0.26465235594E+03  0.28277933618E+03  0.81413897694E+02 0.  0.
         13    1    4    4    0    0  0.31365133360E+02  0.53725221517E+02 -0.21245513449E+03  0.22137604927E+03  0.00000000000E+00 0. -1.
        -14    1    4    4    0    0  0.18993360978E+02 -0.26173764638E+02 -0.52197221445E+02  0.61403286909E+02  0.00000000000E+00 0.  1.
        -13    1    3    3    0    0 -0.31624009325E+02  0.10214275160E+02  0.27909143303E+02  0.43397346264E+02  0.00000000000E+00 0.  1.
         13    1    3    3    0    0 -0.13018698656E+02 -0.66109375816E+02 -0.20456152908E+02  0.70415838256E+02  0.00000000000E+00 0. -1.
         21    1    1    2  502  501 -0.57157863564E+01  0.28343643777E+02  0.19710343677E+02  0.34993285129E+02  0.00000000000E+00 0. -1.
<scales pt_clust_5="13000.00000" pt_clust_6="13000.00000" pt_clust_7="13000.00000" pt_clust_8="13000.00000" pt_clust_9="28.91422"></scales>
<clustering>
<clus scale="   28.914">  1  9  2 -1</clus>
<clus scale="   81.414">  5  6 -1 -1</clus>
<clus scale="   88.208">  7  8 -1 -1</clus>
<clus scale="  100.328">  2  5  1 -1</clus>
<clus scale="  100.328">  2  5  1 -1</clus>
</clustering>
</event>
<event>
 9    1  0.3846604E-005  0.1092277E+03  0.7546771E-02  0.1267878E+00
         -2   -1    0    0    0  501 -0.00000000000E+00  0.00000000000E+00  0.15684920012E+03  0.15684920012E+03  0.00000000000E+00 0.  1.
          1   -1    0    0  502    0  0.00000000000E+00 -0.00000000000E+00 -0.23788652626E+03  0.23788652626E+03  0.00000000000E+00 0. -1.
         23    2    1    2    0    0  0.43660536387E+02 -0.12111001476E+02  0.10506504436E+03  0.14841856871E+03  0.94533005860E+02 0.  0.
        -24    2    1    2    0    0 -0.53116108438E+02 -0.18755825071E+02 -0.18986561189E+03  0.21381591448E+03  0.80592758690E+02 0.  0.
         13    1    4    4    0    0 -0.68534092691E+02 -0.20610844154E+02 -0.18362746184E+03  0.19708062690E+03  0.00000000000E+00 0. -1.
        -14    1    4    4    0    0  0.15417984252E+02  0.18550190827E+01 -0.62381500583E+01  0.16735287579E+02  0.00000000000E+00 0.  1.
        -13    1    3    3    0    0 -0.67477770755E+01  0.32785005164E+02  0.17246195733E+02  0.37653954989E+02  0.00000000000E+00 0. -1.
         13    1    3    3    0    0  0.50408313462E+02 -0.44896006640E+02  0.87818848624E+02  0.11076461372E+03  0.00000000000E+00 0.  1.
         21    1    1    2  502  501  0.94555720517E+01  0.30866826547E+02  0.37632413936E+01  0.32501243203E+02  0.00000000000E+00 0.  1.
<scales pt_clust_5="13000.00000" pt_clust_6="13000.00000" pt_clust_7="13000.00000" pt_clust_8="13000.00000" pt_clust_9="32.28264"></scales>
<clustering>
<clus scale="   32.283">  1  9  2 -1</clus>
<clus scale="   80.593">  5  6 -1 -1</clus>
<clus scale="   94.533">  7  8 -1 -1</clus>
<clus scale="   97.414">  2  5  1 -1</clus>
<clus scale="   97.414">  2  5  1 -1</clus>
</clustering>
</event>
<event>
 9    1  0.3846604E-005  0.1307218E+03  0.7546771E-02  0.1231617E+00
          1   -1    0    0  502    0  0.00000000000E+00  0.00000000000E+00  0.50727225400E+03  0.50727225400E+03  0.00000000000E+00 0. -1.
         -2   -1    0    0    0  501 -0.00000000000E+00 -0.00000000000E+00 -0.12850425834E+03  0.12850425834E+03  0.00000000000E+00 0.  1.
         23    2    1    2    0    0 -0.33816363261E+02  0.60631757050E+02 -0.66881697966E+02  0.13618711225E+03  0.96197773529E+02 0.  0.
        -24    2    1    2    0    0  0.60656378525E+02 -0.66578240374E+02  0.45528906146E+03  0.47045755334E+03  0.77008581744E+02 0.  0.
         11    1    4    4    0    0  0.78727780511E+02 -0.46680065645E+02  0.35957268114E+03  0.37103854918E+03  0.00000000000E+00 0. -1.
        -12    1    4    4    0    0 -0.18071401986E+02 -0.19898174729E+02  0.95716380322E+02  0.99419004165E+02  0.00000000000E+00 0.  1.
        -13    1    3    3    0    0  0.54165054608E+01  0.58329866580E+02 -0.75887869245E+02  0.95868037245E+02  0.00000000000E+00 0.  1.
         13    1    3    3    0    0 -0.39232868721E+02  0.23018904695E+01  0.90061712787E+01  0.40319075001E+02  0.00000000000E+00 0. -1.
         21    1    1    2  502  501 -0.26840015264E+02  0.59464833244E+01 -0.96393678352E+01  0.29131846759E+02  0.00000000000E+00 0.  1.
<scales pt_clust_5="13000.00000" pt_clust_6="13000.00000" pt_clust_7="13000.00000" pt_clust_8="13000.00000" pt_clust_9="27.49085"></scales>
<clustering>
<clus scale="   27.491">  2  9  1 -1</clus>
<clus scale="   77.009">  5  6 -1 -1</clus>
<clus scale="   96.198">  7  8 -1 -1</clus>
<clus scale="  117.322">  1  5  2 -1</clus>
<clus scale="  117.322">  1  5  2 -1</clus>
</clustering>
</event>
<event>
 9    1  0.3846604E-005  0.1003849E+03  0.7546771E-02  0.1279897E+00
         -2   -1    0    0    0  501 -0.00000000000E+00  0.00000000000E+00  0.36920290237E+02  0.36920290237E+02  0.00000000000E+00 0.  1.
          1   -1    0    0  502    0  0.00000000000E+00 -0.00000000000E+00 -0.60642102590E+03  0.60642102590E+03  0.00000000000E+00 0. -1.
         23    2    1    2    0    0  0.97397969220E+02  0.34884361303E+01 -0.20969694373E+03  0.24403047625E+03  0.77971350701E+02 0.  0.
        -24    2    1    2    0    0 -0.38708911012E+02 -0.34094099310E+02 -0.28095155532E+03  0.29636042761E+03  0.78961631270E+02 0.  0.
         11    1    4    4    0    0 -0.53894566054E+02 -0.44114270035E+02 -0.25707372504E+03  0.26634112182E+03  0.00000000000E+00 0. -1.
        -12    1    4    4    0    0  0.15185655042E+02  0.10020170725E+02 -0.23877830289E+02  0.30019305783E+02  0.00000000000E+00 0.  1.
        -13    1    3    3    0    0  0.54062981274E+02  0.40430170270E+02 -0.12292021714E+03  0.14023831286E+03  0.00000000000E+00 0.  1.
         13    1    3    3    0    0  0.43334987946E+02 -0.36941734140E+02 -0.86776726593E+02  0.10379216338E+03  0.00000000000E+00 0. -1.
         21    1    1    2  502  501 -0.58689058208E+02  0.30605663179E+02 -0.78852236606E+02  0.10295041229E+03  0.00000000000E+00 0.  1.
<scales pt_clust_5="13000.00000" pt_clust_6="13000.00000" pt_clust_7="13000.00000" pt_clust_8="13000.00000" pt_clust_9="66.18997"></scales>
<clustering>
<clus scale="   66.190">  1  9  2 -1</clus>
<clus scale="   77.971">  7  8 -1 -1</clus>
<clus scale="   78.962">  5  6 -1 -1</clus>
<clus scale="   99.608">  1  7  2 -1</clus>
<clus scale="  100.385">  2  5  1 -1</clus>
</clustering>
</event>
<event>
 9    1  0.3846604E-005  0.1001088E+03  0.7546771E-02  0.1287748E+00
         -2   -1    0    0    0  501 -0.00000000000E+00  0.00000000000E+00  0.36522687598E+02  0.36522687598E+02  0.00000000000E+00 0.  1.
          1   -1    0    0  502    0  0.00000000000E+00 -0.00000000000E+00 -0.55154395382E+03  0.55154395382E+03  0.00000000000E+00 0. -1.
         23    2    1    2    0    0  0.80412396874E+01 -0.34711972329E+02 -0.57354773065E+02  0.11697450059E+03  0.95519009811E+02 0.  0.
        -24    2    1    2    0    0  0.40039299202E+01  0.77066130935E+01 -0.35308194267E+03  0.36240771813E+03  0.81222365011E+02 0.  0.
         11    1    4    4    0    0 -0.14935864876E+02  0.33290206142E+02 -0.85786644998E+02  0.93223743459E+02  0.00000000000E+00 0. -1.
        -12    1    4    4    0    0  0.18939794796E+02 -0.25583593048E+02 -0.26729529767E+03  0.26918397467E+03  0.00000000000E+00 0.  1.
        -11    1    3    3    0    0  0.45519439983E+02  0.14095869033E+01 -0.10046247833E+02  0.46636181738E+02  0.00000000000E+00 0.  1.
         11    1    3    3    0    0 -0.37478200295E+02 -0.36121559232E+02 -0.47308525231E+02  0.70338318847E+02  0.00000000000E+00 0. -1.
         21    1    1    2  502  501 -0.12045169608E+02  0.27005359235E+02 -0.10458455049E+03  0.10868442271E+03  0.00000000000E+00 0.  1.
<scales pt_clust_5="13000.00000" pt_clust_6="13000.00000" pt_clust_7="13000.00000" pt_clust_8="13000.00000" pt_clust_9="29.56984"></scales>
<clustering>
<clus scale="   29.570">  2  9  1 -1</clus>
<clus scale="   81.222">  5  6 -1 -1</clus>
<clus scale="   86.573">  2  5  1 -1</clus>
<clus scale="   95.519">  7  8 -1 -1</clus>
<clus scale="   29.570">  2  5  1 -1</clus>
</clustering>
</event>
<event>
 9    1  0.3846604E-005  0.1126314E+03  0.7546771E-02  0.1260159E+00
         -2   -1    0    0    0  501 -0.00000000000E+00  0.00000000000E+00  0.87363784947E+02  0.87363784947E+02  0.00000000000E+00 0.  1.
          1   -1    0    0  502    0  0.00000000000E+00 -0.00000000000E+00 -0.50853981976E+03  0.50853981976E+03  0.00000000000E+00 0. -1.
         23    2    1    2    0    0 -0.84071522891E+02  0.16645393422E+02 -0.20290021274E+03  0.23836405924E+03  0.91125398889E+02 0.  0.
        -24    2    1    2    0    0  0.55383182969E+02  0.26630586586E+02 -0.26768396417E+03  0.28586670683E+03  0.79300594602E+02 0.  0.
         13    1    4    4    0    0  0.25629844715E+02 -0.23035900290E+02 -0.50781851063E+02  0.61370498122E+02  0.00000000000E+00 0. -1.
        -14    1    4    4    0    0  0.29753338254E+02  0.49666486876E+02 -0.21690211310E+03  0.22449620871E+03  0.00000000000E+00 0.  1.
        -13    1    3    3    0    0 -0.30410734518E+02 -0.37775792811E+02 -0.84931364196E+02  0.97801635572E+02  0.00000000000E+00 0. -1.
         13    1    3    3    0    0 -0.53660788372E+02  0.54421186233E+02 -0.11796884854E+03  0.14056242367E+03  0.00000000000E+00 0.  1.
         21    1    1    2  502  501  0.28688339922E+02 -0.43275980009E+02  0.49408142095E+02  0.71672838638E+02  0.00000000000E+00 0.  1.
<scales pt_clust_5="13000.00000" pt_clust_6="13000.00000" pt_clust_7="13000.00000" pt_clust_8="13000.00000" pt_clust_9="51.92140"></scales>
<clustering>
<clus scale="   51.921">  1  9  2 -1</clus>
<clus scale="   79.301">  5  6 -1 -1</clus>
<clus scale="   91.125">  7  8 -1 -1</clus>
<clus scale="  103.298">  2  5  1 -1</clus>
<clus scale="  103.298">  2  5  1 -1</clus>
</clustering>
</event>
<event>
 9    1  0.3846604E-005  0.5407957E+03  0.7546771E-02  0.1003868E+00
         -2   -1    0    0    0  501 -0.00000000000E+00  0.00000000000E+00  0.59602944034E+03  0.59602944034E+03  0.00000000000E+00 0.  1.
          1   -1    0    0  502    0  0.00000000000E+00 -0.00000000000E+00 -0.24870969044E+04  0.24870969044E+04  0.00000000000E+00 0. -1.
        -24    2    1    2    0    0  0.14843043826E+03 -0.45215540576E+03  0.32197943723E+03  0.57978611573E+03  0.77492425680E+02 0.  0.
         23    2    1    2    0    0 -0.18764789192E+03  0.50141167458E+03 -0.23179038529E+04  0.23810325473E+04  0.10006158761E+03 0.  0.
         13    1    3    3    0    0  0.51687718805E+02 -0.24543869679E+03  0.13566534364E+03  0.28516111169E+03  0.00000000000E+00 0. -1.
        -14    1    3    3    0    0  0.96742719451E+02 -0.20671670897E+03  0.18631409360E+03  0.29462500404E+03  0.00000000000E+00 0.  1.
        -13    1    4    4    0    0 -0.16204399787E+03  0.34801856372E+03 -0.14907666416E+04  0.15394025976E+04  0.00000000000E+00 0.  1.
         13    1    4    4    0    0 -0.25603894052E+02  0.15339311086E+03 -0.82713721136E+03  0.84162994972E+03  0.00000000000E+00 0. -1.
         21    1    1    2  502  501  0.39217453667E+02 -0.49256268820E+02  0.10485695164E+03  0.12230768168E+03  0.00000000000E+00 0.  1.
<scales pt_clust_5="13000.00000" pt_clust_6="13000.00000" pt_clust_7="13000.00000" pt_clust_8="13000.00000" pt_clust_9="62.96180"></scales>
<clustering>
<clus scale="   62.962">  1  9  2 -1</clus>
<clus scale="   77.492">  5  6 -1 -1</clus>
<clus scale="  100.062">  7  8 -1 -1</clus>
<clus scale="  537.078">  1  5  2 -1</clus>
<clus scale="  540.796">  2  5  1 -1</clus>
</clustering>
</event>
<event>
 9    1  0.5459448E-005  0.1480674E+03  0.7546771E-02  0.1204811E+00
          1   -1    0    0  502    0  0.00000000000E+00  0.00000000000E+00  0.56603799191E+03  0.56603799191E+03  0.00000000000E+00 0. -1.
         -2   -1    0    0    0  501 -0.00000000000E+00 -0.00000000000E+00 -0.18607320584E+03  0.18607320584E+03  0.00000000000E+00 0.  1.
         23    2    1    2    0    0  0.41736186015E+02 -0.10715254035E+03 -0.13122368778E+03  0.19675318304E+03  0.90931747345E+02 0.  0.
        -24    2    1    2    0    0 -0.32872268080E+02  0.14245026608E+03  0.47717856240E+03  0.50554664494E+03  0.80655845877E+02 0.  0.
         13    1    4    4    0    0 -0.56566468520E+02  0.11173811712E+03  0.40033247075E+03  0.41946544472E+03  0.00000000000E+00 0. -1.
        -14    1    4    4    0    0  0.23694200440E+02  0.30712148954E+02  0.76846091658E+02  0.86081200218E+02  0.00000000000E+00 0.  1.
        -11    1    3    3    0    0  0.29294985200E+02 -0.51514071963E+01  0.42688898928E+00  0.29747527429E+02  0.00000000000E+00 0. -1.
         11    1    3    3    0    0  0.12441200815E+02 -0.10200113316E+03 -0.13165057676E+03  0.16700565561E+03  0.00000000000E+00 0.  1.
         21    1    1    2  502  501 -0.88639179352E+01 -0.35297725723E+02  0.34009911442E+02  0.49811369773E+02  0.00000000000E+00 0.  1.
<scales pt_clust_5="13000.00000" pt_clust_6="13000.00000" pt_clust_7="13000.00000" pt_clust_8="13000.00000" pt_clust_9="36.39366"></scales>
<clustering>
<clus scale="   36.394">  1  9  2 -1</clus>
<clus scale="   80.656">  5  6 -1 -1</clus>
<clus scale="   90.932">  7  8 -1 -1</clus>
<clus scale="  141.989">  1  5  2 -1</clus>
<clus scale="   36.394">  1  5  2 -1</clus>
</clustering>
</event>
<event>
 9    1  0.3846604E-005  0.9459437E+02  0.7546771E-02  0.1296879E+00
         -2   -1    0    0    0  501 -0.00000000000E+00  0.00000000000E+00  0.25577939601E+02  0.25577939601E+02  0.00000000000E+00 0.  1.
          1   -1    0    0  502    0  0.00000000000E+00 -0.00000000000E+00 -0.51839157554E+03  0.51839157554E+03  0.00000000000E+00 0. -1.
         23    2    1    2    0    0  0.23068988716E+02 -0.17376309222E+02 -0.10921812478E+03  0.14389857951E+03  0.89129613716E+02 0.  0.
        -24    2    1    2    0    0 -0.18210482681E+02  0.38185108230E+02 -0.33173434124E+03  0.34398000818E+03  0.80528558288E+02 0.  0.
         11    1    4    4    0    0 -0.39714346274E+01 -0.21038191371E+02 -0.34767905683E+02  0.40831177484E+02  0.00000000000E+00 0. -1.
        -12    1    4    4    0    0 -0.14239048054E+02  0.59223299601E+02 -0.29696643555E+03  0.30314883069E+03  0.00000000000E+00 0.  1.
        -13    1    3    3    0    0 -0.16633015504E+02 -0.15234081392E+02 -0.10075413225E+03  0.10324790364E+03  0.00000000000E+00 0. -1.
         13    1    3    3    0    0  0.39702004221E+02 -0.21422278297E+01 -0.84639925347E+01  0.40650675872E+02  0.00000000000E+00 0.  1.
         21    1    1    2  502  501 -0.48585060350E+01 -0.20808799009E+02 -0.51861169919E+02  0.56090927452E+02  0.00000000000E+00 0.  1.
<scales pt_clust_5="13000.00000" pt_clust_6="13000.00000" pt_clust_7="13000.00000" pt_clust_8="13000.00000" pt_clust_9="21.36846"></scales>
<clustering>
<clus scale="   21.368">  2  9  1 -1</clus>
<clus scale="   80.529">  5  6 -1 -1</clus>
<clus scale="   86.538">  2  5  1 -1</clus>
<clus scale="   89.130">  7  8 -1 -1</clus>
<clus scale="   21.368">  2  5  1 -1</clus>
</clustering>
</event>
<event>
 9    1  0.3846604E-005  0.9463320E+02  0.7546771E-02  0.1298435E+00
         -2   -1    0    0    0  501 -0.00000000000E+00  0.00000000000E+00  0.60317229510E+02  0.60317229510E+02  0.00000000000E+00 0.  1.
          1   -1    0    0  502    0  0.00000000000E+00 -0.00000000000E+00 -0.51550545333E+03  0.51550545333E+03  0.00000000000E+00 0. -1.
         23    2    1    2    0    0 -0.42697210723E+01 -0.13054365563E+02 -0.35736249393E+02  0.98203081965E+02  0.90432952006E+02 0.  0.
        -24    2    1    2    0    0 -0.83044795104E+01 -0.32631057270E+02 -0.42149249552E+03  0.43019142248E+03  0.79214808665E+02 0.  0.
         11    1    4    4    0    0  0.28479622237E+02 -0.37486274175E+02 -0.27919353010E+03  0.28313483870E+03  0.00000000000E+00 0. -1.
        -12    1    4    4    0    0 -0.36784101747E+02  0.48552169046E+01 -0.14229896542E+03  0.14705658378E+03  0.00000000000E+00 0.  1.
        -13    1    3    3    0    0 -0.46453465478E+02 -0.11723939430E+02 -0.27370711370E+02  0.55177269338E+02  0.00000000000E+00 0.  1.
         13    1    3    3    0    0  0.42183744406E+02 -0.13304261329E+01 -0.83655380230E+01  0.43025812627E+02  0.00000000000E+00 0. -1.
         21    1    1    2  502  501  0.12574200583E+02  0.45685422833E+02  0.20405210969E+01  0.47428178398E+02  0.00000000000E+00 0.  1.
<scales pt_clust_5="13000.00000" pt_clust_6="13000.00000" pt_clust_7="13000.00000" pt_clust_8="13000.00000" pt_clust_9="47.38426"></scales>
<clustering>
<clus scale="   47.384">  1  9  2 -1</clus>
<clus scale="   79.215">  5  6 -1 -1</clus>
<clus scale="   83.978">  2  5  1 -1</clus>
<clus scale="   90.433">  7  8 -1 -1</clus>
<clus scale="   83.978">  2  5  1 -1</clus>
</clustering>
</event>
<event>
 9    1  0.3846604E-005  0.1585933E+03  0.7546771E-02  0.1192457E+00
         -2   -1    0    0    0  501 -0.00000000000E+00  0.00000000000E+00  0.30723598737E+03  0.30723598737E+03  0.00000000000E+00 0.  1.
          1   -1    0    0  502    0  0.00000000000E+00 -0.00000000000E+00 -0.10292317419E+03  0.10292317419E+03  0.00000000000E+00 0. -1.
         23    2    1    2    0    0 -0.13009402967E+03 -0.58007090388E+02  0.13907118570E+03  0.22084610638E+03  0.95618664068E+02 0.  0.
        -24    2    1    2    0    0  0.10546117220E+03  0.54249670251E+02  0.32634728337E+02  0.14827519773E+03  0.82797483076E+02 0.  0.
         11    1    4    4    0    0  0.37667692028E+02 -0.20092122971E+02  0.19057286091E+02  0.46751776238E+02  0.00000000000E+00 0. -1.
        -12    1    4    4    0    0  0.67793480174E+02  0.74341793222E+02  0.13577442246E+02  0.10152342149E+03  0.00000000000E+00 0.  1.
        -13    1    3    3    0    0 -0.15816559633E+02 -0.13867974135E+02  0.83888541858E+02  0.86485673497E+02  0.00000000000E+00 0.  1.
         13    1    3    3    0    0 -0.11427747004E+03 -0.44139116253E+02  0.55182643846E+02  0.13436043288E+03  0.00000000000E+00 0. -1.
         21    1    1    2  502  501  0.24632857471E+02  0.37574201368E+01  0.32606899137E+02  0.41037857456E+02  0.00000000000E+00 0.  1.
<scales pt_clust_5="13000.00000" pt_clust_6="13000.00000" pt_clust_7="13000.00000" pt_clust_8="13000.00000" pt_clust_9="24.91778"></scales>
<clustering>
<clus scale="   24.918">  1  9  2 -1</clus>
<clus scale="   82.797">  5  6 -1 -1</clus>
<clus scale="   95.619">  7  8 -1 -1</clus>
<clus scale="  151.210">  2  5  1 -1</clus>
<clus scale="  151.210">  2  5  1 -1</clus>
</clustering>
</event>
<event>
 9    1  0.3846604E-005  0.1402524E+03  0.7546771E-02  0.1215577E+00
          1   -1    0    0  502    0  0.00000000000E+00  0.00000000000E+00  0.47965059938E+03  0.47965059938E+03  0.00000000000E+00 0. -1.
         -2   -1    0    0    0  501 -0.00000000000E+00 -0.00000000000E+00 -0.60840384773E+02  0.60840384773E+02  0.00000000000E+00 0.  1.
         23    2    1    2    0    0 -0.63900316379E+01  0.10892649905E+03  0.73129904902E+02  0.16092506523E+03  0.92968160840E+02 0.  0.
        -24    2    1    2    0    0  0.25453755465E+02 -0.10107761392E+03  0.32260153991E+03  0.34861983389E+03  0.81237044022E+02 0.  0.
         11    1    4    4    0    0 -0.21568789052E+02 -0.15105911333E+01  0.63917469303E+02  0.67475457974E+02  0.00000000000E+00 0. -1.
        -12    1    4    4    0    0  0.47022544517E+02 -0.99567022784E+02  0.25868407061E+03  0.28114437591E+03  0.00000000000E+00 0.  1.
        -13    1    3    3    0    0 -0.20867113695E+02  0.22921543681E+02  0.66607101523E+02  0.73466588133E+02  0.00000000000E+00 0. -1.
         13    1    3    3    0    0  0.14477082057E+02  0.86004955367E+02  0.65228033793E+01  0.87458477100E+02  0.00000000000E+00 0.  1.
         21    1    1    2  502  501 -0.19063723827E+02 -0.78488851310E+01  0.23078769793E+02  0.30946085037E+02  0.00000000000E+00 0. -1.
<scales pt_clust_5="13000.00000" pt_clust_6="13000.00000" pt_clust_7="13000.00000" pt_clust_8="13000.00000" pt_clust_9="20.61627"></scales>
<clustering>
<clus scale="   20.616">  2  9  1 -1</clus>
<clus scale="   81.237">  5  6 -1 -1</clus>
<clus scale="   92.968">  7  8 -1 -1</clus>
<clus scale="  132.767">  1  5  2 -1</clus>
<clus scale="  132.767">  1  5  2 -1</clus>
</clustering>
</event>
<event>
 9    1  0.3846604E-005  0.1335485E+03  0.7546771E-02  0.1224900E+00
          1   -1    0    0  502    0  0.00000000000E+00  0.00000000000E+00  0.30829960495E+03  0.30829960495E+03  0.00000000000E+00 0. -1.
         -2   -1    0    0    0  501 -0.00000000000E+00 -0.00000000000E+00 -0.43665684491E+03  0.43665684491E+03  0.00000000000E+00 0.  1.
         23    2    1    2    0    0 -0.19700208350E+01 -0.36166581081E+02 -0.50751050431E+02  0.10897326864E+03  0.89373383004E+02 0.  0.
        -24    2    1    2    0    0  0.21158811778E+02  0.11084956874E+03  0.25763871267E+03  0.29198477600E+03  0.78371429377E+02 0.  0.
         13    1    4    4    0    0  0.28514964711E+02  0.11328032856E+03  0.18405875691E+03  0.21799807808E+03  0.00000000000E+00 0. -1.
        -14    1    4    4    0    0 -0.73561529327E+01 -0.24307598190E+01  0.73579955759E+02  0.73986697918E+02  0.00000000000E+00 0.  1.
        -11    1    3    3    0    0  0.32278312052E+02 -0.42883161966E+02 -0.51046073807E+02  0.74071294441E+02  0.00000000000E+00 0. -1.
         11    1    3    3    0    0 -0.34248332887E+02  0.67165808849E+01  0.29502337645E+00  0.34901974201E+02  0.00000000000E+00 0.  1.
         21    1    1    2  502  501 -0.19188790943E+02 -0.74682987663E+02 -0.33524490220E+03  0.34399840522E+03  0.00000000000E+00 0.  1.
<scales pt_clust_5="13000.00000" pt_clust_6="13000.00000" pt_clust_7="13000.00000" pt_clust_8="13000.00000" pt_clust_9="77.10874"></scales>
<clustering>
<clus scale="   77.109">  2  9  1 -1</clus>
<clus scale="   78.371">  5  6 -1 -1</clus>
<clus scale="   89.373">  7  8 -1 -1</clus>
<clus scale="  126.450">  1  5  2 -1</clus>
<clus scale="  126.450">  1  5  2 -1</clus>
</clustering>
</event>
<event>
 9    1  0.3846604E-005  0.1184696E+03  0.7546771E-02  0.1248653E+00
         -2   -1    0    0    0  501 -0.00000000000E+00  0.00000000000E+00  0.29862123896E+03  0.29862123896E+03  0.00000000000E+00 0.  1.
          1   -1    0    0  502    0  0.00000000000E+00 -0.00000000000E+00 -0.24597215014E+03  0.24597215014E+03  0.00000000000E+00 0. -1.
         23    2    1    2    0    0  0.70172521243E+02 -0.38797046432E+01  0.21761274321E+03  0.24546523149E+03  0.89211204557E+02 0.  0.
        -24    2    1    2    0    0 -0.67171745868E+02 -0.41904260627E+02 -0.20787450122E+03  0.23630684830E+03  0.79756553288E+02 0.  0.
         11    1    4    4    0    0 -0.25531048794E+02 -0.60692652066E+02 -0.10815465947E+03  0.12662094152E+03  0.00000000000E+00 0. -1.
        -12    1    4    4    0    0 -0.41640697074E+02  0.18788391439E+02 -0.99719841754E+02  0.10968590678E+03  0.00000000000E+00 0.  1.
        -11    1    3    3    0    0  0.68485392346E+02  0.29757413737E+02  0.18057164422E+03  0.19540182019E+03  0.00000000000E+00 0.  1.
         11    1    3    3    0    0  0.16871288971E+01 -0.33637118380E+02  0.37041098986E+02  0.50063411299E+02  0.00000000000E+00 0. -1.
         21    1    1    2  502  501 -0.30007753755E+01  0.45783965270E+02  0.42910846830E+02  0.62821309318E+02  0.00000000000E+00 0. -1.
<scales pt_clust_5="13000.00000" pt_clust_6="13000.00000" pt_clust_7="13000.00000" pt_clust_8="13000.00000" pt_clust_9="45.88220"></scales>
<clustering>
<clus scale="   45.882">  1  9  2 -1</clus>
<clus scale="   79.757">  5  6 -1 -1</clus>
<clus scale="   89.211">  7  8 -1 -1</clus>
<clus scale="  111.524">  2  5  1 -1</clus>
<clus scale="  111.524">  2  5  1 -1</clus>
</clustering>
</event>
<event>
 9    1  0.3846604E-005  0.1048992E+03  0.7546771E-02  0.1276180E+00
         -2   -1    0    0    0  501 -0.00000000000E+00  0.00000000000E+00  0.38193711677E+02  0.38193711677E+02  0.00000000000E+00 0.  1.
          1   -1    0    0  502    0  0.00000000000E+00 -0.00000000000E+00 -0.56519542490E+03  0.56519542490E+03  0.00000000000E+00 0. -1.
        -24    2    1    2    0    0  0.77606521187E+01  0.43583771025E+02 -0.15708320739E+03  0.18162878727E+03  0.79712668386E+02 0.  0.
         23    2    1    2    0    0  0.47024125908E+02 -0.42736911089E+02 -0.34259448341E+03  0.36053379236E+03  0.92606281543E+02 0.  0.
         13    1    3    3    0    0  0.14505950263E+02  0.33861207688E+02 -0.16388894807E+03  0.16797794879E+03  0.00000000000E+00 0. -1.
        -14    1    3    3    0    0 -0.67452981448E+01  0.97225633373E+01  0.68057406809E+01  0.13650838477E+02  0.00000000000E+00 0.  1.
        -11    1    4    4    0    0 -0.16884154215E+02 -0.28564889571E+02 -0.45506081454E+02  0.56319011258E+02  0.00000000000E+00 0.  1.
         11    1    4    4    0    0  0.63908280123E+02 -0.14172021518E+02 -0.29708840195E+03  0.30421478110E+03  0.00000000000E+00 0. -1.
         21    1    1    2  502  501 -0.54784778027E+02 -0.84685993556E+00 -0.27324022422E+02  0.61226556955E+02  0.00000000000E+00 0. -1.
<scales pt_clust_5="13000.00000" pt_clust_6="13000.00000" pt_clust_7="13000.00000" pt_clust_8="13000.00000" pt_clust_9="54.79132"></scales>
<clustering>
<clus scale="   54.791">  1  9  2 -1</clus>
<clus scale="   79.713">  5  6 -1 -1</clus>
<clus scale="   92.606">  7  8 -1 -1</clus>
<clus scale="   93.713">  1  5  2 -1</clus>
<clus scale="  104.899">  2  5  1 -1</clus>
</clustering>
</event>
<event>
 9    1  0.3846604E-005  0.1052455E+03  0.7546771E-02  0.1280348E+00
          3   -1    0    0  502    0  0.00000000000E+00  0.00000000000E+00  0.46973361306E+02  0.46973361306E+02  0.00000000000E+00 0. -1.
         -4   -1    0    0    0  501 -0.00000000000E+00 -0.00000000000E+00 -0.74105490488E+03  0.74105490488E+03  0.00000000000E+00 0.  1.
         23    2    1    2    0    0  0.72644070592E+01  0.22222409874E+02 -0.39317885808E+03  0.40665048227E+03  0.10113551886E+03 0.  0.
        -24    2    1    2    0    0  0.33603766907E+02  0.50840126386E+01 -0.11956842521E+02  0.88281300618E+02  0.80595047123E+02 0.  0.
         11    1    4    4    0    0  0.26607234180E+02  0.40992766217E+02 -0.16121047031E+02  0.51461052751E+02  0.00000000000E+00 0. -1.
        -12    1    4    4    0    0  0.69965327269E+01 -0.35908753579E+02  0.41642045092E+01  0.36820247867E+02  0.00000000000E+00 0.  1.
        -11    1    3    3    0    0 -0.36698163900E+02  0.36315086500E+02 -0.27440979488E+03  0.27922441918E+03  0.00000000000E+00 0.  1.
         11    1    3    3    0    0  0.43962570959E+02 -0.14092676626E+02 -0.11876906321E+03  0.12742606309E+03  0.00000000000E+00 0. -1.
         21    1    1    2  502  501 -0.40868173967E+02 -0.27306422512E+02 -0.28894584297E+03  0.29309648330E+03  0.00000000000E+00 0.  1.
<scales pt_clust_5="13000.00000" pt_clust_6="13000.00000" pt_clust_7="13000.00000" pt_clust_8="13000.00000" pt_clust_9="49.15128"></scales>
<clustering>
<clus scale="   49.151">  2  9  1 -1</clus>
<clus scale="   80.595">  5  6 -1 -1</clus>
<clus scale="   85.696">  1  5  2 -1</clus>
<clus scale="  101.136">  7  8 -1 -1</clus>
<clus scale="   85.696">  1  5  2 -1</clus>
</clustering>
</event>
<event>
 9    1  0.3846604E-005  0.9615004E+02  0.7546771E-02  0.1291899E+00
         -4   -1    0    0    0  501 -0.00000000000E+00  0.00000000000E+00  0.20825970017E+03  0.20825970017E+03  0.00000000000E+00 0.  1.
          3   -1    0    0  502    0  0.00000000000E+00 -0.00000000000E+00 -0.77135675495E+02  0.77135675495E+02  0.00000000000E+00 0. -1.
         23    2    1    2    0    0 -0.57250513368E+02  0.27128759738E+02  0.80720998026E+02  0.13468377779E+03  0.87236744499E+02 0.  0.
        -24    2    1    2    0    0  0.30534837947E+02 -0.89496245129E+01 -0.44947836973E+01  0.87009338488E+02  0.80857589602E+02 0.  0.
         11    1    4    4    0    0  0.52397576066E+02  0.11043580908E+01  0.16634532670E+02  0.54985755078E+02  0.00000000000E+00 0. -1.
        -12    1    4    4    0    0 -0.21862738119E+02 -0.10053982604E+02 -0.21129316367E+02  0.32023583410E+02  0.00000000000E+00 0.  1.
        -11    1    3    3    0    0  0.50033489397E+01  0.38115135114E+02  0.97865253982E+01  0.39668288402E+02  0.00000000000E+00 0. -1.
         11    1    3    3    0    0 -0.62253862307E+02 -0.10986375376E+02  0.70934472628E+02  0.95015489385E+02  0.00000000000E+00 0.  1.
         21    1    1    2  502  501  0.26715675420E+02 -0.18179135225E+02  0.54897810348E+02  0.63702259392E+02  0.00000000000E+00 0. -1.
<scales pt_clust_5="13000.00000" pt_clust_6="13000.00000" pt_clust_7="13000.00000" pt_clust_8="13000.00000" pt_clust_9="32.31421"></scales>
<clustering>
<clus scale="   32.314">  1  9  2 -1</clus>
<clus scale="   80.858">  5  6 -1 -1</clus>
<clus scale="   87.237">  7  8 -1 -1</clus>
<clus scale="   90.402">  2  5  1 -1</clus>
<clus scale="   90.402">  2  5  1 -1</clus>
</clustering>
</event>
<event>
 9    1  0.3846604E-005  0.1117625E+03  0.7546771E-02  0.1261132E+00
         -2   -1    0    0    0  501 -0.00000000000E+00  0.00000000000E+00  0.17304821101E+03  0.17304821101E+03  0.00000000000E+00 0.  1.
          1   -1    0    0  502    0  0.00000000000E+00 -0.00000000000E+00 -0.16941910239E+03  0.16941910239E+03  0.00000000000E+00 0. -1.
        -24    2    1    2    0    0 -0.24456532736E+02  0.37826290525E+02  0.63235459033E+02  0.11201720950E+03  0.80747642055E+02 0.  0.
         23    2    1    2    0    0  0.65829321583E+02 -0.30166656586E+02 -0.11327478227E+03  0.16225422260E+03  0.90839031817E+02 0.  0.
         11    1    3    3    0    0 -0.16101436610E+02  0.15836281466E+02 -0.17087745409E+02  0.28320224482E+02  0.00000000000E+00 0. -1.
        -12    1    3    3    0    0 -0.83550961266E+01  0.21990009059E+02  0.80323204443E+02  0.83696985021E+02  0.00000000000E+00 0.  1.
        -11    1    4    4    0    0  0.21635652817E+02 -0.58562099493E+02 -0.49786131452E+02  0.79851611473E+02  0.00000000000E+00 0.  1.
         11    1    4    4    0    0  0.44193668766E+02  0.28395442907E+02 -0.63488650820E+02  0.82402611122E+02  0.00000000000E+00 0. -1.
         21    1    1    2  502  501 -0.41372788847E+02 -0.76596339389E+01  0.53668431858E+02  0.68195881306E+02  0.00000000000E+00 0. -1.
<scales pt_clust_5="13000.00000" pt_clust_6="13000.00000" pt_clust_7="13000.00000" pt_clust_8="13000.00000" pt_clust_9="42.07586"></scales>
<clustering>
<clus scale="   42.076">  1  9  2 -1</clus>
<clus scale="   80.748">  5  6 -1 -1</clus>
<clus scale="   90.839">  7  8 -1 -1</clus>
<clus scale="  103.727">  1  5  2 -1</clus>
<clus scale="  111.762">  2  5  1 -1</clus>
</clustering>
</event>
<event>
 9    1  0.3846604E-005  0.3405584E+03  0.7546771E-02  0.1066569E+00
          1   -1    0    0  502    0  0.00000000000E+00  0.00000000000E+00  0.13544988622E+04  0.13544988622E+04  0.00000000000E+00 0. -1.
         -2   -1    0    0    0  501 -0.00000000000E+00 -0.00000000000E+00 -0.36577915448E+03  0.36577915448E+03  0.00000000000E+00 0.  1.
         23    2    1    2    0    0 -0.12799749988E+03 -0.27934728203E+03 -0.11958145920E+03  0.34113264234E+03  0.87484229066E+02 0.  0.
        -24    2    1    2    0    0  0.14491089336E+03  0.29801483928E+03  0.12186790758E+04  0.12659295479E+04  0.87102922642E+02 0.  0.
         11    1    4    4    0    0  0.93631356182E+02  0.11956052430E+03  0.44183474433E+03  0.46720390744E+03  0.00000000000E+00 0. -1.
        -12    1    4    4    0    0  0.51279537178E+02  0.17845431498E+03  0.77684433143E+03  0.79872564047E+03  0.00000000000E+00 0.  1.
        -11    1    3    3    0    0  0.72534171381E+01 -0.69102493577E+02 -0.24730775151E+02  0.73752138399E+02  0.00000000000E+00 0. -1.
         11    1    3    3    0    0 -0.13525091702E+03 -0.21024478845E+03 -0.94850684051E+02  0.26738050394E+03  0.00000000000E+00 0.  1.
         21    1    1    2  502  501 -0.16913393482E+02 -0.18667557252E+02 -0.11037790888E+03  0.11321582638E+03  0.00000000000E+00 0.  1.
<scales pt_clust_5="13000.00000" pt_clust_6="13000.00000" pt_clust_7="13000.00000" pt_clust_8="13000.00000" pt_clust_9="25.19009"></scales>
<clustering>
<clus scale="   25.190">  2  9  1 -1</clus>
<clus scale="   87.103">  5  6 -1 -1</clus>
<clus scale="   87.484">  7  8 -1 -1</clus>
<clus scale="  340.461">  1  5  2 -1</clus>
<clus scale="  340.461">  1  5  2 -1</clus>
</clustering>
</event>
<event>
 9    1  0.3846604E-005  0.4356294E+03  0.7546771E-02  0.1047360E+00
         -2   -1    0    0    0  501 -0.00000000000E+00  0.00000000000E+00  0.49422373283E+03  0.49422373283E+03  0.00000000000E+00 0.  1.
          1   -1    0    0  502    0  0.00000000000E+00 -0.00000000000E+00 -0.13919371742E+04  0.13919371742E+04  0.00000000000E+00 0. -1.
         23    2    1    2    0    0  0.26179637054E+03  0.32799716570E+02  0.27774579928E+03  0.39392612577E+03  0.91770924097E+02 0.  0.
        -24    2    1    2    0    0 -0.57120307686E+03  0.90256434363E+02 -0.79888286978E+03  0.98955686323E+03  0.81177379742E+02 0.  0.
         13    1    4    4    0    0 -0.49537698604E+03  0.73006883594E+02 -0.73262619961E+03  0.88739478909E+03  0.00000000000E+00 0. -1.
        -14    1    4    4    0    0 -0.75826090813E+02  0.17249550769E+02 -0.66256670165E+02  0.10216207413E+03  0.00000000000E+00 0.  1.
        -13    1    3    3    0    0  0.17640899407E+03  0.65672946699E+01  0.12268506740E+03  0.21497648316E+03  0.00000000000E+00 0.  1.
         13    1    3    3    0    0  0.85387376469E+02  0.26232421900E+02  0.15506073187E+03  0.17894964261E+03  0.00000000000E+00 0. -1.
         21    1    1    2  502  501  0.30940670631E+03 -0.12305615093E+03 -0.37657637091E+03  0.50267791807E+03  0.00000000000E+00 0.  1.
<scales pt_clust_5="13000.00000" pt_clust_6="13000.00000" pt_clust_7="13000.00000" pt_clust_8="13000.00000" pt_clust_9="427.99905"></scales>
<clustering>
<clus scale="   81.177">  5  6 -1 -1</clus>
<clus scale="   91.771">  7  8 -1 -1</clus>
<clus scale="  279.348">  1  7  2 -1</clus>
<clus scale="  427.999">  2  9  1 -1</clus>
<clus scale="  427.999">  2  5  1 -1</clus>
</clustering>
</event>
<event>
 9    1  0.3846604E-005  0.1071682E+03  0.7546771E-02  0.1269226E+00
         -2   -1    0    0    0  501 -0.00000000000E+00  0.00000000000E+00  0.68013748049E+02  0.68013748049E+02  0.00000000000E+00 0.  1.
          1   -1    0    0  502    0  0.00000000000E+00 -0.00000000000E+00 -0.71887884513E+03  0.71887884513E+03  0.00000000000E+00 0. -1.
        -24    2    1    2    0    0  0.97726411583E+02 -0.76250957183E+01 -0.10569066113E+03  0.16718013682E+03  0.84676376217E+02 0.  0.
         23    2    1    2    0    0 -0.45938342609E+02 -0.13666111578E+02 -0.55339488709E+03  0.56311832758E+03  0.92516246499E+02 0.  0.
         13    1    3    3    0    0  0.98374294962E+00 -0.27414291119E+02 -0.40283212435E+02  0.48736519283E+02  0.00000000000E+00 0. -1.
        -14    1    3    3    0    0  0.96742668634E+02  0.19789195401E+02 -0.65407448699E+02  0.11844361753E+03  0.00000000000E+00 0.  1.
        -11    1    4    4    0    0 -0.42163704511E+02 -0.50517624777E+02 -0.39547016463E+03  0.40090704596E+03  0.00000000000E+00 0. -1.
         11    1    4    4    0    0 -0.37746380975E+01  0.36851513199E+02 -0.15792472246E+03  0.16221128161E+03  0.00000000000E+00 0.  1.
         21    1    1    2  502  501 -0.51788068974E+02  0.21291207297E+02  0.82204511437E+01  0.56594128788E+02  0.00000000000E+00 0.  1.
<scales pt_clust_5="13000.00000" pt_clust_6="13000.00000" pt_clust_7="13000.00000" pt_clust_8="13000.00000" pt_clust_9="55.99392"></scales>
<clustering>
<clus scale="   55.994">  1  9  2 -1</clus>
<clus scale="   84.676">  5  6 -1 -1</clus>
<clus scale="   92.516">  7  8 -1 -1</clus>
<clus scale="  100.478">  1  5  2 -1</clus>
<clus scale="  107.168">  2  5  1 -1</clus>
</clustering>
</event>
<event>
 9    1  0.3846604E-005  0.1852224E+03  0.7546771E-02  0.1164391E+00
         -2   -1    0    0    0  501 -0.00000000000E+00  0.00000000000E+00  0.20569848517E+03  0.20569848517E+03  0.00000000000E+00 0.  1.
          1   -1    0    0  502    0  0.00000000000E+00 -0.00000000000E+00 -0.26156158327E+03  0.26156158327E+03  0.00000000000E+00 0. -1.
         23    2    1    2    0    0  0.13912025546E+03 -0.10010946195E+03  0.10935328441E+02  0.19660486816E+03  0.95695051710E+02 0.  0.
        -24    2    1    2    0    0 -0.72834967873E+02  0.13600649682E+03 -0.80445292371E+01  0.17508137065E+03  0.82377619369E+02 0.  0.
         11    1    4    4    0    0 -0.71635882998E+02  0.55308390377E+02 -0.22094499236E+02  0.93160531747E+02  0.00000000000E+00 0. -1.
        -12    1    4    4    0    0 -0.11990848752E+01  0.80698106448E+02  0.14049969999E+02  0.81920838898E+02  0.00000000000E+00 0.  1.
        -11    1    3    3    0    0  0.49869893290E+02 -0.89769373438E+02 -0.13292562217E+02  0.10354824419E+03  0.00000000000E+00 0.  1.
         11    1    3    3    0    0  0.89250362172E+02 -0.10340088516E+02  0.24227890658E+02  0.93056623967E+02  0.00000000000E+00 0. -1.
         21    1    1    2  502  501 -0.66285287589E+02 -0.35897034870E+02 -0.58753897310E+02  0.95573829641E+02  0.00000000000E+00 0.  1.
<scales pt_clust_5="13000.00000" pt_clust_6="13000.00000" pt_clust_7="13000.00000" pt_clust_8="13000.00000" pt_clust_9="75.38127"></scales>
<clustering>
<clus scale="   75.381">  2  9  1 -1</clus>
<clus scale="   82.378">  5  6 -1 -1</clus>
<clus scale="   95.695">  7  8 -1 -1</clus>
<clus scale="  178.706">  2  5  1 -1</clus>
<clus scale="   75.381">  2  5  1 -1</clus>
</clustering>
</event>
<event>
 9    1  0.3846604E-005  0.1115034E+03  0.7546771E-02  0.1269416E+00
         -2   -1    0    0    0  501 -0.00000000000E+00  0.00000000000E+00  0.41231101923E+02  0.41231101923E+02  0.00000000000E+00 0.  1.
          1   -1    0    0  502    0  0.00000000000E+00 -0.00000000000E+00 -0.49718954496E+03  0.49718954496E+03  0.00000000000E+00 0. -1.
         23    2    1    2    0    0 -0.65963461661E+02 -0.99715401121E+01 -0.10277411806E+03  0.16068634621E+03  0.10395659011E+03 0.  0.
        -24    2    1    2    0    0  0.34695406037E+02  0.53064261857E+01 -0.32152775782E+03  0.33299513624E+03  0.79206895855E+02 0.  0.
         11    1    4    4    0    0  0.21850647888E+02  0.34752056455E+02 -0.86096531980E+02  0.95382226122E+02  0.00000000000E+00 0. -1.
        -12    1    4    4    0    0  0.12844758150E+02 -0.29445630269E+02 -0.23543122584E+03  0.23761291012E+03  0.00000000000E+00 0.  1.
        -13    1    3    3    0    0 -0.35494508455E+02 -0.43633805290E+02 -0.96307612263E+01  0.57065932537E+02  0.00000000000E+00 0.  1.
         13    1    3    3    0    0 -0.30468953205E+02  0.33662265178E+02 -0.93143356835E+02  0.10362041367E+03  0.00000000000E+00 0. -1.
         21    1    1    2  502  501  0.31268055623E+02  0.46651139263E+01 -0.31656567153E+02  0.44739164435E+02  0.00000000000E+00 0. -1.
<scales pt_clust_5="13000.00000" pt_clust_6="13000.00000" pt_clust_7="13000.00000" pt_clust_8="13000.00000" pt_clust_9="31.61415"></scales>
<clustering>
<clus scale="   31.614">  1  9  2 -1</clus>
<clus scale="   79.207">  5  6 -1 -1</clus>
<clus scale="   88.881">  2  5  1 -1</clus>
<clus scale="  103.957">  7  8 -1 -1</clus>
<clus scale="   88.881">  2  5  1 -1</clus>
</clustering>
</event>
<event>
 9    1  0.3846604E-005  0.9313780E+02  0.7546771E-02  0.1304827E+00
         -2   -1    0    0    0  501 -0.00000000000E+00  0.00000000000E+00  0.46061361291E+02  0.46061361291E+02  0.00000000000E+00 0.  1.
          1   -1    0    0  502    0  0.00000000000E+00 -0.00000000000E+00 -0.42746614892E+03  0.42746614892E+03  0.00000000000E+00 0. -1.
         23    2    1    2    0    0 -0.25416009082E+01  0.16991947719E+01 -0.28691442137E+02  0.97127438360E+02  0.92742619288E+02 0.  0.
        -24    2    1    2    0    0  0.12837486146E+02 -0.35674294576E+02 -0.30420407842E+03  0.31628799610E+03  0.77849333998E+02 0.  0.
         13    1    4    4    0    0  0.42261387152E+02 -0.19444250246E+02 -0.11379640357E+03  0.12293789154E+03  0.00000000000E+00 0. -1.
        -14    1    4    4    0    0 -0.29423901006E+02 -0.16230044331E+02 -0.19040767485E+03  0.19335010456E+03  0.00000000000E+00 0.  1.
        -11    1    3    3    0    0 -0.46178523634E+02 -0.76577374810E+01 -0.22944504679E+02  0.52130099590E+02  0.00000000000E+00 0.  1.
         11    1    3    3    0    0  0.43636922726E+02  0.93569322529E+01 -0.57469374582E+01  0.44997338769E+02  0.00000000000E+00 0. -1.
         21    1    1    2  502  501 -0.10295885238E+02  0.33975099804E+02 -0.48509267072E+02  0.60112075754E+02  0.00000000000E+00 0. -1.
<scales pt_clust_5="13000.00000" pt_clust_6="13000.00000" pt_clust_7="13000.00000" pt_clust_8="13000.00000" pt_clust_9="35.50088"></scales>
<clustering>
<clus scale="   35.501">  2  9  1 -1</clus>
<clus scale="   77.849">  5  6 -1 -1</clus>
<clus scale="   78.320">  2  5  1 -1</clus>
<clus scale="   92.743">  7  8 -1 -1</clus>
<clus scale="   35.501">  2  5  1 -1</clus>
</clustering>
</event>
<event>
 9    1  0.3846604E-005  0.1046244E+03  0.7546771E-02  0.1272392E+00
         -2   -1    0    0    0  501 -0.00000000000E+00  0.00000000000E+00  0.10094032439E+03  0.10094032439E+03  0.00000000000E+00 0.  1.
          1   -1    0    0  502    0  0.00000000000E+00 -0.00000000000E+00 -0.60102564913E+03  0.60102564913E+03  0.00000000000E+00 0. -1.
         23    2    1    2    0    0 -0.13404254231E+02 -0.46906242956E+02  0.36420729710E+02  0.10930392704E+03  0.90780004709E+02 0.  0.
        -24    2    1    2    0    0  0.33283093227E+02  0.40548338764E+02 -0.55531235928E+03  0.56456812744E+03  0.87254925832E+02 0.  0.
         11    1    4    4    0    0  0.63194245128E+02  0.27709887250E+02 -0.35807115267E+03  0.36465915708E+03  0.00000000000E+00 0. -1.
        -12    1    4    4    0    0 -0.29911151902E+02  0.12838451514E+02 -0.19724120661E+03  0.19990897036E+03  0.00000000000E+00 0.  1.
        -13    1    3    3    0    0 -0.42694554602E+02 -0.83870726534E+01 -0.72629645911E+01  0.44112567767E+02  0.00000000000E+00 0.  1.
         13    1    3    3    0    0  0.29290300371E+02 -0.38519170302E+02  0.43683694302E+02  0.65191359277E+02  0.00000000000E+00 0. -1.
         21    1    1    2  502  501 -0.19878838995E+02  0.63579041912E+01  0.18806304823E+02  0.28093919032E+02  0.00000000000E+00 0.  1.
<scales pt_clust_5="13000.00000" pt_clust_6="13000.00000" pt_clust_7="13000.00000" pt_clust_8="13000.00000" pt_clust_9="20.87082"></scales>
<clustering>
<clus scale="   20.871">  1  9  2 -1</clus>
<clus scale="   87.255">  5  6 -1 -1</clus>
<clus scale="   90.780">  7  8 -1 -1</clus>
<clus scale="  101.581">  2  5  1 -1</clus>
<clus scale="  101.581">  2  5  1 -1</clus>
</clustering>
</event>
<event>
 9    1  0.3846604E-005  0.9719005E+02  0.7546771E-02  0.1293490E+00
         -2   -1    0    0    0  501 -0.00000000000E+00  0.00000000000E+00  0.94105765092E+02  0.94105765092E+02  0.00000000000E+00 0.  1.
          1   -1    0    0  502    0  0.00000000000E+00 -0.00000000000E+00 -0.17755220761E+03  0.17755220761E+03  0.00000000000E+00 0. -1.
        -24    2    1    2    0    0  0.12757510895E+02 -0.58056951124E+01  0.32475292057E+02  0.87638546539E+02  0.80183602222E+02 0.  0.
         23    2    1    2    0    0 -0.29370908925E+02 -0.16877581232E+02 -0.12004064130E+03  0.15560285683E+03  0.93032201155E+02 0.  0.
         13    1    3    3    0    0 -0.57494754851E+01 -0.32547261332E+02 -0.96400773489E+01  0.34428357205E+02  0.00000000000E+00 0. -1.
        -14    1    3    3    0    0  0.18506986380E+02  0.26741566220E+02  0.42115369406E+02  0.53210189334E+02  0.00000000000E+00 0.  1.
        -13    1    4    4    0    0  0.32259369979E+02 -0.56010551008E+01 -0.22698606370E+02  0.39840500760E+02  0.00000000000E+00 0.  1.
         13    1    4    4    0    0 -0.61630278904E+02 -0.11276526132E+02 -0.97342034928E+02  0.11576235607E+03  0.00000000000E+00 0. -1.
         21    1    1    2  502  501  0.16613398030E+02  0.22683276345E+02  0.41189067241E+01  0.28416569329E+02  0.00000000000E+00 0.  1.
<scales pt_clust_5="13000.00000" pt_clust_6="13000.00000" pt_clust_7="13000.00000" pt_clust_8="13000.00000" pt_clust_9="28.11647"></scales>
<clustering>
<clus scale="   28.116">  1  9  2 -1</clus>
<clus scale="   80.184">  5  6 -1 -1</clus>
<clus scale="   84.972">  1  5  2 -1</clus>
<clus scale="   93.032">  7  8 -1 -1</clus>
<clus scale="   97.190">  2  5  1 -1</clus>
</clustering>
</event>
<event>
 9    1  0.3846604E-005  0.1654523E+03  0.7546771E-02  0.1184537E+00
         -2   -1    0    0    0  501 -0.00000000000E+00  0.00000000000E+00  0.49357017862E+02  0.49357017862E+02  0.00000000000E+00 0.  1.
          1   -1    0    0  502    0  0.00000000000E+00 -0.00000000000E+00 -0.12108001556E+04  0.12108001556E+04  0.00000000000E+00 0. -1.
        -24    2    1    2    0    0  0.36447431316E+02 -0.13803005584E+03 -0.55638605882E+03  0.58009606775E+03  0.81026475955E+02 0.  0.
         23    2    1    2    0    0 -0.52323319920E+02  0.12092467711E+03 -0.62732664263E+03  0.64780321851E+03  0.93540290873E+02 0.  0.
         13    1    3    3    0    0 -0.62195191711E+00 -0.11592842340E+03 -0.46179706618E+03  0.47612636611E+03  0.00000000000E+00 0. -1.
        -14    1    3    3    0    0  0.37069383233E+02 -0.22101632441E+02 -0.94588992639E+02  0.10396970164E+03  0.00000000000E+00 0.  1.
        -13    1    4    4    0    0  0.99253681447E+01  0.39853946079E+02 -0.69819313546E+02  0.81003620258E+02  0.00000000000E+00 0.  1.
         13    1    4    4    0    0 -0.62248688065E+02  0.81070731030E+02 -0.55750732909E+03  0.56679959825E+03  0.00000000000E+00 0. -1.
         21    1    1    2  502  501  0.15875888604E+02  0.17105378729E+02  0.22269563697E+02  0.32257887217E+02  0.00000000000E+00 0.  1.
<scales pt_clust_5="13000.00000" pt_clust_6="13000.00000" pt_clust_7="13000.00000" pt_clust_8="13000.00000" pt_clust_9="23.33748"></scales>
<clustering>
<clus scale="   23.337">  1  9  2 -1</clus>
<clus scale="   81.026">  5  6 -1 -1</clus>
<clus scale="   93.540">  7  8 -1 -1</clus>
<clus scale="  158.713">  1  5  2 -1</clus>
<clus scale="  165.452">  2  5  1 -1</clus>
</clustering>
</event>
<event>
 9    1  0.3846604E-005  0.7377290E+02  0.7546771E-02  0.1347802E+00
         -4   -1    0    0    0  501 -0.00000000000E+00  0.00000000000E+00  0.75832886265E+03  0.75832886265E+03  0.00000000000E+00 0.  1.
          3   -1    0    0  502    0  0.00000000000E+00 -0.00000000000E+00 -0.34533713948E+02  0.34533713948E+02  0.00000000000E+00 0. -1.
        -24    2    1    2    0    0 -0.40181917888E+02 -0.20560972219E+02  0.48764658760E+03  0.49515068473E+03  0.73059332672E+02 0.  0.
         23    2    1    2    0    0  0.64898186927E+00  0.73004344158E+01  0.18127964102E+02  0.75739651237E+02  0.73172085981E+02 0.  0.
         11    1    3    3    0    0 -0.26815691244E+02 -0.48607467986E+01  0.49394991900E+02  0.56414301211E+02  0.00000000000E+00 0. -1.
        -12    1    3    3    0    0 -0.13366226645E+02 -0.15700225421E+02  0.43825159570E+03  0.43873638352E+03  0.00000000000E+00 0.  1.
        -13    1    4    4    0    0 -0.35339034618E+02 -0.24020562396E+01  0.14559736337E+02  0.38296255223E+02  0.00000000000E+00 0. -1.
         13    1    4    4    0    0  0.35988016488E+02  0.97024906555E+01  0.35682277655E+01  0.37443396014E+02  0.00000000000E+00 0.  1.
         21    1    1    2  502  501  0.39532936019E+02  0.13260537804E+02  0.21802059700E+03  0.22197224063E+03  0.00000000000E+00 0.  1.
<scales pt_clust_5="13000.00000" pt_clust_6="13000.00000" pt_clust_7="13000.00000" pt_clust_8="13000.00000" pt_clust_9="41.69766"></scales>
<clustering>
<clus scale="   41.698">  1  9  2 -1</clus>
<clus scale="   73.059">  5  6 -1 -1</clus>
<clus scale="   73.172">  7  8 -1 -1</clus>
<clus scale="   73.661">  1  5  2 -1</clus>
<clus scale="   73.773">  2  5  1 -1</clus>
</clustering>
</event>
<event>
 9    1  0.3846604E-005  0.1782357E+03  0.7546771E-02  0.1170736E+00
         -2   -1    0    0    0  501 -0.00000000000E+00  0.00000000000E+00  0.14455568095E+03  0.14455568095E+03  0.00000000000E+00 0.  1.
          1   -1    0    0  502    0  0.00000000000E+00 -0.00000000000E+00 -0.52118863855E+03  0.52118863855E+03  0.00000000000E+00 0. -1.
        -24    2    1    2    0    0 -0.15198036018E+03 -0.65972741280E+02 -0.86739851341E+02  0.20371090099E+03  0.80770643800E+02 0.  0.
         23    2    1    2    0    0  0.12525355384E+03  0.81916330133E+02 -0.35168980063E+03  0.39284272811E+03  0.90779707346E+02 0.  0.
         13    1    3    3    0    0 -0.55433712477E+02  0.15967932147E+02 -0.27597987180E+02  0.63949356779E+02  0.00000000000E+00 0. -1.
        -14    1    3    3    0    0 -0.96546647700E+02 -0.81940673427E+02 -0.59141864161E+02  0.13976154421E+03  0.00000000000E+00 0.  1.
        -11    1    4    4    0    0  0.10343448694E+03  0.98282926588E+02 -0.32375015084E+03  0.35379709852E+03  0.00000000000E+00 0. -1.
         11    1    4    4    0    0  0.21819066896E+02 -0.16366596455E+02 -0.27939649790E+02  0.39045629591E+02  0.00000000000E+00 0.  1.
         21    1    1    2  502  501  0.26726806337E+02 -0.15943588853E+02  0.61796694378E+02  0.69190690403E+02  0.00000000000E+00 0.  1.
<scales pt_clust_5="13000.00000" pt_clust_6="13000.00000" pt_clust_7="13000.00000" pt_clust_8="13000.00000" pt_clust_9="31.12106"></scales>
<clustering>
<clus scale="   31.121">  1  9  2 -1</clus>
<clus scale="   80.771">  5  6 -1 -1</clus>
<clus scale="   90.780">  7  8 -1 -1</clus>
<clus scale="  173.352">  1  5  2 -1</clus>
<clus scale="  178.236">  2  5  1 -1</clus>
</clustering>
</event>
<event>
 9    1  0.3846604E-005  0.1519588E+03  0.7546771E-02  0.1200676E+00
          1   -1    0    0  502    0  0.00000000000E+00  0.00000000000E+00  0.24069386822E+03  0.24069386822E+03  0.00000000000E+00 0. -1.
         -2   -1    0    0    0  501 -0.00000000000E+00 -0.00000000000E+00 -0.16373717632E+03  0.16373717632E+03  0.00000000000E+00 0.  1.
         23    2    1    2    0    0 -0.14848026569E+03 -0.70392446833E+02  0.65247486240E+02  0.19949430503E+03  0.92408102491E+02 0.  0.
        -24    2    1    2    0    0  0.86501392257E+02  0.32110946274E+02  0.39302299500E+02  0.12703787647E+03  0.77976583522E+02 0.  0.
         13    1    4    4    0    0  0.38456249447E+02 -0.23997487709E+02  0.25107085262E+02  0.51818223322E+02  0.00000000000E+00 0. -1.
        -14    1    4    4    0    0  0.48045142810E+02  0.56108433984E+02  0.14195214238E+02  0.75219653143E+02  0.00000000000E+00 0.  1.
        -11    1    3    3    0    0 -0.35123371109E+02 -0.48580039487E+02 -0.11274391533E+02  0.60998224065E+02  0.00000000000E+00 0.  1.
         11    1    3    3    0    0 -0.11335689458E+03 -0.21812407347E+02  0.76521877773E+02  0.13849608096E+03  0.00000000000E+00 0. -1.
         21    1    1    2  502  501  0.61978873434E+02  0.38281500559E+02 -0.27593093841E+02  0.77898863053E+02  0.00000000000E+00 0.  1.
<scales pt_clust_5="13000.00000" pt_clust_6="13000.00000" pt_clust_7="13000.00000" pt_clust_8="13000.00000" pt_clust_9="72.84816"></scales>
<clustering>
<clus scale="   72.848">  2  9  1 -1</clus>
<clus scale="   77.977">  5  6 -1 -1</clus>
<clus scale="   92.408">  7  8 -1 -1</clus>
<clus scale="  143.640">  1  5  2 -1</clus>
<clus scale="  143.640">  1  5  2 -1</clus>
</clustering>
</event>
<event>
 9    1  0.3846604E-005  0.1204880E+03  0.7546771E-02  0.1246275E+00
          1   -1    0    0  502    0  0.00000000000E+00  0.00000000000E+00  0.90599865013E+03  0.90599865013E+03  0.00000000000E+00 0. -1.
         -2   -1    0    0    0  501 -0.00000000000E+00 -0.00000000000E+00 -0.42458016438E+02  0.42458016438E+02  0.00000000000E+00 0.  1.
        -24    2    1    2    0    0  0.75466503692E+02  0.47442745069E+01  0.71251229860E+02  0.12823563966E+03  0.75166084127E+02 0.  0.
         23    2    1    2    0    0 -0.12485796811E+03 -0.14841901786E+02  0.67980420722E+03  0.69695546687E+03  0.88336676391E+02 0.  0.
         13    1    3    3    0    0  0.12300369313E+01 -0.22959281657E+02  0.33074567156E+02  0.40281119617E+02  0.00000000000E+00 0. -1.
        -14    1    3    3    0    0  0.74236466761E+02  0.27703556164E+02  0.38176662704E+02  0.87954520046E+02  0.00000000000E+00 0.  1.
        -13    1    4    4    0    0 -0.10090271446E+03 -0.44298717529E+02  0.57550435123E+03  0.58595988979E+03  0.00000000000E+00 0. -1.
         13    1    4    4    0    0 -0.23955253654E+02  0.29456815744E+02  0.10429985599E+03  0.11099557708E+03  0.00000000000E+00 0.  1.
         21    1    1    2  502  501  0.49391464417E+02  0.10097627279E+02  0.11248519661E+03  0.12326556004E+03  0.00000000000E+00 0.  1.
<scales pt_clust_5="13000.00000" pt_clust_6="13000.00000" pt_clust_7="13000.00000" pt_clust_8="13000.00000" pt_clust_9="50.41308"></scales>
<clustering>
<clus scale="   50.413">  1  9  2 -1</clus>
<clus scale="   75.166">  5  6 -1 -1</clus>
<clus scale="   88.337">  7  8 -1 -1</clus>
<clus scale="  111.193">  2  5  1 -1</clus>
<clus scale="   50.413">  1  5  2 -1</clus>
</clustering>
</event>
<event>
 9    1  0.3846604E-005  0.2131749E+03  0.7546771E-02  0.1140029E+00
         -4   -1    0    0    0  501 -0.00000000000E+00  0.00000000000E+00  0.23011774390E+03  0.23011774390E+03  0.00000000000E+00 0.  1.
          3   -1    0    0  502    0  0.00000000000E+00 -0.00000000000E+00 -0.28798409225E+03  0.28798409225E+03  0.00000000000E+00 0. -1.
        -24    2    1    2    0    0 -0.51285904452E+02  0.19707465771E+03  0.80488364963E+02  0.23308162493E+03  0.79874916455E+02 0.  0.
         23    2    1    2    0    0  0.26256170359E+02 -0.18700847253E+03 -0.14743415754E+03  0.25655528579E+03  0.91772700589E+02 0.  0.
         13    1    3    3    0    0 -0.29112274755E+02  0.11791879451E+02  0.50882796726E+01  0.31819232430E+02  0.00000000000E+00 0. -1.
        -14    1    3    3    0    0 -0.22173629697E+02  0.18528277826E+03  0.75400085291E+02  0.20126239250E+03  0.00000000000E+00 0.  1.
        -11    1    4    4    0    0  0.20771324210E+02 -0.15178790997E+03 -0.64389134308E+02  0.16618356760E+03  0.00000000000E+00 0.  1.
         11    1    4    4    0    0  0.54848461488E+01 -0.35220562565E+02 -0.83045023234E+02  0.90371718190E+02  0.00000000000E+00 0. -1.
         21    1    1    2  502  501  0.25029734094E+02 -0.10066185172E+02  0.90794442269E+01  0.28464925438E+02  0.00000000000E+00 0.  1.
<scales pt_clust_5="13000.00000" pt_clust_6="13000.00000" pt_clust_7="13000.00000" pt_clust_8="13000.00000" pt_clust_9="26.97806"></scales>
<clustering>
<clus scale="   26.978">  1  9  2 -1</clus>
<clus scale="   79.875">  5  6 -1 -1</clus>
<clus scale="   91.773">  7  8 -1 -1</clus>
<clus scale="  208.330">  1  5  2 -1</clus>
<clus scale="  213.175">  2  5  1 -1</clus>
</clustering>
</event>
<event>
 9    1  0.3846604E-005  0.1129355E+03  0.7546771E-02  0.1264213E+00
          1   -1    0    0  502    0  0.00000000000E+00  0.00000000000E+00  0.31943191813E+03  0.31943191813E+03  0.00000000000E+00 0. -1.
         -2   -1    0    0    0  501 -0.00000000000E+00 -0.00000000000E+00 -0.10004798950E+03  0.10004798950E+03  0.00000000000E+00 0.  1.
         23    2    1    2    0    0 -0.28487511531E+02 -0.73119105612E+02 -0.10279423997E+02  0.12750581282E+03  0.99970614818E+02 0.  0.
        -24    2    1    2    0    0 -0.17782429759E+02  0.48046867663E+02  0.21898021630E+03  0.23827443014E+03  0.78725171508E+02 0.  0.
         11    1    4    4    0    0  0.29189920954E+02  0.61034744709E+01  0.88571439137E+02  0.93456961842E+02  0.00000000000E+00 0. -1.
        -12    1    4    4    0    0 -0.46972350714E+02  0.41943393192E+02  0.13040877716E+03  0.14481746830E+03  0.00000000000E+00 0.  1.
        -13    1    3    3    0    0 -0.57706881485E+02 -0.46583429148E+02  0.21073152702E+02  0.77098494192E+02  0.00000000000E+00 0. -1.
         13    1    3    3    0    0  0.29219369954E+02 -0.26535676465E+02 -0.31352576699E+02  0.50407318631E+02  0.00000000000E+00 0.  1.
         21    1    1    2  502  501  0.46269941290E+02  0.25072237949E+02  0.10683136332E+02  0.53699664661E+02  0.00000000000E+00 0. -1.
<scales pt_clust_5="13000.00000" pt_clust_6="13000.00000" pt_clust_7="13000.00000" pt_clust_8="13000.00000" pt_clust_9="52.62627"></scales>
<clustering>
<clus scale="   52.626">  2  9  1 -1</clus>
<clus scale="   78.725">  5  6 -1 -1</clus>
<clus scale="   94.647">  1  5  2 -1</clus>
<clus scale="   99.971">  7  8 -1 -1</clus>
<clus scale="   94.647">  1  5  2 -1</clus>
</clustering>
</event>
<event>
 9    1  0.3846604E-005  0.1139723E+03  0.7546771E-02  0.1264462E+00
          1   -1    0    0  502    0  0.00000000000E+00  0.00000000000E+00  0.29246984144E+02  0.29246984144E+02  0.00000000000E+00 0. -1.
         -2   -1    0    0    0  501 -0.00000000000E+00 -0.00000000000E+00 -0.49237184868E+03  0.49237184868E+03  0.00000000000E+00 0.  1.
         23    2    1    2    0    0 -0.38527388048E+02  0.17703250286E+02 -0.28551774921E+03  0.30640153716E+03  0.10278011556E+03 0.  0.
        -24    2    1    2    0    0  0.36706560758E+02 -0.38482761919E+02 -0.11053890358E+03  0.14498020759E+03  0.77279472176E+02 0.  0.
         11    1    4    4    0    0  0.26661575068E+02  0.91322004362E+01 -0.48096784508E+01  0.28589677800E+02  0.00000000000E+00 0. -1.
        -12    1    4    4    0    0  0.10044985690E+02 -0.47614962355E+02 -0.10572922513E+03  0.11639052979E+03  0.00000000000E+00 0.  1.
        -13    1    3    3    0    0 -0.72392238953E+02  0.98898286625E+01 -0.22556703883E+03  0.23710532255E+03  0.00000000000E+00 0.  1.
         13    1    3    3    0    0  0.33864850905E+02  0.78134216237E+01 -0.59950710378E+02  0.69296214608E+02  0.00000000000E+00 0. -1.
         21    1    1    2  502  501  0.18208272903E+01  0.20779511633E+02 -0.67068211740E+02  0.70237088078E+02  0.00000000000E+00 0. -1.
<scales pt_clust_5="13000.00000" pt_clust_6="13000.00000" pt_clust_7="13000.00000" pt_clust_8="13000.00000" pt_clust_9="20.85914"></scales>
<clustering>
<clus scale="   20.859">  2  9  1 -1</clus>
<clus scale="   77.279">  5  6 -1 -1</clus>
<clus scale="   91.641">  1  5  2 -1</clus>
<clus scale="  102.780">  7  8 -1 -1</clus>
<clus scale="   91.641">  1  5  2 -1</clus>
</clustering>
</event>
<event>
 9    1  0.3846604E-005  0.1871672E+03  0.7546771E-02  0.1162039E+00
          1   -1    0    0  502    0  0.00000000000E+00  0.00000000000E+00  0.16781524276E+03  0.16781524276E+03  0.00000000000E+00 0. -1.
         -2   -1    0    0    0  501 -0.00000000000E+00 -0.00000000000E+00 -0.63593103624E+03  0.63593103624E+03  0.00000000000E+00 0.  1.
         23    2    1    2    0    0  0.13499196308E+03 -0.64812216193E+02 -0.40110838946E+03  0.43756887708E+03  0.90305750789E+02 0.  0.
        -24    2    1    2    0    0 -0.16145915092E+03  0.39805396396E+02  0.89486781809E+02  0.20550293828E+03  0.81055823522E+02 0.  0.
         13    1    4    4    0    0 -0.15705857169E+03  0.13045192903E+02  0.80239594726E+02  0.17685011892E+03  0.00000000000E+00 0. -1.
        -14    1    4    4    0    0 -0.44005792247E+01  0.26760203493E+02  0.92471870833E+01  0.28652819363E+02  0.00000000000E+00 0.  1.
        -11    1    3    3    0    0  0.49552096255E+02 -0.41551602932E+02 -0.28101299576E+03  0.28835785014E+03  0.00000000000E+00 0.  1.
         11    1    3    3    0    0  0.85439866822E+02 -0.23260613261E+02 -0.12009539370E+03  0.14921102694E+03  0.00000000000E+00 0. -1.
         21    1    1    2  502  501  0.26467187839E+02  0.25006819797E+02 -0.15649418583E+03  0.16067446364E+03  0.00000000000E+00 0. -1.
<scales pt_clust_5="13000.00000" pt_clust_6="13000.00000" pt_clust_7="13000.00000" pt_clust_8="13000.00000" pt_clust_9="36.41227"></scales>
<clustering>
<clus scale="   36.412">  2  9  1 -1</clus>
<clus scale="   81.056">  5  6 -1 -1</clus>
<clus scale="   90.306">  7  8 -1 -1</clus>
<clus scale="  182.884">  1  5  2 -1</clus>
<clus scale="  182.884">  1  5  2 -1</clus>
</clustering>
</event>
<event>
 9    1  0.3846604E-005  0.1100550E+03  0.7546771E-02  0.1264378E+00
         -4   -1    0    0    0  501 -0.00000000000E+00  0.00000000000E+00  0.46150778253E+03  0.46150778253E+03  0.00000000000E+00 0.  1.
          3   -1    0    0  502    0  0.00000000000E+00 -0.00000000000E+00 -0.35357465537E+02  0.35357465537E+02  0.00000000000E+00 0. -1.
        -24    2    1    2    0    0  0.84767662480E+01 -0.57730344298E+02  0.23865712994E+03  0.25897569248E+03  0.81893439350E+02 0.  0.
         23    2    1    2    0    0  0.12643417832E+02  0.61916380978E+02  0.10673484504E+03  0.15431028253E+03  0.91792384768E+02 0.  0.
         13    1    3    3    0    0 -0.30144958935E+02 -0.77654636313E+01  0.41020426196E+02  0.51494624378E+02  0.00000000000E+00 0. -1.
        -14    1    3    3    0    0  0.38621725183E+02 -0.49964880667E+02  0.19763670374E+03  0.20748106811E+03  0.00000000000E+00 0.  1.
        -11    1    4    4    0    0 -0.14252703686E+02  0.49172047167E+02  0.87923716360E+01  0.51945505907E+02  0.00000000000E+00 0. -1.
         11    1    4    4    0    0  0.26896121518E+02  0.12744333811E+02  0.97942473402E+02  0.10236477662E+03  0.00000000000E+00 0.  1.
         21    1    1    2  502  501 -0.21120184080E+02 -0.41860366805E+01  0.80758342018E+02  0.83579273053E+02  0.00000000000E+00 0.  1.
<scales pt_clust_5="13000.00000" pt_clust_6="13000.00000" pt_clust_7="13000.00000" pt_clust_8="13000.00000" pt_clust_9="21.53103"></scales>
<clustering>
<clus scale="   21.531">  1  9  2 -1</clus>
<clus scale="   81.893">  5  6 -1 -1</clus>
<clus scale="   91.792">  7  8 -1 -1</clus>
<clus scale="  101.945">  1  5  2 -1</clus>
<clus scale="  110.055">  2  5  1 -1</clus>
</clustering>
</event>
<event>
 9    1  0.3846604E-005  0.2641555E+03  0.7546771E-02  0.1131909E+00
          1   -1    0    0  502    0  0.00000000000E+00  0.00000000000E+00  0.11017684794E+04  0.11017684794E+04  0.00000000000E+00 0. -1.
         -2   -1    0    0    0  501 -0.00000000000E+00 -0.00000000000E+00 -0.14011225661E+03  0.14011225661E+03  0.00000000000E+00 0.  1.
        -24    2    1    2    0    0  0.66824013060E+02 -0.81191797106E+02  0.13607246284E+03  0.19053353433E+03  0.82035089591E+02 0.  0.
         23    2    1    2    0    0 -0.10903960614E+03  0.24595254996E+03  0.83402892420E+03  0.88105456300E+03  0.90942861463E+02 0.  0.
         11    1    3    3    0    0 -0.17958632643E+02 -0.13623691589E+02  0.11217242631E+02  0.25178244402E+02  0.00000000000E+00 0. -1.
        -12    1    3    3    0    0  0.84782645703E+02 -0.67568105517E+02  0.12485522020E+03  0.16535528993E+03  0.00000000000E+00 0.  1.
        -11    1    4    4    0    0 -0.92455219896E+02  0.20459268325E+03  0.77638319527E+03  0.80819366467E+03  0.00000000000E+00 0. -1.
         11    1    4    4    0    0 -0.16584386241E+02  0.41359866713E+02  0.57645728931E+02  0.72860898330E+02  0.00000000000E+00 0.  1.
         21    1    1    2  502  501  0.42215593076E+02 -0.16476075285E+03 -0.84451642653E+01  0.17029263865E+03  0.00000000000E+00 0.  1.
<scales pt_clust_5="13000.00000" pt_clust_6="13000.00000" pt_clust_7="13000.00000" pt_clust_8="13000.00000" pt_clust_9="248.00706"></scales>
<clustering>
<clus scale="   82.035">  5  6 -1 -1</clus>
<clus scale="   90.943">  7  8 -1 -1</clus>
<clus scale="  133.369">  2  5  1 -1</clus>
<clus scale="  248.007">  2  9  1 -1</clus>
<clus scale="  264.155">  1  5  2 -1</clus>
</clustering>
</event>
<event>
 9    1  0.3846604E-005  0.2000695E+03  0.7546771E-02  0.1150070E+00
         -2   -1    0    0    0  501 -0.00000000000E+00  0.00000000000E+00  0.65570950874E+02  0.65570950874E+02  0.00000000000E+00 0.  1.
          1   -1    0    0  502    0  0.00000000000E+00 -0.00000000000E+00 -0.10123863474E+04  0.10123863474E+04  0.00000000000E+00 0. -1.
        -24    2    1    2    0    0 -0.14677704058E+03  0.12453695503E+03 -0.27164884379E+03  0.34347928254E+03  0.84450994016E+02 0.  0.
         23    2    1    2    0    0  0.15939149616E+03 -0.74390215078E+02 -0.64544577078E+03  0.67483621080E+03  0.88679846862E+02 0.  0.
         13    1    3    3    0    0 -0.58821864567E+02  0.68085767957E+02 -0.19213060454E+03  0.21215525624E+03  0.00000000000E+00 0. -1.
        -14    1    3    3    0    0 -0.87955176015E+02  0.56451187070E+02 -0.79518239252E+02  0.13132402630E+03  0.00000000000E+00 0.  1.
        -13    1    4    4    0    0  0.27716797230E+02 -0.55833910232E+02 -0.16697980779E+03  0.17823552561E+03  0.00000000000E+00 0.  1.
         13    1    4    4    0    0  0.13167469893E+03 -0.18556304845E+02 -0.47846596299E+03  0.49660068519E+03  0.00000000000E+00 0. -1.
         21    1    1    2  502  501 -0.12614455581E+02 -0.50146739949E+02 -0.29720781969E+02  0.59641804952E+02  0.00000000000E+00 0. -1.
<scales pt_clust_5="13000.00000" pt_clust_6="13000.00000" pt_clust_7="13000.00000" pt_clust_8="13000.00000" pt_clust_9="51.70899"></scales>
<clustering>
<clus scale="   51.709">  1  9  2 -1</clus>
<clus scale="   84.451">  5  6 -1 -1</clus>
<clus scale="   88.680">  7  8 -1 -1</clus>
<clus scale="  198.231">  1  5  2 -1</clus>
<clus scale="  200.070">  2  5  1 -1</clus>
</clustering>
</event>
<event>
 9    1  0.3846604E-005  0.3565332E+03  0.7546771E-02  0.1059965E+00
          1   -1    0    0  502    0  0.00000000000E+00  0.00000000000E+00  0.43126415133E+03  0.43126415133E+03  0.00000000000E+00 0. -1.
         -2   -1    0    0    0  501 -0.00000000000E+00 -0.00000000000E+00 -0.29732779443E+03  0.29732779443E+03  0.00000000000E+00 0.  1.
        -24    2    1    2    0    0 -0.24973676399E+02 -0.14540952732E+03  0.10613835317E+03  0.19855379020E+03  0.79941493871E+02 0.  0.
         23    2    1    2    0    0 -0.13312915578E+03 -0.97502701773E+02  0.12265713913E+03  0.22507731847E+03  0.91568971495E+02 0.  0.
         11    1    3    3    0    0 -0.37714710715E+02 -0.13083818729E+03  0.11407392890E+03  0.17763415187E+03  0.00000000000E+00 0. -1.
        -12    1    3    3    0    0  0.12741034316E+02 -0.14571340033E+02 -0.79355757289E+01  0.20919638332E+02  0.00000000000E+00 0.  1.
        -13    1    4    4    0    0 -0.53897596639E+02 -0.73238123948E+02  0.10756389404E+03  0.14085015096E+03  0.00000000000E+00 0.  1.
         13    1    4    4    0    0 -0.79231559140E+02 -0.24264577825E+02  0.15093245087E+02  0.84227167517E+02  0.00000000000E+00 0. -1.
         21    1    1    2  502  501  0.15810283218E+03  0.24291222909E+03 -0.94859135393E+02  0.30496083708E+03  0.00000000000E+00 0.  1.
<scales pt_clust_5="13000.00000" pt_clust_6="13000.00000" pt_clust_7="13000.00000" pt_clust_8="13000.00000" pt_clust_9="289.83246"></scales>
<clustering>
<clus scale="   79.941">  5  6 -1 -1</clus>
<clus scale="   91.569">  7  8 -1 -1</clus>
<clus scale="  143.632">  5  7 -1 -1</clus>
<clus scale="  289.832">  2  9  1 -1</clus>
<clus scale="  356.533">  1  5  2 -1</clus>
</clustering>
</event>
<event>
 9    1  0.3846604E-005  0.1312972E+03  0.7546771E-02  0.1227814E+00
          1   -1    0    0  502    0  0.00000000000E+00  0.00000000000E+00  0.41067167841E+03  0.41067167841E+03  0.00000000000E+00 0. -1.
         -2   -1    0    0    0  501 -0.00000000000E+00 -0.00000000000E+00 -0.50045840392E+02  0.50045840392E+02  0.00000000000E+00 0.  1.
         23    2    1    2    0    0  0.39662190368E+02  0.10017727658E+03  0.14184240589E+03  0.19973931156E+03  0.90376702668E+02 0.  0.
        -24    2    1    2    0    0 -0.27690604120E+02 -0.83677256605E+02  0.20027974093E+03  0.23344720427E+03  0.81344758445E+02 0.  0.
         13    1    4    4    0    0 -0.45893133738E+02 -0.22398831219E+02  0.12283647040E+03  0.13302889094E+03  0.00000000000E+00 0. -1.
        -14    1    4    4    0    0  0.18202529618E+02 -0.61278425386E+02  0.77443270526E+02  0.10041831333E+03  0.00000000000E+00 0.  1.
        -11    1    3    3    0    0 -0.23693310625E+02  0.51673666029E+02  0.36368922599E+02  0.67485103988E+02  0.00000000000E+00 0.  1.
         11    1    3    3    0    0  0.63355500993E+02  0.48503610555E+02  0.10547348329E+03  0.13225420757E+03  0.00000000000E+00 0. -1.
         21    1    1    2  502  501 -0.11971586248E+02 -0.16500019979E+02  0.18503691204E+02  0.27531002975E+02  0.00000000000E+00 0.  1.
<scales pt_clust_5="13000.00000" pt_clust_6="13000.00000" pt_clust_7="13000.00000" pt_clust_8="13000.00000" pt_clust_9="20.38552"></scales>
<clustering>
<clus scale="   20.386">  2  9  1 -1</clus>
<clus scale="   81.345">  5  6 -1 -1</clus>
<clus scale="   90.377">  7  8 -1 -1</clus>
<clus scale="  125.252">  1  5  2 -1</clus>
<clus scale="  125.252">  1  5  2 -1</clus>
</clustering>
</event>
<event>
 9    1  0.3846604E-005  0.1771979E+03  0.7546771E-02  0.1173038E+00
          1   -1    0    0  502    0  0.00000000000E+00  0.00000000000E+00  0.17669166504E+03  0.17669166504E+03  0.00000000000E+00 0. -1.
         -2   -1    0    0    0  501 -0.00000000000E+00 -0.00000000000E+00 -0.35362491796E+03  0.35362491796E+03  0.00000000000E+00 0.  1.
         23    2    1    2    0    0  0.23491267368E+02 -0.17681279711E+03 -0.20245452985E+03  0.28629788496E+03  0.95728978955E+02 0.  0.
        -24    2    1    2    0    0 -0.16752731001E+02  0.14206359000E+03  0.78714268507E+02  0.18012496110E+03  0.76068048110E+02 0.  0.
         13    1    4    4    0    0 -0.32722581680E+02  0.13981780228E+03  0.60564803776E+02  0.15584569498E+03  0.00000000000E+00 0. -1.
        -14    1    4    4    0    0  0.15969850679E+02  0.22457877188E+01  0.18149464731E+02  0.24279266118E+02  0.00000000000E+00 0.  1.
        -13    1    3    3    0    0 -0.19952921913E+02 -0.10413304498E+03 -0.63533312674E+02  0.12360538810E+03  0.00000000000E+00 0. -1.
         13    1    3    3    0    0  0.43444189281E+02 -0.72679752139E+02 -0.13892121717E+03  0.16269249686E+03  0.00000000000E+00 0.  1.
         21    1    1    2  502  501 -0.67385363672E+01  0.34749207115E+02 -0.53192991581E+02  0.63893736945E+02  0.00000000000E+00 0.  1.
<scales pt_clust_5="13000.00000" pt_clust_6="13000.00000" pt_clust_7="13000.00000" pt_clust_8="13000.00000" pt_clust_9="35.39654"></scales>
<clustering>
<clus scale="   35.397">  2  9  1 -1</clus>
<clus scale="   76.068">  5  6 -1 -1</clus>
<clus scale="   95.729">  7  8 -1 -1</clus>
<clus scale="  167.396">  1  5  2 -1</clus>
<clus scale="  167.396">  1  5  2 -1</clus>
</clustering>
</event>
<event>
 9    1  0.3846604E-005  0.1057568E+03  0.7546771E-02  0.1273498E+00
          1   -1    0    0  502    0  0.00000000000E+00  0.00000000000E+00  0.16504367610E+03  0.16504367610E+03  0.00000000000E+00 0. -1.
         -2   -1    0    0    0  501 -0.00000000000E+00 -0.00000000000E+00 -0.26528406561E+03  0.26528406561E+03  0.00000000000E+00 0.  1.
        -24    2    1    2    0    0  0.15394609388E+02  0.31469289452E+02 -0.42301066272E+02  0.97572066261E+02  0.80645010570E+02 0.  0.
         23    2    1    2    0    0  0.65992991675E+02 -0.28767976850E+02  0.10092974498E+03  0.15423223292E+03  0.91750186954E+02 0.  0.
         13    1    3    3    0    0 -0.11949149890E+02  0.18356839145E+02  0.19118794216E+02  0.29073768568E+02  0.00000000000E+00 0. -1.
        -14    1    3    3    0    0  0.27343759278E+02  0.13112450306E+02 -0.61419860488E+02  0.68498297693E+02  0.00000000000E+00 0.  1.
        -13    1    4    4    0    0  0.73320860981E+02 -0.51609959826E+02  0.92450587102E+02  0.12878915973E+03  0.00000000000E+00 0.  1.
         13    1    4    4    0    0 -0.73278693067E+01  0.22841982976E+02  0.84791578798E+01  0.25443073187E+02  0.00000000000E+00 0. -1.
         21    1    1    2  502  501 -0.81387601063E+02 -0.27013126012E+01 -0.15886906822E+03  0.17852344253E+03  0.00000000000E+00 0. -1.
<scales pt_clust_5="13000.00000" pt_clust_6="13000.00000" pt_clust_7="13000.00000" pt_clust_8="13000.00000" pt_clust_9="81.43242"></scales>
<clustering>
<clus scale="   80.645">  5  6 -1 -1</clus>
<clus scale="   81.432">  2  9  1 -1</clus>
<clus scale="   91.750">  7  8 -1 -1</clus>
<clus scale="   96.281">  2  5  1 -1</clus>
<clus scale="  105.757">  1  5  2 -1</clus>
</clustering>
</event>
<event>
 9    1  0.3846604E-005  0.1186118E+03  0.7546771E-02  0.1250193E+00
         -2   -1    0    0    0  501 -0.00000000000E+00  0.00000000000E+00  0.70012384839E+03  0.70012384839E+03  0.00000000000E+00 0.  1.
          1   -1    0    0  502    0  0.00000000000E+00 -0.00000000000E+00 -0.36069814948E+02  0.36069814948E+02  0.00000000000E+00 0. -1.
        -24    2    1    2    0    0  0.79315361946E+01 -0.74905242138E+02  0.35833047907E+03  0.37468662651E+03  0.79470946189E+02 0.  0.
         23    2    1    2    0    0  0.55253311584E+02  0.64946512674E+02  0.17567226675E+03  0.21657657525E+03  0.93667975810E+02 0.  0.
         13    1    3    3    0    0  0.81353769568E+01 -0.35152321027E+02  0.39941932478E+02  0.53825904562E+02  0.00000000000E+00 0. -1.
        -14    1    3    3    0    0 -0.20384076216E+00 -0.39752921112E+02  0.31838854659E+03  0.32086072194E+03  0.00000000000E+00 0.  1.
        -13    1    4    4    0    0 -0.24485719220E+02  0.29408038666E+02  0.67261753051E+02  0.77385571055E+02  0.00000000000E+00 0.  1.
         13    1    4    4    0    0  0.79739030805E+02  0.35538474009E+02  0.10841051370E+03  0.13919100419E+03  0.00000000000E+00 0. -1.
         21    1    1    2  502  501 -0.63184847779E+02  0.99587294643E+01  0.13005128763E+03  0.14493046158E+03  0.00000000000E+00 0.  1.
<scales pt_clust_5="13000.00000" pt_clust_6="13000.00000" pt_clust_7="13000.00000" pt_clust_8="13000.00000" pt_clust_9="63.96484"></scales>
<clustering>
<clus scale="   63.965">  2  9  1 -1</clus>
<clus scale="   79.471">  5  6 -1 -1</clus>
<clus scale="   93.668">  7  8 -1 -1</clus>
<clus scale="  107.753">  1  5  2 -1</clus>
<clus scale="   63.965">  2  5  1 -1</clus>
</clustering>
</event>
<event>
 9    1  0.3846604E-005  0.3398577E+03  0.7546771E-02  0.1079587E+00
          1   -1    0    0  502    0  0.00000000000E+00  0.00000000000E+00  0.34477505790E+03  0.34477505790E+03  0.00000000000E+00 0. -1.
         -2   -1    0    0    0  501 -0.00000000000E+00 -0.00000000000E+00 -0.68465616039E+03  0.68465616039E+03  0.00000000000E+00 0.  1.
        -24    2    1    2    0    0 -0.84498476267E+02 -0.45985038394E+03 -0.23725913492E+03  0.53040795224E+03  0.80239208552E+02 0.  0.
         23    2    1    2    0    0  0.32876651236E+02  0.21957869035E+03 -0.25618814302E+02  0.24148727793E+03  0.91455488111E+02 0.  0.
         11    1    3    3    0    0 -0.78218702299E+01 -0.19656560470E+03 -0.13084341316E+03  0.23626090953E+03  0.00000000000E+00 0. -1.
        -12    1    3    3    0    0 -0.76676606037E+02 -0.26328477924E+03 -0.10641572176E+03  0.29414704271E+03  0.00000000000E+00 0.  1.
        -13    1    4    4    0    0 -0.29970470419E+02  0.40827842730E+02 -0.53473302811E+01  0.50928732365E+02  0.00000000000E+00 0. -1.
         13    1    4    4    0    0  0.62847121655E+02  0.17875084762E+03 -0.20271484021E+02  0.19055854557E+03  0.00000000000E+00 0.  1.
         21    1    1    2  502  501  0.51621825032E+02  0.24027169359E+03 -0.77003153271E+02  0.25753598812E+03  0.00000000000E+00 0. -1.
<scales pt_clust_5="13000.00000" pt_clust_6="13000.00000" pt_clust_7="13000.00000" pt_clust_8="13000.00000" pt_clust_9="330.24982"></scales>
<clustering>
<clus scale="   80.239">  5  6 -1 -1</clus>
<clus scale="   91.455">  7  8 -1 -1</clus>
<clus scale="  240.125">  1  7  2 -1</clus>
<clus scale="  330.250">  2  9  1 -1</clus>
<clus scale="  240.125">  1  5  2 -1</clus>
</clustering>
</event>
<event>
 9    1  0.3846604E-005  0.1022408E+03  0.7546771E-02  0.1282001E+00
         -2   -1    0    0    0  501 -0.00000000000E+00  0.00000000000E+00  0.20355532431E+03  0.20355532431E+03  0.00000000000E+00 0.  1.
          1   -1    0    0  502    0  0.00000000000E+00 -0.00000000000E+00 -0.10978987510E+03  0.10978987510E+03  0.00000000000E+00 0. -1.
         23    2    1    2    0    0 -0.30699583619E+02  0.12777615368E+01  0.35857811633E+02  0.10406125979E+03  0.92730070771E+02 0.  0.
        -24    2    1    2    0    0  0.47031662613E+02  0.12553895870E+02 -0.45361635990E+02  0.10382022827E+03  0.79695571948E+02 0.  0.
         13    1    4    4    0    0  0.17139517180E+02  0.31474659626E+02 -0.56345308671E+02  0.66777324422E+02  0.00000000000E+00 0. -1.
        -14    1    4    4    0    0  0.29892145433E+02 -0.18920763756E+02  0.10983672681E+02  0.37042903845E+02  0.00000000000E+00 0.  1.
        -11    1    3    3    0    0 -0.18235097743E+02 -0.19458968772E+02 -0.26242393123E+02  0.37414348213E+02  0.00000000000E+00 0.  1.
         11    1    3    3    0    0 -0.12464485876E+02  0.20736730309E+02  0.62100204756E+02  0.66646911577E+02  0.00000000000E+00 0. -1.
         21    1    1    2  502  501 -0.16332078994E+02 -0.13831657407E+02  0.10326927356E+03  0.10546371136E+03  0.00000000000E+00 0.  1.
<scales pt_clust_5="13000.00000" pt_clust_6="13000.00000" pt_clust_7="13000.00000" pt_clust_8="13000.00000" pt_clust_9="21.40214"></scales>
<clustering>
<clus scale="   21.402">  1  9  2 -1</clus>
<clus scale="   79.696">  5  6 -1 -1</clus>
<clus scale="   90.585">  2  5  1 -1</clus>
<clus scale="   92.730">  7  8 -1 -1</clus>
<clus scale="   90.585">  2  5  1 -1</clus>
</clustering>
</event>
<event>
 9    1  0.3846604E-005  0.9993203E+02  0.7546771E-02  0.1286125E+00
          3   -1    0    0  502    0  0.00000000000E+00  0.00000000000E+00  0.72484512660E+02  0.72484512660E+02  0.00000000000E+00 0. -1.
         -4   -1    0    0    0  501 -0.00000000000E+00 -0.00000000000E+00 -0.31959898195E+03  0.31959898195E+03  0.00000000000E+00 0.  1.
        -24    2    1    2    0    0 -0.14313892638E+02 -0.32044325956E+02 -0.24185679861E+03  0.25730668854E+03  0.80500276924E+02 0.  0.
         23    2    1    2    0    0 -0.61537600829E+01  0.40768307635E+02  0.18465490615E+02  0.10225264511E+03  0.91731703454E+02 0.  0.
         13    1    3    3    0    0 -0.27297756481E+02  0.20215967310E+02 -0.94039847687E+02  0.99986728100E+02  0.00000000000E+00 0. -1.
        -14    1    3    3    0    0  0.12983863843E+02 -0.52260293266E+02 -0.14781695092E+03  0.15731996044E+03  0.00000000000E+00 0.  1.
        -11    1    4    4    0    0  0.37115321408E+02  0.20555014159E+02 -0.13802484002E+02  0.44615739991E+02  0.00000000000E+00 0.  1.
         11    1    4    4    0    0 -0.43269081491E+02  0.20213293476E+02  0.32267974618E+02  0.57636905123E+02  0.00000000000E+00 0. -1.
         21    1    1    2  502  501  0.20467652720E+02 -0.87239816786E+01 -0.23723161302E+02  0.32524160963E+02  0.00000000000E+00 0.  1.
<scales pt_clust_5="13000.00000" pt_clust_6="13000.00000" pt_clust_7="13000.00000" pt_clust_8="13000.00000" pt_clust_9="22.24933"></scales>
<clustering>
<clus scale="   22.249">  2  9  1 -1</clus>
<clus scale="   80.500">  5  6 -1 -1</clus>
<clus scale="   89.733">  2  5  1 -1</clus>
<clus scale="   91.732">  7  8 -1 -1</clus>
<clus scale="   99.932">  1  5  2 -1</clus>
</clustering>
</event>
<event>
 9    1  0.3846604E-005  0.3244642E+03  0.7546771E-02  0.1074029E+00
          1   -1    0    0  502    0  0.00000000000E+00  0.00000000000E+00  0.45594936525E+03  0.45594936525E+03  0.00000000000E+00 0. -1.
         -2   -1    0    0    0  501 -0.00000000000E+00 -0.00000000000E+00 -0.61864475452E+03  0.61864475452E+03  0.00000000000E+00 0.  1.
        -24    2    1    2    0    0 -0.19687110929E+03 -0.16630469793E+03 -0.24264358985E+03  0.36261731324E+03  0.78739557688E+02 0.  0.
         23    2    1    2    0    0  0.23487489908E+03  0.22295455769E+03  0.31869075009E+03  0.46367960639E+03  0.92520431091E+02 0.  0.
         11    1    3    3    0    0 -0.91116753205E+02 -0.30140248956E+02 -0.10268027218E+03  0.14054869483E+03  0.00000000000E+00 0. -1.
        -12    1    3    3    0    0 -0.10575435609E+03 -0.13616444897E+03 -0.13996331766E+03  0.22206861842E+03  0.00000000000E+00 0.  1.
        -13    1    4    4    0    0  0.14418699396E+02  0.40588115416E+02  0.13016540349E+02  0.44996936873E+02  0.00000000000E+00 0.  1.
         13    1    4    4    0    0  0.22045619969E+03  0.18236644228E+03  0.30567420974E+03  0.41868266951E+03  0.00000000000E+00 0. -1.
         21    1    1    2  502  501 -0.38003789792E+02 -0.56649859765E+02 -0.23874254951E+03  0.24829720014E+03  0.00000000000E+00 0.  1.
<scales pt_clust_5="13000.00000" pt_clust_6="13000.00000" pt_clust_7="13000.00000" pt_clust_8="13000.00000" pt_clust_9="68.21653"></scales>
<clustering>
<clus scale="   68.217">  2  9  1 -1</clus>
<clus scale="   78.740">  5  6 -1 -1</clus>
<clus scale="   92.520">  7  8 -1 -1</clus>
<clus scale="  320.807">  2  5  1 -1</clus>
<clus scale="  324.464">  1  5  2 -1</clus>
</clustering>
</event>
<event>
 9    1  0.3846604E-005  0.1571750E+03  0.7546771E-02  0.1195556E+00
         -2   -1    0    0    0  501 -0.00000000000E+00  0.00000000000E+00  0.98861542652E+02  0.98861542652E+02  0.00000000000E+00 0.  1.
          1   -1    0    0  502    0  0.00000000000E+00 -0.00000000000E+00 -0.38240687489E+03  0.38240687489E+03  0.00000000000E+00 0. -1.
         23    2    1    2    0    0  0.39361901925E+01 -0.10038746774E+03 -0.27980732852E+01  0.14410696636E+03  0.10327560828E+03 0.  0.
        -24    2    1    2    0    0  0.10013462791E+02  0.12315649842E+03 -0.26968987800E+03  0.30826011471E+03  0.83808564518E+02 0.  0.
         11    1    4    4    0    0  0.23122056135E+02 -0.58469793478E+00 -0.61657928162E+02  0.65853408847E+02  0.00000000000E+00 0. -1.
        -12    1    4    4    0    0 -0.13108593344E+02  0.12374119636E+03 -0.20803194984E+03  0.24240670586E+03  0.00000000000E+00 0.  1.
        -13    1    3    3    0    0 -0.42315188109E+02 -0.68112091258E+02  0.21002793978E+02  0.82891190576E+02  0.00000000000E+00 0.  1.
         13    1    3    3    0    0  0.46251378301E+02 -0.32275376482E+02 -0.23800867263E+02  0.61215775779E+02  0.00000000000E+00 0. -1.
         21    1    1    2  502  501 -0.13949652983E+02 -0.22769030681E+02 -0.11057380955E+02  0.28901336475E+02  0.00000000000E+00 0. -1.
<scales pt_clust_5="13000.00000" pt_clust_6="13000.00000" pt_clust_7="13000.00000" pt_clust_8="13000.00000" pt_clust_9="26.70246"></scales>
<clustering>
<clus scale="   26.702">  1  9  2 -1</clus>
<clus scale="   83.809">  5  6 -1 -1</clus>
<clus scale="  103.276">  7  8 -1 -1</clus>
<clus scale="  145.128">  2  5  1 -1</clus>
<clus scale="  145.128">  2  5  1 -1</clus>
</clustering>
</event>
<event>
 9    1  0.3846604E-005  0.2832265E+03  0.7546771E-02  0.1094378E+00
          1   -1    0    0  502    0  0.00000000000E+00  0.00000000000E+00  0.44110313785E+03  0.44110313785E+03  0.00000000000E+00 0. -1.
         -2   -1    0    0    0  501 -0.00000000000E+00 -0.00000000000E+00 -0.90917477164E+03  0.90917477164E+03  0.00000000000E+00 0.  1.
         23    2    1    2    0    0  0.42408059059E+02 -0.29570640201E+03 -0.59817035735E+03  0.67472059519E+03  0.90550458264E+02 0.  0.
        -24    2    1    2    0    0 -0.14800137556E+02  0.26573102710E+03  0.35284226868E+03  0.44911657741E+03  0.79849926132E+02 0.  0.
         13    1    4    4    0    0 -0.17695119207E+02  0.26180705148E+03  0.35675407039E+03  0.44286512189E+03  0.00000000000E+00 0. -1.
        -14    1    4    4    0    0  0.28949816506E+01  0.39239756259E+01 -0.39118017139E+01  0.62514555201E+01  0.00000000000E+00 0.  1.
        -13    1    3    3    0    0  0.69855448720E+02 -0.17837467402E+03 -0.37500968202E+03  0.42110517648E+03  0.00000000000E+00 0.  1.
         13    1    3    3    0    0 -0.27447389661E+02 -0.11733172799E+03 -0.22316067533E+03  0.25361541871E+03  0.00000000000E+00 0. -1.
         21    1    1    2  502  501 -0.27607921503E+02  0.29975374911E+02 -0.22274354512E+03  0.22644073690E+03  0.00000000000E+00 0. -1.
<scales pt_clust_5="13000.00000" pt_clust_6="13000.00000" pt_clust_7="13000.00000" pt_clust_8="13000.00000" pt_clust_9="40.75194"></scales>
<clustering>
<clus scale="   40.752">  2  9  1 -1</clus>
<clus scale="   79.850">  5  6 -1 -1</clus>
<clus scale="   90.550">  7  8 -1 -1</clus>
<clus scale="  279.989">  1  5  2 -1</clus>
<clus scale="  279.989">  1  5  2 -1</clus>
</clustering>
</event>
<event>
 9    1  0.3846604E-005  0.1027774E+03  0.7546771E-02  0.1279332E+00
         -2   -1    0    0    0  501 -0.00000000000E+00  0.00000000000E+00  0.10716411258E+03  0.10716411258E+03  0.00000000000E+00 0.  1.
          1   -1    0    0  502    0  0.00000000000E+00 -0.00000000000E+00 -0.18777855116E+03  0.18777855116E+03  0.00000000000E+00 0. -1.
        -24    2    1    2    0    0 -0.14914772765E+02 -0.26258678967E+02  0.33389491051E+02  0.92170664412E+02  0.80427635784E+02 0.  0.
         23    2    1    2    0    0  0.41384948154E+02  0.34851069915E+02 -0.13242845715E+03  0.16939592134E+03  0.90721391613E+02 0.  0.
         11    1    3    3    0    0 -0.40536585238E+02 -0.13541928807E+02  0.44300783185E+02  0.61556136732E+02  0.00000000000E+00 0. -1.
        -12    1    3    3    0    0  0.25621812473E+02 -0.12716750160E+02 -0.10911292134E+02  0.30614527680E+02  0.00000000000E+00 0.  1.
        -11    1    4    4    0    0  0.40496993975E+01  0.48367761048E+02 -0.24448337026E+02  0.54346679359E+02  0.00000000000E+00 0.  1.
         11    1    4    4    0    0  0.37335248757E+02 -0.13516691133E+02 -0.10798012012E+03  0.11504924198E+03  0.00000000000E+00 0. -1.
         21    1    1    2  502  501 -0.26470175389E+02 -0.85923909476E+01  0.18424527525E+02  0.33376077988E+02  0.00000000000E+00 0.  1.
<scales pt_clust_5="13000.00000" pt_clust_6="13000.00000" pt_clust_7="13000.00000" pt_clust_8="13000.00000" pt_clust_9="27.82983"></scales>
<clustering>
<clus scale="   27.830">  1  9  2 -1</clus>
<clus scale="   80.428">  5  6 -1 -1</clus>
<clus scale="   90.721">  7  8 -1 -1</clus>
<clus scale="   93.816">  1  5  2 -1</clus>
<clus scale="  102.777">  2  5  1 -1</clus>
</clustering>
</event>
<event>
 9    1  0.3846604E-005  0.1398532E+03  0.7546771E-02  0.1215596E+00
         -2   -1    0    0    0  501 -0.00000000000E+00  0.00000000000E+00  0.58222877563E+02  0.58222877563E+02  0.00000000000E+00 0.  1.
          1   -1    0    0  502    0  0.00000000000E+00 -0.00000000000E+00 -0.50156960198E+03  0.50156960198E+03  0.00000000000E+00 0. -1.
        -24    2    1    2    0    0 -0.30550495239E+02 -0.11440837992E+03 -0.10441668594E+03  0.17827931439E+03  0.82813401583E+02 0.  0.
         23    2    1    2    0    0  0.48949953817E+02  0.88255338453E+02 -0.30824719977E+03  0.33719659663E+03  0.92196018724E+02 0.  0.
         11    1    3    3    0    0 -0.36884073383E+02 -0.56397836075E+02 -0.98883330794E+02  0.11966229102E+03  0.00000000000E+00 0. -1.
        -12    1    3    3    0    0  0.63335781441E+01 -0.58010543850E+02 -0.55333551429E+01  0.58617023372E+02  0.00000000000E+00 0.  1.
        -13    1    4    4    0    0 -0.22938636718E+02  0.95135780906E-01 -0.51842239283E+02  0.56690456685E+02  0.00000000000E+00 0.  1.
         13    1    4    4    0    0  0.71888590536E+02  0.88160202672E+02 -0.25640496048E+03  0.28050613994E+03  0.00000000000E+00 0. -1.
         21    1    1    2  502  501 -0.18399458578E+02  0.26153041472E+02 -0.30682838714E+02  0.44316568524E+02  0.00000000000E+00 0.  1.
<scales pt_clust_5="13000.00000" pt_clust_6="13000.00000" pt_clust_7="13000.00000" pt_clust_8="13000.00000" pt_clust_9="31.97689"></scales>
<clustering>
<clus scale="   31.977">  1  9  2 -1</clus>
<clus scale="   82.813">  5  6 -1 -1</clus>
<clus scale="   92.196">  7  8 -1 -1</clus>
<clus scale="  133.854">  1  5  2 -1</clus>
<clus scale="  139.853">  2  5  1 -1</clus>
</clustering>
</event>
<event>
 9    1  0.3846604E-005  0.1040005E+03  0.7546771E-02  0.1279459E+00
         -2   -1    0    0    0  501 -0.00000000000E+00  0.00000000000E+00  0.23876720161E+02  0.23876720161E+02  0.00000000000E+00 0.  1.
          1   -1    0    0  502    0  0.00000000000E+00 -0.00000000000E+00 -0.67451347474E+03  0.67451347474E+03  0.00000000000E+00 0. -1.
        -24    2    1    2    0    0 -0.20528561522E+02 -0.13516134479E+02 -0.11136595975E+03  0.13941849878E+03  0.80193722215E+02 0.  0.
         23    2    1    2    0    0  0.49228279899E+02  0.57145420073E+01 -0.48809775477E+03  0.49978370148E+03  0.95332316258E+02 0.  0.
         11    1    3    3    0    0 -0.85035736401E+01  0.33896337415E+02 -0.45094809593E+02  0.57050979896E+02  0.00000000000E+00 0. -1.
        -12    1    3    3    0    0 -0.12024987882E+02 -0.47412471894E+02 -0.66271150155E+02  0.82367518886E+02  0.00000000000E+00 0.  1.
        -11    1    4    4    0    0  0.64593022169E+02  0.35653903294E+02 -0.33158059374E+03  0.33968978418E+03  0.00000000000E+00 0.  1.
         11    1    4    4    0    0 -0.15364742270E+02 -0.29939361287E+02 -0.15651716104E+03  0.16009391730E+03  0.00000000000E+00 0. -1.
         21    1    1    2  502  501 -0.28699718377E+02  0.78015924712E+01 -0.51173040054E+02  0.59187994630E+02  0.00000000000E+00 0.  1.
<scales pt_clust_5="13000.00000" pt_clust_6="13000.00000" pt_clust_7="13000.00000" pt_clust_8="13000.00000" pt_clust_9="29.74119"></scales>
<clustering>
<clus scale="   29.741">  1  9  2 -1</clus>
<clus scale="   80.194">  5  6 -1 -1</clus>
<clus scale="   90.326">  1  5  2 -1</clus>
<clus scale="   95.332">  7  8 -1 -1</clus>
<clus scale="  104.000">  2  5  1 -1</clus>
</clustering>
</event>
<event>
 9    1  0.3846604E-005  0.2004187E+03  0.7546771E-02  0.1150330E+00
         -2   -1    0    0    0  501 -0.00000000000E+00  0.00000000000E+00  0.85638311945E+02  0.85638311945E+02  0.00000000000E+00 0.  1.
          1   -1    0    0  502    0  0.00000000000E+00 -0.00000000000E+00 -0.11881513990E+04  0.11881513990E+04  0.00000000000E+00 0. -1.
        -24    2    1    2    0    0 -0.13544015416E+02 -0.16463602065E+03 -0.41170771626E+03  0.45110797127E+03  0.81894434901E+02 0.  0.
         23    2    1    2    0    0  0.10518428326E+02  0.18723075958E+03 -0.73975796175E+03  0.76868143807E+03  0.91996285708E+02 0.  0.
         11    1    3    3    0    0  0.51919171032E+01 -0.13518826633E+03 -0.23653127319E+03  0.27248828700E+03  0.00000000000E+00 0. -1.
        -12    1    3    3    0    0 -0.18735932519E+02 -0.29447754321E+02 -0.17517644307E+03  0.17861968427E+03  0.00000000000E+00 0.  1.
        -11    1    4    4    0    0 -0.29481840848E+02  0.49744274628E+02 -0.31975960267E+03  0.32494595750E+03  0.00000000000E+00 0. -1.
         11    1    4    4    0    0  0.40000269174E+02  0.13748648495E+03 -0.41999835909E+03  0.44373548057E+03  0.00000000000E+00 0.  1.
         21    1    1    2  502  501  0.30255870896E+01 -0.22594738928E+02  0.48952590994E+02  0.54000301569E+02  0.00000000000E+00 0.  1.
<scales pt_clust_5="13000.00000" pt_clust_6="13000.00000" pt_clust_7="13000.00000" pt_clust_8="13000.00000" pt_clust_9="22.79641"></scales>
<clustering>
<clus scale="   22.796">  1  9  2 -1</clus>
<clus scale="   81.894">  5  6 -1 -1</clus>
<clus scale="   91.996">  7  8 -1 -1</clus>
<clus scale="  195.987">  1  5  2 -1</clus>
<clus scale="  200.419">  2  5  1 -1</clus>
</clustering>
</event>
<event>
 9    1  0.3846604E-005  0.1667610E+03  0.7546771E-02  0.1182708E+00
         -2   -1    0    0    0  501 -0.00000000000E+00  0.00000000000E+00  0.69785431532E+02  0.69785431532E+02  0.00000000000E+00 0.  1.
          1   -1    0    0  502    0  0.00000000000E+00 -0.00000000000E+00 -0.53327409444E+03  0.53327409444E+03  0.00000000000E+00 0. -1.
         23    2    1    2    0    0  0.55676501060E+02  0.10309080428E+03 -0.11051659197E+03  0.18525199649E+03  0.91524851287E+02 0.  0.
        -24    2    1    2    0    0 -0.69087615294E+02 -0.13500546513E+03 -0.33950762184E+03  0.38066328429E+03  0.81483351151E+02 0.  0.
         11    1    4    4    0    0  0.18577469224E+02 -0.20632304414E+02 -0.47076720345E+02  0.54653745953E+02  0.00000000000E+00 0. -1.
        -12    1    4    4    0    0 -0.87665084519E+02 -0.11437316071E+03 -0.29243090150E+03  0.32600953834E+03  0.00000000000E+00 0.  1.
        -13    1    3    3    0    0  0.56488988464E+02  0.69376991837E+02 -0.24349104537E+02  0.92720287455E+02  0.00000000000E+00 0. -1.
         13    1    3    3    0    0 -0.81248740469E+00  0.33713812447E+02 -0.86167487434E+02  0.92531709030E+02  0.00000000000E+00 0.  1.
         21    1    1    2  502  501  0.13411114235E+02  0.31914660845E+02 -0.13464449096E+02  0.37144245198E+02  0.00000000000E+00 0.  1.
<scales pt_clust_5="13000.00000" pt_clust_6="13000.00000" pt_clust_7="13000.00000" pt_clust_8="13000.00000" pt_clust_9="34.61797"></scales>
<clustering>
<clus scale="   34.618">  1  9  2 -1</clus>
<clus scale="   81.483">  5  6 -1 -1</clus>
<clus scale="   91.525">  7  8 -1 -1</clus>
<clus scale="  161.468">  2  5  1 -1</clus>
<clus scale="  161.468">  2  5  1 -1</clus>
</clustering>
</event>
<event>
 9    1  0.3846604E-005  0.9342321E+02  0.7546771E-02  0.1300188E+00
         -2   -1    0    0    0  501 -0.00000000000E+00  0.00000000000E+00  0.29354018857E+03  0.29354018857E+03  0.00000000000E+00 0.  1.
          1   -1    0    0  502    0  0.00000000000E+00 -0.00000000000E+00 -0.50454860320E+02  0.50454860320E+02  0.00000000000E+00 0. -1.
         23    2    1    2    0    0 -0.15542025593E+02  0.19702513071E+02  0.17470036555E+03  0.19812405741E+03  0.90017669481E+02 0.  0.
        -24    2    1    2    0    0 -0.16835175092E+02 -0.24139053322E+02  0.21240880726E+02  0.88507845833E+02  0.80723892029E+02 0.  0.
         13    1    4    4    0    0 -0.22313468850E+01  0.29377693160E+02  0.13811627383E+02  0.32539035255E+02  0.00000000000E+00 0. -1.
        -14    1    4    4    0    0 -0.14603828207E+02 -0.53516746482E+02  0.74292533430E+01  0.55968810578E+02  0.00000000000E+00 0.  1.
        -11    1    3    3    0    0  0.27096993972E+02  0.37404601988E+02  0.72253794506E+02  0.85755245628E+02  0.00000000000E+00 0.  1.
         11    1    3    3    0    0 -0.42639019566E+02 -0.17702088918E+02  0.10244657104E+03  0.11236881178E+03  0.00000000000E+00 0. -1.
         21    1    1    2  502  501  0.32377200686E+02  0.44365402512E+01  0.47144081969E+02  0.57363145646E+02  0.00000000000E+00 0.  1.
<scales pt_clust_5="13000.00000" pt_clust_6="13000.00000" pt_clust_7="13000.00000" pt_clust_8="13000.00000" pt_clust_9="32.67975"></scales>
<clustering>
<clus scale="   32.680">  1  9  2 -1</clus>
<clus scale="   80.724">  5  6 -1 -1</clus>
<clus scale="   84.505">  2  5  1 -1</clus>
<clus scale="   90.018">  7  8 -1 -1</clus>
<clus scale="   84.505">  2  5  1 -1</clus>
</clustering>
</event>
<event>
 9    1  0.3846604E-005  0.2234892E+03  0.7546771E-02  0.1131721E+00
          1   -1    0    0  502    0  0.00000000000E+00  0.00000000000E+00  0.24359299078E+03  0.24359299078E+03  0.00000000000E+00 0. -1.
         -2   -1    0    0    0  501 -0.00000000000E+00 -0.00000000000E+00 -0.78732131868E+03  0.78732131868E+03  0.00000000000E+00 0.  1.
        -24    2    1    2    0    0 -0.90806770767E+02  0.15542075999E+03 -0.65737522651E+03  0.68687864545E+03  0.85197434748E+02 0.  0.
         23    2    1    2    0    0  0.12092632465E+03 -0.16711840685E+03  0.16777514353E+03  0.28099687145E+03  0.90879068414E+02 0.  0.
         13    1    3    3    0    0 -0.41371790386E+02  0.60954837856E+01 -0.13291846721E+03  0.13934166243E+03  0.00000000000E+00 0. -1.
        -14    1    3    3    0    0 -0.49434980381E+02  0.14932527620E+03 -0.52445675930E+03  0.54753698302E+03  0.00000000000E+00 0.  1.
        -11    1    4    4    0    0  0.72099076514E+02 -0.50819944140E+02  0.11333630461E+03  0.14361776179E+03  0.00000000000E+00 0. -1.
         11    1    4    4    0    0  0.48827248133E+02 -0.11629846271E+03  0.54438838919E+02  0.13737910967E+03  0.00000000000E+00 0.  1.
         21    1    1    2  502  501 -0.30119553881E+02  0.11697646865E+02 -0.54128244927E+02  0.63038792557E+02  0.00000000000E+00 0.  1.
<scales pt_clust_5="13000.00000" pt_clust_6="13000.00000" pt_clust_7="13000.00000" pt_clust_8="13000.00000" pt_clust_9="32.31134"></scales>
<clustering>
<clus scale="   32.311">  2  9  1 -1</clus>
<clus scale="   85.197">  5  6 -1 -1</clus>
<clus scale="   90.879">  7  8 -1 -1</clus>
<clus scale="  221.240">  2  5  1 -1</clus>
<clus scale="  223.489">  1  5  2 -1</clus>
</clustering>
</event>
<event>
 9    1  0.3846604E-005  0.9181821E+02  0.7546771E-02  0.1308366E+00
         -2   -1    0    0    0  501 -0.00000000000E+00  0.00000000000E+00  0.24692777723E+03  0.24692777723E+03  0.00000000000E+00 0.  1.
          1   -1    0    0  502    0  0.00000000000E+00 -0.00000000000E+00 -0.11306162905E+03  0.11306162905E+03  0.00000000000E+00 0. -1.
        -24    2    1    2    0    0  0.14145112112E+02  0.13279640373E+02  0.10271809903E+03  0.12906652482E+03  0.75701564809E+02 0.  0.
         23    2    1    2    0    0  0.16837764993E+02  0.15210477834E+01 -0.75125148655E+02  0.11924033307E+03  0.91041996644E+02 0.  0.
         11    1    3    3    0    0  0.24332929902E+02  0.22186107419E+02  0.86717782088E+01  0.34051645736E+02  0.00000000000E+00 0. -1.
        -12    1    3    3    0    0 -0.10187817790E+02 -0.89064670458E+01  0.94046320822E+02  0.95014879080E+02  0.00000000000E+00 0.  1.
        -11    1    4    4    0    0  0.11262815294E+02  0.41566811608E+02 -0.64290849989E+02  0.77381937349E+02  0.00000000000E+00 0. -1.
         11    1    4    4    0    0  0.55749496998E+01 -0.40045763824E+02 -0.10834298665E+02  0.41858395717E+02  0.00000000000E+00 0.  1.
         21    1    1    2  502  501 -0.30982877106E+02 -0.14800688156E+02  0.10627319781E+03  0.11168254840E+03  0.00000000000E+00 0.  1.
<scales pt_clust_5="13000.00000" pt_clust_6="13000.00000" pt_clust_7="13000.00000" pt_clust_8="13000.00000" pt_clust_9="34.33656"></scales>
<clustering>
<clus scale="   34.337">  1  9  2 -1</clus>
<clus scale="   75.702">  5  6 -1 -1</clus>
<clus scale="   76.633">  1  5  2 -1</clus>
<clus scale="   91.042">  7  8 -1 -1</clus>
<clus scale="   91.818">  2  5  1 -1</clus>
</clustering>
</event>
<event>
 9    1  0.3846604E-005  0.2561640E+03  0.7546771E-02  0.1135985E+00
         -2   -1    0    0    0  501 -0.00000000000E+00  0.00000000000E+00  0.67480997620E+03  0.67480997620E+03  0.00000000000E+00 0.  1.
          1   -1    0    0  502    0  0.00000000000E+00 -0.00000000000E+00 -0.41512585767E+03  0.41512585767E+03  0.00000000000E+00 0. -1.
        -24    2    1    2    0    0  0.15502058249E+02 -0.10338421104E+03  0.21075240269E+03  0.24889437827E+03  0.81260244853E+02 0.  0.
         23    2    1    2    0    0 -0.23698130383E+03 -0.95324281785E+01 -0.31108732055E+03  0.40352924983E+03  0.99043065934E+02 0.  0.
         11    1    3    3    0    0  0.18163187927E+02 -0.39952291607E+02  0.16474165510E+03  0.17048724271E+03  0.00000000000E+00 0. -1.
        -12    1    3    3    0    0 -0.26611296774E+01 -0.63431919431E+02  0.46010747591E+02  0.78407135566E+02  0.00000000000E+00 0.  1.
        -13    1    4    4    0    0 -0.30135196289E+02  0.32840902752E+02 -0.39765642210E+02  0.59732413724E+02  0.00000000000E+00 0.  1.
         13    1    4    4    0    0 -0.20684610754E+03 -0.42373330931E+02 -0.27132167834E+03  0.34379683611E+03  0.00000000000E+00 0. -1.
         21    1    1    2  502  501  0.22147924558E+03  0.11291663922E+03  0.36001903639E+03  0.43751220577E+03  0.00000000000E+00 0.  1.
<scales pt_clust_5="13000.00000" pt_clust_6="13000.00000" pt_clust_7="13000.00000" pt_clust_8="13000.00000" pt_clust_9="236.24239"></scales>
<clustering>
<clus scale="   81.260">  5  6 -1 -1</clus>
<clus scale="   99.043">  7  8 -1 -1</clus>
<clus scale="  132.408">  1  5  2 -1</clus>
<clus scale="  236.242">  1  9  2 -1</clus>
<clus scale="  256.164">  2  5  1 -1</clus>
</clustering>
</event>
<event>
 9    1  0.3846604E-005  0.4385073E+03  0.7546771E-02  0.1031375E+00
          1   -1    0    0  502    0  0.00000000000E+00  0.00000000000E+00  0.34833284675E+04  0.34833284675E+04  0.00000000000E+00 0. -1.
         -2   -1    0    0    0  501 -0.00000000000E+00 -0.00000000000E+00 -0.19307274258E+03  0.19307274258E+03  0.00000000000E+00 0.  1.
         23    2    1    2    0    0  0.29342293567E+03 -0.25776605094E+03  0.19927242327E+03  0.44793450793E+03  0.91626789314E+02 0.  0.
        -24    2    1    2    0    0 -0.33554608794E+03  0.27463048571E+03  0.31346337411E+04  0.31655053649E+04  0.80513623426E+02 0.  0.
         11    1    4    4    0    0 -0.15141871399E+03  0.92831830026E+02  0.10566086512E+04  0.10714323205E+04  0.00000000000E+00 0. -1.
        -12    1    4    4    0    0 -0.18412737394E+03  0.18179865568E+03  0.20780250899E+04  0.20940730444E+04  0.00000000000E+00 0.  1.
        -13    1    3    3    0    0  0.11076881631E+03 -0.64890641198E+02  0.10571916246E+03  0.16630414093E+03  0.00000000000E+00 0. -1.
         13    1    3    3    0    0  0.18265411937E+03 -0.19287540974E+03  0.93553260813E+02  0.28163036699E+03  0.00000000000E+00 0.  1.
         21    1    1    2  502  501  0.42123152263E+02 -0.16864434773E+02 -0.43650439486E+02  0.62961337216E+02  0.00000000000E+00 0. -1.
<scales pt_clust_5="13000.00000" pt_clust_6="13000.00000" pt_clust_7="13000.00000" pt_clust_8="13000.00000" pt_clust_9="45.37366"></scales>
<clustering>
<clus scale="   45.374">  2  9  1 -1</clus>
<clus scale="   80.514">  5  6 -1 -1</clus>
<clus scale="   91.627">  7  8 -1 -1</clus>
<clus scale="  436.321">  1  5  2 -1</clus>
<clus scale="  436.321">  1  5  2 -1</clus>
</clustering>
</event>
<event>
 9    1  0.3846604E-005  0.1665854E+03  0.7546771E-02  0.1204295E+00
          1   -1    0    0  502    0  0.00000000000E+00  0.00000000000E+00  0.30321519444E+03  0.30321519444E+03  0.00000000000E+00 0. -1.
         -2   -1    0    0    0  501 -0.00000000000E+00 -0.00000000000E+00 -0.41033956414E+03  0.41033956414E+03  0.00000000000E+00 0.  1.
         23    2    1    2    0    0  0.14819542076E+03 -0.40344703050E+02 -0.22466024087E+03  0.28692610243E+03  0.90910871901E+02 0.  0.
        -24    2    1    2    0    0 -0.45557761399E+02 -0.42626065419E+02  0.23134262322E+03  0.25235698790E+03  0.79196899857E+02 0.  0.
         13    1    4    4    0    0 -0.25952888826E+02 -0.26695894984E+02  0.22249901681E+03  0.22559263226E+03  0.00000000000E+00 0. -1.
        -14    1    4    4    0    0 -0.19604872573E+02 -0.15930170434E+02  0.88436064116E+01  0.26764355644E+02  0.00000000000E+00 0.  1.
        -11    1    3    3    0    0  0.15538535530E+03 -0.20463504496E+02 -0.20507702543E+03  0.25810840749E+03  0.00000000000E+00 0.  1.
         11    1    3    3    0    0 -0.71899345414E+01 -0.19881198554E+02 -0.19583215443E+02  0.28817694941E+02  0.00000000000E+00 0. -1.
         21    1    1    2  502  501 -0.10263765936E+03  0.82970768469E+02 -0.11380675205E+03  0.17427166824E+03  0.00000000000E+00 0. -1.
<scales pt_clust_5="13000.00000" pt_clust_6="13000.00000" pt_clust_7="13000.00000" pt_clust_8="13000.00000" pt_clust_9="139.59197"></scales>
<clustering>
<clus scale="   79.197">  5  6 -1 -1</clus>
<clus scale="   90.911">  7  8 -1 -1</clus>
<clus scale="  100.820">  1  5  2 -1</clus>
<clus scale="  139.592">  1  9  2 -1</clus>
<clus scale="  100.820">  1  5  2 -1</clus>
</clustering>
</event>
<event>
 9    1  0.3846604E-005  0.1258863E+03  0.7546771E-02  0.1236948E+00
         -2   -1    0    0    0  501 -0.00000000000E+00  0.00000000000E+00  0.25891474468E+03  0.25891474468E+03  0.00000000000E+00 0.  1.
          1   -1    0    0  502    0  0.00000000000E+00 -0.00000000000E+00 -0.10881293464E+03  0.10881293464E+03  0.00000000000E+00 0. -1.
        -24    2    1    2    0    0  0.74638259536E+01  0.72463269135E+02  0.14992894599E+03  0.18366322639E+03  0.77115872630E+02 0.  0.
         23    2    1    2    0    0  0.28698103686E+02 -0.91188893630E+02 -0.29201248104E+02  0.13385317299E+03  0.89022264364E+02 0.  0.
         13    1    3    3    0    0  0.28213513880E+02 -0.16860351366E+01  0.30665407468E+02  0.41703864271E+02  0.00000000000E+00 0. -1.
        -14    1    3    3    0    0 -0.20749687927E+02  0.74149304271E+02  0.11926353852E+03  0.14195936212E+03  0.00000000000E+00 0.  1.
        -13    1    4    4    0    0  0.34648435338E+02  0.99059916567E+00 -0.22317267071E+02  0.41225668795E+02  0.00000000000E+00 0.  1.
         13    1    4    4    0    0 -0.59503316519E+01 -0.92179492795E+02 -0.68839810335E+01  0.92627504196E+02  0.00000000000E+00 0. -1.
         21    1    1    2  502  501 -0.36161929640E+02  0.18725624495E+02  0.29374112156E+02  0.50211279937E+02  0.00000000000E+00 0.  1.
<scales pt_clust_5="13000.00000" pt_clust_6="13000.00000" pt_clust_7="13000.00000" pt_clust_8="13000.00000" pt_clust_9="40.72265"></scales>
<clustering>
<clus scale="   40.723">  1  9  2 -1</clus>
<clus scale="   77.116">  5  6 -1 -1</clus>
<clus scale="   89.022">  7  8 -1 -1</clus>
<clus scale="  117.768">  1  5  2 -1</clus>
<clus scale="  125.886">  2  5  1 -1</clus>
</clustering>
</event>
<event>
 9    1  0.3846604E-005  0.1151133E+03  0.7546771E-02  0.1255184E+00
          1   -1    0    0  502    0  0.00000000000E+00  0.00000000000E+00  0.40948742425E+03  0.40948742425E+03  0.00000000000E+00 0. -1.
         -2   -1    0    0    0  501 -0.00000000000E+00 -0.00000000000E+00 -0.93201191084E+02  0.93201191084E+02  0.00000000000E+00 0.  1.
         23    2    1    2    0    0 -0.35854556064E+02 -0.10671019953E+03  0.27659149924E+01  0.14383401371E+03  0.89487190932E+02 0.  0.
        -24    2    1    2    0    0  0.20704492104E+02  0.64059463049E+02  0.28995599357E+03  0.30782630404E+03  0.78423621794E+02 0.  0.
         11    1    4    4    0    0  0.26283882072E+02  0.47825566041E+01  0.26145030119E+02  0.37380180636E+02  0.00000000000E+00 0. -1.
        -12    1    4    4    0    0 -0.55793899679E+01  0.59276906445E+02  0.26381096345E+03  0.27044612341E+03  0.00000000000E+00 0.  1.
        -13    1    3    3    0    0 -0.59532753348E+02 -0.10289751543E+03  0.84772123339E+01  0.11918015998E+03  0.00000000000E+00 0.  1.
         13    1    3    3    0    0  0.23678197284E+02 -0.38126840946E+01 -0.57112973415E+01  0.24653853734E+02  0.00000000000E+00 0. -1.
         21    1    1    2  502  501  0.15150063960E+02  0.42650736477E+02  0.23564324608E+02  0.51028297583E+02  0.00000000000E+00 0.  1.
<scales pt_clust_5="13000.00000" pt_clust_6="13000.00000" pt_clust_7="13000.00000" pt_clust_8="13000.00000" pt_clust_9="45.26157"></scales>
<clustering>
<clus scale="   45.262">  2  9  1 -1</clus>
<clus scale="   78.424">  5  6 -1 -1</clus>
<clus scale="   89.487">  7  8 -1 -1</clus>
<clus scale="  106.740">  1  5  2 -1</clus>
<clus scale="  106.740">  1  5  2 -1</clus>
</clustering>
</event>
<event>
 9    1  0.4390952E-005  0.1998754E+03  0.7546771E-02  0.1150730E+00
          1   -1    0    0  502    0  0.00000000000E+00  0.00000000000E+00  0.11175413550E+04  0.11175413550E+04  0.00000000000E+00 0. -1.
         -2   -1    0    0    0  501 -0.00000000000E+00 -0.00000000000E+00 -0.86779453569E+02  0.86779453569E+02  0.00000000000E+00 0.  1.
        -24    2    1    2    0    0 -0.51217047738E+02 -0.14952157320E+03  0.52797004597E+02  0.18695891510E+03  0.84771607335E+02 0.  0.
         23    2    1    2    0    0  0.59275197904E+02  0.16917662960E+03  0.97515222108E+03  0.99593373043E+03  0.93956692342E+02 0.  0.
         13    1    3    3    0    0  0.72385375264E+01 -0.10585104282E+03  0.36435163980E+02  0.11218003773E+03  0.00000000000E+00 0. -1.
        -14    1    3    3    0    0 -0.58455585265E+02 -0.43670530388E+02  0.16361840617E+02  0.74778877374E+02  0.00000000000E+00 0.  1.
        -13    1    4    4    0    0 -0.12014555696E+02  0.44603098744E+02  0.11572277699E+03  0.12460155328E+03  0.00000000000E+00 0.  1.
         13    1    4    4    0    0  0.71289753600E+02  0.12457353085E+03  0.85942944409E+03  0.87133217715E+03  0.00000000000E+00 0. -1.
         21    1    1    2  502  501 -0.80581501657E+01 -0.19655056393E+02  0.28126757434E+01  0.21428163028E+02  0.00000000000E+00 0. -1.
<scales pt_clust_5="13000.00000" pt_clust_6="13000.00000" pt_clust_7="13000.00000" pt_clust_8="13000.00000" pt_clust_9="21.24276"></scales>
<clustering>
<clus scale="   21.243">  2  9  1 -1</clus>
<clus scale="   84.772">  5  6 -1 -1</clus>
<clus scale="   93.957">  7  8 -1 -1</clus>
<clus scale="  195.726">  2  5  1 -1</clus>
<clus scale="  199.875">  1  5  2 -1</clus>
</clustering>
</event>
<event>
 9    1  0.3846604E-005  0.1040228E+03  0.7546771E-02  0.1275604E+00
         -4   -1    0    0    0  501 -0.00000000000E+00  0.00000000000E+00  0.53062867452E+02  0.53062867452E+02  0.00000000000E+00 0.  1.
          3   -1    0    0  502    0  0.00000000000E+00 -0.00000000000E+00 -0.25684031322E+03  0.25684031322E+03  0.00000000000E+00 0. -1.
         23    2    1    2    0    0 -0.16906684152E+02 -0.47138619000E+02 -0.55454919633E+02  0.11717826460E+03  0.90264124733E+02 0.  0.
        -24    2    1    2    0    0  0.39070830995E+02  0.41707565271E+02 -0.12320700611E+03  0.15879063995E+03  0.82270591004E+02 0.  0.
         13    1    4    4    0    0  0.59458375736E+02  0.28415563601E+02 -0.11599356471E+03  0.13340633326E+03  0.00000000000E+00 0. -1.
        -14    1    4    4    0    0 -0.20387544741E+02  0.13292001670E+02 -0.72134413992E+01  0.25384306683E+02  0.00000000000E+00 0.  1.
        -13    1    3    3    0    0 -0.43411870259E+02  0.41562706533E+01 -0.35018974377E+02  0.55930256852E+02  0.00000000000E+00 0.  1.
         13    1    3    3    0    0  0.26505186107E+02 -0.51294889653E+02 -0.20435945257E+02  0.61248007752E+02  0.00000000000E+00 0. -1.
         21    1    1    2  502  501 -0.22164146843E+02  0.54310537288E+01 -0.25115520021E+02  0.33934276121E+02  0.00000000000E+00 0. -1.
<scales pt_clust_5="13000.00000" pt_clust_6="13000.00000" pt_clust_7="13000.00000" pt_clust_8="13000.00000" pt_clust_9="22.81985"></scales>
<clustering>
<clus scale="   22.820">  2  9  1 -1</clus>
<clus scale="   82.271">  5  6 -1 -1</clus>
<clus scale="   90.264">  7  8 -1 -1</clus>
<clus scale="   97.168">  2  5  1 -1</clus>
<clus scale="   22.820">  2  5  1 -1</clus>
</clustering>
</event>
<event>
 9    1  0.3846604E-005  0.1359611E+03  0.7546771E-02  0.1221174E+00
          1   -1    0    0  502    0  0.00000000000E+00  0.00000000000E+00  0.55425441723E+03  0.55425441723E+03  0.00000000000E+00 0. -1.
         -2   -1    0    0    0  501 -0.00000000000E+00 -0.00000000000E+00 -0.45668928489E+02  0.45668928489E+02  0.00000000000E+00 0.  1.
        -24    2    1    2    0    0  0.48873071678E+01 -0.92452229804E+02  0.14579802824E+03  0.19087427313E+03  0.81268828807E+02 0.  0.
         23    2    1    2    0    0 -0.39014308541E+02  0.11203356148E+03  0.28594515928E+03  0.32271935564E+03  0.91156531401E+02 0.  0.
         11    1    3    3    0    0  0.27832839560E+02 -0.71713233543E+01  0.65435786942E+02  0.71469833142E+02  0.00000000000E+00 0. -1.
        -12    1    3    3    0    0 -0.22945532392E+02 -0.85280906450E+02  0.80362241302E+02  0.11940443999E+03  0.00000000000E+00 0.  1.
        -11    1    4    4    0    0 -0.42251044086E+02  0.88576792514E+02  0.28216030571E+03  0.29873974797E+03  0.00000000000E+00 0. -1.
         11    1    4    4    0    0  0.32367355441E+01  0.23456768968E+02  0.37848535728E+01  0.23979607669E+02  0.00000000000E+00 0.  1.
         21    1    1    2  502  501  0.34127001374E+02 -0.19581331677E+02  0.76842301217E+02  0.86329716954E+02  0.00000000000E+00 0.  1.
<scales pt_clust_5="13000.00000" pt_clust_6="13000.00000" pt_clust_7="13000.00000" pt_clust_8="13000.00000" pt_clust_9="39.34566"></scales>
<clustering>
<clus scale="   39.346">  1  9  2 -1</clus>
<clus scale="   81.269">  5  6 -1 -1</clus>
<clus scale="   91.157">  7  8 -1 -1</clus>
<clus scale="  129.540">  2  5  1 -1</clus>
<clus scale="   39.346">  1  5  2 -1</clus>
</clustering>
</event>
<event>
 9    1  0.3846604E-005  0.1213929E+03  0.7546771E-02  0.1248367E+00
          1   -1    0    0  502    0  0.00000000000E+00  0.00000000000E+00  0.48361067180E+02  0.48361067180E+02  0.00000000000E+00 0. -1.
         -2   -1    0    0    0  501 -0.00000000000E+00 -0.00000000000E+00 -0.43620878588E+03  0.43620878588E+03  0.00000000000E+00 0.  1.
        -24    2    1    2    0    0  0.29286906318E+02  0.28113746152E+02 -0.25640659485E+03  0.27202246546E+03  0.81263609493E+02 0.  0.
         23    2    1    2    0    0 -0.56243306492E+02 -0.51534546754E+02 -0.82540496473E+02  0.15199614675E+03  0.10232680994E+03 0.  0.
         11    1    3    3    0    0  0.15014157779E+02 -0.28219162882E+02 -0.10844789703E+03  0.11306056986E+03  0.00000000000E+00 0. -1.
        -12    1    3    3    0    0  0.14272748539E+02  0.56332909034E+02 -0.14795869782E+03  0.15896189560E+03  0.00000000000E+00 0.  1.
        -11    1    4    4    0    0 -0.28723371182E+02 -0.64264131608E+01 -0.93506882226E+02  0.98029933498E+02  0.00000000000E+00 0.  1.
         11    1    4    4    0    0 -0.27519935311E+02 -0.45108133593E+02  0.10966385752E+02  0.53966213247E+02  0.00000000000E+00 0. -1.
         21    1    1    2  502  501  0.26956400174E+02  0.23420800602E+02 -0.48900627375E+02  0.60551240853E+02  0.00000000000E+00 0.  1.
<scales pt_clust_5="13000.00000" pt_clust_6="13000.00000" pt_clust_7="13000.00000" pt_clust_8="13000.00000" pt_clust_9="35.70968"></scales>
<clustering>
<clus scale="   35.710">  2  9  1 -1</clus>
<clus scale="   81.264">  5  6 -1 -1</clus>
<clus scale="  102.327">  7  8 -1 -1</clus>
<clus scale="  104.256">  2  5  1 -1</clus>
<clus scale="  121.393">  1  5  2 -1</clus>
</clustering>
</event>
<event>
 9    1  0.3846604E-005  0.1104983E+03  0.7546771E-02  0.1264612E+00
          1   -1    0    0  502    0  0.00000000000E+00  0.00000000000E+00  0.41058562577E+03  0.41058562577E+03  0.00000000000E+00 0. -1.
         -2   -1    0    0    0  501 -0.00000000000E+00 -0.00000000000E+00 -0.72025022138E+02  0.72025022138E+02  0.00000000000E+00 0.  1.
        -24    2    1    2    0    0 -0.44140493757E+02  0.61738206949E+02  0.26783440327E+02  0.11323749899E+03  0.79657950731E+02 0.  0.
         23    2    1    2    0    0  0.44067511977E+02 -0.37937498142E+02  0.32454498553E+03  0.34236395882E+03  0.92208639981E+02 0.  0.
         13    1    3    3    0    0  0.21497888058E+02  0.27260466203E+02  0.16314422242E+02  0.38359517484E+02  0.00000000000E+00 0. -1.
        -14    1    3    3    0    0 -0.65638381815E+02  0.34477740745E+02  0.10469018085E+02  0.74877981502E+02  0.00000000000E+00 0.  1.
        -11    1    4    4    0    0 -0.18550553709E+02 -0.12023852998E+02  0.18263874226E+02  0.28675166705E+02  0.00000000000E+00 0.  1.
         11    1    4    4    0    0  0.62618065687E+02 -0.25913645144E+02  0.30628111130E+03  0.31368879211E+03  0.00000000000E+00 0. -1.
         21    1    1    2  502  501  0.72981779616E-01 -0.23800708807E+02 -0.12767822222E+02  0.27009190108E+02  0.00000000000E+00 0. -1.
<scales pt_clust_5="13000.00000" pt_clust_6="13000.00000" pt_clust_7="13000.00000" pt_clust_8="13000.00000" pt_clust_9="23.80082"></scales>
<clustering>
<clus scale="   23.801">  2  9  1 -1</clus>
<clus scale="   79.658">  5  6 -1 -1</clus>
<clus scale="   92.209">  7  8 -1 -1</clus>
<clus scale="  100.264">  2  5  1 -1</clus>
<clus scale="  110.498">  1  5  2 -1</clus>
</clustering>
</event>
<event>
 9    1  0.3846604E-005  0.9248521E+02  0.7546771E-02  0.1302592E+00
         -2   -1    0    0    0  501 -0.00000000000E+00  0.00000000000E+00  0.13842276665E+03  0.13842276665E+03  0.00000000000E+00 0.  1.
          1   -1    0    0  502    0  0.00000000000E+00 -0.00000000000E+00 -0.18178689536E+03  0.18178689536E+03  0.00000000000E+00 0. -1.
         23    2    1    2    0    0 -0.26611315811E+02  0.35388834151E+01  0.95619963961E+02  0.13404786401E+03  0.90027587510E+02 0.  0.
        -24    2    1    2    0    0  0.15851467762E+02  0.14491967909E+02 -0.14226100014E+03  0.16491034977E+03  0.80597426355E+02 0.  0.
         11    1    4    4    0    0 -0.22973373141E+02  0.32066703869E+02 -0.83212157987E+02  0.92088612799E+02  0.00000000000E+00 0. -1.
        -12    1    4    4    0    0  0.38824840903E+02 -0.17574735961E+02 -0.59048842153E+02  0.72821736966E+02  0.00000000000E+00 0.  1.
        -13    1    3    3    0    0 -0.14804936157E+02 -0.43096118243E+02  0.51602304250E+02  0.68842278769E+02  0.00000000000E+00 0.  1.
         13    1    3    3    0    0 -0.11806379654E+02  0.46635001658E+02  0.44017659712E+02  0.65205585242E+02  0.00000000000E+00 0. -1.
         21    1    1    2  502  501  0.10759848048E+02 -0.18030851324E+02  0.32769074664E+01  0.21251448234E+02  0.00000000000E+00 0.  1.
<scales pt_clust_5="13000.00000" pt_clust_6="13000.00000" pt_clust_7="13000.00000" pt_clust_8="13000.00000" pt_clust_9="20.99728"></scales>
<clustering>
<clus scale="   20.997">  1  9  2 -1</clus>
<clus scale="   80.597">  5  6 -1 -1</clus>
<clus scale="   83.334">  2  5  1 -1</clus>
<clus scale="   90.028">  7  8 -1 -1</clus>
<clus scale="   83.334">  2  5  1 -1</clus>
</clustering>
</event>
<event>
 9    1  0.3846604E-005  0.1104466E+03  0.7546771E-02  0.1263417E+00
          1   -1    0    0  502    0  0.00000000000E+00  0.00000000000E+00  0.71175946281E+02  0.71175946281E+02  0.00000000000E+00 0. -1.
         -2   -1    0    0    0  501 -0.00000000000E+00 -0.00000000000E+00 -0.50050547860E+03  0.50050547860E+03  0.00000000000E+00 0.  1.
        -24    2    1    2    0    0  0.17462541810E+02  0.40567556537E+02 -0.27555374595E+03  0.29033226233E+03  0.80076767110E+02 0.  0.
         23    2    1    2    0    0 -0.36141144967E+02 -0.57745080843E+02  0.12329905562E+02  0.11331625373E+03  0.89709921784E+02 0.  0.
         13    1    3    3    0    0  0.46088842783E+02  0.42055971455E+02 -0.20084180056E+03  0.21031004498E+03  0.00000000000E+00 0. -1.
        -14    1    3    3    0    0 -0.28626300973E+02 -0.14884149181E+01 -0.74711945387E+02  0.80022217352E+02  0.00000000000E+00 0.  1.
        -11    1    4    4    0    0  0.27033930377E+02 -0.89110686928E+01 -0.10383865976E+02  0.30299590913E+02  0.00000000000E+00 0. -1.
         11    1    4    4    0    0 -0.63175075343E+02 -0.48834012150E+02  0.22713771538E+02  0.83016662814E+02  0.00000000000E+00 0.  1.
         21    1    1    2  502  501  0.18678603156E+02  0.17177524305E+02 -0.16610569193E+03  0.16803290883E+03  0.00000000000E+00 0. -1.
<scales pt_clust_5="13000.00000" pt_clust_6="13000.00000" pt_clust_7="13000.00000" pt_clust_8="13000.00000" pt_clust_9="25.37632"></scales>
<clustering>
<clus scale="   25.376">  2  9  1 -1</clus>
<clus scale="   80.077">  5  6 -1 -1</clus>
<clus scale="   89.710">  7  8 -1 -1</clus>
<clus scale="  102.776">  2  5  1 -1</clus>
<clus scale="  110.447">  1  5  2 -1</clus>
</clustering>
</event>
<event>
 9    1  0.3846604E-005  0.2167852E+03  0.7546771E-02  0.1137360E+00
          1   -1    0    0  502    0  0.00000000000E+00  0.00000000000E+00  0.67869882585E+02  0.67869882585E+02  0.00000000000E+00 0. -1.
         -2   -1    0    0    0  501 -0.00000000000E+00 -0.00000000000E+00 -0.97434104668E+03  0.97434104668E+03  0.00000000000E+00 0.  1.
         23    2    1    2    0    0  0.13248032050E+03 -0.11876647441E+03 -0.45746579110E+03  0.49983522118E+03  0.94359883124E+02 0.  0.
        -24    2    1    2    0    0 -0.10440500178E+03  0.18298173904E+03 -0.28152903229E+03  0.36082640782E+03  0.80959121370E+02 0.  0.
         11    1    4    4    0    0 -0.35202344509E+02  0.40781487159E+02 -0.24823123303E+02  0.59317132469E+02  0.00000000000E+00 0. -1.
        -12    1    4    4    0    0 -0.69202657271E+02  0.14220025188E+03 -0.25670590899E+03  0.30150927535E+03  0.00000000000E+00 0.  1.
        -11    1    3    3    0    0  0.10653386430E+03 -0.84575114067E+02 -0.42436597867E+03  0.44563314286E+03  0.00000000000E+00 0.  1.
         11    1    3    3    0    0  0.25946456199E+02 -0.34191360343E+02 -0.33099812427E+02  0.54202078319E+02  0.00000000000E+00 0. -1.
         21    1    1    2  502  501 -0.28075318722E+02 -0.64215264633E+02 -0.16747634071E+03  0.18154930027E+03  0.00000000000E+00 0. -1.
<scales pt_clust_5="13000.00000" pt_clust_6="13000.00000" pt_clust_7="13000.00000" pt_clust_8="13000.00000" pt_clust_9="70.08440"></scales>
<clustering>
<clus scale="   70.084">  2  9  1 -1</clus>
<clus scale="   80.959">  5  6 -1 -1</clus>
<clus scale="   94.360">  7  8 -1 -1</clus>
<clus scale="  211.297">  1  5  2 -1</clus>
<clus scale="  211.297">  1  5  2 -1</clus>
</clustering>
</event>
<event>
 9    1  0.3846604E-005  0.1754903E+03  0.7546771E-02  0.1173450E+00
          3   -1    0    0  502    0  0.00000000000E+00  0.00000000000E+00  0.60712946601E+03  0.60712946601E+03  0.00000000000E+00 0. -1.
         -4   -1    0    0    0  501 -0.00000000000E+00 -0.00000000000E+00 -0.67075741918E+02  0.67075741918E+02  0.00000000000E+00 0.  1.
         23    2    1    2    0    0  0.15094521152E+03 -0.49203198628E+02  0.20246130583E+03  0.27278887286E+03  0.90651956199E+02 0.  0.
        -24    2    1    2    0    0 -0.14734942690E+03  0.31192936251E+01  0.28878191358E+03  0.33419192481E+03  0.81041133978E+02 0.  0.
         11    1    4    4    0    0 -0.87057146468E+02 -0.31794747847E+02  0.20670068293E+03  0.22652819927E+03  0.00000000000E+00 0. -1.
        -12    1    4    4    0    0 -0.60292280432E+02  0.34914041473E+02  0.82081230654E+02  0.10766372554E+03  0.00000000000E+00 0.  1.
        -11    1    3    3    0    0  0.63067347417E+01  0.21033233869E+02  0.26871089099E+02  0.34701977745E+02  0.00000000000E+00 0. -1.
         11    1    3    3    0    0  0.14463847677E+03 -0.70236432497E+02  0.17559021673E+03  0.23808689512E+03  0.00000000000E+00 0.  1.
         21    1    1    2  502  501 -0.35957846163E+01  0.46083905003E+02  0.48810504675E+02  0.67224410254E+02  0.00000000000E+00 0.  1.
<scales pt_clust_5="13000.00000" pt_clust_6="13000.00000" pt_clust_7="13000.00000" pt_clust_8="13000.00000" pt_clust_9="46.22398"></scales>
<clustering>
<clus scale="   46.224">  2  9  1 -1</clus>
<clus scale="   81.041">  5  6 -1 -1</clus>
<clus scale="   90.652">  7  8 -1 -1</clus>
<clus scale="  170.724">  1  5  2 -1</clus>
<clus scale="  170.724">  1  5  2 -1</clus>
</clustering>
</event>
<event>
 9    1  0.3846604E-005  0.1893835E+03  0.7546771E-02  0.1169572E+00
         -4   -1    0    0    0  501 -0.00000000000E+00  0.00000000000E+00  0.14236843435E+04  0.14236843435E+04  0.00000000000E+00 0.  1.
          3   -1    0    0  502    0  0.00000000000E+00 -0.00000000000E+00 -0.76192419106E+02  0.76192419106E+02  0.00000000000E+00 0. -1.
         23    2    1    2    0    0  0.52366440761E+02 -0.13051318105E+03  0.12859585918E+03  0.21163088396E+03  0.92058685098E+02 0.  0.
        -24    2    1    2    0    0 -0.12090995107E+03 -0.32013943120E+02  0.17456087964E+03  0.22911922959E+03  0.79874976350E+02 0.  0.
         13    1    4    4    0    0 -0.10088202155E+03 -0.50084753212E+02  0.16640374468E+03  0.20093748038E+03  0.00000000000E+00 0. -1.
        -14    1    4    4    0    0 -0.20027929516E+02  0.18070810092E+02  0.81571349597E+01  0.28181749215E+02  0.00000000000E+00 0.  1.
        -13    1    3    3    0    0  0.48880185468E+02 -0.42397980398E+02  0.99655101881E+02  0.11881919291E+03  0.00000000000E+00 0. -1.
         13    1    3    3    0    0  0.34862552929E+01 -0.88115200657E+02  0.28940757297E+02  0.92811691051E+02  0.00000000000E+00 0.  1.
         21    1    1    2  502  501  0.68543510306E+02  0.16252712418E+03  0.10443351855E+04  0.10591266490E+04  0.00000000000E+00 0.  1.
<scales pt_clust_5="13000.00000" pt_clust_6="13000.00000" pt_clust_7="13000.00000" pt_clust_8="13000.00000" pt_clust_9="165.50320"></scales>
<clustering>
<clus scale="   79.875">  5  6 -1 -1</clus>
<clus scale="   92.059">  7  8 -1 -1</clus>
<clus scale="  148.405">  2  5  1 -1</clus>
<clus scale="  165.503">  1  9  2 -1</clus>
<clus scale="  148.405">  2  5  1 -1</clus>
</clustering>
</event>
<event>
 9    1  0.3846604E-005  0.2446935E+03  0.7546771E-02  0.1117382E+00
          1   -1    0    0  502    0  0.00000000000E+00  0.00000000000E+00  0.10477725481E+04  0.10477725481E+04  0.00000000000E+00 0. -1.
         -2   -1    0    0    0  501 -0.00000000000E+00 -0.00000000000E+00 -0.83291922262E+02  0.83291922262E+02  0.00000000000E+00 0.  1.
         23    2    1    2    0    0  0.16491285590E+03  0.16381175755E+03  0.22960227136E+03  0.33920355251E+03  0.91166359312E+02 0.  0.
        -24    2    1    2    0    0 -0.13545235607E+03 -0.18065861165E+03  0.71141394840E+03  0.75060178679E+03  0.79425195142E+02 0.  0.
         13    1    4    4    0    0 -0.11820380029E+03 -0.11848903161E+03  0.58780489073E+03  0.61116804447E+03  0.00000000000E+00 0. -1.
        -14    1    4    4    0    0 -0.17248555782E+02 -0.62169580042E+02  0.12360905767E+03  0.13943374232E+03  0.00000000000E+00 0.  1.
        -13    1    3    3    0    0  0.11797169058E+03  0.15854701732E+03  0.15612054420E+03  0.25184936133E+03  0.00000000000E+00 0.  1.
         13    1    3    3    0    0  0.46941165324E+02  0.52647402293E+01  0.73481727157E+02  0.87354191186E+02  0.00000000000E+00 0. -1.
         21    1    1    2  502  501 -0.29460499827E+02  0.16846854102E+02  0.23464406071E+02  0.41259131055E+02  0.00000000000E+00 0.  1.
<scales pt_clust_5="13000.00000" pt_clust_6="13000.00000" pt_clust_7="13000.00000" pt_clust_8="13000.00000" pt_clust_9="33.93726"></scales>
<clustering>
<clus scale="   33.937">  2  9  1 -1</clus>
<clus scale="   79.425">  5  6 -1 -1</clus>
<clus scale="   91.166">  7  8 -1 -1</clus>
<clus scale="  240.566">  1  5  2 -1</clus>
<clus scale="  240.566">  1  5  2 -1</clus>
</clustering>
</event>
<event>
 9    1  0.3846604E-005  0.1034565E+03  0.7546771E-02  0.1279076E+00
          1   -1    0    0  502    0  0.00000000000E+00  0.00000000000E+00  0.19854947485E+03  0.19854947485E+03  0.00000000000E+00 0. -1.
         -2   -1    0    0    0  501 -0.00000000000E+00 -0.00000000000E+00 -0.89506065170E+02  0.89506065170E+02  0.00000000000E+00 0.  1.
         23    2    1    2    0    0  0.38873046837E+02 -0.15805480132E+02 -0.19709511606E+02  0.10376606399E+03  0.92833206433E+02 0.  0.
        -24    2    1    2    0    0 -0.47278314731E+02 -0.55396683623E+01  0.13138144397E+03  0.16119893632E+03  0.80362219250E+02 0.  0.
         11    1    4    4    0    0 -0.12835622738E+02 -0.16073724445E+02  0.12234895615E+03  0.12406605055E+03  0.00000000000E+00 0. -1.
        -12    1    4    4    0    0 -0.34442691993E+02  0.10534056082E+02  0.90324878156E+01  0.37132885767E+02  0.00000000000E+00 0.  1.
        -13    1    3    3    0    0  0.48617897224E+02 -0.38476300424E+02  0.12441379361E+02  0.63236963440E+02  0.00000000000E+00 0. -1.
         13    1    3    3    0    0 -0.97448503866E+01  0.22670820292E+02 -0.32150890966E+02  0.40529100554E+02  0.00000000000E+00 0.  1.
         21    1    1    2  502  501  0.84052678939E+01  0.21345148494E+02 -0.26285226763E+01  0.23090539709E+02  0.00000000000E+00 0. -1.
<scales pt_clust_5="13000.00000" pt_clust_6="13000.00000" pt_clust_7="13000.00000" pt_clust_8="13000.00000" pt_clust_9="22.94044"></scales>
<clustering>
<clus scale="   22.940">  2  9  1 -1</clus>
<clus scale="   80.362">  5  6 -1 -1</clus>
<clus scale="   92.430">  1  5  2 -1</clus>
<clus scale="   92.833">  7  8 -1 -1</clus>
<clus scale="   92.430">  1  5  2 -1</clus>
</clustering>
</event>
<event>
 9    1  0.3846604E-005  0.1684721E+03  0.7546771E-02  0.1181467E+00
         -2   -1    0    0    0  501 -0.00000000000E+00  0.00000000000E+00  0.14943531710E+03  0.14943531710E+03  0.00000000000E+00 0.  1.
          1   -1    0    0  502    0  0.00000000000E+00 -0.00000000000E+00 -0.40954042172E+03  0.40954042172E+03  0.00000000000E+00 0. -1.
        -24    2    1    2    0    0 -0.13070111706E+03 -0.41582975504E+02 -0.24322674478E+02  0.15853769658E+03  0.75701274038E+02 0.  0.
         23    2    1    2    0    0  0.14628937190E+03 -0.15280555240E+02 -0.27845305623E+03  0.32765592116E+03  0.90488797345E+02 0.  0.
         13    1    3    3    0    0 -0.68600176519E+02 -0.36679579211E+02 -0.48550372328E+02  0.91697952009E+02  0.00000000000E+00 0. -1.
        -14    1    3    3    0    0 -0.62100940542E+02 -0.49033962932E+01  0.24227697850E+02  0.66839744573E+02  0.00000000000E+00 0.  1.
        -13    1    4    4    0    0  0.12089264331E+03  0.21002971032E+02 -0.23754881862E+03  0.26736790612E+03  0.00000000000E+00 0. -1.
         13    1    4    4    0    0  0.25396728594E+02 -0.36283526271E+02 -0.40904237613E+02  0.60288015033E+02  0.00000000000E+00 0.  1.
         21    1    1    2  502  501 -0.15588254844E+02  0.56863530744E+02  0.42670626093E+02  0.72782121080E+02  0.00000000000E+00 0.  1.
<scales pt_clust_5="13000.00000" pt_clust_6="13000.00000" pt_clust_7="13000.00000" pt_clust_8="13000.00000" pt_clust_9="58.96147"></scales>
<clustering>
<clus scale="   58.961">  1  9  2 -1</clus>
<clus scale="   75.701">  5  6 -1 -1</clus>
<clus scale="   90.489">  7  8 -1 -1</clus>
<clus scale="  161.013">  1  5  2 -1</clus>
<clus scale="  168.472">  2  5  1 -1</clus>
</clustering>
</event>
<event>
 9    1  0.3846604E-005  0.2224226E+03  0.7546771E-02  0.1152043E+00
         -2   -1    0    0    0  501 -0.00000000000E+00  0.00000000000E+00  0.18597751174E+03  0.18597751174E+03  0.00000000000E+00 0.  1.
          1   -1    0    0  502    0  0.00000000000E+00 -0.00000000000E+00 -0.45756565226E+03  0.45756565226E+03  0.00000000000E+00 0. -1.
         23    2    1    2    0    0 -0.15588595086E+03 -0.76170718933E+02 -0.15566800788E+03  0.25040079887E+03  0.91463781363E+02 0.  0.
        -24    2    1    2    0    0  0.19712955464E+02 -0.11081554836E+03 -0.79447318204E+02  0.15896889305E+03  0.79312963721E+02 0.  0.
         11    1    4    4    0    0 -0.23283413454E+02 -0.75997927764E+02 -0.62473833753E+02  0.10109788460E+03  0.00000000000E+00 0. -1.
        -12    1    4    4    0    0  0.42996368918E+02 -0.34817620598E+02 -0.16973484452E+02  0.57871008447E+02  0.00000000000E+00 0.  1.
        -13    1    3    3    0    0 -0.10351215970E+03 -0.25973026737E+02 -0.14024717694E+03  0.17623460490E+03  0.00000000000E+00 0.  1.
         13    1    3    3    0    0 -0.52373791158E+02 -0.50197692196E+02 -0.15420830940E+02  0.74166193977E+02  0.00000000000E+00 0. -1.
         21    1    1    2  502  501  0.13617299540E+03  0.18698626730E+03 -0.36472814446E+02  0.23417347208E+03  0.00000000000E+00 0. -1.
<scales pt_clust_5="13000.00000" pt_clust_6="13000.00000" pt_clust_7="13000.00000" pt_clust_8="13000.00000" pt_clust_9="202.74657"></scales>
<clustering>
<clus scale="   79.313">  5  6 -1 -1</clus>
<clus scale="   91.464">  7  8 -1 -1</clus>
<clus scale="  137.693">  2  5  1 -1</clus>
<clus scale="  202.747">  1  9  2 -1</clus>
<clus scale="  137.693">  2  5  1 -1</clus>
</clustering>
</event>
<event>
 9    1  0.9444168E-005  0.9403579E+02  0.7546771E-02  0.1293484E+00
          1   -1    0    0  502    0  0.00000000000E+00  0.00000000000E+00  0.75549464277E+02  0.75549464277E+02  0.00000000000E+00 0. -1.
         -2   -1    0    0    0  501 -0.00000000000E+00 -0.00000000000E+00 -0.78808891840E+03  0.78808891840E+03  0.00000000000E+00 0.  1.
        -24    2    1    2    0    0  0.24926823124E+02 -0.30016622863E+02 -0.69538965186E+03  0.70221589656E+03  0.89543583313E+02 0.  0.
         23    2    1    2    0    0 -0.27449973835E+02  0.50270200308E+01  0.37554863455E+02  0.10122741164E+03  0.89765522919E+02 0.  0.
         11    1    3    3    0    0 -0.31947887216E+02  0.13253619271E+01 -0.19009817408E+03  0.19276861744E+03  0.00000000000E+00 0. -1.
        -12    1    3    3    0    0  0.56874710341E+02 -0.31341984790E+02 -0.50529147778E+03  0.50944727912E+03  0.00000000000E+00 0.  1.
        -11    1    4    4    0    0 -0.62263152454E+01 -0.28061978671E+02 -0.17444545989E+02  0.33623709391E+02  0.00000000000E+00 0. -1.
         11    1    4    4    0    0 -0.21223658590E+02  0.33088998702E+02  0.54999409444E+02  0.67603702252E+02  0.00000000000E+00 0.  1.
         21    1    1    2  502  501  0.25231507112E+01  0.24989602832E+02 -0.54704665721E+02  0.60195074473E+02  0.00000000000E+00 0.  1.
<scales pt_clust_5="13000.00000" pt_clust_6="13000.00000" pt_clust_7="13000.00000" pt_clust_8="13000.00000" pt_clust_9="25.11666"></scales>
<clustering>
<clus scale="   25.117">  2  9  1 -1</clus>
<clus scale="   89.544">  5  6 -1 -1</clus>
<clus scale="   89.766">  7  8 -1 -1</clus>
<clus scale="   93.824">  2  5  1 -1</clus>
<clus scale="   94.036">  1  5  2 -1</clus>
</clustering>
</event>
<event>
 9    1  0.3846604E-005  0.1011772E+03  0.7546771E-02  0.1283682E+00
         -4   -1    0    0    0  501 -0.00000000000E+00  0.00000000000E+00  0.19100802377E+02  0.19100802377E+02  0.00000000000E+00 0.  1.
          3   -1    0    0  502    0  0.00000000000E+00 -0.00000000000E+00 -0.78997202610E+03  0.78997202610E+03  0.00000000000E+00 0. -1.
        -24    2    1    2    0    0  0.26819668857E+02 -0.45503837515E+02 -0.16040976802E+03  0.18631753444E+03  0.78695845484E+02 0.  0.
         23    2    1    2    0    0 -0.13027747796E+02  0.19983542427E+02 -0.44672460144E+03  0.45646861390E+03  0.90728505793E+02 0.  0.
         13    1    3    3    0    0 -0.16770896031E+02  0.11559558895E+02 -0.19662944262E+02  0.28311088509E+02  0.00000000000E+00 0. -1.
        -14    1    3    3    0    0  0.43590564887E+02 -0.57063396409E+02 -0.14074682376E+03  0.15800644593E+03  0.00000000000E+00 0.  1.
        -13    1    4    4    0    0 -0.49778093487E+02  0.25853463916E+02 -0.29121598823E+03  0.29656873064E+03  0.00000000000E+00 0. -1.
         13    1    4    4    0    0  0.36750345691E+02 -0.58699214883E+01 -0.15550861321E+03  0.15989988327E+03  0.00000000000E+00 0.  1.
         21    1    1    2  502  501 -0.13791921061E+02  0.25520295087E+02 -0.16373685426E+03  0.16628668013E+03  0.00000000000E+00 0. -1.
<scales pt_clust_5="13000.00000" pt_clust_6="13000.00000" pt_clust_7="13000.00000" pt_clust_8="13000.00000" pt_clust_9="29.00866"></scales>
<clustering>
<clus scale="   29.009">  2  9  1 -1</clus>
<clus scale="   78.696">  5  6 -1 -1</clus>
<clus scale="   90.544">  1  5  2 -1</clus>
<clus scale="   90.729">  7  8 -1 -1</clus>
<clus scale="   29.009">  2  5  1 -1</clus>
</clustering>
</event>
<event>
 9    1  0.3846604E-005  0.1087039E+03  0.7546771E-02  0.1266418E+00
         -4   -1    0    0    0  501 -0.00000000000E+00  0.00000000000E+00  0.33677083406E+03  0.33677083406E+03  0.00000000000E+00 0.  1.
          3   -1    0    0  502    0  0.00000000000E+00 -0.00000000000E+00 -0.11926127580E+03  0.11926127580E+03  0.00000000000E+00 0. -1.
         23    2    1    2    0    0 -0.66290272304E+02  0.19987624329E+02  0.14451968825E+03  0.18350176798E+03  0.89403877051E+02 0.  0.
        -24    2    1    2    0    0  0.59797042271E+02  0.16925228936E+02 -0.70725790863E+02  0.12400791276E+03  0.80707343498E+02 0.  0.
         11    1    4    4    0    0  0.62852915651E+02  0.98240069437E+01 -0.11953475156E+02  0.64729326325E+02  0.00000000000E+00 0. -1.
        -12    1    4    4    0    0 -0.30558733795E+01  0.71012219928E+01 -0.58772315707E+02  0.59278586433E+02  0.00000000000E+00 0.  1.
        -11    1    3    3    0    0 -0.60754900763E+02 -0.24643368890E+02  0.10414955670E+03  0.12306739518E+03  0.00000000000E+00 0.  1.
         11    1    3    3    0    0 -0.55353715416E+01  0.44630993219E+02  0.40370131552E+02  0.60434372797E+02  0.00000000000E+00 0. -1.
         21    1    1    2  502  501  0.64932300332E+01 -0.36912853265E+02  0.14371566088E+03  0.14852242913E+03  0.00000000000E+00 0.  1.
<scales pt_clust_5="13000.00000" pt_clust_6="13000.00000" pt_clust_7="13000.00000" pt_clust_8="13000.00000" pt_clust_9="37.47960"></scales>
<clustering>
<clus scale="   37.480">  1  9  2 -1</clus>
<clus scale="   80.707">  5  6 -1 -1</clus>
<clus scale="   89.404">  7  8 -1 -1</clus>
<clus scale="  101.672">  2  5  1 -1</clus>
<clus scale="  101.672">  2  5  1 -1</clus>
</clustering>
</event>
<event>
 9    1  0.3846604E-005  0.1102266E+03  0.7546771E-02  0.1263888E+00
         -2   -1    0    0    0  501 -0.00000000000E+00  0.00000000000E+00  0.59820621675E+03  0.59820621675E+03  0.00000000000E+00 0.  1.
          1   -1    0    0  502    0  0.00000000000E+00 -0.00000000000E+00 -0.47992520009E+02  0.47992520009E+02  0.00000000000E+00 0. -1.
        -24    2    1    2    0    0  0.63509719362E+02  0.44461389581E+02  0.39089827420E+03  0.40716854335E+03  0.83513246264E+02 0.  0.
         23    2    1    2    0    0 -0.34481178790E+02 -0.44559537725E+02  0.39270082585E+02  0.11552493261E+03  0.92894383980E+02 0.  0.
         13    1    3    3    0    0 -0.45284365283E+01  0.45649737870E+02  0.16187999599E+03  0.16825438600E+03  0.00000000000E+00 0. -1.
        -14    1    3    3    0    0  0.68038155890E+02 -0.11883482886E+01  0.22901827821E+03  0.23891415735E+03  0.00000000000E+00 0.  1.
        -13    1    4    4    0    0 -0.27441611674E+02 -0.11557316107E+02 -0.27614473257E+02  0.40610007881E+02  0.00000000000E+00 0. -1.
         13    1    4    4    0    0 -0.70395671170E+01 -0.33002221618E+02  0.66884555841E+02  0.74914924728E+02  0.00000000000E+00 0.  1.
         21    1    1    2  502  501 -0.29028540572E+02  0.98148143848E-01  0.12004533995E+03  0.12350526080E+03  0.00000000000E+00 0.  1.
<scales pt_clust_5="13000.00000" pt_clust_6="13000.00000" pt_clust_7="13000.00000" pt_clust_8="13000.00000" pt_clust_9="29.02871"></scales>
<clustering>
<clus scale="   29.029">  1  9  2 -1</clus>
<clus scale="   83.513">  5  6 -1 -1</clus>
<clus scale="   92.894">  7  8 -1 -1</clus>
<clus scale="  102.445">  1  5  2 -1</clus>
<clus scale="  110.227">  2  5  1 -1</clus>
</clustering>
</event>
<event>
 9    1  0.3846604E-005  0.1174522E+03  0.7546771E-02  0.1250554E+00
          1   -1    0    0  502    0  0.00000000000E+00  0.00000000000E+00  0.10421613562E+03  0.10421613562E+03  0.00000000000E+00 0. -1.
         -2   -1    0    0    0  501 -0.00000000000E+00 -0.00000000000E+00 -0.15096382945E+03  0.15096382945E+03  0.00000000000E+00 0.  1.
        -24    2    1    2    0    0  0.67101410336E+02  0.16711290307E+02 -0.22136153445E+02  0.10874730279E+03  0.80957396703E+02 0.  0.
         23    2    1    2    0    0 -0.82254233492E+02 -0.12900514219E+01 -0.24525237808E+02  0.12481253032E+03  0.90604951708E+02 0.  0.
         11    1    3    3    0    0  0.35978925743E+02  0.27262476090E+01 -0.52075243790E+02  0.63354135930E+02  0.00000000000E+00 0. -1.
        -12    1    3    3    0    0  0.31122484593E+02  0.13985042698E+02  0.29939090344E+02  0.45393166855E+02  0.00000000000E+00 0.  1.
        -11    1    4    4    0    0 -0.80288470300E+02  0.19564526853E+02  0.11205800622E+02  0.83394119347E+02  0.00000000000E+00 0. -1.
         11    1    4    4    0    0 -0.19657631928E+01 -0.20854578274E+02 -0.35731038430E+02  0.41418410969E+02  0.00000000000E+00 0.  1.
         21    1    1    2  502  501  0.15152823156E+02 -0.15421238885E+02 -0.86302574270E-01  0.21620131972E+02  0.00000000000E+00 0. -1.
<scales pt_clust_5="13000.00000" pt_clust_6="13000.00000" pt_clust_7="13000.00000" pt_clust_8="13000.00000" pt_clust_9="21.61996"></scales>
<clustering>
<clus scale="   21.620">  1  9  2 -1</clus>
<clus scale="   80.957">  5  6 -1 -1</clus>
<clus scale="   90.605">  7  8 -1 -1</clus>
<clus scale="  110.181">  2  5  1 -1</clus>
<clus scale="   21.620">  1  5  2 -1</clus>
</clustering>
</event>
<event>
 9    1  0.3846604E-005  0.1155431E+03  0.7546771E-02  0.1251305E+00
         -2   -1    0    0    0  501 -0.00000000000E+00  0.00000000000E+00  0.88720083292E+03  0.88720083292E+03  0.00000000000E+00 0.  1.
          1   -1    0    0  502    0  0.00000000000E+00 -0.00000000000E+00 -0.25207797112E+02  0.25207797112E+02  0.00000000000E+00 0. -1.
        -24    2    1    2    0    0  0.33929977158E+02 -0.80625479948E+02  0.49281863847E+03  0.50877068261E+03  0.91245195433E+02 0.  0.
         23    2    1    2    0    0 -0.19234722621E+02  0.58056826243E+02  0.17406886314E+03  0.20668245978E+03  0.93150955126E+02 0.  0.
         11    1    3    3    0    0  0.48698901960E+02 -0.15015927566E+02  0.12738837568E+03  0.13720371493E+03  0.00000000000E+00 0. -1.
        -12    1    3    3    0    0 -0.14768924802E+02 -0.65609552383E+02  0.36543026280E+03  0.37156696768E+03  0.00000000000E+00 0.  1.
        -11    1    4    4    0    0 -0.49210149664E+02  0.12021554922E+02  0.50869315400E+02  0.71790276933E+02  0.00000000000E+00 0.  1.
         11    1    4    4    0    0  0.29975427043E+02  0.46035271320E+02  0.12319954774E+03  0.13489218285E+03  0.00000000000E+00 0. -1.
         21    1    1    2  502  501 -0.14695254537E+02  0.22568653706E+02  0.19510553419E+03  0.19695548763E+03  0.00000000000E+00 0.  1.
<scales pt_clust_5="13000.00000" pt_clust_6="13000.00000" pt_clust_7="13000.00000" pt_clust_8="13000.00000" pt_clust_9="26.93129"></scales>
<clustering>
<clus scale="   26.931">  1  9  2 -1</clus>
<clus scale="   91.245">  5  6 -1 -1</clus>
<clus scale="   93.151">  7  8 -1 -1</clus>
<clus scale="  114.012">  1  5  2 -1</clus>
<clus scale="  115.543">  2  5  1 -1</clus>
</clustering>
</event>
<event>
 9    1  0.3846604E-005  0.2367542E+03  0.7546771E-02  0.1123288E+00
          1   -1    0    0  502    0  0.00000000000E+00  0.00000000000E+00  0.13895503988E+04  0.13895503988E+04  0.00000000000E+00 0. -1.
         -2   -1    0    0    0  501 -0.00000000000E+00 -0.00000000000E+00 -0.56785353653E+02  0.56785353653E+02  0.00000000000E+00 0.  1.
         23    2    1    2    0    0  0.22239009135E+03  0.34481222070E+02  0.37951339243E+03  0.45241913789E+03  0.10003176441E+03 0.  0.
        -24    2    1    2    0    0 -0.20253867258E+03 -0.59864384646E+02  0.92103251339E+03  0.94834846002E+03  0.80363253161E+02 0.  0.
         13    1    4    4    0    0 -0.16214427025E+03 -0.10988403823E+02  0.67133126951E+03  0.69072221827E+03  0.00000000000E+00 0. -1.
        -14    1    4    4    0    0 -0.40394402332E+02 -0.48875980823E+02  0.24970124389E+03  0.25762624175E+03  0.00000000000E+00 0.  1.
        -13    1    3    3    0    0  0.16890585041E+03 -0.31001670131E+01  0.20245358983E+03  0.26367831419E+03  0.00000000000E+00 0. -1.
         13    1    3    3    0    0  0.53484240933E+02  0.37581389083E+02  0.17705980260E+03  0.18874082370E+03  0.00000000000E+00 0.  1.
         21    1    1    2  502  501 -0.19851418763E+02  0.25383162576E+02  0.32219139312E+02  0.45568154530E+02  0.00000000000E+00 0. -1.
<scales pt_clust_5="13000.00000" pt_clust_6="13000.00000" pt_clust_7="13000.00000" pt_clust_8="13000.00000" pt_clust_9="32.22396"></scales>
<clustering>
<clus scale="   32.224">  2  9  1 -1</clus>
<clus scale="   80.363">  5  6 -1 -1</clus>
<clus scale="  100.032">  7  8 -1 -1</clus>
<clus scale="  229.138">  1  5  2 -1</clus>
<clus scale="  229.138">  1  5  2 -1</clus>
</clustering>
</event>
<event>
 9    1  0.3846604E-005  0.1070355E+03  0.7546771E-02  0.1268052E+00
         -4   -1    0    0    0  501 -0.00000000000E+00  0.00000000000E+00  0.16642403689E+03  0.16642403689E+03  0.00000000000E+00 0.  1.
          3   -1    0    0  502    0  0.00000000000E+00 -0.00000000000E+00 -0.22614595954E+03  0.22614595954E+03  0.00000000000E+00 0. -1.
         23    2    1    2    0    0 -0.16581080728E+02  0.20685248100E+02  0.10060210565E+03  0.13873337270E+03  0.91778828246E+02 0.  0.
        -24    2    1    2    0    0  0.35142562312E+02 -0.46610824173E+02 -0.18554651635E+03  0.21318151338E+03  0.87242646115E+02 0.  0.
         13    1    4    4    0    0  0.53021516086E+02 -0.35943419393E+02 -0.18082193107E+03  0.19183269096E+03  0.00000000000E+00 0. -1.
        -14    1    4    4    0    0 -0.17878953774E+02 -0.10667404780E+02 -0.47245852872E+01  0.21348822424E+02  0.00000000000E+00 0.  1.
        -13    1    3    3    0    0 -0.17521208566E+02 -0.13339631462E+02  0.10230958241E+03  0.10465270742E+03  0.00000000000E+00 0.  1.
         13    1    3    3    0    0  0.94012783782E+00  0.34024879563E+02 -0.17074767606E+01  0.34080665288E+02  0.00000000000E+00 0. -1.
         21    1    1    2  502  501 -0.18561481584E+02  0.25925576072E+02  0.25222488058E+02  0.40655110344E+02  0.00000000000E+00 0. -1.
<scales pt_clust_5="13000.00000" pt_clust_6="13000.00000" pt_clust_7="13000.00000" pt_clust_8="13000.00000" pt_clust_9="31.88517"></scales>
<clustering>
<clus scale="   31.885">  1  9  2 -1</clus>
<clus scale="   87.243">  5  6 -1 -1</clus>
<clus scale="   91.779">  7  8 -1 -1</clus>
<clus scale="  103.172">  2  5  1 -1</clus>
<clus scale="  103.172">  2  5  1 -1</clus>
</clustering>
</event>
<event>
 9    1  0.3846604E-005  0.1245476E+03  0.7546771E-02  0.1242053E+00
         -2   -1    0    0    0  501 -0.00000000000E+00  0.00000000000E+00  0.19109688394E+03  0.19109688394E+03  0.00000000000E+00 0.  1.
          1   -1    0    0  502    0  0.00000000000E+00 -0.00000000000E+00 -0.45430831569E+03  0.45430831569E+03  0.00000000000E+00 0. -1.
        -24    2    1    2    0    0 -0.12816922433E+02 -0.43022176103E+02  0.98893815825E+02  0.13512356203E+03  0.80394086032E+02 0.  0.
         23    2    1    2    0    0  0.79766677932E+02 -0.34489640666E+01 -0.40035160951E+03  0.42025596998E+03  0.99795043972E+02 0.  0.
         11    1    3    3    0    0  0.26740091125E+02  0.43418292011E+01  0.14961943257E+02  0.30947434469E+02  0.00000000000E+00 0. -1.
        -12    1    3    3    0    0 -0.39557013558E+02 -0.47364005304E+02  0.83931872568E+02  0.10417612756E+03  0.00000000000E+00 0.  1.
        -11    1    4    4    0    0 -0.22661973113E+02  0.93582004215E+01 -0.71930212210E+02  0.75994054827E+02  0.00000000000E+00 0.  1.
         11    1    4    4    0    0  0.10242865104E+03 -0.12807164488E+02 -0.32842139730E+03  0.34426191515E+03  0.00000000000E+00 0. -1.
         21    1    1    2  502  501 -0.66949755499E+02  0.46471140169E+02  0.38246361936E+02  0.90025667625E+02  0.00000000000E+00 0.  1.
<scales pt_clust_5="13000.00000" pt_clust_6="13000.00000" pt_clust_7="13000.00000" pt_clust_8="13000.00000" pt_clust_9="81.49746"></scales>
<clustering>
<clus scale="   80.394">  5  6 -1 -1</clus>
<clus scale="   81.497">  1  9  2 -1</clus>
<clus scale="   99.795">  7  8 -1 -1</clus>
<clus scale="  109.619">  1  5  2 -1</clus>
<clus scale="  124.548">  2  5  1 -1</clus>
</clustering>
</event>
<event>
 9    1  0.3846604E-005  0.1202092E+03  0.7546771E-02  0.1244481E+00
         -2   -1    0    0    0  501 -0.00000000000E+00  0.00000000000E+00  0.76387919250E+02  0.76387919250E+02  0.00000000000E+00 0.  1.
          1   -1    0    0  502    0  0.00000000000E+00 -0.00000000000E+00 -0.34295392430E+03  0.34295392430E+03  0.00000000000E+00 0. -1.
         23    2    1    2    0    0  0.87443693769E+02 -0.92051931150E+01 -0.67309565347E+01  0.12432846074E+03  0.87642028806E+02 0.  0.
        -24    2    1    2    0    0 -0.59586963031E+02  0.27393340275E+02 -0.21446294747E+03  0.23875119571E+03  0.81894910461E+02 0.  0.
         13    1    4    4    0    0 -0.42367820638E+02  0.35194594514E+02 -0.21275652888E+03  0.21977040813E+03  0.00000000000E+00 0. -1.
        -14    1    4    4    0    0 -0.17219142393E+02 -0.78012542395E+01 -0.17064185847E+01  0.18980787572E+02  0.00000000000E+00 0.  1.
        -13    1    3    3    0    0  0.18526433408E+02  0.18315315473E+02  0.31478406889E+02  0.40860367301E+02  0.00000000000E+00 0.  1.
         13    1    3    3    0    0  0.68917260361E+02 -0.27520508588E+02 -0.38209363424E+02  0.83468093436E+02  0.00000000000E+00 0. -1.
         21    1    1    2  502  501 -0.27856730738E+02 -0.18188147160E+02 -0.45372101042E+02  0.56262187102E+02  0.00000000000E+00 0. -1.
<scales pt_clust_5="13000.00000" pt_clust_6="13000.00000" pt_clust_7="13000.00000" pt_clust_8="13000.00000" pt_clust_9="33.26870"></scales>
<clustering>
<clus scale="   33.269">  2  9  1 -1</clus>
<clus scale="   81.895">  5  6 -1 -1</clus>
<clus scale="   87.642">  7  8 -1 -1</clus>
<clus scale="  116.086">  2  5  1 -1</clus>
<clus scale="   33.269">  2  5  1 -1</clus>
</clustering>
</event>
<event>
 9    1  0.3846604E-005  0.1282211E+03  0.7546771E-02  0.1233982E+00
         -2   -1    0    0    0  501 -0.00000000000E+00  0.00000000000E+00  0.13551754846E+03  0.13551754846E+03  0.00000000000E+00 0.  1.
          1   -1    0    0  502    0  0.00000000000E+00 -0.00000000000E+00 -0.16392590514E+03  0.16392590514E+03  0.00000000000E+00 0. -1.
        -24    2    1    2    0    0  0.93623424760E+02 -0.62654617954E+01 -0.11676405439E+01  0.12412970478E+03  0.81254037131E+02 0.  0.
         23    2    1    2    0    0 -0.75910304527E+02  0.33651000550E+02 -0.49837787511E+02  0.13563566927E+03  0.94965601896E+02 0.  0.
         11    1    3    3    0    0  0.25404062572E+02 -0.31849457945E+02  0.23714102530E+02  0.47139293857E+02  0.00000000000E+00 0. -1.
        -12    1    3    3    0    0  0.68219362189E+02  0.25583996149E+02 -0.24881743074E+02  0.76990410927E+02  0.00000000000E+00 0.  1.
        -13    1    4    4    0    0 -0.53762523701E+02  0.67126833449E+02 -0.33361904262E+02  0.92246611751E+02  0.00000000000E+00 0.  1.
         13    1    4    4    0    0 -0.22147780827E+02 -0.33475832898E+02 -0.16475883250E+02  0.43389057522E+02  0.00000000000E+00 0. -1.
         21    1    1    2  502  501 -0.17713120233E+02 -0.27385538755E+02  0.22597071379E+02  0.39678079543E+02  0.00000000000E+00 0. -1.
<scales pt_clust_5="13000.00000" pt_clust_6="13000.00000" pt_clust_7="13000.00000" pt_clust_8="13000.00000" pt_clust_9="32.61476"></scales>
<clustering>
<clus scale="   32.615">  1  9  2 -1</clus>
<clus scale="   81.254">  5  6 -1 -1</clus>
<clus scale="   94.966">  7  8 -1 -1</clus>
<clus scale="  118.425">  1  5  2 -1</clus>
<clus scale="  128.221">  2  5  1 -1</clus>
</clustering>
</event>
<event>
 9    1  0.3846604E-005  0.1006438E+03  0.7546771E-02  0.1283916E+00
         -4   -1    0    0    0  501 -0.00000000000E+00  0.00000000000E+00  0.14188063765E+03  0.14188063765E+03  0.00000000000E+00 0.  1.
          3   -1    0    0  502    0  0.00000000000E+00 -0.00000000000E+00 -0.17929110511E+03  0.17929110511E+03  0.00000000000E+00 0. -1.
         23    2    1    2    0    0 -0.67344544528E+01 -0.44692583441E+00  0.62952356565E+02  0.11044036113E+03  0.90490450052E+02 0.  0.
        -24    2    1    2    0    0 -0.64406702609E+01  0.52270962629E+02 -0.12006794264E+03  0.15374360750E+03  0.80293525456E+02 0.  0.
         11    1    4    4    0    0  0.23281170404E+01  0.22763627479E+02 -0.12080405006E+03  0.12295211010E+03  0.00000000000E+00 0. -1.
        -12    1    4    4    0    0 -0.87687873013E+01  0.29507335149E+02  0.73610742457E+00  0.30791497406E+02  0.00000000000E+00 0.  1.
        -13    1    3    3    0    0 -0.38270524137E+02  0.94181108157E+01  0.78484962918E-01  0.39412434446E+02  0.00000000000E+00 0. -1.
         13    1    3    3    0    0  0.31536069684E+02 -0.98650366501E+01  0.62873871602E+02  0.71027926687E+02  0.00000000000E+00 0.  1.
         21    1    1    2  502  501  0.13175124714E+02 -0.51824036794E+02  0.19705118614E+02  0.56987774131E+02  0.00000000000E+00 0.  1.
<scales pt_clust_5="13000.00000" pt_clust_6="13000.00000" pt_clust_7="13000.00000" pt_clust_8="13000.00000" pt_clust_9="53.47256"></scales>
<clustering>
<clus scale="   53.473">  1  9  2 -1</clus>
<clus scale="   80.294">  5  6 -1 -1</clus>
<clus scale="   90.490">  7  8 -1 -1</clus>
<clus scale="   91.584">  2  5  1 -1</clus>
<clus scale="   91.584">  2  5  1 -1</clus>
</clustering>
</event>
<event>
 9    1  0.3846604E-005  0.1056176E+03  0.7546771E-02  0.1272405E+00
         -2   -1    0    0    0  501 -0.00000000000E+00  0.00000000000E+00  0.21140459639E+03  0.21140459639E+03  0.00000000000E+00 0.  1.
          1   -1    0    0  502    0  0.00000000000E+00 -0.00000000000E+00 -0.32675537240E+03  0.32675537240E+03  0.00000000000E+00 0. -1.
        -24    2    1    2    0    0  0.70568317716E+02  0.40395152465E+02  0.13336964813E+03  0.17611614896E+03  0.81349733083E+02 0.  0.
         23    2    1    2    0    0 -0.47481165813E+02 -0.26605245825E+02 -0.29246956180E+03  0.31069048348E+03  0.89598168136E+02 0.  0.
         11    1    3    3    0    0  0.12212642786E+02  0.24149842342E+02 -0.26761116639E+01  0.27194210828E+02  0.00000000000E+00 0. -1.
        -12    1    3    3    0    0  0.58355674930E+02  0.16245310123E+02  0.13604575980E+03  0.14892193813E+03  0.00000000000E+00 0.  1.
        -11    1    4    4    0    0  0.19874712860E+02 -0.31253671666E+02 -0.92977893953E+02  0.10008339007E+03  0.00000000000E+00 0.  1.
         11    1    4    4    0    0 -0.67355878672E+02  0.46484258407E+01 -0.19949166785E+03  0.21060709341E+03  0.00000000000E+00 0. -1.
         21    1    1    2  502  501 -0.23087151904E+02 -0.13789906639E+02  0.43749137664E+02  0.51353336352E+02  0.00000000000E+00 0.  1.
<scales pt_clust_5="13000.00000" pt_clust_6="13000.00000" pt_clust_7="13000.00000" pt_clust_8="13000.00000" pt_clust_9="26.89197"></scales>
<clustering>
<clus scale="   26.892">  1  9  2 -1</clus>
<clus scale="   81.350">  5  6 -1 -1</clus>
<clus scale="   89.598">  7  8 -1 -1</clus>
<clus scale="   98.717">  1  5  2 -1</clus>
<clus scale="  105.618">  2  5  1 -1</clus>
</clustering>
</event>
<event>
 9    1  0.3846604E-005  0.1521513E+03  0.7546771E-02  0.1199651E+00
          1   -1    0    0  502    0  0.00000000000E+00  0.00000000000E+00  0.12140220046E+04  0.12140220046E+04  0.00000000000E+00 0. -1.
         -2   -1    0    0    0  501 -0.00000000000E+00 -0.00000000000E+00 -0.23488321181E+02  0.23488321181E+02  0.00000000000E+00 0.  1.
         23    2    1    2    0    0  0.95294985488E+01  0.11584614239E+03  0.45992419268E+03  0.48297482105E+03  0.90682273402E+02 0.  0.
        -24    2    1    2    0    0 -0.28445802187E+02 -0.12349678863E+03  0.70936271575E+03  0.72507732457E+03  0.80504929343E+02 0.  0.
         11    1    4    4    0    0 -0.19255784994E+02 -0.11916374420E+03  0.70254972668E+03  0.71284423379E+03  0.00000000000E+00 0. -1.
        -12    1    4    4    0    0 -0.91900171932E+01 -0.43330444359E+01  0.68129890719E+01  0.12233090786E+02  0.00000000000E+00 0.  1.
        -11    1    3    3    0    0 -0.29020896973E+02  0.17000512317E+02  0.18988626882E+03  0.19284196889E+03  0.00000000000E+00 0.  1.
         11    1    3    3    0    0  0.38550395522E+02  0.98845630077E+02  0.27003792386E+03  0.29013285216E+03  0.00000000000E+00 0. -1.
         21    1    1    2  502  501  0.18916303638E+02  0.76506462392E+01  0.21246775027E+02  0.29458180193E+02  0.00000000000E+00 0. -1.
<scales pt_clust_5="13000.00000" pt_clust_6="13000.00000" pt_clust_7="13000.00000" pt_clust_8="13000.00000" pt_clust_9="20.40488"></scales>
<clustering>
<clus scale="   20.405">  2  9  1 -1</clus>
<clus scale="   80.505">  5  6 -1 -1</clus>
<clus scale="   90.682">  7  8 -1 -1</clus>
<clus scale="  146.314">  1  5  2 -1</clus>
<clus scale="  146.314">  1  5  2 -1</clus>
</clustering>
</event>
<event>
 9    1  0.3846604E-005  0.1191844E+03  0.7546771E-02  0.1248150E+00
          1   -1    0    0  502    0  0.00000000000E+00  0.00000000000E+00  0.32444301741E+03  0.32444301741E+03  0.00000000000E+00 0. -1.
         -2   -1    0    0    0  501 -0.00000000000E+00 -0.00000000000E+00 -0.14236463294E+03  0.14236463294E+03  0.00000000000E+00 0.  1.
        -24    2    1    2    0    0  0.37371366888E+02 -0.11285414086E+03 -0.31190563033E+02  0.14671574565E+03  0.80124794099E+02 0.  0.
         23    2    1    2    0    0 -0.13015111543E+02  0.68858956327E+02  0.23769567134E+03  0.26418601705E+03  0.91564569773E+02 0.  0.
         13    1    3    3    0    0  0.43722710999E+02 -0.40684132601E+02  0.13981390767E+02  0.61338025648E+02  0.00000000000E+00 0. -1.
        -14    1    3    3    0    0 -0.63513441112E+01 -0.72170008254E+02 -0.45171953800E+02  0.85377720007E+02  0.00000000000E+00 0.  1.
        -11    1    4    4    0    0 -0.41997558563E+02  0.19063965653E+01  0.77788568767E+02  0.88422229693E+02  0.00000000000E+00 0. -1.
         11    1    4    4    0    0  0.28982447020E+02  0.66952559762E+02  0.15990710257E+03  0.17576378736E+03  0.00000000000E+00 0.  1.
         21    1    1    2  502  501 -0.24356255345E+02  0.43995184528E+02 -0.24426723840E+02  0.55905887648E+02  0.00000000000E+00 0.  1.
<scales pt_clust_5="13000.00000" pt_clust_6="13000.00000" pt_clust_7="13000.00000" pt_clust_8="13000.00000" pt_clust_9="50.28721"></scales>
<clustering>
<clus scale="   50.287">  2  9  1 -1</clus>
<clus scale="   80.125">  5  6 -1 -1</clus>
<clus scale="   91.565">  7  8 -1 -1</clus>
<clus scale="  110.638">  2  5  1 -1</clus>
<clus scale="  119.184">  1  5  2 -1</clus>
</clustering>
</event>
<event>
 9    1  0.3846604E-005  0.8770670E+02  0.7546771E-02  0.1313323E+00
          1   -1    0    0  502    0  0.00000000000E+00  0.00000000000E+00  0.10345048318E+03  0.10345048318E+03  0.00000000000E+00 0. -1.
         -2   -1    0    0    0  501 -0.00000000000E+00 -0.00000000000E+00 -0.11606817821E+03  0.11606817821E+03  0.00000000000E+00 0.  1.
         23    2    1    2    0    0 -0.40770886226E+01 -0.34768238779E+02 -0.35124300334E+02  0.99479395994E+02  0.86237930599E+02 0.  0.
        -24    2    1    2    0    0 -0.11097495980E+02  0.64091731255E+01  0.32786102908E+02  0.86272822087E+02  0.78764454989E+02 0.  0.
         13    1    4    4    0    0 -0.29582035621E+01 -0.36179870723E+02  0.12403567377E+02  0.38361210846E+02  0.00000000000E+00 0. -1.
        -14    1    4    4    0    0 -0.81392924178E+01  0.42589043849E+02  0.20382535531E+02  0.47911611241E+02  0.00000000000E+00 0.  1.
        -13    1    3    3    0    0  0.25681852636E+02 -0.52101579197E+02 -0.27201499850E+02  0.64140889484E+02  0.00000000000E+00 0.  1.
         13    1    3    3    0    0 -0.29758941258E+02  0.17333340418E+02 -0.79228004836E+01  0.35338506510E+02  0.00000000000E+00 0. -1.
         21    1    1    2  502  501  0.15174584602E+02  0.28359065653E+02 -0.10279497610E+02  0.33766443308E+02  0.00000000000E+00 0. -1.
<scales pt_clust_5="13000.00000" pt_clust_6="13000.00000" pt_clust_7="13000.00000" pt_clust_8="13000.00000" pt_clust_9="32.16372"></scales>
<clustering>
<clus scale="   32.164">  2  9  1 -1</clus>
<clus scale="   78.764">  5  6 -1 -1</clus>
<clus scale="   80.370">  1  5  2 -1</clus>
<clus scale="   86.238">  7  8 -1 -1</clus>
<clus scale="   80.370">  1  5  2 -1</clus>
</clustering>
</event>
<event>
 9    1  0.3846604E-005  0.1427392E+03  0.7546771E-02  0.1211748E+00
         -2   -1    0    0    0  501 -0.00000000000E+00  0.00000000000E+00  0.12690973786E+03  0.12690973786E+03  0.00000000000E+00 0.  1.
          1   -1    0    0  502    0  0.00000000000E+00 -0.00000000000E+00 -0.41024562428E+03  0.41024562428E+03  0.00000000000E+00 0. -1.
        -24    2    1    2    0    0  0.10152665981E+03 -0.42476788927E+02  0.29936813318E+02  0.13941965568E+03  0.80185331253E+02 0.  0.
         23    2    1    2    0    0 -0.87027470488E+02  0.69421490655E+02 -0.33217726547E+03  0.36176869314E+03  0.90231522488E+02 0.  0.
         13    1    3    3    0    0  0.29877159406E+02 -0.49383897782E+02 -0.76369724187E+01  0.58221451047E+02  0.00000000000E+00 0. -1.
        -14    1    3    3    0    0  0.71649500401E+02  0.69071088544E+01  0.37573785737E+02  0.81198204629E+02  0.00000000000E+00 0.  1.
        -11    1    4    4    0    0 -0.32486348454E+02  0.77268445313E+02 -0.24182215351E+03  0.25593696373E+03  0.00000000000E+00 0. -1.
         11    1    4    4    0    0 -0.54541122034E+02 -0.78469546581E+01 -0.90355111968E+02  0.10583172940E+03  0.00000000000E+00 0.  1.
         21    1    1    2  502  501 -0.14499189319E+02 -0.26944701728E+02  0.18904565741E+02  0.35967013331E+02  0.00000000000E+00 0.  1.
<scales pt_clust_5="13000.00000" pt_clust_6="13000.00000" pt_clust_7="13000.00000" pt_clust_8="13000.00000" pt_clust_9="30.59810"></scales>
<clustering>
<clus scale="   30.598">  1  9  2 -1</clus>
<clus scale="   80.185">  5  6 -1 -1</clus>
<clus scale="   90.232">  7  8 -1 -1</clus>
<clus scale="  136.611">  1  5  2 -1</clus>
<clus scale="  142.739">  2  5  1 -1</clus>
</clustering>
</event>
<event>
 9    1  0.3846604E-005  0.1253794E+03  0.7546771E-02  0.1236540E+00
         -2   -1    0    0    0  501 -0.00000000000E+00  0.00000000000E+00  0.35217944359E+03  0.35217944359E+03  0.00000000000E+00 0.  1.
          1   -1    0    0  502    0  0.00000000000E+00 -0.00000000000E+00 -0.10724570363E+03  0.10724570363E+03  0.00000000000E+00 0. -1.
         23    2    1    2    0    0  0.76496674302E+02  0.32479781232E+02  0.26599323929E+03  0.29323895092E+03  0.91268842546E+02 0.  0.
        -24    2    1    2    0    0 -0.92052462877E+02 -0.49761835196E+02 -0.35507889017E+02  0.13881088055E+03  0.84010441098E+02 0.  0.
         11    1    4    4    0    0 -0.47553602316E+02  0.19572196036E+02 -0.18769930904E+02  0.54742362545E+02  0.00000000000E+00 0. -1.
        -12    1    4    4    0    0 -0.44498860561E+02 -0.69334031232E+02 -0.16737958113E+02  0.84068518007E+02  0.00000000000E+00 0.  1.
        -11    1    3    3    0    0  0.81272254585E+02 -0.32318371789E+01  0.22165730998E+03  0.23610926963E+03  0.00000000000E+00 0.  1.
         11    1    3    3    0    0 -0.47755802836E+01  0.35711618411E+02  0.44335929313E+02  0.57129681292E+02  0.00000000000E+00 0. -1.
         21    1    1    2  502  501  0.15555788576E+02  0.17282053964E+02  0.14448389687E+02  0.27375315742E+02  0.00000000000E+00 0.  1.
<scales pt_clust_5="13000.00000" pt_clust_6="13000.00000" pt_clust_7="13000.00000" pt_clust_8="13000.00000" pt_clust_9="23.25192"></scales>
<clustering>
<clus scale="   23.252">  2  9  1 -1</clus>
<clus scale="   84.010">  5  6 -1 -1</clus>
<clus scale="   91.269">  7  8 -1 -1</clus>
<clus scale="  120.199">  2  5  1 -1</clus>
<clus scale="   23.252">  2  5  1 -1</clus>
</clustering>
</event>
<event>
 9    1  0.3846604E-005  0.1297139E+03  0.7546771E-02  0.1255715E+00
          1   -1    0    0  502    0  0.00000000000E+00  0.00000000000E+00  0.31399745385E+03  0.31399745385E+03  0.00000000000E+00 0. -1.
         -2   -1    0    0    0  501 -0.00000000000E+00 -0.00000000000E+00 -0.78321174436E+02  0.78321174436E+02  0.00000000000E+00 0.  1.
        -24    2    1    2    0    0 -0.81262363187E+01 -0.75331967609E+00  0.12147793566E+02  0.74813533840E+02  0.73368199854E+02 0.  0.
         23    2    1    2    0    0 -0.89677303193E+02 -0.10119943784E+02  0.13602953664E+03  0.18582432018E+03  0.88781817741E+02 0.  0.
         13    1    3    3    0    0 -0.98503892405E+01 -0.30808169284E+02  0.26168063661E+02  0.41604579298E+02  0.00000000000E+00 0. -1.
        -14    1    3    3    0    0  0.17241529218E+01  0.30054849608E+02 -0.14020270095E+02  0.33208954542E+02  0.00000000000E+00 0.  1.
        -11    1    4    4    0    0 -0.46636716616E+02 -0.30941538633E+02  0.12470603919E+03  0.13668927668E+03  0.00000000000E+00 0. -1.
         11    1    4    4    0    0 -0.43040586577E+02  0.20821594849E+02  0.11323497452E+02  0.49135043497E+02  0.00000000000E+00 0.  1.
         21    1    1    2  502  501  0.97803539512E+02  0.10873263461E+02  0.87498949206E+02  0.13168077427E+03  0.00000000000E+00 0.  1.
<scales pt_clust_5="13000.00000" pt_clust_6="13000.00000" pt_clust_7="13000.00000" pt_clust_8="13000.00000" pt_clust_9="94.56995"></scales>
<clustering>
<clus scale="   73.368">  5  6 -1 -1</clus>
<clus scale="   73.821">  2  5  1 -1</clus>
<clus scale="   88.782">  7  8 -1 -1</clus>
<clus scale="   94.570">  2  9  1 -1</clus>
<clus scale="  129.714">  1  5  2 -1</clus>
</clustering>
</event>
<event>
 9    1  0.3846604E-005  0.1213642E+03  0.7546771E-02  0.1245324E+00
          3   -1    0    0  502    0  0.00000000000E+00  0.00000000000E+00  0.12755044118E+03  0.12755044118E+03  0.00000000000E+00 0. -1.
         -4   -1    0    0    0  501 -0.00000000000E+00 -0.00000000000E+00 -0.30099626411E+03  0.30099626411E+03  0.00000000000E+00 0.  1.
         23    2    1    2    0    0 -0.11346966685E+03 -0.39458961792E+02 -0.19125096610E+03  0.24492883971E+03  0.94767238667E+02 0.  0.
        -24    2    1    2    0    0  0.69328210424E+02  0.49584585088E+01  0.51261792080E+02  0.11836374496E+03  0.80939593045E+02 0.  0.
         11    1    4    4    0    0  0.73608768427E+02 -0.82891454730E+01  0.65187053028E+02  0.98672755128E+02  0.00000000000E+00 0. -1.
        -12    1    4    4    0    0 -0.42805580037E+01  0.13247603982E+02 -0.13925260948E+02  0.19690989832E+02  0.00000000000E+00 0.  1.
        -11    1    3    3    0    0 -0.90102271658E+02  0.17196393321E+02 -0.11473336809E+03  0.14689411511E+03  0.00000000000E+00 0.  1.
         11    1    3    3    0    0 -0.23367395195E+02 -0.56655355113E+02 -0.76517598015E+02  0.98034724599E+02  0.00000000000E+00 0. -1.
         21    1    1    2  502  501  0.44141456430E+02  0.34500503283E+02 -0.33456648904E+02  0.65254120624E+02  0.00000000000E+00 0. -1.
<scales pt_clust_5="13000.00000" pt_clust_6="13000.00000" pt_clust_7="13000.00000" pt_clust_8="13000.00000" pt_clust_9="56.02457"></scales>
<clustering>
<clus scale="   56.025">  2  9  1 -1</clus>
<clus scale="   80.940">  5  6 -1 -1</clus>
<clus scale="   94.767">  7  8 -1 -1</clus>
<clus scale="  110.904">  1  5  2 -1</clus>
<clus scale="  110.904">  1  5  2 -1</clus>
</clustering>
</event>
<event>
 9    1  0.3846604E-005  0.3736319E+03  0.7546771E-02  0.1053687E+00
         -2   -1    0    0    0  501 -0.00000000000E+00  0.00000000000E+00  0.29047815231E+03  0.29047815231E+03  0.00000000000E+00 0.  1.
          1   -1    0    0  502    0  0.00000000000E+00 -0.00000000000E+00 -0.11785926566E+04  0.11785926566E+04  0.00000000000E+00 0. -1.
        -24    2    1    2    0    0 -0.19370121242E+03  0.28702250560E+03 -0.12084928329E+03  0.37462671102E+03  0.76410371839E+02 0.  0.
         23    2    1    2    0    0  0.22700546135E+03 -0.28789404473E+03 -0.89008962468E+03  0.96718150824E+03  0.93627290106E+02 0.  0.
         13    1    3    3    0    0 -0.16676212575E+02  0.63020459621E+02 -0.45008005867E+02  0.79217390697E+02  0.00000000000E+00 0. -1.
        -14    1    3    3    0    0 -0.17702499985E+03  0.22400204598E+03 -0.75841277422E+02  0.29540932033E+03  0.00000000000E+00 0.  1.
        -11    1    4    4    0    0  0.31987171330E+02 -0.16517619525E+01 -0.75226394447E+02  0.81761347034E+02  0.00000000000E+00 0.  1.
         11    1    4    4    0    0  0.19501829002E+03 -0.28624228278E+03 -0.81486323023E+03  0.88542016121E+03  0.00000000000E+00 0. -1.
         21    1    1    2  502  501 -0.33304248927E+02  0.87153913301E+00  0.12282440369E+03  0.12726258963E+03  0.00000000000E+00 0.  1.
<scales pt_clust_5="13000.00000" pt_clust_6="13000.00000" pt_clust_7="13000.00000" pt_clust_8="13000.00000" pt_clust_9="33.31565"></scales>
<clustering>
<clus scale="   33.316">  1  9  2 -1</clus>
<clus scale="   76.410">  5  6 -1 -1</clus>
<clus scale="   93.627">  7  8 -1 -1</clus>
<clus scale="  369.694">  1  5  2 -1</clus>
<clus scale="  373.632">  2  5  1 -1</clus>
</clustering>
</event>
<event>
 9    1  0.3846604E-005  0.1018342E+03  0.7546771E-02  0.1282818E+00
          3   -1    0    0  502    0  0.00000000000E+00  0.00000000000E+00  0.59848230693E+02  0.59848230693E+02  0.00000000000E+00 0. -1.
         -4   -1    0    0    0  501 -0.00000000000E+00 -0.00000000000E+00 -0.35996762371E+03  0.35996762371E+03  0.00000000000E+00 0.  1.
        -24    2    1    2    0    0 -0.14119237376E+02  0.42129520777E+02 -0.25498752704E+03  0.27028810504E+03  0.77863800274E+02 0.  0.
         23    2    1    2    0    0  0.45227699077E+02 -0.38892394676E+02 -0.23047484488E+02  0.11124021510E+03  0.91022171948E+02 0.  0.
         11    1    3    3    0    0 -0.37325706735E+01  0.19918476557E+02 -0.75302761157E+01  0.21619039076E+02  0.00000000000E+00 0. -1.
        -12    1    3    3    0    0 -0.10386666702E+02  0.22211044220E+02 -0.24745725092E+03  0.24866906596E+03  0.00000000000E+00 0.  1.
        -13    1    4    4    0    0 -0.24484568004E+02  0.15445084650E+01 -0.18118307089E+02  0.30498403704E+02  0.00000000000E+00 0.  1.
         13    1    4    4    0    0  0.69712267080E+02 -0.40436903141E+02 -0.49291773984E+01  0.80741811393E+02  0.00000000000E+00 0. -1.
         21    1    1    2  502  501 -0.31108461701E+02 -0.32371261010E+01 -0.22084381493E+02  0.38287534274E+02  0.00000000000E+00 0. -1.
<scales pt_clust_5="13000.00000" pt_clust_6="13000.00000" pt_clust_7="13000.00000" pt_clust_8="13000.00000" pt_clust_9="31.27643"></scales>
<clustering>
<clus scale="   31.276">  1  9  2 -1</clus>
<clus scale="   77.864">  5  6 -1 -1</clus>
<clus scale="   90.266">  2  5  1 -1</clus>
<clus scale="   91.022">  7  8 -1 -1</clus>
<clus scale="   31.276">  1  5  2 -1</clus>
</clustering>
</event>
<event>
 9    1  0.3846604E-005  0.1119931E+03  0.7546771E-02  0.1260541E+00
         -2   -1    0    0    0  501 -0.00000000000E+00  0.00000000000E+00  0.56416599400E+02  0.56416599400E+02  0.00000000000E+00 0.  1.
          1   -1    0    0  502    0  0.00000000000E+00 -0.00000000000E+00 -0.34022383421E+03  0.34022383421E+03  0.00000000000E+00 0. -1.
        -24    2    1    2    0    0  0.38060657431E+02  0.13049030466E+02 -0.53927490839E+02  0.10532250726E+03  0.81029410878E+02 0.  0.
         23    2    1    2    0    0 -0.86635709727E+02  0.44242195679E+01 -0.18067922495E+03  0.22000494545E+03  0.90729674184E+02 0.  0.
         13    1    3    3    0    0  0.41912326663E+02 -0.19252744203E+02 -0.56211216555E+02  0.72711843273E+02  0.00000000000E+00 0. -1.
        -14    1    3    3    0    0 -0.38516692316E+01  0.32301774668E+02  0.22837257151E+01  0.32610663988E+02  0.00000000000E+00 0.  1.
        -11    1    4    4    0    0 -0.30610823878E+02  0.37704316852E+02 -0.33367496329E+02  0.58923915849E+02  0.00000000000E+00 0.  1.
         11    1    4    4    0    0 -0.56024885849E+02 -0.33280097284E+02 -0.14731172862E+03  0.16108102960E+03  0.00000000000E+00 0. -1.
         21    1    1    2  502  501  0.48575052296E+02 -0.17473250033E+02 -0.49200519028E+02  0.71312980900E+02  0.00000000000E+00 0.  1.
<scales pt_clust_5="13000.00000" pt_clust_6="13000.00000" pt_clust_7="13000.00000" pt_clust_8="13000.00000" pt_clust_9="51.62219"></scales>
<clustering>
<clus scale="   51.622">  1  9  2 -1</clus>
<clus scale="   81.029">  5  6 -1 -1</clus>
<clus scale="   90.730">  7  8 -1 -1</clus>
<clus scale="  104.290">  1  5  2 -1</clus>
<clus scale="  111.993">  2  5  1 -1</clus>
</clustering>
</event>
<event>
 9    1  0.3846604E-005  0.2046052E+03  0.7546771E-02  0.1148854E+00
          1   -1    0    0  502    0  0.00000000000E+00  0.00000000000E+00  0.80098512617E+02  0.80098512617E+02  0.00000000000E+00 0. -1.
         -2   -1    0    0    0  501 -0.00000000000E+00 -0.00000000000E+00 -0.11443209030E+04  0.11443209030E+04  0.00000000000E+00 0.  1.
         23    2    1    2    0    0  0.13934899848E+03  0.13248799282E+03 -0.80627732750E+03  0.83570106617E+03  0.10649850482E+03 0.  0.
        -24    2    1    2    0    0 -0.14238963522E+03 -0.96639433336E+02 -0.75784822175E+02  0.20303927690E+03  0.76600394242E+02 0.  0.
         11    1    4    4    0    0 -0.12865330087E+03 -0.10374071521E+03 -0.49464133932E+02  0.17251234264E+03  0.00000000000E+00 0. -1.
        -12    1    4    4    0    0 -0.13736334353E+02  0.71012818775E+01 -0.26320688243E+02  0.30526934261E+02  0.00000000000E+00 0.  1.
        -11    1    3    3    0    0  0.11728679318E+03  0.89511812504E+02 -0.73456078917E+03  0.74923167940E+03  0.00000000000E+00 0.  1.
         11    1    3    3    0    0  0.22062205300E+02  0.42976180315E+02 -0.71716538332E+02  0.86469386765E+02  0.00000000000E+00 0. -1.
         21    1    1    2  502  501  0.30406367364E+01 -0.35848559483E+02 -0.18216024066E+03  0.18567907250E+03  0.00000000000E+00 0. -1.
<scales pt_clust_5="13000.00000" pt_clust_6="13000.00000" pt_clust_7="13000.00000" pt_clust_8="13000.00000" pt_clust_9="35.97728"></scales>
<clustering>
<clus scale="   35.977">  2  9  1 -1</clus>
<clus scale="   76.600">  5  6 -1 -1</clus>
<clus scale="  106.499">  7  8 -1 -1</clus>
<clus scale="  190.759">  1  5  2 -1</clus>
<clus scale="  190.759">  1  5  2 -1</clus>
</clustering>
</event>
<event>
 9    1  0.3846604E-005  0.9313868E+02  0.7546771E-02  0.1302095E+00
          1   -1    0    0  502    0  0.00000000000E+00  0.00000000000E+00  0.50777713718E+03  0.50777713718E+03  0.00000000000E+00 0. -1.
         -2   -1    0    0    0  501 -0.00000000000E+00 -0.00000000000E+00 -0.38176086157E+02  0.38176086157E+02  0.00000000000E+00 0.  1.
        -24    2    1    2    0    0 -0.50972148079E+02 -0.33664068745E+02  0.15004666912E+03  0.18100242567E+03  0.80724505458E+02 0.  0.
         23    2    1    2    0    0 -0.35492234347E+01 -0.11625058568E+02  0.24592151767E+03  0.26274764850E+03  0.91712567097E+02 0.  0.
         11    1    3    3    0    0 -0.17249870273E+01 -0.46158185249E+02  0.45871793625E+02  0.65098195797E+02  0.00000000000E+00 0. -1.
        -12    1    3    3    0    0 -0.49247161052E+02  0.12494116504E+02  0.10417487549E+03  0.11590422987E+03  0.00000000000E+00 0.  1.
        -13    1    4    4    0    0 -0.37406476975E+02 -0.30090411915E+02  0.18078548674E+03  0.18705098135E+03  0.00000000000E+00 0. -1.
         13    1    4    4    0    0  0.33857253540E+02  0.18465353347E+02  0.65136030935E+02  0.75696667149E+02  0.00000000000E+00 0.  1.
         21    1    1    2  502  501  0.54521371514E+02  0.45289127313E+02  0.73632864236E+02  0.10220314917E+03  0.00000000000E+00 0.  1.
<scales pt_clust_5="13000.00000" pt_clust_6="13000.00000" pt_clust_7="13000.00000" pt_clust_8="13000.00000" pt_clust_9="70.87796"></scales>
<clustering>
<clus scale="   70.878">  2  9  1 -1</clus>
<clus scale="   80.725">  5  6 -1 -1</clus>
<clus scale="   82.341">  2  5  1 -1</clus>
<clus scale="   91.713">  7  8 -1 -1</clus>
<clus scale="   93.139">  1  5  2 -1</clus>
</clustering>
</event>
<event>
 9    1  0.3846604E-005  0.1004548E+03  0.7546771E-02  0.1286357E+00
         -2   -1    0    0    0  501 -0.00000000000E+00  0.00000000000E+00  0.56651871236E+02  0.56651871236E+02  0.00000000000E+00 0.  1.
          1   -1    0    0  502    0  0.00000000000E+00 -0.00000000000E+00 -0.48944517923E+03  0.48944517923E+03  0.00000000000E+00 0. -1.
        -24    2    1    2    0    0  0.36513442887E+02 -0.30963328391E+02 -0.55945194084E+02  0.10614818956E+03  0.76456616385E+02 0.  0.
         23    2    1    2    0    0  0.20234527513E+01  0.46248847792E+02 -0.38455870273E+03  0.39778023977E+03  0.90557567444E+02 0.  0.
         13    1    3    3    0    0  0.57801655432E+02 -0.74215130952E+01 -0.39497495456E+02  0.70400016865E+02  0.00000000000E+00 0. -1.
        -14    1    3    3    0    0 -0.21288212545E+02 -0.23541815296E+02 -0.16447698628E+02  0.35748172694E+02  0.00000000000E+00 0.  1.
        -13    1    4    4    0    0  0.31510243535E+02 -0.11672349989E+02 -0.18114238049E+03  0.18423273653E+03  0.00000000000E+00 0. -1.
         13    1    4    4    0    0 -0.29486790784E+02  0.57921197780E+02 -0.20341632225E+03  0.21354750324E+03  0.00000000000E+00 0.  1.
         21    1    1    2  502  501 -0.38536895639E+02 -0.15285519401E+02  0.77105888201E+01  0.42168621139E+02  0.00000000000E+00 0.  1.
<scales pt_clust_5="13000.00000" pt_clust_6="13000.00000" pt_clust_7="13000.00000" pt_clust_8="13000.00000" pt_clust_9="41.45768"></scales>
<clustering>
<clus scale="   41.458">  1  9  2 -1</clus>
<clus scale="   76.457">  5  6 -1 -1</clus>
<clus scale="   87.955">  1  5  2 -1</clus>
<clus scale="   90.558">  7  8 -1 -1</clus>
<clus scale="  100.455">  2  5  1 -1</clus>
</clustering>
</event>
<event>
 9    1  0.3846604E-005  0.1076413E+03  0.7546771E-02  0.1268979E+00
          1   -1    0    0  502    0  0.00000000000E+00  0.00000000000E+00  0.17110323921E+03  0.17110323921E+03  0.00000000000E+00 0. -1.
         -2   -1    0    0    0  501 -0.00000000000E+00 -0.00000000000E+00 -0.36919945213E+03  0.36919945213E+03  0.00000000000E+00 0.  1.
         23    2    1    2    0    0 -0.22645904825E+02  0.20489373522E+02 -0.24171261353E+03  0.26045256632E+03  0.92075514302E+02 0.  0.
        -24    2    1    2    0    0  0.53010317394E+02  0.25073579198E+02  0.13773635713E+03  0.17096235514E+03  0.82571451942E+02 0.  0.
         11    1    4    4    0    0  0.34724379728E+02  0.45980381596E+02  0.12989559542E+03  0.14210152621E+03  0.00000000000E+00 0. -1.
        -12    1    4    4    0    0  0.18285937666E+02 -0.20906802398E+02  0.78407617096E+01  0.28860828938E+02  0.00000000000E+00 0.  1.
        -11    1    3    3    0    0  0.35068692564E+02 -0.98784372541E+00 -0.77417048923E+02  0.84995226321E+02  0.00000000000E+00 0. -1.
         11    1    3    3    0    0 -0.57714597389E+02  0.21477217248E+02 -0.16429556460E+03  0.17545734000E+03  0.00000000000E+00 0.  1.
         21    1    1    2  502  501 -0.30364412568E+02 -0.45562952720E+02 -0.94119956527E+02  0.10888776987E+03  0.00000000000E+00 0.  1.
<scales pt_clust_5="13000.00000" pt_clust_6="13000.00000" pt_clust_7="13000.00000" pt_clust_8="13000.00000" pt_clust_9="54.75381"></scales>
<clustering>
<clus scale="   54.754">  2  9  1 -1</clus>
<clus scale="   82.571">  5  6 -1 -1</clus>
<clus scale="   92.076">  7  8 -1 -1</clus>
<clus scale="   99.633">  1  5  2 -1</clus>
<clus scale="   99.633">  1  5  2 -1</clus>
</clustering>
</event>
<event>
 9    1  0.3846604E-005  0.1058094E+03  0.7546771E-02  0.1273971E+00
         -2   -1    0    0    0  501 -0.00000000000E+00  0.00000000000E+00  0.16237355906E+03  0.16237355906E+03  0.00000000000E+00 0.  1.
          1   -1    0    0  502    0  0.00000000000E+00 -0.00000000000E+00 -0.23535472380E+03  0.23535472380E+03  0.00000000000E+00 0. -1.
        -24    2    1    2    0    0  0.15892111519E+02  0.14352259746E+02  0.29440274951E+02  0.90310698731E+02  0.82648326951E+02 0.  0.
         23    2    1    2    0    0 -0.27028008787E+02 -0.46748512115E+02 -0.18686049813E+03  0.21629415154E+03  0.94606435233E+02 0.  0.
         13    1    3    3    0    0  0.16338042299E+02 -0.28842901349E+02  0.33243028794E+02  0.46946177137E+02  0.00000000000E+00 0. -1.
        -14    1    3    3    0    0 -0.44593078038E+00  0.43195161095E+02 -0.38027538430E+01  0.43364521594E+02  0.00000000000E+00 0.  1.
        -13    1    4    4    0    0  0.26324372089E+02 -0.40480357750E+02 -0.12696777943E+03  0.13583979145E+03  0.00000000000E+00 0. -1.
         13    1    4    4    0    0 -0.53352380876E+02 -0.62681543652E+01 -0.59892718701E+02  0.80454360091E+02  0.00000000000E+00 0.  1.
         21    1    1    2  502  501  0.11135897268E+02  0.32396252370E+02  0.84439058443E+02  0.91123432586E+02  0.00000000000E+00 0.  1.
<scales pt_clust_5="13000.00000" pt_clust_6="13000.00000" pt_clust_7="13000.00000" pt_clust_8="13000.00000" pt_clust_9="34.25676"></scales>
<clustering>
<clus scale="   34.257">  1  9  2 -1</clus>
<clus scale="   82.648">  5  6 -1 -1</clus>
<clus scale="   94.606">  7  8 -1 -1</clus>
<clus scale="   95.268">  1  5  2 -1</clus>
<clus scale="  105.809">  2  5  1 -1</clus>
</clustering>
</event>
<event>
 9    1  0.3846604E-005  0.1480798E+03  0.7546771E-02  0.1205129E+00
         -2   -1    0    0    0  501 -0.00000000000E+00  0.00000000000E+00  0.58788165375E+02  0.58788165375E+02  0.00000000000E+00 0.  1.
          1   -1    0    0  502    0  0.00000000000E+00 -0.00000000000E+00 -0.92219262988E+03  0.92219262988E+03  0.00000000000E+00 0. -1.
        -24    2    1    2    0    0  0.61381307618E+02  0.87360775962E+02 -0.88646032804E+02  0.15984400355E+03  0.79324751732E+02 0.  0.
         23    2    1    2    0    0 -0.10820511615E+02 -0.12086488075E+03 -0.73031756216E+03  0.74594430527E+03  0.91344195771E+02 0.  0.
         13    1    3    3    0    0  0.31733335171E+02 -0.83477992656E+01 -0.21423485467E+02  0.39187447521E+02  0.00000000000E+00 0. -1.
        -14    1    3    3    0    0  0.29647972447E+02  0.95708575228E+02 -0.67222547337E+02  0.12065655603E+03  0.00000000000E+00 0.  1.
        -11    1    4    4    0    0  0.92906683611E+01 -0.12939874978E+03 -0.64068290475E+03  0.65368565641E+03  0.00000000000E+00 0. -1.
         11    1    4    4    0    0 -0.20111179976E+02  0.85338690244E+01 -0.89634657407E+02  0.92258648858E+02  0.00000000000E+00 0.  1.
         21    1    1    2  502  501 -0.50560796003E+02  0.33504104792E+02 -0.44440869548E+02  0.75192486437E+02  0.00000000000E+00 0.  1.
<scales pt_clust_5="13000.00000" pt_clust_6="13000.00000" pt_clust_7="13000.00000" pt_clust_8="13000.00000" pt_clust_9="60.65409"></scales>
<clustering>
<clus scale="   60.654">  1  9  2 -1</clus>
<clus scale="   79.325">  5  6 -1 -1</clus>
<clus scale="   91.344">  7  8 -1 -1</clus>
<clus scale="  140.983">  1  5  2 -1</clus>
<clus scale="  148.080">  2  5  1 -1</clus>
</clustering>
</event>
<event>
 9    1  0.3846604E-005  0.1296035E+03  0.7546771E-02  0.1230540E+00
          1   -1    0    0  502    0  0.00000000000E+00  0.00000000000E+00  0.31848402524E+03  0.31848402524E+03  0.00000000000E+00 0. -1.
         -2   -1    0    0    0  501 -0.00000000000E+00 -0.00000000000E+00 -0.25483563951E+03  0.25483563951E+03  0.00000000000E+00 0.  1.
        -24    2    1    2    0    0  0.43605345305E+02 -0.87372324698E-01 -0.18482324032E+03  0.20643709443E+03  0.80964251490E+02 0.  0.
         23    2    1    2    0    0 -0.74598947391E+02 -0.62779112689E+02  0.26350345751E+03  0.29519746541E+03  0.90560761517E+02 0.  0.
         11    1    3    3    0    0  0.30860896054E+01  0.36911159529E+02 -0.71158344789E+02  0.80221366729E+02  0.00000000000E+00 0. -1.
        -12    1    3    3    0    0  0.40519255700E+02 -0.36998531853E+02 -0.11366489553E+03  0.12621572770E+03  0.00000000000E+00 0.  1.
        -13    1    4    4    0    0 -0.45762586604E+02  0.11678933435E+02  0.58451204952E+02  0.75147556043E+02  0.00000000000E+00 0.  1.
         13    1    4    4    0    0 -0.28836360787E+02 -0.74458046125E+02  0.20505225255E+03  0.22004990937E+03  0.00000000000E+00 0. -1.
         21    1    1    2  502  501  0.30993602085E+02  0.62866485014E+02 -0.15031831457E+02  0.71685104905E+02  0.00000000000E+00 0.  1.
<scales pt_clust_5="13000.00000" pt_clust_6="13000.00000" pt_clust_7="13000.00000" pt_clust_8="13000.00000" pt_clust_9="70.09136"></scales>
<clustering>
<clus scale="   70.091">  2  9  1 -1</clus>
<clus scale="   80.964">  5  6 -1 -1</clus>
<clus scale="   90.561">  7  8 -1 -1</clus>
<clus scale="  123.089">  2  5  1 -1</clus>
<clus scale="  129.603">  1  5  2 -1</clus>
</clustering>
</event>
<event>
 9    1  0.3846604E-005  0.1203586E+03  0.7546771E-02  0.1245551E+00
          1   -1    0    0  502    0  0.00000000000E+00  0.00000000000E+00  0.36266878995E+03  0.36266878995E+03  0.00000000000E+00 0. -1.
         -2   -1    0    0    0  501 -0.00000000000E+00 -0.00000000000E+00 -0.67708849972E+02  0.67708849972E+02  0.00000000000E+00 0.  1.
        -24    2    1    2    0    0 -0.62681910820E+02 -0.28089351322E+02  0.93315799599E+02  0.14040428135E+03  0.79293695617E+02 0.  0.
         23    2    1    2    0    0  0.90208830568E+02  0.11710035160E+02  0.21912614206E+03  0.25348180214E+03  0.89230038927E+02 0.  0.
         13    1    3    3    0    0 -0.30308700371E+02 -0.54785301600E+02  0.61318909422E+02  0.87635924382E+02  0.00000000000E+00 0. -1.
        -14    1    3    3    0    0 -0.32373210449E+02  0.26695950278E+02  0.31996890178E+02  0.52768356968E+02  0.00000000000E+00 0.  1.
        -13    1    4    4    0    0  0.66709102413E+02  0.26908986621E+02  0.65365307353E+02  0.97194759690E+02  0.00000000000E+00 0.  1.
         13    1    4    4    0    0  0.23499728155E+02 -0.15198951461E+02  0.15376083470E+03  0.15628704245E+03  0.00000000000E+00 0. -1.
         21    1    1    2  502  501 -0.27526919748E+02  0.16379316163E+02 -0.17482001673E+02  0.36491556438E+02  0.00000000000E+00 0.  1.
<scales pt_clust_5="13000.00000" pt_clust_6="13000.00000" pt_clust_7="13000.00000" pt_clust_8="13000.00000" pt_clust_9="32.03144"></scales>
<clustering>
<clus scale="   32.031">  2  9  1 -1</clus>
<clus scale="   79.294">  5  6 -1 -1</clus>
<clus scale="   89.230">  7  8 -1 -1</clus>
<clus scale="  113.189">  2  5  1 -1</clus>
<clus scale="  120.359">  1  5  2 -1</clus>
</clustering>
</event>
<event>
 9    1  0.3846604E-005  0.9304591E+02  0.7546771E-02  0.1303719E+00
         -2   -1    0    0    0  501 -0.00000000000E+00  0.00000000000E+00  0.12749029020E+03  0.12749029020E+03  0.00000000000E+00 0.  1.
          1   -1    0    0  502    0  0.00000000000E+00 -0.00000000000E+00 -0.39934225109E+03  0.39934225109E+03  0.00000000000E+00 0. -1.
        -24    2    1    2    0    0  0.73170454610E+01 -0.76338390619E+01  0.93925382852E+02  0.12324652922E+03  0.79094340933E+02 0.  0.
         23    2    1    2    0    0 -0.54607477323E+02  0.33949552948E+02 -0.28510254091E+03  0.30644011378E+03  0.92127823026E+02 0.  0.
         11    1    3    3    0    0 -0.34566959199E+01  0.30954162878E+02  0.14644317865E+02  0.34417509961E+02  0.00000000000E+00 0. -1.
        -12    1    3    3    0    0  0.10773741381E+02 -0.38588001940E+02  0.79281064987E+02  0.88829019259E+02  0.00000000000E+00 0.  1.
        -11    1    4    4    0    0 -0.78471146148E+01  0.37840380448E+02 -0.23357205642E+03  0.23674749659E+03  0.00000000000E+00 0. -1.
         11    1    4    4    0    0 -0.46760362708E+02 -0.38908274994E+01 -0.51530484483E+02  0.69692617186E+02  0.00000000000E+00 0.  1.
         21    1    1    2  502  501  0.47290431862E+02 -0.26315713886E+02 -0.80674802839E+02  0.97145898298E+02  0.00000000000E+00 0. -1.
<scales pt_clust_5="13000.00000" pt_clust_6="13000.00000" pt_clust_7="13000.00000" pt_clust_8="13000.00000" pt_clust_9="54.11933"></scales>
<clustering>
<clus scale="   54.119">  2  9  1 -1</clus>
<clus scale="   79.094">  5  6 -1 -1</clus>
<clus scale="   80.162">  1  5  2 -1</clus>
<clus scale="   92.128">  7  8 -1 -1</clus>
<clus scale="   54.119">  2  5  1 -1</clus>
</clustering>
</event>
<event>
 9    1  0.3846604E-005  0.9303744E+02  0.7546771E-02  0.1301646E+00
         -2   -1    0    0    0  501 -0.00000000000E+00  0.00000000000E+00  0.84389505479E+02  0.84389505479E+02  0.00000000000E+00 0.  1.
          1   -1    0    0  502    0  0.00000000000E+00 -0.00000000000E+00 -0.24674325140E+03  0.24674325140E+03  0.00000000000E+00 0. -1.
        -24    2    1    2    0    0  0.57996401444E+02  0.96510614376E+01 -0.18160071018E+02  0.10108844541E+03  0.80201995287E+02 0.  0.
         23    2    1    2    0    0 -0.35021738291E+01 -0.16972538617E+02 -0.14875903191E+03  0.17487124416E+03  0.90279400597E+02 0.  0.
         13    1    3    3    0    0 -0.15715090302E+02  0.18730819515E+02  0.70881179756E+00  0.24460377697E+02  0.00000000000E+00 0. -1.
        -14    1    3    3    0    0  0.73711491746E+02 -0.90797580772E+01 -0.18868882816E+02  0.76628067709E+02  0.00000000000E+00 0.  1.
        -11    1    4    4    0    0  0.27411523350E+02 -0.17681736119E+02 -0.12154107131E+02  0.34810310609E+02  0.00000000000E+00 0.  1.
         11    1    4    4    0    0 -0.30913697179E+02  0.70919750191E+00 -0.13660492478E+03  0.14006093355E+03  0.00000000000E+00 0. -1.
         21    1    1    2  502  501 -0.54494227615E+02  0.73214771799E+01  0.45653570093E+01  0.55173067307E+02  0.00000000000E+00 0. -1.
<scales pt_clust_5="13000.00000" pt_clust_6="13000.00000" pt_clust_7="13000.00000" pt_clust_8="13000.00000" pt_clust_9="54.98386"></scales>
<clustering>
<clus scale="   54.984">  1  9  2 -1</clus>
<clus scale="   80.202">  5  6 -1 -1</clus>
<clus scale="   83.294">  1  5  2 -1</clus>
<clus scale="   90.279">  7  8 -1 -1</clus>
<clus scale="   93.037">  2  5  1 -1</clus>
</clustering>
</event>
<event>
 9    1  0.3846604E-005  0.1168081E+03  0.7546771E-02  0.1250955E+00
          1   -1    0    0  502    0  0.00000000000E+00  0.00000000000E+00  0.44213754505E+03  0.44213754505E+03  0.00000000000E+00 0. -1.
         -2   -1    0    0    0  501 -0.00000000000E+00 -0.00000000000E+00 -0.53786387230E+02  0.53786387230E+02  0.00000000000E+00 0.  1.
        -24    2    1    2    0    0  0.62196609585E+02  0.13385267659E+02  0.81609154960E+02  0.13118507923E+03  0.80634280590E+02 0.  0.
         23    2    1    2    0    0 -0.77959561870E+02 -0.26430706239E+02  0.31886674737E+03  0.34095517036E+03  0.88307135055E+02 0.  0.
         11    1    3    3    0    0 -0.12179185434E+02  0.22793379752E+02  0.32674523183E+02  0.41659274881E+02  0.00000000000E+00 0. -1.
        -12    1    3    3    0    0  0.74375795020E+02 -0.94081120939E+01  0.48934631777E+02  0.89525804354E+02  0.00000000000E+00 0.  1.
        -11    1    4    4    0    0 -0.27395098738E+02 -0.55860491183E+02  0.16549095546E+03  0.17679972356E+03  0.00000000000E+00 0.  1.
         11    1    4    4    0    0 -0.50564463132E+02  0.29429784944E+02  0.15337579190E+03  0.16415544681E+03  0.00000000000E+00 0. -1.
         21    1    1    2  502  501  0.15762952285E+02  0.13045438581E+02 -0.12124744508E+02  0.23783682682E+02  0.00000000000E+00 0.  1.
<scales pt_clust_5="13000.00000" pt_clust_6="13000.00000" pt_clust_7="13000.00000" pt_clust_8="13000.00000" pt_clust_9="20.46104"></scales>
<clustering>
<clus scale="   20.461">  2  9  1 -1</clus>
<clus scale="   80.634">  5  6 -1 -1</clus>
<clus scale="   88.307">  7  8 -1 -1</clus>
<clus scale="  111.121">  2  5  1 -1</clus>
<clus scale="  116.808">  1  5  2 -1</clus>
</clustering>
</event>
<event>
 9    1  0.3846604E-005  0.1142605E+03  0.7546771E-02  0.1257510E+00
          1   -1    0    0  502    0  0.00000000000E+00  0.00000000000E+00  0.85860519933E+03  0.85860519933E+03  0.00000000000E+00 0. -1.
         -2   -1    0    0    0  501 -0.00000000000E+00 -0.00000000000E+00 -0.33899525304E+02  0.33899525304E+02  0.00000000000E+00 0.  1.
        -24    2    1    2    0    0 -0.32507656766E+02 -0.52310021493E+02  0.11939599936E+03  0.15679088508E+03  0.80838671953E+02 0.  0.
         23    2    1    2    0    0  0.96365337112E+02  0.29116048262E+02  0.53525244983E+03  0.55258758952E+03  0.93401480613E+02 0.  0.
         11    1    3    3    0    0 -0.55981223267E+02 -0.53506738888E+02  0.98859189292E+02  0.12557869155E+03  0.00000000000E+00 0. -1.
        -12    1    3    3    0    0  0.23473566501E+02  0.11967173954E+01  0.20536810072E+02  0.31212193526E+02  0.00000000000E+00 0.  1.
        -11    1    4    4    0    0  0.97733318821E+02 -0.43248779650E+01  0.45905959746E+03  0.46936789430E+03  0.00000000000E+00 0.  1.
         11    1    4    4    0    0 -0.13679817095E+01  0.33440926227E+02  0.76192852375E+02  0.83219695229E+02  0.00000000000E+00 0. -1.
         21    1    1    2  502  501 -0.63857680346E+02  0.23193973231E+02  0.17005722483E+03  0.18312625003E+03  0.00000000000E+00 0. -1.
<scales pt_clust_5="13000.00000" pt_clust_6="13000.00000" pt_clust_7="13000.00000" pt_clust_8="13000.00000" pt_clust_9="67.93941"></scales>
<clustering>
<clus scale="   67.939">  1  9  2 -1</clus>
<clus scale="   80.839">  5  6 -1 -1</clus>
<clus scale="   93.401">  7  8 -1 -1</clus>
<clus scale="  104.243">  2  5  1 -1</clus>
<clus scale="   67.939">  1  5  2 -1</clus>
</clustering>
</event>
<event>
 9    1  0.3846604E-005  0.1454015E+03  0.7546771E-02  0.1208309E+00
          1   -1    0    0  502    0  0.00000000000E+00  0.00000000000E+00  0.99017665775E+02  0.99017665775E+02  0.00000000000E+00 0. -1.
         -2   -1    0    0    0  501 -0.00000000000E+00 -0.00000000000E+00 -0.38404011063E+03  0.38404011063E+03  0.00000000000E+00 0.  1.
        -24    2    1    2    0    0 -0.11412637478E+03 -0.86153855318E+02 -0.19754615062E+03  0.25678058405E+03  0.80401931042E+02 0.  0.
         23    2    1    2    0    0  0.75679022546E+02  0.71411853298E+02 -0.99722797501E+01  0.13851388693E+03  0.90882799601E+02 0.  0.
         11    1    3    3    0    0 -0.28094724313E+02  0.10010177781E+02 -0.15409041465E+02  0.33570161637E+02  0.00000000000E+00 0. -1.
        -12    1    3    3    0    0 -0.86031650470E+02 -0.96164033100E+02 -0.18213710916E+03  0.22321042242E+03  0.00000000000E+00 0.  1.
        -13    1    4    4    0    0  0.92327349260E+02  0.40622600151E+02  0.36988703986E+01  0.10093669653E+03  0.00000000000E+00 0.  1.
         13    1    4    4    0    0 -0.16648326713E+02  0.30789253147E+02 -0.13671150149E+02  0.37577190397E+02  0.00000000000E+00 0. -1.
         21    1    1    2  502  501  0.38447352236E+02  0.14742002020E+02 -0.77504014480E+02  0.87763305419E+02  0.00000000000E+00 0.  1.
<scales pt_clust_5="13000.00000" pt_clust_6="13000.00000" pt_clust_7="13000.00000" pt_clust_8="13000.00000" pt_clust_9="41.17676"></scales>
<clustering>
<clus scale="   41.177">  2  9  1 -1</clus>
<clus scale="   80.402">  5  6 -1 -1</clus>
<clus scale="   90.883">  7  8 -1 -1</clus>
<clus scale="  139.091">  2  5  1 -1</clus>
<clus scale="  145.401">  1  5  2 -1</clus>
</clustering>
</event>
<event>
 9    1  0.3846604E-005  0.1213183E+03  0.7546771E-02  0.1244942E+00
          1   -1    0    0  502    0  0.00000000000E+00  0.00000000000E+00  0.26991644088E+03  0.26991644088E+03  0.00000000000E+00 0. -1.
         -2   -1    0    0    0  501 -0.00000000000E+00 -0.00000000000E+00 -0.15849686452E+03  0.15849686452E+03  0.00000000000E+00 0.  1.
         23    2    1    2    0    0 -0.54467372433E+02  0.64282023550E+02 -0.11007062289E+03  0.16664851317E+03  0.92505738774E+02 0.  0.
        -24    2    1    2    0    0  0.28357703961E+02 -0.28053524139E+02  0.17971037012E+03  0.20061110813E+03  0.79736064522E+02 0.  0.
         11    1    4    4    0    0  0.19751354986E+02 -0.41863409974E+02  0.17837620366E+03  0.18428437577E+03  0.00000000000E+00 0. -1.
        -12    1    4    4    0    0  0.86063489752E+01  0.13809885834E+02  0.13341664547E+01  0.16326732360E+02  0.00000000000E+00 0.  1.
        -11    1    3    3    0    0  0.12495277054E+01 -0.22142073805E+02 -0.22383581040E+02  0.31509640621E+02  0.00000000000E+00 0. -1.
         11    1    3    3    0    0 -0.55716900138E+02  0.86424097356E+02 -0.87687041853E+02  0.13513887255E+03  0.00000000000E+00 0.  1.
         21    1    1    2  502  501  0.26109668471E+02 -0.36228499411E+02  0.41779829140E+02  0.61153684110E+02  0.00000000000E+00 0. -1.
<scales pt_clust_5="13000.00000" pt_clust_6="13000.00000" pt_clust_7="13000.00000" pt_clust_8="13000.00000" pt_clust_9="44.65668"></scales>
<clustering>
<clus scale="   44.657">  1  9  2 -1</clus>
<clus scale="   79.736">  5  6 -1 -1</clus>
<clus scale="   92.506">  7  8 -1 -1</clus>
<clus scale="  111.887">  1  5  2 -1</clus>
<clus scale="   44.657">  1  5  2 -1</clus>
</clustering>
</event>
<event>
 9    1  0.3846604E-005  0.1834366E+03  0.7546771E-02  0.1170620E+00
         -4   -1    0    0    0  501 -0.00000000000E+00  0.00000000000E+00  0.57087478430E+03  0.57087478430E+03  0.00000000000E+00 0.  1.
          3   -1    0    0  502    0  0.00000000000E+00 -0.00000000000E+00 -0.62620135989E+02  0.62620135989E+02  0.00000000000E+00 0. -1.
         23    2    1    2    0    0 -0.58572361421E+02 -0.12424380800E+03  0.23559196530E+03  0.29841595012E+03  0.12116624869E+03 0.  0.
        -24    2    1    2    0    0  0.31797177215E+02  0.13577100239E+03  0.19947705787E+03  0.25630129296E+03  0.80339470896E+02 0.  0.
         11    1    4    4    0    0 -0.19688552818E+02  0.53538028797E+02  0.40142574885E+02  0.69752318656E+02  0.00000000000E+00 0. -1.
        -12    1    4    4    0    0  0.51485730032E+02  0.82232973597E+02  0.15933448299E+03  0.18654897430E+03  0.00000000000E+00 0.  1.
        -11    1    3    3    0    0 -0.87019238697E+02 -0.78493165924E+02  0.10578456263E+03  0.15787304612E+03  0.00000000000E+00 0. -1.
         11    1    3    3    0    0  0.28446877276E+02 -0.45750642080E+02  0.12980740266E+03  0.14054290400E+03  0.00000000000E+00 0.  1.
         21    1    1    2  502  501  0.26775184206E+02 -0.11527194390E+02  0.73185625140E+02  0.78777677212E+02  0.00000000000E+00 0.  1.
<scales pt_clust_5="13000.00000" pt_clust_6="13000.00000" pt_clust_7="13000.00000" pt_clust_8="13000.00000" pt_clust_9="29.15110"></scales>
<clustering>
<clus scale="   29.151">  1  9  2 -1</clus>
<clus scale="   80.339">  5  6 -1 -1</clus>
<clus scale="  121.166">  7  8 -1 -1</clus>
<clus scale="  159.443">  2  5  1 -1</clus>
<clus scale="  159.443">  2  5  1 -1</clus>
</clustering>
</event>
<event>
 9    1  0.3888821E-005  0.2712883E+03  0.7546771E-02  0.1101311E+00
         -2   -1    0    0    0  501 -0.00000000000E+00  0.00000000000E+00  0.20699715773E+03  0.20699715773E+03  0.00000000000E+00 0.  1.
          1   -1    0    0  502    0  0.00000000000E+00 -0.00000000000E+00 -0.94892210860E+03  0.94892210860E+03  0.00000000000E+00 0. -1.
        -24    2    1    2    0    0 -0.21725560654E+03  0.79067020633E+02  0.91840074624E+02  0.26163378175E+03  0.81031130547E+02 0.  0.
         23    2    1    2    0    0  0.24440207616E+03 -0.76619288326E+02 -0.81833752629E+03  0.86296568354E+03  0.97111141761E+02 0.  0.
         11    1    3    3    0    0 -0.15264518454E+03  0.55331241426E+02  0.22474185242E+02  0.16391213391E+03  0.00000000000E+00 0. -1.
        -12    1    3    3    0    0 -0.64610422005E+02  0.23735779207E+02  0.69365889382E+02  0.97721647837E+02  0.00000000000E+00 0.  1.
        -11    1    4    4    0    0  0.10311873160E+03  0.25596932535E+01 -0.43019698797E+03  0.44239063427E+03  0.00000000000E+00 0. -1.
         11    1    4    4    0    0  0.14128334456E+03 -0.79178981579E+02 -0.38814053832E+03  0.42057504926E+03  0.00000000000E+00 0.  1.
         21    1    1    2  502  501 -0.27146469619E+02 -0.24477323074E+01 -0.15427499209E+02  0.31319801054E+02  0.00000000000E+00 0.  1.
<scales pt_clust_5="13000.00000" pt_clust_6="13000.00000" pt_clust_7="13000.00000" pt_clust_8="13000.00000" pt_clust_9="27.25660"></scales>
<clustering>
<clus scale="   27.257">  1  9  2 -1</clus>
<clus scale="   81.031">  5  6 -1 -1</clus>
<clus scale="   97.111">  7  8 -1 -1</clus>
<clus scale="  265.956">  1  5  2 -1</clus>
<clus scale="  271.288">  2  5  1 -1</clus>
</clustering>
</event>
<event>
 9    1  0.3846604E-005  0.2320684E+03  0.7546771E-02  0.1125644E+00
         -4   -1    0    0    0  501 -0.00000000000E+00  0.00000000000E+00  0.26081491262E+03  0.26081491262E+03  0.00000000000E+00 0.  1.
          3   -1    0    0  502    0  0.00000000000E+00 -0.00000000000E+00 -0.37489674644E+03  0.37489674644E+03  0.00000000000E+00 0. -1.
        -24    2    1    2    0    0  0.13964759940E+03  0.14415918389E+03  0.86902117887E+01  0.21644198489E+03  0.80549926894E+02 0.  0.
         23    2    1    2    0    0 -0.22126079021E+03 -0.71244335660E+02 -0.16901253551E+03  0.30046112686E+03  0.87633092767E+02 0.  0.
         11    1    3    3    0    0  0.71129036679E+02  0.85149442629E+02 -0.34556216162E+02  0.11620628001E+03  0.00000000000E+00 0. -1.
        -12    1    3    3    0    0  0.68518562726E+02  0.59009741263E+02  0.43246427951E+02  0.10023570488E+03  0.00000000000E+00 0.  1.
        -13    1    4    4    0    0 -0.97601344154E+02 -0.18648107618E+02 -0.22943152562E+02  0.10198118723E+03  0.00000000000E+00 0.  1.
         13    1    4    4    0    0 -0.12365944605E+03 -0.52596228042E+02 -0.14606938295E+03  0.19847993964E+03  0.00000000000E+00 0. -1.
         21    1    1    2  502  501  0.81613190804E+02 -0.72914848232E+02  0.46240489909E+02  0.11880854731E+03  0.00000000000E+00 0. -1.
<scales pt_clust_5="13000.00000" pt_clust_6="13000.00000" pt_clust_7="13000.00000" pt_clust_8="13000.00000" pt_clust_9="109.44080"></scales>
<clustering>
<clus scale="   80.550">  5  6 -1 -1</clus>
<clus scale="   87.633">  7  8 -1 -1</clus>
<clus scale="  109.441">  1  9  2 -1</clus>
<clus scale="  229.487">  1  5  2 -1</clus>
<clus scale="  232.068">  2  5  1 -1</clus>
</clustering>
</event>
<event>
 9    1  0.3846604E-005  0.1511841E+03  0.7546771E-02  0.1202750E+00
          1   -1    0    0  502    0  0.00000000000E+00  0.00000000000E+00  0.32068509222E+03  0.32068509222E+03  0.00000000000E+00 0. -1.
         -2   -1    0    0    0  501 -0.00000000000E+00 -0.00000000000E+00 -0.13495758056E+03  0.13495758056E+03  0.00000000000E+00 0.  1.
        -24    2    1    2    0    0 -0.58532200671E+02 -0.11508099844E+03  0.12496241049E+03  0.19238273925E+03  0.68744887859E+02 0.  0.
         23    2    1    2    0    0  0.79889332858E+02  0.84059606688E+02  0.12227180392E+03  0.19113831177E+03  0.90194995478E+02 0.  0.
         11    1    3    3    0    0 -0.43386179430E+02 -0.71249668599E+02  0.33615117722E+02  0.89938045234E+02  0.00000000000E+00 0. -1.
        -12    1    3    3    0    0 -0.15146021241E+02 -0.43831329843E+02  0.91347292769E+02  0.10244469401E+03  0.00000000000E+00 0.  1.
        -11    1    4    4    0    0  0.40107378906E+02  0.46751563975E+02  0.49949385693E+01  0.61800161716E+02  0.00000000000E+00 0.  1.
         11    1    4    4    0    0  0.39781953952E+02  0.37308042714E+02  0.11727686535E+03  0.12933815005E+03  0.00000000000E+00 0. -1.
         21    1    1    2  502  501 -0.21357132187E+02  0.31021391754E+02 -0.61506702763E+02  0.72121621767E+02  0.00000000000E+00 0.  1.
<scales pt_clust_5="13000.00000" pt_clust_6="13000.00000" pt_clust_7="13000.00000" pt_clust_8="13000.00000" pt_clust_9="37.66237"></scales>
<clustering>
<clus scale="   37.662">  2  9  1 -1</clus>
<clus scale="   68.745">  5  6 -1 -1</clus>
<clus scale="   90.195">  7  8 -1 -1</clus>
<clus scale="  139.454">  2  5  1 -1</clus>
<clus scale="  151.184">  1  5  2 -1</clus>
</clustering>
</event>
<event>
 9    1  0.3846604E-005  0.1083405E+03  0.7546771E-02  0.1264472E+00
          3   -1    0    0  502    0  0.00000000000E+00  0.00000000000E+00  0.88452646223E+02  0.88452646223E+02  0.00000000000E+00 0. -1.
         -4   -1    0    0    0  501 -0.00000000000E+00 -0.00000000000E+00 -0.39391593927E+03  0.39391593927E+03  0.00000000000E+00 0.  1.
         23    2    1    2    0    0 -0.30755789234E+02 -0.52621089421E+02 -0.25897323617E+03  0.28025180567E+03  0.88085412564E+02 0.  0.
        -24    2    1    2    0    0 -0.23992371251E+02  0.58795439956E+02  0.23833110959E+02  0.11278127951E+03  0.90105838837E+02 0.  0.
         13    1    4    4    0    0 -0.35990986602E+01  0.67658975229E+02  0.45595438728E+02  0.81667830099E+02  0.00000000000E+00 0. -1.
        -14    1    4    4    0    0 -0.20393272590E+02 -0.88635352731E+01 -0.21762327769E+02  0.31113449414E+02  0.00000000000E+00 0.  1.
        -11    1    3    3    0    0 -0.18758080054E+02 -0.75015596251E+02 -0.15496891865E+03  0.17318940786E+03  0.00000000000E+00 0.  1.
         11    1    3    3    0    0 -0.11997709180E+02  0.22394506830E+02 -0.10400431752E+03  0.10706239781E+03  0.00000000000E+00 0. -1.
         21    1    1    2  502  501  0.54748160484E+02 -0.61743505351E+01 -0.70323167833E+02  0.89335500307E+02  0.00000000000E+00 0. -1.
<scales pt_clust_5="13000.00000" pt_clust_6="13000.00000" pt_clust_7="13000.00000" pt_clust_8="13000.00000" pt_clust_9="55.09522"></scales>
<clustering>
<clus scale="   55.095">  2  9  1 -1</clus>
<clus scale="   88.085">  7  8 -1 -1</clus>
<clus scale="   90.106">  5  6 -1 -1</clus>
<clus scale="  106.666">  2  7  1 -1</clus>
<clus scale="  108.341">  1  5  2 -1</clus>
</clustering>
</event>
<event>
 9    1  0.3846604E-005  0.1169288E+03  0.7546771E-02  0.1250568E+00
          1   -1    0    0  502    0  0.00000000000E+00  0.00000000000E+00  0.44818350427E+03  0.44818350427E+03  0.00000000000E+00 0. -1.
         -2   -1    0    0    0  501 -0.00000000000E+00 -0.00000000000E+00 -0.10221918235E+03  0.10221918235E+03  0.00000000000E+00 0.  1.
         23    2    1    2    0    0 -0.35320914860E+02  0.54482098021E+02 -0.35915750135E+02  0.11970877013E+03  0.93938184504E+02 0.  0.
        -24    2    1    2    0    0  0.11410859982E+02 -0.59184850810E+02  0.38828083092E+03  0.40549914873E+03  0.10017235979E+03 0.  0.
         13    1    4    4    0    0 -0.43903230727E+02 -0.30416356095E+02  0.20773063241E+03  0.21448697869E+03  0.00000000000E+00 0. -1.
        -14    1    4    4    0    0  0.55314090709E+02 -0.28768494716E+02  0.18055019852E+03  0.19101217004E+03  0.00000000000E+00 0.  1.
        -13    1    3    3    0    0 -0.50333083823E+02 -0.33203108332E+01 -0.83914195148E+00  0.50449459366E+02  0.00000000000E+00 0. -1.
         13    1    3    3    0    0  0.15012168963E+02  0.57802408854E+02 -0.35076608184E+02  0.69259310768E+02  0.00000000000E+00 0.  1.
         21    1    1    2  502  501  0.23910054878E+02  0.47027527895E+01 -0.64007588707E+01  0.25194767754E+02  0.00000000000E+00 0.  1.
<scales pt_clust_5="13000.00000" pt_clust_6="13000.00000" pt_clust_7="13000.00000" pt_clust_8="13000.00000" pt_clust_9="24.36815"></scales>
<clustering>
<clus scale="   24.368">  2  9  1 -1</clus>
<clus scale="   93.938">  7  8 -1 -1</clus>
<clus scale="  100.172">  5  6 -1 -1</clus>
<clus scale="  111.634">  2  7  1 -1</clus>
<clus scale="  116.929">  1  5  2 -1</clus>
</clustering>
</event>
<event>
 9    1  0.3846604E-005  0.1545160E+03  0.7546771E-02  0.1204530E+00
          1   -1    0    0  502    0  0.00000000000E+00  0.00000000000E+00  0.23137502093E+03  0.23137502093E+03  0.00000000000E+00 0. -1.
         -2   -1    0    0    0  501 -0.00000000000E+00 -0.00000000000E+00 -0.83300333557E+03  0.83300333557E+03  0.00000000000E+00 0.  1.
        -24    2    1    2    0    0 -0.52002929733E+02  0.10196406246E+03 -0.47003319723E+03  0.49032334928E+03  0.79904978687E+02 0.  0.
         23    2    1    2    0    0 -0.82578809759E+02  0.22814357285E+02  0.17575511879E+03  0.21608005511E+03  0.91983551336E+02 0.  0.
         13    1    3    3    0    0 -0.41898243659E+02  0.67113046446E+02 -0.16335756747E+03  0.18150845346E+03  0.00000000000E+00 0. -1.
        -14    1    3    3    0    0 -0.10104686074E+02  0.34851016014E+02 -0.30667562976E+03  0.30881489583E+03  0.00000000000E+00 0.  1.
        -13    1    4    4    0    0 -0.85842357968E+02 -0.15488297207E+02  0.12419048060E+03  0.15176321439E+03  0.00000000000E+00 0. -1.
         13    1    4    4    0    0  0.32635482088E+01  0.38302654491E+02  0.51564638190E+02  0.64316840716E+02  0.00000000000E+00 0.  1.
         21    1    1    2  502  501  0.13458173949E+03 -0.12477841975E+03 -0.30735023620E+03  0.35797495210E+03  0.00000000000E+00 0.  1.
<scales pt_clust_5="13000.00000" pt_clust_6="13000.00000" pt_clust_7="13000.00000" pt_clust_8="13000.00000" pt_clust_9="132.25128"></scales>
<clustering>
<clus scale="   79.905">  5  6 -1 -1</clus>
<clus scale="   91.984">  7  8 -1 -1</clus>
<clus scale="  125.701">  1  7  2 -1</clus>
<clus scale="  132.251">  1  9  2 -1</clus>
<clus scale="  125.701">  1  5  2 -1</clus>
</clustering>
</event>
<event>
 9    1  0.3846604E-005  0.9992739E+02  0.7546771E-02  0.1295006E+00
         -2   -1    0    0    0  501 -0.00000000000E+00  0.00000000000E+00  0.30892726538E+03  0.30892726538E+03  0.00000000000E+00 0.  1.
          1   -1    0    0  502    0  0.00000000000E+00 -0.00000000000E+00 -0.82119161146E+02  0.82119161146E+02  0.00000000000E+00 0. -1.
         23    2    1    2    0    0  0.21816571562E+02 -0.19482386161E+02  0.71694052151E+02  0.12265700625E+03  0.95127167012E+02 0.  0.
        -24    2    1    2    0    0 -0.32791139753E+02 -0.13626281384E+01 -0.29418649652E+02  0.82359116888E+02  0.69573353991E+02 0.  0.
         13    1    4    4    0    0 -0.80469282412E+01  0.32372620531E+02 -0.21757834968E+02  0.39826410793E+02  0.00000000000E+00 0. -1.
        -14    1    4    4    0    0 -0.24744211512E+02 -0.33735248670E+02 -0.76608146840E+01  0.42532706095E+02  0.00000000000E+00 0.  1.
        -11    1    3    3    0    0 -0.93471003730E+01  0.30384651799E+02  0.51425475377E+02  0.60458042212E+02  0.00000000000E+00 0. -1.
         11    1    3    3    0    0  0.31163671935E+02 -0.49867037959E+02  0.20268576774E+02  0.62198964041E+02  0.00000000000E+00 0.  1.
         21    1    1    2  502  501  0.10974568191E+02  0.20845014299E+02  0.18453270173E+03  0.18603030338E+03  0.00000000000E+00 0.  1.
<scales pt_clust_5="13000.00000" pt_clust_6="13000.00000" pt_clust_7="13000.00000" pt_clust_8="13000.00000" pt_clust_9="23.55750"></scales>
<clustering>
<clus scale="   23.557">  1  9  2 -1</clus>
<clus scale="   69.573">  5  6 -1 -1</clus>
<clus scale="   76.005">  2  5  1 -1</clus>
<clus scale="   95.127">  7  8 -1 -1</clus>
<clus scale="   76.005">  2  5  1 -1</clus>
</clustering>
</event>
<event>
 9    1  0.3846604E-005  0.1763028E+03  0.7546771E-02  0.1173035E+00
         -2   -1    0    0    0  501 -0.00000000000E+00  0.00000000000E+00  0.51838927422E+03  0.51838927422E+03  0.00000000000E+00 0.  1.
          1   -1    0    0  502    0  0.00000000000E+00 -0.00000000000E+00 -0.13611141304E+03  0.13611141304E+03  0.00000000000E+00 0. -1.
        -24    2    1    2    0    0  0.11448394173E+03 -0.67964705305E+02  0.36009876100E+03  0.39181929978E+03  0.78265394196E+02 0.  0.
         23    2    1    2    0    0 -0.13524309041E+03  0.73829475749E+02 -0.51176735594E+02  0.18621952490E+03  0.91198509822E+02 0.  0.
         11    1    3    3    0    0  0.79129124619E+02 -0.83454371010E+02  0.25096567599E+03  0.27606126300E+03  0.00000000000E+00 0. -1.
        -12    1    3    3    0    0  0.35354817110E+02  0.15489665705E+02  0.10913308501E+03  0.11575803678E+03  0.00000000000E+00 0.  1.
        -13    1    4    4    0    0 -0.49023205402E+02  0.73093426722E+02 -0.47284489989E+02  0.99908691771E+02  0.00000000000E+00 0. -1.
         13    1    4    4    0    0 -0.86219885011E+02  0.73604902701E+00 -0.38922456053E+01  0.86310833128E+02  0.00000000000E+00 0.  1.
         21    1    1    2  502  501  0.20759148683E+02 -0.58647704434E+01  0.73355835779E+02  0.76461862580E+02  0.00000000000E+00 0.  1.
<scales pt_clust_5="13000.00000" pt_clust_6="13000.00000" pt_clust_7="13000.00000" pt_clust_8="13000.00000" pt_clust_9="21.57169"></scales>
<clustering>
<clus scale="   21.572">  1  9  2 -1</clus>
<clus scale="   78.265">  5  6 -1 -1</clus>
<clus scale="   91.199">  7  8 -1 -1</clus>
<clus scale="  169.973">  1  5  2 -1</clus>
<clus scale="  176.303">  2  5  1 -1</clus>
</clustering>
</event>
<event>
 9    1  0.3846604E-005  0.1540343E+03  0.7546771E-02  0.1199466E+00
          3   -1    0    0  502    0  0.00000000000E+00  0.00000000000E+00  0.82270612373E+03  0.82270612373E+03  0.00000000000E+00 0. -1.
         -4   -1    0    0    0  501 -0.00000000000E+00 -0.00000000000E+00 -0.13019969046E+03  0.13019969046E+03  0.00000000000E+00 0.  1.
        -24    2    1    2    0    0 -0.59153992175E+01 -0.11678710641E+03 -0.40533185452E+02  0.14094251992E+03  0.67436152230E+02 0.  0.
         23    2    1    2    0    0 -0.19993058493E+02  0.21729827522E+03  0.58709880440E+03  0.63287542611E+03  0.90708522409E+02 0.  0.
         11    1    3    3    0    0 -0.23164713684E+02 -0.32943087954E+02 -0.37900753181E+02  0.55302062310E+02  0.00000000000E+00 0. -1.
        -12    1    3    3    0    0  0.17249314467E+02 -0.83844018456E+02 -0.26324322711E+01  0.85640457613E+02  0.00000000000E+00 0.  1.
        -11    1    4    4    0    0 -0.43740670769E+02  0.88300199926E+02  0.32777591465E+03  0.34226776332E+03  0.00000000000E+00 0. -1.
         11    1    4    4    0    0  0.23747612276E+02  0.12899807530E+03  0.25932288976E+03  0.29060766279E+03  0.00000000000E+00 0.  1.
         21    1    1    2  502  501  0.25908457711E+02 -0.10051116881E+03  0.14594081431E+03  0.17908786815E+03  0.00000000000E+00 0.  1.
<scales pt_clust_5="13000.00000" pt_clust_6="13000.00000" pt_clust_7="13000.00000" pt_clust_8="13000.00000" pt_clust_9="103.79664"></scales>
<clustering>
<clus scale="   67.436">  5  6 -1 -1</clus>
<clus scale="   90.709">  7  8 -1 -1</clus>
<clus scale="  103.797">  1  9  2 -1</clus>
<clus scale="  141.584">  2  5  1 -1</clus>
<clus scale="  103.797">  1  5  2 -1</clus>
</clustering>
</event>
<event>
 9    1  0.3846604E-005  0.1242625E+03  0.7546771E-02  0.1239717E+00
         -4   -1    0    0    0  501 -0.00000000000E+00  0.00000000000E+00  0.83011825792E+02  0.83011825792E+02  0.00000000000E+00 0.  1.
          3   -1    0    0  502    0  0.00000000000E+00 -0.00000000000E+00 -0.26640916493E+03  0.26640916493E+03  0.00000000000E+00 0. -1.
        -24    2    1    2    0    0 -0.70197458065E+02 -0.20112951566E+02 -0.61795697618E+01  0.10842437321E+03  0.79908971242E+02 0.  0.
         23    2    1    2    0    0  0.89426659135E+02 -0.30597355262E+01 -0.16384246519E+03  0.20804765147E+03  0.91831272123E+02 0.  0.
         11    1    3    3    0    0 -0.41838099728E+02 -0.86928186667E+01 -0.42962367326E+02  0.60595022002E+02  0.00000000000E+00 0. -1.
        -12    1    3    3    0    0 -0.28359358338E+02 -0.11420132899E+02  0.36782797564E+02  0.47829351212E+02  0.00000000000E+00 0.  1.
        -11    1    4    4    0    0  0.70793557419E+01  0.32516241812E+02 -0.20922620813E+02  0.39308769009E+02  0.00000000000E+00 0.  1.
         11    1    4    4    0    0  0.82347303393E+02 -0.35575977338E+02 -0.14291984437E+03  0.16873888246E+03  0.00000000000E+00 0. -1.
         21    1    1    2  502  501 -0.19229201070E+02  0.23172687092E+02 -0.13375304195E+02  0.32948966041E+02  0.00000000000E+00 0.  1.
<scales pt_clust_5="13000.00000" pt_clust_6="13000.00000" pt_clust_7="13000.00000" pt_clust_8="13000.00000" pt_clust_9="30.11205"></scales>
<clustering>
<clus scale="   30.112">  1  9  2 -1</clus>
<clus scale="   79.909">  5  6 -1 -1</clus>
<clus scale="   91.831">  7  8 -1 -1</clus>
<clus scale="  115.731">  1  5  2 -1</clus>
<clus scale="  124.263">  2  5  1 -1</clus>
</clustering>
</event>
<event>
 9    1  0.3846604E-005  0.9831700E+02  0.7546771E-02  0.1287601E+00
         -2   -1    0    0    0  501 -0.00000000000E+00  0.00000000000E+00  0.34981659458E+03  0.34981659458E+03  0.00000000000E+00 0.  1.
          1   -1    0    0  502    0  0.00000000000E+00 -0.00000000000E+00 -0.16155248030E+03  0.16155248030E+03  0.00000000000E+00 0. -1.
        -24    2    1    2    0    0  0.20179987242E+02  0.33383542799E+02  0.12158985987E+03  0.15156109812E+03  0.81639326471E+02 0.  0.
         23    2    1    2    0    0  0.44115611039E+02  0.28674188683E+02 -0.11662311200E+03  0.15588884934E+03  0.89061702552E+02 0.  0.
         11    1    3    3    0    0  0.25002926819E+02 -0.17985098400E+02  0.78547053749E+02  0.84369720674E+02  0.00000000000E+00 0. -1.
        -12    1    3    3    0    0 -0.48229395770E+01  0.51368641199E+02  0.43042806117E+02  0.67191377447E+02  0.00000000000E+00 0.  1.
        -11    1    4    4    0    0  0.31245056765E+02 -0.17374296403E+02 -0.98446688609E+02  0.10473714836E+03  0.00000000000E+00 0. -1.
         11    1    4    4    0    0  0.12870554274E+02  0.46048485086E+02 -0.18176423390E+02  0.51151700981E+02  0.00000000000E+00 0.  1.
         21    1    1    2  502  501 -0.64295598281E+02 -0.62057731482E+02  0.18329736641E+03  0.20391912742E+03  0.00000000000E+00 0.  1.
<scales pt_clust_5="13000.00000" pt_clust_6="13000.00000" pt_clust_7="13000.00000" pt_clust_8="13000.00000" pt_clust_9="89.35931"></scales>
<clustering>
<clus scale="   81.639">  5  6 -1 -1</clus>
<clus scale="   89.062">  7  8 -1 -1</clus>
<clus scale="   89.359">  1  9  2 -1</clus>
<clus scale="   91.647">  1  5  2 -1</clus>
<clus scale="   98.317">  2  5  1 -1</clus>
</clustering>
</event>
<event>
 9    1  0.3846604E-005  0.1062893E+03  0.7546771E-02  0.1271930E+00
          1   -1    0    0  502    0  0.00000000000E+00  0.00000000000E+00  0.43603741516E+03  0.43603741516E+03  0.00000000000E+00 0. -1.
         -2   -1    0    0    0  501 -0.00000000000E+00 -0.00000000000E+00 -0.32554098174E+02  0.32554098174E+02  0.00000000000E+00 0.  1.
        -24    2    1    2    0    0  0.12071541623E+02  0.38491675935E+02  0.10646651114E+03  0.14102895517E+03  0.83226900522E+02 0.  0.
         23    2    1    2    0    0 -0.18044331390E+01 -0.58597791925E+02  0.27425566504E+03  0.29550419033E+03  0.93110684135E+02 0.  0.
         13    1    3    3    0    0  0.36360008704E+02 -0.81645279637E+00  0.16598379939E+02  0.39977781888E+02  0.00000000000E+00 0. -1.
        -14    1    3    3    0    0 -0.24288467081E+02  0.39308128731E+02  0.89868131197E+02  0.10105117329E+03  0.00000000000E+00 0.  1.
        -11    1    4    4    0    0 -0.43998356413E+02 -0.90031690187E+01  0.11058806675E+03  0.11935925991E+03  0.00000000000E+00 0.  1.
         11    1    4    4    0    0  0.42193923274E+02 -0.49594622906E+02  0.16366759829E+03  0.17614493042E+03  0.00000000000E+00 0. -1.
         21    1    1    2  502  501 -0.10267108484E+02  0.20106115990E+02  0.22761140813E+02  0.32058367830E+02  0.00000000000E+00 0.  1.
<scales pt_clust_5="13000.00000" pt_clust_6="13000.00000" pt_clust_7="13000.00000" pt_clust_8="13000.00000" pt_clust_9="22.57586"></scales>
<clustering>
<clus scale="   22.576">  2  9  1 -1</clus>
<clus scale="   83.227">  5  6 -1 -1</clus>
<clus scale="   93.111">  7  8 -1 -1</clus>
<clus scale="   97.747">  2  5  1 -1</clus>
<clus scale="  106.289">  1  5  2 -1</clus>
</clustering>
</event>
<event>
 9    1  0.3846604E-005  0.8873803E+02  0.7546771E-02  0.1311377E+00
          1   -1    0    0  502    0  0.00000000000E+00  0.00000000000E+00  0.65228420370E+02  0.65228420370E+02  0.00000000000E+00 0. -1.
         -2   -1    0    0    0  501 -0.00000000000E+00 -0.00000000000E+00 -0.19816297482E+03  0.19816297482E+03  0.00000000000E+00 0.  1.
        -24    2    1    2    0    0  0.93797994109E+01  0.44989230670E+01 -0.10243550499E+03  0.13011760448E+03  0.79557132729E+02 0.  0.
         23    2    1    2    0    0  0.12630150558E+02 -0.10906175651E+02  0.64467473863E+01  0.89794109384E+02  0.87994068878E+02 0.  0.
         11    1    3    3    0    0 -0.54333205110E+01  0.39022579854E+02 -0.70713071994E+02  0.80948262866E+02  0.00000000000E+00 0. -1.
        -12    1    3    3    0    0  0.14813119922E+02 -0.34523656787E+02 -0.31722432992E+02  0.49169341613E+02  0.00000000000E+00 0.  1.
        -13    1    4    4    0    0  0.39900816792E+02 -0.26614868171E+02 -0.16635035642E+02  0.50765645856E+02  0.00000000000E+00 0.  1.
         13    1    4    4    0    0 -0.27270666235E+02  0.15708692519E+02  0.23081783028E+02  0.39028463527E+02  0.00000000000E+00 0. -1.
         21    1    1    2  502  501 -0.22009949968E+02  0.64072525841E+01 -0.36945796850E+02  0.43479681326E+02  0.00000000000E+00 0. -1.
<scales pt_clust_5="13000.00000" pt_clust_6="13000.00000" pt_clust_7="13000.00000" pt_clust_8="13000.00000" pt_clust_9="22.92359"></scales>
<clustering>
<clus scale="   22.924">  2  9  1 -1</clus>
<clus scale="   79.557">  5  6 -1 -1</clus>
<clus scale="   80.379">  2  5  1 -1</clus>
<clus scale="   87.994">  7  8 -1 -1</clus>
<clus scale="   88.738">  1  5  2 -1</clus>
</clustering>
</event>
<event>
 9    1  0.3846604E-005  0.9673999E+02  0.7546771E-02  0.1289131E+00
         -2   -1    0    0    0  501 -0.00000000000E+00  0.00000000000E+00  0.53428675946E+02  0.53428675946E+02  0.00000000000E+00 0.  1.
          1   -1    0    0  502    0  0.00000000000E+00 -0.00000000000E+00 -0.49047094955E+03  0.49047094955E+03  0.00000000000E+00 0. -1.
        -24    2    1    2    0    0 -0.94468515717E+00 -0.33911897525E+02 -0.18166160371E+02  0.95208933045E+02  0.87085144113E+02 0.  0.
         23    2    1    2    0    0  0.50292899401E+02  0.27621155211E+02 -0.32811483912E+03  0.34518982982E+03  0.90577960961E+02 0.  0.
         11    1    3    3    0    0  0.21922212461E+02  0.89938407260E+01 -0.36273900867E+02  0.43327456125E+02  0.00000000000E+00 0. -1.
        -12    1    3    3    0    0 -0.22866897618E+02 -0.42905738251E+02  0.18107740496E+02  0.51881476920E+02  0.00000000000E+00 0.  1.
        -11    1    4    4    0    0  0.75202581909E+02  0.30353156686E+02 -0.22824547455E+03  0.24222456337E+03  0.00000000000E+00 0. -1.
         11    1    4    4    0    0 -0.24909682509E+02 -0.27320014753E+01 -0.99869364574E+02  0.10296526645E+03  0.00000000000E+00 0.  1.
         21    1    1    2  502  501 -0.49348214244E+02  0.62907423137E+01 -0.90761274110E+02  0.10350086263E+03  0.00000000000E+00 0. -1.
<scales pt_clust_5="13000.00000" pt_clust_6="13000.00000" pt_clust_7="13000.00000" pt_clust_8="13000.00000" pt_clust_9="49.74756"></scales>
<clustering>
<clus scale="   49.748">  2  9  1 -1</clus>
<clus scale="   87.085">  5  6 -1 -1</clus>
<clus scale="   90.578">  7  8 -1 -1</clus>
<clus scale="   93.478">  1  5  2 -1</clus>
<clus scale="   49.748">  2  5  1 -1</clus>
</clustering>
</event>
<event>
 9    1  0.3846604E-005  0.9911442E+02  0.7546771E-02  0.1291874E+00
         -2   -1    0    0    0  501 -0.00000000000E+00  0.00000000000E+00  0.15917656211E+03  0.15917656211E+03  0.00000000000E+00 0.  1.
          1   -1    0    0  502    0  0.00000000000E+00 -0.00000000000E+00 -0.43269371908E+03  0.43269371908E+03  0.00000000000E+00 0. -1.
         23    2    1    2    0    0 -0.36552394946E+02 -0.10091367681E+02  0.12260726019E+03  0.15727086867E+03  0.90904744661E+02 0.  0.
        -24    2    1    2    0    0  0.77153388014E+02 -0.39036834775E+02 -0.28447227320E+03  0.30603727904E+03  0.72510841911E+02 0.  0.
         13    1    4    4    0    0  0.24984873164E+02 -0.53120398478E+02 -0.14143709291E+03  0.15313546902E+03  0.00000000000E+00 0. -1.
        -14    1    4    4    0    0  0.52168514849E+02  0.14083563702E+02 -0.14303518029E+03  0.15290181002E+03  0.00000000000E+00 0.  1.
        -11    1    3    3    0    0  0.32856613212E+01  0.35838349007E+02  0.32017805939E+02  0.48169728326E+02  0.00000000000E+00 0.  1.
         11    1    3    3    0    0 -0.39838056267E+02 -0.45929716688E+02  0.90589454253E+02  0.10910114034E+03  0.00000000000E+00 0. -1.
         21    1    1    2  502  501 -0.40600993068E+02  0.49128202456E+02 -0.11165214396E+03  0.12856213348E+03  0.00000000000E+00 0.  1.
<scales pt_clust_5="13000.00000" pt_clust_6="13000.00000" pt_clust_7="13000.00000" pt_clust_8="13000.00000" pt_clust_9="63.73399"></scales>
<clustering>
<clus scale="   63.734">  2  9  1 -1</clus>
<clus scale="   72.511">  5  6 -1 -1</clus>
<clus scale="   82.570">  2  5  1 -1</clus>
<clus scale="   90.905">  7  8 -1 -1</clus>
<clus scale="   63.734">  2  5  1 -1</clus>
</clustering>
</event>
<event>
 9    1  0.3846604E-005  0.1055976E+03  0.7546771E-02  0.1272654E+00
         -2   -1    0    0    0  501 -0.00000000000E+00  0.00000000000E+00  0.52545005243E+02  0.52545005243E+02  0.00000000000E+00 0.  1.
          1   -1    0    0  502    0  0.00000000000E+00 -0.00000000000E+00 -0.54424402135E+03  0.54424402135E+03  0.00000000000E+00 0. -1.
        -24    2    1    2    0    0 -0.23776091960E+02 -0.36081929353E+02 -0.16769497446E+02  0.93059071580E+02  0.80694278508E+02 0.  0.
         23    2    1    2    0    0 -0.17500048170E+02  0.58568301870E+02 -0.40667156906E+03  0.42085351460E+03  0.89439465523E+02 0.  0.
         13    1    3    3    0    0 -0.17745014488E+02  0.20135422713E+02 -0.24068245073E+02  0.36049982079E+02  0.00000000000E+00 0. -1.
        -14    1    3    3    0    0 -0.60310774720E+01 -0.56217352066E+02  0.72987476279E+01  0.57009089501E+02  0.00000000000E+00 0.  1.
        -11    1    4    4    0    0 -0.12962997524E+02 -0.21800214753E+02 -0.63733696978E+02  0.68594991061E+02  0.00000000000E+00 0.  1.
         11    1    4    4    0    0 -0.45370506453E+01  0.80368516623E+02 -0.34293787209E+03  0.35225852353E+03  0.00000000000E+00 0. -1.
         21    1    1    2  502  501  0.41276140130E+02 -0.22486372516E+02 -0.68257949596E+02  0.82876440415E+02  0.00000000000E+00 0. -1.
<scales pt_clust_5="13000.00000" pt_clust_6="13000.00000" pt_clust_7="13000.00000" pt_clust_8="13000.00000" pt_clust_9="47.00379"></scales>
<clustering>
<clus scale="   47.004">  1  9  2 -1</clus>
<clus scale="   80.694">  5  6 -1 -1</clus>
<clus scale="   89.439">  7  8 -1 -1</clus>
<clus scale="   98.301">  1  5  2 -1</clus>
<clus scale="  105.598">  2  5  1 -1</clus>
</clustering>
</event>
<event>
 9    1  0.3846604E-005  0.1220704E+03  0.7546771E-02  0.1245974E+00
         -2   -1    0    0    0  501 -0.00000000000E+00  0.00000000000E+00  0.91421245527E+02  0.91421245527E+02  0.00000000000E+00 0.  1.
          1   -1    0    0  502    0  0.00000000000E+00 -0.00000000000E+00 -0.30242436266E+03  0.30242436266E+03  0.00000000000E+00 0. -1.
         23    2    1    2    0    0  0.10617644891E+02  0.57037791552E+02 -0.45375075985E+02  0.12291789578E+03  0.98406643746E+02 0.  0.
        -24    2    1    2    0    0 -0.24424318398E+02 -0.73720306453E+02 -0.20082582511E+03  0.22960199969E+03  0.79717220975E+02 0.  0.
         13    1    4    4    0    0  0.10438715821E+02 -0.58566576768E+02 -0.17169691329E+03  0.18171087127E+03  0.00000000000E+00 0. -1.
        -14    1    4    4    0    0 -0.34863034219E+02 -0.15153729685E+02 -0.29128911813E+02  0.47891128424E+02  0.00000000000E+00 0.  1.
        -13    1    3    3    0    0 -0.36612963404E+02 -0.29627666274E+01 -0.23033330338E+02  0.43356906968E+02  0.00000000000E+00 0. -1.
         13    1    3    3    0    0  0.47230608295E+02  0.60000558179E+02 -0.22341745647E+02  0.79560988809E+02  0.00000000000E+00 0.  1.
         21    1    1    2  502  501  0.13806673508E+02  0.16682514901E+02  0.35197783955E+02  0.41325712723E+02  0.00000000000E+00 0.  1.
<scales pt_clust_5="13000.00000" pt_clust_6="13000.00000" pt_clust_7="13000.00000" pt_clust_8="13000.00000" pt_clust_9="21.65480"></scales>
<clustering>
<clus scale="   21.655">  1  9  2 -1</clus>
<clus scale="   79.717">  5  6 -1 -1</clus>
<clus scale="   98.407">  7  8 -1 -1</clus>
<clus scale="  107.574">  2  5  1 -1</clus>
<clus scale="  107.574">  2  5  1 -1</clus>
</clustering>
</event>
<event>
 9    1  0.3846604E-005  0.9496205E+02  0.7546771E-02  0.1296439E+00
         -2   -1    0    0    0  501 -0.00000000000E+00  0.00000000000E+00  0.34227786883E+02  0.34227786883E+02  0.00000000000E+00 0.  1.
          1   -1    0    0  502    0  0.00000000000E+00 -0.00000000000E+00 -0.39520750221E+03  0.39520750221E+03  0.00000000000E+00 0. -1.
        -24    2    1    2    0    0  0.30202625086E+02 -0.32557527581E+02 -0.81298388139E+02  0.12386551847E+03  0.82225589609E+02 0.  0.
         23    2    1    2    0    0 -0.10224263927E+02  0.15671867423E+02 -0.24492651695E+03  0.26207083653E+03  0.91334449410E+02 0.  0.
         11    1    3    3    0    0  0.34024618053E+01  0.21602240351E+02  0.85073257764E+00  0.21885092654E+02  0.00000000000E+00 0. -1.
        -12    1    3    3    0    0  0.26800163281E+02 -0.54159767932E+02 -0.82149120717E+02  0.10198042581E+03  0.00000000000E+00 0.  1.
        -11    1    4    4    0    0  0.14330472749E+02 -0.27850099323E+02 -0.38241531829E+02  0.49430812639E+02  0.00000000000E+00 0.  1.
         11    1    4    4    0    0 -0.24554736676E+02  0.43521966746E+02 -0.20668498513E+03  0.21264002389E+03  0.00000000000E+00 0. -1.
         21    1    1    2  502  501 -0.19978361159E+02  0.16885660158E+02 -0.34754810237E+02  0.43498934103E+02  0.00000000000E+00 0. -1.
<scales pt_clust_5="13000.00000" pt_clust_6="13000.00000" pt_clust_7="13000.00000" pt_clust_8="13000.00000" pt_clust_9="26.15837"></scales>
<clustering>
<clus scale="   26.158">  1  9  2 -1</clus>
<clus scale="   82.226">  5  6 -1 -1</clus>
<clus scale="   86.237">  1  5  2 -1</clus>
<clus scale="   91.334">  7  8 -1 -1</clus>
<clus scale="   94.962">  2  5  1 -1</clus>
</clustering>
</event>
<event>
 9    1  0.3954826E-005  0.1285325E+03  0.7546771E-02  0.1232969E+00
         -4   -1    0    0    0  501 -0.00000000000E+00  0.00000000000E+00  0.24181135506E+03  0.24181135506E+03  0.00000000000E+00 0.  1.
          3   -1    0    0  502    0  0.00000000000E+00 -0.00000000000E+00 -0.18726149026E+03  0.18726149026E+03  0.00000000000E+00 0. -1.
         23    2    1    2    0    0 -0.52847842111E+02 -0.48119767933E+02  0.17296093817E+03  0.20788956555E+03  0.90521703770E+02 0.  0.
        -24    2    1    2    0    0  0.70644100883E+02  0.37684131339E+02 -0.14051448068E+03  0.19094803622E+03  0.10151921251E+03 0.  0.
         13    1    4    4    0    0  0.74228691298E+02  0.50964310617E+02 -0.14949787677E+03  0.17451898100E+03  0.00000000000E+00 0. -1.
        -14    1    4    4    0    0 -0.35845904151E+01 -0.13280179278E+02  0.89833960916E+01  0.16429055220E+02  0.00000000000E+00 0.  1.
        -13    1    3    3    0    0 -0.74435028001E+02 -0.50718662537E+02  0.11561395440E+03  0.14655900715E+03  0.00000000000E+00 0.  1.
         13    1    3    3    0    0  0.21587185891E+02  0.25988946046E+01  0.57346983764E+02  0.61330558408E+02  0.00000000000E+00 0. -1.
         21    1    1    2  502  501 -0.17796258772E+02  0.10435636593E+02  0.22103407315E+02  0.30235243546E+02  0.00000000000E+00 0.  1.
<scales pt_clust_5="13000.00000" pt_clust_6="13000.00000" pt_clust_7="13000.00000" pt_clust_8="13000.00000" pt_clust_9="20.63030"></scales>
<clustering>
<clus scale="   20.630">  1  9  2 -1</clus>
<clus scale="   90.522">  7  8 -1 -1</clus>
<clus scale="  101.519">  5  6 -1 -1</clus>
<clus scale="  120.036">  1  7  2 -1</clus>
<clus scale="  128.532">  2  5  1 -1</clus>
</clustering>
</event>
<event>
 9    1  0.3846604E-005  0.1786071E+03  0.7546771E-02  0.1170290E+00
          1   -1    0    0  502    0  0.00000000000E+00  0.00000000000E+00  0.28755437907E+03  0.28755437907E+03  0.00000000000E+00 0. -1.
         -2   -1    0    0    0  501 -0.00000000000E+00 -0.00000000000E+00 -0.19564329229E+03  0.19564329229E+03  0.00000000000E+00 0.  1.
        -24    2    1    2    0    0  0.13977970380E+03 -0.68017526381E+02 -0.57885512567E+02  0.18453839444E+03  0.80863693759E+02 0.  0.
         23    2    1    2    0    0 -0.12193523498E+03  0.94864249838E+02  0.18048665337E+03  0.25415027733E+03  0.90274603258E+02 0.  0.
         11    1    3    3    0    0  0.51414014056E+02 -0.16900772528E+02 -0.62090273316E+02  0.82366491936E+02  0.00000000000E+00 0. -1.
        -12    1    3    3    0    0  0.88365689747E+02 -0.51116753853E+02  0.42047607490E+01  0.10217190251E+03  0.00000000000E+00 0.  1.
        -11    1    4    4    0    0 -0.20970417517E+02  0.31355173828E+02 -0.10705779803E+00  0.37721569400E+02  0.00000000000E+00 0.  1.
         11    1    4    4    0    0 -0.10096481746E+03  0.63509076010E+02  0.18059371117E+03  0.21642870793E+03  0.00000000000E+00 0. -1.
         21    1    1    2  502  501 -0.17844468825E+02 -0.26846723457E+02 -0.30690054026E+02  0.44508999586E+02  0.00000000000E+00 0.  1.
<scales pt_clust_5="13000.00000" pt_clust_6="13000.00000" pt_clust_7="13000.00000" pt_clust_8="13000.00000" pt_clust_9="32.23619"></scales>
<clustering>
<clus scale="   32.236">  2  9  1 -1</clus>
<clus scale="   80.864">  5  6 -1 -1</clus>
<clus scale="   90.275">  7  8 -1 -1</clus>
<clus scale="  174.040">  2  5  1 -1</clus>
<clus scale="  178.607">  1  5  2 -1</clus>
</clustering>
</event>
<event>
 9    1  0.3846604E-005  0.2013105E+03  0.7546771E-02  0.1177288E+00
          1   -1    0    0  502    0  0.00000000000E+00  0.00000000000E+00  0.16935176900E+03  0.16935176900E+03  0.00000000000E+00 0. -1.
         -2   -1    0    0    0  501 -0.00000000000E+00 -0.00000000000E+00 -0.54515182753E+03  0.54515182753E+03  0.00000000000E+00 0.  1.
        -24    2    1    2    0    0  0.13627092672E+03  0.10673859397E+03 -0.32038587497E+03  0.37371039546E+03  0.83961049781E+02 0.  0.
         23    2    1    2    0    0  0.53316513908E+02  0.13971661712E+02 -0.52057854737E+02  0.11601413529E+03  0.87814585128E+02 0.  0.
         13    1    3    3    0    0  0.37407315454E+02  0.73862639171E+02 -0.99175675460E+02  0.12919292286E+03  0.00000000000E+00 0. -1.
        -14    1    3    3    0    0  0.98863611271E+02  0.32875954798E+02 -0.22121019951E+03  0.24451747260E+03  0.00000000000E+00 0.  1.
        -13    1    4    4    0    0 -0.23863340981E+02 -0.44753434354E+01 -0.13664024230E+02  0.27860245867E+02  0.00000000000E+00 0. -1.
         13    1    4    4    0    0  0.77179854889E+02  0.18447005147E+02 -0.38393830507E+02  0.88153889424E+02  0.00000000000E+00 0.  1.
         21    1    1    2  502  501 -0.18958744063E+03 -0.12071025568E+03 -0.33563288204E+01  0.22477906579E+03  0.00000000000E+00 0. -1.
<scales pt_clust_5="13000.00000" pt_clust_6="13000.00000" pt_clust_7="13000.00000" pt_clust_8="13000.00000" pt_clust_9="182.96576"></scales>
<clustering>
<clus scale="   83.961">  5  6 -1 -1</clus>
<clus scale="   87.815">  7  8 -1 -1</clus>
<clus scale="  103.679">  1  7  2 -1</clus>
<clus scale="  182.966">  1  9  2 -1</clus>
<clus scale="  103.679">  1  5  2 -1</clus>
</clustering>
</event>
<event>
 9    1  0.3846604E-005  0.1168093E+03  0.7546771E-02  0.1251487E+00
          1   -1    0    0  502    0  0.00000000000E+00  0.00000000000E+00  0.45572690576E+03  0.45572690576E+03  0.00000000000E+00 0. -1.
         -2   -1    0    0    0  501 -0.00000000000E+00 -0.00000000000E+00 -0.54374496899E+02  0.54374496899E+02  0.00000000000E+00 0.  1.
        -24    2    1    2    0    0  0.61941968478E+02 -0.69451229206E+02  0.15667813496E+03  0.19948568354E+03  0.81155525182E+02 0.  0.
         23    2    1    2    0    0 -0.32485358173E+02  0.55730042818E+02  0.25370024092E+03  0.27688989922E+03  0.90238948810E+02 0.  0.
         11    1    3    3    0    0  0.34187414605E+02 -0.46996786458E+02  0.15291647624E+03  0.16358767056E+03  0.00000000000E+00 0. -1.
        -12    1    3    3    0    0  0.27754553873E+02 -0.22454442748E+02  0.37616587223E+01  0.35898012983E+02  0.00000000000E+00 0.  1.
        -11    1    4    4    0    0 -0.20914577653E+02 -0.21883426077E+02  0.48200059835E+02  0.56917041942E+02  0.00000000000E+00 0.  1.
         11    1    4    4    0    0 -0.11570780520E+02  0.77613468895E+02  0.20550018108E+03  0.21997285728E+03  0.00000000000E+00 0. -1.
         21    1    1    2  502  501 -0.29456610305E+02  0.13721186388E+02 -0.90259670184E+01  0.33725819889E+02  0.00000000000E+00 0.  1.
<scales pt_clust_5="13000.00000" pt_clust_6="13000.00000" pt_clust_7="13000.00000" pt_clust_8="13000.00000" pt_clust_9="32.49558"></scales>
<clustering>
<clus scale="   32.496">  2  9  1 -1</clus>
<clus scale="   81.156">  5  6 -1 -1</clus>
<clus scale="   90.239">  7  8 -1 -1</clus>
<clus scale="  109.943">  2  5  1 -1</clus>
<clus scale="  116.809">  1  5  2 -1</clus>
</clustering>
</event>
<event>
 9    1  0.3846604E-005  0.9352916E+02  0.7546771E-02  0.1299151E+00
          1   -1    0    0  502    0  0.00000000000E+00  0.00000000000E+00  0.21411834784E+03  0.21411834784E+03  0.00000000000E+00 0. -1.
         -2   -1    0    0    0  501 -0.00000000000E+00 -0.00000000000E+00 -0.74955178881E+02  0.74955178881E+02  0.00000000000E+00 0.  1.
        -24    2    1    2    0    0 -0.62795668872E+01  0.53463827128E+01  0.24343436729E+02  0.85456676668E+02  0.81499839920E+02 0.  0.
         23    2    1    2    0    0  0.25891380142E+01 -0.37685668626E+02  0.13422455813E+03  0.16572231288E+03  0.89558582652E+02 0.  0.
         13    1    3    3    0    0  0.19826508671E+02 -0.12424044347E+02 -0.20161341359E+02  0.30885708822E+02  0.00000000000E+00 0. -1.
        -14    1    3    3    0    0 -0.26106075558E+02  0.17770427060E+02  0.44504778089E+02  0.54570967846E+02  0.00000000000E+00 0.  1.
        -11    1    4    4    0    0  0.20718209319E+02  0.39088347912E+01 -0.29032777318E+01  0.21282673901E+02  0.00000000000E+00 0.  1.
         11    1    4    4    0    0 -0.18129071305E+02 -0.41594503417E+02  0.13712783586E+03  0.14443963898E+03  0.00000000000E+00 0. -1.
         21    1    1    2  502  501  0.36904288730E+01  0.32339285913E+02 -0.19404825904E+02  0.37894537166E+02  0.00000000000E+00 0.  1.
<scales pt_clust_5="13000.00000" pt_clust_6="13000.00000" pt_clust_7="13000.00000" pt_clust_8="13000.00000" pt_clust_9="32.54917"></scales>
<clustering>
<clus scale="   32.549">  2  9  1 -1</clus>
<clus scale="   81.500">  5  6 -1 -1</clus>
<clus scale="   85.844">  2  5  1 -1</clus>
<clus scale="   89.559">  7  8 -1 -1</clus>
<clus scale="   93.529">  1  5  2 -1</clus>
</clustering>
</event>
<event>
 9    1  0.3846604E-005  0.1367800E+03  0.7546771E-02  0.1220452E+00
         -4   -1    0    0    0  501 -0.00000000000E+00  0.00000000000E+00  0.31833530677E+03  0.31833530677E+03  0.00000000000E+00 0.  1.
          3   -1    0    0  502    0  0.00000000000E+00 -0.00000000000E+00 -0.28531897367E+03  0.28531897367E+03  0.00000000000E+00 0. -1.
         23    2    1    2    0    0 -0.68841617458E+02  0.37042350691E+02  0.24028194565E+03  0.26819107814E+03  0.89887357012E+02 0.  0.
        -24    2    1    2    0    0  0.10516943369E+03 -0.35058766629E+01 -0.24194418162E+03  0.27507273554E+03  0.77814663538E+02 0.  0.
         13    1    4    4    0    0  0.83843020442E+02  0.19897079511E+02 -0.11192716225E+03  0.14125592200E+03  0.00000000000E+00 0. -1.
        -14    1    4    4    0    0  0.21326413246E+02 -0.23402956174E+02 -0.13001701937E+03  0.13381681354E+03  0.00000000000E+00 0.  1.
        -11    1    3    3    0    0 -0.31026720267E+02  0.42930386818E+02  0.21705282411E+03  0.22342247858E+03  0.00000000000E+00 0.  1.
         11    1    3    3    0    0 -0.37814897191E+02 -0.58880361270E+01  0.23229121546E+02  0.44768599563E+02  0.00000000000E+00 0. -1.
         21    1    1    2  502  501 -0.36327816230E+02 -0.33536474028E+02  0.34678569070E+02  0.60390466756E+02  0.00000000000E+00 0. -1.
<scales pt_clust_5="13000.00000" pt_clust_6="13000.00000" pt_clust_7="13000.00000" pt_clust_8="13000.00000" pt_clust_9="49.44093"></scales>
<clustering>
<clus scale="   49.441">  1  9  2 -1</clus>
<clus scale="   77.815">  5  6 -1 -1</clus>
<clus scale="   89.887">  7  8 -1 -1</clus>
<clus scale="  129.167">  2  5  1 -1</clus>
<clus scale="  129.167">  2  5  1 -1</clus>
</clustering>
</event>
<event>
 9    1  0.3846604E-005  0.9782356E+02  0.7546771E-02  0.1289283E+00
         -2   -1    0    0    0  501 -0.00000000000E+00  0.00000000000E+00  0.33570576281E+03  0.33570576281E+03  0.00000000000E+00 0.  1.
          1   -1    0    0  502    0  0.00000000000E+00 -0.00000000000E+00 -0.35314655036E+03  0.35314655036E+03  0.00000000000E+00 0. -1.
         23    2    1    2    0    0  0.43232041824E+02 -0.16363294512E+02  0.20431333315E+02  0.10492113941E+03  0.91946937239E+02 0.  0.
        -24    2    1    2    0    0  0.41128033360E+02 -0.11106511021E+02 -0.29622666903E+03  0.31076769695E+03  0.83734415327E+02 0.  0.
         11    1    4    4    0    0  0.64200227165E+02 -0.12436133141E+02 -0.16436173331E+03  0.17689292228E+03  0.00000000000E+00 0. -1.
        -12    1    4    4    0    0 -0.23072193805E+02  0.13296221199E+01 -0.13186493572E+03  0.13387477467E+03  0.00000000000E+00 0.  1.
        -11    1    3    3    0    0  0.33740480915E+02 -0.51757512145E+02  0.27454779659E+02  0.67609356171E+02  0.00000000000E+00 0.  1.
         11    1    3    3    0    0  0.94915609086E+01  0.35394217632E+02 -0.70234463440E+01  0.37311783244E+02  0.00000000000E+00 0. -1.
         21    1    1    2  502  501 -0.84360075184E+02  0.27469805533E+02  0.25835454817E+03  0.27316347680E+03  0.00000000000E+00 0.  1.
<scales pt_clust_5="13000.00000" pt_clust_6="13000.00000" pt_clust_7="13000.00000" pt_clust_8="13000.00000" pt_clust_9="88.71985"></scales>
<clustering>
<clus scale="   83.734">  5  6 -1 -1</clus>
<clus scale="   88.720">  1  9  2 -1</clus>
<clus scale="   90.148">  2  5  1 -1</clus>
<clus scale="   91.947">  7  8 -1 -1</clus>
<clus scale="   90.148">  2  5  1 -1</clus>
</clustering>
</event>
<event>
 9    1  0.3846604E-005  0.1159630E+03  0.7546771E-02  0.1253532E+00
         -4   -1    0    0    0  501 -0.00000000000E+00  0.00000000000E+00  0.55441279846E+03  0.55441279846E+03  0.00000000000E+00 0.  1.
          3   -1    0    0  502    0  0.00000000000E+00 -0.00000000000E+00 -0.57581222548E+02  0.57581222548E+02  0.00000000000E+00 0. -1.
         23    2    1    2    0    0 -0.11401295172E+02  0.47624682160E+02  0.17025627614E+03  0.19763853433E+03  0.87611019868E+02 0.  0.
        -24    2    1    2    0    0  0.67340582941E+02 -0.62637188488E+02  0.46587115899E+02  0.12843948089E+03  0.76603977641E+02 0.  0.
         11    1    4    4    0    0  0.65034673278E+02 -0.65235469967E+02  0.11098459872E+02  0.92781200045E+02  0.00000000000E+00 0. -1.
        -12    1    4    4    0    0  0.23059096632E+01  0.25982814794E+01  0.35488656028E+02  0.35658280843E+02  0.00000000000E+00 0.  1.
        -13    1    3    3    0    0 -0.42993726340E+02  0.21735125348E+02  0.45121593602E+02  0.66006320817E+02  0.00000000000E+00 0.  1.
         13    1    3    3    0    0  0.31592431168E+02  0.25889556812E+02  0.12513468254E+03  0.13163221351E+03  0.00000000000E+00 0. -1.
         21    1    1    2  502  501 -0.55939287770E+02  0.15012506328E+02  0.27998818387E+03  0.28591600580E+03  0.00000000000E+00 0.  1.
<scales pt_clust_5="13000.00000" pt_clust_6="13000.00000" pt_clust_7="13000.00000" pt_clust_8="13000.00000" pt_clust_9="57.91873"></scales>
<clustering>
<clus scale="   57.919">  1  9  2 -1</clus>
<clus scale="   76.604">  5  6 -1 -1</clus>
<clus scale="   87.611">  7  8 -1 -1</clus>
<clus scale="  107.888">  2  5  1 -1</clus>
<clus scale="  107.888">  2  5  1 -1</clus>
</clustering>
</event>
<event>
 9    1  0.3846604E-005  0.1033656E+03  0.7546771E-02  0.1278988E+00
          1   -1    0    0  502    0  0.00000000000E+00  0.00000000000E+00  0.39002364608E+02  0.39002364608E+02  0.00000000000E+00 0. -1.
         -2   -1    0    0    0  501 -0.00000000000E+00 -0.00000000000E+00 -0.57386879514E+03  0.57386879514E+03  0.00000000000E+00 0.  1.
        -24    2    1    2    0    0  0.62228344913E+02 -0.32804955904E+02 -0.30358089383E+03  0.32212981013E+03  0.81594873828E+02 0.  0.
         23    2    1    2    0    0 -0.30635988153E+02  0.20472607186E+02 -0.61821345187E+02  0.11791694151E+03  0.93406825016E+02 0.  0.
         13    1    3    3    0    0  0.11423126235E+02  0.24217741667E+02 -0.12614583027E+03  0.12895641636E+03  0.00000000000E+00 0. -1.
        -14    1    3    3    0    0  0.50805218678E+02 -0.57022697571E+02 -0.17743506355E+03  0.19317339377E+03  0.00000000000E+00 0.  1.
        -13    1    4    4    0    0 -0.33344892004E+02  0.54772615878E+02 -0.50736311828E+02  0.81768542917E+02  0.00000000000E+00 0. -1.
         13    1    4    4    0    0  0.27089038507E+01 -0.34300008692E+02 -0.11085033359E+02  0.36148398594E+02  0.00000000000E+00 0.  1.
         21    1    1    2  502  501 -0.31592356760E+02  0.12332348718E+02 -0.16946419152E+03  0.17282440811E+03  0.00000000000E+00 0.  1.
<scales pt_clust_5="13000.00000" pt_clust_6="13000.00000" pt_clust_7="13000.00000" pt_clust_8="13000.00000" pt_clust_9="33.91407"></scales>
<clustering>
<clus scale="   33.914">  2  9  1 -1</clus>
<clus scale="   81.595">  5  6 -1 -1</clus>
<clus scale="   92.830">  2  5  1 -1</clus>
<clus scale="   93.407">  7  8 -1 -1</clus>
<clus scale="  103.366">  1  5  2 -1</clus>
</clustering>
</event>
<event>
 9    1  0.3846604E-005  0.1343583E+03  0.7546771E-02  0.1245950E+00
         -2   -1    0    0    0  501 -0.00000000000E+00  0.00000000000E+00  0.31629996506E+03  0.31629996506E+03  0.00000000000E+00 0.  1.
          1   -1    0    0  502    0  0.00000000000E+00 -0.00000000000E+00 -0.23755023307E+03  0.23755023307E+03  0.00000000000E+00 0. -1.
        -24    2    1    2    0    0 -0.40940964895E+01 -0.88226766881E+01  0.16197304195E+03  0.18097029353E+03  0.80127271087E+02 0.  0.
         23    2    1    2    0    0  0.87154345528E+02  0.45474253889E+02 -0.18970612346E+03  0.23294801885E+03  0.92803978880E+02 0.  0.
         11    1    3    3    0    0 -0.24489498066E+02  0.87884770556E+01  0.12101060799E+02  0.28695095695E+02  0.00000000000E+00 0. -1.
        -12    1    3    3    0    0  0.20395401577E+02 -0.17611153744E+02  0.14987198115E+03  0.15227519783E+03  0.00000000000E+00 0.  1.
        -13    1    4    4    0    0  0.23309802863E+02 -0.23010655674E+02 -0.18001393038E+02  0.37374955992E+02  0.00000000000E+00 0.  1.
         13    1    4    4    0    0  0.63844542665E+02  0.68484909563E+02 -0.17170473042E+03  0.19557306286E+03  0.00000000000E+00 0. -1.
         21    1    1    2  502  501 -0.83060249039E+02 -0.36651577201E+02  0.10648281350E+03  0.13993188576E+03  0.00000000000E+00 0.  1.
<scales pt_clust_5="13000.00000" pt_clust_6="13000.00000" pt_clust_7="13000.00000" pt_clust_8="13000.00000" pt_clust_9="97.15745"></scales>
<clustering>
<clus scale="   80.127">  5  6 -1 -1</clus>
<clus scale="   80.715">  1  5  2 -1</clus>
<clus scale="   92.804">  7  8 -1 -1</clus>
<clus scale="   97.157">  1  9  2 -1</clus>
<clus scale="  134.358">  2  5  1 -1</clus>
</clustering>
</event>
<event>
 9    1  0.3846604E-005  0.2319597E+03  0.7546771E-02  0.1125368E+00
          1   -1    0    0  502    0  0.00000000000E+00  0.00000000000E+00  0.13624745872E+04  0.13624745872E+04  0.00000000000E+00 0. -1.
         -2   -1    0    0    0  501 -0.00000000000E+00 -0.00000000000E+00 -0.60622207590E+02  0.60622207590E+02  0.00000000000E+00 0.  1.
        -24    2    1    2    0    0 -0.17858738100E+03 -0.11097725762E+03  0.33039383367E+03  0.40158996865E+03  0.88910141356E+02 0.  0.
         23    2    1    2    0    0  0.17044875533E+03  0.13141533194E+03  0.97186152558E+03  0.99950422401E+03  0.90394143892E+02 0.  0.
         13    1    3    3    0    0 -0.14561190834E+02 -0.51963464573E+02  0.78710771763E+02  0.95433827967E+02  0.00000000000E+00 0. -1.
        -14    1    3    3    0    0 -0.16402619016E+03 -0.59013793045E+02  0.25168306190E+03  0.30615614068E+03  0.00000000000E+00 0.  1.
        -13    1    4    4    0    0  0.15562296526E+03  0.10575338649E+03  0.92583995968E+03  0.94476553547E+03  0.00000000000E+00 0. -1.
         13    1    4    4    0    0  0.14825790067E+02  0.25661945445E+02  0.46021565896E+02  0.54738688536E+02  0.00000000000E+00 0.  1.
         21    1    1    2  502  501  0.81386256737E+01 -0.20438074322E+02 -0.40297959307E+00  0.22002602173E+02  0.00000000000E+00 0. -1.
<scales pt_clust_5="13000.00000" pt_clust_6="13000.00000" pt_clust_7="13000.00000" pt_clust_8="13000.00000" pt_clust_9="21.99891"></scales>
<clustering>
<clus scale="   21.999">  2  9  1 -1</clus>
<clus scale="   88.910">  5  6 -1 -1</clus>
<clus scale="   90.394">  7  8 -1 -1</clus>
<clus scale="  231.385">  2  5  1 -1</clus>
<clus scale="  231.960">  1  5  2 -1</clus>
</clustering>
</event>
<event>
 9    1  0.3846604E-005  0.1122073E+03  0.7546771E-02  0.1266519E+00
          1   -1    0    0  502    0  0.00000000000E+00  0.00000000000E+00  0.40483111525E+03  0.40483111525E+03  0.00000000000E+00 0. -1.
         -2   -1    0    0    0  501 -0.00000000000E+00 -0.00000000000E+00 -0.35001979154E+02  0.35001979154E+02  0.00000000000E+00 0.  1.
        -24    2    1    2    0    0 -0.24873073608E+02  0.23977601752E+02  0.96325133023E+02  0.12980568674E+03  0.79858561736E+02 0.  0.
         23    2    1    2    0    0  0.35457912452E+02 -0.41851760214E+02  0.26136950539E+03  0.28596976048E+03  0.10225386140E+03 0.  0.
         13    1    3    3    0    0 -0.31164260901E+02 -0.22701006686E+02  0.32152235808E+02  0.50202720340E+02  0.00000000000E+00 0. -1.
        -14    1    3    3    0    0  0.62911872934E+01  0.46678608438E+02  0.64172897215E+02  0.79602966404E+02  0.00000000000E+00 0.  1.
        -13    1    4    4    0    0 -0.17424691721E+02  0.24276042021E+02  0.89850478597E+02  0.94689252832E+02  0.00000000000E+00 0.  1.
         13    1    4    4    0    0  0.52882604173E+02 -0.66127802234E+02  0.17151902679E+03  0.19128050764E+03  0.00000000000E+00 0. -1.
         21    1    1    2  502  501 -0.10584838844E+02  0.17874158462E+02  0.12134497684E+02  0.24057647186E+02  0.00000000000E+00 0.  1.
<scales pt_clust_5="13000.00000" pt_clust_6="13000.00000" pt_clust_7="13000.00000" pt_clust_8="13000.00000" pt_clust_9="20.77316"></scales>
<clustering>
<clus scale="   20.773">  2  9  1 -1</clus>
<clus scale="   79.859">  5  6 -1 -1</clus>
<clus scale="   92.261">  2  5  1 -1</clus>
<clus scale="  102.254">  7  8 -1 -1</clus>
<clus scale="  112.207">  1  5  2 -1</clus>
</clustering>
</event>
<event>
 9    1  0.3846604E-005  0.4854058E+03  0.7546771E-02  0.1017660E+00
          1   -1    0    0  502    0  0.00000000000E+00  0.00000000000E+00  0.34768896203E+04  0.34768896203E+04  0.00000000000E+00 0. -1.
         -2   -1    0    0    0  501 -0.00000000000E+00 -0.00000000000E+00 -0.75647652712E+02  0.75647652712E+02  0.00000000000E+00 0.  1.
        -24    2    1    2    0    0 -0.14000965608E+03 -0.12181800319E+03  0.38722630473E+03  0.43679973242E+03  0.80046645613E+02 0.  0.
         23    2    1    2    0    0 -0.21428408429E+02 -0.26528618107E+03  0.57506470530E+03  0.64098630632E+03  0.96582063834E+02 0.  0.
         13    1    3    3    0    0 -0.34391825411E+02 -0.23794906267E+02  0.17737732579E+03  0.18224080477E+03  0.00000000000E+00 0. -1.
        -14    1    3    3    0    0 -0.10561783066E+03 -0.98023096919E+02  0.20984897894E+03  0.25455892765E+03  0.00000000000E+00 0.  1.
        -11    1    4    4    0    0 -0.23513104414E+02 -0.39743906119E+02  0.43044930910E+02  0.63129313554E+02  0.00000000000E+00 0. -1.
         11    1    4    4    0    0  0.20846959847E+01 -0.22554227495E+03  0.53201977439E+03  0.57785699277E+03  0.00000000000E+00 0.  1.
         21    1    1    2  502  501  0.16143806450E+03  0.38710418426E+03  0.24389509575E+04  0.24747512342E+04  0.00000000000E+00 0. -1.
<scales pt_clust_5="13000.00000" pt_clust_6="13000.00000" pt_clust_7="13000.00000" pt_clust_8="13000.00000" pt_clust_9="419.41852"></scales>
<clustering>
<clus scale="   80.047">  5  6 -1 -1</clus>
<clus scale="   96.582">  7  8 -1 -1</clus>
<clus scale="  170.621">  5  7 -1 -1</clus>
<clus scale="  419.419">  1  9  2 -1</clus>
<clus scale="  419.419">  1  5  2 -1</clus>
</clustering>
</event>
<event>
 9    1  0.3846604E-005  0.1032195E+03  0.7546771E-02  0.1279917E+00
         -2   -1    0    0    0  501 -0.00000000000E+00  0.00000000000E+00  0.29936564066E+03  0.29936564066E+03  0.00000000000E+00 0.  1.
          1   -1    0    0  502    0  0.00000000000E+00 -0.00000000000E+00 -0.60863903273E+02  0.60863903273E+02  0.00000000000E+00 0. -1.
         23    2    1    2    0    0 -0.17064168572E+02 -0.17738088244E+02  0.18943895149E+03  0.21287863910E+03  0.93938134014E+02 0.  0.
        -24    2    1    2    0    0  0.38611210486E+02  0.27046898154E+02  0.83133733458E+00  0.93711352373E+02  0.80986209733E+02 0.  0.
         11    1    4    4    0    0 -0.11107640538E+02  0.40161855982E+02  0.57183675435E+01  0.42060124603E+02  0.00000000000E+00 0. -1.
        -12    1    4    4    0    0  0.49718851024E+02 -0.13114957828E+02 -0.48870302089E+01  0.51651227770E+02  0.00000000000E+00 0.  1.
        -11    1    3    3    0    0  0.34388609194E+02  0.66245520977E+01  0.41136191468E+02  0.54024507228E+02  0.00000000000E+00 0. -1.
         11    1    3    3    0    0 -0.51452777765E+02 -0.24362640342E+02  0.14830276002E+03  0.15885413188E+03  0.00000000000E+00 0.  1.
         21    1    1    2  502  501 -0.21547041914E+02 -0.93088099099E+01  0.48231448569E+02  0.53639552461E+02  0.00000000000E+00 0. -1.
<scales pt_clust_5="13000.00000" pt_clust_6="13000.00000" pt_clust_7="13000.00000" pt_clust_8="13000.00000" pt_clust_9="23.47188"></scales>
<clustering>
<clus scale="   23.472">  1  9  2 -1</clus>
<clus scale="   80.986">  5  6 -1 -1</clus>
<clus scale="   91.590">  2  5  1 -1</clus>
<clus scale="   93.938">  7  8 -1 -1</clus>
<clus scale="   91.590">  2  5  1 -1</clus>
</clustering>
</event>
<event>
 9    1  0.3846604E-005  0.9542999E+02  0.7546771E-02  0.1298893E+00
          1   -1    0    0  502    0  0.00000000000E+00  0.00000000000E+00  0.64344350883E+03  0.64344350883E+03  0.00000000000E+00 0. -1.
         -2   -1    0    0    0  501 -0.00000000000E+00 -0.00000000000E+00 -0.18606487303E+03  0.18606487303E+03  0.00000000000E+00 0.  1.
         23    2    1    2    0    0 -0.26012414067E+02 -0.24727433068E+02 -0.29872154975E+02  0.10564703228E+03  0.94767389720E+02 0.  0.
        -24    2    1    2    0    0  0.97199521901E+01  0.35316809422E+01  0.60128891672E+03  0.60673151398E+03  0.80422748321E+02 0.  0.
         13    1    4    4    0    0  0.73623777461E+01  0.29454400688E+02  0.94131432317E+02  0.98906485511E+02  0.00000000000E+00 0. -1.
        -14    1    4    4    0    0  0.23575744440E+01 -0.25922719745E+02  0.50715748440E+03  0.50782502847E+03  0.00000000000E+00 0.  1.
        -13    1    3    3    0    0 -0.33023968160E+01  0.35162009473E+02 -0.84753747170E+00  0.35326916857E+02  0.00000000000E+00 0.  1.
         13    1    3    3    0    0 -0.22710017251E+02 -0.59889442541E+02 -0.29024617504E+02  0.70320115420E+02  0.00000000000E+00 0. -1.
         21    1    1    2  502  501  0.16292461877E+02  0.21195752126E+02 -0.11403812594E+03  0.11712983561E+03  0.00000000000E+00 0.  1.
<scales pt_clust_5="13000.00000" pt_clust_6="13000.00000" pt_clust_7="13000.00000" pt_clust_8="13000.00000" pt_clust_9="26.73395"></scales>
<clustering>
<clus scale="   26.734">  2  9  1 -1</clus>
<clus scale="   80.423">  5  6 -1 -1</clus>
<clus scale="   81.202">  1  5  2 -1</clus>
<clus scale="   94.767">  7  8 -1 -1</clus>
<clus scale="   81.202">  1  5  2 -1</clus>
</clustering>
</event>
<event>
 9    1  0.3846604E-005  0.1125477E+03  0.7546771E-02  0.1259662E+00
          1   -1    0    0  502    0  0.00000000000E+00  0.00000000000E+00  0.25949790306E+03  0.25949790306E+03  0.00000000000E+00 0. -1.
         -2   -1    0    0    0  501 -0.00000000000E+00 -0.00000000000E+00 -0.96076879544E+02  0.96076879544E+02  0.00000000000E+00 0.  1.
        -24    2    1    2    0    0 -0.69622827882E+01 -0.80993538132E+02 -0.16161403902E+02  0.11605182262E+03  0.81230585109E+02 0.  0.
         23    2    1    2    0    0  0.25869783425E+02  0.57375495682E+02  0.17737889029E+03  0.20918880290E+03  0.91298912047E+02 0.  0.
         13    1    3    3    0    0  0.33233275961E+02 -0.42412990780E+02 -0.25412145944E+02  0.59574235869E+02  0.00000000000E+00 0. -1.
        -14    1    3    3    0    0 -0.40195558749E+02 -0.38580547352E+02  0.92507420421E+01  0.56477586753E+02  0.00000000000E+00 0.  1.
        -13    1    4    4    0    0 -0.20951580495E+00 -0.20262677624E+02  0.77077998600E+02  0.79697163498E+02  0.00000000000E+00 0.  1.
         13    1    4    4    0    0  0.26079299230E+02  0.77638173306E+02  0.10030089169E+03  0.12949163941E+03  0.00000000000E+00 0. -1.
         21    1    1    2  502  501 -0.18907500637E+02  0.23618042450E+02  0.22035371232E+01  0.30334157073E+02  0.00000000000E+00 0. -1.
<scales pt_clust_5="13000.00000" pt_clust_6="13000.00000" pt_clust_7="13000.00000" pt_clust_8="13000.00000" pt_clust_9="30.25402"></scales>
<clustering>
<clus scale="   30.254">  2  9  1 -1</clus>
<clus scale="   81.231">  5  6 -1 -1</clus>
<clus scale="   91.299">  7  8 -1 -1</clus>
<clus scale="  104.546">  2  5  1 -1</clus>
<clus scale="  112.548">  1  5  2 -1</clus>
</clustering>
</event>
<event>
 9    1  0.3846604E-005  0.1458713E+03  0.7546771E-02  0.1207489E+00
         -2   -1    0    0    0  501 -0.00000000000E+00  0.00000000000E+00  0.11386032276E+03  0.11386032276E+03  0.00000000000E+00 0.  1.
          1   -1    0    0  502    0  0.00000000000E+00 -0.00000000000E+00 -0.35126076271E+03  0.35126076271E+03  0.00000000000E+00 0. -1.
        -24    2    1    2    0    0 -0.98281161947E+02  0.92486823625E+02 -0.94687358066E+02  0.18409916085E+03  0.81937817336E+02 0.  0.
         23    2    1    2    0    0  0.85663887607E+02 -0.57690584669E+02 -0.18116306808E+03  0.22765175227E+03  0.91316799535E+02 0.  0.
         13    1    3    3    0    0 -0.69862498230E+02  0.52202544565E+02 -0.10206541318E+03  0.13425059734E+03  0.00000000000E+00 0. -1.
        -14    1    3    3    0    0 -0.28418663716E+02  0.40284279059E+02  0.73780551139E+01  0.49848563510E+02  0.00000000000E+00 0.  1.
        -11    1    4    4    0    0  0.47087824580E+02 -0.37687306556E+02 -0.24542336704E+02  0.65114687974E+02  0.00000000000E+00 0.  1.
         11    1    4    4    0    0  0.38576063027E+02 -0.20003278114E+02 -0.15662073138E+03  0.16253706430E+03  0.00000000000E+00 0. -1.
         21    1    1    2  502  501  0.12617274340E+02 -0.34796238955E+02  0.38449986199E+02  0.53370172343E+02  0.00000000000E+00 0. -1.
<scales pt_clust_5="13000.00000" pt_clust_6="13000.00000" pt_clust_7="13000.00000" pt_clust_8="13000.00000" pt_clust_9="37.01316"></scales>
<clustering>
<clus scale="   37.013">  1  9  2 -1</clus>
<clus scale="   81.938">  5  6 -1 -1</clus>
<clus scale="   91.317">  7  8 -1 -1</clus>
<clus scale="  140.191">  1  5  2 -1</clus>
<clus scale="  145.871">  2  5  1 -1</clus>
</clustering>
</event>
<event>
 9    1  0.3846604E-005  0.1652397E+03  0.7546771E-02  0.1185928E+00
          1   -1    0    0  502    0  0.00000000000E+00  0.00000000000E+00  0.15341622134E+04  0.15341622134E+04  0.00000000000E+00 0. -1.
         -2   -1    0    0    0  501 -0.00000000000E+00 -0.00000000000E+00 -0.25713134235E+02  0.25713134235E+02  0.00000000000E+00 0.  1.
        -24    2    1    2    0    0 -0.14387468775E+03 -0.13985735634E+02  0.52981416964E+03  0.55494640887E+03  0.79793081099E+02 0.  0.
         23    2    1    2    0    0  0.10407494997E+03  0.69752516592E+02  0.70121081574E+03  0.71917015798E+03  0.99056040847E+02 0.  0.
         11    1    3    3    0    0 -0.15362186092E+02  0.25128780275E+02  0.12511330804E+03  0.12853323387E+03  0.00000000000E+00 0. -1.
        -12    1    3    3    0    0 -0.12851250166E+03 -0.39114515909E+02  0.40470086160E+03  0.42641317500E+03  0.00000000000E+00 0.  1.
        -11    1    4    4    0    0  0.82689625115E+02 -0.22529729987E+01  0.42207258895E+03  0.43010222079E+03  0.00000000000E+00 0. -1.
         11    1    4    4    0    0  0.21385324854E+02  0.72005489591E+02  0.27913822679E+03  0.28906793718E+03  0.00000000000E+00 0.  1.
         21    1    1    2  502  501  0.39799737779E+02 -0.55766780959E+02  0.27742409376E+03  0.28575878076E+03  0.00000000000E+00 0. -1.
<scales pt_clust_5="13000.00000" pt_clust_6="13000.00000" pt_clust_7="13000.00000" pt_clust_8="13000.00000" pt_clust_9="68.51243"></scales>
<clustering>
<clus scale="   68.512">  1  9  2 -1</clus>
<clus scale="   79.793">  5  6 -1 -1</clus>
<clus scale="   99.056">  7  8 -1 -1</clus>
<clus scale="  154.464">  2  5  1 -1</clus>
<clus scale="   68.512">  1  5  2 -1</clus>
</clustering>
</event>
<event>
 9    1  0.3846604E-005  0.1292476E+03  0.7546771E-02  0.1233889E+00
         -2   -1    0    0    0  501 -0.00000000000E+00  0.00000000000E+00  0.41460823868E+02  0.41460823868E+02  0.00000000000E+00 0.  1.
          1   -1    0    0  502    0  0.00000000000E+00 -0.00000000000E+00 -0.58755118626E+03  0.58755118626E+03  0.00000000000E+00 0. -1.
         23    2    1    2    0    0  0.11745178030E+02 -0.70616374206E+02 -0.12909066015E+03  0.17723735333E+03  0.98102290303E+02 0.  0.
        -24    2    1    2    0    0 -0.33937952134E+02  0.82411774941E+02 -0.40789691558E+03  0.42504431027E+03  0.79619637711E+02 0.  0.
         11    1    4    4    0    0 -0.49640837944E+02  0.26839239480E+02 -0.13904463951E+03  0.15005988586E+03  0.00000000000E+00 0. -1.
        -12    1    4    4    0    0  0.15702885811E+02  0.55572535462E+02 -0.26885227607E+03  0.27498442441E+03  0.00000000000E+00 0.  1.
        -13    1    3    3    0    0 -0.20059527490E+01 -0.36120050694E+02  0.64106489844E+01  0.36739329457E+02  0.00000000000E+00 0.  1.
         13    1    3    3    0    0  0.13751130779E+02 -0.34496323512E+02 -0.13550130914E+03  0.14049802387E+03  0.00000000000E+00 0. -1.
         21    1    1    2  502  501  0.22192774104E+02 -0.11795400735E+02 -0.91027866663E+01  0.26730346538E+02  0.00000000000E+00 0.  1.
<scales pt_clust_5="13000.00000" pt_clust_6="13000.00000" pt_clust_7="13000.00000" pt_clust_8="13000.00000" pt_clust_9="25.13266"></scales>
<clustering>
<clus scale="   25.133">  1  9  2 -1</clus>
<clus scale="   79.620">  5  6 -1 -1</clus>
<clus scale="   98.102">  7  8 -1 -1</clus>
<clus scale="  115.845">  2  5  1 -1</clus>
<clus scale="  115.845">  2  5  1 -1</clus>
</clustering>
</event>
<event>
 9    1  0.3846604E-005  0.9280403E+02  0.7546771E-02  0.1302368E+00
         -2   -1    0    0    0  501 -0.00000000000E+00  0.00000000000E+00  0.26882373862E+03  0.26882373862E+03  0.00000000000E+00 0.  1.
          1   -1    0    0  502    0  0.00000000000E+00 -0.00000000000E+00 -0.21500260144E+03  0.21500260144E+03  0.00000000000E+00 0. -1.
        -24    2    1    2    0    0  0.12610781495E+02 -0.36156919397E+02  0.14688883167E+03  0.17194745891E+03  0.80766608962E+02 0.  0.
         23    2    1    2    0    0 -0.60289593144E+01  0.15884928163E+02 -0.19068687958E+03  0.21196001752E+03  0.90977380105E+02 0.  0.
         13    1    3    3    0    0  0.24119029195E+02 -0.24131877977E+02  0.12200146554E+02  0.36234219737E+02  0.00000000000E+00 0. -1.
        -14    1    3    3    0    0 -0.11508247700E+02 -0.12025041420E+02  0.13468868512E+03  0.13571323917E+03  0.00000000000E+00 0.  1.
        -11    1    4    4    0    0  0.22957500859E+02  0.36427477255E+02 -0.46136745658E+02  0.63107901603E+02  0.00000000000E+00 0. -1.
         11    1    4    4    0    0 -0.28986460173E+02 -0.20542549092E+02 -0.14455013392E+03  0.14885211592E+03  0.00000000000E+00 0.  1.
         21    1    1    2  502  501 -0.65818221804E+01  0.20271991234E+02  0.97619185092E+02  0.99918863633E+02  0.00000000000E+00 0.  1.
<scales pt_clust_5="13000.00000" pt_clust_6="13000.00000" pt_clust_7="13000.00000" pt_clust_8="13000.00000" pt_clust_9="21.31370"></scales>
<clustering>
<clus scale="   21.314">  1  9  2 -1</clus>
<clus scale="   80.767">  5  6 -1 -1</clus>
<clus scale="   82.819">  1  5  2 -1</clus>
<clus scale="   90.977">  7  8 -1 -1</clus>
<clus scale="   92.804">  2  5  1 -1</clus>
</clustering>
</event>
<event>
 9    1  0.3846604E-005  0.1035144E+03  0.7546771E-02  0.1277250E+00
          1   -1    0    0  502    0  0.00000000000E+00  0.00000000000E+00  0.20209835580E+03  0.20209835580E+03  0.00000000000E+00 0. -1.
         -2   -1    0    0    0  501 -0.00000000000E+00 -0.00000000000E+00 -0.14667900017E+03  0.14667900017E+03  0.00000000000E+00 0.  1.
         23    2    1    2    0    0 -0.25086751504E+02  0.56428130437E+02 -0.22186683679E+02  0.11154149619E+03  0.90198544517E+02 0.  0.
        -24    2    1    2    0    0 -0.58972757838E+02  0.39806697723E+01  0.81610212955E+02  0.13364407603E+03  0.87788839275E+02 0.  0.
         13    1    4    4    0    0 -0.20271454519E+02 -0.30008868357E+02  0.72907238060E+02  0.81405954389E+02  0.00000000000E+00 0. -1.
        -14    1    4    4    0    0 -0.38701303320E+02  0.33989538129E+02  0.87029748944E+01  0.52238121644E+02  0.00000000000E+00 0.  1.
        -11    1    3    3    0    0 -0.38843628957E+02  0.10912749780E+01  0.16936245935E+02  0.42389324340E+02  0.00000000000E+00 0.  1.
         11    1    3    3    0    0  0.13756877453E+02  0.55336855459E+02 -0.39122929614E+02  0.69152171845E+02  0.00000000000E+00 0. -1.
         21    1    1    2  502  501  0.84059509343E+02 -0.60408800210E+02 -0.40041736470E+01  0.10359178375E+03  0.00000000000E+00 0. -1.
<scales pt_clust_5="13000.00000" pt_clust_6="13000.00000" pt_clust_7="13000.00000" pt_clust_8="13000.00000" pt_clust_9="103.51437"></scales>
<clustering>
<clus scale="   87.789">  5  6 -1 -1</clus>
<clus scale="   90.199">  7  8 -1 -1</clus>
<clus scale="  103.514">  2  9  1 -1</clus>
<clus scale="   95.548">  1  5  2 -1</clus>
<clus scale="   95.548">  1  5  2 -1</clus>
</clustering>
</event>
<event>
 9    1  0.3846604E-005  0.1455372E+03  0.7546771E-02  0.1208218E+00
          1   -1    0    0  502    0  0.00000000000E+00  0.00000000000E+00  0.26562386563E+03  0.26562386563E+03  0.00000000000E+00 0. -1.
         -2   -1    0    0    0  501 -0.00000000000E+00 -0.00000000000E+00 -0.28582737436E+03  0.28582737436E+03  0.00000000000E+00 0.  1.
        -24    2    1    2    0    0  0.85405799977E+02 -0.43009146930E+02 -0.22449472459E+03  0.25683872969E+03  0.80151820390E+02 0.  0.
         23    2    1    2    0    0 -0.92158556838E+02  0.69328756299E+02  0.21898926200E+03  0.26371988783E+03  0.91061552372E+02 0.  0.
         11    1    3    3    0    0  0.75171939837E+02 -0.19997597512E+01 -0.98371363495E+02  0.12382142276E+03  0.00000000000E+00 0. -1.
        -12    1    3    3    0    0  0.10233860139E+02 -0.41009387179E+02 -0.12612336109E+03  0.13301730693E+03  0.00000000000E+00 0.  1.
        -11    1    4    4    0    0 -0.99053014040E+02  0.46215526000E+02  0.12211668972E+03  0.16388978108E+03  0.00000000000E+00 0. -1.
         11    1    4    4    0    0  0.68944572018E+01  0.23113230299E+02  0.96872572279E+02  0.99830106756E+02  0.00000000000E+00 0.  1.
         21    1    1    2  502  501  0.67527568616E+01 -0.26319609369E+02 -0.14698046144E+02  0.30892622469E+02  0.00000000000E+00 0.  1.
<scales pt_clust_5="13000.00000" pt_clust_6="13000.00000" pt_clust_7="13000.00000" pt_clust_8="13000.00000" pt_clust_9="27.17207"></scales>
<clustering>
<clus scale="   27.172">  2  9  1 -1</clus>
<clus scale="   80.152">  5  6 -1 -1</clus>
<clus scale="   91.062">  7  8 -1 -1</clus>
<clus scale="  138.972">  2  5  1 -1</clus>
<clus scale="  145.537">  1  5  2 -1</clus>
</clustering>
</event>
<event>
 9    1  0.3846604E-005  0.1472444E+03  0.7546771E-02  0.1205880E+00
         -2   -1    0    0    0  501 -0.00000000000E+00  0.00000000000E+00  0.42172487940E+03  0.42172487940E+03  0.00000000000E+00 0.  1.
          1   -1    0    0  502    0  0.00000000000E+00 -0.00000000000E+00 -0.41903091575E+03  0.41903091575E+03  0.00000000000E+00 0. -1.
         23    2    1    2    0    0  0.14908654520E+03 -0.75695777092E+01  0.23935621383E+03  0.29581425209E+03  0.89053793691E+02 0.  0.
        -24    2    1    2    0    0 -0.11576562643E+03 -0.26469396872E+00 -0.37615330740E+03  0.40131210847E+03  0.78475138784E+02 0.  0.
         13    1    4    4    0    0 -0.12776707661E+03  0.10722097094E+01 -0.34229126441E+03  0.36536130774E+03  0.00000000000E+00 0. -1.
        -14    1    4    4    0    0  0.12001450175E+02 -0.13369036781E+01 -0.33862042992E+02  0.35950800733E+02  0.00000000000E+00 0.  1.
        -13    1    3    3    0    0  0.60492725283E+02 -0.43161295057E+02  0.13689649087E+03  0.15576558162E+03  0.00000000000E+00 0.  1.
         13    1    3    3    0    0  0.88593819918E+02  0.35591717348E+02  0.10245972296E+03  0.14004867047E+03  0.00000000000E+00 0. -1.
         21    1    1    2  502  501 -0.33320918768E+02  0.78342716780E+01  0.13949105721E+03  0.14362943460E+03  0.00000000000E+00 0. -1.
<scales pt_clust_5="13000.00000" pt_clust_6="13000.00000" pt_clust_7="13000.00000" pt_clust_8="13000.00000" pt_clust_9="34.22951"></scales>
<clustering>
<clus scale="   34.230">  1  9  2 -1</clus>
<clus scale="   78.475">  5  6 -1 -1</clus>
<clus scale="   89.054">  7  8 -1 -1</clus>
<clus scale="  141.098">  2  5  1 -1</clus>
<clus scale="  141.098">  2  5  1 -1</clus>
</clustering>
</event>
<event>
 9    1  0.3846604E-005  0.3004151E+03  0.7546771E-02  0.1095707E+00
          1   -1    0    0  502    0  0.00000000000E+00  0.00000000000E+00  0.17465138773E+04  0.17465138773E+04  0.00000000000E+00 0. -1.
         -2   -1    0    0    0  501 -0.00000000000E+00 -0.00000000000E+00 -0.11304329853E+03  0.11304329853E+03  0.00000000000E+00 0.  1.
        -24    2    1    2    0    0 -0.11602862883E+02  0.25884505640E+03  0.68767565236E+03  0.73932524740E+03  0.81047078528E+02 0.  0.
         23    2    1    2    0    0 -0.20843847220E+03 -0.12592963948E+02  0.60332962549E+03  0.64447908868E+03  0.87985676767E+02 0.  0.
         13    1    3    3    0    0  0.32196973080E+02  0.16023853319E+03  0.42605497608E+03  0.45632869210E+03  0.00000000000E+00 0. -1.
        -14    1    3    3    0    0 -0.43799835963E+02  0.98606523208E+02  0.26162067629E+03  0.28299655530E+03  0.00000000000E+00 0.  1.
        -11    1    4    4    0    0 -0.10574113866E+03  0.29965708818E+02  0.22929427836E+03  0.25427347129E+03  0.00000000000E+00 0.  1.
         11    1    4    4    0    0 -0.10269733354E+03 -0.42558672767E+02  0.37403534713E+03  0.39020561739E+03  0.00000000000E+00 0. -1.
         21    1    1    2  502  501  0.22004133508E+03 -0.24625209245E+03  0.34246530087E+03  0.47575283970E+03  0.00000000000E+00 0.  1.
<scales pt_clust_5="13000.00000" pt_clust_6="13000.00000" pt_clust_7="13000.00000" pt_clust_8="13000.00000" pt_clust_9="289.27604"></scales>
<clustering>
<clus scale="   81.047">  5  6 -1 -1</clus>
<clus scale="   87.986">  7  8 -1 -1</clus>
<clus scale="  226.598">  1  7  2 -1</clus>
<clus scale="  289.276">  2  9  1 -1</clus>
<clus scale="  226.598">  1  5  2 -1</clus>
</clustering>
</event>
<event>
 9    1  0.3846604E-005  0.1147281E+03  0.7546771E-02  0.1254778E+00
          1   -1    0    0  502    0  0.00000000000E+00  0.00000000000E+00  0.18622506063E+03  0.18622506063E+03  0.00000000000E+00 0. -1.
         -2   -1    0    0    0  501 -0.00000000000E+00 -0.00000000000E+00 -0.24089778443E+03  0.24089778443E+03  0.00000000000E+00 0.  1.
        -24    2    1    2    0    0 -0.52243803545E+02  0.21436746373E+02 -0.13870930509E+03  0.17080111978E+03  0.82120655726E+02 0.  0.
         23    2    1    2    0    0  0.55801363817E+02 -0.47769827126E+02  0.14737356546E+03  0.18763649439E+03  0.89959644517E+02 0.  0.
         11    1    3    3    0    0 -0.28265039836E+01 -0.22899816106E+02 -0.84025142884E+01  0.24555914742E+02  0.00000000000E+00 0. -1.
        -12    1    3    3    0    0 -0.49417299562E+02  0.44336562479E+02 -0.13030679080E+03  0.14624520504E+03  0.00000000000E+00 0.  1.
        -11    1    4    4    0    0 -0.33940237082E+01 -0.26864889493E+02  0.11272413079E+03  0.11593089039E+03  0.00000000000E+00 0.  1.
         11    1    4    4    0    0  0.59195387526E+02 -0.20904937632E+02  0.34649434676E+02  0.71705604000E+02  0.00000000000E+00 0. -1.
         21    1    1    2  502  501 -0.35575602722E+01  0.26333080753E+02 -0.63336984178E+02  0.68685230886E+02  0.00000000000E+00 0.  1.
<scales pt_clust_5="13000.00000" pt_clust_6="13000.00000" pt_clust_7="13000.00000" pt_clust_8="13000.00000" pt_clust_9="26.57230"></scales>
<clustering>
<clus scale="   26.572">  2  9  1 -1</clus>
<clus scale="   82.121">  5  6 -1 -1</clus>
<clus scale="   89.960">  7  8 -1 -1</clus>
<clus scale="  108.690">  2  5  1 -1</clus>
<clus scale="  114.728">  1  5  2 -1</clus>
</clustering>
</event>
<event>
 9    1  0.3846604E-005  0.1180198E+03  0.7546771E-02  0.1248253E+00
         -2   -1    0    0    0  501 -0.00000000000E+00  0.00000000000E+00  0.92870833210E+02  0.92870833210E+02  0.00000000000E+00 0.  1.
          1   -1    0    0  502    0  0.00000000000E+00 -0.00000000000E+00 -0.26376080603E+03  0.26376080603E+03  0.00000000000E+00 0. -1.
         23    2    1    2    0    0  0.63245234866E+02  0.71683171295E+02 -0.70820833219E+01  0.13240944895E+03  0.91343688817E+02 0.  0.
        -24    2    1    2    0    0 -0.52677878582E+02 -0.44959625287E+02 -0.16134228278E+03  0.19537958038E+03  0.85706017412E+02 0.  0.
         11    1    4    4    0    0 -0.45027107344E+02 -0.66440927333E+02 -0.14950598513E+03  0.16968758591E+03  0.00000000000E+00 0. -1.
        -12    1    4    4    0    0 -0.76507712372E+01  0.21481302046E+02 -0.11836297643E+02  0.25691994473E+02  0.00000000000E+00 0.  1.
        -13    1    3    3    0    0  0.67394465623E+01  0.45181928873E+02  0.34645370256E+02  0.57333485127E+02  0.00000000000E+00 0.  1.
         13    1    3    3    0    0  0.56505788304E+02  0.26501242422E+02 -0.41727453578E+02  0.75075963822E+02  0.00000000000E+00 0. -1.
         21    1    1    2  502  501 -0.10567356284E+02 -0.26723546008E+02 -0.24656067260E+01  0.28842609913E+02  0.00000000000E+00 0.  1.
<scales pt_clust_5="13000.00000" pt_clust_6="13000.00000" pt_clust_7="13000.00000" pt_clust_8="13000.00000" pt_clust_9="28.73703"></scales>
<clustering>
<clus scale="   28.737">  1  9  2 -1</clus>
<clus scale="   85.706">  5  6 -1 -1</clus>
<clus scale="   91.344">  7  8 -1 -1</clus>
<clus scale="  113.713">  2  5  1 -1</clus>
<clus scale="  113.713">  2  5  1 -1</clus>
</clustering>
</event>
<event>
 9    1  0.3846604E-005  0.1118217E+03  0.7546771E-02  0.1262117E+00
          1   -1    0    0  502    0  0.00000000000E+00  0.00000000000E+00  0.34718675460E+03  0.34718675460E+03  0.00000000000E+00 0. -1.
         -2   -1    0    0    0  501 -0.00000000000E+00 -0.00000000000E+00 -0.10911560034E+03  0.10911560034E+03  0.00000000000E+00 0.  1.
         23    2    1    2    0    0 -0.78834602814E+02 -0.16047053017E+02  0.83658645383E+02  0.14877687468E+03  0.93077317220E+02 0.  0.
        -24    2    1    2    0    0  0.47222733379E+02 -0.42945222818E+02  0.20117154054E+03  0.22588109319E+03  0.80486028767E+02 0.  0.
         13    1    4    4    0    0  0.91080082342E+01  0.21289116034E+02  0.82266262608E+02  0.85462975838E+02  0.00000000000E+00 0. -1.
        -14    1    4    4    0    0  0.38114725145E+02 -0.64234338852E+02  0.11890527793E+03  0.14041811735E+03  0.00000000000E+00 0.  1.
        -11    1    3    3    0    0 -0.23501086386E+02  0.23579811712E+02  0.72540905875E+02  0.79815359468E+02  0.00000000000E+00 0. -1.
         11    1    3    3    0    0 -0.55333516428E+02 -0.39626864730E+02  0.11117739507E+02  0.68961515212E+02  0.00000000000E+00 0.  1.
         21    1    1    2  502  501  0.31611869435E+02  0.58992275835E+02 -0.46759031661E+02  0.81644387066E+02  0.00000000000E+00 0.  1.
<scales pt_clust_5="13000.00000" pt_clust_6="13000.00000" pt_clust_7="13000.00000" pt_clust_8="13000.00000" pt_clust_9="66.92831"></scales>
<clustering>
<clus scale="   66.928">  2  9  1 -1</clus>
<clus scale="   80.486">  5  6 -1 -1</clus>
<clus scale="   93.077">  7  8 -1 -1</clus>
<clus scale="  101.581">  1  5  2 -1</clus>
<clus scale="  101.581">  1  5  2 -1</clus>
</clustering>
</event>
<event>
 9    1  0.3846604E-005  0.9506716E+02  0.7546771E-02  0.1296301E+00
         -2   -1    0    0    0  501 -0.00000000000E+00  0.00000000000E+00  0.77276865577E+02  0.77276865577E+02  0.00000000000E+00 0.  1.
          1   -1    0    0  502    0  0.00000000000E+00 -0.00000000000E+00 -0.54643429163E+03  0.54643429163E+03  0.00000000000E+00 0. -1.
         23    2    1    2    0    0 -0.25308598566E+02  0.20299987475E+02 -0.12363550699E+03  0.15639242825E+03  0.90112365249E+02 0.  0.
        -24    2    1    2    0    0 -0.84964689932E+01 -0.33200137785E+02 -0.39579210476E+03  0.40538095340E+03  0.80671482315E+02 0.  0.
         11    1    4    4    0    0 -0.35227150174E+02  0.99250898636E+01 -0.18296446332E+03  0.18658899849E+03  0.00000000000E+00 0. -1.
        -12    1    4    4    0    0  0.26730681181E+02 -0.43125227649E+02 -0.21282764144E+03  0.21879195492E+03  0.00000000000E+00 0.  1.
        -11    1    3    3    0    0 -0.35255766263E+02  0.51561223654E+02 -0.73216727671E+02  0.96240417966E+02  0.00000000000E+00 0. -1.
         11    1    3    3    0    0  0.99471676965E+01 -0.31261236178E+02 -0.50418779319E+02  0.60152010279E+02  0.00000000000E+00 0.  1.
         21    1    1    2  502  501  0.33805067559E+02  0.12900150310E+02  0.50270185697E+02  0.61937775556E+02  0.00000000000E+00 0.  1.
<scales pt_clust_5="13000.00000" pt_clust_6="13000.00000" pt_clust_7="13000.00000" pt_clust_8="13000.00000" pt_clust_9="36.18282"></scales>
<clustering>
<clus scale="   36.183">  1  9  2 -1</clus>
<clus scale="   80.671">  5  6 -1 -1</clus>
<clus scale="   86.171">  2  5  1 -1</clus>
<clus scale="   90.112">  7  8 -1 -1</clus>
<clus scale="   86.171">  2  5  1 -1</clus>
</clustering>
</event>
<event>
 9    1  0.3846604E-005  0.1134401E+03  0.7546771E-02  0.1259790E+00
         -4   -1    0    0    0  501 -0.00000000000E+00  0.00000000000E+00  0.32615115725E+03  0.32615115725E+03  0.00000000000E+00 0.  1.
          3   -1    0    0  502    0  0.00000000000E+00 -0.00000000000E+00 -0.49966956467E+02  0.49966956467E+02  0.00000000000E+00 0. -1.
         23    2    1    2    0    0 -0.26481473121E+02 -0.60722101400E+02  0.10391644325E+03  0.15540538897E+03  0.94677165812E+02 0.  0.
        -24    2    1    2    0    0  0.49598052195E+01  0.60658201267E+02  0.88340332599E+02  0.13406978546E+03  0.80415645000E+02 0.  0.
         11    1    4    4    0    0  0.29513160053E+02  0.44948117636E+02  0.90036814784E+02  0.10487129212E+03  0.00000000000E+00 0. -1.
        -12    1    4    4    0    0 -0.24553354833E+02  0.15710083631E+02 -0.16964821853E+01  0.29198493336E+02  0.00000000000E+00 0.  1.
        -13    1    3    3    0    0 -0.30578790181E+02 -0.85197110965E+02  0.77525360025E+02  0.11917966090E+03  0.00000000000E+00 0.  1.
         13    1    3    3    0    0  0.40973170594E+01  0.24475009565E+02  0.26391083228E+02  0.36225728071E+02  0.00000000000E+00 0. -1.
         21    1    1    2  502  501  0.21521667902E+02  0.63900133059E-01  0.83927424934E+02  0.86642939288E+02  0.00000000000E+00 0.  1.
<scales pt_clust_5="13000.00000" pt_clust_6="13000.00000" pt_clust_7="13000.00000" pt_clust_8="13000.00000" pt_clust_9="21.52176"></scales>
<clustering>
<clus scale="   21.522">  1  9  2 -1</clus>
<clus scale="   80.416">  5  6 -1 -1</clus>
<clus scale="   94.677">  7  8 -1 -1</clus>
<clus scale="  101.841">  2  5  1 -1</clus>
<clus scale="  101.841">  2  5  1 -1</clus>
</clustering>
</event>
<event>
 9    1  0.3846604E-005  0.1142632E+03  0.7546771E-02  0.1255173E+00
          1   -1    0    0  502    0  0.00000000000E+00  0.00000000000E+00  0.52790289938E+03  0.52790289938E+03  0.00000000000E+00 0. -1.
         -2   -1    0    0    0  501 -0.00000000000E+00 -0.00000000000E+00 -0.13887053385E+03  0.13887053385E+03  0.00000000000E+00 0.  1.
         23    2    1    2    0    0  0.35785158675E+01  0.14303807293E+03 -0.43317038321E+02  0.17299970799E+03  0.87062259745E+02 0.  0.
        -24    2    1    2    0    0 -0.33018920250E+02 -0.61931156121E+02  0.37574979281E+03  0.39058174235E+03  0.80252560498E+02 0.  0.
         13    1    4    4    0    0 -0.21829500784E+02 -0.70354912888E+02  0.18222775706E+03  0.19655354567E+03  0.00000000000E+00 0. -1.
        -14    1    4    4    0    0 -0.11189419467E+02  0.84237567677E+01  0.19352203574E+03  0.19402819667E+03  0.00000000000E+00 0.  1.
        -11    1    3    3    0    0 -0.19662249831E+02  0.72604892423E+02  0.17332054754E+02  0.77191156192E+02  0.00000000000E+00 0. -1.
         11    1    3    3    0    0  0.23240765699E+02  0.70433180507E+02 -0.60649093075E+02  0.95808551797E+02  0.00000000000E+00 0.  1.
         21    1    1    2  502  501  0.29440404383E+02 -0.81106916810E+02  0.56599611036E+02  0.10319198290E+03  0.00000000000E+00 0. -1.
<scales pt_clust_5="13000.00000" pt_clust_6="13000.00000" pt_clust_7="13000.00000" pt_clust_8="13000.00000" pt_clust_9="86.28482"></scales>
<clustering>
<clus scale="   80.253">  5  6 -1 -1</clus>
<clus scale="   86.285">  2  9  1 -1</clus>
<clus scale="   87.062">  7  8 -1 -1</clus>
<clus scale="  109.164">  1  5  2 -1</clus>
<clus scale="  109.164">  1  5  2 -1</clus>
</clustering>
</event>
<event>
 9    1  0.3846604E-005  0.2026546E+03  0.7546771E-02  0.1148308E+00
          1   -1    0    0  502    0  0.00000000000E+00  0.00000000000E+00  0.65597832286E+03  0.65597832286E+03  0.00000000000E+00 0. -1.
         -2   -1    0    0    0  501 -0.00000000000E+00 -0.00000000000E+00 -0.20636465175E+03  0.20636465175E+03  0.00000000000E+00 0.  1.
        -24    2    1    2    0    0  0.84754033791E+02 -0.10684336690E+03 -0.37330290619E+02  0.16206496089E+03  0.79200692264E+02 0.  0.
         23    2    1    2    0    0 -0.29103721788E+02  0.19290803129E+03  0.54283586102E+03  0.58353903956E+03  0.88241166793E+02 0.  0.
         13    1    3    3    0    0  0.26344987333E+01 -0.21405866218E+02  0.20895245572E+02  0.30029368618E+02  0.00000000000E+00 0. -1.
        -14    1    3    3    0    0  0.82119535058E+02 -0.85437500684E+02 -0.58225536191E+02  0.13203559227E+03  0.00000000000E+00 0.  1.
        -13    1    4    4    0    0  0.23402352170E+02  0.17725108425E+02  0.51628275105E+02  0.59391315410E+02  0.00000000000E+00 0.  1.
         13    1    4    4    0    0 -0.52506073958E+02  0.17518292287E+03  0.49120758592E+03  0.52414772415E+03  0.00000000000E+00 0. -1.
         21    1    1    2  502  501 -0.55650312004E+02 -0.86064664389E+02 -0.55891899294E+02  0.11673897417E+03  0.00000000000E+00 0. -1.
<scales pt_clust_5="13000.00000" pt_clust_6="13000.00000" pt_clust_7="13000.00000" pt_clust_8="13000.00000" pt_clust_9="102.48943"></scales>
<clustering>
<clus scale="   79.201">  5  6 -1 -1</clus>
<clus scale="   88.241">  7  8 -1 -1</clus>
<clus scale="  102.489">  2  9  1 -1</clus>
<clus scale="  198.885">  2  5  1 -1</clus>
<clus scale="  202.655">  1  5  2 -1</clus>
</clustering>
</event>
<event>
 9    1  0.3846604E-005  0.2307594E+03  0.7546771E-02  0.1126804E+00
         -2   -1    0    0    0  501 -0.00000000000E+00  0.00000000000E+00  0.22961229860E+03  0.22961229860E+03  0.00000000000E+00 0.  1.
          1   -1    0    0  502    0  0.00000000000E+00 -0.00000000000E+00 -0.63561748927E+03  0.63561748927E+03  0.00000000000E+00 0. -1.
        -24    2    1    2    0    0  0.11420695993E+03 -0.16421042613E+03  0.27698643672E+02  0.21703428741E+03  0.79551073538E+02 0.  0.
         23    2    1    2    0    0 -0.13897658533E+03  0.16419515096E+03 -0.51384751445E+03  0.56431138970E+03  0.90186127364E+02 0.  0.
         13    1    3    3    0    0  0.20979019265E+02 -0.65272725984E+02 -0.22441624280E+02  0.72140657794E+02  0.00000000000E+00 0. -1.
        -14    1    3    3    0    0  0.93227940669E+02 -0.98937700149E+02  0.50140267951E+02  0.14489362961E+03  0.00000000000E+00 0.  1.
        -11    1    4    4    0    0 -0.39044568953E+02  0.31264317431E+02 -0.46648115003E+02  0.68395778689E+02  0.00000000000E+00 0.  1.
         11    1    4    4    0    0 -0.99932016378E+02  0.13293083353E+03 -0.46719939945E+03  0.49591561101E+03  0.00000000000E+00 0. -1.
         21    1    1    2  502  501  0.24769625397E+02  0.15275170010E-01  0.80143680117E+02  0.83884110762E+02  0.00000000000E+00 0. -1.
<scales pt_clust_5="13000.00000" pt_clust_6="13000.00000" pt_clust_7="13000.00000" pt_clust_8="13000.00000" pt_clust_9="24.76963"></scales>
<clustering>
<clus scale="   24.770">  1  9  2 -1</clus>
<clus scale="   79.551">  5  6 -1 -1</clus>
<clus scale="   90.186">  7  8 -1 -1</clus>
<clus scale="  226.814">  1  5  2 -1</clus>
<clus scale="  230.759">  2  5  1 -1</clus>
</clustering>
</event>
<event>
 9    1  0.3846604E-005  0.1012007E+03  0.7546771E-02  0.1283668E+00
          1   -1    0    0  502    0  0.00000000000E+00  0.00000000000E+00  0.15480334841E+03  0.15480334841E+03  0.00000000000E+00 0. -1.
         -2   -1    0    0    0  501 -0.00000000000E+00 -0.00000000000E+00 -0.18474279845E+03  0.18474279845E+03  0.00000000000E+00 0.  1.
        -24    2    1    2    0    0  0.34482735398E+02 -0.18919131587E+02 -0.12475464524E+03  0.15318555775E+03  0.79718887439E+02 0.  0.
         23    2    1    2    0    0 -0.51622394439E+02  0.53755645439E+02  0.87071212448E+02  0.14677119812E+03  0.91683409277E+02 0.  0.
         11    1    3    3    0    0  0.40828653295E+02 -0.55603947227E+01 -0.17253595707E+02  0.44671954112E+02  0.00000000000E+00 0. -1.
        -12    1    3    3    0    0 -0.63459178968E+01 -0.13358736864E+02 -0.10750104953E+03  0.10851360364E+03  0.00000000000E+00 0.  1.
        -11    1    4    4    0    0 -0.76584960969E+02  0.52902166431E+02  0.71036601580E+02  0.11709011155E+03  0.00000000000E+00 0. -1.
         11    1    4    4    0    0  0.24962566530E+02  0.85347900871E+00  0.16034610868E+02  0.29681086568E+02  0.00000000000E+00 0.  1.
         21    1    1    2  502  501  0.17139659042E+02 -0.34836513852E+02  0.77439827576E+01  0.39589390983E+02  0.00000000000E+00 0. -1.
<scales pt_clust_5="13000.00000" pt_clust_6="13000.00000" pt_clust_7="13000.00000" pt_clust_8="13000.00000" pt_clust_9="38.82461"></scales>
<clustering>
<clus scale="   38.825">  1  9  2 -1</clus>
<clus scale="   79.719">  5  6 -1 -1</clus>
<clus scale="   90.503">  2  5  1 -1</clus>
<clus scale="   91.683">  7  8 -1 -1</clus>
<clus scale="   38.825">  1  5  2 -1</clus>
</clustering>
</event>
<event>
 9    1  0.3846604E-005  0.1083134E+03  0.7546771E-02  0.1268502E+00
         -2   -1    0    0    0  501 -0.00000000000E+00  0.00000000000E+00  0.72663249303E+03  0.72663249303E+03  0.00000000000E+00 0.  1.
          1   -1    0    0  502    0  0.00000000000E+00 -0.00000000000E+00 -0.10078170636E+03  0.10078170636E+03  0.00000000000E+00 0. -1.
         23    2    1    2    0    0  0.67397494410E+02 -0.60665828566E+02  0.39002563058E+03  0.41084572501E+03  0.91931780395E+02 0.  0.
        -24    2    1    2    0    0 -0.56313706861E+02  0.14934002249E+01 -0.59758680812E+02  0.11491630504E+03  0.80381548920E+02 0.  0.
         11    1    4    4    0    0 -0.72621540403E+02 -0.29629394264E+01 -0.64695423127E+02  0.97304495858E+02  0.00000000000E+00 0. -1.
        -12    1    4    4    0    0  0.16307833543E+02  0.44563396512E+01  0.49367423149E+01  0.17611809181E+02  0.00000000000E+00 0.  1.
        -13    1    3    3    0    0  0.29202717476E+02  0.15636350800E+02  0.47888894570E+02  0.58229205709E+02  0.00000000000E+00 0.  1.
         13    1    3    3    0    0  0.38194776934E+02 -0.76302179366E+02  0.34213673601E+03  0.35261651930E+03  0.00000000000E+00 0. -1.
         21    1    1    2  502  501 -0.11083787550E+02  0.59172428341E+02  0.29558383691E+03  0.30165216933E+03  0.00000000000E+00 0.  1.
<scales pt_clust_5="13000.00000" pt_clust_6="13000.00000" pt_clust_7="13000.00000" pt_clust_8="13000.00000" pt_clust_9="60.20155"></scales>
<clustering>
<clus scale="   60.202">  1  9  2 -1</clus>
<clus scale="   80.382">  5  6 -1 -1</clus>
<clus scale="   91.932">  7  8 -1 -1</clus>
<clus scale="   98.699">  2  5  1 -1</clus>
<clus scale="   98.699">  2  5  1 -1</clus>
</clustering>
</event>
<event>
 9    1  0.3846604E-005  0.1001650E+03  0.7546771E-02  0.1288161E+00
          1   -1    0    0  502    0  0.00000000000E+00  0.00000000000E+00  0.21947646071E+02  0.21947646071E+02  0.00000000000E+00 0. -1.
         -2   -1    0    0    0  501 -0.00000000000E+00 -0.00000000000E+00 -0.73896638872E+03  0.73896638872E+03  0.00000000000E+00 0.  1.
        -24    2    1    2    0    0  0.18158781529E+02  0.65520215577E+00 -0.48792566424E+03  0.49459182308E+03  0.78863470633E+02 0.  0.
         23    2    1    2    0    0 -0.35721491773E+02  0.15635229787E+02 -0.13508939837E+03  0.16931438303E+03  0.94327776205E+02 0.  0.
         11    1    3    3    0    0  0.41808615376E+02  0.15157658994E+02 -0.17973452428E+03  0.18515456830E+03  0.00000000000E+00 0. -1.
        -12    1    3    3    0    0 -0.23649833847E+02 -0.14502456838E+02 -0.30819113996E+03  0.30943725478E+03  0.00000000000E+00 0.  1.
        -11    1    4    4    0    0  0.85852637016E+01 -0.32931109322E+02 -0.64011433341E+02  0.72495712373E+02  0.00000000000E+00 0.  1.
         11    1    4    4    0    0 -0.44306755475E+02  0.48566339110E+02 -0.71077965032E+02  0.96818670659E+02  0.00000000000E+00 0. -1.
         21    1    1    2  502  501  0.17562710245E+02 -0.16290431943E+02 -0.94003680033E+02  0.97007828672E+02  0.00000000000E+00 0.  1.
<scales pt_clust_5="13000.00000" pt_clust_6="13000.00000" pt_clust_7="13000.00000" pt_clust_8="13000.00000" pt_clust_9="23.95469"></scales>
<clustering>
<clus scale="   23.955">  2  9  1 -1</clus>
<clus scale="   78.863">  5  6 -1 -1</clus>
<clus scale="   85.760">  2  5  1 -1</clus>
<clus scale="   94.328">  7  8 -1 -1</clus>
<clus scale="  100.165">  1  5  2 -1</clus>
</clustering>
</event>
<event>
 9    1  0.3846604E-005  0.1177197E+03  0.7546771E-02  0.1248515E+00
         -2   -1    0    0    0  501 -0.00000000000E+00  0.00000000000E+00  0.16555406162E+03  0.16555406162E+03  0.00000000000E+00 0.  1.
          1   -1    0    0  502    0  0.00000000000E+00 -0.00000000000E+00 -0.15485341878E+03  0.15485341878E+03  0.00000000000E+00 0. -1.
        -24    2    1    2    0    0  0.52529971160E+02 -0.72568770716E+02  0.26552661365E+02  0.12724818863E+03  0.86379588619E+02 0.  0.
         23    2    1    2    0    0 -0.54516190340E+02  0.42172050084E+02 -0.67795972368E+02  0.13294235037E+03  0.91251727847E+02 0.  0.
         11    1    3    3    0    0  0.31968994393E+02 -0.71327888529E+02  0.52469926272E+02  0.94142325484E+02  0.00000000000E+00 0. -1.
        -12    1    3    3    0    0  0.20560976766E+02 -0.12408821871E+01 -0.25917264907E+02  0.33105863143E+02  0.00000000000E+00 0.  1.
        -13    1    4    4    0    0 -0.15113179841E+02  0.53926420527E+02 -0.28533122741E+01  0.56076808279E+02  0.00000000000E+00 0.  1.
         13    1    4    4    0    0 -0.39403010498E+02 -0.11754370443E+02 -0.64942660094E+02  0.76865542091E+02  0.00000000000E+00 0. -1.
         21    1    1    2  502  501  0.19862191801E+01  0.30396720632E+02  0.51943953835E+02  0.60216941403E+02  0.00000000000E+00 0.  1.
<scales pt_clust_5="13000.00000" pt_clust_6="13000.00000" pt_clust_7="13000.00000" pt_clust_8="13000.00000" pt_clust_9="30.46154"></scales>
<clustering>
<clus scale="   30.462">  1  9  2 -1</clus>
<clus scale="   86.380">  5  6 -1 -1</clus>
<clus scale="   91.252">  7  8 -1 -1</clus>
<clus scale="  113.985">  1  5  2 -1</clus>
<clus scale="  117.720">  2  5  1 -1</clus>
</clustering>
</event>
<event>
 9    1  0.3846604E-005  0.1027619E+03  0.7546771E-02  0.1279062E+00
          3   -1    0    0  502    0  0.00000000000E+00  0.00000000000E+00  0.15810835690E+03  0.15810835690E+03  0.00000000000E+00 0. -1.
         -4   -1    0    0    0  501 -0.00000000000E+00 -0.00000000000E+00 -0.13614238068E+03  0.13614238068E+03  0.00000000000E+00 0.  1.
        -24    2    1    2    0    0  0.74676411151E+01  0.11955397594E+02 -0.18276064978E+02  0.85019501470E+02  0.81826669758E+02 0.  0.
         23    2    1    2    0    0  0.28306703594E+02 -0.64466953131E+02  0.74208278616E+02  0.13718283232E+03  0.91405707450E+02 0.  0.
         13    1    3    3    0    0  0.38679942127E+02  0.13946542433E+02  0.10589350790E+02  0.42459137049E+02  0.00000000000E+00 0. -1.
        -14    1    3    3    0    0 -0.31212301012E+02 -0.19911448393E+01 -0.28865415768E+02  0.42560364421E+02  0.00000000000E+00 0.  1.
        -11    1    4    4    0    0  0.44674397012E+01 -0.34664910128E+02  0.89489929531E+02  0.96073209060E+02  0.00000000000E+00 0. -1.
         11    1    4    4    0    0  0.23839263893E+02 -0.29802043003E+02 -0.15281650914E+02  0.41109623263E+02  0.00000000000E+00 0.  1.
         21    1    1    2  502  501 -0.35774344709E+02  0.52511555537E+02 -0.33966237411E+02  0.72048403787E+02  0.00000000000E+00 0.  1.
<scales pt_clust_5="13000.00000" pt_clust_6="13000.00000" pt_clust_7="13000.00000" pt_clust_8="13000.00000" pt_clust_9="63.53949"></scales>
<clustering>
<clus scale="   63.539">  2  9  1 -1</clus>
<clus scale="   81.827">  5  6 -1 -1</clus>
<clus scale="   91.406">  7  8 -1 -1</clus>
<clus scale="   94.343">  2  5  1 -1</clus>
<clus scale="  102.762">  1  5  2 -1</clus>
</clustering>
</event>
<event>
 9    1  0.3846604E-005  0.1148397E+03  0.7546771E-02  0.1255215E+00
         -4   -1    0    0    0  501 -0.00000000000E+00  0.00000000000E+00  0.89474947390E+02  0.89474947390E+02  0.00000000000E+00 0.  1.
          3   -1    0    0  502    0  0.00000000000E+00 -0.00000000000E+00 -0.17829476359E+03  0.17829476359E+03  0.00000000000E+00 0. -1.
         23    2    1    2    0    0  0.54128712414E+02  0.14222028594E+02 -0.18138386320E+02  0.10864993424E+03  0.91343437353E+02 0.  0.
        -24    2    1    2    0    0 -0.79007667775E+02 -0.90364531279E+01 -0.69635924859E+02  0.13368464958E+03  0.81844697144E+02 0.  0.
         11    1    4    4    0    0 -0.62963746473E+02 -0.26402425106E+01 -0.88153357482E+02  0.10836244131E+03  0.00000000000E+00 0. -1.
        -12    1    4    4    0    0 -0.16043921302E+02 -0.63962106173E+01  0.18517432623E+02  0.25322208276E+02  0.00000000000E+00 0.  1.
        -11    1    3    3    0    0  0.28697338206E+02 -0.15958144993E+02  0.31318051694E+02  0.45376425307E+02  0.00000000000E+00 0.  1.
         11    1    3    3    0    0  0.25431374208E+02  0.30180173587E+02 -0.49456438015E+02  0.63273508935E+02  0.00000000000E+00 0. -1.
         21    1    1    2  502  501  0.24878955361E+02 -0.51855754661E+01 -0.10455050230E+01  0.25435127158E+02  0.00000000000E+00 0.  1.
<scales pt_clust_5="13000.00000" pt_clust_6="13000.00000" pt_clust_7="13000.00000" pt_clust_8="13000.00000" pt_clust_9="25.41363"></scales>
<clustering>
<clus scale="   25.414">  1  9  2 -1</clus>
<clus scale="   81.845">  5  6 -1 -1</clus>
<clus scale="   91.343">  7  8 -1 -1</clus>
<clus scale="  107.439">  2  5  1 -1</clus>
<clus scale="  107.439">  2  5  1 -1</clus>
</clustering>
</event>
<event>
 9    1  0.3846604E-005  0.1213178E+03  0.7546771E-02  0.1243834E+00
          1   -1    0    0  502    0  0.00000000000E+00  0.00000000000E+00  0.25710696702E+03  0.25710696702E+03  0.00000000000E+00 0. -1.
         -2   -1    0    0    0  501 -0.00000000000E+00 -0.00000000000E+00 -0.12936205288E+03  0.12936205288E+03  0.00000000000E+00 0.  1.
         23    2    1    2    0    0  0.15651269733E+02 -0.10078064889E+03  0.92379801874E+02  0.16429921187E+03  0.89769158349E+02 0.  0.
        -24    2    1    2    0    0  0.13206681502E+02  0.69150884936E+02  0.98938827972E+02  0.14552229897E+03  0.80197172608E+02 0.  0.
         11    1    4    4    0    0  0.36546045441E+02  0.49826065439E+02  0.97190513333E+02  0.11517050888E+03  0.00000000000E+00 0. -1.
        -12    1    4    4    0    0 -0.23339363938E+02  0.19324819497E+02  0.17483146399E+01  0.30351790091E+02  0.00000000000E+00 0.  1.
        -13    1    3    3    0    0 -0.29498065052E+02 -0.73901297628E+02  0.36333536416E+02  0.87473787510E+02  0.00000000000E+00 0.  1.
         13    1    3    3    0    0  0.45149334784E+02 -0.26879351263E+02  0.56046265459E+02  0.76825424357E+02  0.00000000000E+00 0. -1.
         21    1    1    2  502  501 -0.28857951235E+02  0.31629763955E+02 -0.63573715703E+02  0.76647509063E+02  0.00000000000E+00 0.  1.
<scales pt_clust_5="13000.00000" pt_clust_6="13000.00000" pt_clust_7="13000.00000" pt_clust_8="13000.00000" pt_clust_9="42.81616"></scales>
<clustering>
<clus scale="   42.816">  2  9  1 -1</clus>
<clus scale="   80.197">  5  6 -1 -1</clus>
<clus scale="   89.769">  7  8 -1 -1</clus>
<clus scale="  114.416">  1  5  2 -1</clus>
<clus scale="  114.416">  1  5  2 -1</clus>
</clustering>
</event>
<event>
 9    1  0.3846604E-005  0.1029763E+03  0.7546771E-02  0.1278499E+00
         -2   -1    0    0    0  501 -0.00000000000E+00  0.00000000000E+00  0.81200358965E+03  0.81200358965E+03  0.00000000000E+00 0.  1.
          1   -1    0    0  502    0  0.00000000000E+00 -0.00000000000E+00 -0.27653404750E+02  0.27653404750E+02  0.00000000000E+00 0. -1.
        -24    2    1    2    0    0 -0.74651184605E+02 -0.35481155704E+02  0.47947332312E+03  0.49333966597E+03  0.81594403365E+02 0.  0.
         23    2    1    2    0    0  0.33168258732E+02  0.19986374859E+02  0.11655304240E+03  0.15285730073E+03  0.91000846847E+02 0.  0.
         11    1    3    3    0    0 -0.40384249223E+02  0.13472818597E+02  0.93088607979E+02  0.10236158147E+03  0.00000000000E+00 0. -1.
        -12    1    3    3    0    0 -0.34266935382E+02 -0.48953974302E+02  0.38638471514E+03  0.39097808450E+03  0.00000000000E+00 0.  1.
        -11    1    4    4    0    0  0.11245566077E+02  0.26288749374E+02 -0.51344056924E+01  0.29050356656E+02  0.00000000000E+00 0. -1.
         11    1    4    4    0    0  0.21922692654E+02 -0.63023745151E+01  0.12168744810E+03  0.12380694408E+03  0.00000000000E+00 0.  1.
         21    1    1    2  502  501  0.41482925874E+02  0.15494780845E+02  0.18832381937E+03  0.19346002769E+03  0.00000000000E+00 0. -1.
<scales pt_clust_5="13000.00000" pt_clust_6="13000.00000" pt_clust_7="13000.00000" pt_clust_8="13000.00000" pt_clust_9="44.28229"></scales>
<clustering>
<clus scale="   44.282">  1  9  2 -1</clus>
<clus scale="   81.594">  5  6 -1 -1</clus>
<clus scale="   91.001">  7  8 -1 -1</clus>
<clus scale="   94.766">  1  5  2 -1</clus>
<clus scale="  102.976">  2  5  1 -1</clus>
</clustering>
</event>
<event>
 9    1  0.3846604E-005  0.1083167E+03  0.7546771E-02  0.1266333E+00
         -2   -1    0    0    0  501 -0.00000000000E+00  0.00000000000E+00  0.22354064054E+03  0.22354064054E+03  0.00000000000E+00 0.  1.
          1   -1    0    0  502    0  0.00000000000E+00 -0.00000000000E+00 -0.84735703677E+02  0.84735703677E+02  0.00000000000E+00 0. -1.
         23    2    1    2    0    0  0.11587396457E+01  0.70796477169E+02  0.12605668055E+03  0.16933021627E+03  0.88141656276E+02 0.  0.
        -24    2    1    2    0    0  0.19399296266E+02 -0.58348685085E+02 -0.13985564464E+02  0.10299786594E+03  0.81437476805E+02 0.  0.
         11    1    4    4    0    0 -0.13016786580E+02 -0.50647460494E+02 -0.35619533722E+02  0.63272056786E+02  0.00000000000E+00 0. -1.
        -12    1    4    4    0    0  0.32416082845E+02 -0.77012245907E+01  0.21633969258E+02  0.39725809156E+02  0.00000000000E+00 0.  1.
        -11    1    3    3    0    0  0.29703356226E+02  0.69743315764E+02  0.11691374399E+03  0.13933859121E+03  0.00000000000E+00 0. -1.
         11    1    3    3    0    0 -0.28544616580E+02  0.10531614048E+01  0.91429365595E+01  0.29991625058E+02  0.00000000000E+00 0.  1.
         21    1    1    2  502  501 -0.20558035912E+02 -0.12447792085E+02  0.26733820769E+02  0.35948262006E+02  0.00000000000E+00 0. -1.
<scales pt_clust_5="13000.00000" pt_clust_6="13000.00000" pt_clust_7="13000.00000" pt_clust_8="13000.00000" pt_clust_9="24.03290"></scales>
<clustering>
<clus scale="   24.033">  1  9  2 -1</clus>
<clus scale="   81.437">  5  6 -1 -1</clus>
<clus scale="   88.142">  7  8 -1 -1</clus>
<clus scale="  102.935">  2  5  1 -1</clus>
<clus scale="  102.935">  2  5  1 -1</clus>
</clustering>
</event>
<event>
 9    1  0.3846604E-005  0.1010848E+03  0.7546771E-02  0.1283664E+00
         -2   -1    0    0    0  501 -0.00000000000E+00  0.00000000000E+00  0.15775343840E+03  0.15775343840E+03  0.00000000000E+00 0.  1.
          1   -1    0    0  502    0  0.00000000000E+00 -0.00000000000E+00 -0.25869970916E+03  0.25869970916E+03  0.00000000000E+00 0. -1.
        -24    2    1    2    0    0  0.65628217156E+01  0.34451904237E+02  0.88115458453E+02  0.12454518521E+03  0.80728958910E+02 0.  0.
         23    2    1    2    0    0 -0.28405328238E+02  0.41270589372E+02 -0.18541337618E+03  0.21301371915E+03  0.92122745635E+02 0.  0.
         11    1    3    3    0    0 -0.27127754980E+02 -0.61023463520E+01  0.85380104739E+01  0.29086961754E+02  0.00000000000E+00 0. -1.
        -12    1    3    3    0    0  0.33690576695E+02  0.40554250589E+02  0.79577447979E+02  0.95458223458E+02  0.00000000000E+00 0.  1.
        -11    1    4    4    0    0 -0.48044984938E+02  0.60254432620E+02 -0.12746775692E+03  0.14895283241E+03  0.00000000000E+00 0. -1.
         11    1    4    4    0    0  0.19639656701E+02 -0.18983843247E+02 -0.57945619254E+02  0.64060886744E+02  0.00000000000E+00 0.  1.
         21    1    1    2  502  501  0.21842506522E+02 -0.75722493609E+02 -0.36483530281E+01  0.78894243195E+02  0.00000000000E+00 0.  1.
<scales pt_clust_5="13000.00000" pt_clust_6="13000.00000" pt_clust_7="13000.00000" pt_clust_8="13000.00000" pt_clust_9="78.80984"></scales>
<clustering>
<clus scale="   78.810">  1  9  2 -1</clus>
<clus scale="   80.729">  5  6 -1 -1</clus>
<clus scale="   90.822">  1  5  2 -1</clus>
<clus scale="   92.123">  7  8 -1 -1</clus>
<clus scale="  101.085">  2  5  1 -1</clus>
</clustering>
</event>
<event>
 9    1  0.3846604E-005  0.1252617E+03  0.7546771E-02  0.1237325E+00
          1   -1    0    0  502    0  0.00000000000E+00  0.00000000000E+00  0.86384062774E+02  0.86384062774E+02  0.00000000000E+00 0. -1.
         -2   -1    0    0    0  501 -0.00000000000E+00 -0.00000000000E+00 -0.45159540955E+03  0.45159540955E+03  0.00000000000E+00 0.  1.
         23    2    1    2    0    0  0.14305419557E+02  0.64101176015E+02 -0.23936962485E+03  0.26437849487E+03  0.91019588292E+02 0.  0.
        -24    2    1    2    0    0 -0.54142274549E+02 -0.73579502723E+02  0.18191388353E+02  0.12386003266E+03  0.81639769505E+02 0.  0.
         11    1    4    4    0    0 -0.17230123423E+02 -0.42253881384E+02  0.48619289089E+02  0.66679104049E+02  0.00000000000E+00 0. -1.
        -12    1    4    4    0    0 -0.36912151126E+02 -0.31325621339E+02 -0.30427900737E+02  0.57180928606E+02  0.00000000000E+00 0.  1.
        -13    1    3    3    0    0 -0.24989042640E+02  0.31455470245E+02 -0.18681628162E+03  0.19108694864E+03  0.00000000000E+00 0.  1.
         13    1    3    3    0    0  0.39294462196E+02  0.32645705770E+02 -0.52553343228E+02  0.73291546231E+02  0.00000000000E+00 0. -1.
         21    1    1    2  502  501  0.39836854993E+02  0.94783267078E+01 -0.14403311027E+03  0.14974094479E+03  0.00000000000E+00 0. -1.
<scales pt_clust_5="13000.00000" pt_clust_6="13000.00000" pt_clust_7="13000.00000" pt_clust_8="13000.00000" pt_clust_9="40.94892"></scales>
<clustering>
<clus scale="   40.949">  2  9  1 -1</clus>
<clus scale="   81.640">  5  6 -1 -1</clus>
<clus scale="   91.020">  7  8 -1 -1</clus>
<clus scale="  118.621">  1  5  2 -1</clus>
<clus scale="  118.621">  1  5  2 -1</clus>
</clustering>
</event>
<event>
 9    1  0.3846604E-005  0.8903455E+02  0.7546771E-02  0.1309767E+00
          1   -1    0    0  502    0  0.00000000000E+00  0.00000000000E+00  0.92695824795E+03  0.92695824795E+03  0.00000000000E+00 0. -1.
         -2   -1    0    0    0  501 -0.00000000000E+00 -0.00000000000E+00 -0.11983079009E+02  0.11983079009E+02  0.00000000000E+00 0.  1.
         23    2    1    2    0    0  0.13998836852E+02  0.37869351946E+01  0.24625268522E+03  0.26186451953E+03  0.87876807498E+02 0.  0.
        -24    2    1    2    0    0 -0.13829363553E+02  0.18258932457E+02  0.54231185352E+03  0.54875807759E+03  0.80676151000E+02 0.  0.
         13    1    4    4    0    0 -0.10772325722E+02  0.45535175371E+02  0.20233517401E+03  0.20767527016E+03  0.00000000000E+00 0. -1.
        -14    1    4    4    0    0 -0.30570378313E+01 -0.27276242914E+02  0.33997667951E+03  0.34108280742E+03  0.00000000000E+00 0.  1.
        -11    1    3    3    0    0  0.28367538716E+02  0.33363152701E+02  0.69994295851E+02  0.82565238828E+02  0.00000000000E+00 0.  1.
         11    1    3    3    0    0 -0.14368701865E+02 -0.29576217506E+02  0.17625838937E+03  0.17929928070E+03  0.00000000000E+00 0. -1.
         21    1    1    2  502  501 -0.16947329858E+00 -0.22045867652E+02  0.12641063020E+03  0.12831872984E+03  0.00000000000E+00 0.  1.
<scales pt_clust_5="13000.00000" pt_clust_6="13000.00000" pt_clust_7="13000.00000" pt_clust_8="13000.00000" pt_clust_9="22.04652"></scales>
<clustering>
<clus scale="   22.047">  1  9  2 -1</clus>
<clus scale="   80.676">  5  6 -1 -1</clus>
<clus scale="   81.936">  1  5  2 -1</clus>
<clus scale="   87.877">  7  8 -1 -1</clus>
<clus scale="   22.047">  1  5  2 -1</clus>
</clustering>
</event>
<event>
 9    1  0.3846604E-005  0.1513057E+03  0.7546771E-02  0.1200653E+00
         -2   -1    0    0    0  501 -0.00000000000E+00  0.00000000000E+00  0.78227368476E+03  0.78227368476E+03  0.00000000000E+00 0.  1.
          1   -1    0    0  502    0  0.00000000000E+00 -0.00000000000E+00 -0.20525859667E+03  0.20525859667E+03  0.00000000000E+00 0. -1.
        -24    2    1    2    0    0 -0.26624693842E+02 -0.71962491439E+02  0.35463693645E+03  0.37135077863E+03  0.79035242771E+02 0.  0.
         23    2    1    2    0    0  0.12130546110E+03  0.42803155969E+02 -0.15843083216E+03  0.22269681863E+03  0.89142691194E+02 0.  0.
         13    1    3    3    0    0 -0.11692989226E+02  0.16440854887E+02  0.54756869633E+02  0.58355312342E+02  0.00000000000E+00 0. -1.
        -14    1    3    3    0    0 -0.14931704616E+02 -0.88403346326E+02  0.29988006681E+03  0.31299546629E+03  0.00000000000E+00 0.  1.
        -11    1    4    4    0    0  0.31137701616E+01  0.20967964283E+02  0.30283650941E+01  0.21413128822E+02  0.00000000000E+00 0.  1.
         11    1    4    4    0    0  0.11819169094E+03  0.21835191686E+02 -0.16145919726E+03  0.20128368981E+03  0.00000000000E+00 0. -1.
         21    1    1    2  502  501 -0.94680767263E+02  0.29159335470E+02  0.38080898381E+03  0.39348468418E+03  0.00000000000E+00 0. -1.
<scales pt_clust_5="13000.00000" pt_clust_6="13000.00000" pt_clust_7="13000.00000" pt_clust_8="13000.00000" pt_clust_9="99.06924"></scales>
<clustering>
<clus scale="   79.035">  5  6 -1 -1</clus>
<clus scale="   89.143">  7  8 -1 -1</clus>
<clus scale="   99.069">  1  9  2 -1</clus>
<clus scale="  145.580">  1  5  2 -1</clus>
<clus scale="  151.306">  2  5  1 -1</clus>
</clustering>
</event>
<event>
 9    1  0.3846604E-005  0.1262794E+03  0.7546771E-02  0.1235683E+00
         -2   -1    0    0    0  501 -0.00000000000E+00  0.00000000000E+00  0.12487716948E+03  0.12487716948E+03  0.00000000000E+00 0.  1.
          1   -1    0    0  502    0  0.00000000000E+00 -0.00000000000E+00 -0.16758282495E+03  0.16758282495E+03  0.00000000000E+00 0. -1.
         23    2    1    2    0    0  0.30189882810E+02  0.94664657293E+02 -0.30558442625E+02  0.13746645064E+03  0.89946541194E+02 0.  0.
        -24    2    1    2    0    0 -0.16915537670E+02 -0.78894773769E+02 -0.39610773397E+02  0.12065486845E+03  0.80486416051E+02 0.  0.
         11    1    4    4    0    0 -0.47832770174E+02 -0.41903299367E+02 -0.34025251885E+02  0.72121967293E+02  0.00000000000E+00 0. -1.
        -12    1    4    4    0    0  0.30917232504E+02 -0.36991474402E+02 -0.55855215121E+01  0.48532901157E+02  0.00000000000E+00 0.  1.
        -11    1    3    3    0    0  0.13897701283E+02  0.11027348714E+03 -0.21799985026E+02  0.11326353083E+03  0.00000000000E+00 0. -1.
         11    1    3    3    0    0  0.16292181527E+02 -0.15608829852E+02 -0.87584575989E+01  0.24202919819E+02  0.00000000000E+00 0.  1.
         21    1    1    2  502  501 -0.13274345140E+02 -0.15769883524E+02  0.27463560553E+02  0.34338675331E+02  0.00000000000E+00 0.  1.
<scales pt_clust_5="13000.00000" pt_clust_6="13000.00000" pt_clust_7="13000.00000" pt_clust_8="13000.00000" pt_clust_9="20.61304"></scales>
<clustering>
<clus scale="   20.613">  1  9  2 -1</clus>
<clus scale="   80.486">  5  6 -1 -1</clus>
<clus scale="   89.947">  7  8 -1 -1</clus>
<clus scale="  119.725">  2  5  1 -1</clus>
<clus scale="  119.725">  2  5  1 -1</clus>
</clustering>
</event>
<event>
 9    1  0.3846604E-005  0.9263624E+02  0.7546771E-02  0.1303497E+00
         -2   -1    0    0    0  501 -0.00000000000E+00  0.00000000000E+00  0.99248719431E+02  0.99248719431E+02  0.00000000000E+00 0.  1.
          1   -1    0    0  502    0  0.00000000000E+00 -0.00000000000E+00 -0.20609960201E+03  0.20609960201E+03  0.00000000000E+00 0. -1.
        -24    2    1    2    0    0 -0.31941907921E+02 -0.97996487234E+01 -0.11235600630E+02  0.88457788072E+02  0.81130900108E+02 0.  0.
         23    2    1    2    0    0 -0.20632519098E+02 -0.14036870663E+02 -0.12069485307E+03  0.15395219115E+03  0.92256680086E+02 0.  0.
         11    1    3    3    0    0 -0.41483499135E+02 -0.37854145854E+02  0.15599256278E+01  0.56180516434E+02  0.00000000000E+00 0. -1.
        -12    1    3    3    0    0  0.95415912143E+01  0.28054497131E+02 -0.12795526258E+02  0.32277271638E+02  0.00000000000E+00 0.  1.
        -13    1    4    4    0    0  0.47360096857E+01  0.21183171439E+02  0.38638553692E+01  0.22047356265E+02  0.00000000000E+00 0.  1.
         13    1    4    4    0    0 -0.25368528784E+02 -0.35220042102E+02 -0.12455870844E+03  0.13190483489E+03  0.00000000000E+00 0. -1.
         21    1    1    2  502  501  0.52574427019E+02  0.23836519386E+02  0.25079571124E+02  0.62938342214E+02  0.00000000000E+00 0.  1.
<scales pt_clust_5="13000.00000" pt_clust_6="13000.00000" pt_clust_7="13000.00000" pt_clust_8="13000.00000" pt_clust_9="57.72564"></scales>
<clustering>
<clus scale="   57.726">  1  9  2 -1</clus>
<clus scale="   81.131">  5  6 -1 -1</clus>
<clus scale="   81.562">  1  5  2 -1</clus>
<clus scale="   92.257">  7  8 -1 -1</clus>
<clus scale="   92.636">  2  5  1 -1</clus>
</clustering>
</event>
<event>
 9    1  0.3846604E-005  0.9055546E+02  0.7546771E-02  0.1308649E+00
         -2   -1    0    0    0  501 -0.00000000000E+00  0.00000000000E+00  0.47968834759E+02  0.47968834759E+02  0.00000000000E+00 0.  1.
          1   -1    0    0  502    0  0.00000000000E+00 -0.00000000000E+00 -0.44304289004E+03  0.44304289004E+03  0.00000000000E+00 0. -1.
         23    2    1    2    0    0  0.87742008117E+01 -0.26108529023E+01 -0.11760795384E+02  0.91594344599E+02  0.90373693638E+02 0.  0.
        -24    2    1    2    0    0  0.17310169930E+02 -0.63076041610E+00 -0.33190863482E+03  0.34168231344E+03  0.79268036505E+02 0.  0.
         13    1    4    4    0    0 -0.15112528221E+02 -0.31084512937E+02 -0.10792789297E+03  0.11332724974E+03  0.00000000000E+00 0. -1.
        -14    1    4    4    0    0  0.32422698151E+02  0.30453752520E+02 -0.22398074185E+03  0.22835506370E+03  0.00000000000E+00 0.  1.
        -13    1    3    3    0    0 -0.33744340435E+02  0.12893478935E+02  0.14891107329E+02  0.39072591262E+02  0.00000000000E+00 0.  1.
         13    1    3    3    0    0  0.42518541247E+02 -0.15504331837E+02 -0.26651902712E+02  0.52521753338E+02  0.00000000000E+00 0. -1.
         21    1    1    2  502  501 -0.26084370742E+02  0.32416133184E+01 -0.51404625075E+02  0.57735066753E+02  0.00000000000E+00 0.  1.
<scales pt_clust_5="13000.00000" pt_clust_6="13000.00000" pt_clust_7="13000.00000" pt_clust_8="13000.00000" pt_clust_9="26.28502"></scales>
<clustering>
<clus scale="   26.285">  2  9  1 -1</clus>
<clus scale="   79.268">  5  6 -1 -1</clus>
<clus scale="   79.475">  2  5  1 -1</clus>
<clus scale="   90.374">  7  8 -1 -1</clus>
<clus scale="   26.285">  2  5  1 -1</clus>
</clustering>
</event>
<event>
 9    1  0.3846604E-005  0.9168954E+02  0.7546771E-02  0.1306292E+00
         -2   -1    0    0    0  501 -0.00000000000E+00  0.00000000000E+00  0.52467503112E+03  0.52467503112E+03  0.00000000000E+00 0.  1.
          1   -1    0    0  502    0  0.00000000000E+00 -0.00000000000E+00 -0.10595948932E+03  0.10595948932E+03  0.00000000000E+00 0. -1.
        -24    2    1    2    0    0  0.23639074135E+01 -0.26496197808E+02  0.29244195495E+03  0.30426135811E+03  0.79655762294E+02 0.  0.
         23    2    1    2    0    0 -0.65209436297E+01 -0.38825273620E+01 -0.77614712864E+02  0.12019220624E+03  0.91457782963E+02 0.  0.
         13    1    3    3    0    0  0.19605821388E+02  0.66844670694E+01  0.18480136951E+02  0.27759427120E+02  0.00000000000E+00 0. -1.
        -14    1    3    3    0    0 -0.17241913974E+02 -0.33180664877E+02  0.27396181800E+03  0.27650193099E+03  0.00000000000E+00 0.  1.
        -13    1    4    4    0    0  0.12238976460E+01 -0.47329573423E+02 -0.35351864028E+02  0.59087568372E+02  0.00000000000E+00 0. -1.
         13    1    4    4    0    0 -0.77448412757E+01  0.43447046061E+02 -0.42262848836E+02  0.61104637873E+02  0.00000000000E+00 0.  1.
         21    1    1    2  502  501  0.41570362162E+01  0.30378725170E+02  0.20388829971E+03  0.20618095608E+03  0.00000000000E+00 0. -1.
<scales pt_clust_5="13000.00000" pt_clust_6="13000.00000" pt_clust_7="13000.00000" pt_clust_8="13000.00000" pt_clust_9="30.66183"></scales>
<clustering>
<clus scale="   30.662">  1  9  2 -1</clus>
<clus scale="   79.656">  5  6 -1 -1</clus>
<clus scale="   79.922">  1  5  2 -1</clus>
<clus scale="   91.458">  7  8 -1 -1</clus>
<clus scale="   91.690">  2  5  1 -1</clus>
</clustering>
</event>
<event>
 9    1  0.3846604E-005  0.1022512E+03  0.7546771E-02  0.1281904E+00
         -2   -1    0    0    0  501 -0.00000000000E+00  0.00000000000E+00  0.14542174115E+03  0.14542174115E+03  0.00000000000E+00 0.  1.
          1   -1    0    0  502    0  0.00000000000E+00 -0.00000000000E+00 -0.35141682156E+03  0.35141682156E+03  0.00000000000E+00 0. -1.
        -24    2    1    2    0    0  0.30650928209E+02  0.54062709886E+02  0.43107580792E+02  0.10978232297E+03  0.79571596154E+02 0.  0.
         23    2    1    2    0    0 -0.39615266438E+02 -0.16263244289E+02 -0.30352958148E+03  0.32018734854E+03  0.92497939889E+02 0.  0.
         13    1    3    3    0    0  0.47428615892E+02  0.51793338675E+01  0.11078628494E+02  0.48979946040E+02  0.00000000000E+00 0. -1.
        -14    1    3    3    0    0 -0.16777687683E+02  0.48883376019E+02  0.32028952298E+02  0.60802376930E+02  0.00000000000E+00 0.  1.
        -11    1    4    4    0    0  0.26451539928E+02 -0.22153334975E+02 -0.12715513380E+03  0.13175311103E+03  0.00000000000E+00 0.  1.
         11    1    4    4    0    0 -0.66066806366E+02  0.58900906862E+01 -0.17637444768E+03  0.18843423751E+03  0.00000000000E+00 0. -1.
         21    1    1    2  502  501  0.89643382286E+01 -0.37799465598E+02  0.54426920275E+02  0.66868891198E+02  0.00000000000E+00 0. -1.
<scales pt_clust_5="13000.00000" pt_clust_6="13000.00000" pt_clust_7="13000.00000" pt_clust_8="13000.00000" pt_clust_9="38.84790"></scales>
<clustering>
<clus scale="   38.848">  1  9  2 -1</clus>
<clus scale="   79.572">  5  6 -1 -1</clus>
<clus scale="   90.725">  1  5  2 -1</clus>
<clus scale="   92.498">  7  8 -1 -1</clus>
<clus scale="  102.251">  2  5  1 -1</clus>
</clustering>
</event>
<event>
 9    1  0.3846604E-005  0.1581864E+03  0.7546771E-02  0.1192384E+00
          1   -1    0    0  502    0  0.00000000000E+00  0.00000000000E+00  0.14744679993E+03  0.14744679993E+03  0.00000000000E+00 0. -1.
         -2   -1    0    0    0  501 -0.00000000000E+00 -0.00000000000E+00 -0.29117400852E+03  0.29117400852E+03  0.00000000000E+00 0.  1.
        -24    2    1    2    0    0 -0.95382551309E+02 -0.47187645461E+02 -0.51782306472E+02  0.14297758742E+03  0.80228911633E+02 0.  0.
         23    2    1    2    0    0  0.14681889919E+03  0.34155622904E+02  0.14867712235E+02  0.17637685493E+03  0.90362328179E+02 0.  0.
         11    1    3    3    0    0 -0.10496926769E+03 -0.52285079594E+02 -0.57607860561E+02  0.13065581619E+03  0.00000000000E+00 0. -1.
        -12    1    3    3    0    0  0.95867163781E+01  0.50974341328E+01  0.58255540885E+01  0.12321771224E+02  0.00000000000E+00 0.  1.
        -13    1    4    4    0    0  0.24557371965E+02  0.30979390561E+01  0.40679896783E+02  0.47618439144E+02  0.00000000000E+00 0. -1.
         13    1    4    4    0    0  0.12226152723E+03  0.31057683847E+02 -0.25812184549E+02  0.12875841579E+03  0.00000000000E+00 0.  1.
         21    1    1    2  502  501 -0.51436347882E+02  0.13032022558E+02 -0.10681261435E+03  0.11926636609E+03  0.00000000000E+00 0.  1.
<scales pt_clust_5="13000.00000" pt_clust_6="13000.00000" pt_clust_7="13000.00000" pt_clust_8="13000.00000" pt_clust_9="53.06158"></scales>
<clustering>
<clus scale="   53.062">  2  9  1 -1</clus>
<clus scale="   80.229">  5  6 -1 -1</clus>
<clus scale="   90.362">  7  8 -1 -1</clus>
<clus scale="  152.625">  2  5  1 -1</clus>
<clus scale="  158.186">  1  5  2 -1</clus>
</clustering>
</event>
<event>
 9    1  0.3846604E-005  0.9939774E+02  0.7546771E-02  0.1287990E+00
          1   -1    0    0  502    0  0.00000000000E+00  0.00000000000E+00  0.13630334711E+03  0.13630334711E+03  0.00000000000E+00 0. -1.
         -2   -1    0    0    0  501 -0.00000000000E+00 -0.00000000000E+00 -0.30896310365E+03  0.30896310365E+03  0.00000000000E+00 0.  1.
         23    2    1    2    0    0  0.34022141216E+01 -0.17762606510E+02 -0.15040630640E+03  0.17679507952E+03  0.91144708498E+02 0.  0.
        -24    2    1    2    0    0  0.22381062309E+01  0.41789996670E+02  0.10566874727E+03  0.13819007065E+03  0.78607878336E+02 0.  0.
         11    1    4    4    0    0  0.81528173625E+01  0.64066475368E+02  0.66202027837E+02  0.92486162136E+02  0.00000000000E+00 0. -1.
        -12    1    4    4    0    0 -0.59147111317E+01 -0.22276478698E+02  0.39466719434E+02  0.45703908518E+02  0.00000000000E+00 0.  1.
        -11    1    3    3    0    0 -0.31073899795E+02 -0.35849341612E+02 -0.49148343108E+02  0.68310483622E+02  0.00000000000E+00 0. -1.
         11    1    3    3    0    0  0.34476113917E+02  0.18086735102E+02 -0.10125796329E+03  0.10848459590E+03  0.00000000000E+00 0.  1.
         21    1    1    2  502  501 -0.56403203525E+01 -0.24027390160E+02 -0.12792219742E+03  0.13028130059E+03  0.00000000000E+00 0.  1.
<scales pt_clust_5="13000.00000" pt_clust_6="13000.00000" pt_clust_7="13000.00000" pt_clust_8="13000.00000" pt_clust_9="24.68053"></scales>
<clustering>
<clus scale="   24.681">  2  9  1 -1</clus>
<clus scale="   78.608">  5  6 -1 -1</clus>
<clus scale="   88.044">  1  5  2 -1</clus>
<clus scale="   91.145">  7  8 -1 -1</clus>
<clus scale="   88.044">  1  5  2 -1</clus>
</clustering>
</event>
<event>
 9    1  0.3846604E-005  0.1449398E+03  0.7546771E-02  0.1228846E+00
         -2   -1    0    0    0  501 -0.00000000000E+00  0.00000000000E+00  0.11475734775E+03  0.11475734775E+03  0.00000000000E+00 0.  1.
          1   -1    0    0  502    0  0.00000000000E+00 -0.00000000000E+00 -0.48969823400E+03  0.48969823400E+03  0.00000000000E+00 0. -1.
         23    2    1    2    0    0 -0.16224312854E+02  0.18329631860E+02 -0.74636041300E+01  0.91443249320E+02  0.87789285952E+02 0.  0.
        -24    2    1    2    0    0  0.73183486445E+02 -0.10208720718E+03 -0.38265592104E+03  0.41059128986E+03  0.79887626398E+02 0.  0.
         11    1    4    4    0    0  0.43505527887E+02 -0.64214407895E+02 -0.33112847927E+03  0.34009159196E+03  0.00000000000E+00 0. -1.
        -12    1    4    4    0    0  0.29677958558E+02 -0.37872799285E+02 -0.51527441765E+02  0.70499697905E+02  0.00000000000E+00 0.  1.
        -11    1    3    3    0    0 -0.46228223332E+02  0.12698279827E+02 -0.27172887190E+02  0.55105904777E+02  0.00000000000E+00 0.  1.
         11    1    3    3    0    0  0.30003910478E+02  0.56313520332E+01  0.19709283060E+02  0.36337344543E+02  0.00000000000E+00 0. -1.
         21    1    1    2  502  501 -0.56959173591E+02  0.83757575319E+02  0.15178638920E+02  0.10242104256E+03  0.00000000000E+00 0.  1.
<scales pt_clust_5="13000.00000" pt_clust_6="13000.00000" pt_clust_7="13000.00000" pt_clust_8="13000.00000" pt_clust_9="120.93600"></scales>
<clustering>
<clus scale="   79.888">  5  6 -1 -1</clus>
<clus scale="   87.789">  7  8 -1 -1</clus>
<clus scale="   91.138">  1  7  2 -1</clus>
<clus scale="  120.936">  1  9  2 -1</clus>
<clus scale="  144.940">  2  5  1 -1</clus>
</clustering>
</event>
<event>
 9    1  0.3846604E-005  0.1143939E+03  0.7546771E-02  0.1255918E+00
          1   -1    0    0  502    0  0.00000000000E+00  0.00000000000E+00  0.19527559945E+03  0.19527559945E+03  0.00000000000E+00 0. -1.
         -2   -1    0    0    0  501 -0.00000000000E+00 -0.00000000000E+00 -0.30161430626E+03  0.30161430626E+03  0.00000000000E+00 0.  1.
         23    2    1    2    0    0 -0.10372729870E+02 -0.21679069186E+02 -0.22341941064E+03  0.24201445831E+03  0.89873185186E+02 0.  0.
        -24    2    1    2    0    0  0.54788414953E+02  0.50333354000E+02  0.15498188923E+03  0.18983452971E+03  0.80514258008E+02 0.  0.
         13    1    4    4    0    0  0.65406519590E+02  0.28456298367E+02  0.64584192481E+02  0.96223134640E+02  0.00000000000E+00 0. -1.
        -14    1    4    4    0    0 -0.10618104637E+02  0.21877055633E+02  0.90397696745E+02  0.93611395065E+02  0.00000000000E+00 0.  1.
        -13    1    3    3    0    0 -0.36250917404E+02 -0.45232074606E+02 -0.13462752855E+03  0.14657639998E+03  0.00000000000E+00 0.  1.
         13    1    3    3    0    0  0.25878187534E+02  0.23553005420E+02 -0.88791882082E+02  0.95438058331E+02  0.00000000000E+00 0. -1.
         21    1    1    2  502  501 -0.44415685083E+02 -0.28654284814E+02 -0.37901185406E+02  0.65040917696E+02  0.00000000000E+00 0.  1.
<scales pt_clust_5="13000.00000" pt_clust_6="13000.00000" pt_clust_7="13000.00000" pt_clust_8="13000.00000" pt_clust_9="52.85661"></scales>
<clustering>
<clus scale="   52.857">  2  9  1 -1</clus>
<clus scale="   80.514">  5  6 -1 -1</clus>
<clus scale="   89.873">  7  8 -1 -1</clus>
<clus scale="  107.198">  1  5  2 -1</clus>
<clus scale="  107.198">  1  5  2 -1</clus>
</clustering>
</event>
<event>
 9    1  0.3846604E-005  0.9650087E+02  0.7546771E-02  0.1293262E+00
          1   -1    0    0  502    0  0.00000000000E+00  0.00000000000E+00  0.15727095381E+03  0.15727095381E+03  0.00000000000E+00 0. -1.
         -2   -1    0    0    0  501 -0.00000000000E+00 -0.00000000000E+00 -0.85767677690E+02  0.85767677690E+02  0.00000000000E+00 0.  1.
         23    2    1    2    0    0  0.21502259009E+02 -0.17159062111E+02 -0.14305610942E+02  0.95616499108E+02  0.90449344067E+02 0.  0.
        -24    2    1    2    0    0 -0.92416221869E+01  0.36044321718E+02  0.87890409872E+02  0.12480999001E+03  0.80425174859E+02 0.  0.
         13    1    4    4    0    0  0.29628086646E+01  0.40337495581E+02  0.99513012429E+02  0.10741848736E+03  0.00000000000E+00 0. -1.
        -14    1    4    4    0    0 -0.12204430852E+02 -0.42931738623E+01 -0.11622602557E+02  0.17391502650E+02  0.00000000000E+00 0.  1.
        -11    1    3    3    0    0  0.53039064212E+02  0.42664196063E+01  0.39264601558E+01  0.53355053726E+02  0.00000000000E+00 0. -1.
         11    1    3    3    0    0 -0.31536805203E+02 -0.21425481718E+02 -0.18232071098E+02  0.42261445382E+02  0.00000000000E+00 0.  1.
         21    1    1    2  502  501 -0.12260636822E+02 -0.18885259607E+02 -0.20815228097E+01  0.22612142378E+02  0.00000000000E+00 0.  1.
<scales pt_clust_5="13000.00000" pt_clust_6="13000.00000" pt_clust_7="13000.00000" pt_clust_8="13000.00000" pt_clust_9="22.51613"></scales>
<clustering>
<clus scale="   22.516">  2  9  1 -1</clus>
<clus scale="   80.425">  5  6 -1 -1</clus>
<clus scale="   87.175">  1  5  2 -1</clus>
<clus scale="   90.449">  7  8 -1 -1</clus>
<clus scale="   87.175">  1  5  2 -1</clus>
</clustering>
</event>
<event>
 9    1  0.3846604E-005  0.1407390E+03  0.7546771E-02  0.1213455E+00
          1   -1    0    0  502    0  0.00000000000E+00  0.00000000000E+00  0.52905333303E+03  0.52905333303E+03  0.00000000000E+00 0. -1.
         -2   -1    0    0    0  501 -0.00000000000E+00 -0.00000000000E+00 -0.12442950418E+03  0.12442950418E+03  0.00000000000E+00 0.  1.
        -24    2    1    2    0    0  0.33123608769E+02  0.79136554780E+02 -0.59934238162E+02  0.14165335891E+03  0.95466189956E+02 0.  0.
         23    2    1    2    0    0 -0.46878146292E+02 -0.94154007225E+02  0.47056210206E+03  0.49059837807E+03  0.90529216250E+02 0.  0.
         11    1    3    3    0    0 -0.28411104856E+01  0.86155362995E+02 -0.22114747932E+02  0.88993710776E+02  0.00000000000E+00 0. -1.
        -12    1    3    3    0    0  0.35964719255E+02 -0.70188082146E+01 -0.37819490230E+02  0.52659648129E+02  0.00000000000E+00 0.  1.
        -11    1    4    4    0    0 -0.68020369934E+02 -0.47952612555E+02  0.22655302897E+03  0.24135554419E+03  0.00000000000E+00 0. -1.
         11    1    4    4    0    0  0.21142223642E+02 -0.46201394671E+02  0.24400907309E+03  0.24924283388E+03  0.00000000000E+00 0.  1.
         21    1    1    2  502  501  0.13754537522E+02  0.15017452445E+02 -0.60040350527E+01  0.21231100238E+02  0.00000000000E+00 0.  1.
<scales pt_clust_5="13000.00000" pt_clust_6="13000.00000" pt_clust_7="13000.00000" pt_clust_8="13000.00000" pt_clust_9="20.36446"></scales>
<clustering>
<clus scale="   20.364">  2  9  1 -1</clus>
<clus scale="   90.529">  7  8 -1 -1</clus>
<clus scale="   95.466">  5  6 -1 -1</clus>
<clus scale="  137.438">  1  7  2 -1</clus>
<clus scale="  137.438">  1  5  2 -1</clus>
</clustering>
</event>
<event>
 9    1  0.3846604E-005  0.1153633E+03  0.7546771E-02  0.1255957E+00
          1   -1    0    0  502    0  0.00000000000E+00  0.00000000000E+00  0.64494955283E+03  0.64494955283E+03  0.00000000000E+00 0. -1.
         -2   -1    0    0    0  501 -0.00000000000E+00 -0.00000000000E+00 -0.12814689753E+03  0.12814689753E+03  0.00000000000E+00 0.  1.
         23    2    1    2    0    0  0.28465765294E+01 -0.76877312126E+02 -0.77346554193E+02  0.14352398372E+03  0.93265322285E+02 0.  0.
        -24    2    1    2    0    0 -0.28109524040E+02  0.61648765801E+02  0.59073283205E+03  0.59987740350E+03  0.79353038328E+02 0.  0.
         13    1    4    4    0    0  0.13990256043E+02  0.49714758976E+02  0.19465934569E+03  0.20139400535E+03  0.00000000000E+00 0. -1.
        -14    1    4    4    0    0 -0.42099780083E+02  0.11934006825E+02  0.39607348636E+03  0.39848339815E+03  0.00000000000E+00 0.  1.
        -13    1    3    3    0    0  0.38382998735E+02 -0.36056978970E+01 -0.16829798426E+02  0.42065398659E+02  0.00000000000E+00 0. -1.
         13    1    3    3    0    0 -0.35536422206E+02 -0.73271614229E+02 -0.60516755767E+02  0.10145858507E+03  0.00000000000E+00 0.  1.
         21    1    1    2  502  501  0.25262947511E+02  0.15228546325E+02  0.34163774329E+01  0.29695063140E+02  0.00000000000E+00 0.  1.
<scales pt_clust_5="13000.00000" pt_clust_6="13000.00000" pt_clust_7="13000.00000" pt_clust_8="13000.00000" pt_clust_9="29.49788"></scales>
<clustering>
<clus scale="   29.498">  2  9  1 -1</clus>
<clus scale="   79.353">  5  6 -1 -1</clus>
<clus scale="   93.265">  7  8 -1 -1</clus>
<clus scale="  104.437">  1  5  2 -1</clus>
<clus scale="  104.437">  1  5  2 -1</clus>
</clustering>
</event>
<event>
 9    1  0.3846604E-005  0.9690892E+02  0.7546771E-02  0.1291194E+00
         -4   -1    0    0    0  501 -0.00000000000E+00  0.00000000000E+00  0.80518047051E+02  0.80518047051E+02  0.00000000000E+00 0.  1.
          3   -1    0    0  502    0  0.00000000000E+00 -0.00000000000E+00 -0.18192931015E+03  0.18192931015E+03  0.00000000000E+00 0. -1.
         23    2    1    2    0    0 -0.44093029749E+02  0.28163487796E+02 -0.82397501245E+01  0.10536978071E+03  0.91090723389E+02 0.  0.
        -24    2    1    2    0    0  0.16367550477E+02 -0.21407497413E+02 -0.94239677771E+02  0.12852085078E+03  0.83128301829E+02 0.  0.
         13    1    4    4    0    0 -0.18017745834E+02 -0.21804644907E+02 -0.89432343306E+02  0.93798857849E+02  0.00000000000E+00 0. -1.
        -14    1    4    4    0    0  0.34385296311E+02  0.39714749381E+00 -0.48073344649E+01  0.34721992933E+02  0.00000000000E+00 0.  1.
        -11    1    3    3    0    0 -0.69362217665E+02  0.10052804700E+02  0.75650154778E+01  0.70494010957E+02  0.00000000000E+00 0.  1.
         11    1    3    3    0    0  0.25269187915E+02  0.18110683096E+02 -0.15804765602E+02  0.34875769753E+02  0.00000000000E+00 0. -1.
         21    1    1    2  502  501  0.27725479272E+02 -0.67559903835E+01  0.10681648015E+01  0.28556725705E+02  0.00000000000E+00 0.  1.
<scales pt_clust_5="13000.00000" pt_clust_6="13000.00000" pt_clust_7="13000.00000" pt_clust_8="13000.00000" pt_clust_9="28.53674"></scales>
<clustering>
<clus scale="   28.537">  1  9  2 -1</clus>
<clus scale="   83.128">  5  6 -1 -1</clus>
<clus scale="   89.466">  2  5  1 -1</clus>
<clus scale="   91.091">  7  8 -1 -1</clus>
<clus scale="   89.466">  2  5  1 -1</clus>
</clustering>
</event>
<event>
 9    1  0.3846604E-005  0.1218620E+03  0.7546771E-02  0.1242777E+00
         -2   -1    0    0    0  501 -0.00000000000E+00  0.00000000000E+00  0.38757699805E+03  0.38757699805E+03  0.00000000000E+00 0.  1.
          1   -1    0    0  502    0  0.00000000000E+00 -0.00000000000E+00 -0.18556940373E+03  0.18556940373E+03  0.00000000000E+00 0. -1.
        -24    2    1    2    0    0  0.22591414399E+02  0.19185625145E+02  0.25461023253E+03  0.26878203346E+03  0.80863779186E+02 0.  0.
         23    2    1    2    0    0 -0.87336715383E+02 -0.47797724140E+01 -0.14428740069E+03  0.19120263333E+03  0.89939117827E+02 0.  0.
         11    1    3    3    0    0 -0.16644753074E+02  0.38412228264E+02  0.14001323731E+03  0.14613779014E+03  0.00000000000E+00 0. -1.
        -12    1    3    3    0    0  0.39236167474E+02 -0.19226603120E+02  0.11459699522E+03  0.12264424332E+03  0.00000000000E+00 0.  1.
        -13    1    4    4    0    0 -0.21056670610E+02  0.39623591769E+02 -0.62600127918E+02  0.77020701225E+02  0.00000000000E+00 0.  1.
         13    1    4    4    0    0 -0.66280044773E+02 -0.44403364183E+02 -0.81687272776E+02  0.11418193211E+03  0.00000000000E+00 0. -1.
         21    1    1    2  502  501  0.64745300984E+02 -0.14405852731E+02  0.91684762481E+02  0.11316173498E+03  0.00000000000E+00 0. -1.
<scales pt_clust_5="13000.00000" pt_clust_6="13000.00000" pt_clust_7="13000.00000" pt_clust_8="13000.00000" pt_clust_9="66.32860"></scales>
<clustering>
<clus scale="   66.329">  1  9  2 -1</clus>
<clus scale="   80.864">  5  6 -1 -1</clus>
<clus scale="   89.939">  7  8 -1 -1</clus>
<clus scale="  115.327">  1  5  2 -1</clus>
<clus scale="  121.862">  2  5  1 -1</clus>
</clustering>
</event>
<event>
 9    1  0.3846604E-005  0.1067220E+03  0.7546771E-02  0.1270947E+00
         -2   -1    0    0    0  501 -0.00000000000E+00  0.00000000000E+00  0.50998879541E+02  0.50998879541E+02  0.00000000000E+00 0.  1.
          1   -1    0    0  502    0  0.00000000000E+00 -0.00000000000E+00 -0.30308866548E+03  0.30308866548E+03  0.00000000000E+00 0. -1.
        -24    2    1    2    0    0 -0.50004580803E+02 -0.36964772500E+02 -0.89640382605E+02  0.13556984567E+03  0.80479390866E+02 0.  0.
         23    2    1    2    0    0  0.19835668527E+02  0.53093469438E+02 -0.14517800914E+03  0.18019539266E+03  0.90450842753E+02 0.  0.
         13    1    3    3    0    0 -0.66870465677E+02 -0.12746073007E+02 -0.78792050677E+02  0.10412640783E+03  0.00000000000E+00 0. -1.
        -14    1    3    3    0    0  0.16865884874E+02 -0.24218699494E+02 -0.10848331927E+02  0.31443437843E+02  0.00000000000E+00 0.  1.
        -11    1    4    4    0    0  0.10547949569E+02  0.30626524972E+02 -0.15162311844E+03  0.15504455269E+03  0.00000000000E+00 0. -1.
         11    1    4    4    0    0  0.92877189577E+01  0.22466944466E+02  0.64451093072E+01  0.25150839967E+02  0.00000000000E+00 0.  1.
         21    1    1    2  502  501  0.30168912276E+02 -0.16128696937E+02 -0.17271394196E+02  0.38322306694E+02  0.00000000000E+00 0.  1.
<scales pt_clust_5="13000.00000" pt_clust_6="13000.00000" pt_clust_7="13000.00000" pt_clust_8="13000.00000" pt_clust_9="34.20962"></scales>
<clustering>
<clus scale="   34.210">  1  9  2 -1</clus>
<clus scale="   80.479">  5  6 -1 -1</clus>
<clus scale="   90.451">  7  8 -1 -1</clus>
<clus scale="   98.413">  1  5  2 -1</clus>
<clus scale="  106.722">  2  5  1 -1</clus>
</clustering>
</event>
<event>
 9    1  0.3846604E-005  0.1262489E+03  0.7546771E-02  0.1236969E+00
         -2   -1    0    0    0  501 -0.00000000000E+00  0.00000000000E+00  0.20025385618E+03  0.20025385618E+03  0.00000000000E+00 0.  1.
          1   -1    0    0  502    0  0.00000000000E+00 -0.00000000000E+00 -0.19628140831E+03  0.19628140831E+03  0.00000000000E+00 0. -1.
         23    2    1    2    0    0  0.54876692730E+02  0.84374360030E+00  0.84230126847E+02  0.13800522411E+03  0.94543980793E+02 0.  0.
        -24    2    1    2    0    0 -0.88480320914E+02 -0.13585904091E+02 -0.14233832264E+03  0.18679739232E+03  0.81361684508E+02 0.  0.
         13    1    4    4    0    0 -0.95718731642E+02 -0.19553419622E+02 -0.14685738089E+03  0.17638452916E+03  0.00000000000E+00 0. -1.
        -14    1    4    4    0    0  0.72384107278E+01  0.59675155305E+01  0.45190582563E+01  0.10412863151E+02  0.00000000000E+00 0.  1.
        -11    1    3    3    0    0  0.75504769311E+02 -0.17926751733E+02  0.76712494741E+02  0.10911986742E+03  0.00000000000E+00 0.  1.
         11    1    3    3    0    0 -0.20628076582E+02  0.18770495333E+02  0.75176321065E+01  0.28885356688E+02  0.00000000000E+00 0. -1.
         21    1    1    2  502  501  0.33603628185E+02  0.12742160491E+02  0.62080643665E+02  0.71732648069E+02  0.00000000000E+00 0.  1.
<scales pt_clust_5="13000.00000" pt_clust_6="13000.00000" pt_clust_7="13000.00000" pt_clust_8="13000.00000" pt_clust_9="35.93837"></scales>
<clustering>
<clus scale="   35.938">  1  9  2 -1</clus>
<clus scale="   81.362">  5  6 -1 -1</clus>
<clus scale="   94.544">  7  8 -1 -1</clus>
<clus scale="  116.704">  2  5  1 -1</clus>
<clus scale="  116.704">  2  5  1 -1</clus>
</clustering>
</event>
<event>
 9    1  0.3846604E-005  0.9413155E+02  0.7546771E-02  0.1298746E+00
          1   -1    0    0  502    0  0.00000000000E+00  0.00000000000E+00  0.35050380344E+03  0.35050380344E+03  0.00000000000E+00 0. -1.
         -2   -1    0    0    0  501 -0.00000000000E+00 -0.00000000000E+00 -0.50436953682E+02  0.50436953682E+02  0.00000000000E+00 0.  1.
        -24    2    1    2    0    0 -0.13464644314E+02 -0.20809750683E+02  0.79691689485E+02  0.11613435698E+03  0.80759402725E+02 0.  0.
         23    2    1    2    0    0  0.32553459733E+02 -0.79820324493E+01  0.22960272962E+03  0.24905031414E+03  0.90472122464E+02 0.  0.
         11    1    3    3    0    0 -0.20961672906E+02 -0.24952371696E+02  0.93983045064E+02  0.99472736686E+02  0.00000000000E+00 0. -1.
        -12    1    3    3    0    0  0.74970285928E+01  0.41426210137E+01 -0.14291355579E+02  0.16661620295E+02  0.00000000000E+00 0.  1.
        -13    1    4    4    0    0 -0.94285966228E+01 -0.39198957996E+02  0.13564052267E+03  0.14150550566E+03  0.00000000000E+00 0. -1.
         13    1    4    4    0    0  0.41982056356E+02  0.31216925547E+02  0.93962206952E+02  0.10754480848E+03  0.00000000000E+00 0.  1.
         21    1    1    2  502  501 -0.19088815420E+02  0.28791783132E+02 -0.92275693451E+01  0.35756086000E+02  0.00000000000E+00 0.  1.
<scales pt_clust_5="13000.00000" pt_clust_6="13000.00000" pt_clust_7="13000.00000" pt_clust_8="13000.00000" pt_clust_9="34.54489"></scales>
<clustering>
<clus scale="   34.545">  2  9  1 -1</clus>
<clus scale="   80.759">  5  6 -1 -1</clus>
<clus scale="   84.839">  2  5  1 -1</clus>
<clus scale="   90.472">  7  8 -1 -1</clus>
<clus scale="   94.132">  1  5  2 -1</clus>
</clustering>
</event>
<event>
 9    1  0.3846604E-005  0.1019607E+03  0.7546771E-02  0.1285555E+00
         -2   -1    0    0    0  501 -0.00000000000E+00  0.00000000000E+00  0.60088004835E+02  0.60088004835E+02  0.00000000000E+00 0.  1.
          1   -1    0    0  502    0  0.00000000000E+00 -0.00000000000E+00 -0.56545064479E+03  0.56545064479E+03  0.00000000000E+00 0. -1.
         23    2    1    2    0    0  0.10847018443E+02  0.19440895920E+02 -0.81297911543E+01  0.10122382162E+03  0.98410173848E+02 0.  0.
        -24    2    1    2    0    0 -0.27606394178E+02  0.60908795236E+01 -0.48307036573E+03  0.49064994780E+03  0.81124479763E+02 0.  0.
         11    1    4    4    0    0 -0.47719025870E+02  0.23104519765E+02 -0.22152098148E+03  0.22777723657E+03  0.00000000000E+00 0. -1.
        -12    1    4    4    0    0  0.20112631693E+02 -0.17013640241E+02 -0.26154938425E+03  0.26287271123E+03  0.00000000000E+00 0.  1.
        -11    1    3    3    0    0 -0.13583663543E+02 -0.36937502298E+02 -0.53372469179E+01  0.39716258584E+02  0.00000000000E+00 0.  1.
         11    1    3    3    0    0  0.24430681986E+02  0.56378398217E+02 -0.27925442365E+01  0.61507563040E+02  0.00000000000E+00 0. -1.
         21    1    1    2  502  501  0.16759375735E+02 -0.25531775443E+02 -0.14162483073E+02  0.33664880203E+02  0.00000000000E+00 0.  1.
<scales pt_clust_5="13000.00000" pt_clust_6="13000.00000" pt_clust_7="13000.00000" pt_clust_8="13000.00000" pt_clust_9="30.54093"></scales>
<clustering>
<clus scale="   30.541">  1  9  2 -1</clus>
<clus scale="   81.124">  5  6 -1 -1</clus>
<clus scale="   85.397">  2  5  1 -1</clus>
<clus scale="   98.410">  7  8 -1 -1</clus>
<clus scale="   85.397">  2  5  1 -1</clus>
</clustering>
</event>
<event>
 9    1  0.3846604E-005  0.2177113E+03  0.7546771E-02  0.1136552E+00
          1   -1    0    0  502    0  0.00000000000E+00  0.00000000000E+00  0.24803860690E+03  0.24803860690E+03  0.00000000000E+00 0. -1.
         -2   -1    0    0    0  501 -0.00000000000E+00 -0.00000000000E+00 -0.27517023731E+03  0.27517023731E+03  0.00000000000E+00 0.  1.
         23    2    1    2    0    0  0.87897648156E+02 -0.20618547506E+03 -0.50872206226E+02  0.24733466026E+03  0.91367423745E+02 0.  0.
        -24    2    1    2    0    0 -0.36313421439E+02  0.18198859611E+03  0.57496483737E+02  0.20964818666E+03  0.78790880415E+02 0.  0.
         11    1    4    4    0    0 -0.24728829249E+01  0.51692414611E+02 -0.18621072910E+02  0.54999683950E+02  0.00000000000E+00 0. -1.
        -12    1    4    4    0    0 -0.33840538514E+02  0.13029618150E+03  0.76117556647E+02  0.15464850271E+03  0.00000000000E+00 0.  1.
        -11    1    3    3    0    0  0.76834884006E+02 -0.11040388954E+03  0.73353294960E+01  0.13470866819E+03  0.00000000000E+00 0. -1.
         11    1    3    3    0    0  0.11062764150E+02 -0.95781585522E+02 -0.58207535722E+02  0.11262599207E+03  0.00000000000E+00 0.  1.
         21    1    1    2  502  501 -0.51584226717E+02  0.24196878957E+02 -0.33755907923E+02  0.66225997289E+02  0.00000000000E+00 0.  1.
<scales pt_clust_5="13000.00000" pt_clust_6="13000.00000" pt_clust_7="13000.00000" pt_clust_8="13000.00000" pt_clust_9="56.97738"></scales>
<clustering>
<clus scale="   56.977">  2  9  1 -1</clus>
<clus scale="   78.791">  5  6 -1 -1</clus>
<clus scale="   91.367">  7  8 -1 -1</clus>
<clus scale="  212.740">  1  5  2 -1</clus>
<clus scale="  212.740">  1  5  2 -1</clus>
</clustering>
</event>
<event>
 9    1  0.3846604E-005  0.1197221E+03  0.7546771E-02  0.1247935E+00
          1   -1    0    0  502    0  0.00000000000E+00  0.00000000000E+00  0.77203964286E+02  0.77203964286E+02  0.00000000000E+00 0. -1.
         -2   -1    0    0    0  501 -0.00000000000E+00 -0.00000000000E+00 -0.31868812271E+03  0.31868812271E+03  0.00000000000E+00 0.  1.
        -24    2    1    2    0    0 -0.57071222948E+02 -0.78708407421E+02 -0.15908491492E+03  0.20197627218E+03  0.77680541198E+02 0.  0.
         23    2    1    2    0    0  0.50831741306E+02  0.49190405457E+02 -0.10606885115E+02  0.11604164520E+03  0.91376121031E+02 0.  0.
         11    1    3    3    0    0  0.11922491132E+02 -0.45807533094E+02 -0.71244836677E+02  0.85535388209E+02  0.00000000000E+00 0. -1.
        -12    1    3    3    0    0 -0.68993714080E+02 -0.32900874327E+02 -0.87840078247E+02  0.11644088397E+03  0.00000000000E+00 0.  1.
        -11    1    4    4    0    0  0.28796392886E+02 -0.23846237687E+02 -0.13360540587E+02  0.39703643911E+02  0.00000000000E+00 0.  1.
         11    1    4    4    0    0  0.22035348420E+02  0.73036643144E+02  0.27536554716E+01  0.76338001285E+02  0.00000000000E+00 0. -1.
         21    1    1    2  502  501  0.62394816417E+01  0.29518001963E+02 -0.71792358385E+02  0.77874169617E+02  0.00000000000E+00 0. -1.
<scales pt_clust_5="13000.00000" pt_clust_6="13000.00000" pt_clust_7="13000.00000" pt_clust_8="13000.00000" pt_clust_9="30.17024"></scales>
<clustering>
<clus scale="   30.170">  2  9  1 -1</clus>
<clus scale="   77.681">  5  6 -1 -1</clus>
<clus scale="   91.376">  7  8 -1 -1</clus>
<clus scale="  109.627">  2  5  1 -1</clus>
<clus scale="  119.722">  1  5  2 -1</clus>
</clustering>
</event>
<event>
 9    1  0.3846604E-005  0.3408654E+03  0.7546771E-02  0.1101949E+00
          1   -1    0    0  502    0  0.00000000000E+00  0.00000000000E+00  0.16541658112E+04  0.16541658112E+04  0.00000000000E+00 0. -1.
         -2   -1    0    0    0  501 -0.00000000000E+00 -0.00000000000E+00 -0.28972234164E+03  0.28972234164E+03  0.00000000000E+00 0.  1.
         23    2    1    2    0    0 -0.70823883577E+02 -0.64562704765E+02 -0.17281902638E+03  0.21739121492E+03  0.90598891334E+02 0.  0.
        -24    2    1    2    0    0  0.22527378660E+03 -0.24228028161E+03  0.11913774963E+04  0.12390096829E+04  0.79477303856E+02 0.  0.
         13    1    4    4    0    0  0.72902772485E+02 -0.13523157452E+03  0.50898214954E+03  0.53166269526E+03  0.00000000000E+00 0. -1.
        -14    1    4    4    0    0  0.15237101412E+03 -0.10704870710E+03  0.68239534681E+03  0.70734698768E+03  0.00000000000E+00 0.  1.
        -11    1    3    3    0    0 -0.38374921525E+02 -0.78348234264E+02 -0.15505413292E+03  0.17791251938E+03  0.00000000000E+00 0.  1.
         11    1    3    3    0    0 -0.32448962052E+02  0.13785529499E+02 -0.17764893460E+02  0.39478695539E+02  0.00000000000E+00 0. -1.
         21    1    1    2  502  501 -0.15444990303E+03  0.30684298638E+03  0.34588499960E+03  0.48748725499E+03  0.00000000000E+00 0.  1.
<scales pt_clust_5="13000.00000" pt_clust_6="13000.00000" pt_clust_7="13000.00000" pt_clust_8="13000.00000" pt_clust_9="331.47036"></scales>
<clustering>
<clus scale="   79.477">  5  6 -1 -1</clus>
<clus scale="   90.599">  7  8 -1 -1</clus>
<clus scale="  131.881">  2  7  1 -1</clus>
<clus scale="  331.470">  2  9  1 -1</clus>
<clus scale="  340.865">  1  5  2 -1</clus>
</clustering>
</event>
<event>
 9    1  0.3846604E-005  0.1218470E+03  0.7546771E-02  0.1243534E+00
          1   -1    0    0  502    0  0.00000000000E+00  0.00000000000E+00  0.22816146457E+03  0.22816146457E+03  0.00000000000E+00 0. -1.
         -2   -1    0    0    0  501 -0.00000000000E+00 -0.00000000000E+00 -0.98209811170E+02  0.98209811170E+02  0.00000000000E+00 0.  1.
        -24    2    1    2    0    0  0.85192913393E+02  0.37949967519E+01  0.57297371706E+01  0.11765051175E+03  0.80849109669E+02 0.  0.
         23    2    1    2    0    0 -0.63053504452E+02 -0.44948062940E+02  0.97839115974E+02  0.15505717825E+03  0.92055217820E+02 0.  0.
         13    1    3    3    0    0  0.19239313168E+02  0.29903519454E+02  0.25800680578E+02  0.43932297518E+02  0.00000000000E+00 0. -1.
        -14    1    3    3    0    0  0.65953600224E+02 -0.26108522702E+02 -0.20070943407E+02  0.73718214232E+02  0.00000000000E+00 0.  1.
        -13    1    4    4    0    0 -0.29229029816E+02 -0.57810958804E+02  0.99615055118E+02  0.11882593298E+03  0.00000000000E+00 0.  1.
         13    1    4    4    0    0 -0.33824474636E+02  0.12862895864E+02 -0.17759391443E+01  0.36231245276E+02  0.00000000000E+00 0. -1.
         21    1    1    2  502  501 -0.22139408940E+02  0.41153066188E+02  0.26382800260E+02  0.53663585739E+02  0.00000000000E+00 0. -1.
<scales pt_clust_5="13000.00000" pt_clust_6="13000.00000" pt_clust_7="13000.00000" pt_clust_8="13000.00000" pt_clust_9="46.73038"></scales>
<clustering>
<clus scale="   46.730">  1  9  2 -1</clus>
<clus scale="   80.849">  5  6 -1 -1</clus>
<clus scale="   92.055">  7  8 -1 -1</clus>
<clus scale="  113.618">  2  5  1 -1</clus>
<clus scale="   46.730">  1  5  2 -1</clus>
</clustering>
</event>
<event>
 9    1  0.3846604E-005  0.1110061E+03  0.7546771E-02  0.1261982E+00
         -2   -1    0    0    0  501 -0.00000000000E+00  0.00000000000E+00  0.63238347450E+02  0.63238347450E+02  0.00000000000E+00 0.  1.
          1   -1    0    0  502    0  0.00000000000E+00 -0.00000000000E+00 -0.33040308910E+03  0.33040308910E+03  0.00000000000E+00 0. -1.
        -24    2    1    2    0    0  0.48177594593E+01  0.35660265907E+02 -0.17626728799E+02  0.90600562088E+02  0.81258199043E+02 0.  0.
         23    2    1    2    0    0 -0.54335119263E+01 -0.76371137853E+02 -0.22848775975E+03  0.25720565436E+03  0.89922291637E+02 0.  0.
         13    1    3    3    0    0  0.26137528088E+02  0.15828680547E+02 -0.42473242782E+02  0.52322976357E+02  0.00000000000E+00 0. -1.
        -14    1    3    3    0    0 -0.21319768629E+02  0.19831585360E+02  0.24846513983E+02  0.38277585731E+02  0.00000000000E+00 0.  1.
        -13    1    4    4    0    0  0.18082033237E+02  0.14890993010E+02 -0.54811633727E+02  0.59607187407E+02  0.00000000000E+00 0.  1.
         13    1    4    4    0    0 -0.23515545163E+02 -0.91262130862E+02 -0.17367612602E+03  0.19759846695E+03  0.00000000000E+00 0. -1.
         21    1    1    2  502  501  0.61575246709E+00  0.40710871946E+02 -0.21050253102E+02  0.45835220097E+02  0.00000000000E+00 0.  1.
<scales pt_clust_5="13000.00000" pt_clust_6="13000.00000" pt_clust_7="13000.00000" pt_clust_8="13000.00000" pt_clust_9="40.71553"></scales>
<clustering>
<clus scale="   40.716">  1  9  2 -1</clus>
<clus scale="   81.258">  5  6 -1 -1</clus>
<clus scale="   89.922">  7  8 -1 -1</clus>
<clus scale="  104.112">  1  5  2 -1</clus>
<clus scale="  111.006">  2  5  1 -1</clus>
</clustering>
</event>
<event>
 9    1  0.3846604E-005  0.1105940E+03  0.7546771E-02  0.1260067E+00
         -2   -1    0    0    0  501 -0.00000000000E+00  0.00000000000E+00  0.12294615579E+03  0.12294615579E+03  0.00000000000E+00 0.  1.
          1   -1    0    0  502    0  0.00000000000E+00 -0.00000000000E+00 -0.36573838917E+03  0.36573838917E+03  0.00000000000E+00 0. -1.
        -24    2    1    2    0    0 -0.62915114726E+02  0.31360294338E+02  0.37403180799E+02  0.12263241749E+03  0.93262705103E+02 0.  0.
         23    2    1    2    0    0  0.43266747823E+02 -0.39303830081E+02 -0.31053907693E+03  0.32904002200E+03  0.91738842650E+02 0.  0.
         11    1    3    3    0    0 -0.59291000360E+01 -0.30225972357E+02  0.20612287099E+02  0.37062514912E+02  0.00000000000E+00 0. -1.
        -12    1    3    3    0    0 -0.56986014690E+02  0.61586266695E+02  0.16790893701E+02  0.85569902576E+02  0.00000000000E+00 0.  1.
        -13    1    4    4    0    0 -0.27235913510E+02 -0.23558466644E+02 -0.11907770175E+03  0.12440375954E+03  0.00000000000E+00 0.  1.
         13    1    4    4    0    0  0.70502661333E+02 -0.15745363438E+02 -0.19146137518E+03  0.20463626246E+03  0.00000000000E+00 0. -1.
         21    1    1    2  502  501  0.19648366903E+02  0.79435357433E+01  0.30343662755E+02  0.37012105472E+02  0.00000000000E+00 0. -1.
<scales pt_clust_5="13000.00000" pt_clust_6="13000.00000" pt_clust_7="13000.00000" pt_clust_8="13000.00000" pt_clust_9="21.19335"></scales>
<clustering>
<clus scale="   21.193">  1  9  2 -1</clus>
<clus scale="   91.739">  7  8 -1 -1</clus>
<clus scale="   93.263">  5  6 -1 -1</clus>
<clus scale="  109.312">  2  7  1 -1</clus>
<clus scale="  109.312">  2  5  1 -1</clus>
</clustering>
</event>
<event>
 9    1  0.3846604E-005  0.1055948E+03  0.7546771E-02  0.1274327E+00
         -2   -1    0    0    0  501 -0.00000000000E+00  0.00000000000E+00  0.29585200110E+03  0.29585200110E+03  0.00000000000E+00 0.  1.
          1   -1    0    0  502    0  0.00000000000E+00 -0.00000000000E+00 -0.59724205441E+02  0.59724205441E+02  0.00000000000E+00 0. -1.
        -24    2    1    2    0    0  0.39590896707E+02  0.48261744773E+02  0.16936826341E+03  0.19786357761E+03  0.81041665729E+02 0.  0.
         23    2    1    2    0    0 -0.18536605233E+02 -0.42358724060E+02  0.19591641415E+02  0.10572283408E+03  0.93035573812E+02 0.  0.
         11    1    3    3    0    0  0.12674782461E+02  0.60882783069E+02  0.67652215131E+02  0.91892249928E+02  0.00000000000E+00 0. -1.
        -12    1    3    3    0    0  0.26916114246E+02 -0.12621038295E+02  0.10171604827E+03  0.10597132768E+03  0.00000000000E+00 0.  1.
        -13    1    4    4    0    0  0.30821487014E+02 -0.35671182416E+01  0.28727311495E+02  0.42284120188E+02  0.00000000000E+00 0.  1.
         13    1    4    4    0    0 -0.49358092247E+02 -0.38791605818E+02 -0.91356700801E+01  0.63438713890E+02  0.00000000000E+00 0. -1.
         21    1    1    2  502  501 -0.21054291474E+02 -0.59030207137E+01  0.47167890840E+02  0.51989794858E+02  0.00000000000E+00 0.  1.
<scales pt_clust_5="13000.00000" pt_clust_6="13000.00000" pt_clust_7="13000.00000" pt_clust_8="13000.00000" pt_clust_9="21.86616"></scales>
<clustering>
<clus scale="   21.866">  1  9  2 -1</clus>
<clus scale="   81.042">  5  6 -1 -1</clus>
<clus scale="   93.036">  7  8 -1 -1</clus>
<clus scale="   95.197">  1  5  2 -1</clus>
<clus scale="  105.595">  2  5  1 -1</clus>
</clustering>
</event>
<event>
 9    1  0.3846604E-005  0.1334468E+03  0.7546771E-02  0.1224604E+00
         -2   -1    0    0    0  501 -0.00000000000E+00  0.00000000000E+00  0.21698110875E+03  0.21698110875E+03  0.00000000000E+00 0.  1.
          1   -1    0    0  502    0  0.00000000000E+00 -0.00000000000E+00 -0.14031954743E+03  0.14031954743E+03  0.00000000000E+00 0. -1.
        -24    2    1    2    0    0  0.92798031206E+02  0.98342382088E+01  0.89301711518E+02  0.15196964453E+03  0.80073655723E+02 0.  0.
         23    2    1    2    0    0 -0.10096129744E+03  0.16565648694E+02 -0.61637745686E+02  0.14907839121E+03  0.89205104864E+02 0.  0.
         11    1    3    3    0    0  0.51752077842E+02 -0.21903339879E+01 -0.12622730492E+01  0.51813786363E+02  0.00000000000E+00 0. -1.
        -12    1    3    3    0    0  0.41045953363E+02  0.12024572197E+02  0.90563984567E+02  0.10015585816E+03  0.00000000000E+00 0.  1.
        -13    1    4    4    0    0 -0.10534964894E+03 -0.58042282517E+01 -0.67860179148E+02  0.12544816265E+03  0.00000000000E+00 0. -1.
         13    1    4    4    0    0  0.43883515027E+01  0.22369876945E+02  0.62224334619E+01  0.23630228557E+02  0.00000000000E+00 0.  1.
         21    1    1    2  502  501  0.81632662348E+01 -0.26399886902E+02  0.48997595481E+02  0.56252620445E+02  0.00000000000E+00 0.  1.
<scales pt_clust_5="13000.00000" pt_clust_6="13000.00000" pt_clust_7="13000.00000" pt_clust_8="13000.00000" pt_clust_9="27.63319"></scales>
<clustering>
<clus scale="   27.633">  1  9  2 -1</clus>
<clus scale="   80.074">  5  6 -1 -1</clus>
<clus scale="   89.205">  7  8 -1 -1</clus>
<clus scale="  127.524">  1  5  2 -1</clus>
<clus scale="  133.447">  2  5  1 -1</clus>
</clustering>
</event>
<event>
 9    1  0.3846604E-005  0.1023426E+03  0.7546771E-02  0.1280687E+00
         -2   -1    0    0    0  501 -0.00000000000E+00  0.00000000000E+00  0.87710498972E+02  0.87710498972E+02  0.00000000000E+00 0.  1.
          1   -1    0    0  502    0  0.00000000000E+00 -0.00000000000E+00 -0.34576007919E+03  0.34576007919E+03  0.00000000000E+00 0. -1.
         23    2    1    2    0    0  0.12714075870E+02 -0.31835171343E+02  0.15125593647E+02  0.10301678495E+03  0.95961182457E+02 0.  0.
        -24    2    1    2    0    0  0.37745274709E+02  0.14413268491E+02 -0.25826036472E+03  0.27502708222E+03  0.85492876289E+02 0.  0.
         11    1    4    4    0    0 -0.45251259145E+01  0.35042181150E+02 -0.18222946209E+03  0.18562329616E+03  0.00000000000E+00 0. -1.
        -12    1    4    4    0    0  0.42270400623E+02 -0.20628912660E+02 -0.76030902633E+02  0.89403786058E+02  0.00000000000E+00 0.  1.
        -13    1    3    3    0    0 -0.10131098280E+02 -0.62368387918E+02  0.14734274248E+02  0.64881074294E+02  0.00000000000E+00 0.  1.
         13    1    3    3    0    0  0.22845174150E+02  0.30533216575E+02  0.39131939917E+00  0.38135710656E+02  0.00000000000E+00 0. -1.
         21    1    1    2  502  501 -0.50459350578E+02  0.17421902852E+02 -0.14914809145E+02  0.55426710994E+02  0.00000000000E+00 0.  1.
<scales pt_clust_5="13000.00000" pt_clust_6="13000.00000" pt_clust_7="13000.00000" pt_clust_8="13000.00000" pt_clust_9="53.38229"></scales>
<clustering>
<clus scale="   53.382">  1  9  2 -1</clus>
<clus scale="   85.493">  5  6 -1 -1</clus>
<clus scale="   92.599">  2  5  1 -1</clus>
<clus scale="   95.961">  7  8 -1 -1</clus>
<clus scale="   92.599">  2  5  1 -1</clus>
</clustering>
</event>
<event>
 9    1  0.3846604E-005  0.1142374E+03  0.7546771E-02  0.1256780E+00
         -2   -1    0    0    0  501 -0.00000000000E+00  0.00000000000E+00  0.26738915496E+03  0.26738915496E+03  0.00000000000E+00 0.  1.
          1   -1    0    0  502    0  0.00000000000E+00 -0.00000000000E+00 -0.22825097693E+03  0.22825097693E+03  0.00000000000E+00 0. -1.
         23    2    1    2    0    0  0.73761270405E+02 -0.46848708910E+02  0.16795236895E+03  0.21067831620E+03  0.92422011140E+02 0.  0.
        -24    2    1    2    0    0 -0.56606251576E+02  0.33374944213E+02 -0.19162719584E+03  0.21846887928E+03  0.81789451683E+02 0.  0.
         11    1    4    4    0    0 -0.48500278462E+02  0.11296212411E+02 -0.18822892139E+03  0.19470492617E+03  0.00000000000E+00 0. -1.
        -12    1    4    4    0    0 -0.81059731136E+01  0.22078731802E+02 -0.33982744527E+01  0.23763953109E+02  0.00000000000E+00 0.  1.
        -11    1    3    3    0    0  0.57845357207E+02 -0.73650276580E+02  0.14208374432E+03  0.17017120494E+03  0.00000000000E+00 0.  1.
         11    1    3    3    0    0  0.15915913199E+02  0.26801567671E+02  0.25868624633E+02  0.40507111264E+02  0.00000000000E+00 0. -1.
         21    1    1    2  502  501 -0.17155018829E+02  0.13473764696E+02  0.62813004920E+02  0.66492936416E+02  0.00000000000E+00 0.  1.
<scales pt_clust_5="13000.00000" pt_clust_6="13000.00000" pt_clust_7="13000.00000" pt_clust_8="13000.00000" pt_clust_9="21.81369"></scales>
<clustering>
<clus scale="   21.814">  1  9  2 -1</clus>
<clus scale="   81.789">  5  6 -1 -1</clus>
<clus scale="   92.422">  7  8 -1 -1</clus>
<clus scale="  105.820">  2  5  1 -1</clus>
<clus scale="  105.820">  2  5  1 -1</clus>
</clustering>
</event>
<event>
 9    1  0.3846604E-005  0.1044893E+03  0.7546771E-02  0.1279215E+00
         -4   -1    0    0    0  501 -0.00000000000E+00  0.00000000000E+00  0.42629164315E+02  0.42629164315E+02  0.00000000000E+00 0.  1.
          3   -1    0    0  502    0  0.00000000000E+00 -0.00000000000E+00 -0.39784983839E+03  0.39784983839E+03  0.00000000000E+00 0. -1.
        -24    2    1    2    0    0 -0.98202296563E+01  0.27866642647E+02 -0.48013237601E+02  0.95877270859E+02  0.77551230806E+02 0.  0.
         23    2    1    2    0    0  0.10386790184E+02 -0.49397176798E+02 -0.30462569025E+03  0.32290956033E+03  0.94476486532E+02 0.  0.
         11    1    3    3    0    0  0.18417003214E+02 -0.20036866095E+02 -0.12950672221E+02  0.30139374931E+02  0.00000000000E+00 0. -1.
        -12    1    3    3    0    0 -0.28237232870E+02  0.47903508742E+02 -0.35062565380E+02  0.65737895928E+02  0.00000000000E+00 0.  1.
        -11    1    4    4    0    0 -0.37364117863E+02 -0.62107545594E+01 -0.16289539367E+03  0.16724102384E+03  0.00000000000E+00 0.  1.
         11    1    4    4    0    0  0.47750908047E+02 -0.43186422239E+02 -0.14173029658E+03  0.15566853649E+03  0.00000000000E+00 0. -1.
         21    1    1    2  502  501 -0.56656052745E+00  0.21530534150E+02 -0.25817462290E+01  0.21692171519E+02  0.00000000000E+00 0. -1.
<scales pt_clust_5="13000.00000" pt_clust_6="13000.00000" pt_clust_7="13000.00000" pt_clust_8="13000.00000" pt_clust_9="21.53799"></scales>
<clustering>
<clus scale="   21.538">  1  9  2 -1</clus>
<clus scale="   77.551">  5  6 -1 -1</clus>
<clus scale="   89.478">  1  5  2 -1</clus>
<clus scale="   94.476">  7  8 -1 -1</clus>
<clus scale="  104.489">  2  5  1 -1</clus>
</clustering>
</event>
<event>
 9    1  0.3846604E-005  0.1033406E+03  0.7546771E-02  0.1278181E+00
         -2   -1    0    0    0  501 -0.00000000000E+00  0.00000000000E+00  0.76974297413E+02  0.76974297413E+02  0.00000000000E+00 0.  1.
          1   -1    0    0  502    0  0.00000000000E+00 -0.00000000000E+00 -0.28403708341E+03  0.28403708341E+03  0.00000000000E+00 0. -1.
        -24    2    1    2    0    0  0.27688974586E+02 -0.15329659123E+02 -0.38954220432E+02  0.95205861529E+02  0.80901464866E+02 0.  0.
         23    2    1    2    0    0 -0.10593043206E+02  0.62270752745E+02 -0.18270024477E+03  0.21376078621E+03  0.91238342098E+02 0.  0.
         13    1    3    3    0    0 -0.14776530257E+02 -0.36516384225E+02 -0.18730797656E+02  0.43619203846E+02  0.00000000000E+00 0. -1.
        -14    1    3    3    0    0  0.42465504843E+02  0.21186725102E+02 -0.20223422776E+02  0.51586657683E+02  0.00000000000E+00 0.  1.
        -11    1    4    4    0    0 -0.40457616805E+02  0.96492887233E-01 -0.51067174787E+02  0.65151242575E+02  0.00000000000E+00 0.  1.
         11    1    4    4    0    0  0.29864573599E+02  0.62174259858E+02 -0.13163306998E+03  0.14860954363E+03  0.00000000000E+00 0. -1.
         21    1    1    2  502  501 -0.17095931381E+02 -0.46941093623E+02  0.14591679205E+02  0.52044733089E+02  0.00000000000E+00 0.  1.
<scales pt_clust_5="13000.00000" pt_clust_6="13000.00000" pt_clust_7="13000.00000" pt_clust_8="13000.00000" pt_clust_9="49.95735"></scales>
<clustering>
<clus scale="   49.957">  1  9  2 -1</clus>
<clus scale="   80.901">  5  6 -1 -1</clus>
<clus scale="   91.238">  7  8 -1 -1</clus>
<clus scale="   94.339">  1  5  2 -1</clus>
<clus scale="  103.341">  2  5  1 -1</clus>
</clustering>
</event>
<event>
 9    1  0.3846604E-005  0.1338120E+03  0.7546771E-02  0.1224335E+00
          1   -1    0    0  502    0  0.00000000000E+00  0.00000000000E+00  0.10149241361E+03  0.10149241361E+03  0.00000000000E+00 0. -1.
         -2   -1    0    0    0  501 -0.00000000000E+00 -0.00000000000E+00 -0.44588295523E+03  0.44588295523E+03  0.00000000000E+00 0.  1.
        -24    2    1    2    0    0  0.98347903523E+02 -0.22146391032E+02 -0.25886019223E+03  0.28924360162E+03  0.80563572390E+02 0.  0.
         23    2    1    2    0    0 -0.98330435988E+02  0.84988348910E+00  0.32957344681E+02  0.13774540925E+03  0.90653263910E+02 0.  0.
         11    1    3    3    0    0  0.77859445899E+01  0.20737647561E+02 -0.18596382742E+02  0.28922247676E+02  0.00000000000E+00 0. -1.
        -12    1    3    3    0    0  0.90561958933E+02 -0.42884038594E+02 -0.24026380948E+03  0.26032135395E+03  0.00000000000E+00 0.  1.
        -11    1    4    4    0    0 -0.26852560662E+02  0.14696495422E+02  0.53900499657E+02  0.61986376367E+02  0.00000000000E+00 0. -1.
         11    1    4    4    0    0 -0.71477875325E+02 -0.13846611933E+02 -0.20943154976E+02  0.75759032883E+02  0.00000000000E+00 0.  1.
         21    1    1    2  502  501 -0.17467535031E-01  0.21296507543E+02 -0.11848769408E+03  0.12038635797E+03  0.00000000000E+00 0. -1.
<scales pt_clust_5="13000.00000" pt_clust_6="13000.00000" pt_clust_7="13000.00000" pt_clust_8="13000.00000" pt_clust_9="21.29651"></scales>
<clustering>
<clus scale="   21.297">  2  9  1 -1</clus>
<clus scale="   80.564">  5  6 -1 -1</clus>
<clus scale="   90.653">  7  8 -1 -1</clus>
<clus scale="  127.193">  2  5  1 -1</clus>
<clus scale="  133.812">  1  5  2 -1</clus>
</clustering>
</event>
<event>
 9    1  0.3846604E-005  0.9760743E+02  0.7546771E-02  0.1289347E+00
         -2   -1    0    0    0  501 -0.00000000000E+00  0.00000000000E+00  0.31850702707E+03  0.31850702707E+03  0.00000000000E+00 0.  1.
          1   -1    0    0  502    0  0.00000000000E+00 -0.00000000000E+00 -0.19981117111E+03  0.19981117111E+03  0.00000000000E+00 0. -1.
         23    2    1    2    0    0 -0.49073897095E+02  0.36390397246E+02  0.21531631196E+03  0.24164077349E+03  0.91085898085E+02 0.  0.
        -24    2    1    2    0    0 -0.38532068675E+01 -0.34987694508E+02 -0.16614797849E+03  0.18928564995E+03  0.83575837112E+02 0.  0.
         11    1    4    4    0    0  0.14494973736E+02 -0.55506571599E+02 -0.14009238318E+03  0.15138348516E+03  0.00000000000E+00 0. -1.
        -12    1    4    4    0    0 -0.18348180603E+02  0.20518877091E+02 -0.26055595314E+02  0.37902164789E+02  0.00000000000E+00 0.  1.
        -13    1    3    3    0    0 -0.58099762024E+02 -0.17127612166E+01  0.69218958341E+02  0.90386835834E+02  0.00000000000E+00 0. -1.
         13    1    3    3    0    0  0.90258649292E+01  0.38103158463E+02  0.14609735362E+03  0.15125393766E+03  0.00000000000E+00 0.  1.
         21    1    1    2  502  501  0.52927103962E+02 -0.14027027384E+01  0.69527522492E+02  0.87391774743E+02  0.00000000000E+00 0.  1.
<scales pt_clust_5="13000.00000" pt_clust_6="13000.00000" pt_clust_7="13000.00000" pt_clust_8="13000.00000" pt_clust_9="52.94569"></scales>
<clustering>
<clus scale="   52.946">  1  9  2 -1</clus>
<clus scale="   83.576">  5  6 -1 -1</clus>
<clus scale="   90.639">  2  5  1 -1</clus>
<clus scale="   91.086">  7  8 -1 -1</clus>
<clus scale="   90.639">  2  5  1 -1</clus>
</clustering>
</event>
<event>
 9    1  0.3846604E-005  0.1902827E+03  0.7546771E-02  0.1190978E+00
          1   -1    0    0  502    0  0.00000000000E+00  0.00000000000E+00  0.22994301235E+03  0.22994301235E+03  0.00000000000E+00 0. -1.
         -2   -1    0    0    0  501 -0.00000000000E+00 -0.00000000000E+00 -0.28116158569E+03  0.28116158569E+03  0.00000000000E+00 0.  1.
         23    2    1    2    0    0  0.11475531425E+03  0.11104449313E+03 -0.64537333152E+02  0.19515127842E+03  0.91756702725E+02 0.  0.
        -24    2    1    2    0    0  0.36178993419E+02 -0.22225739211E+02  0.87424954890E+02  0.12579111405E+03  0.79858491022E+02 0.  0.
         13    1    4    4    0    0  0.35451660038E+02 -0.50040856090E+02  0.69519523907E+02  0.92703137390E+02  0.00000000000E+00 0. -1.
        -14    1    4    4    0    0  0.72733338121E+00  0.27815116879E+02  0.17905430983E+02  0.33087976661E+02  0.00000000000E+00 0.  1.
        -11    1    3    3    0    0  0.12144223700E+03  0.83450054348E+02 -0.29881760270E+02  0.15034975256E+03  0.00000000000E+00 0. -1.
         11    1    3    3    0    0 -0.66869227492E+01  0.27594438785E+02 -0.34655572881E+02  0.44801525861E+02  0.00000000000E+00 0.  1.
         21    1    1    2  502  501 -0.15093430767E+03 -0.88818753922E+02 -0.74106195076E+02  0.19016220557E+03  0.00000000000E+00 0.  1.
<scales pt_clust_5="13000.00000" pt_clust_6="13000.00000" pt_clust_7="13000.00000" pt_clust_8="13000.00000" pt_clust_9="166.69797"></scales>
<clustering>
<clus scale="   79.858">  5  6 -1 -1</clus>
<clus scale="   90.445">  1  5  2 -1</clus>
<clus scale="   91.757">  7  8 -1 -1</clus>
<clus scale="  166.698">  1  9  2 -1</clus>
<clus scale="   90.445">  1  5  2 -1</clus>
</clustering>
</event>
<event>
 9    1  0.3846604E-005  0.1291959E+03  0.7546771E-02  0.1230672E+00
         -2   -1    0    0    0  501 -0.00000000000E+00  0.00000000000E+00  0.29858948972E+03  0.29858948972E+03  0.00000000000E+00 0.  1.
          1   -1    0    0  502    0  0.00000000000E+00 -0.00000000000E+00 -0.11512922158E+03  0.11512922158E+03  0.00000000000E+00 0. -1.
         23    2    1    2    0    0  0.92305841435E+02 -0.18459773604E+02  0.15972492336E+03  0.20486456923E+03  0.87156806843E+02 0.  0.
        -24    2    1    2    0    0 -0.96069503312E+02 -0.24477742478E+01 -0.48472069463E+02  0.13358661003E+03  0.79123320170E+02 0.  0.
         13    1    4    4    0    0 -0.78004216497E+02 -0.22330913038E+02 -0.63293586623E+02  0.10290483748E+03  0.00000000000E+00 0. -1.
        -14    1    4    4    0    0 -0.18065286816E+02  0.19883138790E+02  0.14821517160E+02  0.30681772550E+02  0.00000000000E+00 0.  1.
        -11    1    3    3    0    0  0.33814996680E+02  0.35162847210E+02  0.56020359086E+02  0.74284321741E+02  0.00000000000E+00 0. -1.
         11    1    3    3    0    0  0.58490844755E+02 -0.53622620814E+02  0.10370456427E+03  0.13058024749E+03  0.00000000000E+00 0.  1.
         21    1    1    2  502  501  0.37636618773E+01  0.20907547852E+02  0.72207414244E+02  0.75267532042E+02  0.00000000000E+00 0.  1.
<scales pt_clust_5="13000.00000" pt_clust_6="13000.00000" pt_clust_7="13000.00000" pt_clust_8="13000.00000" pt_clust_9="21.24360"></scales>
<clustering>
<clus scale="   21.244">  1  9  2 -1</clus>
<clus scale="   79.123">  5  6 -1 -1</clus>
<clus scale="   87.157">  7  8 -1 -1</clus>
<clus scale="  123.918">  2  5  1 -1</clus>
<clus scale="  123.918">  2  5  1 -1</clus>
</clustering>
</event>
<event>
 9    1  0.3846604E-005  0.9471130E+02  0.7546771E-02  0.1295797E+00
         -2   -1    0    0    0  501 -0.00000000000E+00  0.00000000000E+00  0.21719995796E+03  0.21719995796E+03  0.00000000000E+00 0.  1.
          1   -1    0    0  502    0  0.00000000000E+00 -0.00000000000E+00 -0.22298230848E+03  0.22298230848E+03  0.00000000000E+00 0. -1.
        -24    2    1    2    0    0 -0.34430012854E+02 -0.41865905104E+02  0.79431527215E+02  0.12752891129E+03  0.83762019453E+02 0.  0.
         23    2    1    2    0    0  0.20398340893E+02  0.12893846760E+02 -0.18516486598E+03  0.20764636476E+03  0.90822032603E+02 0.  0.
         13    1    3    3    0    0 -0.37871825592E+02  0.15502685005E+02  0.22806565302E+02  0.46848135896E+02  0.00000000000E+00 0. -1.
        -14    1    3    3    0    0  0.34418127385E+01 -0.57368590108E+02  0.56624961913E+02  0.80680775390E+02  0.00000000000E+00 0.  1.
        -11    1    4    4    0    0  0.15399281037E+02 -0.32962371457E+02 -0.34726844917E+02  0.50295223892E+02  0.00000000000E+00 0.  1.
         11    1    4    4    0    0  0.49990598563E+01  0.45856218217E+02 -0.15043802107E+03  0.15735114086E+03  0.00000000000E+00 0. -1.
         21    1    1    2  502  501  0.14031671961E+02  0.28972058343E+02  0.99950988246E+02  0.10500699041E+03  0.00000000000E+00 0.  1.
<scales pt_clust_5="13000.00000" pt_clust_6="13000.00000" pt_clust_7="13000.00000" pt_clust_8="13000.00000" pt_clust_9="32.19112"></scales>
<clustering>
<clus scale="   32.191">  1  9  2 -1</clus>
<clus scale="   83.762">  5  6 -1 -1</clus>
<clus scale="   87.964">  1  5  2 -1</clus>
<clus scale="   90.822">  7  8 -1 -1</clus>
<clus scale="   94.711">  2  5  1 -1</clus>
</clustering>
</event>
<event>
 9    1  0.3846604E-005  0.1177776E+03  0.7546771E-02  0.1250563E+00
         -2   -1    0    0    0  501 -0.00000000000E+00  0.00000000000E+00  0.20574323417E+03  0.20574323417E+03  0.00000000000E+00 0.  1.
          1   -1    0    0  502    0  0.00000000000E+00 -0.00000000000E+00 -0.15215813095E+03  0.15215813095E+03  0.00000000000E+00 0. -1.
        -24    2    1    2    0    0 -0.63995399826E+02 -0.81754971663E+01  0.83715895213E+02  0.13242203156E+03  0.79780908616E+02 0.  0.
         23    2    1    2    0    0  0.10093500060E+03  0.68209479461E+02 -0.29666496698E+02  0.15498941438E+03  0.91110976888E+02 0.  0.
         13    1    3    3    0    0 -0.65020616541E+02  0.21496776318E+01  0.20280953777E+02  0.68144103013E+02  0.00000000000E+00 0. -1.
        -14    1    3    3    0    0  0.10252167153E+01 -0.10325174798E+02  0.63434941436E+02  0.64277928552E+02  0.00000000000E+00 0.  1.
        -13    1    4    4    0    0 -0.46550059899E+01  0.37530409082E+02  0.81972055883E+01  0.38696186713E+02  0.00000000000E+00 0.  1.
         13    1    4    4    0    0  0.10559000659E+03  0.30679070379E+02 -0.37863702286E+02  0.11629322767E+03  0.00000000000E+00 0. -1.
         21    1    1    2  502  501 -0.36939600771E+02 -0.60033982295E+02 -0.46429530225E+00  0.70489919176E+02  0.00000000000E+00 0. -1.
<scales pt_clust_5="13000.00000" pt_clust_6="13000.00000" pt_clust_7="13000.00000" pt_clust_8="13000.00000" pt_clust_9="70.48839"></scales>
<clustering>
<clus scale="   70.488">  2  9  1 -1</clus>
<clus scale="   79.781">  5  6 -1 -1</clus>
<clus scale="   91.111">  7  8 -1 -1</clus>
<clus scale="  109.249">  1  5  2 -1</clus>
<clus scale="   70.488">  2  5  1 -1</clus>
</clustering>
</event>
<event>
 9    1  0.3846604E-005  0.8819216E+02  0.7546771E-02  0.1313014E+00
         -2   -1    0    0    0  501 -0.00000000000E+00  0.00000000000E+00  0.55106311839E+02  0.55106311839E+02  0.00000000000E+00 0.  1.
          1   -1    0    0  502    0  0.00000000000E+00 -0.00000000000E+00 -0.24677300441E+03  0.24677300441E+03  0.00000000000E+00 0. -1.
        -24    2    1    2    0    0  0.11539367295E+02 -0.23233420383E+02 -0.57049134113E+02  0.10086622267E+03  0.79034437762E+02 0.  0.
         23    2    1    2    0    0 -0.66837457950E+01 -0.13399226511E+02 -0.13764275274E+03  0.16393642060E+03  0.87780469869E+02 0.  0.
         11    1    3    3    0    0 -0.88154043335E+01 -0.21725305117E+02 -0.71899013516E+02  0.75625183507E+02  0.00000000000E+00 0. -1.
        -12    1    3    3    0    0  0.20354771629E+02 -0.15081152661E+01  0.14849879403E+02  0.25241039162E+02  0.00000000000E+00 0.  1.
        -13    1    4    4    0    0  0.32684226542E+02  0.18101197285E+02 -0.72503266422E+02  0.81563690756E+02  0.00000000000E+00 0.  1.
         13    1    4    4    0    0 -0.39367972337E+02 -0.31500423796E+02 -0.65139486314E+02  0.82372729847E+02  0.00000000000E+00 0. -1.
         21    1    1    2  502  501 -0.48556215005E+01  0.36632646894E+02  0.30251942777E+01  0.37076672977E+02  0.00000000000E+00 0.  1.
<scales pt_clust_5="13000.00000" pt_clust_6="13000.00000" pt_clust_7="13000.00000" pt_clust_8="13000.00000" pt_clust_9="36.95305"></scales>
<clustering>
<clus scale="   36.953">  1  9  2 -1</clus>
<clus scale="   79.034">  5  6 -1 -1</clus>
<clus scale="   79.491">  1  5  2 -1</clus>
<clus scale="   87.780">  7  8 -1 -1</clus>
<clus scale="   88.192">  2  5  1 -1</clus>
</clustering>
</event>
<event>
 9    1  0.3846604E-005  0.9641377E+02  0.7546771E-02  0.1294979E+00
         -2   -1    0    0    0  501 -0.00000000000E+00  0.00000000000E+00  0.56484191247E+02  0.56484191247E+02  0.00000000000E+00 0.  1.
          1   -1    0    0  502    0  0.00000000000E+00 -0.00000000000E+00 -0.40102914333E+03  0.40102914333E+03  0.00000000000E+00 0. -1.
         23    2    1    2    0    0  0.29880581809E+00  0.23862147495E+02 -0.85751125888E+01  0.95559135945E+02  0.92133189126E+02 0.  0.
        -24    2    1    2    0    0 -0.23228370557E+02 -0.18951055937E+02 -0.32515123330E+03  0.33612928819E+03  0.79755088506E+02 0.  0.
         13    1    4    4    0    0 -0.22440388444E+01 -0.45802003983E+02 -0.24128227662E+03  0.24560129537E+03  0.00000000000E+00 0. -1.
        -14    1    4    4    0    0 -0.20984331712E+02  0.26850948046E+02 -0.83868956684E+02  0.90527992818E+02  0.00000000000E+00 0.  1.
        -13    1    3    3    0    0 -0.19563967716E+01  0.47631163096E+02 -0.35600695700E+02  0.59497602645E+02  0.00000000000E+00 0. -1.
         13    1    3    3    0    0  0.22552025897E+01 -0.23769015601E+02  0.27025583112E+02  0.36061533299E+02  0.00000000000E+00 0.  1.
         21    1    1    2  502  501  0.22929564739E+02 -0.49110915580E+01 -0.10818606195E+02  0.25824910443E+02  0.00000000000E+00 0. -1.
<scales pt_clust_5="13000.00000" pt_clust_6="13000.00000" pt_clust_7="13000.00000" pt_clust_8="13000.00000" pt_clust_9="23.44960"></scales>
<clustering>
<clus scale="   23.450">  1  9  2 -1</clus>
<clus scale="   79.755">  5  6 -1 -1</clus>
<clus scale="   84.664">  2  5  1 -1</clus>
<clus scale="   92.133">  7  8 -1 -1</clus>
<clus scale="   84.664">  2  5  1 -1</clus>
</clustering>
</event>
<event>
 9    1  0.3846604E-005  0.2718304E+03  0.7546771E-02  0.1115862E+00
         -2   -1    0    0    0  501 -0.00000000000E+00  0.00000000000E+00  0.22973134438E+03  0.22973134438E+03  0.00000000000E+00 0.  1.
          1   -1    0    0  502    0  0.00000000000E+00 -0.00000000000E+00 -0.15916704357E+04  0.15916704357E+04  0.00000000000E+00 0. -1.
         23    2    1    2    0    0 -0.13135938119E+03 -0.86698527312E+02  0.13363830807E+03  0.22604776037E+03  0.92013427936E+02 0.  0.
        -24    2    1    2    0    0  0.15680545662E+03 -0.20010878155E+03 -0.73579847682E+03  0.78284559123E+03  0.82561162375E+02 0.  0.
         13    1    4    4    0    0  0.15379018215E+03 -0.19945708457E+03 -0.65147375730E+03  0.69846446234E+03  0.00000000000E+00 0. -1.
        -14    1    4    4    0    0  0.30152744755E+01 -0.65169698189E+00 -0.84324719523E+02  0.84381128884E+02  0.00000000000E+00 0.  1.
        -13    1    3    3    0    0 -0.34839246675E+02  0.18547354741E+02  0.30949621366E+02  0.50156321032E+02  0.00000000000E+00 0.  1.
         13    1    3    3    0    0 -0.96520134513E+02 -0.10524588205E+03  0.10268868671E+03  0.17589143934E+03  0.00000000000E+00 0. -1.
         21    1    1    2  502  501 -0.25446075435E+02  0.28680730886E+03 -0.75977892257E+03  0.81250842848E+03  0.00000000000E+00 0.  1.
<scales pt_clust_5="13000.00000" pt_clust_6="13000.00000" pt_clust_7="13000.00000" pt_clust_8="13000.00000" pt_clust_9="258.98926"></scales>
<clustering>
<clus scale="   82.561">  5  6 -1 -1</clus>
<clus scale="   92.013">  7  8 -1 -1</clus>
<clus scale="  182.314">  1  7  2 -1</clus>
<clus scale="  258.989">  1  9  2 -1</clus>
<clus scale="  271.830">  2  5  1 -1</clus>
</clustering>
</event>
<event>
 9    1  0.3846604E-005  0.9819731E+02  0.7546771E-02  0.1291460E+00
         -2   -1    0    0    0  501 -0.00000000000E+00  0.00000000000E+00  0.30364785387E+02  0.30364785387E+02  0.00000000000E+00 0.  1.
          1   -1    0    0  502    0  0.00000000000E+00 -0.00000000000E+00 -0.46128234035E+03  0.46128234035E+03  0.00000000000E+00 0. -1.
        -24    2    1    2    0    0  0.24870038237E+02 -0.16310200874E+01 -0.88542915741E+02  0.12208799287E+03  0.80277338308E+02 0.  0.
         23    2    1    2    0    0 -0.22831188698E+02  0.25372759578E+02 -0.32535825094E+03  0.34027800291E+03  0.93627387581E+02 0.  0.
         11    1    3    3    0    0 -0.14983072314E+02  0.13335095506E+02  0.37910243192E+01  0.20412963859E+02  0.00000000000E+00 0. -1.
        -12    1    3    3    0    0  0.39853110551E+02 -0.14966115594E+02 -0.92333940060E+02  0.10167502901E+03  0.00000000000E+00 0.  1.
        -13    1    4    4    0    0  0.15849262303E+02  0.50575501796E+02 -0.15700892293E+03  0.16571325348E+03  0.00000000000E+00 0.  1.
         13    1    4    4    0    0 -0.38680451001E+02 -0.25202742217E+02 -0.16834932801E+03  0.17456474944E+03  0.00000000000E+00 0. -1.
         21    1    1    2  502  501 -0.20388495393E+01 -0.23741739491E+02 -0.17016388286E+02  0.29281129961E+02  0.00000000000E+00 0.  1.
<scales pt_clust_5="13000.00000" pt_clust_6="13000.00000" pt_clust_7="13000.00000" pt_clust_8="13000.00000" pt_clust_9="23.82912"></scales>
<clustering>
<clus scale="   23.829">  1  9  2 -1</clus>
<clus scale="   80.277">  5  6 -1 -1</clus>
<clus scale="   85.563">  1  5  2 -1</clus>
<clus scale="   93.627">  7  8 -1 -1</clus>
<clus scale="   98.197">  2  5  1 -1</clus>
</clustering>
</event>
<event>
 9    1  0.3846604E-005  0.9431490E+02  0.7546771E-02  0.1298962E+00
         -2   -1    0    0    0  501 -0.00000000000E+00  0.00000000000E+00  0.24415387429E+02  0.24415387429E+02  0.00000000000E+00 0.  1.
          1   -1    0    0  502    0  0.00000000000E+00 -0.00000000000E+00 -0.87491451396E+03  0.87491451396E+03  0.00000000000E+00 0. -1.
         23    2    1    2    0    0 -0.21604181895E+02 -0.12245251217E+02 -0.97599621299E+02  0.13596955390E+03  0.91352868904E+02 0.  0.
        -24    2    1    2    0    0 -0.21823896737E+01  0.30476190347E+02 -0.66320686168E+03  0.66879323674E+03  0.80669022098E+02 0.  0.
         13    1    4    4    0    0 -0.46729567300E+01 -0.26269545697E+02 -0.14065400248E+03  0.14316240418E+03  0.00000000000E+00 0. -1.
        -14    1    4    4    0    0  0.24905670563E+01  0.56745736044E+02 -0.52255285920E+03  0.52563083257E+03  0.00000000000E+00 0.  1.
        -11    1    3    3    0    0  0.32521299368E+02  0.60824898614E+01 -0.56876420107E+02  0.65799382670E+02  0.00000000000E+00 0.  1.
         11    1    3    3    0    0 -0.54125481263E+02 -0.18327741078E+02 -0.40723201192E+02  0.70170171229E+02  0.00000000000E+00 0. -1.
         21    1    1    2  502  501  0.23786571568E+02 -0.18230939130E+02 -0.89692643551E+02  0.94567110750E+02  0.00000000000E+00 0.  1.
<scales pt_clust_5="13000.00000" pt_clust_6="13000.00000" pt_clust_7="13000.00000" pt_clust_8="13000.00000" pt_clust_9="29.96945"></scales>
<clustering>
<clus scale="   29.969">  2  9  1 -1</clus>
<clus scale="   80.669">  5  6 -1 -1</clus>
<clus scale="   84.009">  2  5  1 -1</clus>
<clus scale="   91.353">  7  8 -1 -1</clus>
<clus scale="   29.969">  2  5  1 -1</clus>
</clustering>
</event>
<event>
 9    1  0.3846604E-005  0.9649162E+02  0.7546771E-02  0.1293606E+00
         -2   -1    0    0    0  501 -0.00000000000E+00  0.00000000000E+00  0.12065775102E+03  0.12065775102E+03  0.00000000000E+00 0.  1.
          1   -1    0    0  502    0  0.00000000000E+00 -0.00000000000E+00 -0.31540834163E+03  0.31540834163E+03  0.00000000000E+00 0. -1.
        -24    2    1    2    0    0 -0.28589874340E+01  0.21398040257E+01  0.60142264618E+02  0.10039368003E+03  0.80305955108E+02 0.  0.
         23    2    1    2    0    0 -0.34637483037E+02  0.10891852476E+02 -0.27448936757E+03  0.29140241528E+03  0.90843640610E+02 0.  0.
         13    1    3    3    0    0  0.23014402848E+02 -0.24289099850E+02  0.47608961104E+01  0.33797769775E+02  0.00000000000E+00 0. -1.
        -14    1    3    3    0    0 -0.25873390282E+02  0.26428903876E+02  0.55381368507E+02  0.66595910254E+02  0.00000000000E+00 0.  1.
        -11    1    4    4    0    0 -0.40664983126E+02  0.45285391551E+02 -0.20148740530E+03  0.21047941000E+03  0.00000000000E+00 0. -1.
         11    1    4    4    0    0  0.60275000889E+01 -0.34393539076E+02 -0.73001962275E+02  0.80923005279E+02  0.00000000000E+00 0.  1.
         21    1    1    2  502  501  0.37496470471E+02 -0.13031656501E+02  0.19596512345E+02  0.44269997347E+02  0.00000000000E+00 0. -1.
<scales pt_clust_5="13000.00000" pt_clust_6="13000.00000" pt_clust_7="13000.00000" pt_clust_8="13000.00000" pt_clust_9="39.69647"></scales>
<clustering>
<clus scale="   39.696">  1  9  2 -1</clus>
<clus scale="   80.306">  5  6 -1 -1</clus>
<clus scale="   86.644">  1  5  2 -1</clus>
<clus scale="   90.844">  7  8 -1 -1</clus>
<clus scale="   96.492">  2  5  1 -1</clus>
</clustering>
</event>
<event>
 9    1  0.3846604E-005  0.1038388E+03  0.7546771E-02  0.1276529E+00
         -2   -1    0    0    0  501 -0.00000000000E+00  0.00000000000E+00  0.38613404983E+03  0.38613404983E+03  0.00000000000E+00 0.  1.
          1   -1    0    0  502    0  0.00000000000E+00 -0.00000000000E+00 -0.75035925239E+02  0.75035925239E+02  0.00000000000E+00 0. -1.
        -24    2    1    2    0    0 -0.19041203812E+02 -0.65315047674E+02  0.19718439233E+03  0.22387890526E+03  0.81310864891E+02 0.  0.
         23    2    1    2    0    0  0.60936356198E+02 -0.21996987929E+02  0.58360185437E+02  0.12564523728E+03  0.90463845940E+02 0.  0.
         13    1    3    3    0    0  0.34008086095E+01 -0.43743973372E+02  0.28439045773E+02  0.52286518626E+02  0.00000000000E+00 0. -1.
        -14    1    3    3    0    0 -0.22442012421E+02 -0.21571074302E+02  0.16874534656E+03  0.17159238664E+03  0.00000000000E+00 0.  1.
        -11    1    4    4    0    0  0.23811307622E+02 -0.90269937095E+01 -0.23612438182E+02  0.34727686692E+02  0.00000000000E+00 0.  1.
         11    1    4    4    0    0  0.37125048576E+02 -0.12969994219E+02  0.81972623620E+02  0.90917550588E+02  0.00000000000E+00 0. -1.
         21    1    1    2  502  501 -0.41895152387E+02  0.87312035603E+02  0.55553546822E+02  0.11164583252E+03  0.00000000000E+00 0.  1.
<scales pt_clust_5="13000.00000" pt_clust_6="13000.00000" pt_clust_7="13000.00000" pt_clust_8="13000.00000" pt_clust_9="96.84315"></scales>
<clustering>
<clus scale="   81.311">  5  6 -1 -1</clus>
<clus scale="   90.464">  7  8 -1 -1</clus>
<clus scale="   96.843">  2  9  1 -1</clus>
<clus scale="   95.970">  1  5  2 -1</clus>
<clus scale="   96.843">  2  5  1 -1</clus>
</clustering>
</event>
<event>
 9    1  0.3846604E-005  0.6764075E+03  0.7546771E-02  0.9758451E-01
         -2   -1    0    0    0  501 -0.00000000000E+00  0.00000000000E+00  0.58389547915E+03  0.58389547915E+03  0.00000000000E+00 0.  1.
          1   -1    0    0  502    0  0.00000000000E+00 -0.00000000000E+00 -0.72607732536E+03  0.72607732536E+03  0.00000000000E+00 0. -1.
        -24    2    1    2    0    0  0.24111992442E+03 -0.34071593498E+03 -0.30826072914E+02  0.42627040312E+03  0.80808684597E+02 0.  0.
         23    2    1    2    0    0  0.18108228118E+02 -0.21120473280E+03 -0.14627124985E+03  0.27293669418E+03  0.90353823456E+02 0.  0.
         11    1    3    3    0    0  0.24670325302E+03 -0.33313175109E+03 -0.25200188138E+02  0.41530026260E+03  0.00000000000E+00 0. -1.
        -12    1    3    3    0    0 -0.55833286012E+01 -0.75841838915E+01 -0.56258847762E+01  0.10970140523E+02  0.00000000000E+00 0.  1.
        -11    1    4    4    0    0  0.35284217493E+02 -0.18695101040E+03 -0.15093689298E+03  0.24285304601E+03  0.00000000000E+00 0. -1.
         11    1    4    4    0    0 -0.17175989374E+02 -0.24253722408E+02  0.46656431302E+01  0.30083648174E+02  0.00000000000E+00 0.  1.
         21    1    1    2  502  501 -0.25922815254E+03  0.55192066779E+03  0.34915476557E+02  0.61076570721E+03  0.00000000000E+00 0.  1.
<scales pt_clust_5="13000.00000" pt_clust_6="13000.00000" pt_clust_7="13000.00000" pt_clust_8="13000.00000" pt_clust_9="609.76689"></scales>
<clustering>
<clus scale="   80.809">  5  6 -1 -1</clus>
<clus scale="   90.354">  7  8 -1 -1</clus>
<clus scale="  187.833">  5  7 -1 -1</clus>
<clus scale="  609.767">  1  9  2 -1</clus>
<clus scale="  676.407">  2  5  1 -1</clus>
</clustering>
</event>
<event>
 9    1  0.3846604E-005  0.1203195E+03  0.7546771E-02  0.1255325E+00
         -2   -1    0    0    0  501 -0.00000000000E+00  0.00000000000E+00  0.18229240933E+03  0.18229240933E+03  0.00000000000E+00 0.  1.
          1   -1    0    0  502    0  0.00000000000E+00 -0.00000000000E+00 -0.19866472042E+03  0.19866472042E+03  0.00000000000E+00 0. -1.
        -24    2    1    2    0    0  0.11340140950E+02 -0.32709483093E+02  0.96268751471E+02  0.12971411420E+03  0.79746911111E+02 0.  0.
         23    2    1    2    0    0  0.13018837610E+02  0.50087394133E+02 -0.15641422288E+03  0.19821999044E+03  0.11021578066E+03 0.  0.
         11    1    3    3    0    0  0.38207101784E+02 -0.11971835109E+01  0.72517025230E+02  0.81975208590E+02  0.00000000000E+00 0. -1.
        -12    1    3    3    0    0 -0.26866960834E+02 -0.31512299582E+02  0.23751726241E+02  0.47738905609E+02  0.00000000000E+00 0.  1.
        -13    1    4    4    0    0  0.33859241362E+02  0.34829022697E+02 -0.10061949624E+02  0.49605966152E+02  0.00000000000E+00 0.  1.
         13    1    4    4    0    0 -0.20840403752E+02  0.15258371436E+02 -0.14635227326E+03  0.14861402429E+03  0.00000000000E+00 0. -1.
         21    1    1    2  502  501 -0.24358978560E+02 -0.17377911041E+02  0.43773160316E+02  0.53023025118E+02  0.00000000000E+00 0.  1.
<scales pt_clust_5="13000.00000" pt_clust_6="13000.00000" pt_clust_7="13000.00000" pt_clust_8="13000.00000" pt_clust_9="29.92243"></scales>
<clustering>
<clus scale="   29.922">  1  9  2 -1</clus>
<clus scale="   79.747">  5  6 -1 -1</clus>
<clus scale="   93.214">  1  5  2 -1</clus>
<clus scale="  110.216">  7  8 -1 -1</clus>
<clus scale="  120.320">  2  5  1 -1</clus>
</clustering>
</event>
<event>
 9    1  0.3846604E-005  0.1064227E+03  0.7546771E-02  0.1269723E+00
         -2   -1    0    0    0  501 -0.00000000000E+00  0.00000000000E+00  0.13523919734E+03  0.13523919734E+03  0.00000000000E+00 0.  1.
          1   -1    0    0  502    0  0.00000000000E+00 -0.00000000000E+00 -0.14981987077E+03  0.14981987077E+03  0.00000000000E+00 0. -1.
        -24    2    1    2    0    0  0.41409232579E+02 -0.60862910843E+01  0.46548203692E+02  0.11571560842E+03  0.97322141796E+02 0.  0.
         23    2    1    2    0    0 -0.36383173662E+02  0.25486604218E+02 -0.88652171226E+02  0.13529694538E+03  0.92047561869E+02 0.  0.
         13    1    3    3    0    0 -0.14055495619E+02  0.34472776621E+02  0.16295720642E+02  0.40638402974E+02  0.00000000000E+00 0. -1.
        -14    1    3    3    0    0  0.55464728197E+02 -0.40559067706E+02  0.30252483050E+02  0.75077205448E+02  0.00000000000E+00 0.  1.
        -11    1    4    4    0    0 -0.35625612674E+02  0.58734139901E+02 -0.55171730220E+02  0.88106772065E+02  0.00000000000E+00 0.  1.
         11    1    4    4    0    0 -0.75756098754E+00 -0.33247535682E+02 -0.33480441006E+02  0.47190173315E+02  0.00000000000E+00 0. -1.
         21    1    1    2  502  501 -0.50260589171E+01 -0.19400313134E+02  0.27523294110E+02  0.34046514309E+02  0.00000000000E+00 0.  1.
<scales pt_clust_5="13000.00000" pt_clust_6="13000.00000" pt_clust_7="13000.00000" pt_clust_8="13000.00000" pt_clust_9="20.04079"></scales>
<clustering>
<clus scale="   20.041">  1  9  2 -1</clus>
<clus scale="   92.048">  7  8 -1 -1</clus>
<clus scale="   97.322">  5  6 -1 -1</clus>
<clus scale="  101.622">  2  7  1 -1</clus>
<clus scale="  101.622">  2  5  1 -1</clus>
</clustering>
</event>
<event>
 9    1  0.3846604E-005  0.9897974E+02  0.7546771E-02  0.1287015E+00
          3   -1    0    0  502    0  0.00000000000E+00  0.00000000000E+00  0.36670636025E+03  0.36670636025E+03  0.00000000000E+00 0. -1.
         -4   -1    0    0    0  501 -0.00000000000E+00 -0.00000000000E+00 -0.11757060951E+03  0.11757060951E+03  0.00000000000E+00 0.  1.
        -24    2    1    2    0    0  0.11360202135E+02  0.11023367356E+03 -0.31067575947E+02  0.14001507031E+03  0.79740257458E+02 0.  0.
         23    2    1    2    0    0  0.11994800534E+02 -0.34809108793E+02  0.23341893499E+03  0.25248444891E+03  0.88929457637E+02 0.  0.
         13    1    3    3    0    0 -0.34183013722E+02  0.53790532855E+02 -0.18892877397E+02  0.66474360985E+02  0.00000000000E+00 0. -1.
        -14    1    3    3    0    0  0.45543215857E+02  0.56443140705E+02 -0.12174698550E+02  0.73540709325E+02  0.00000000000E+00 0.  1.
        -13    1    4    4    0    0  0.25066501938E+02 -0.61359710868E+02  0.15075382095E+03  0.16468168741E+03  0.00000000000E+00 0. -1.
         13    1    4    4    0    0 -0.13071701404E+02  0.26550602074E+02  0.82665114035E+02  0.87802761498E+02  0.00000000000E+00 0.  1.
         21    1    1    2  502  501 -0.23355002669E+02 -0.75424564767E+02  0.46784391702E+02  0.91777450536E+02  0.00000000000E+00 0. -1.
<scales pt_clust_5="13000.00000" pt_clust_6="13000.00000" pt_clust_7="13000.00000" pt_clust_8="13000.00000" pt_clust_9="78.95772"></scales>
<clustering>
<clus scale="   78.958">  2  9  1 -1</clus>
<clus scale="   79.740">  5  6 -1 -1</clus>
<clus scale="   88.929">  7  8 -1 -1</clus>
<clus scale="   90.813">  2  5  1 -1</clus>
<clus scale="   98.980">  1  5  2 -1</clus>
</clustering>
</event>
<event>
 9    1  0.3846604E-005  0.4751162E+03  0.7546771E-02  0.1020537E+00
          1   -1    0    0  502    0  0.00000000000E+00  0.00000000000E+00  0.18601545257E+04  0.18601545257E+04  0.00000000000E+00 0. -1.
         -2   -1    0    0    0  501 -0.00000000000E+00 -0.00000000000E+00 -0.24600334563E+03  0.24600334563E+03  0.00000000000E+00 0.  1.
        -24    2    1    2    0    0  0.47653490841E+03  0.52764461763E+02  0.13085998834E+03  0.50464350897E+03  0.87584971550E+02 0.  0.
         23    2    1    2    0    0 -0.46352615548E+03  0.35953238062E+02  0.14040606478E+04  0.14818584515E+04  0.91482432518E+02 0.  0.
         13    1    3    3    0    0  0.25931701210E+02  0.19356070962E+02  0.24140179081E+02  0.40371510460E+02  0.00000000000E+00 0. -1.
        -14    1    3    3    0    0  0.45060320720E+03  0.33408390801E+02  0.10671980926E+03  0.46427199851E+03  0.00000000000E+00 0.  1.
        -11    1    4    4    0    0 -0.40558086676E+03  0.53550284525E+02  0.12803593109E+04  0.13441292488E+04  0.00000000000E+00 0. -1.
         11    1    4    4    0    0 -0.57945288719E+02 -0.17597046463E+02  0.12370133690E+03  0.13772920271E+03  0.00000000000E+00 0.  1.
         21    1    1    2  502  501 -0.13008752935E+02 -0.88717699825E+02  0.79230543977E+02  0.11965591090E+03  0.00000000000E+00 0.  1.
<scales pt_clust_5="13000.00000" pt_clust_6="13000.00000" pt_clust_7="13000.00000" pt_clust_8="13000.00000" pt_clust_9="89.66637"></scales>
<clustering>
<clus scale="   87.585">  5  6 -1 -1</clus>
<clus scale="   89.666">  2  9  1 -1</clus>
<clus scale="   91.482">  7  8 -1 -1</clus>
<clus scale="  474.381">  2  5  1 -1</clus>
<clus scale="  475.116">  1  5  2 -1</clus>
</clustering>
</event>
<event>
 9    1  0.3846604E-005  0.1355897E+03  0.7546771E-02  0.1222371E+00
         -2   -1    0    0    0  501 -0.00000000000E+00  0.00000000000E+00  0.15727120819E+03  0.15727120819E+03  0.00000000000E+00 0.  1.
          1   -1    0    0  502    0  0.00000000000E+00 -0.00000000000E+00 -0.19227076259E+03  0.19227076259E+03  0.00000000000E+00 0. -1.
        -24    2    1    2    0    0  0.10937952617E+03 -0.45447914228E+02  0.46614353851E+02  0.14935285106E+03  0.78127987816E+02 0.  0.
         23    2    1    2    0    0 -0.90639264775E+02  0.28080139718E+02 -0.10292335122E+03  0.16691857195E+03  0.90909971233E+02 0.  0.
         11    1    3    3    0    0  0.62789864892E+02 -0.44930426856E+02 -0.79321773301E+01  0.77615912208E+02  0.00000000000E+00 0. -1.
        -12    1    3    3    0    0  0.46589661282E+02 -0.51748737201E+00  0.54546531182E+02  0.71736938849E+02  0.00000000000E+00 0.  1.
        -11    1    4    4    0    0 -0.57685112140E+02  0.32114232695E+02 -0.11415322813E+03  0.13187060172E+03  0.00000000000E+00 0. -1.
         11    1    4    4    0    0 -0.32954152636E+02 -0.40340929770E+01  0.11229876909E+02  0.35047970234E+02  0.00000000000E+00 0.  1.
         21    1    1    2  502  501 -0.18740261399E+02  0.17367774510E+02  0.21309442973E+02  0.33270547765E+02  0.00000000000E+00 0.  1.
<scales pt_clust_5="13000.00000" pt_clust_6="13000.00000" pt_clust_7="13000.00000" pt_clust_8="13000.00000" pt_clust_9="25.55067"></scales>
<clustering>
<clus scale="   25.551">  1  9  2 -1</clus>
<clus scale="   78.128">  5  6 -1 -1</clus>
<clus scale="   90.910">  7  8 -1 -1</clus>
<clus scale="  127.373">  1  5  2 -1</clus>
<clus scale="  135.590">  2  5  1 -1</clus>
</clustering>
</event>
<event>
 9    1  0.3846604E-005  0.1010373E+03  0.7546771E-02  0.1283668E+00
          1   -1    0    0  502    0  0.00000000000E+00  0.00000000000E+00  0.99561806566E+02  0.99561806566E+02  0.00000000000E+00 0. -1.
         -2   -1    0    0    0  501 -0.00000000000E+00 -0.00000000000E+00 -0.53517733176E+03  0.53517733176E+03  0.00000000000E+00 0.  1.
        -24    2    1    2    0    0  0.35256198208E+02  0.78407400009E+02 -0.23131477859E+03  0.25944281905E+03  0.80083267137E+02 0.  0.
         23    2    1    2    0    0 -0.10092642056E+01 -0.38536182282E+02  0.53156077224E+02  0.11252915499E+03  0.91384824874E+02 0.  0.
         13    1    3    3    0    0  0.22789749307E+02 -0.60053974809E+01 -0.17877516882E+02  0.29581127129E+02  0.00000000000E+00 0. -1.
        -14    1    3    3    0    0  0.12466448901E+02  0.84412797490E+02 -0.21343726170E+03  0.22986169192E+03  0.00000000000E+00 0.  1.
        -11    1    4    4    0    0  0.11489116918E+02  0.28265250484E+02  0.22842803004E+02  0.38114535830E+02  0.00000000000E+00 0.  1.
         11    1    4    4    0    0 -0.12498381124E+02 -0.66801432766E+02  0.30313274220E+02  0.74414619157E+02  0.00000000000E+00 0. -1.
         21    1    1    2  502  501 -0.34246934003E+02 -0.39871217727E+02 -0.25745682383E+03  0.26276716429E+03  0.00000000000E+00 0. -1.
<scales pt_clust_5="13000.00000" pt_clust_6="13000.00000" pt_clust_7="13000.00000" pt_clust_8="13000.00000" pt_clust_9="52.56012"></scales>
<clustering>
<clus scale="   52.560">  2  9  1 -1</clus>
<clus scale="   80.083">  5  6 -1 -1</clus>
<clus scale="   90.943">  2  5  1 -1</clus>
<clus scale="   91.385">  7  8 -1 -1</clus>
<clus scale="  101.037">  1  5  2 -1</clus>
</clustering>
</event>
<event>
 9    1  0.3846604E-005  0.9502046E+02  0.7546771E-02  0.1296755E+00
          1   -1    0    0  502    0  0.00000000000E+00  0.00000000000E+00  0.19848216334E+03  0.19848216334E+03  0.00000000000E+00 0. -1.
         -2   -1    0    0    0  501 -0.00000000000E+00 -0.00000000000E+00 -0.17263269632E+03  0.17263269632E+03  0.00000000000E+00 0.  1.
        -24    2    1    2    0    0 -0.11596604657E+01 -0.96667809347E+00  0.27032880018E+01  0.82013566263E+02  0.81955097500E+02 0.  0.
         23    2    1    2    0    0  0.10550257846E+02  0.32083283357E+02  0.13833787692E+03  0.16941188824E+03  0.91773496591E+02 0.  0.
         13    1    3    3    0    0  0.33214378388E+02 -0.23653777347E+02  0.18778298372E+01  0.40819387053E+02  0.00000000000E+00 0. -1.
        -14    1    3    3    0    0 -0.34374038854E+02  0.22687099253E+02  0.82545816457E+00  0.41194179210E+02  0.00000000000E+00 0.  1.
        -11    1    4    4    0    0 -0.27652139886E+01  0.52718985580E+02  0.35344270970E+02  0.63530743262E+02  0.00000000000E+00 0.  1.
         11    1    4    4    0    0  0.13315471835E+02 -0.20635702223E+02  0.10299360595E+03  0.10588114498E+03  0.00000000000E+00 0. -1.
         21    1    1    2  502  501 -0.93905973803E+01 -0.31116605263E+02 -0.11519169790E+03  0.11968940516E+03  0.00000000000E+00 0.  1.
<scales pt_clust_5="13000.00000" pt_clust_6="13000.00000" pt_clust_7="13000.00000" pt_clust_8="13000.00000" pt_clust_9="32.50271"></scales>
<clustering>
<clus scale="   32.503">  2  9  1 -1</clus>
<clus scale="   81.955">  5  6 -1 -1</clus>
<clus scale="   85.575">  2  5  1 -1</clus>
<clus scale="   91.773">  7  8 -1 -1</clus>
<clus scale="   95.020">  1  5  2 -1</clus>
</clustering>
</event>
<event>
 9    1  0.3846604E-005  0.2001867E+03  0.7546771E-02  0.1184852E+00
          1   -1    0    0  502    0  0.00000000000E+00  0.00000000000E+00  0.51622144158E+03  0.51622144158E+03  0.00000000000E+00 0. -1.
         -2   -1    0    0    0  501 -0.00000000000E+00 -0.00000000000E+00 -0.12475647943E+03  0.12475647943E+03  0.00000000000E+00 0.  1.
         23    2    1    2    0    0  0.80690121137E+02 -0.15290797928E+03  0.13016529632E+03  0.23527005426E+03  0.92288939138E+02 0.  0.
        -24    2    1    2    0    0  0.35314882123E+02  0.11813610755E+02  0.18967344004E+03  0.20950619032E+03  0.80809205112E+02 0.  0.
         11    1    4    4    0    0  0.58220660180E+02  0.15732853848E+02  0.16469250884E+03  0.17538754354E+03  0.00000000000E+00 0. -1.
        -12    1    4    4    0    0 -0.22905778056E+02 -0.39192430932E+01  0.24980931195E+02  0.34118646781E+02  0.00000000000E+00 0.  1.
        -11    1    3    3    0    0 -0.20785588734E+02 -0.25754830894E+02  0.26125819616E+02  0.42165275571E+02  0.00000000000E+00 0. -1.
         11    1    3    3    0    0  0.10147570987E+03 -0.12715314839E+03  0.10403947671E+03  0.19310477869E+03  0.00000000000E+00 0.  1.
         21    1    1    2  502  501 -0.11600500326E+03  0.14109436853E+03  0.71626225785E+02  0.19620167643E+03  0.00000000000E+00 0. -1.
<scales pt_clust_5="13000.00000" pt_clust_6="13000.00000" pt_clust_7="13000.00000" pt_clust_8="13000.00000" pt_clust_9="177.64425"></scales>
<clustering>
<clus scale="   80.809">  5  6 -1 -1</clus>
<clus scale="   88.977">  1  5  2 -1</clus>
<clus scale="   92.289">  7  8 -1 -1</clus>
<clus scale="  177.644">  2  9  1 -1</clus>
<clus scale="   88.977">  1  5  2 -1</clus>
</clustering>
</event>
<event>
 9    1  0.3846604E-005  0.1277086E+03  0.7546771E-02  0.1241865E+00
         -2   -1    0    0    0  501 -0.00000000000E+00  0.00000000000E+00  0.62557247235E+03  0.62557247235E+03  0.00000000000E+00 0.  1.
          1   -1    0    0  502    0  0.00000000000E+00 -0.00000000000E+00 -0.10695509800E+03  0.10695509800E+03  0.00000000000E+00 0. -1.
        -24    2    1    2    0    0 -0.57274368900E+02 -0.15923070382E+02  0.11522087273E+03  0.15392764555E+03  0.82969711634E+02 0.  0.
         23    2    1    2    0    0 -0.67817757451E+02  0.52079448112E+02 -0.27822322949E+02  0.12815015136E+03  0.91306420897E+02 0.  0.
         11    1    3    3    0    0 -0.34152271038E+02  0.11624872763E+02  0.31345220595E+01  0.36212435880E+02  0.00000000000E+00 0. -1.
        -12    1    3    3    0    0 -0.23122097861E+02 -0.27547943145E+02  0.11208635067E+03  0.11771520967E+03  0.00000000000E+00 0.  1.
        -13    1    4    4    0    0 -0.68159220066E+02 -0.45593714802E+01 -0.18247461119E+02  0.70706696894E+02  0.00000000000E+00 0. -1.
         13    1    4    4    0    0  0.34146261583E+00  0.56638819592E+02 -0.95748618298E+01  0.57443454462E+02  0.00000000000E+00 0.  1.
         21    1    1    2  502  501  0.12509212635E+03 -0.36156377730E+02  0.43121882457E+03  0.45044977344E+03  0.00000000000E+00 0.  1.
<scales pt_clust_5="13000.00000" pt_clust_6="13000.00000" pt_clust_7="13000.00000" pt_clust_8="13000.00000" pt_clust_9="89.28962"></scales>
<clustering>
<clus scale="   82.970">  5  6 -1 -1</clus>
<clus scale="   91.306">  7  8 -1 -1</clus>
<clus scale="  102.068">  1  5  2 -1</clus>
<clus scale="   89.290">  1  9  2 -1</clus>
<clus scale="  127.709">  2  5  1 -1</clus>
</clustering>
</event>
<event>
 9    1  0.3846604E-005  0.1112195E+03  0.7546771E-02  0.1263134E+00
          1   -1    0    0  502    0  0.00000000000E+00  0.00000000000E+00  0.27755065242E+03  0.27755065242E+03  0.00000000000E+00 0. -1.
         -2   -1    0    0    0  501 -0.00000000000E+00 -0.00000000000E+00 -0.35271729552E+03  0.35271729552E+03  0.00000000000E+00 0.  1.
        -24    2    1    2    0    0  0.45070910718E+02 -0.19590420603E+02 -0.24345071989E+03  0.26082180839E+03  0.79652941855E+02 0.  0.
         23    2    1    2    0    0 -0.63130243779E+02  0.28344508293E+01  0.25549411286E+03  0.27882333654E+03  0.92042107222E+02 0.  0.
         11    1    3    3    0    0  0.17582978875E+00 -0.38143629385E+02 -0.60409566744E+02  0.71444265921E+02  0.00000000000E+00 0. -1.
        -12    1    3    3    0    0  0.44895080929E+02  0.18553208782E+02 -0.18304115314E+03  0.18937754247E+03  0.00000000000E+00 0.  1.
        -13    1    4    4    0    0 -0.75361599846E+02  0.25094163019E+02  0.22777648397E+03  0.24122855220E+03  0.00000000000E+00 0. -1.
         13    1    4    4    0    0  0.12231356067E+02 -0.22259712189E+02  0.27717628894E+02  0.37594784339E+02  0.00000000000E+00 0.  1.
         21    1    1    2  502  501  0.18059333062E+02  0.16755969773E+02 -0.87210036069E+02  0.90622803007E+02  0.00000000000E+00 0.  1.
<scales pt_clust_5="13000.00000" pt_clust_6="13000.00000" pt_clust_7="13000.00000" pt_clust_8="13000.00000" pt_clust_9="24.63538"></scales>
<clustering>
<clus scale="   24.635">  2  9  1 -1</clus>
<clus scale="   79.653">  5  6 -1 -1</clus>
<clus scale="   92.042">  7  8 -1 -1</clus>
<clus scale="  101.206">  2  5  1 -1</clus>
<clus scale="  111.219">  1  5  2 -1</clus>
</clustering>
</event>
<event>
 9    1  0.3846604E-005  0.1343714E+03  0.7546771E-02  0.1223649E+00
          1   -1    0    0  502    0  0.00000000000E+00  0.00000000000E+00  0.16000616152E+03  0.16000616152E+03  0.00000000000E+00 0. -1.
         -2   -1    0    0    0  501 -0.00000000000E+00 -0.00000000000E+00 -0.24166413187E+03  0.24166413187E+03  0.00000000000E+00 0.  1.
        -24    2    1    2    0    0 -0.95466266858E+02  0.60658326565E+02 -0.14419605365E+03  0.20069583588E+03  0.81811221492E+02 0.  0.
         23    2    1    2    0    0  0.87744892355E+02 -0.36119316755E+02  0.92510996952E+02  0.16147561981E+03  0.92262235276E+02 0.  0.
         13    1    3    3    0    0 -0.56312764986E+02 -0.11211891025E+02 -0.66323188161E+02  0.87724564909E+02  0.00000000000E+00 0. -1.
        -14    1    3    3    0    0 -0.39153501872E+02  0.71870217590E+02 -0.77872865487E+02  0.11297127097E+03  0.00000000000E+00 0.  1.
        -11    1    4    4    0    0  0.19210203369E+02  0.10476081450E+02 -0.14408123275E+02  0.26198744480E+02  0.00000000000E+00 0.  1.
         11    1    4    4    0    0  0.68534688986E+02 -0.46595398205E+02  0.10691912023E+03  0.13527687533E+03  0.00000000000E+00 0. -1.
         21    1    1    2  502  501  0.77213745026E+01 -0.24539009810E+02 -0.29972913654E+02  0.39498837699E+02  0.00000000000E+00 0. -1.
<scales pt_clust_5="13000.00000" pt_clust_6="13000.00000" pt_clust_7="13000.00000" pt_clust_8="13000.00000" pt_clust_9="25.72514"></scales>
<clustering>
<clus scale="   25.725">  2  9  1 -1</clus>
<clus scale="   81.811">  5  6 -1 -1</clus>
<clus scale="   92.262">  7  8 -1 -1</clus>
<clus scale="  127.422">  2  5  1 -1</clus>
<clus scale="  134.371">  1  5  2 -1</clus>
</clustering>
</event>
<event>
 9    1  0.3846604E-005  0.3409530E+03  0.7546771E-02  0.1066483E+00
         -2   -1    0    0    0  501 -0.00000000000E+00  0.00000000000E+00  0.12114923266E+03  0.12114923266E+03  0.00000000000E+00 0.  1.
          1   -1    0    0  502    0  0.00000000000E+00 -0.00000000000E+00 -0.17722562978E+04  0.17722562978E+04  0.00000000000E+00 0. -1.
        -24    2    1    2    0    0 -0.24103574425E+03  0.27045108596E+03 -0.57153342011E+03  0.68234388486E+03  0.87753672283E+02 0.  0.
         23    2    1    2    0    0  0.14915239816E+03 -0.27915217563E+03 -0.10685032220E+04  0.11181056748E+04  0.91042789607E+02 0.  0.
         13    1    3    3    0    0 -0.92856792158E+02  0.16674729667E+03 -0.31872478172E+03  0.37150037857E+03  0.00000000000E+00 0. -1.
        -14    1    3    3    0    0 -0.14817895209E+03  0.10370378929E+03 -0.25280863839E+03  0.31084350629E+03  0.00000000000E+00 0.  1.
        -11    1    4    4    0    0  0.97469398668E+02 -0.25107573651E+03 -0.91098093825E+03  0.94996083025E+03  0.00000000000E+00 0. -1.
         11    1    4    4    0    0  0.51682999491E+02 -0.28076439117E+02 -0.15752228373E+03  0.16814484453E+03  0.00000000000E+00 0.  1.
         21    1    1    2  502  501  0.91883346093E+02  0.87010896672E+01 -0.11070423079E+02  0.92955970856E+02  0.00000000000E+00 0. -1.
<scales pt_clust_5="13000.00000" pt_clust_6="13000.00000" pt_clust_7="13000.00000" pt_clust_8="13000.00000" pt_clust_9="92.29441"></scales>
<clustering>
<clus scale="   87.754">  5  6 -1 -1</clus>
<clus scale="   91.043">  7  8 -1 -1</clus>
<clus scale="   92.294">  1  9  2 -1</clus>
<clus scale="  340.089">  1  5  2 -1</clus>
<clus scale="  340.953">  2  5  1 -1</clus>
</clustering>
</event>
<event>
 9    1  0.3846604E-005  0.1331046E+03  0.7546771E-02  0.1225363E+00
         -2   -1    0    0    0  501 -0.00000000000E+00  0.00000000000E+00  0.13220230275E+03  0.13220230275E+03  0.00000000000E+00 0.  1.
          1   -1    0    0  502    0  0.00000000000E+00 -0.00000000000E+00 -0.58965531225E+03  0.58965531225E+03  0.00000000000E+00 0. -1.
        -24    2    1    2    0    0 -0.61766047160E+02  0.49073665752E+02  0.43877114418E+02  0.12113782290E+03  0.80783053386E+02 0.  0.
         23    2    1    2    0    0  0.85379370867E+02 -0.50612869531E+02 -0.53938688186E+03  0.55590601040E+03  0.90785376303E+02 0.  0.
         13    1    3    3    0    0 -0.29521905523E+02  0.27184486099E+02 -0.21121977543E+02  0.45350602262E+02  0.00000000000E+00 0. -1.
        -14    1    3    3    0    0 -0.32244141637E+02  0.21889179653E+02  0.64999091961E+02  0.75787220635E+02  0.00000000000E+00 0.  1.
        -11    1    4    4    0    0 -0.18844938310E+02 -0.87288143591E+01 -0.58572397674E+02  0.62145391376E+02  0.00000000000E+00 0.  1.
         11    1    4    4    0    0  0.10422430918E+03 -0.41884055172E+02 -0.48081448419E+03  0.49376061903E+03  0.00000000000E+00 0. -1.
         21    1    1    2  502  501 -0.23613323707E+02  0.15392037789E+01  0.38056757944E+02  0.44813781697E+02  0.00000000000E+00 0.  1.
<scales pt_clust_5="13000.00000" pt_clust_6="13000.00000" pt_clust_7="13000.00000" pt_clust_8="13000.00000" pt_clust_9="23.66344"></scales>
<clustering>
<clus scale="   23.663">  1  9  2 -1</clus>
<clus scale="   80.783">  5  6 -1 -1</clus>
<clus scale="   90.785">  7  8 -1 -1</clus>
<clus scale="  126.494">  1  5  2 -1</clus>
<clus scale="  133.105">  2  5  1 -1</clus>
</clustering>
</event>
<event>
 9    1  0.3846604E-005  0.1612068E+03  0.7546771E-02  0.1188884E+00
          3   -1    0    0  502    0  0.00000000000E+00  0.00000000000E+00  0.73318643755E+03  0.73318643755E+03  0.00000000000E+00 0. -1.
         -4   -1    0    0    0  501 -0.00000000000E+00 -0.00000000000E+00 -0.66260135525E+02  0.66260135525E+02  0.00000000000E+00 0.  1.
        -24    2    1    2    0    0  0.14217455338E+03 -0.10286914303E+03  0.21051641660E+03  0.28566941208E+03  0.80586519476E+02 0.  0.
         23    2    1    2    0    0 -0.10068257717E+03  0.63292443052E+02  0.42008287796E+03  0.44589821918E+03  0.90623853496E+02 0.  0.
         11    1    3    3    0    0  0.82177827603E+02 -0.10163695176E+03  0.16417688584E+03  0.20985069730E+03  0.00000000000E+00 0. -1.
        -12    1    3    3    0    0  0.59996725779E+02 -0.12321912700E+01  0.46339530756E+02  0.75818714775E+02  0.00000000000E+00 0.  1.
        -13    1    4    4    0    0 -0.96378095440E+02  0.34115341654E+02  0.39221726264E+03  0.40532329680E+03  0.00000000000E+00 0. -1.
         13    1    4    4    0    0 -0.43044817264E+01  0.29177101398E+02  0.27865615313E+02  0.40574922375E+02  0.00000000000E+00 0.  1.
         21    1    1    2  502  501 -0.41491976216E+02  0.39576699975E+02  0.36327007473E+02  0.67878941824E+02  0.00000000000E+00 0. -1.
<scales pt_clust_5="13000.00000" pt_clust_6="13000.00000" pt_clust_7="13000.00000" pt_clust_8="13000.00000" pt_clust_9="57.34021"></scales>
<clustering>
<clus scale="   57.340">  2  9  1 -1</clus>
<clus scale="   80.587">  5  6 -1 -1</clus>
<clus scale="   90.624">  7  8 -1 -1</clus>
<clus scale="  155.786">  2  5  1 -1</clus>
<clus scale="  161.207">  1  5  2 -1</clus>
</clustering>
</event>
<event>
 9    1  0.3846604E-005  0.1058390E+03  0.7546771E-02  0.1275337E+00
         -2   -1    0    0    0  501 -0.00000000000E+00  0.00000000000E+00  0.70308054414E+02  0.70308054414E+02  0.00000000000E+00 0.  1.
          1   -1    0    0  502    0  0.00000000000E+00 -0.00000000000E+00 -0.58849659232E+03  0.58849659232E+03  0.00000000000E+00 0. -1.
        -24    2    1    2    0    0  0.42698147251E+02 -0.63975929004E+01 -0.16022999155E+02  0.93810181519E+02  0.81728530399E+02 0.  0.
         23    2    1    2    0    0 -0.12341547024E+02  0.45676412086E+02 -0.50401395451E+03  0.51531785648E+03  0.96352366148E+02 0.  0.
         11    1    3    3    0    0 -0.18185847289E+02  0.17839183321E+02  0.28038723862E+01  0.25628562260E+02  0.00000000000E+00 0. -1.
        -12    1    3    3    0    0  0.60883994540E+02 -0.24236776221E+02 -0.18826871541E+02  0.68181619259E+02  0.00000000000E+00 0.  1.
        -11    1    4    4    0    0  0.19444028798E+02 -0.21976054284E+02 -0.91607455992E+02  0.96192220118E+02  0.00000000000E+00 0.  1.
         11    1    4    4    0    0 -0.31785575823E+02  0.67652466371E+02 -0.41240649852E+03  0.41912563637E+03  0.00000000000E+00 0. -1.
         21    1    1    2  502  501 -0.30356600227E+02 -0.39278819186E+02  0.18484157636E+01  0.49676608729E+02  0.00000000000E+00 0.  1.
<scales pt_clust_5="13000.00000" pt_clust_6="13000.00000" pt_clust_7="13000.00000" pt_clust_8="13000.00000" pt_clust_9="49.64221"></scales>
<clustering>
<clus scale="   49.642">  1  9  2 -1</clus>
<clus scale="   81.729">  5  6 -1 -1</clus>
<clus scale="   92.724">  1  5  2 -1</clus>
<clus scale="   96.352">  7  8 -1 -1</clus>
<clus scale="  105.839">  2  5  1 -1</clus>
</clustering>
</event>
<event>
 9    1  0.3846604E-005  0.1197911E+03  0.7546771E-02  0.1245300E+00
          1   -1    0    0  502    0  0.00000000000E+00  0.00000000000E+00  0.38558687891E+03  0.38558687891E+03  0.00000000000E+00 0. -1.
         -2   -1    0    0    0  501 -0.00000000000E+00 -0.00000000000E+00 -0.49850482770E+02  0.49850482770E+02  0.00000000000E+00 0.  1.
        -24    2    1    2    0    0 -0.87027471179E+02  0.42157232250E+02  0.14073041491E+03  0.18851253045E+03  0.79880607683E+02 0.  0.
         23    2    1    2    0    0  0.65222482227E+02 -0.36153838214E+02  0.19313653538E+03  0.22423137158E+03  0.86121510077E+02 0.  0.
         11    1    3    3    0    0 -0.52157759485E+02  0.60712194595E+02  0.11904895980E+03  0.14345402496E+03  0.00000000000E+00 0. -1.
        -12    1    3    3    0    0 -0.34869711694E+02 -0.18554962345E+02  0.21681455112E+02  0.45058505490E+02  0.00000000000E+00 0.  1.
        -13    1    4    4    0    0  0.50148826194E+02  0.15399548188E+02  0.13622028285E+03  0.14597265604E+03  0.00000000000E+00 0. -1.
         13    1    4    4    0    0  0.15073656033E+02 -0.51553386402E+02  0.56916252531E+02  0.78258715540E+02  0.00000000000E+00 0.  1.
         21    1    1    2  502  501  0.21804988952E+02 -0.60033940361E+01  0.18694458518E+01  0.22693459652E+02  0.00000000000E+00 0.  1.
<scales pt_clust_5="13000.00000" pt_clust_6="13000.00000" pt_clust_7="13000.00000" pt_clust_8="13000.00000" pt_clust_9="22.61633"></scales>
<clustering>
<clus scale="   22.616">  2  9  1 -1</clus>
<clus scale="   79.881">  5  6 -1 -1</clus>
<clus scale="   86.122">  7  8 -1 -1</clus>
<clus scale="  115.386">  2  5  1 -1</clus>
<clus scale="  119.791">  1  5  2 -1</clus>
</clustering>
</event>
<event>
 9    1  0.3846604E-005  0.1019232E+03  0.7546771E-02  0.1280844E+00
          3   -1    0    0  502    0  0.00000000000E+00  0.00000000000E+00  0.62284255069E+03  0.62284255069E+03  0.00000000000E+00 0. -1.
         -4   -1    0    0    0  501 -0.00000000000E+00 -0.00000000000E+00 -0.12534748920E+03  0.12534748920E+03  0.00000000000E+00 0.  1.
        -24    2    1    2    0    0 -0.65516688312E+02  0.43723957840E+01 -0.80032996496E+02  0.13147896781E+03  0.81054821925E+02 0.  0.
         23    2    1    2    0    0  0.41147899178E+02  0.20781443774E+02  0.57233708308E+03  0.58130627369E+03  0.90676508262E+02 0.  0.
         13    1    3    3    0    0 -0.32389027764E+02 -0.36074651860E+02 -0.55603219460E+02  0.73770913242E+02  0.00000000000E+00 0. -1.
        -14    1    3    3    0    0 -0.33127660548E+02  0.40447047644E+02 -0.24429777036E+02  0.57708054572E+02  0.00000000000E+00 0.  1.
        -11    1    4    4    0    0  0.69975411692E+02  0.93479239292E+01  0.38483225276E+03  0.39125414335E+03  0.00000000000E+00 0. -1.
         11    1    4    4    0    0 -0.28827512514E+02  0.11433519845E+02  0.18750483032E+03  0.19005213034E+03  0.00000000000E+00 0.  1.
         21    1    1    2  502  501  0.24368789134E+02 -0.25153839558E+02  0.51909749017E+01  0.35404798386E+02  0.00000000000E+00 0. -1.
<scales pt_clust_5="13000.00000" pt_clust_6="13000.00000" pt_clust_7="13000.00000" pt_clust_8="13000.00000" pt_clust_9="35.02219"></scales>
<clustering>
<clus scale="   35.022">  2  9  1 -1</clus>
<clus scale="   81.055">  5  6 -1 -1</clus>
<clus scale="   90.677">  7  8 -1 -1</clus>
<clus scale="   93.466">  2  5  1 -1</clus>
<clus scale="  101.923">  1  5  2 -1</clus>
</clustering>
</event>
<event>
 9    1  0.3846604E-005  0.9125673E+02  0.7546771E-02  0.1304838E+00
         -2   -1    0    0    0  501 -0.00000000000E+00  0.00000000000E+00  0.14033750657E+03  0.14033750657E+03  0.00000000000E+00 0.  1.
          1   -1    0    0  502    0  0.00000000000E+00 -0.00000000000E+00 -0.19541573927E+03  0.19541573927E+03  0.00000000000E+00 0. -1.
        -24    2    1    2    0    0  0.16044419901E+02 -0.18639622061E+02  0.14834422452E+02  0.86667647621E+02  0.81770178758E+02 0.  0.
         23    2    1    2    0    0  0.11279729105E+02  0.13502802015E+02 -0.14359463218E+03  0.17033263142E+03  0.89912340553E+02 0.  0.
         13    1    3    3    0    0  0.42380704494E+02 -0.34275538864E+02  0.62770941909E+01  0.54866552555E+02  0.00000000000E+00 0. -1.
        -14    1    3    3    0    0 -0.26336284593E+02  0.15635916803E+02  0.85573282610E+01  0.31801095066E+02  0.00000000000E+00 0.  1.
        -13    1    4    4    0    0 -0.67946398989E+00  0.40093831800E+02 -0.22924295810E+02  0.46189829596E+02  0.00000000000E+00 0.  1.
         13    1    4    4    0    0  0.11959193095E+02 -0.26591029785E+02 -0.12067033637E+03  0.12414280182E+03  0.00000000000E+00 0. -1.
         21    1    1    2  502  501 -0.27324149006E+02  0.51368200462E+01  0.73681977039E+02  0.78752966798E+02  0.00000000000E+00 0.  1.
<scales pt_clust_5="13000.00000" pt_clust_6="13000.00000" pt_clust_7="13000.00000" pt_clust_8="13000.00000" pt_clust_9="27.80281"></scales>
<clustering>
<clus scale="   27.803">  1  9  2 -1</clus>
<clus scale="   81.770">  5  6 -1 -1</clus>
<clus scale="   83.246">  1  5  2 -1</clus>
<clus scale="   89.912">  7  8 -1 -1</clus>
<clus scale="   91.257">  2  5  1 -1</clus>
</clustering>
</event>
<event>
 9    1  0.4226483E-005  0.1108502E+03  0.7546771E-02  0.1262452E+00
         -2   -1    0    0    0  501 -0.00000000000E+00  0.00000000000E+00  0.33313015672E+03  0.33313015672E+03  0.00000000000E+00 0.  1.
          1   -1    0    0  502    0  0.00000000000E+00 -0.00000000000E+00 -0.15937144196E+03  0.15937144196E+03  0.00000000000E+00 0. -1.
         23    2    1    2    0    0  0.53569848592E+02 -0.12490653989E+02  0.26622152628E+03  0.28636727091E+03  0.90036479732E+02 0.  0.
        -24    2    1    2    0    0 -0.51411181427E+02  0.40849105327E+02 -0.12511161636E+03  0.16283529702E+03  0.80936137945E+02 0.  0.
         13    1    4    4    0    0 -0.55437774914E+02  0.58962843543E+02 -0.11773089958E+03  0.14286542102E+03  0.00000000000E+00 0. -1.
        -14    1    4    4    0    0  0.40265934865E+01 -0.18113738217E+02 -0.73807167727E+01  0.19969875998E+02  0.00000000000E+00 0.  1.
        -11    1    3    3    0    0  0.28077447289E+02 -0.42935610427E+02  0.21772956343E+03  0.22369169068E+03  0.00000000000E+00 0.  1.
         11    1    3    3    0    0  0.25492401303E+02  0.30444956438E+02  0.48491962848E+02  0.62675580233E+02  0.00000000000E+00 0. -1.
         21    1    1    2  502  501 -0.21586671645E+01 -0.28358451338E+02  0.32648804841E+02  0.43299030748E+02  0.00000000000E+00 0.  1.
<scales pt_clust_5="13000.00000" pt_clust_6="13000.00000" pt_clust_7="13000.00000" pt_clust_8="13000.00000" pt_clust_9="28.44049"></scales>
<clustering>
<clus scale="   28.440">  1  9  2 -1</clus>
<clus scale="   80.936">  5  6 -1 -1</clus>
<clus scale="   90.036">  7  8 -1 -1</clus>
<clus scale="  103.595">  2  5  1 -1</clus>
<clus scale="  103.595">  2  5  1 -1</clus>
</clustering>
</event>
<event>
 9    1  0.3846604E-005  0.1120016E+03  0.7546771E-02  0.1260562E+00
          3   -1    0    0  502    0  0.00000000000E+00  0.00000000000E+00  0.75223087909E+02  0.75223087909E+02  0.00000000000E+00 0. -1.
         -4   -1    0    0    0  501 -0.00000000000E+00 -0.00000000000E+00 -0.67475180657E+03  0.67475180657E+03  0.00000000000E+00 0.  1.
         23    2    1    2    0    0 -0.30957840523E+02  0.25412325045E+02 -0.54979431293E+03  0.55867706174E+03  0.90786004622E+02 0.  0.
        -24    2    1    2    0    0  0.58524793132E+02 -0.33648794402E+02  0.27425838209E+02  0.10894809352E+03  0.80994553550E+02 0.  0.
         11    1    4    4    0    0  0.32075723141E+02 -0.54628189215E+02 -0.31130966452E+01  0.63425408494E+02  0.00000000000E+00 0. -1.
        -12    1    4    4    0    0  0.26449069991E+02  0.20979394813E+02  0.30538934854E+02  0.45522685028E+02  0.00000000000E+00 0.  1.
        -11    1    3    3    0    0 -0.61673836944E+02  0.47811258128E+01 -0.36677085279E+03  0.37195077602E+03  0.00000000000E+00 0.  1.
         11    1    3    3    0    0  0.30715996421E+02  0.20631199232E+02 -0.18302346014E+03  0.18672628572E+03  0.00000000000E+00 0. -1.
         21    1    1    2  502  501 -0.27566952609E+02  0.82364693572E+01 -0.77160243943E+02  0.82349739216E+02  0.00000000000E+00 0.  1.
<scales pt_clust_5="13000.00000" pt_clust_6="13000.00000" pt_clust_7="13000.00000" pt_clust_8="13000.00000" pt_clust_9="28.77110"></scales>
<clustering>
<clus scale="   28.771">  2  9  1 -1</clus>
<clus scale="   80.995">  5  6 -1 -1</clus>
<clus scale="   90.786">  7  8 -1 -1</clus>
<clus scale="  104.223">  1  5  2 -1</clus>
<clus scale="  104.223">  1  5  2 -1</clus>
</clustering>
</event>
<event>
 9    1  0.3846604E-005  0.1332920E+03  0.7546771E-02  0.1225202E+00
          1   -1    0    0  502    0  0.00000000000E+00  0.00000000000E+00  0.25960844917E+03  0.25960844917E+03  0.00000000000E+00 0. -1.
         -2   -1    0    0    0  501 -0.00000000000E+00 -0.00000000000E+00 -0.14590368146E+03  0.14590368146E+03  0.00000000000E+00 0.  1.
         23    2    1    2    0    0  0.67526933570E+02 -0.36042269882E+02 -0.81170899174E+02  0.14478735246E+03  0.92280716212E+02 0.  0.
        -24    2    1    2    0    0 -0.84861137303E+02  0.51988825312E+02  0.19869084033E+03  0.23686429205E+03  0.81990195954E+02 0.  0.
         13    1    4    4    0    0 -0.52368681098E+02  0.84519744286E+01  0.16410126529E+03  0.17246199553E+03  0.00000000000E+00 0. -1.
        -14    1    4    4    0    0 -0.32492456205E+02  0.43536850883E+02  0.34589575041E+02  0.64402296516E+02  0.00000000000E+00 0.  1.
        -11    1    3    3    0    0  0.59310775651E+02  0.29956539944E+01 -0.60026256962E+01  0.59688973575E+02  0.00000000000E+00 0. -1.
         11    1    3    3    0    0  0.82161579185E+01 -0.39037923877E+02 -0.75168273478E+02  0.85098378887E+02  0.00000000000E+00 0.  1.
         21    1    1    2  502  501  0.17334203733E+02 -0.15946555430E+02 -0.38151734516E+01  0.23860486114E+02  0.00000000000E+00 0. -1.
<scales pt_clust_5="13000.00000" pt_clust_6="13000.00000" pt_clust_7="13000.00000" pt_clust_8="13000.00000" pt_clust_9="23.55350"></scales>
<clustering>
<clus scale="   23.553">  2  9  1 -1</clus>
<clus scale="   81.990">  5  6 -1 -1</clus>
<clus scale="   92.281">  7  8 -1 -1</clus>
<clus scale="  126.386">  1  5  2 -1</clus>
<clus scale="  126.386">  1  5  2 -1</clus>
</clustering>
</event>
<event>
 9    1  0.3846604E-005  0.9537369E+02  0.7546771E-02  0.1299651E+00
          1   -1    0    0  502    0  0.00000000000E+00  0.00000000000E+00  0.12508740700E+03  0.12508740700E+03  0.00000000000E+00 0. -1.
         -2   -1    0    0    0  501 -0.00000000000E+00 -0.00000000000E+00 -0.98151183522E+02  0.98151183522E+02  0.00000000000E+00 0.  1.
         23    2    1    2    0    0  0.66150430126E+01  0.13149979527E+02 -0.17987754263E+02  0.97957931039E+02  0.95160476009E+02 0.  0.
        -24    2    1    2    0    0 -0.59589625125E+01  0.69515448025E+01  0.59796149936E+02  0.10026699866E+03  0.79962855529E+02 0.  0.
         11    1    4    4    0    0  0.12508662286E+02 -0.15646701537E+02  0.67229711572E+02  0.70150695073E+02  0.00000000000E+00 0. -1.
        -12    1    4    4    0    0 -0.18467624798E+02  0.22598246340E+02 -0.74335616359E+01  0.30116303590E+02  0.00000000000E+00 0.  1.
        -13    1    3    3    0    0 -0.17118308082E+01  0.39315423170E+02 -0.44765894127E+02  0.59603843339E+02  0.00000000000E+00 0.  1.
         13    1    3    3    0    0  0.83268738208E+01 -0.26165443644E+02  0.26778139864E+02  0.38354087700E+02  0.00000000000E+00 0. -1.
         21    1    1    2  502  501 -0.65608050012E+00 -0.20101524329E+02 -0.14872172193E+02  0.25013660822E+02  0.00000000000E+00 0.  1.
<scales pt_clust_5="13000.00000" pt_clust_6="13000.00000" pt_clust_7="13000.00000" pt_clust_8="13000.00000" pt_clust_9="20.11223"></scales>
<clustering>
<clus scale="   20.112">  2  9  1 -1</clus>
<clus scale="   79.963">  5  6 -1 -1</clus>
<clus scale="   80.216">  1  5  2 -1</clus>
<clus scale="   95.160">  7  8 -1 -1</clus>
<clus scale="   80.216">  1  5  2 -1</clus>
</clustering>
</event>
<event>
 9    1  0.7226903E-005  0.1895924E+03  0.7546771E-02  0.1160631E+00
         -2   -1    0    0    0  501 -0.00000000000E+00  0.00000000000E+00  0.10898997881E+04  0.10898997881E+04  0.00000000000E+00 0.  1.
          1   -1    0    0  502    0  0.00000000000E+00 -0.00000000000E+00 -0.19926976119E+03  0.19926976119E+03  0.00000000000E+00 0. -1.
        -24    2    1    2    0    0  0.15991493418E+03 -0.46253504708E+02  0.10198758951E+04  0.10360872102E+04  0.74951269718E+02 0.  0.
         23    2    1    2    0    0 -0.14036290497E+03  0.41698022813E+02 -0.14639687312E+03  0.22667796009E+03  0.92251736746E+02 0.  0.
         11    1    3    3    0    0  0.19893310367E+02  0.16661586671E+02  0.91608247916E+02  0.95212516793E+02  0.00000000000E+00 0. -1.
        -12    1    3    3    0    0  0.14002162381E+03 -0.62915091379E+02  0.92826764715E+03  0.94087469336E+03  0.00000000000E+00 0.  1.
        -13    1    4    4    0    0 -0.20420316410E+02 -0.27699861392E+02 -0.31872954461E+02  0.46905829802E+02  0.00000000000E+00 0.  1.
         13    1    4    4    0    0 -0.11994258856E+03  0.69397884204E+02 -0.11452391866E+03  0.17977213028E+03  0.00000000000E+00 0. -1.
         21    1    1    2  502  501 -0.19552029207E+02  0.45554818949E+01  0.17151004924E+02  0.26404379018E+02  0.00000000000E+00 0. -1.
<scales pt_clust_5="13000.00000" pt_clust_6="13000.00000" pt_clust_7="13000.00000" pt_clust_8="13000.00000" pt_clust_9="20.07571"></scales>
<clustering>
<clus scale="   20.076">  2  9  1 -1</clus>
<clus scale="   74.951">  5  6 -1 -1</clus>
<clus scale="   92.252">  7  8 -1 -1</clus>
<clus scale="  181.804">  1  5  2 -1</clus>
<clus scale="   20.076">  2  5  1 -1</clus>
</clustering>
</event>
<event>
 9    1  0.3846604E-005  0.1076401E+03  0.7546771E-02  0.1269334E+00
         -2   -1    0    0    0  501 -0.00000000000E+00  0.00000000000E+00  0.10396599379E+03  0.10396599379E+03  0.00000000000E+00 0.  1.
          1   -1    0    0  502    0  0.00000000000E+00 -0.00000000000E+00 -0.41638162551E+03  0.41638162551E+03  0.00000000000E+00 0. -1.
        -24    2    1    2    0    0  0.76246927444E+02  0.13501760533E+02  0.45782521531E+02  0.11927530994E+03  0.78324126556E+02 0.  0.
         23    2    1    2    0    0 -0.58963133716E+02  0.34346349723E+01 -0.36121376730E+03  0.37668655641E+03  0.89044529534E+02 0.  0.
         11    1    3    3    0    0  0.52594727797E+02  0.24986304445E+02 -0.86098784598E+01  0.58861284466E+02  0.00000000000E+00 0. -1.
        -12    1    3    3    0    0  0.23652199647E+02 -0.11484543911E+02  0.54392399991E+02  0.60414025472E+02  0.00000000000E+00 0.  1.
        -11    1    4    4    0    0 -0.24698352223E+02 -0.38990761214E+02 -0.10441605584E+03  0.11416216877E+03  0.00000000000E+00 0.  1.
         11    1    4    4    0    0 -0.34264781493E+02  0.42425396187E+02 -0.25679771146E+03  0.26252438764E+03  0.00000000000E+00 0. -1.
         21    1    1    2  502  501 -0.17283793729E+02 -0.16936395506E+02  0.30156140490E+01  0.24385752940E+02  0.00000000000E+00 0.  1.
<scales pt_clust_5="13000.00000" pt_clust_6="13000.00000" pt_clust_7="13000.00000" pt_clust_8="13000.00000" pt_clust_9="24.19857"></scales>
<clustering>
<clus scale="   24.199">  1  9  2 -1</clus>
<clus scale="   78.324">  5  6 -1 -1</clus>
<clus scale="   89.045">  7  8 -1 -1</clus>
<clus scale="   98.955">  1  5  2 -1</clus>
<clus scale="  107.640">  2  5  1 -1</clus>
</clustering>
</event>
<event>
 9    1  0.3846604E-005  0.1081681E+03  0.7546771E-02  0.1268729E+00
          1   -1    0    0  502    0  0.00000000000E+00  0.00000000000E+00  0.28443208849E+03  0.28443208849E+03  0.00000000000E+00 0. -1.
         -2   -1    0    0    0  501 -0.00000000000E+00 -0.00000000000E+00 -0.73679151718E+02  0.73679151718E+02  0.00000000000E+00 0.  1.
        -24    2    1    2    0    0  0.13836745172E+02  0.33580872699E+02 -0.39250587591E+01  0.86686338732E+02  0.78612878769E+02 0.  0.
         23    2    1    2    0    0 -0.51228629797E+02 -0.45244364816E+02  0.19956322103E+03  0.22944101775E+03  0.90256724860E+02 0.  0.
         11    1    3    3    0    0 -0.17256008214E+02 -0.12541120246E+02  0.16979127409E+02  0.27264267532E+02  0.00000000000E+00 0. -1.
        -12    1    3    3    0    0  0.31092753386E+02  0.46121992945E+02 -0.20904186168E+02  0.59422071200E+02  0.00000000000E+00 0.  1.
        -13    1    4    4    0    0 -0.67605289665E+02 -0.37481594994E+01  0.13407411809E+03  0.15020117521E+03  0.00000000000E+00 0.  1.
         13    1    4    4    0    0  0.16376659868E+02 -0.41496205316E+02  0.65489102932E+02  0.79239842547E+02  0.00000000000E+00 0. -1.
         21    1    1    2  502  501  0.37391884624E+02  0.11663492116E+02  0.15114774503E+02  0.41983883722E+02  0.00000000000E+00 0.  1.
<scales pt_clust_5="13000.00000" pt_clust_6="13000.00000" pt_clust_7="13000.00000" pt_clust_8="13000.00000" pt_clust_9="39.16874"></scales>
<clustering>
<clus scale="   39.169">  2  9  1 -1</clus>
<clus scale="   78.613">  5  6 -1 -1</clus>
<clus scale="   90.257">  7  8 -1 -1</clus>
<clus scale="   98.661">  2  5  1 -1</clus>
<clus scale="  108.168">  1  5  2 -1</clus>
</clustering>
</event>
<event>
 9    1  0.3846604E-005  0.1328832E+03  0.7546771E-02  0.1225548E+00
         -4   -1    0    0    0  501 -0.00000000000E+00  0.00000000000E+00  0.69690948242E+03  0.69690948242E+03  0.00000000000E+00 0.  1.
          3   -1    0    0  502    0  0.00000000000E+00 -0.00000000000E+00 -0.32606010830E+02  0.32606010830E+02  0.00000000000E+00 0. -1.
         23    2    1    2    0    0  0.10171409018E+03  0.19820596963E+02  0.32899965909E+03  0.35630709740E+03  0.89304869810E+02 0.  0.
        -24    2    1    2    0    0 -0.87887097580E+02 -0.38767874547E+02  0.19906799914E+03  0.23496809096E+03  0.79717284654E+02 0.  0.
         11    1    4    4    0    0 -0.68633477732E+02 -0.63480118296E+02  0.14774935362E+03  0.17484321885E+03  0.00000000000E+00 0. -1.
        -12    1    4    4    0    0 -0.19253619847E+02  0.24712243749E+02  0.51318645523E+02  0.60124872113E+02  0.00000000000E+00 0.  1.
        -11    1    3    3    0    0  0.59393186379E+02  0.42907829881E+02  0.11073118448E+03  0.13277811442E+03  0.00000000000E+00 0. -1.
         11    1    3    3    0    0  0.42320903800E+02 -0.23087232918E+02  0.21826847462E+03  0.22352898298E+03  0.00000000000E+00 0.  1.
         21    1    1    2  502  501 -0.13826992600E+02  0.18947277584E+02  0.13623581336E+03  0.13824030488E+03  0.00000000000E+00 0.  1.
<scales pt_clust_5="13000.00000" pt_clust_6="13000.00000" pt_clust_7="13000.00000" pt_clust_8="13000.00000" pt_clust_9="23.45602"></scales>
<clustering>
<clus scale="   23.456">  1  9  2 -1</clus>
<clus scale="   79.717">  5  6 -1 -1</clus>
<clus scale="   89.305">  7  8 -1 -1</clus>
<clus scale="  126.639">  2  5  1 -1</clus>
<clus scale="  126.639">  2  5  1 -1</clus>
</clustering>
</event>
<event>
 9    1  0.3846604E-005  0.9557377E+02  0.7546771E-02  0.1292168E+00
          1   -1    0    0  502    0  0.00000000000E+00  0.00000000000E+00  0.58108320431E+03  0.58108320431E+03  0.00000000000E+00 0. -1.
         -2   -1    0    0    0  501 -0.00000000000E+00 -0.00000000000E+00 -0.63438410417E+02  0.63438410417E+02  0.00000000000E+00 0.  1.
        -24    2    1    2    0    0 -0.57108488258E+01  0.11861602639E+02  0.10325779407E+03  0.13501826510E+03  0.85990978957E+02 0.  0.
         23    2    1    2    0    0  0.23162407903E+02 -0.29669102917E+02  0.45306111958E+03  0.46348866153E+03  0.90225320661E+02 0.  0.
         11    1    3    3    0    0  0.34819388515E+02 -0.15250996552E+02  0.49997407903E+02  0.62807033917E+02  0.00000000000E+00 0. -1.
        -12    1    3    3    0    0 -0.40530237341E+02  0.27112599191E+02  0.53260386171E+02  0.72211231182E+02  0.00000000000E+00 0.  1.
        -11    1    4    4    0    0 -0.27200903413E-01  0.31910686025E+02  0.14111438137E+03  0.14467743864E+03  0.00000000000E+00 0.  1.
         11    1    4    4    0    0  0.23189608807E+02 -0.61579788942E+02  0.31194673821E+03  0.31881122289E+03  0.00000000000E+00 0. -1.
         21    1    1    2  502  501 -0.17451559078E+02  0.17807500278E+02 -0.38674119764E+02  0.46014688089E+02  0.00000000000E+00 0.  1.
<scales pt_clust_5="13000.00000" pt_clust_6="13000.00000" pt_clust_7="13000.00000" pt_clust_8="13000.00000" pt_clust_9="24.93319"></scales>
<clustering>
<clus scale="   24.933">  2  9  1 -1</clus>
<clus scale="   85.991">  5  6 -1 -1</clus>
<clus scale="   90.225">  7  8 -1 -1</clus>
<clus scale="   91.587">  2  5  1 -1</clus>
<clus scale="   95.574">  1  5  2 -1</clus>
</clustering>
</event>
<event>
 9    1  0.3846604E-005  0.1044510E+03  0.7546771E-02  0.1274974E+00
          1   -1    0    0  502    0  0.00000000000E+00  0.00000000000E+00  0.57340682469E+03  0.57340682469E+03  0.00000000000E+00 0. -1.
         -2   -1    0    0    0  501 -0.00000000000E+00 -0.00000000000E+00 -0.37198436041E+02  0.37198436041E+02  0.00000000000E+00 0.  1.
        -24    2    1    2    0    0  0.13279931110E+02 -0.10877434150E+02  0.97170387908E+02  0.12735541606E+03  0.80514859317E+02 0.  0.
         23    2    1    2    0    0 -0.81523175728E+02 -0.19515699564E-01  0.35168497024E+03  0.37186566316E+03  0.89194868598E+02 0.  0.
         11    1    3    3    0    0 -0.12786857879E+02  0.19201877405E+02  0.81292807332E+02  0.84502877787E+02  0.00000000000E+00 0. -1.
        -12    1    3    3    0    0  0.26066788989E+02 -0.30079311556E+02  0.15877580576E+02  0.42852538278E+02  0.00000000000E+00 0.  1.
        -13    1    4    4    0    0 -0.58970880152E+02 -0.30979703919E+02  0.12192934799E+03  0.13893909695E+03  0.00000000000E+00 0.  1.
         13    1    4    4    0    0 -0.22552295576E+02  0.30960188219E+02  0.22975562225E+03  0.23292656621E+03  0.00000000000E+00 0. -1.
         21    1    1    2  502  501  0.68243244618E+02  0.10896949850E+02  0.87353030506E+02  0.11138418151E+03  0.00000000000E+00 0.  1.
<scales pt_clust_5="13000.00000" pt_clust_6="13000.00000" pt_clust_7="13000.00000" pt_clust_8="13000.00000" pt_clust_9="69.10777"></scales>
<clustering>
<clus scale="   69.108">  2  9  1 -1</clus>
<clus scale="   80.515">  5  6 -1 -1</clus>
<clus scale="   89.195">  7  8 -1 -1</clus>
<clus scale="   97.144">  2  5  1 -1</clus>
<clus scale="  104.451">  1  5  2 -1</clus>
</clustering>
</event>
<event>
 9    1  0.3846604E-005  0.1078189E+03  0.7546771E-02  0.1267201E+00
          1   -1    0    0  502    0  0.00000000000E+00  0.00000000000E+00  0.11579080370E+03  0.11579080370E+03  0.00000000000E+00 0. -1.
         -2   -1    0    0    0  501 -0.00000000000E+00 -0.00000000000E+00 -0.15578478774E+03  0.15578478774E+03  0.00000000000E+00 0.  1.
        -24    2    1    2    0    0  0.34337750997E+02 -0.48546399781E+02 -0.67076979122E+02  0.12085343734E+03  0.81057992283E+02 0.  0.
         23    2    1    2    0    0 -0.52935860850E+02  0.37978698964E+02  0.49418986406E+02  0.11979542620E+03  0.87544965487E+02 0.  0.
         11    1    3    3    0    0 -0.10752710956E+02 -0.30112553536E+02 -0.64596878809E+02  0.72077343356E+02  0.00000000000E+00 0. -1.
        -12    1    3    3    0    0  0.45090461953E+02 -0.18433846245E+02 -0.24801003134E+01  0.48776093982E+02  0.00000000000E+00 0.  1.
        -11    1    4    4    0    0  0.41550528470E+01 -0.22010441370E+02  0.24760617168E+02  0.33388802853E+02  0.00000000000E+00 0.  1.
         11    1    4    4    0    0 -0.57090913697E+02  0.59989140334E+02  0.24658369238E+02  0.86406623347E+02  0.00000000000E+00 0. -1.
         21    1    1    2  502  501  0.18598109853E+02  0.10567700817E+02 -0.22335991321E+02  0.30926727906E+02  0.00000000000E+00 0. -1.
<scales pt_clust_5="13000.00000" pt_clust_6="13000.00000" pt_clust_7="13000.00000" pt_clust_8="13000.00000" pt_clust_9="21.39079"></scales>
<clustering>
<clus scale="   21.391">  2  9  1 -1</clus>
<clus scale="   81.058">  5  6 -1 -1</clus>
<clus scale="   87.545">  7  8 -1 -1</clus>
<clus scale="  102.622">  2  5  1 -1</clus>
<clus scale="  107.819">  1  5  2 -1</clus>
</clustering>
</event>
<event>
 9    1  0.3846604E-005  0.1378621E+03  0.7546771E-02  0.1217411E+00
         -2   -1    0    0    0  501 -0.00000000000E+00  0.00000000000E+00  0.15745030906E+03  0.15745030906E+03  0.00000000000E+00 0.  1.
          1   -1    0    0  502    0  0.00000000000E+00 -0.00000000000E+00 -0.71395421914E+03  0.71395421914E+03  0.00000000000E+00 0. -1.
         23    2    1    2    0    0  0.74526528466E+02 -0.82805370013E+02  0.52123005757E+02  0.14369144817E+03  0.74293282338E+02 0.  0.
        -24    2    1    2    0    0 -0.23915788285E+02  0.11063175320E+03 -0.64480335054E+03  0.65956259177E+03  0.80250245191E+02 0.  0.
         13    1    4    4    0    0 -0.41721361478E+02  0.52431688097E+02 -0.20766185852E+03  0.21820449446E+03  0.00000000000E+00 0. -1.
        -14    1    4    4    0    0  0.17805573192E+02  0.58200065101E+02 -0.43714149202E+03  0.44135809731E+03  0.00000000000E+00 0.  1.
        -11    1    3    3    0    0  0.73622385974E+02 -0.54896358238E+02  0.65428583395E+02  0.11275976849E+03  0.00000000000E+00 0.  1.
         11    1    3    3    0    0  0.90414249241E+00 -0.27909011775E+02 -0.13305577637E+02  0.30931679685E+02  0.00000000000E+00 0. -1.
         21    1    1    2  502  501 -0.50610740181E+02 -0.27826383184E+02  0.36176434695E+02  0.68150488259E+02  0.00000000000E+00 0. -1.
<scales pt_clust_5="13000.00000" pt_clust_6="13000.00000" pt_clust_7="13000.00000" pt_clust_8="13000.00000" pt_clust_9="57.75599"></scales>
<clustering>
<clus scale="   57.756">  1  9  2 -1</clus>
<clus scale="   74.293">  7  8 -1 -1</clus>
<clus scale="   80.250">  5  6 -1 -1</clus>
<clus scale="  134.482">  1  7  2 -1</clus>
<clus scale="  137.862">  2  5  1 -1</clus>
</clustering>
</event>
<event>
 9    1  0.3846604E-005  0.9993743E+02  0.7546771E-02  0.1286420E+00
          1   -1    0    0  502    0  0.00000000000E+00  0.00000000000E+00  0.14646270468E+02  0.14646270468E+02  0.00000000000E+00 0. -1.
         -2   -1    0    0    0  501 -0.00000000000E+00 -0.00000000000E+00 -0.94001546957E+03  0.94001546957E+03  0.00000000000E+00 0.  1.
        -24    2    1    2    0    0  0.50619983649E+02 -0.81507628939E+01 -0.55988998487E+03  0.56781819486E+03  0.79447401303E+02 0.  0.
         23    2    1    2    0    0 -0.17423156736E+02  0.82191809044E+01 -0.25844941104E+03  0.27478368275E+03  0.91317319880E+02 0.  0.
         13    1    3    3    0    0  0.45261953131E+02  0.30826323816E+02 -0.29809996168E+03  0.30308826073E+03  0.00000000000E+00 0. -1.
        -14    1    3    3    0    0  0.53580305172E+01 -0.38977086709E+02 -0.26179002319E+03  0.26472993413E+03  0.00000000000E+00 0.  1.
        -13    1    4    4    0    0  0.22216557425E+02  0.35085712357E+02 -0.81516492342E+02  0.91485087087E+02  0.00000000000E+00 0. -1.
         13    1    4    4    0    0 -0.39639714161E+02 -0.26866531453E+02 -0.17693291870E+03  0.18329859566E+03  0.00000000000E+00 0.  1.
         21    1    1    2  502  501 -0.33196826913E+02 -0.68418010496E-01 -0.10702980319E+03  0.11205986244E+03  0.00000000000E+00 0.  1.
<scales pt_clust_5="13000.00000" pt_clust_6="13000.00000" pt_clust_7="13000.00000" pt_clust_8="13000.00000" pt_clust_9="33.19690"></scales>
<clustering>
<clus scale="   33.197">  1  9  2 -1</clus>
<clus scale="   79.447">  5  6 -1 -1</clus>
<clus scale="   89.222">  2  5  1 -1</clus>
<clus scale="   91.317">  7  8 -1 -1</clus>
<clus scale="   33.197">  1  5  2 -1</clus>
</clustering>
</event>
<event>
 9    1  0.3846604E-005  0.9457400E+02  0.7546771E-02  0.1296654E+00
         -4   -1    0    0    0  501 -0.00000000000E+00  0.00000000000E+00  0.59139936146E+02  0.59139936146E+02  0.00000000000E+00 0.  1.
          3   -1    0    0  502    0  0.00000000000E+00 -0.00000000000E+00 -0.27639207910E+03  0.27639207910E+03  0.00000000000E+00 0. -1.
         23    2    1    2    0    0  0.52102224315E+02 -0.15926868978E+02 -0.30769917313E+02  0.10982151661E+03  0.90253369832E+02 0.  0.
        -24    2    1    2    0    0 -0.21127985422E+02  0.41347194245E+01 -0.16667270825E+03  0.18709864494E+03  0.82235172472E+02 0.  0.
         13    1    4    4    0    0 -0.52295947750E+02  0.99897750735E+01 -0.10758930914E+03  0.12004216425E+03  0.00000000000E+00 0. -1.
        -14    1    4    4    0    0  0.31167962328E+02 -0.58550556490E+01 -0.59083399105E+02  0.67056480687E+02  0.00000000000E+00 0.  1.
        -13    1    3    3    0    0 -0.18705960492E+02  0.18670751268E+02 -0.10575637449E+02  0.28466717730E+02  0.00000000000E+00 0. -1.
         13    1    3    3    0    0  0.70808184808E+02 -0.34597620246E+02 -0.20194279864E+02  0.81354798885E+02  0.00000000000E+00 0.  1.
         21    1    1    2  502  501 -0.30974238893E+02  0.11792149553E+02 -0.19809517396E+02  0.38611853692E+02  0.00000000000E+00 0. -1.
<scales pt_clust_5="13000.00000" pt_clust_6="13000.00000" pt_clust_7="13000.00000" pt_clust_8="13000.00000" pt_clust_9="33.14300"></scales>
<clustering>
<clus scale="   33.143">  1  9  2 -1</clus>
<clus scale="   82.235">  5  6 -1 -1</clus>
<clus scale="   86.955">  2  5  1 -1</clus>
<clus scale="   90.253">  7  8 -1 -1</clus>
<clus scale="   86.955">  2  5  1 -1</clus>
</clustering>
</event>
<event>
 9    1  0.3846604E-005  0.9853694E+02  0.7546771E-02  0.1289377E+00
          1   -1    0    0  502    0  0.00000000000E+00  0.00000000000E+00  0.95179485031E+03  0.95179485031E+03  0.00000000000E+00 0. -1.
         -2   -1    0    0    0  501 -0.00000000000E+00 -0.00000000000E+00 -0.29022418226E+03  0.29022418226E+03  0.00000000000E+00 0.  1.
         23    2    1    2    0    0 -0.60335482408E+01 -0.47463875045E+02  0.39288669690E+03  0.40668567155E+03  0.93509655687E+02 0.  0.
        -24    2    1    2    0    0  0.25200487360E+02  0.13361770904E+02  0.54719083176E+03  0.55409254523E+03  0.82384105429E+02 0.  0.
         11    1    4    4    0    0  0.13408407276E+02  0.46582719220E+02  0.23710209075E+03  0.24200648040E+03  0.00000000000E+00 0. -1.
        -12    1    4    4    0    0  0.11792080084E+02 -0.33220948315E+02  0.31008874101E+03  0.31208606483E+03  0.00000000000E+00 0.  1.
        -11    1    3    3    0    0 -0.34729810335E+02  0.10003554819E+02  0.20397490106E+03  0.20715209653E+03  0.00000000000E+00 0. -1.
         11    1    3    3    0    0  0.28696262094E+02 -0.57467429865E+02  0.18891179584E+03  0.19953357503E+03  0.00000000000E+00 0.  1.
         21    1    1    2  502  501 -0.19166939120E+02  0.34102104141E+02 -0.27850686061E+03  0.28124081579E+03  0.00000000000E+00 0.  1.
<scales pt_clust_5="13000.00000" pt_clust_6="13000.00000" pt_clust_7="13000.00000" pt_clust_8="13000.00000" pt_clust_9="39.11937"></scales>
<clustering>
<clus scale="   39.119">  2  9  1 -1</clus>
<clus scale="   82.384">  5  6 -1 -1</clus>
<clus scale="   88.049">  1  5  2 -1</clus>
<clus scale="   93.510">  7  8 -1 -1</clus>
<clus scale="   88.049">  1  5  2 -1</clus>
</clustering>
</event>
<event>
 9    1  0.3846604E-005  0.9710556E+02  0.7546771E-02  0.1293055E+00
          1   -1    0    0  502    0  0.00000000000E+00  0.00000000000E+00  0.20463786333E+03  0.20463786333E+03  0.00000000000E+00 0. -1.
         -2   -1    0    0    0  501 -0.00000000000E+00 -0.00000000000E+00 -0.78310357235E+02  0.78310357235E+02  0.00000000000E+00 0.  1.
        -24    2    1    2    0    0  0.20009653023E+02 -0.28500614215E+02 -0.55782248005E+01  0.87353812507E+02  0.79918087707E+02 0.  0.
         23    2    1    2    0    0 -0.31735192960E+02  0.73618544252E+01  0.13956837073E+03  0.17023594789E+03  0.91867450571E+02 0.  0.
         13    1    3    3    0    0 -0.77763750718E+00 -0.38655586216E+02  0.27171842872E+02  0.47256408146E+02  0.00000000000E+00 0. -1.
        -14    1    3    3    0    0  0.20787290530E+02  0.10154972002E+02 -0.32750067672E+02  0.40097404361E+02  0.00000000000E+00 0.  1.
        -13    1    4    4    0    0  0.17401992186E+02  0.11037055285E+02  0.11178478973E+03  0.11366831193E+03  0.00000000000E+00 0. -1.
         13    1    4    4    0    0 -0.49137185147E+02 -0.36752008594E+01  0.27783580997E+02  0.56567635964E+02  0.00000000000E+00 0.  1.
         21    1    1    2  502  501  0.11725539938E+02  0.21138759790E+02 -0.76626398398E+01  0.25358460158E+02  0.00000000000E+00 0. -1.
<scales pt_clust_5="13000.00000" pt_clust_6="13000.00000" pt_clust_7="13000.00000" pt_clust_8="13000.00000" pt_clust_9="24.17303"></scales>
<clustering>
<clus scale="   24.173">  2  9  1 -1</clus>
<clus scale="   79.918">  5  6 -1 -1</clus>
<clus scale="   85.888">  2  5  1 -1</clus>
<clus scale="   91.867">  7  8 -1 -1</clus>
<clus scale="   97.106">  1  5  2 -1</clus>
</clustering>
</event>
<event>
 9    1  0.3846604E-005  0.1457404E+03  0.7546771E-02  0.1229939E+00
         -4   -1    0    0    0  501 -0.00000000000E+00  0.00000000000E+00  0.46833979133E+03  0.46833979133E+03  0.00000000000E+00 0.  1.
          3   -1    0    0  502    0  0.00000000000E+00 -0.00000000000E+00 -0.20206898447E+03  0.20206898447E+03  0.00000000000E+00 0. -1.
         23    2    1    2    0    0  0.73419748526E+02  0.34684022193E+02  0.80267377340E+02  0.14626690571E+03  0.91420539117E+02 0.  0.
        -24    2    1    2    0    0  0.39878563972E+02  0.17117315647E+02 -0.14558123902E+03  0.16992685258E+03  0.76144177139E+02 0.  0.
         11    1    4    4    0    0  0.48507018489E+02  0.15753545789E+02 -0.15118011884E+03  0.15955103691E+03  0.00000000000E+00 0. -1.
        -12    1    4    4    0    0 -0.86284545172E+01  0.13637698578E+01  0.55988798144E+01  0.10375815667E+02  0.00000000000E+00 0.  1.
        -13    1    3    3    0    0  0.56017298159E+02  0.61335233637E+02  0.33216795273E+02  0.89461187487E+02  0.00000000000E+00 0.  1.
         13    1    3    3    0    0  0.17402450367E+02 -0.26651211444E+02  0.47050582067E+02  0.56805718225E+02  0.00000000000E+00 0. -1.
         21    1    1    2  502  501 -0.11329831250E+03 -0.51801337840E+02  0.33158466854E+03  0.35421501751E+03  0.00000000000E+00 0. -1.
<scales pt_clust_5="13000.00000" pt_clust_6="13000.00000" pt_clust_7="13000.00000" pt_clust_8="13000.00000" pt_clust_9="113.50136"></scales>
<clustering>
<clus scale="   76.144">  5  6 -1 -1</clus>
<clus scale="   87.643">  2  5  1 -1</clus>
<clus scale="   91.421">  7  8 -1 -1</clus>
<clus scale="  113.501">  1  9  2 -1</clus>
<clus scale="   87.643">  2  5  1 -1</clus>
</clustering>
</event>
<event>
 9    1  0.3846604E-005  0.1354197E+03  0.7546771E-02  0.1219761E+00
         -2   -1    0    0    0  501 -0.00000000000E+00  0.00000000000E+00  0.90890312828E+02  0.90890312828E+02  0.00000000000E+00 0.  1.
          1   -1    0    0  502    0  0.00000000000E+00 -0.00000000000E+00 -0.33344940872E+03  0.33344940872E+03  0.00000000000E+00 0. -1.
         23    2    1    2    0    0 -0.41252869224E+02 -0.93028544809E+02 -0.54312114903E+02  0.14720725339E+03  0.91455236353E+02 0.  0.
        -24    2    1    2    0    0  0.79590706262E+02  0.64792679335E+02 -0.18382045527E+03  0.22931356000E+03  0.90895419047E+02 0.  0.
         11    1    4    4    0    0  0.84815289652E+02  0.26066400451E+02 -0.84279309348E+02  0.12237684657E+03  0.00000000000E+00 0. -1.
        -12    1    4    4    0    0 -0.52245833897E+01  0.38726278884E+02 -0.99541145922E+02  0.10693671343E+03  0.00000000000E+00 0.  1.
        -11    1    3    3    0    0 -0.19156135359E+02  0.15505196267E+02 -0.18450052376E+02  0.30785923177E+02  0.00000000000E+00 0. -1.
         11    1    3    3    0    0 -0.22096733865E+02 -0.10853374108E+03 -0.35862062527E+02  0.11642133021E+03  0.00000000000E+00 0.  1.
         21    1    1    2  502  501 -0.38337837038E+02  0.28235865474E+02 -0.44265257171E+01  0.47818908162E+02  0.00000000000E+00 0.  1.
<scales pt_clust_5="13000.00000" pt_clust_6="13000.00000" pt_clust_7="13000.00000" pt_clust_8="13000.00000" pt_clust_9="47.61359"></scales>
<clustering>
<clus scale="   47.614">  1  9  2 -1</clus>
<clus scale="   90.895">  5  6 -1 -1</clus>
<clus scale="   91.455">  7  8 -1 -1</clus>
<clus scale="  135.042">  2  5  1 -1</clus>
<clus scale="  135.042">  2  5  1 -1</clus>
</clustering>
</event>
<event>
 9    1  0.3846604E-005  0.1176611E+03  0.7546771E-02  0.1251243E+00
          1   -1    0    0  502    0  0.00000000000E+00  0.00000000000E+00  0.18502017456E+03  0.18502017456E+03  0.00000000000E+00 0. -1.
         -2   -1    0    0    0  501 -0.00000000000E+00 -0.00000000000E+00 -0.90174870236E+02  0.90174870236E+02  0.00000000000E+00 0.  1.
        -24    2    1    2    0    0  0.69589209059E+02 -0.48781910555E+02  0.17962490242E+02  0.11785858434E+03  0.79659663772E+02 0.  0.
         23    2    1    2    0    0 -0.59650251682E+02  0.28254250912E+02  0.70944961714E+02  0.13376898764E+03  0.92219841905E+02 0.  0.
         13    1    3    3    0    0  0.23957358542E+01 -0.43189709237E+02 -0.10753206156E+02  0.44572659522E+02  0.00000000000E+00 0. -1.
        -14    1    3    3    0    0  0.67193473205E+02 -0.55922013179E+01  0.28715696398E+02  0.73285924819E+02  0.00000000000E+00 0.  1.
        -11    1    4    4    0    0 -0.38690315311E+02  0.61641890404E+02  0.55095019642E+02  0.91280470752E+02  0.00000000000E+00 0.  1.
         11    1    4    4    0    0 -0.20959936371E+02 -0.33387639492E+02  0.15849942073E+02  0.42488516886E+02  0.00000000000E+00 0. -1.
         21    1    1    2  502  501 -0.99389573777E+01  0.20527659643E+02  0.59378523668E+01  0.23567472815E+02  0.00000000000E+00 0.  1.
<scales pt_clust_5="13000.00000" pt_clust_6="13000.00000" pt_clust_7="13000.00000" pt_clust_8="13000.00000" pt_clust_9="22.80718"></scales>
<clustering>
<clus scale="   22.807">  2  9  1 -1</clus>
<clus scale="   79.660">  5  6 -1 -1</clus>
<clus scale="   92.220">  7  8 -1 -1</clus>
<clus scale="  108.099">  2  5  1 -1</clus>
<clus scale="  117.661">  1  5  2 -1</clus>
</clustering>
</event>
<event>
 9    1  0.3846604E-005  0.1322907E+03  0.7546771E-02  0.1240643E+00
         -2   -1    0    0    0  501 -0.00000000000E+00  0.00000000000E+00  0.45687104194E+03  0.45687104194E+03  0.00000000000E+00 0.  1.
          1   -1    0    0  502    0  0.00000000000E+00 -0.00000000000E+00 -0.49161797885E+03  0.49161797885E+03  0.00000000000E+00 0. -1.
         23    2    1    2    0    0 -0.28510125630E+02 -0.75211317085E+01  0.35981794172E+01  0.94196414300E+02  0.89390284071E+02 0.  0.
        -24    2    1    2    0    0 -0.87124167515E+02 -0.56799539872E+02 -0.42535271006E+03  0.44528977502E+03  0.80877979034E+02 0.  0.
         11    1    4    4    0    0 -0.87301397614E+02 -0.73321808623E+02 -0.34825010254E+03  0.36643656417E+03  0.00000000000E+00 0. -1.
        -12    1    4    4    0    0  0.17723009897E+00  0.16522268751E+02 -0.77102607518E+02  0.78853210849E+02  0.00000000000E+00 0.  1.
        -11    1    3    3    0    0  0.43210886702E+01  0.35278422043E+02  0.15794075577E+02  0.38893337379E+02  0.00000000000E+00 0.  1.
         11    1    3    3    0    0 -0.32831214300E+02 -0.42799553752E+02 -0.12195896160E+02  0.55303076921E+02  0.00000000000E+00 0. -1.
         21    1    1    2  502  501  0.11563429315E+03  0.64320671581E+02  0.38700759373E+03  0.40900283147E+03  0.00000000000E+00 0.  1.
<scales pt_clust_5="13000.00000" pt_clust_6="13000.00000" pt_clust_7="13000.00000" pt_clust_8="13000.00000" pt_clust_9="104.68806"></scales>
<clustering>
<clus scale="   80.878">  5  6 -1 -1</clus>
<clus scale="   89.390">  7  8 -1 -1</clus>
<clus scale="   94.128">  1  7  2 -1</clus>
<clus scale="  104.688">  1  9  2 -1</clus>
<clus scale="  132.291">  2  5  1 -1</clus>
</clustering>
</event>
<event>
 9    1  0.3846604E-005  0.1111737E+03  0.7546771E-02  0.1261492E+00
          1   -1    0    0  502    0  0.00000000000E+00  0.00000000000E+00  0.59428069384E+02  0.59428069384E+02  0.00000000000E+00 0. -1.
         -2   -1    0    0    0  501 -0.00000000000E+00 -0.00000000000E+00 -0.46706656539E+03  0.46706656539E+03  0.00000000000E+00 0.  1.
        -24    2    1    2    0    0 -0.59405082347E+02 -0.96835264574E+00 -0.34601809594E+03  0.36122230824E+03  0.84989009495E+02 0.  0.
         23    2    1    2    0    0  0.70021499362E+02  0.25962910734E+02 -0.28727229264E+02  0.12261793720E+03  0.92912979260E+02 0.  0.
         13    1    3    3    0    0 -0.46658234879E+02  0.34804589568E+02 -0.27051142348E+03  0.27670341626E+03  0.00000000000E+00 0. -1.
        -14    1    3    3    0    0 -0.12746847469E+02 -0.35772942214E+02 -0.75506672457E+02  0.84518891974E+02  0.00000000000E+00 0.  1.
        -13    1    4    4    0    0  0.55154699767E+02 -0.23115256835E+02  0.68659379969E+01  0.60195490774E+02  0.00000000000E+00 0. -1.
         13    1    4    4    0    0  0.14866799595E+02  0.49078167568E+02 -0.35593167261E+02  0.62422446425E+02  0.00000000000E+00 0.  1.
         21    1    1    2  502  501 -0.10616417015E+02 -0.24994558088E+02 -0.32893170800E+02  0.42654389335E+02  0.00000000000E+00 0.  1.
<scales pt_clust_5="13000.00000" pt_clust_6="13000.00000" pt_clust_7="13000.00000" pt_clust_8="13000.00000" pt_clust_9="27.15578"></scales>
<clustering>
<clus scale="   27.156">  1  9  2 -1</clus>
<clus scale="   84.989">  5  6 -1 -1</clus>
<clus scale="   92.913">  7  8 -1 -1</clus>
<clus scale="  104.642">  2  5  1 -1</clus>
<clus scale="   27.156">  1  5  2 -1</clus>
</clustering>
</event>
<event>
 9    1  0.3846604E-005  0.1986911E+03  0.7546771E-02  0.1185043E+00
          1   -1    0    0  502    0  0.00000000000E+00  0.00000000000E+00  0.37141272357E+03  0.37141272357E+03  0.00000000000E+00 0. -1.
         -2   -1    0    0    0  501 -0.00000000000E+00 -0.00000000000E+00 -0.19655098441E+03  0.19655098441E+03  0.00000000000E+00 0.  1.
         23    2    1    2    0    0  0.25857410165E+02  0.29178938096E+02  0.15020646822E+02  0.91851091595E+02  0.81798454188E+02 0.  0.
        -24    2    1    2    0    0  0.20527920591E+02  0.17054123136E+03  0.18910657927E+03  0.26899860498E+03  0.84221398940E+02 0.  0.
         11    1    4    4    0    0  0.15370565218E+02  0.17967991961E+03  0.18266410406E+03  0.25668522103E+03  0.00000000000E+00 0. -1.
        -12    1    4    4    0    0  0.51573553724E+01 -0.91386882480E+01  0.64424752146E+01  0.12313383947E+02  0.00000000000E+00 0.  1.
        -13    1    3    3    0    0  0.32067428033E+02  0.54185447621E+02  0.19026936984E+02  0.65775428585E+02  0.00000000000E+00 0. -1.
         13    1    3    3    0    0 -0.62100178673E+01 -0.25006509526E+02 -0.40062901623E+01  0.26075663010E+02  0.00000000000E+00 0.  1.
         21    1    1    2  502  501 -0.46385330756E+02 -0.19972016946E+03 -0.29265486935E+02  0.20711401141E+03  0.00000000000E+00 0.  1.
<scales pt_clust_5="13000.00000" pt_clust_6="13000.00000" pt_clust_7="13000.00000" pt_clust_8="13000.00000" pt_clust_9="179.95806"></scales>
<clustering>
<clus scale="   81.798">  7  8 -1 -1</clus>
<clus scale="   84.221">  5  6 -1 -1</clus>
<clus scale="   90.615">  2  7  1 -1</clus>
<clus scale="  179.958">  2  9  1 -1</clus>
<clus scale="  198.691">  1  5  2 -1</clus>
</clustering>
</event>
<event>
 9    1  0.3846604E-005  0.2940437E+03  0.7546771E-02  0.1088521E+00
         -2   -1    0    0    0  501 -0.00000000000E+00  0.00000000000E+00  0.26904382786E+03  0.26904382786E+03  0.00000000000E+00 0.  1.
          1   -1    0    0  502    0  0.00000000000E+00 -0.00000000000E+00 -0.61933065788E+03  0.61933065788E+03  0.00000000000E+00 0. -1.
         23    2    1    2    0    0  0.45137285742E+02  0.27723356699E+03  0.10863931050E+03  0.31412096300E+03  0.89295321147E+02 0.  0.
        -24    2    1    2    0    0 -0.71182537939E+02 -0.27103319427E+03 -0.46275359110E+03  0.54720820592E+03  0.82279939533E+02 0.  0.
         13    1    4    4    0    0 -0.64926546346E+02 -0.24544319621E+03 -0.45265832207E+03  0.51899650821E+03  0.00000000000E+00 0. -1.
        -14    1    4    4    0    0 -0.62559915925E+01 -0.25589998058E+02 -0.10095269028E+02  0.28211697718E+02  0.00000000000E+00 0.  1.
        -11    1    3    3    0    0 -0.25978871203E+02  0.46966648949E+02  0.17260136873E+02  0.56379785272E+02  0.00000000000E+00 0. -1.
         11    1    3    3    0    0  0.71116156945E+02  0.23026691804E+03  0.91379173630E+02  0.25774117773E+03  0.00000000000E+00 0.  1.
         21    1    1    2  502  501  0.26045252197E+02 -0.62003727267E+01  0.38274505766E+01  0.27045316819E+02  0.00000000000E+00 0.  1.
<scales pt_clust_5="13000.00000" pt_clust_6="13000.00000" pt_clust_7="13000.00000" pt_clust_8="13000.00000" pt_clust_9="26.77312"></scales>
<clustering>
<clus scale="   26.773">  1  9  2 -1</clus>
<clus scale="   82.280">  5  6 -1 -1</clus>
<clus scale="   89.295">  7  8 -1 -1</clus>
<clus scale="  291.990">  2  5  1 -1</clus>
<clus scale="  291.990">  2  5  1 -1</clus>
</clustering>
</event>
<event>
 9    1  0.3846604E-005  0.1125849E+03  0.7546771E-02  0.1258332E+00
          1   -1    0    0  502    0  0.00000000000E+00  0.00000000000E+00  0.63713765654E+03  0.63713765654E+03  0.00000000000E+00 0. -1.
         -2   -1    0    0    0  501 -0.00000000000E+00 -0.00000000000E+00 -0.73312534103E+02  0.73312534103E+02  0.00000000000E+00 0.  1.
        -24    2    1    2    0    0  0.91367107282E+01  0.56323211141E+02  0.74345951825E+01  0.98434783440E+02  0.79864571553E+02 0.  0.
         23    2    1    2    0    0  0.26320178950E+02 -0.69419812572E+02  0.56225843681E+03  0.57376433719E+03  0.86943100171E+02 0.  0.
         11    1    3    3    0    0  0.19141857368E+02  0.17622105837E+02  0.39425048792E+02  0.47236466738E+02  0.00000000000E+00 0. -1.
        -12    1    3    3    0    0 -0.10005146639E+02  0.38701105304E+02 -0.31990453610E+02  0.51198316702E+02  0.00000000000E+00 0.  1.
        -11    1    4    4    0    0  0.32690634271E+02  0.10325003910E+02  0.16121733516E+03  0.16482206294E+03  0.00000000000E+00 0.  1.
         11    1    4    4    0    0 -0.63704553213E+01 -0.79744816482E+02  0.40104110165E+03  0.40894227425E+03  0.00000000000E+00 0. -1.
         21    1    1    2  502  501 -0.35456889678E+02  0.13096601431E+02 -0.58679095566E+01  0.38251070014E+02  0.00000000000E+00 0. -1.
<scales pt_clust_5="13000.00000" pt_clust_6="13000.00000" pt_clust_7="13000.00000" pt_clust_8="13000.00000" pt_clust_9="37.79831"></scales>
<clustering>
<clus scale="   37.798">  2  9  1 -1</clus>
<clus scale="   79.865">  5  6 -1 -1</clus>
<clus scale="   86.943">  7  8 -1 -1</clus>
<clus scale="  107.213">  2  5  1 -1</clus>
<clus scale="  112.585">  1  5  2 -1</clus>
</clustering>
</event>
<event>
 9    1  0.3846604E-005  0.1217633E+03  0.7546771E-02  0.1243097E+00
          3   -1    0    0  502    0  0.00000000000E+00  0.00000000000E+00  0.59769806262E+03  0.59769806262E+03  0.00000000000E+00 0. -1.
         -4   -1    0    0    0  501 -0.00000000000E+00 -0.00000000000E+00 -0.83488748528E+02  0.83488748528E+02  0.00000000000E+00 0.  1.
         23    2    1    2    0    0 -0.93363907031E+02 -0.32450423741E+02 -0.50439837518E+01  0.13457759169E+03  0.91191212714E+02 0.  0.
        -24    2    1    2    0    0  0.75572752922E+02  0.23267771920E+02  0.51326032575E+03  0.52571036844E+03  0.81747166996E+02 0.  0.
         11    1    4    4    0    0  0.76267354958E+02  0.47244504388E+02  0.40994925619E+03  0.41965121861E+03  0.00000000000E+00 0. -1.
        -12    1    4    4    0    0 -0.69460203516E+00 -0.23976732468E+02  0.10331106956E+03  0.10605914984E+03  0.00000000000E+00 0.  1.
        -11    1    3    3    0    0 -0.44726090916E+02 -0.57660589824E+02 -0.23666943093E+02  0.76715650443E+02  0.00000000000E+00 0.  1.
         11    1    3    3    0    0 -0.48637816115E+02  0.25210166083E+02  0.18622959341E+02  0.57861941248E+02  0.00000000000E+00 0. -1.
         21    1    1    2  502  501  0.17791154108E+02  0.91826518204E+01  0.59929720939E+01  0.20898851009E+02  0.00000000000E+00 0.  1.
<scales pt_clust_5="13000.00000" pt_clust_6="13000.00000" pt_clust_7="13000.00000" pt_clust_8="13000.00000" pt_clust_9="20.02115"></scales>
<clustering>
<clus scale="   20.021">  2  9  1 -1</clus>
<clus scale="   81.747">  5  6 -1 -1</clus>
<clus scale="   91.191">  7  8 -1 -1</clus>
<clus scale="  114.861">  1  5  2 -1</clus>
<clus scale="  114.861">  1  5  2 -1</clus>
</clustering>
</event>
<event>
 9    1  0.3846604E-005  0.1368524E+03  0.7546771E-02  0.1220730E+00
          1   -1    0    0  502    0  0.00000000000E+00  0.00000000000E+00  0.25299259235E+03  0.25299259235E+03  0.00000000000E+00 0. -1.
         -2   -1    0    0    0  501 -0.00000000000E+00 -0.00000000000E+00 -0.14429862561E+03  0.14429862561E+03  0.00000000000E+00 0.  1.
        -24    2    1    2    0    0  0.94004759157E+02  0.60097824862E+02 -0.70548178853E+02  0.15411844930E+03  0.79541231939E+02 0.  0.
         23    2    1    2    0    0 -0.73143833787E+02 -0.66030666134E+02  0.17469985412E+03  0.22101404070E+03  0.92828324702E+02 0.  0.
         13    1    3    3    0    0  0.76588925752E+02  0.36247152311E+02 -0.86049267640E+02  0.12076504486E+03  0.00000000000E+00 0. -1.
        -14    1    3    3    0    0  0.17415833405E+02  0.23850672551E+02  0.15501088786E+02  0.33353404443E+02  0.00000000000E+00 0.  1.
        -11    1    4    4    0    0  0.81517033545E+01 -0.23921844887E+02  0.99128783985E+02  0.10229966151E+03  0.00000000000E+00 0. -1.
         11    1    4    4    0    0 -0.81295537142E+02 -0.42108821247E+02  0.75571070130E+02  0.11871437919E+03  0.00000000000E+00 0.  1.
         21    1    1    2  502  501 -0.20860925369E+02  0.59328412719E+01  0.45422914801E+01  0.22158727958E+02  0.00000000000E+00 0. -1.
<scales pt_clust_5="13000.00000" pt_clust_6="13000.00000" pt_clust_7="13000.00000" pt_clust_8="13000.00000" pt_clust_9="21.68817"></scales>
<clustering>
<clus scale="   21.688">  2  9  1 -1</clus>
<clus scale="   79.541">  5  6 -1 -1</clus>
<clus scale="   92.828">  7  8 -1 -1</clus>
<clus scale="  128.212">  2  5  1 -1</clus>
<clus scale="  136.852">  1  5  2 -1</clus>
</clustering>
</event>
<event>
 9    1  0.3846604E-005  0.1166048E+03  0.7546771E-02  0.1251431E+00
          1   -1    0    0  502    0  0.00000000000E+00  0.00000000000E+00  0.15516828425E+03  0.15516828425E+03  0.00000000000E+00 0. -1.
         -2   -1    0    0    0  501 -0.00000000000E+00 -0.00000000000E+00 -0.15749107366E+03  0.15749107366E+03  0.00000000000E+00 0.  1.
        -24    2    1    2    0    0  0.26698878358E+02 -0.37063342652E+02 -0.23366069312E+02  0.96956063263E+02  0.82267755130E+02 0.  0.
         23    2    1    2    0    0 -0.55569284416E+02  0.73060409383E+02  0.71626954473E+02  0.14723434335E+03  0.90120821490E+02 0.  0.
         13    1    3    3    0    0  0.42303379688E+01  0.25208334106E+02  0.29202128078E+01  0.25727096816E+02  0.00000000000E+00 0. -1.
        -14    1    3    3    0    0  0.22468540390E+02 -0.62271676757E+02 -0.26286282120E+02  0.71228966447E+02  0.00000000000E+00 0.  1.
        -13    1    4    4    0    0 -0.30008977749E+02  0.34540178467E+02  0.87181089801E+02  0.98458646614E+02  0.00000000000E+00 0. -1.
         13    1    4    4    0    0 -0.25560306666E+02  0.38520230916E+02 -0.15554135328E+02  0.48775696740E+02  0.00000000000E+00 0.  1.
         21    1    1    2  502  501  0.28870406057E+02 -0.35997066732E+02 -0.50583674562E+02  0.68468951295E+02  0.00000000000E+00 0.  1.
<scales pt_clust_5="13000.00000" pt_clust_6="13000.00000" pt_clust_7="13000.00000" pt_clust_8="13000.00000" pt_clust_9="46.14422"></scales>
<clustering>
<clus scale="   46.144">  2  9  1 -1</clus>
<clus scale="   82.268">  5  6 -1 -1</clus>
<clus scale="   90.121">  7  8 -1 -1</clus>
<clus scale="  110.648">  2  5  1 -1</clus>
<clus scale="  116.605">  1  5  2 -1</clus>
</clustering>
</event>
<event>
 9    1  0.3846604E-005  0.4210435E+03  0.7546771E-02  0.1036957E+00
         -4   -1    0    0    0  501 -0.00000000000E+00  0.00000000000E+00  0.27884737523E+03  0.27884737523E+03  0.00000000000E+00 0.  1.
          3   -1    0    0  502    0  0.00000000000E+00 -0.00000000000E+00 -0.75714673642E+03  0.75714673642E+03  0.00000000000E+00 0. -1.
        -24    2    1    2    0    0  0.23308697923E+03 -0.35332956483E+03 -0.15782858442E+03  0.45867602894E+03  0.79388388254E+02 0.  0.
         23    2    1    2    0    0 -0.23326988361E+03  0.32814442875E+03 -0.34782153089E+03  0.54013760014E+03  0.93140780617E+02 0.  0.
         11    1    3    3    0    0  0.31897961086E+02 -0.11037322469E+03 -0.34216061625E+02  0.11987688486E+03  0.00000000000E+00 0. -1.
        -12    1    3    3    0    0  0.20118901815E+03 -0.24295634014E+03 -0.12361252279E+03  0.33879914408E+03  0.00000000000E+00 0.  1.
        -13    1    4    4    0    0 -0.14526693318E+03  0.19412934188E+03 -0.14845249846E+03  0.28430059365E+03  0.00000000000E+00 0. -1.
         13    1    4    4    0    0 -0.88002950426E+02  0.13401508687E+03 -0.19936903244E+03  0.25583700649E+03  0.00000000000E+00 0.  1.
         21    1    1    2  502  501  0.18290437506E+00  0.25185136082E+02  0.27350754116E+02  0.37180482570E+02  0.00000000000E+00 0. -1.
<scales pt_clust_5="13000.00000" pt_clust_6="13000.00000" pt_clust_7="13000.00000" pt_clust_8="13000.00000" pt_clust_9="25.18580"></scales>
<clustering>
<clus scale="   25.186">  1  9  2 -1</clus>
<clus scale="   79.388">  5  6 -1 -1</clus>
<clus scale="   93.141">  7  8 -1 -1</clus>
<clus scale="  418.216">  1  5  2 -1</clus>
<clus scale="  421.043">  2  5  1 -1</clus>
</clustering>
</event>
<event>
 9    1  0.3846604E-005  0.1560891E+03  0.7546771E-02  0.1195250E+00
         -4   -1    0    0    0  501 -0.00000000000E+00  0.00000000000E+00  0.45960838360E+03  0.45960838360E+03  0.00000000000E+00 0.  1.
          3   -1    0    0  502    0  0.00000000000E+00 -0.00000000000E+00 -0.68048263358E+02  0.68048263358E+02  0.00000000000E+00 0. -1.
         23    2    1    2    0    0  0.12540281696E+03  0.42173886577E+02  0.30868876722E+03  0.34824190464E+03  0.92082386632E+02 0.  0.
        -24    2    1    2    0    0 -0.10801791320E+03 -0.31028423671E+02  0.66391361748E+02  0.15299417581E+03  0.79804588026E+02 0.  0.
         11    1    4    4    0    0 -0.61140002277E+01 -0.35101736327E+02  0.21052056246E+02  0.41384803541E+02  0.00000000000E+00 0. -1.
        -12    1    4    4    0    0 -0.10190391298E+03  0.40733126566E+01  0.45339305502E+02  0.11160937227E+03  0.00000000000E+00 0.  1.
        -11    1    3    3    0    0 -0.46981959932E+01  0.25834469242E+02  0.84904460800E+02  0.88872157116E+02  0.00000000000E+00 0.  1.
         11    1    3    3    0    0  0.13010101295E+03  0.16339417336E+02  0.22378430642E+03  0.25936974753E+03  0.00000000000E+00 0. -1.
         21    1    1    2  502  501 -0.17384903756E+02 -0.11145462907E+02  0.16479991270E+02  0.26420566502E+02  0.00000000000E+00 0.  1.
<scales pt_clust_5="13000.00000" pt_clust_6="13000.00000" pt_clust_7="13000.00000" pt_clust_8="13000.00000" pt_clust_9="20.65082"></scales>
<clustering>
<clus scale="   20.651">  2  9  1 -1</clus>
<clus scale="   79.805">  5  6 -1 -1</clus>
<clus scale="   92.082">  7  8 -1 -1</clus>
<clus scale="  149.176">  2  5  1 -1</clus>
<clus scale="   20.651">  2  5  1 -1</clus>
</clustering>
</event>
<event>
 9    1  0.3846604E-005  0.1026569E+03  0.7546771E-02  0.1276664E+00
         -2   -1    0    0    0  501 -0.00000000000E+00  0.00000000000E+00  0.31445846345E+02  0.31445846345E+02  0.00000000000E+00 0.  1.
          1   -1    0    0  502    0  0.00000000000E+00 -0.00000000000E+00 -0.10181862051E+04  0.10181862051E+04  0.00000000000E+00 0. -1.
         23    2    1    2    0    0  0.29980527049E+02  0.28251786945E+01 -0.90990228871E+02  0.13158585516E+03  0.90159868526E+02 0.  0.
        -24    2    1    2    0    0 -0.51741425256E+02  0.12412040387E+01 -0.88935165492E+03  0.89500248472E+03  0.86048624999E+02 0.  0.
         13    1    4    4    0    0 -0.60220352544E+02  0.16690723820E+02 -0.36183661827E+03  0.36719315005E+03  0.00000000000E+00 0. -1.
        -14    1    4    4    0    0  0.84789272881E+01 -0.15449519781E+02 -0.52751503665E+03  0.52780933467E+03  0.00000000000E+00 0.  1.
        -11    1    3    3    0    0 -0.27891038995E+02  0.16261618884E+02 -0.16355336230E+02  0.36191812998E+02  0.00000000000E+00 0.  1.
         11    1    3    3    0    0  0.57871566043E+02 -0.13436440190E+02 -0.74634892641E+02  0.95394042166E+02  0.00000000000E+00 0. -1.
         21    1    1    2  502  501  0.21760898207E+02 -0.40663827331E+01 -0.63984749204E+01  0.23043711520E+02  0.00000000000E+00 0. -1.
<scales pt_clust_5="13000.00000" pt_clust_6="13000.00000" pt_clust_7="13000.00000" pt_clust_8="13000.00000" pt_clust_9="22.13757"></scales>
<clustering>
<clus scale="   22.138">  1  9  2 -1</clus>
<clus scale="   86.049">  5  6 -1 -1</clus>
<clus scale="   90.160">  7  8 -1 -1</clus>
<clus scale="   99.066">  2  5  1 -1</clus>
<clus scale="   99.066">  2  5  1 -1</clus>
</clustering>
</event>
