<event>
 9    1  0.9000149E-006  0.1003978E+03  0.7546771E-02  0.1283603E+00
         -1   -1    0    0    0  501 -0.00000000000E+00  0.00000000000E+00  0.99300220266E+02  0.99300220266E+02  0.00000000000E+00 0.  1.
          1   -1    0    0  502    0  0.00000000000E+00 -0.00000000000E+00 -0.16260807112E+03  0.16260807112E+03  0.00000000000E+00 0. -1.
         23    2    1    2    0    0  0.17023893186E+02  0.82202916812E+01  0.21534507344E+01  0.10129798081E+03  0.99495012093E+02 0.  0.
         23    2    1    2    0    0  0.12868880845E+02 -0.18414589725E+02 -0.77897999593E+01  0.94856955135E+02  0.91828403803E+02 0.  0.
        -11    1    3    3    0    0  0.57975737784E+02 -0.48848067901E+00 -0.71268445068E+01  0.58414182333E+02  0.00000000000E+00 0. -1.
         11    1    3    3    0    0 -0.40951844598E+02  0.87087723602E+01  0.92802952412E+01  0.42883798477E+02  0.00000000000E+00 0.  1.
        -13    1    4    4    0    0  0.25886644393E+02  0.17364401835E+02 -0.35889935875E+02  0.47536599648E+02  0.00000000000E+00 0. -1.
         13    1    4    4    0    0 -0.13017763548E+02 -0.35778991560E+02  0.28100135916E+02  0.47320355486E+02  0.00000000000E+00 0.  1.
         21    1    1    2  502  501 -0.29892774031E+02  0.10194298044E+02 -0.57671501634E+02  0.65753355447E+02  0.00000000000E+00 0.  1.
<scales pt_clust_5="13000.00000" pt_clust_6="13000.00000" pt_clust_7="13000.00000" pt_clust_8="13000.00000" pt_clust_9="31.58325"></scales>
<clustering>
<clus scale="   31.583">  2  9  1 -1</clus>
<clus scale="   91.828">  7  8 -1 -1</clus>
<clus scale="   92.806">  2  7  1 -1</clus>
<clus scale="   99.495">  5  6 -1 -1</clus>
<clus scale="   31.583">  2  5  1 -1</clus>
</clustering>
</event>
<event>
 9    1  0.9000149E-006  0.1433762E+03  0.7546771E-02  0.1209626E+00
         -1   -1    0    0    0  501 -0.00000000000E+00  0.00000000000E+00  0.12658887674E+03  0.12658887674E+03  0.00000000000E+00 0.  1.
          1   -1    0    0  502    0  0.00000000000E+00 -0.00000000000E+00 -0.26816966795E+03  0.26816966795E+03  0.00000000000E+00 0. -1.
         23    2    1    2    0    0 -0.58155112853E+02 -0.86181480168E+02  0.23908486168E+02  0.14067403296E+03  0.91696800181E+02 0.  0.
         23    2    1    2    0    0  0.50600477853E+02  0.11748179320E+03 -0.11123059530E+03  0.19099103594E+03  0.87994036091E+02 0.  0.
        -11    1    4    4    0    0  0.46498822078E+02  0.81918185276E+02 -0.12151044312E+03  0.15374497494E+03  0.00000000000E+00 0. -1.
         11    1    4    4    0    0  0.41016557753E+01  0.35563607921E+02  0.10279847822E+02  0.37246060995E+02  0.00000000000E+00 0.  1.
        -13    1    3    3    0    0 -0.31087592745E+02  0.91696390936E+01 -0.12979317947E+02  0.34913942748E+02  0.00000000000E+00 0.  1.
         13    1    3    3    0    0 -0.27067520108E+02 -0.95351119262E+02  0.36887804115E+02  0.10576009021E+03  0.00000000000E+00 0. -1.
         21    1    1    2  502  501  0.75546350000E+01 -0.31300313028E+02 -0.54258682083E+02  0.63093475788E+02  0.00000000000E+00 0. -1.
<scales pt_clust_5="13000.00000" pt_clust_6="13000.00000" pt_clust_7="13000.00000" pt_clust_8="13000.00000" pt_clust_9="32.19910"></scales>
<clustering>
<clus scale="   32.199">  2  9  1 -1</clus>
<clus scale="   87.994">  5  6 -1 -1</clus>
<clus scale="   91.697">  7  8 -1 -1</clus>
<clus scale="  141.037">  2  5  1 -1</clus>
<clus scale="   32.199">  2  5  1 -1</clus>
</clustering>
</event>
<event>
 9    1  0.9000149E-006  0.1447165E+03  0.7546771E-02  0.1207363E+00
          1   -1    0    0  502    0  0.00000000000E+00  0.00000000000E+00  0.36597478932E+03  0.36597478932E+03  0.00000000000E+00 0. -1.
         -1   -1    0    0    0  501 -0.00000000000E+00 -0.00000000000E+00 -0.79315572785E+02  0.79315572785E+02  0.00000000000E+00 0.  1.
         23    2    1    2    0    0 -0.10452858709E+02  0.11516117505E+03  0.61866656173E+02  0.15999477508E+03  0.91648712008E+02 0.  0.
         23    2    1    2    0    0 -0.21559405941E+02 -0.10644592580E+03  0.16827444193E+03  0.21975904479E+03  0.90455551813E+02 0.  0.
        -11    1    4    4    0    0 -0.14220768470E+02 -0.52376736177E+02  0.13899354170E+02  0.56024501736E+02  0.00000000000E+00 0.  1.
         11    1    4    4    0    0 -0.73386374708E+01 -0.54069189624E+02  0.15437508776E+03  0.16373454305E+03  0.00000000000E+00 0. -1.
        -11    1    3    3    0    0  0.32535600505E+02  0.91192507653E+02  0.51608611131E+02  0.10971821861E+03  0.00000000000E+00 0.  1.
         11    1    3    3    0    0 -0.42988459214E+02  0.23968667399E+02  0.10258045041E+02  0.50276556471E+02  0.00000000000E+00 0. -1.
         21    1    1    2  502  501  0.32012264650E+02 -0.87152492516E+01  0.56518118432E+02  0.65536542239E+02  0.00000000000E+00 0.  1.
<scales pt_clust_5="13000.00000" pt_clust_6="13000.00000" pt_clust_7="13000.00000" pt_clust_8="13000.00000" pt_clust_9="33.17741"></scales>
<clustering>
<clus scale="   33.177">  1  9  2 -1</clus>
<clus scale="   90.456">  5  6 -1 -1</clus>
<clus scale="   91.649">  7  8 -1 -1</clus>
<clus scale="  143.964">  1  5  2 -1</clus>
<clus scale="   33.177">  1  5  2 -1</clus>
</clustering>
</event>
<event>
 9    1  0.9000149E-006  0.1937414E+03  0.7546771E-02  0.1183885E+00
         -2   -1    0    0    0  501 -0.00000000000E+00  0.00000000000E+00  0.65066939702E+02  0.65066939702E+02  0.00000000000E+00 0.  1.
          2   -1    0    0  502    0  0.00000000000E+00 -0.00000000000E+00 -0.10209092314E+04  0.10209092314E+04  0.00000000000E+00 0. -1.
         23    2    1    2    0    0  0.16209622611E+03  0.10980714315E+03 -0.57926513460E+03  0.61812770895E+03  0.90559224853E+02 0.  0.
         23    2    1    2    0    0 -0.40748047261E+02  0.21261679815E+00 -0.21752821467E+03  0.23953662676E+03  0.91645091636E+02 0.  0.
        -11    1    4    4    0    0  0.94675688191E+01  0.30460087621E+02 -0.13232104661E+03  0.13611139251E+03  0.00000000000E+00 0. -1.
         11    1    4    4    0    0 -0.50215616080E+02 -0.30247470823E+02 -0.85207168062E+02  0.10342523425E+03  0.00000000000E+00 0.  1.
        -13    1    3    3    0    0  0.52542711642E+02 -0.76912610967E+01 -0.11046367612E+03  0.12256474120E+03  0.00000000000E+00 0.  1.
         13    1    3    3    0    0  0.10955351447E+03  0.11749840425E+03 -0.46880145848E+03  0.49556296775E+03  0.00000000000E+00 0. -1.
         21    1    1    2  502  501 -0.12134817885E+03 -0.11001975995E+03 -0.15904894242E+03  0.22831183538E+03  0.00000000000E+00 0.  1.
<scales pt_clust_5="13000.00000" pt_clust_6="13000.00000" pt_clust_7="13000.00000" pt_clust_8="13000.00000" pt_clust_9="171.27394"></scales>
<clustering>
<clus scale="   90.559">  7  8 -1 -1</clus>
<clus scale="   91.645">  5  6 -1 -1</clus>
<clus scale="  100.296">  2  5  1 -1</clus>
<clus scale="  171.274">  1  9  2 -1</clus>
<clus scale="  100.296">  2  5  1 -1</clus>
</clustering>
</event>
<event>
 9    1  0.9000149E-006  0.1015203E+03  0.7546771E-02  0.1279511E+00
          2   -1    0    0  502    0  0.00000000000E+00  0.00000000000E+00  0.52515499189E+03  0.52515499189E+03  0.00000000000E+00 0. -1.
         -2   -1    0    0    0  501 -0.00000000000E+00 -0.00000000000E+00 -0.28383390179E+02  0.28383390179E+02  0.00000000000E+00 0.  1.
         23    2    1    2    0    0 -0.47714119557E+01  0.19514725276E+02  0.18146817431E+03  0.20592288039E+03  0.95236251009E+02 0.  0.
         23    2    1    2    0    0 -0.10737544598E+02 -0.50623965691E+02  0.18054015614E+03  0.20844132357E+03  0.90415466731E+02 0.  0.
        -13    1    4    4    0    0  0.38279712883E+02 -0.20412491299E+02  0.52891267966E+02  0.68406815790E+02  0.00000000000E+00 0.  1.
         13    1    4    4    0    0 -0.49017257480E+02 -0.30211474393E+02  0.12764888818E+03  0.14003450778E+03  0.00000000000E+00 0. -1.
        -13    1    3    3    0    0 -0.16867838229E+02  0.49801122557E+02  0.15576111962E+03  0.16439647855E+03  0.00000000000E+00 0.  1.
         13    1    3    3    0    0  0.12096426273E+02 -0.30286397281E+02  0.25707054686E+02  0.41526401837E+02  0.00000000000E+00 0. -1.
         21    1    1    2  502  501  0.15508956553E+02  0.31109240415E+02  0.13476327125E+03  0.13917417811E+03  0.00000000000E+00 0.  1.
<scales pt_clust_5="13000.00000" pt_clust_6="13000.00000" pt_clust_7="13000.00000" pt_clust_8="13000.00000" pt_clust_9="34.76079"></scales>
<clustering>
<clus scale="   34.761">  1  9  2 -1</clus>
<clus scale="   90.415">  5  6 -1 -1</clus>
<clus scale="   95.236">  7  8 -1 -1</clus>
<clus scale="   97.012">  1  5  2 -1</clus>
<clus scale="   34.761">  1  5  2 -1</clus>
</clustering>
</event>
<event>
 9    1  0.9000149E-006  0.1234014E+03  0.7546771E-02  0.1238264E+00
         -2   -1    0    0    0  501 -0.00000000000E+00  0.00000000000E+00  0.20164779315E+03  0.20164779315E+03  0.00000000000E+00 0.  1.
          2   -1    0    0  502    0  0.00000000000E+00 -0.00000000000E+00 -0.35561349089E+03  0.35561349089E+03  0.00000000000E+00 0. -1.
         23    2    1    2    0    0  0.25139444008E+02  0.77889885138E+02  0.16666173282E+03  0.20713596946E+03  0.91816941818E+02 0.  0.
         23    2    1    2    0    0 -0.97396107918E+01 -0.57291445376E+02 -0.21934061621E+03  0.24562426508E+03  0.94041501200E+02 0.  0.
        -11    1    3    3    0    0  0.52764526874E+02  0.48865662599E+02  0.61596758010E+02  0.94689539416E+02  0.00000000000E+00 0.  1.
         11    1    3    3    0    0 -0.27625082866E+02  0.29024222539E+02  0.10506497481E+03  0.11244643004E+03  0.00000000000E+00 0. -1.
        -11    1    4    4    0    0 -0.47820721244E+01 -0.81245551837E+02 -0.19411444766E+03  0.21048545484E+03  0.00000000000E+00 0.  1.
         11    1    4    4    0    0 -0.49575386675E+01  0.23954106461E+02 -0.25226168545E+02  0.35138810245E+02  0.00000000000E+00 0. -1.
         21    1    1    2  502  501 -0.15399833216E+02 -0.20598439762E+02 -0.10128681436E+03  0.10450104950E+03  0.00000000000E+00 0. -1.
<scales pt_clust_5="13000.00000" pt_clust_6="13000.00000" pt_clust_7="13000.00000" pt_clust_8="13000.00000" pt_clust_9="25.71868"></scales>
<clustering>
<clus scale="   25.719">  2  9  1 -1</clus>
<clus scale="   91.817">  5  6 -1 -1</clus>
<clus scale="   94.042">  7  8 -1 -1</clus>
<clus scale="  121.715">  1  5  2 -1</clus>
<clus scale="   25.719">  2  5  1 -1</clus>
</clustering>
</event>
<event>
 9    1  0.9000149E-006  0.1793788E+03  0.7546771E-02  0.1191419E+00
          2   -1    0    0  502    0  0.00000000000E+00  0.00000000000E+00  0.42943467116E+03  0.42943467116E+03  0.00000000000E+00 0. -1.
         -2   -1    0    0    0  501 -0.00000000000E+00 -0.00000000000E+00 -0.30872839827E+03  0.30872839827E+03  0.00000000000E+00 0.  1.
         23    2    1    2    0    0 -0.62686215645E+02  0.13189196512E+03 -0.19960412171E+03  0.26322117126E+03  0.90102871788E+02 0.  0.
         23    2    1    2    0    0 -0.38485302872E+02  0.38829552675E+02  0.23645657471E+03  0.25950518842E+03  0.91882416132E+02 0.  0.
        -11    1    3    3    0    0 -0.24487305921E+02  0.28017710084E+02 -0.12329741214E+03  0.12879003095E+03  0.00000000000E+00 0.  1.
         11    1    3    3    0    0 -0.38198909725E+02  0.10387425503E+03 -0.76306709561E+02  0.13443114032E+03  0.00000000000E+00 0. -1.
        -13    1    4    4    0    0 -0.41685630527E+02 -0.20274119543E+02  0.83644642729E+02  0.95630319318E+02  0.00000000000E+00 0.  1.
         13    1    4    4    0    0  0.32003276548E+01  0.59103672218E+02  0.15281193198E+03  0.16387486910E+03  0.00000000000E+00 0. -1.
         21    1    1    2  502  501  0.10117151852E+03 -0.17072151779E+03  0.83853819884E+02  0.21543670974E+03  0.00000000000E+00 0. -1.
<scales pt_clust_5="13000.00000" pt_clust_6="13000.00000" pt_clust_7="13000.00000" pt_clust_8="13000.00000" pt_clust_9="155.10713"></scales>
<clustering>
<clus scale="   90.103">  5  6 -1 -1</clus>
<clus scale="   91.882">  7  8 -1 -1</clus>
<clus scale="  106.917">  1  7  2 -1</clus>
<clus scale="  155.107">  1  9  2 -1</clus>
<clus scale="  106.917">  1  5  2 -1</clus>
</clustering>
</event>
<event>
 9    1  0.9000149E-006  0.1143379E+03  0.7546771E-02  0.1252953E+00
         -1   -1    0    0    0  501 -0.00000000000E+00  0.00000000000E+00  0.20069496184E+03  0.20069496184E+03  0.00000000000E+00 0.  1.
          1   -1    0    0  502    0  0.00000000000E+00 -0.00000000000E+00 -0.13472697728E+03  0.13472697728E+03  0.00000000000E+00 0. -1.
         23    2    1    2    0    0 -0.68352367972E+02  0.28347035767E+02  0.12893839790E+03  0.17491528506E+03  0.92166403040E+02 0.  0.
         23    2    1    2    0    0  0.32094668010E+02 -0.18807015850E+02 -0.70450975417E+02  0.12227588640E+03  0.92759263143E+02 0.  0.
        -11    1    4    4    0    0  0.31286775490E+01 -0.42032326312E+02  0.55155240811E+00  0.42152215700E+02  0.00000000000E+00 0.  1.
         11    1    4    4    0    0  0.28965990461E+02  0.23225310462E+02 -0.71002527825E+02  0.80123670703E+02  0.00000000000E+00 0. -1.
        -13    1    3    3    0    0 -0.50388315885E+02 -0.28881061752E+02  0.59237648188E+02  0.82959008363E+02  0.00000000000E+00 0.  1.
         13    1    3    3    0    0 -0.17964052086E+02  0.57228097519E+02  0.69700749713E+02  0.91956276694E+02  0.00000000000E+00 0. -1.
         21    1    1    2  502  501  0.36257699962E+02 -0.95400199169E+01  0.74805620828E+01  0.38230767657E+02  0.00000000000E+00 0.  1.
<scales pt_clust_5="13000.00000" pt_clust_6="13000.00000" pt_clust_7="13000.00000" pt_clust_8="13000.00000" pt_clust_9="37.49177"></scales>
<clustering>
<clus scale="   37.492">  2  9  1 -1</clus>
<clus scale="   92.166">  7  8 -1 -1</clus>
<clus scale="   92.759">  5  6 -1 -1</clus>
<clus scale="  113.857">  1  7  2 -1</clus>
<clus scale="   37.492">  2  5  1 -1</clus>
</clustering>
</event>
<event>
 9    1  0.9000149E-006  0.1185972E+03  0.7546771E-02  0.1257656E+00
          1   -1    0    0  502    0  0.00000000000E+00  0.00000000000E+00  0.28372127070E+03  0.28372127070E+03  0.00000000000E+00 0. -1.
         -1   -1    0    0    0  501 -0.00000000000E+00 -0.00000000000E+00 -0.51442584651E+02  0.51442584651E+02  0.00000000000E+00 0.  1.
         23    2    1    2    0    0 -0.15620808534E+02  0.30870712009E+02  0.76333112861E+02  0.12238818734E+03  0.89191444449E+02 0.  0.
         23    2    1    2    0    0  0.16235544940E+02 -0.72786409800E+01  0.10761559123E+03  0.15899136851E+03  0.11567440621E+03 0.  0.
        -11    1    4    4    0    0  0.47990335553E+02  0.25720156777E+02  0.16300238254E+02  0.56835697746E+02  0.00000000000E+00 0.  1.
         11    1    4    4    0    0 -0.31754790614E+02 -0.32998797757E+02  0.91315352973E+02  0.10215567076E+03  0.00000000000E+00 0. -1.
        -13    1    3    3    0    0 -0.23258055983E+02 -0.19976049546E+02  0.37198571027E+00  0.30661345322E+02  0.00000000000E+00 0.  1.
         13    1    3    3    0    0  0.76372474494E+01  0.50846761555E+02  0.75961127150E+02  0.91726842021E+02  0.00000000000E+00 0. -1.
         21    1    1    2  502  501 -0.61473640615E+00 -0.23592071029E+02  0.48329981964E+02  0.53784299502E+02  0.00000000000E+00 0. -1.
<scales pt_clust_5="13000.00000" pt_clust_6="13000.00000" pt_clust_7="13000.00000" pt_clust_8="13000.00000" pt_clust_9="23.60008"></scales>
<clustering>
<clus scale="   23.600">  1  9  2 -1</clus>
<clus scale="   89.191">  7  8 -1 -1</clus>
<clus scale="   92.951">  2  7  1 -1</clus>
<clus scale="  115.674">  5  6 -1 -1</clus>
<clus scale="   23.600">  1  5  2 -1</clus>
</clustering>
</event>
<event>
 9    1  0.9000149E-006  0.1222050E+03  0.7546771E-02  0.1239863E+00
          1   -1    0    0  502    0  0.00000000000E+00  0.00000000000E+00  0.31433000029E+03  0.31433000029E+03  0.00000000000E+00 0. -1.
         -1   -1    0    0    0  501 -0.00000000000E+00 -0.00000000000E+00 -0.80307842886E+02  0.80307842886E+02  0.00000000000E+00 0.  1.
         23    2    1    2    0    0  0.57774833793E+02 -0.51143633886E+02  0.79409585213E+01  0.11977416368E+03  0.91264389317E+02 0.  0.
         23    2    1    2    0    0 -0.49821242992E+02  0.76225902300E+02  0.18194238304E+03  0.22347676618E+03  0.92446145631E+02 0.  0.
        -11    1    3    3    0    0 -0.16697079905E+02 -0.22060689195E+02 -0.21014484345E+02  0.34742985442E+02  0.00000000000E+00 0. -1.
         11    1    3    3    0    0  0.74471913698E+02 -0.29082944690E+02  0.28955442866E+02  0.85031178243E+02  0.00000000000E+00 0.  1.
        -11    1    4    4    0    0 -0.19161341887E+02 -0.14124358257E+02  0.80493099549E+01  0.25128587502E+02  0.00000000000E+00 0.  1.
         11    1    4    4    0    0 -0.30659901105E+02  0.90350260558E+02  0.17389307309E+03  0.19834817868E+03  0.00000000000E+00 0. -1.
         21    1    1    2  502  501 -0.79535908009E+01 -0.25082268415E+02  0.44138815844E+02  0.51386913310E+02  0.00000000000E+00 0.  1.
<scales pt_clust_5="13000.00000" pt_clust_6="13000.00000" pt_clust_7="13000.00000" pt_clust_8="13000.00000" pt_clust_9="26.31311"></scales>
<clustering>
<clus scale="   26.313">  1  9  2 -1</clus>
<clus scale="   91.264">  5  6 -1 -1</clus>
<clus scale="   92.446">  7  8 -1 -1</clus>
<clus scale="  121.314">  2  5  1 -1</clus>
<clus scale="   26.313">  1  5  2 -1</clus>
</clustering>
</event>
<event>
 9    1  0.9000149E-006  0.1313047E+03  0.7546771E-02  0.1225696E+00
         -1   -1    0    0    0  501 -0.00000000000E+00  0.00000000000E+00  0.14143547811E+03  0.14143547811E+03  0.00000000000E+00 0.  1.
          1   -1    0    0  502    0  0.00000000000E+00 -0.00000000000E+00 -0.15438393157E+03  0.15438393157E+03  0.00000000000E+00 0. -1.
         23    2    1    2    0    0  0.91990272390E+02  0.44481480496E+02  0.24637647835E+02  0.14016103969E+03  0.92721578037E+02 0.  0.
         23    2    1    2    0    0 -0.76680527474E+02 -0.20824286836E+02 -0.34255216643E+02  0.12728327715E+03  0.93349121904E+02 0.  0.
        -11    1    3    3    0    0  0.25838147145E+02 -0.19875799654E+02  0.34353270957E+02  0.47358256779E+02  0.00000000000E+00 0.  1.
         11    1    3    3    0    0  0.66152125245E+02  0.64357280149E+02 -0.97156231214E+01  0.92802782907E+02  0.00000000000E+00 0. -1.
        -13    1    4    4    0    0 -0.73274531548E+02 -0.42706152449E+02 -0.51493310357E+02  0.99219622264E+02  0.00000000000E+00 0.  1.
         13    1    4    4    0    0 -0.34059959254E+01  0.21881865613E+02  0.17238093714E+02  0.28063654891E+02  0.00000000000E+00 0. -1.
         21    1    1    2  502  501 -0.15309744917E+02 -0.23657193660E+02 -0.33308846553E+01  0.28375092843E+02  0.00000000000E+00 0.  1.
<scales pt_clust_5="13000.00000" pt_clust_6="13000.00000" pt_clust_7="13000.00000" pt_clust_8="13000.00000" pt_clust_9="28.17891"></scales>
<clustering>
<clus scale="   28.179">  2  9  1 -1</clus>
<clus scale="   92.722">  5  6 -1 -1</clus>
<clus scale="   93.349">  7  8 -1 -1</clus>
<clus scale="  130.859">  1  5  2 -1</clus>
<clus scale="   28.179">  2  5  1 -1</clus>
</clustering>
</event>
<event>
 9    1  0.9000149E-006  0.9278187E+02  0.7546771E-02  0.1305676E+00
          2   -1    0    0  502    0  0.00000000000E+00  0.00000000000E+00  0.47300795108E+03  0.47300795108E+03  0.00000000000E+00 0. -1.
         -2   -1    0    0    0  501 -0.00000000000E+00 -0.00000000000E+00 -0.52916423444E+02  0.52916423444E+02  0.00000000000E+00 0.  1.
         23    2    1    2    0    0  0.17337582058E+02 -0.47956299978E+01  0.56798537860E+02  0.10917057929E+03  0.91479788267E+02 0.  0.
         23    2    1    2    0    0  0.18126447867E+02 -0.33519582812E+02  0.49665134113E+02  0.98810113428E+02  0.76450522725E+02 0.  0.
        -11    1    4    4    0    0 -0.12881321007E+02 -0.41813073529E+02  0.53302080661E+01  0.44075760537E+02  0.00000000000E+00 0.  1.
         11    1    4    4    0    0  0.31007768874E+02  0.82934907173E+01  0.44334926047E+02  0.54734352891E+02  0.00000000000E+00 0. -1.
        -13    1    3    3    0    0 -0.35499905572E+02 -0.14494672708E+02  0.15285067094E+02  0.41279197044E+02  0.00000000000E+00 0.  1.
         13    1    3    3    0    0  0.52837487630E+02  0.96990427105E+01  0.41513470765E+02  0.67891382248E+02  0.00000000000E+00 0. -1.
         21    1    1    2  502  501 -0.35464029925E+02  0.38315212810E+02  0.31362785566E+03  0.31794368181E+03  0.00000000000E+00 0.  1.
<scales pt_clust_5="13000.00000" pt_clust_6="13000.00000" pt_clust_7="13000.00000" pt_clust_8="13000.00000" pt_clust_9="52.20874"></scales>
<clustering>
<clus scale="   52.209">  1  9  2 -1</clus>
<clus scale="   76.451">  5  6 -1 -1</clus>
<clus scale="   78.004">  1  5  2 -1</clus>
<clus scale="   91.480">  7  8 -1 -1</clus>
<clus scale="   52.209">  1  5  2 -1</clus>
</clustering>
</event>
<event>
 9    1  0.9000149E-006  0.1192900E+03  0.7546771E-02  0.1253857E+00
         -1   -1    0    0    0  501 -0.00000000000E+00  0.00000000000E+00  0.11530444040E+03  0.11530444040E+03  0.00000000000E+00 0.  1.
          1   -1    0    0  502    0  0.00000000000E+00 -0.00000000000E+00 -0.37465472398E+03  0.37465472398E+03  0.00000000000E+00 0. -1.
         23    2    1    2    0    0  0.29909375278E+02 -0.33110163142E+02  0.57928098908E+02  0.11739433168E+03  0.91841770641E+02 0.  0.
         23    2    1    2    0    0  0.15891790024E+02  0.50108191325E+01 -0.11282239633E+03  0.16116575476E+03  0.11387646857E+03 0.  0.
        -11    1    3    3    0    0  0.21050967321E+02  0.22457246759E+02  0.52507623540E+02  0.60864781992E+02  0.00000000000E+00 0.  1.
         11    1    3    3    0    0  0.88584079570E+01 -0.55567409901E+02  0.54204753681E+01  0.56529549687E+02  0.00000000000E+00 0. -1.
        -13    1    4    4    0    0  0.26294249554E+02 -0.22501052011E+02 -0.12472393652E+03  0.12943625938E+03  0.00000000000E+00 0.  1.
         13    1    4    4    0    0 -0.10402459530E+02  0.27511871144E+02  0.11901540189E+02  0.31729495378E+02  0.00000000000E+00 0. -1.
         21    1    1    2  502  501 -0.45801165303E+02  0.28099344010E+02 -0.20445598616E+03  0.21139907794E+03  0.00000000000E+00 0. -1.
<scales pt_clust_5="13000.00000" pt_clust_6="13000.00000" pt_clust_7="13000.00000" pt_clust_8="13000.00000" pt_clust_9="53.73379"></scales>
<clustering>
<clus scale="   53.734">  2  9  1 -1</clus>
<clus scale="   91.842">  5  6 -1 -1</clus>
<clus scale="   98.474">  1  5  2 -1</clus>
<clus scale="  113.876">  7  8 -1 -1</clus>
<clus scale="   53.734">  2  5  1 -1</clus>
</clustering>
</event>
<event>
 9    1  0.9000149E-006  0.9197543E+02  0.7546771E-02  0.1299023E+00
          2   -1    0    0  502    0  0.00000000000E+00  0.00000000000E+00  0.47229812576E+03  0.47229812576E+03  0.00000000000E+00 0. -1.
         -2   -1    0    0    0  501 -0.00000000000E+00 -0.00000000000E+00 -0.42072109505E+02  0.42072109505E+02  0.00000000000E+00 0.  1.
         23    2    1    2    0    0 -0.14472913040E+02  0.17448405089E+00  0.43852588315E+02  0.99391510263E+02  0.88012085271E+02 0.  0.
         23    2    1    2    0    0  0.31791155043E+02 -0.35443716758E+02  0.19701102121E+03  0.22158285802E+03  0.89547115504E+02 0.  0.
        -11    1    4    4    0    0  0.14970305603E+02 -0.59228277041E+02  0.17414317745E+03  0.18454794798E+03  0.00000000000E+00 0. -1.
         11    1    4    4    0    0  0.16820849439E+02  0.23784560283E+02  0.22867843760E+02  0.37034910044E+02  0.00000000000E+00 0.  1.
        -11    1    3    3    0    0 -0.13259594560E+02  0.43551331427E+02  0.18547647219E+02  0.49158422822E+02  0.00000000000E+00 0.  1.
         11    1    3    3    0    0 -0.12133184805E+01 -0.43376847376E+02  0.25304941096E+02  0.50233087441E+02  0.00000000000E+00 0. -1.
         21    1    1    2  502  501 -0.17318242003E+02  0.35269232707E+02  0.18936240673E+03  0.19339586698E+03  0.00000000000E+00 0. -1.
<scales pt_clust_5="13000.00000" pt_clust_6="13000.00000" pt_clust_7="13000.00000" pt_clust_8="13000.00000" pt_clust_9="39.29173"></scales>
<clustering>
<clus scale="   39.292">  1  9  2 -1</clus>
<clus scale="   88.012">  7  8 -1 -1</clus>
<clus scale="   89.547">  5  6 -1 -1</clus>
<clus scale="   90.482">  2  7  1 -1</clus>
<clus scale="   39.292">  1  5  2 -1</clus>
</clustering>
</event>
<event>
 9    1  0.9000149E-006  0.1117120E+03  0.7546771E-02  0.1258087E+00
          1   -1    0    0  502    0  0.00000000000E+00  0.00000000000E+00  0.28888528422E+03  0.28888528422E+03  0.00000000000E+00 0. -1.
         -1   -1    0    0    0  501 -0.00000000000E+00 -0.00000000000E+00 -0.69268696810E+02  0.69268696810E+02  0.00000000000E+00 0.  1.
         23    2    1    2    0    0  0.21474120282E+02  0.58624642390E+02  0.76657738048E+02  0.13520961226E+03  0.92234721809E+02 0.  0.
         23    2    1    2    0    0  0.31171289755E+02 -0.67871519397E+02  0.92101160357E+02  0.14916396173E+03  0.90493487550E+02 0.  0.
        -13    1    4    4    0    0 -0.47243416980E+01 -0.56012003494E+02  0.77678564069E+01  0.56745074967E+02  0.00000000000E+00 0.  1.
         13    1    4    4    0    0  0.35895631453E+02 -0.11859515903E+02  0.84333303950E+02  0.92418886760E+02  0.00000000000E+00 0. -1.
        -13    1    3    3    0    0  0.10496321293E+01  0.61275378461E+02  0.59606180158E+01  0.61573555202E+02  0.00000000000E+00 0.  1.
         13    1    3    3    0    0  0.20424488153E+02 -0.26507360705E+01  0.70697120032E+02  0.73636057056E+02  0.00000000000E+00 0. -1.
         21    1    1    2  502  501 -0.52645410037E+02  0.92468770073E+01  0.50857689005E+02  0.73780407042E+02  0.00000000000E+00 0.  1.
<scales pt_clust_5="13000.00000" pt_clust_6="13000.00000" pt_clust_7="13000.00000" pt_clust_8="13000.00000" pt_clust_9="53.45132"></scales>
<clustering>
<clus scale="   53.451">  1  9  2 -1</clus>
<clus scale="   90.493">  5  6 -1 -1</clus>
<clus scale="   92.235">  7  8 -1 -1</clus>
<clus scale="  110.279">  1  5  2 -1</clus>
<clus scale="   53.451">  1  5  2 -1</clus>
</clustering>
</event>
<event>
 9    1  0.9000149E-006  0.9898868E+02  0.7546771E-02  0.1282646E+00
         -1   -1    0    0    0  501 -0.00000000000E+00  0.00000000000E+00  0.30043225592E+02  0.30043225592E+02  0.00000000000E+00 0.  1.
          1   -1    0    0  502    0  0.00000000000E+00 -0.00000000000E+00 -0.89156554274E+03  0.89156554274E+03  0.00000000000E+00 0. -1.
         23    2    1    2    0    0  0.18548048124E+02 -0.26276665604E+02 -0.87861564083E+02  0.13033230908E+03  0.90732370749E+02 0.  0.
         23    2    1    2    0    0 -0.60533478738E+02  0.32847026591E+02 -0.42698371540E+03  0.44200448146E+03  0.91157222491E+02 0.  0.
        -11    1    3    3    0    0 -0.52463433562E+01 -0.52807311205E+02 -0.26365084118E+02  0.59255834277E+02  0.00000000000E+00 0.  1.
         11    1    3    3    0    0  0.23794391480E+02  0.26530645601E+02 -0.61496479965E+02  0.71076474800E+02  0.00000000000E+00 0. -1.
        -13    1    4    4    0    0 -0.84110076165E+02  0.16942984151E+02 -0.32322852789E+03  0.33442226431E+03  0.00000000000E+00 0.  1.
         13    1    4    4    0    0  0.23576597427E+02  0.15904042440E+02 -0.10375518751E+03  0.10758221715E+03  0.00000000000E+00 0. -1.
         21    1    1    2  502  501  0.41985430614E+02 -0.65703609867E+01 -0.34667703767E+03  0.34927197780E+03  0.00000000000E+00 0. -1.
<scales pt_clust_5="13000.00000" pt_clust_6="13000.00000" pt_clust_7="13000.00000" pt_clust_8="13000.00000" pt_clust_9="42.49642"></scales>
<clustering>
<clus scale="   42.496">  2  9  1 -1</clus>
<clus scale="   90.732">  5  6 -1 -1</clus>
<clus scale="   91.157">  7  8 -1 -1</clus>
<clus scale="   98.598">  1  5  2 -1</clus>
<clus scale="   42.496">  2  5  1 -1</clus>
</clustering>
</event>
<event>
 9    1  0.9000149E-006  0.1327053E+03  0.7546771E-02  0.1223523E+00
         -1   -1    0    0    0  501 -0.00000000000E+00  0.00000000000E+00  0.30293997250E+03  0.30293997250E+03  0.00000000000E+00 0.  1.
          1   -1    0    0  502    0  0.00000000000E+00 -0.00000000000E+00 -0.15697909622E+03  0.15697909622E+03  0.00000000000E+00 0. -1.
         23    2    1    2    0    0 -0.78031274133E+02  0.48044610264E+02  0.21542296282E+03  0.25122009356E+03  0.91144490658E+02 0.  0.
         23    2    1    2    0    0  0.11784712452E+03 -0.44980808740E+02 -0.45288023506E+02  0.16201842091E+03  0.91037056898E+02 0.  0.
        -13    1    4    4    0    0  0.10547328224E+03 -0.61914348722E+02 -0.12289139569E+02  0.12291876503E+03  0.00000000000E+00 0.  1.
         13    1    4    4    0    0  0.12373842278E+02  0.16933539982E+02 -0.32998883937E+02  0.39099655882E+02  0.00000000000E+00 0. -1.
        -13    1    3    3    0    0 -0.12194283275E+02  0.52098575215E+02  0.50413892166E+02  0.73515458288E+02  0.00000000000E+00 0. -1.
         13    1    3    3    0    0 -0.65836990858E+02 -0.40539649510E+01  0.16500907066E+03  0.17770463527E+03  0.00000000000E+00 0.  1.
         21    1    1    2  502  501 -0.39815850390E+02 -0.30638015236E+01 -0.24174063037E+02  0.46680554258E+02  0.00000000000E+00 0. -1.
<scales pt_clust_5="13000.00000" pt_clust_6="13000.00000" pt_clust_7="13000.00000" pt_clust_8="13000.00000" pt_clust_9="39.93356"></scales>
<clustering>
<clus scale="   39.934">  2  9  1 -1</clus>
<clus scale="   91.037">  5  6 -1 -1</clus>
<clus scale="   91.144">  7  8 -1 -1</clus>
<clus scale="  132.632">  2  5  1 -1</clus>
<clus scale="   39.934">  2  5  1 -1</clus>
</clustering>
</event>
<event>
 9    1  0.9000149E-006  0.1143173E+03  0.7546771E-02  0.1255173E+00
          1   -1    0    0  502    0  0.00000000000E+00  0.00000000000E+00  0.42821263225E+03  0.42821263225E+03  0.00000000000E+00 0. -1.
         -1   -1    0    0    0  501 -0.00000000000E+00 -0.00000000000E+00 -0.57333737613E+02  0.57333737613E+02  0.00000000000E+00 0.  1.
         23    2    1    2    0    0  0.69476111958E+02  0.25062427092E+02  0.47846882199E+02  0.12880646877E+03  0.94057040547E+02 0.  0.
         23    2    1    2    0    0 -0.24217467708E+02 -0.44266915185E+02  0.23729206149E+03  0.25790419686E+03  0.87527177442E+02 0.  0.
        -11    1    3    3    0    0  0.65057414453E+02 -0.14255771201E+02 -0.15365703111E+00  0.66601184662E+02  0.00000000000E+00 0.  1.
         11    1    3    3    0    0  0.44186975043E+01  0.39318198293E+02  0.48000539231E+02  0.62205284109E+02  0.00000000000E+00 0. -1.
        -13    1    4    4    0    0 -0.16814526352E+02  0.23655959930E+02  0.10595117904E+03  0.10985438123E+03  0.00000000000E+00 0. -1.
         13    1    4    4    0    0 -0.74029413560E+01 -0.67922875115E+02  0.13134088245E+03  0.14804981563E+03  0.00000000000E+00 0.  1.
         21    1    1    2  502  501 -0.45258644250E+02  0.19204488093E+02  0.85739950944E+02  0.98835704227E+02  0.00000000000E+00 0.  1.
<scales pt_clust_5="13000.00000" pt_clust_6="13000.00000" pt_clust_7="13000.00000" pt_clust_8="13000.00000" pt_clust_9="49.16459"></scales>
<clustering>
<clus scale="   49.165">  1  9  2 -1</clus>
<clus scale="   87.527">  7  8 -1 -1</clus>
<clus scale="   94.057">  5  6 -1 -1</clus>
<clus scale="  109.008">  1  7  2 -1</clus>
<clus scale="   49.165">  1  5  2 -1</clus>
</clustering>
</event>
<event>
 9    1  0.9000149E-006  0.1103007E+03  0.7546771E-02  0.1260706E+00
          2   -1    0    0  502    0  0.00000000000E+00  0.00000000000E+00  0.81140550501E+02  0.81140550501E+02  0.00000000000E+00 0. -1.
         -2   -1    0    0    0  501 -0.00000000000E+00 -0.00000000000E+00 -0.22134138727E+03  0.22134138727E+03  0.00000000000E+00 0.  1.
         23    2    1    2    0    0  0.61148872168E+02  0.36625606101E+00 -0.10156623768E+03  0.15038499147E+03  0.92523652727E+02 0.  0.
         23    2    1    2    0    0 -0.56756826055E+02  0.22019701389E+02 -0.24251455789E+01  0.10930038471E+03  0.90744080873E+02 0.  0.
        -11    1    4    4    0    0 -0.45802584175E+02  0.56492454129E+02 -0.58783819213E+01  0.72964576780E+02  0.00000000000E+00 0.  1.
         11    1    4    4    0    0 -0.10954241879E+02 -0.34472752740E+02  0.34532363425E+01  0.36335807930E+02  0.00000000000E+00 0. -1.
        -11    1    3    3    0    0  0.30518458278E+02 -0.36676470082E+02 -0.12735419513E+02  0.49383505986E+02  0.00000000000E+00 0.  1.
         11    1    3    3    0    0  0.30630413890E+02  0.37042726143E+02 -0.88830818164E+02  0.10100148549E+03  0.00000000000E+00 0. -1.
         21    1    1    2  502  501 -0.43920461135E+01 -0.22385957450E+02 -0.36209453516E+02  0.42796561590E+02  0.00000000000E+00 0. -1.
<scales pt_clust_5="13000.00000" pt_clust_6="13000.00000" pt_clust_7="13000.00000" pt_clust_8="13000.00000" pt_clust_9="22.81274"></scales>
<clustering>
<clus scale="   22.813">  2  9  1 -1</clus>
<clus scale="   90.744">  5  6 -1 -1</clus>
<clus scale="   92.524">  7  8 -1 -1</clus>
<clus scale="  108.812">  1  5  2 -1</clus>
<clus scale="  108.812">  1  5  2 -1</clus>
</clustering>
</event>
<event>
 9    1  0.9000149E-006  0.1070406E+03  0.7546771E-02  0.1268075E+00
          1   -1    0    0  502    0  0.00000000000E+00  0.00000000000E+00  0.44163901685E+02  0.44163901685E+02  0.00000000000E+00 0. -1.
         -1   -1    0    0    0  501 -0.00000000000E+00 -0.00000000000E+00 -0.38749251644E+03  0.38749251644E+03  0.00000000000E+00 0.  1.
         23    2    1    2    0    0  0.19045153462E+02 -0.52907205377E+02 -0.24842020774E+03  0.27017391168E+03  0.90108005686E+02 0.  0.
         23    2    1    2    0    0  0.51224444816E+01  0.38152280592E+02 -0.70344232990E+02  0.12399678595E+03  0.94578305431E+02 0.  0.
        -11    1    3    3    0    0  0.47131288981E+02 -0.59337393981E+02 -0.15719321305E+03  0.17450498834E+03  0.00000000000E+00 0.  1.
         11    1    3    3    0    0 -0.28086135519E+02  0.64301886040E+01 -0.91226994687E+02  0.95668923343E+02  0.00000000000E+00 0. -1.
        -11    1    4    4    0    0  0.17832480998E+02  0.14632357226E+02 -0.88645866156E+02  0.91597995846E+02  0.00000000000E+00 0.  1.
         11    1    4    4    0    0 -0.12710036517E+02  0.23519923366E+02  0.18301633166E+02  0.32398790100E+02  0.00000000000E+00 0. -1.
         21    1    1    2  502  501 -0.24167597943E+02  0.14754924785E+02 -0.24564174027E+02  0.37485720500E+02  0.00000000000E+00 0.  1.
<scales pt_clust_5="13000.00000" pt_clust_6="13000.00000" pt_clust_7="13000.00000" pt_clust_8="13000.00000" pt_clust_9="28.31573"></scales>
<clustering>
<clus scale="   28.316">  1  9  2 -1</clus>
<clus scale="   90.108">  5  6 -1 -1</clus>
<clus scale="   94.578">  7  8 -1 -1</clus>
<clus scale="  103.112">  2  5  1 -1</clus>
<clus scale="   28.316">  1  5  2 -1</clus>
</clustering>
</event>
<event>
 9    1  0.9000149E-006  0.9358008E+02  0.7546771E-02  0.1295655E+00
         -1   -1    0    0    0  501 -0.00000000000E+00  0.00000000000E+00  0.77603139823E+02  0.77603139823E+02  0.00000000000E+00 0.  1.
          1   -1    0    0  502    0  0.00000000000E+00 -0.00000000000E+00 -0.20468788755E+03  0.20468788755E+03  0.00000000000E+00 0. -1.
         23    2    1    2    0    0 -0.61029133773E+01  0.99299271796E+01  0.12240788722E+02  0.91638478900E+02  0.90066225085E+02 0.  0.
         23    2    1    2    0    0 -0.18939612407E+02 -0.78645896189E+01 -0.13555797511E+03  0.16524412005E+03  0.92244750019E+02 0.  0.
        -11    1    4    4    0    0  0.21823162833E+02  0.73974644787E+01 -0.11467551268E+03  0.11696771403E+03  0.00000000000E+00 0.  1.
         11    1    4    4    0    0 -0.40762775240E+02 -0.15262054098E+02 -0.20882462424E+02  0.48276406012E+02  0.00000000000E+00 0. -1.
        -13    1    3    3    0    0 -0.16814964512E+02 -0.29621166924E+02  0.31471031953E+02  0.46374372380E+02  0.00000000000E+00 0.  1.
         13    1    3    3    0    0  0.10712051134E+02  0.39551094103E+02 -0.19230243232E+02  0.45264106520E+02  0.00000000000E+00 0. -1.
         21    1    1    2  502  501  0.25042525785E+02 -0.20653375608E+01 -0.37675613449E+01  0.25408428432E+02  0.00000000000E+00 0.  1.
<scales pt_clust_5="13000.00000" pt_clust_6="13000.00000" pt_clust_7="13000.00000" pt_clust_8="13000.00000" pt_clust_9="25.12755"></scales>
<clustering>
<clus scale="   25.128">  1  9  2 -1</clus>
<clus scale="   90.066">  7  8 -1 -1</clus>
<clus scale="   91.433">  1  7  2 -1</clus>
<clus scale="   92.245">  5  6 -1 -1</clus>
<clus scale="   93.580">  2  5  1 -1</clus>
</clustering>
</event>
<event>
 9    1  0.9000149E-006  0.1003866E+03  0.7546771E-02  0.1280822E+00
         -1   -1    0    0    0  501 -0.00000000000E+00  0.00000000000E+00  0.84969297709E+02  0.84969297709E+02  0.00000000000E+00 0.  1.
          1   -1    0    0  502    0  0.00000000000E+00 -0.00000000000E+00 -0.26513899625E+03  0.26513899625E+03  0.00000000000E+00 0. -1.
         23    2    1    2    0    0 -0.36146716707E+02  0.72965562156E+01  0.19363393708E+02  0.97718156301E+02  0.88397240872E+02 0.  0.
         23    2    1    2    0    0  0.56756372057E+02 -0.54469458347E+01 -0.88008476093E+02  0.13896210338E+03  0.91181244357E+02 0.  0.
        -11    1    4    4    0    0 -0.22528702135E+02  0.13163220941E+02 -0.20620295611E+02  0.33256719569E+02  0.00000000000E+00 0.  1.
         11    1    4    4    0    0  0.79285074191E+02 -0.18610166776E+02 -0.67388180482E+02  0.10570538381E+03  0.00000000000E+00 0. -1.
        -13    1    3    3    0    0 -0.18253244772E+02 -0.23177038890E+02 -0.26611727851E+02  0.39730846148E+02  0.00000000000E+00 0. -1.
         13    1    3    3    0    0 -0.17893471935E+02  0.30473595105E+02  0.45975121559E+02  0.57987310154E+02  0.00000000000E+00 0.  1.
         21    1    1    2  502  501 -0.20609655350E+02 -0.18496103809E+01 -0.11152461616E+03  0.11342803428E+03  0.00000000000E+00 0. -1.
<scales pt_clust_5="13000.00000" pt_clust_6="13000.00000" pt_clust_7="13000.00000" pt_clust_8="13000.00000" pt_clust_9="20.69249"></scales>
<clustering>
<clus scale="   20.692">  2  9  1 -1</clus>
<clus scale="   88.397">  7  8 -1 -1</clus>
<clus scale="   91.181">  5  6 -1 -1</clus>
<clus scale="   97.865">  1  7  2 -1</clus>
<clus scale="   20.692">  2  5  1 -1</clus>
</clustering>
</event>
<event>
 9    1  0.9000149E-006  0.1525822E+03  0.7546771E-02  0.1198826E+00
         -3   -1    0    0    0  501 -0.00000000000E+00  0.00000000000E+00  0.22842979554E+03  0.22842979554E+03  0.00000000000E+00 0.  1.
          3   -1    0    0  502    0  0.00000000000E+00 -0.00000000000E+00 -0.13645097456E+03  0.13645097456E+03  0.00000000000E+00 0. -1.
         23    2    1    2    0    0  0.13134028881E+03  0.24120330569E+02  0.11491655669E+03  0.19779013987E+03  0.89905854186E+02 0.  0.
         23    2    1    2    0    0 -0.10427050270E+03 -0.56810893472E+01 -0.22868369248E+02  0.13433725256E+03  0.81356761275E+02 0.  0.
        -11    1    4    4    0    0 -0.63195349531E+02 -0.21181015490E+02  0.23320567997E+02  0.70612580403E+02  0.00000000000E+00 0.  1.
         11    1    4    4    0    0 -0.41075153169E+02  0.15499926143E+02 -0.46188937245E+02  0.63724672162E+02  0.00000000000E+00 0. -1.
        -13    1    3    3    0    0  0.12398443742E+03 -0.10531952093E+02  0.79273580863E+02  0.14753766760E+03  0.00000000000E+00 0.  1.
         13    1    3    3    0    0  0.73558513847E+01  0.34652282662E+02  0.35642975825E+02  0.50252472267E+02  0.00000000000E+00 0. -1.
         21    1    1    2  502  501 -0.27069786110E+02 -0.18439241222E+02 -0.69366465109E-01  0.32753377666E+02  0.00000000000E+00 0.  1.
<scales pt_clust_5="13000.00000" pt_clust_6="13000.00000" pt_clust_7="13000.00000" pt_clust_8="13000.00000" pt_clust_9="32.75330"></scales>
<clustering>
<clus scale="   32.753">  2  9  1 -1</clus>
<clus scale="   81.357">  5  6 -1 -1</clus>
<clus scale="   89.906">  7  8 -1 -1</clus>
<clus scale="  147.706">  2  5  1 -1</clus>
<clus scale="   32.753">  2  5  1 -1</clus>
</clustering>
</event>
<event>
 9    1  0.9000149E-006  0.9931029E+02  0.7546771E-02  0.1282248E+00
         -3   -1    0    0    0  501 -0.00000000000E+00  0.00000000000E+00  0.21690624621E+03  0.21690624621E+03  0.00000000000E+00 0.  1.
          3   -1    0    0  502    0  0.00000000000E+00 -0.00000000000E+00 -0.20640134015E+03  0.20640134015E+03  0.00000000000E+00 0. -1.
         23    2    1    2    0    0 -0.37724596886E+02 -0.83793188515E+01  0.17979394577E+03  0.20505805451E+03  0.90717057868E+02 0.  0.
         23    2    1    2    0    0  0.59190880139E+02  0.24467227813E+02 -0.14438173707E+03  0.18164357802E+03  0.89700044076E+02 0.  0.
        -11    1    4    4    0    0  0.23596876189E+02 -0.33899527240E+02 -0.45756387882E+02  0.61641200061E+02  0.00000000000E+00 0. -1.
         11    1    4    4    0    0  0.35594003950E+02  0.58366755053E+02 -0.98625349189E+02  0.12000237796E+03  0.00000000000E+00 0.  1.
        -11    1    3    3    0    0  0.21332415935E+02  0.17137393734E+02  0.23603368505E+02  0.36136978822E+02  0.00000000000E+00 0. -1.
         11    1    3    3    0    0 -0.59057012820E+02 -0.25516712585E+02  0.15619057727E+03  0.16892107569E+03  0.00000000000E+00 0.  1.
         21    1    1    2  502  501 -0.21466283253E+02 -0.16087908961E+02 -0.24907302637E+02  0.36605953834E+02  0.00000000000E+00 0.  1.
<scales pt_clust_5="13000.00000" pt_clust_6="13000.00000" pt_clust_7="13000.00000" pt_clust_8="13000.00000" pt_clust_9="26.82577"></scales>
<clustering>
<clus scale="   26.826">  2  9  1 -1</clus>
<clus scale="   89.700">  5  6 -1 -1</clus>
<clus scale="   90.717">  7  8 -1 -1</clus>
<clus scale="   98.382">  2  5  1 -1</clus>
<clus scale="   26.826">  2  5  1 -1</clus>
</clustering>
</event>
<event>
 9    1  0.9000149E-006  0.9132474E+02  0.7546771E-02  0.1300922E+00
         -3   -1    0    0    0  501 -0.00000000000E+00  0.00000000000E+00  0.19054965868E+03  0.19054965868E+03  0.00000000000E+00 0.  1.
          3   -1    0    0  502    0  0.00000000000E+00 -0.00000000000E+00 -0.27537248612E+03  0.27537248612E+03  0.00000000000E+00 0. -1.
         23    2    1    2    0    0 -0.51147689309E+01  0.41026831170E+00  0.16095076646E+03  0.18499253894E+03  0.91053616393E+02 0.  0.
         23    2    1    2    0    0  0.39346058782E+02 -0.11603350650E+02 -0.19980269505E+03  0.22253106273E+03  0.88973068075E+02 0.  0.
        -11    1    4    4    0    0 -0.14085783235E+02  0.23014661626E+02 -0.26150099444E+02  0.37575412706E+02  0.00000000000E+00 0.  1.
         11    1    4    4    0    0  0.53431842016E+02 -0.34618012276E+02 -0.17365259561E+03  0.18495565003E+03  0.00000000000E+00 0. -1.
        -13    1    3    3    0    0  0.32803786242E+02 -0.70515689241E+01  0.20495561329E+02  0.39317693858E+02  0.00000000000E+00 0. -1.
         13    1    3    3    0    0 -0.37918555173E+02  0.74618372358E+01  0.14045520513E+03  0.14567484509E+03  0.00000000000E+00 0.  1.
         21    1    1    2  502  501 -0.34231289851E+02  0.11193082338E+02 -0.45970898851E+02  0.58398543117E+02  0.00000000000E+00 0. -1.
<scales pt_clust_5="13000.00000" pt_clust_6="13000.00000" pt_clust_7="13000.00000" pt_clust_8="13000.00000" pt_clust_9="36.01481"></scales>
<clustering>
<clus scale="   36.015">  2  9  1 -1</clus>
<clus scale="   88.973">  5  6 -1 -1</clus>
<clus scale="   89.251">  2  5  1 -1</clus>
<clus scale="   91.054">  7  8 -1 -1</clus>
<clus scale="   36.015">  2  5  1 -1</clus>
</clustering>
</event>
<event>
 9    1  0.9000149E-006  0.1038475E+03  0.7546771E-02  0.1273374E+00
          1   -1    0    0  502    0  0.00000000000E+00  0.00000000000E+00  0.14228923874E+03  0.14228923874E+03  0.00000000000E+00 0. -1.
         -1   -1    0    0    0  501 -0.00000000000E+00 -0.00000000000E+00 -0.14980378647E+03  0.14980378647E+03  0.00000000000E+00 0.  1.
         23    2    1    2    0    0  0.32153561710E+02  0.35817662018E+02 -0.80856152599E+02  0.13208191063E+03  0.92688495831E+02 0.  0.
         23    2    1    2    0    0 -0.44640286272E+02 -0.16448704497E+02  0.23269756919E+02  0.10489065774E+03  0.90538684853E+02 0.  0.
        -13    1    3    3    0    0 -0.20164114544E+02  0.44535671640E+02 -0.24468216547E+02  0.54669106310E+02  0.00000000000E+00 0. -1.
         13    1    3    3    0    0  0.52317676254E+02 -0.87180096225E+01 -0.56387936052E+02  0.77412804320E+02  0.00000000000E+00 0.  1.
        -13    1    4    4    0    0 -0.70669857900E+02 -0.23394356213E+02  0.10859581767E+02  0.75229350883E+02  0.00000000000E+00 0. -1.
         13    1    4    4    0    0  0.26029571627E+02  0.69456517159E+01  0.12410175152E+02  0.29661306852E+02  0.00000000000E+00 0.  1.
         21    1    1    2  502  501  0.12486724562E+02 -0.19368957521E+02  0.50071847955E+02  0.55120456850E+02  0.00000000000E+00 0. -1.
<scales pt_clust_5="13000.00000" pt_clust_6="13000.00000" pt_clust_7="13000.00000" pt_clust_8="13000.00000" pt_clust_9="23.04506"></scales>
<clustering>
<clus scale="   23.045">  1  9  2 -1</clus>
<clus scale="   90.539">  7  8 -1 -1</clus>
<clus scale="   92.688">  5  6 -1 -1</clus>
<clus scale="  101.933">  1  7  2 -1</clus>
<clus scale="   23.045">  1  5  2 -1</clus>
</clustering>
</event>
<event>
 9    1  0.9000149E-006  0.1028940E+03  0.7546771E-02  0.1275555E+00
          3   -1    0    0  502    0  0.00000000000E+00  0.00000000000E+00  0.18241013681E+03  0.18241013681E+03  0.00000000000E+00 0. -1.
         -3   -1    0    0    0  501 -0.00000000000E+00 -0.00000000000E+00 -0.87577469225E+02  0.87577469225E+02  0.00000000000E+00 0.  1.
         23    2    1    2    0    0  0.55750387974E+02  0.33260428374E+02  0.14928093681E+02  0.11303452311E+03  0.91321375259E+02 0.  0.
         23    2    1    2    0    0 -0.16471903744E+02 -0.23925002421E+02  0.44801698340E+02  0.10345391121E+03  0.88610327937E+02 0.  0.
        -11    1    3    3    0    0  0.61640608648E+01 -0.26953535864E+02 -0.12507725963E+02  0.30346860640E+02  0.00000000000E+00 0.  1.
         11    1    3    3    0    0  0.49586327109E+02  0.60213964238E+02  0.27435819644E+02  0.82687662471E+02  0.00000000000E+00 0. -1.
        -11    1    4    4    0    0  0.26532410204E+02  0.23780611049E+01  0.45856357334E+02  0.53032343658E+02  0.00000000000E+00 0. -1.
         11    1    4    4    0    0 -0.43004313948E+02 -0.26303063526E+02 -0.10546589944E+01  0.50421567554E+02  0.00000000000E+00 0.  1.
         21    1    1    2  502  501 -0.39278484229E+02 -0.93354259535E+01  0.35102875566E+02  0.53499171714E+02  0.00000000000E+00 0. -1.
<scales pt_clust_5="13000.00000" pt_clust_6="13000.00000" pt_clust_7="13000.00000" pt_clust_8="13000.00000" pt_clust_9="40.37263"></scales>
<clustering>
<clus scale="   40.373">  1  9  2 -1</clus>
<clus scale="   88.610">  7  8 -1 -1</clus>
<clus scale="   91.321">  5  6 -1 -1</clus>
<clus scale="  100.496">  1  7  2 -1</clus>
<clus scale="   40.373">  1  5  2 -1</clus>
</clustering>
</event>
<event>
 9    1  0.9000149E-006  0.1089663E+03  0.7546771E-02  0.1263457E+00
          2   -1    0    0  502    0  0.00000000000E+00  0.00000000000E+00  0.32094187136E+03  0.32094187136E+03  0.00000000000E+00 0. -1.
         -2   -1    0    0    0  501 -0.00000000000E+00 -0.00000000000E+00 -0.70444311909E+02  0.70444311909E+02  0.00000000000E+00 0.  1.
         23    2    1    2    0    0 -0.24037365436E+02 -0.56921244752E+02  0.36838278657E+02  0.11650861276E+03  0.91648104353E+02 0.  0.
         23    2    1    2    0    0  0.46010740138E+02  0.37430124981E+02  0.69390626302E+02  0.12764925253E+03  0.89225950200E+02 0.  0.
        -11    1    4    4    0    0 -0.22773227449E+02 -0.53834156553E+01  0.28559338298E+02  0.36922037547E+02  0.00000000000E+00 0. -1.
         11    1    4    4    0    0  0.68783967587E+02  0.42813540636E+02  0.40831288004E+02  0.90727214985E+02  0.00000000000E+00 0.  1.
        -11    1    3    3    0    0  0.28555907144E+02 -0.93108678954E+00  0.26554360328E+02  0.39005650974E+02  0.00000000000E+00 0.  1.
         11    1    3    3    0    0 -0.52593272581E+02 -0.55990157963E+02  0.10283918329E+02  0.77502961786E+02  0.00000000000E+00 0. -1.
         21    1    1    2  502  501 -0.21973374701E+02  0.19491119771E+02  0.14426865450E+03  0.14722831798E+03  0.00000000000E+00 0.  1.
<scales pt_clust_5="13000.00000" pt_clust_6="13000.00000" pt_clust_7="13000.00000" pt_clust_8="13000.00000" pt_clust_9="29.37232"></scales>
<clustering>
<clus scale="   29.372">  1  9  2 -1</clus>
<clus scale="   89.226">  5  6 -1 -1</clus>
<clus scale="   91.648">  7  8 -1 -1</clus>
<clus scale="  106.937">  1  5  2 -1</clus>
<clus scale="   29.372">  1  5  2 -1</clus>
</clustering>
</event>
<event>
 9    1  0.9000149E-006  0.3219193E+03  0.7546771E-02  0.1074872E+00
          2   -1    0    0  502    0  0.00000000000E+00  0.00000000000E+00  0.55984882402E+03  0.55984882402E+03  0.00000000000E+00 0. -1.
         -2   -1    0    0    0  501 -0.00000000000E+00 -0.00000000000E+00 -0.69876476557E+03  0.69876476557E+03  0.00000000000E+00 0.  1.
         23    2    1    2    0    0 -0.11929693058E+03  0.30293833393E+03 -0.57206458594E+03  0.66453459703E+03  0.91350688842E+02 0.  0.
         23    2    1    2    0    0  0.16589422997E+03 -0.14928300828E+03  0.22065346273E+03  0.32774185725E+03  0.94448198936E+02 0.  0.
        -11    1    3    3    0    0 -0.34198777522E+02  0.28668453967E+02 -0.40038825792E+02  0.59954517825E+02  0.00000000000E+00 0. -1.
         11    1    3    3    0    0 -0.85098153055E+02  0.27426987996E+03 -0.53202576015E+03  0.60458007920E+03  0.00000000000E+00 0.  1.
        -13    1    4    4    0    0  0.14129342670E+03 -0.66884637901E+02  0.14037676261E+03  0.21010241002E+03  0.00000000000E+00 0. -1.
         13    1    4    4    0    0  0.24600803270E+02 -0.82398370378E+02  0.80276700119E+02  0.11763944723E+03  0.00000000000E+00 0.  1.
         21    1    1    2  502  501 -0.46597299396E+02 -0.15365532565E+03  0.21249518166E+03  0.26633713530E+03  0.00000000000E+00 0. -1.
<scales pt_clust_5="13000.00000" pt_clust_6="13000.00000" pt_clust_7="13000.00000" pt_clust_8="13000.00000" pt_clust_9="160.56546"></scales>
<clustering>
<clus scale="   91.351">  5  6 -1 -1</clus>
<clus scale="   94.448">  7  8 -1 -1</clus>
<clus scale="  160.565">  1  9  2 -1</clus>
<clus scale="  321.024">  2  5  1 -1</clus>
<clus scale="  160.565">  1  5  2 -1</clus>
</clustering>
</event>
<event>
 9    1  0.9000149E-006  0.9372850E+02  0.7546771E-02  0.1294521E+00
         -1   -1    0    0    0  501 -0.00000000000E+00  0.00000000000E+00  0.25459689089E+03  0.25459689089E+03  0.00000000000E+00 0.  1.
          1   -1    0    0  502    0  0.00000000000E+00 -0.00000000000E+00 -0.51012936975E+02  0.51012936975E+02  0.00000000000E+00 0. -1.
         23    2    1    2    0    0  0.14860307725E+02  0.13490869761E+02  0.10823791437E+03  0.14289679686E+03  0.91111009945E+02 0.  0.
         23    2    1    2    0    0 -0.28913841021E+02  0.58417629943E+01  0.10047081094E+03  0.13826889532E+03  0.90298212401E+02 0.  0.
        -11    1    3    3    0    0 -0.37647689628E+02 -0.25358705632E+01  0.52589874822E+02  0.64726147017E+02  0.00000000000E+00 0. -1.
         11    1    3    3    0    0  0.52507997354E+02  0.16026740324E+02  0.55648039551E+02  0.78170649846E+02  0.00000000000E+00 0.  1.
        -13    1    4    4    0    0 -0.30710498434E+02  0.45556463501E+02  0.52841320989E+02  0.76228152835E+02  0.00000000000E+00 0.  1.
         13    1    4    4    0    0  0.17966574132E+01 -0.39714700507E+02  0.47629489956E+02  0.62040742482E+02  0.00000000000E+00 0. -1.
         21    1    1    2  502  501  0.14053533295E+02 -0.19332632755E+02 -0.51247714047E+01  0.24444135683E+02  0.00000000000E+00 0. -1.
<scales pt_clust_5="13000.00000" pt_clust_6="13000.00000" pt_clust_7="13000.00000" pt_clust_8="13000.00000" pt_clust_9="23.90089"></scales>
<clustering>
<clus scale="   23.901">  2  9  1 -1</clus>
<clus scale="   90.298">  7  8 -1 -1</clus>
<clus scale="   91.111">  5  6 -1 -1</clus>
<clus scale="   92.939">  2  7  1 -1</clus>
<clus scale="   23.901">  2  5  1 -1</clus>
</clustering>
</event>
<event>
 9    1  0.9000149E-006  0.1110048E+03  0.7546771E-02  0.1261250E+00
         -1   -1    0    0    0  501 -0.00000000000E+00  0.00000000000E+00  0.11435638936E+03  0.11435638936E+03  0.00000000000E+00 0.  1.
          1   -1    0    0  502    0  0.00000000000E+00 -0.00000000000E+00 -0.24339223529E+03  0.24339223529E+03  0.00000000000E+00 0. -1.
         23    2    1    2    0    0 -0.47238171756E+02  0.42604957037E+02  0.54333270635E+02  0.12530955230E+03  0.93293903143E+02 0.  0.
         23    2    1    2    0    0  0.49950436915E+02 -0.16596940227E+02 -0.90667426256E+02  0.13611993248E+03  0.86819060472E+02 0.  0.
        -13    1    4    4    0    0  0.13724520158E+02 -0.28751685813E+02  0.57796605744E+01  0.32379412703E+02  0.00000000000E+00 0.  1.
         13    1    4    4    0    0  0.36225916757E+02  0.12154745586E+02 -0.96447086831E+02  0.10374051978E+03  0.00000000000E+00 0. -1.
        -13    1    3    3    0    0  0.20068132844E+02  0.37534698630E+02  0.34980766512E+02  0.55092990324E+02  0.00000000000E+00 0. -1.
         13    1    3    3    0    0 -0.67306304600E+02  0.50702584069E+01  0.19352504123E+02  0.70216561971E+02  0.00000000000E+00 0.  1.
         21    1    1    2  502  501 -0.27122651592E+01 -0.26008016810E+02 -0.92701690304E+02  0.96319139873E+02  0.00000000000E+00 0. -1.
<scales pt_clust_5="13000.00000" pt_clust_6="13000.00000" pt_clust_7="13000.00000" pt_clust_8="13000.00000" pt_clust_9="26.14906"></scales>
<clustering>
<clus scale="   26.149">  2  9  1 -1</clus>
<clus scale="   86.819">  5  6 -1 -1</clus>
<clus scale="   93.294">  7  8 -1 -1</clus>
<clus scale="  105.621">  2  5  1 -1</clus>
<clus scale="   26.149">  2  5  1 -1</clus>
</clustering>
</event>
<event>
 9    1  0.9000149E-006  0.1037545E+03  0.7546771E-02  0.1273661E+00
          1   -1    0    0  502    0  0.00000000000E+00  0.00000000000E+00  0.14831594582E+03  0.14831594582E+03  0.00000000000E+00 0. -1.
         -1   -1    0    0    0  501 -0.00000000000E+00 -0.00000000000E+00 -0.10104838742E+03  0.10104838742E+03  0.00000000000E+00 0.  1.
         23    2    1    2    0    0  0.60119547737E+02 -0.22063589419E+02 -0.37592796973E+01  0.11107141540E+03  0.90672846749E+02 0.  0.
         23    2    1    2    0    0 -0.32230880364E+02  0.31628614498E+01  0.44378517920E+02  0.10395321127E+03  0.88249554893E+02 0.  0.
        -11    1    4    4    0    0  0.21349763217E+02  0.27584365061E+02  0.12955013364E+02  0.37209433703E+02  0.00000000000E+00 0.  1.
         11    1    4    4    0    0 -0.53580643581E+02 -0.24421503611E+02  0.31423504557E+02  0.66743777566E+02  0.00000000000E+00 0. -1.
        -13    1    3    3    0    0  0.87460361489E+01  0.29818206352E+02  0.16657031933E+02  0.35257272884E+02  0.00000000000E+00 0. -1.
         13    1    3    3    0    0  0.51373511588E+02 -0.51881795771E+02 -0.20416311630E+02  0.75814142519E+02  0.00000000000E+00 0.  1.
         21    1    1    2  502  501 -0.27888667373E+02  0.18900727969E+02  0.66483201764E+01  0.34339706562E+02  0.00000000000E+00 0. -1.
<scales pt_clust_5="13000.00000" pt_clust_6="13000.00000" pt_clust_7="13000.00000" pt_clust_8="13000.00000" pt_clust_9="33.68999"></scales>
<clustering>
<clus scale="   33.690">  1  9  2 -1</clus>
<clus scale="   88.250">  5  6 -1 -1</clus>
<clus scale="   90.673">  7  8 -1 -1</clus>
<clus scale="  101.644">  1  5  2 -1</clus>
<clus scale="   33.690">  1  5  2 -1</clus>
</clustering>
</event>
<event>
 9    1  0.9000149E-006  0.1496160E+03  0.7546771E-02  0.1201553E+00
          2   -1    0    0  502    0  0.00000000000E+00  0.00000000000E+00  0.11679482201E+04  0.11679482201E+04  0.00000000000E+00 0. -1.
         -2   -1    0    0    0  501 -0.00000000000E+00 -0.00000000000E+00 -0.46672088993E+02  0.46672088993E+02  0.00000000000E+00 0.  1.
         23    2    1    2    0    0 -0.63017466337E+02  0.87439263279E+02  0.12287869624E+03  0.18818210262E+03  0.93255047748E+02 0.  0.
         23    2    1    2    0    0  0.10057550304E+03 -0.12233807597E+03  0.68222397300E+03  0.70613492638E+03  0.90083007709E+02 0.  0.
        -11    1    3    3    0    0 -0.19042632430E+02  0.48336744476E+02  0.11824466895E+03  0.12915442096E+03  0.00000000000E+00 0.  1.
         11    1    3    3    0    0 -0.43974833907E+02  0.39102518802E+02  0.46340272885E+01  0.59027681665E+02  0.00000000000E+00 0. -1.
        -13    1    4    4    0    0  0.10321228549E+03 -0.66222824512E+02  0.52635379867E+03  0.54045033050E+03  0.00000000000E+00 0. -1.
         13    1    4    4    0    0 -0.26367824454E+01 -0.56115251456E+02  0.15587017433E+03  0.16568459588E+03  0.00000000000E+00 0.  1.
         21    1    1    2  502  501 -0.37558036703E+02  0.34898812689E+02  0.31617346186E+03  0.32030328009E+03  0.00000000000E+00 0. -1.
<scales pt_clust_5="13000.00000" pt_clust_6="13000.00000" pt_clust_7="13000.00000" pt_clust_8="13000.00000" pt_clust_9="51.26922"></scales>
<clustering>
<clus scale="   51.269">  1  9  2 -1</clus>
<clus scale="   90.083">  7  8 -1 -1</clus>
<clus scale="   93.255">  5  6 -1 -1</clus>
<clus scale="  147.660">  1  7  2 -1</clus>
<clus scale="   51.269">  1  5  2 -1</clus>
</clustering>
</event>
<event>
 9    1  0.9000149E-006  0.1428302E+03  0.7546771E-02  0.1214130E+00
          2   -1    0    0  502    0  0.00000000000E+00  0.00000000000E+00  0.24284297895E+03  0.24284297895E+03  0.00000000000E+00 0. -1.
         -2   -1    0    0    0  501 -0.00000000000E+00 -0.00000000000E+00 -0.13059139335E+03  0.13059139335E+03  0.00000000000E+00 0.  1.
         23    2    1    2    0    0  0.82446998363E+01  0.91074843475E+02 -0.76680887890E+01  0.13469499162E+03  0.98596850819E+02 0.  0.
         23    2    1    2    0    0  0.56725468159E+01 -0.12113785719E+03  0.36328799387E+02  0.14882325903E+03  0.78243354543E+02 0.  0.
        -11    1    4    4    0    0 -0.21240093730E+02 -0.22763049959E+02 -0.15098271607E+02  0.34601384807E+02  0.00000000000E+00 0.  1.
         11    1    4    4    0    0  0.26912640546E+02 -0.98374807236E+02  0.51427070993E+02  0.11422187422E+03  0.00000000000E+00 0. -1.
        -13    1    3    3    0    0 -0.38488287495E+02  0.70609178999E+02 -0.18550314629E+02  0.82529501429E+02  0.00000000000E+00 0.  1.
         13    1    3    3    0    0  0.46732987331E+02  0.20465664476E+02  0.10882225840E+02  0.52165490188E+02  0.00000000000E+00 0. -1.
         21    1    1    2  502  501 -0.13917246652E+02  0.30063013719E+02  0.83590875004E+02  0.89916121648E+02  0.00000000000E+00 0.  1.
<scales pt_clust_5="13000.00000" pt_clust_6="13000.00000" pt_clust_7="13000.00000" pt_clust_8="13000.00000" pt_clust_9="33.12815"></scales>
<clustering>
<clus scale="   33.128">  1  9  2 -1</clus>
<clus scale="   78.243">  5  6 -1 -1</clus>
<clus scale="   98.597">  7  8 -1 -1</clus>
<clus scale="  129.619">  1  5  2 -1</clus>
<clus scale="   33.128">  1  5  2 -1</clus>
</clustering>
</event>
<event>
 9    1  0.9000149E-006  0.1081828E+03  0.7546771E-02  0.1267844E+00
         -1   -1    0    0    0  501 -0.00000000000E+00  0.00000000000E+00  0.64097297780E+02  0.64097297780E+02  0.00000000000E+00 0.  1.
          1   -1    0    0  502    0  0.00000000000E+00 -0.00000000000E+00 -0.67951486509E+03  0.67951486509E+03  0.00000000000E+00 0. -1.
         23    2    1    2    0    0 -0.24062198715E+02 -0.63404936490E+02 -0.15221511394E+02  0.10784762434E+03  0.82463569468E+02 0.  0.
         23    2    1    2    0    0  0.48993859831E+02  0.53394226683E+01 -0.15938930196E+03  0.19045140605E+03  0.91857937880E+02 0.  0.
        -13    1    3    3    0    0 -0.46289943024E+02 -0.66330758659E+02 -0.23041038099E+02  0.84103613514E+02  0.00000000000E+00 0. -1.
         13    1    3    3    0    0  0.22227744309E+02  0.29258221696E+01  0.78195267046E+01  0.23744010831E+02  0.00000000000E+00 0.  1.
        -13    1    4    4    0    0  0.34928475353E+02  0.45031039540E+02 -0.11975114891E+03  0.13262024950E+03  0.00000000000E+00 0.  1.
         13    1    4    4    0    0  0.14065384479E+02 -0.39691616872E+02 -0.39638153042E+02  0.57831156542E+02  0.00000000000E+00 0. -1.
         21    1    1    2  502  501 -0.24931661117E+02  0.58065513821E+02 -0.44080675396E+03  0.44531313248E+03  0.00000000000E+00 0. -1.
<scales pt_clust_5="13000.00000" pt_clust_6="13000.00000" pt_clust_7="13000.00000" pt_clust_8="13000.00000" pt_clust_9="63.19171"></scales>
<clustering>
<clus scale="   63.192">  2  9  1 -1</clus>
<clus scale="   82.464">  5  6 -1 -1</clus>
<clus scale="   91.858">  7  8 -1 -1</clus>
<clus scale="  100.329">  1  5  2 -1</clus>
<clus scale="   63.192">  2  5  1 -1</clus>
</clustering>
</event>
<event>
 9    1  0.9000149E-006  0.1356907E+03  0.7546771E-02  0.1220022E+00
         -3   -1    0    0    0  501 -0.00000000000E+00  0.00000000000E+00  0.13324146449E+03  0.13324146449E+03  0.00000000000E+00 0.  1.
          3   -1    0    0  502    0  0.00000000000E+00 -0.00000000000E+00 -0.20004162692E+03  0.20004162692E+03  0.00000000000E+00 0. -1.
         23    2    1    2    0    0  0.11736277793E+03 -0.44072179621E+01  0.24772313830E+02  0.14775817601E+03  0.86170562447E+02 0.  0.
         23    2    1    2    0    0 -0.78045859292E+02 -0.80915170042E+01 -0.58452373289E+02  0.13261953110E+03  0.89524473108E+02 0.  0.
        -13    1    3    3    0    0  0.42885415094E+02 -0.38020145170E+02 -0.11339143828E+02  0.58423167060E+02  0.00000000000E+00 0. -1.
         13    1    3    3    0    0  0.74477362835E+02  0.33612927207E+02  0.36111457658E+02  0.89335008952E+02  0.00000000000E+00 0.  1.
        -13    1    4    4    0    0 -0.71139237864E+02  0.19524460467E+02 -0.73651420238E+01  0.74136637619E+02  0.00000000000E+00 0. -1.
         13    1    4    4    0    0 -0.69066214280E+01 -0.27615977472E+02 -0.51087231265E+02  0.58482893478E+02  0.00000000000E+00 0.  1.
         21    1    1    2  502  501 -0.39316918638E+02  0.12498734966E+02 -0.33120102976E+02  0.52905384301E+02  0.00000000000E+00 0.  1.
<scales pt_clust_5="13000.00000" pt_clust_6="13000.00000" pt_clust_7="13000.00000" pt_clust_8="13000.00000" pt_clust_9="41.25577"></scales>
<clustering>
<clus scale="   41.256">  2  9  1 -1</clus>
<clus scale="   86.171">  5  6 -1 -1</clus>
<clus scale="   89.524">  7  8 -1 -1</clus>
<clus scale="  133.502">  1  5  2 -1</clus>
<clus scale="   41.256">  2  5  1 -1</clus>
</clustering>
</event>
<event>
 9    1  0.9000149E-006  0.1060529E+03  0.7546771E-02  0.1268255E+00
          2   -1    0    0  502    0  0.00000000000E+00  0.00000000000E+00  0.13171504186E+03  0.13171504186E+03  0.00000000000E+00 0. -1.
         -2   -1    0    0    0  501 -0.00000000000E+00 -0.00000000000E+00 -0.11632266840E+03  0.11632266840E+03  0.00000000000E+00 0.  1.
         23    2    1    2    0    0  0.23802213573E+02  0.52451801085E+02 -0.27946098430E+02  0.11233204007E+03  0.92302578519E+02 0.  0.
         23    2    1    2    0    0 -0.25624621715E-01 -0.43082981793E+02  0.40445315892E+02  0.10998658567E+03  0.92763578374E+02 0.  0.
        -11    1    3    3    0    0 -0.34965030397E+01  0.40955379825E+02  0.27510159494E+02  0.49460868830E+02  0.00000000000E+00 0. -1.
         11    1    3    3    0    0  0.27298716612E+02  0.11496421261E+02 -0.55456257923E+02  0.62871171242E+02  0.00000000000E+00 0.  1.
        -13    1    4    4    0    0 -0.24296254946E+02 -0.31997032598E+02  0.63220094971E+02  0.74905931058E+02  0.00000000000E+00 0.  1.
         13    1    4    4    0    0  0.24270630324E+02 -0.11085949195E+02 -0.22774779079E+02  0.35080654611E+02  0.00000000000E+00 0. -1.
         21    1    1    2  502  501 -0.23776588951E+02 -0.93688192925E+01  0.28931560015E+01  0.25719084524E+02  0.00000000000E+00 0.  1.
<scales pt_clust_5="13000.00000" pt_clust_6="13000.00000" pt_clust_7="13000.00000" pt_clust_8="13000.00000" pt_clust_9="25.55584"></scales>
<clustering>
<clus scale="   25.556">  1  9  2 -1</clus>
<clus scale="   92.303">  5  6 -1 -1</clus>
<clus scale="   92.764">  7  8 -1 -1</clus>
<clus scale="  105.650">  2  5  1 -1</clus>
<clus scale="   25.556">  1  5  2 -1</clus>
</clustering>
</event>
<event>
 9    1  0.9000149E-006  0.1002041E+03  0.7546771E-02  0.1280906E+00
          4   -1    0    0  502    0  0.00000000000E+00  0.00000000000E+00  0.36767975066E+02  0.36767975066E+02  0.00000000000E+00 0. -1.
         -4   -1    0    0    0  501 -0.00000000000E+00 -0.00000000000E+00 -0.44844998637E+03  0.44844998637E+03  0.00000000000E+00 0.  1.
         23    2    1    2    0    0 -0.18755327508E+02 -0.26236048039E+02 -0.24608582833E+03  0.26563077827E+03  0.94664581188E+02 0.  0.
         23    2    1    2    0    0 -0.40345280724E+01  0.22386253560E+02 -0.16919033868E+03  0.19619666393E+03  0.96697148213E+02 0.  0.
        -11    1    3    3    0    0  0.21776366651E+02 -0.45788833910E+02 -0.16823183651E+03  0.17570651175E+03  0.00000000000E+00 0. -1.
         11    1    3    3    0    0 -0.40531694159E+02  0.19552785871E+02 -0.77853991822E+02  0.89924266520E+02  0.00000000000E+00 0.  1.
        -11    1    4    4    0    0 -0.17647157950E+02 -0.30628412583E+02 -0.11017378592E+03  0.11570559600E+03  0.00000000000E+00 0.  1.
         11    1    4    4    0    0  0.13612629877E+02  0.53014666143E+02 -0.59016552751E+02  0.80491067933E+02  0.00000000000E+00 0. -1.
         21    1    1    2  502  501  0.22789855581E+02  0.38497944790E+01  0.35941556996E+01  0.23390519236E+02  0.00000000000E+00 0. -1.
<scales pt_clust_5="13000.00000" pt_clust_6="13000.00000" pt_clust_7="13000.00000" pt_clust_8="13000.00000" pt_clust_9="23.11273"></scales>
<clustering>
<clus scale="   23.113">  1  9  2 -1</clus>
<clus scale="   94.665">  5  6 -1 -1</clus>
<clus scale="   96.697">  7  8 -1 -1</clus>
<clus scale="   98.244">  2  5  1 -1</clus>
<clus scale="   23.113">  1  5  2 -1</clus>
</clustering>
</event>
<event>
 9    1  0.9000149E-006  0.1021792E+03  0.7546771E-02  0.1278164E+00
         -2   -1    0    0    0  501 -0.00000000000E+00  0.00000000000E+00  0.97314851932E+02  0.97314851932E+02  0.00000000000E+00 0.  1.
          2   -1    0    0  502    0  0.00000000000E+00 -0.00000000000E+00 -0.32105863906E+03  0.32105863906E+03  0.00000000000E+00 0. -1.
         23    2    1    2    0    0 -0.78859244950E+01 -0.36018130470E+02  0.48128391243E+02  0.10787637432E+03  0.89227106668E+02 0.  0.
         23    2    1    2    0    0 -0.15586092622E+02  0.62063346917E+02 -0.19127105852E+03  0.22260041931E+03  0.94188871604E+02 0.  0.
        -11    1    4    4    0    0  0.27387791812E+02  0.53791593324E+02 -0.15295255335E+03  0.16443269209E+03  0.00000000000E+00 0. -1.
         11    1    4    4    0    0 -0.42973884433E+02  0.82717535925E+01 -0.38318505176E+02  0.58167727218E+02  0.00000000000E+00 0.  1.
        -11    1    3    3    0    0  0.30702569030E+02 -0.27535738280E+02 -0.51337880569E+01  0.41559841283E+02  0.00000000000E+00 0. -1.
         11    1    3    3    0    0 -0.38588493525E+02 -0.84823921894E+01  0.53262179300E+02  0.66316533033E+02  0.00000000000E+00 0.  1.
         21    1    1    2  502  501  0.23472017117E+02 -0.26045216447E+02 -0.80601119843E+02  0.87896697362E+02  0.00000000000E+00 0. -1.
<scales pt_clust_5="13000.00000" pt_clust_6="13000.00000" pt_clust_7="13000.00000" pt_clust_8="13000.00000" pt_clust_9="35.06122"></scales>
<clustering>
<clus scale="   35.061">  2  9  1 -1</clus>
<clus scale="   89.227">  7  8 -1 -1</clus>
<clus scale="   94.189">  5  6 -1 -1</clus>
<clus scale="   97.624">  1  7  2 -1</clus>
<clus scale="   35.061">  2  5  1 -1</clus>
</clustering>
</event>
<event>
 9    1  0.9000149E-006  0.1447079E+03  0.7546771E-02  0.1208017E+00
         -2   -1    0    0    0  501 -0.00000000000E+00  0.00000000000E+00  0.73101561215E+03  0.73101561215E+03  0.00000000000E+00 0.  1.
          2   -1    0    0  502    0  0.00000000000E+00 -0.00000000000E+00 -0.11547141112E+03  0.11547141112E+03  0.00000000000E+00 0. -1.
         23    2    1    2    0    0 -0.21394849810E+02 -0.10946148713E+03  0.60802695409E+03  0.62414227867E+03  0.86123460005E+02 0.  0.
         23    2    1    2    0    0  0.46189235883E+02  0.11458850969E+03  0.59658189732E+02  0.16438160237E+03  0.90544130295E+02 0.  0.
        -13    1    4    4    0    0  0.59307324434E+02  0.29323572974E+02  0.17905986053E+02  0.68540900199E+02  0.00000000000E+00 0. -1.
         13    1    4    4    0    0 -0.13118088551E+02  0.85264936717E+02  0.41752203679E+02  0.95840702171E+02  0.00000000000E+00 0.  1.
        -13    1    3    3    0    0 -0.49951443319E+02 -0.64732464893E+02  0.45204704197E+03  0.45938215775E+03  0.00000000000E+00 0.  1.
         13    1    3    3    0    0  0.28556593508E+02 -0.44729022234E+02  0.15597991212E+03  0.16476012093E+03  0.00000000000E+00 0. -1.
         21    1    1    2  502  501 -0.24794386073E+02 -0.51270225639E+01 -0.52140942799E+02  0.57963142229E+02  0.00000000000E+00 0.  1.
<scales pt_clust_5="13000.00000" pt_clust_6="13000.00000" pt_clust_7="13000.00000" pt_clust_8="13000.00000" pt_clust_9="25.31892"></scales>
<clustering>
<clus scale="   25.319">  2  9  1 -1</clus>
<clus scale="   86.123">  7  8 -1 -1</clus>
<clus scale="   90.544">  5  6 -1 -1</clus>
<clus scale="  141.984">  1  7  2 -1</clus>
<clus scale="   25.319">  2  5  1 -1</clus>
</clustering>
</event>
<event>
 9    1  0.9000149E-006  0.9678914E+02  0.7546771E-02  0.1288945E+00
          1   -1    0    0  502    0  0.00000000000E+00  0.00000000000E+00  0.15868072894E+03  0.15868072894E+03  0.00000000000E+00 0. -1.
         -1   -1    0    0    0  501 -0.00000000000E+00 -0.00000000000E+00 -0.84434538218E+02  0.84434538218E+02  0.00000000000E+00 0.  1.
         23    2    1    2    0    0  0.25401407060E+02 -0.81794318212E+01 -0.10048808826E+02  0.99188667324E+02  0.95001466206E+02 0.  0.
         23    2    1    2    0    0 -0.17720641211E+01  0.63893541489E+00  0.67517393838E+02  0.11398176744E+03  0.91813378045E+02 0.  0.
        -11    1    4    4    0    0 -0.26938944824E+02 -0.32628929634E+02  0.10967676128E+02  0.43710910732E+02  0.00000000000E+00 0. -1.
         11    1    4    4    0    0  0.25166880703E+02  0.33267865049E+02  0.56549717709E+02  0.70270856706E+02  0.00000000000E+00 0.  1.
        -13    1    3    3    0    0 -0.31911791487E+02  0.16344773241E+02  0.10462131964E+01  0.35869326872E+02  0.00000000000E+00 0. -1.
         13    1    3    3    0    0  0.57313198547E+02 -0.24524205062E+02 -0.11095022022E+02  0.63319340452E+02  0.00000000000E+00 0.  1.
         21    1    1    2  502  501 -0.23629342939E+02  0.75404964063E+01  0.16777605706E+02  0.29944832392E+02  0.00000000000E+00 0. -1.
<scales pt_clust_5="13000.00000" pt_clust_6="13000.00000" pt_clust_7="13000.00000" pt_clust_8="13000.00000" pt_clust_9="24.80333"></scales>
<clustering>
<clus scale="   24.803">  1  9  2 -1</clus>
<clus scale="   91.813">  5  6 -1 -1</clus>
<clus scale="   93.662">  1  5  2 -1</clus>
<clus scale="   95.001">  7  8 -1 -1</clus>
<clus scale="   24.803">  1  5  2 -1</clus>
</clustering>
</event>
<event>
 9    1  0.9000149E-006  0.1057290E+03  0.7546771E-02  0.1274574E+00
         -1   -1    0    0    0  501 -0.00000000000E+00  0.00000000000E+00  0.18366080598E+03  0.18366080598E+03  0.00000000000E+00 0.  1.
          1   -1    0    0  502    0  0.00000000000E+00 -0.00000000000E+00 -0.78774448281E+02  0.78774448281E+02  0.00000000000E+00 0. -1.
         23    2    1    2    0    0  0.26554004195E+02 -0.27268435237E+02  0.76791256550E+02  0.12429794248E+03  0.90024434035E+02 0.  0.
         23    2    1    2    0    0 -0.45128801976E+01  0.14509573787E+02  0.39414182633E+02  0.11026759168E+03  0.10185563393E+03 0.  0.
        -11    1    4    4    0    0 -0.21949094408E+02  0.49369815589E+02  0.45726961562E+02  0.70782034799E+02  0.00000000000E+00 0. -1.
         11    1    4    4    0    0  0.17436214210E+02 -0.34860241802E+02 -0.63127789292E+01  0.39485556882E+02  0.00000000000E+00 0.  1.
        -13    1    3    3    0    0 -0.28833915406E+02 -0.22988612406E+02  0.51291851491E+02  0.63172185393E+02  0.00000000000E+00 0.  1.
         13    1    3    3    0    0  0.55387919601E+02 -0.42798228303E+01  0.25499405059E+02  0.61125757088E+02  0.00000000000E+00 0. -1.
         21    1    1    2  502  501 -0.22041123997E+02  0.12758861450E+02 -0.11319081486E+02  0.27869720096E+02  0.00000000000E+00 0. -1.
<scales pt_clust_5="13000.00000" pt_clust_6="13000.00000" pt_clust_7="13000.00000" pt_clust_8="13000.00000" pt_clust_9="25.46762"></scales>
<clustering>
<clus scale="   25.468">  2  9  1 -1</clus>
<clus scale="   90.024">  7  8 -1 -1</clus>
<clus scale="   94.385">  1  7  2 -1</clus>
<clus scale="  101.856">  5  6 -1 -1</clus>
<clus scale="   25.468">  2  5  1 -1</clus>
</clustering>
</event>
<event>
 9    1  0.9000149E-006  0.9320725E+02  0.7546771E-02  0.1297620E+00
         -1   -1    0    0    0  501 -0.00000000000E+00  0.00000000000E+00  0.30515915254E+02  0.30515915254E+02  0.00000000000E+00 0.  1.
          1   -1    0    0  502    0  0.00000000000E+00 -0.00000000000E+00 -0.95454142102E+03  0.95454142102E+03  0.00000000000E+00 0. -1.
         23    2    1    2    0    0  0.12100986117E+02  0.24771721168E+01 -0.78267488545E+02  0.12193453820E+03  0.92680427260E+02 0.  0.
         23    2    1    2    0    0  0.38744693689E+02 -0.40547026550E+02 -0.43450548077E+03  0.44699391694E+03  0.88675454964E+02 0.  0.
        -13    1    4    4    0    0  0.63984054615E+02 -0.16024660084E+02 -0.22190610137E+03  0.23150176415E+03  0.00000000000E+00 0.  1.
         13    1    4    4    0    0 -0.25239360927E+02 -0.24522366465E+02 -0.21259937939E+03  0.21549215279E+03  0.00000000000E+00 0. -1.
        -13    1    3    3    0    0  0.43929344068E+02  0.10353653808E+02 -0.10038421316E+02  0.46235866164E+02  0.00000000000E+00 0.  1.
         13    1    3    3    0    0 -0.31828357951E+02 -0.78764816917E+01 -0.68229067229E+02  0.75698672040E+02  0.00000000000E+00 0. -1.
         21    1    1    2  502  501 -0.50845679806E+02  0.38069854433E+02 -0.41125253645E+03  0.41612888113E+03  0.00000000000E+00 0. -1.
<scales pt_clust_5="13000.00000" pt_clust_6="13000.00000" pt_clust_7="13000.00000" pt_clust_8="13000.00000" pt_clust_9="63.51848"></scales>
<clustering>
<clus scale="   63.518">  2  9  1 -1</clus>
<clus scale="   88.675">  5  6 -1 -1</clus>
<clus scale="   89.226">  2  5  1 -1</clus>
<clus scale="   92.680">  7  8 -1 -1</clus>
<clus scale="   63.518">  2  5  1 -1</clus>
</clustering>
</event>
<event>
 9    1  0.9000149E-006  0.9653687E+02  0.7546771E-02  0.1288900E+00
         -2   -1    0    0    0  501 -0.00000000000E+00  0.00000000000E+00  0.91527413536E+02  0.91527413536E+02  0.00000000000E+00 0.  1.
          2   -1    0    0  502    0  0.00000000000E+00 -0.00000000000E+00 -0.45686930289E+03  0.45686930289E+03  0.00000000000E+00 0. -1.
         23    2    1    2    0    0 -0.36446237382E+02 -0.16138820826E+02  0.21324034328E+02  0.10130593415E+03  0.90660841037E+02 0.  0.
         23    2    1    2    0    0  0.61358515710E+01 -0.20668888450E+02 -0.51023574662E+02  0.10807852083E+03  0.92804686683E+02 0.  0.
        -11    1    3    3    0    0 -0.10490661989E+02 -0.30742264660E+02 -0.28530429822E+02  0.43233392780E+02  0.00000000000E+00 0. -1.
         11    1    3    3    0    0 -0.25955575393E+02  0.14603443834E+02  0.49854464150E+02  0.58072541373E+02  0.00000000000E+00 0.  1.
        -11    1    4    4    0    0  0.35159355215E+02 -0.36512049739E+02 -0.54975446698E+02  0.74777067172E+02  0.00000000000E+00 0.  1.
         11    1    4    4    0    0 -0.29023503644E+02  0.15843161289E+02  0.39518720360E+01  0.33301453662E+02  0.00000000000E+00 0. -1.
         21    1    1    2  502  501  0.30310385811E+02  0.36807709276E+02 -0.33564234902E+03  0.33901226144E+03  0.00000000000E+00 0. -1.
<scales pt_clust_5="13000.00000" pt_clust_6="13000.00000" pt_clust_7="13000.00000" pt_clust_8="13000.00000" pt_clust_9="47.68152"></scales>
<clustering>
<clus scale="   47.682">  2  9  1 -1</clus>
<clus scale="   90.661">  5  6 -1 -1</clus>
<clus scale="   92.805">  7  8 -1 -1</clus>
<clus scale="   94.478">  1  5  2 -1</clus>
<clus scale="   47.682">  2  5  1 -1</clus>
</clustering>
</event>
<event>
 9    1  0.9000149E-006  0.9711043E+02  0.7546771E-02  0.1288960E+00
          1   -1    0    0  502    0  0.00000000000E+00  0.00000000000E+00  0.64880635849E+02  0.64880635849E+02  0.00000000000E+00 0. -1.
         -1   -1    0    0    0  501 -0.00000000000E+00 -0.00000000000E+00 -0.18344231712E+03  0.18344231712E+03  0.00000000000E+00 0.  1.
         23    2    1    2    0    0 -0.11564820825E+02  0.31007144580E+02 -0.78172428457E+02  0.12204384859E+03  0.87684572832E+02 0.  0.
         23    2    1    2    0    0 -0.95356728340E+01 -0.28380480623E+02 -0.40090773192E+02  0.10501365620E+03  0.92326687131E+02 0.  0.
        -11    1    4    4    0    0 -0.41159649839E+02 -0.40494426624E+02 -0.78777390429E+01  0.58274987215E+02  0.00000000000E+00 0. -1.
         11    1    4    4    0    0  0.31623977005E+02  0.12113946001E+02 -0.32213034149E+02  0.46738668985E+02  0.00000000000E+00 0.  1.
        -13    1    3    3    0    0 -0.38307049785E+02 -0.13795995832E+02 -0.26311336819E+02  0.48477273123E+02  0.00000000000E+00 0. -1.
         13    1    3    3    0    0  0.26742228959E+02  0.44803140412E+02 -0.51861091639E+02  0.73566575471E+02  0.00000000000E+00 0.  1.
         21    1    1    2  502  501  0.21100493659E+02 -0.26266639570E+01 -0.29847962449E+00  0.21265448180E+02  0.00000000000E+00 0.  1.
<scales pt_clust_5="13000.00000" pt_clust_6="13000.00000" pt_clust_7="13000.00000" pt_clust_8="13000.00000" pt_clust_9="21.26335"></scales>
<clustering>
<clus scale="   21.263">  1  9  2 -1</clus>
<clus scale="   87.685">  7  8 -1 -1</clus>
<clus scale="   92.327">  5  6 -1 -1</clus>
<clus scale="   92.708">  2  7  1 -1</clus>
<clus scale="   21.263">  1  5  2 -1</clus>
</clustering>
</event>
<event>
 9    1  0.9000149E-006  0.1181993E+03  0.7546771E-02  0.1247164E+00
          2   -1    0    0  502    0  0.00000000000E+00  0.00000000000E+00  0.67739815849E+02  0.67739815849E+02  0.00000000000E+00 0. -1.
         -2   -1    0    0    0  501 -0.00000000000E+00 -0.00000000000E+00 -0.66886858967E+03  0.66886858967E+03  0.00000000000E+00 0.  1.
         23    2    1    2    0    0  0.84902299384E+02 -0.20574348108E+02 -0.55489865227E+03  0.56921276449E+03  0.91972565106E+02 0.  0.
         23    2    1    2    0    0 -0.19033360831E+02  0.18271892367E+01 -0.38067822269E+02  0.98426110351E+02  0.88729547849E+02 0.  0.
        -11    1    4    4    0    0  0.21254744040E+02 -0.14150305908E+02  0.15229502648E+02  0.29731011628E+02  0.00000000000E+00 0.  1.
         11    1    4    4    0    0 -0.40288104871E+02  0.15977495145E+02 -0.53297324917E+02  0.68695098723E+02  0.00000000000E+00 0. -1.
        -13    1    3    3    0    0  0.10166072709E+03 -0.49706073389E+01 -0.48807544132E+03  0.49857521678E+03  0.00000000000E+00 0.  1.
         13    1    3    3    0    0 -0.16758427706E+02 -0.15603740769E+02 -0.66823210944E+02  0.70637547707E+02  0.00000000000E+00 0. -1.
         21    1    1    2  502  501 -0.65868938552E+02  0.18747158871E+02 -0.81622992820E+01  0.68969530674E+02  0.00000000000E+00 0. -1.
<scales pt_clust_5="13000.00000" pt_clust_6="13000.00000" pt_clust_7="13000.00000" pt_clust_8="13000.00000" pt_clust_9="68.48484"></scales>
<clustering>
<clus scale="   68.485">  1  9  2 -1</clus>
<clus scale="   88.730">  5  6 -1 -1</clus>
<clus scale="   91.973">  7  8 -1 -1</clus>
<clus scale="  115.694">  1  5  2 -1</clus>
<clus scale="   68.485">  1  5  2 -1</clus>
</clustering>
</event>
<event>
 9    1  0.9000149E-006  0.9717191E+02  0.7546771E-02  0.1286541E+00
          1   -1    0    0  502    0  0.00000000000E+00  0.00000000000E+00  0.73694425299E+02  0.73694425299E+02  0.00000000000E+00 0. -1.
         -1   -1    0    0    0  501 -0.00000000000E+00 -0.00000000000E+00 -0.65225282488E+03  0.65225282488E+03  0.00000000000E+00 0.  1.
         23    2    1    2    0    0 -0.42277006286E+02 -0.27753885645E+01 -0.37795714813E+03  0.39110501160E+03  0.91194716027E+02 0.  0.
         23    2    1    2    0    0  0.16663724733E+02 -0.24441666663E+02 -0.25288830085E+03  0.27057137565E+03  0.91549450135E+02 0.  0.
        -11    1    4    4    0    0  0.46513421169E+02 -0.39779331901E+02 -0.13984179666E+03  0.15264868715E+03  0.00000000000E+00 0. -1.
         11    1    4    4    0    0 -0.29849696436E+02  0.15337665238E+02 -0.11304650419E+03  0.11792268850E+03  0.00000000000E+00 0.  1.
        -13    1    3    3    0    0  0.21278839078E+02  0.20831978911E+02 -0.16338140685E+03  0.16607300937E+03  0.00000000000E+00 0.  1.
         13    1    3    3    0    0 -0.63555845364E+02 -0.23607367476E+02 -0.21457574128E+03  0.22503200223E+03  0.00000000000E+00 0. -1.
         21    1    1    2  502  501  0.25613281553E+02  0.27217055227E+02  0.52287049403E+02  0.64270862935E+02  0.00000000000E+00 0. -1.
<scales pt_clust_5="13000.00000" pt_clust_6="13000.00000" pt_clust_7="13000.00000" pt_clust_8="13000.00000" pt_clust_9="37.37390"></scales>
<clustering>
<clus scale="   37.374">  1  9  2 -1</clus>
<clus scale="   91.195">  7  8 -1 -1</clus>
<clus scale="   91.549">  5  6 -1 -1</clus>
<clus scale="   96.838">  2  7  1 -1</clus>
<clus scale="   37.374">  1  5  2 -1</clus>
</clustering>
</event>
<event>
 9    1  0.9000149E-006  0.9763900E+02  0.7546771E-02  0.1290350E+00
          1   -1    0    0  502    0  0.00000000000E+00  0.00000000000E+00  0.21693939020E+03  0.21693939020E+03  0.00000000000E+00 0. -1.
         -1   -1    0    0    0  501 -0.00000000000E+00 -0.00000000000E+00 -0.13235377744E+03  0.13235377744E+03  0.00000000000E+00 0.  1.
         23    2    1    2    0    0  0.27238234754E+02  0.32762339621E+02 -0.77273009114E+01  0.98628391307E+02  0.88614649254E+02 0.  0.
         23    2    1    2    0    0  0.28156065431E+02  0.47641924873E+02 -0.12788054077E+02  0.10720890275E+03  0.90926879835E+02 0.  0.
        -13    1    3    3    0    0  0.42608290524E+02  0.26327204326E+00  0.25514961576E+02  0.49664363459E+02  0.00000000000E+00 0. -1.
         13    1    3    3    0    0 -0.15370055770E+02  0.32499067578E+02 -0.33242262488E+02  0.48964027848E+02  0.00000000000E+00 0.  1.
        -13    1    4    4    0    0 -0.25443415948E+02  0.44477624508E+02 -0.15242904941E+02  0.53460009802E+02  0.00000000000E+00 0.  1.
         13    1    4    4    0    0  0.53599481378E+02  0.31643003643E+01  0.24548508639E+01  0.53748892952E+02  0.00000000000E+00 0. -1.
         21    1    1    2  502  501 -0.55394300185E+02 -0.80404264494E+02  0.10510096775E+03  0.14345587358E+03  0.00000000000E+00 0. -1.
<scales pt_clust_5="13000.00000" pt_clust_6="13000.00000" pt_clust_7="13000.00000" pt_clust_8="13000.00000" pt_clust_9="97.63900"></scales>
<clustering>
<clus scale="   88.615">  5  6 -1 -1</clus>
<clus scale="   90.927">  7  8 -1 -1</clus>
<clus scale="   97.639">  1  9  2 -1</clus>
<clus scale="   88.866">  2  5  1 -1</clus>
<clus scale="   97.639">  1  5  2 -1</clus>
</clustering>
</event>
<event>
 9    1  0.9000149E-006  0.1267785E+03  0.7546771E-02  0.1233413E+00
         -1   -1    0    0    0  501 -0.00000000000E+00  0.00000000000E+00  0.84499944527E+02  0.84499944527E+02  0.00000000000E+00 0.  1.
          1   -1    0    0  502    0  0.00000000000E+00 -0.00000000000E+00 -0.38127121537E+03  0.38127121537E+03  0.00000000000E+00 0. -1.
         23    2    1    2    0    0  0.45162599068E+02  0.46318726269E+02 -0.76007905879E+02  0.13641716559E+03  0.92991163853E+02 0.  0.
         23    2    1    2    0    0 -0.10948794557E+03 -0.82479886881E+01 -0.21096176803E+03  0.25396697575E+03  0.89099481813E+02 0.  0.
        -11    1    4    4    0    0 -0.36693721902E+02 -0.33082712136E+02 -0.31175137095E+02  0.58419040066E+02  0.00000000000E+00 0.  1.
         11    1    4    4    0    0 -0.72794223672E+02  0.24834723448E+02 -0.17978663093E+03  0.19554793569E+03  0.00000000000E+00 0. -1.
        -11    1    3    3    0    0  0.25229337785E+02 -0.11835067777E+02 -0.69158034553E+02  0.74561532023E+02  0.00000000000E+00 0.  1.
         11    1    3    3    0    0  0.19933261282E+02  0.58153794046E+02 -0.68498713260E+01  0.61855633571E+02  0.00000000000E+00 0. -1.
         21    1    1    2  502  501  0.64325346506E+02 -0.38070737581E+02 -0.98015969320E+01  0.75387018547E+02  0.00000000000E+00 0.  1.
<scales pt_clust_5="13000.00000" pt_clust_6="13000.00000" pt_clust_7="13000.00000" pt_clust_8="13000.00000" pt_clust_9="74.74712"></scales>
<clustering>
<clus scale="   74.747">  1  9  2 -1</clus>
<clus scale="   89.099">  5  6 -1 -1</clus>
<clus scale="   92.991">  7  8 -1 -1</clus>
<clus scale="  123.952">  2  5  1 -1</clus>
<clus scale="  123.952">  2  5  1 -1</clus>
</clustering>
</event>
<event>
 9    1  0.9000149E-006  0.1831613E+03  0.7546771E-02  0.1165004E+00
          1   -1    0    0  502    0  0.00000000000E+00  0.00000000000E+00  0.56646044483E+03  0.56646044483E+03  0.00000000000E+00 0. -1.
         -1   -1    0    0    0  501 -0.00000000000E+00 -0.00000000000E+00 -0.12716300959E+03  0.12716300959E+03  0.00000000000E+00 0.  1.
         23    2    1    2    0    0 -0.69219316036E+02 -0.14176473139E+03 -0.25208320178E+02  0.18398237064E+03  0.91244180753E+02 0.  0.
         23    2    1    2    0    0  0.88100030901E+02  0.13197066130E+03  0.37582510974E+03  0.41844534857E+03  0.93134986687E+02 0.  0.
        -11    1    3    3    0    0 -0.89809896122E+02 -0.13099940968E+03 -0.24727813019E+02  0.16074242600E+03  0.00000000000E+00 0.  1.
         11    1    3    3    0    0  0.20590580086E+02 -0.10765321702E+02 -0.48050715880E+00  0.23239944638E+02  0.00000000000E+00 0. -1.
        -13    1    4    4    0    0  0.55528800328E+02  0.13618013379E+03  0.33633818132E+03  0.36708561497E+03  0.00000000000E+00 0. -1.
         13    1    4    4    0    0  0.32571230573E+02 -0.42094724952E+01  0.39486928415E+02  0.51359733599E+02  0.00000000000E+00 0.  1.
         21    1    1    2  502  501 -0.18880714865E+02  0.97940700878E+01  0.88680645678E+02  0.91195735210E+02  0.00000000000E+00 0. -1.
<scales pt_clust_5="13000.00000" pt_clust_6="13000.00000" pt_clust_7="13000.00000" pt_clust_8="13000.00000" pt_clust_9="21.26982"></scales>
<clustering>
<clus scale="   21.270">  1  9  2 -1</clus>
<clus scale="   91.244">  5  6 -1 -1</clus>
<clus scale="   93.135">  7  8 -1 -1</clus>
<clus scale="  182.207">  2  5  1 -1</clus>
<clus scale="   21.270">  1  5  2 -1</clus>
</clustering>
</event>
<event>
 9    1  0.9000149E-006  0.9698745E+02  0.7546771E-02  0.1287621E+00
         -1   -1    0    0    0  501 -0.00000000000E+00  0.00000000000E+00  0.13024066954E+03  0.13024066954E+03  0.00000000000E+00 0.  1.
          1   -1    0    0  502    0  0.00000000000E+00 -0.00000000000E+00 -0.22280669972E+03  0.22280669972E+03  0.00000000000E+00 0. -1.
         23    2    1    2    0    0  0.21058517824E+02  0.17946375785E+02  0.82923543691E+02  0.12745973411E+03  0.92758482865E+02 0.  0.
         23    2    1    2    0    0  0.60960652130E+01 -0.57328046289E+01 -0.75132487733E+02  0.12090675132E+03  0.94358490569E+02 0.  0.
        -11    1    3    3    0    0 -0.35768336395E+02 -0.37558211361E+01  0.30398995622E+02  0.47091177684E+02  0.00000000000E+00 0.  1.
         11    1    3    3    0    0  0.56826854218E+02  0.21702196921E+02  0.52524548068E+02  0.80368556422E+02  0.00000000000E+00 0. -1.
        -11    1    4    4    0    0  0.25681871865E+02 -0.13495609384E+02 -0.90365526568E+02  0.94908473842E+02  0.00000000000E+00 0. -1.
         11    1    4    4    0    0 -0.19585806652E+02  0.77628047550E+01  0.15233038834E+02  0.25998277481E+02  0.00000000000E+00 0.  1.
         21    1    1    2  502  501 -0.27154583037E+02 -0.12213571156E+02 -0.10035708614E+03  0.10468088383E+03  0.00000000000E+00 0. -1.
<scales pt_clust_5="13000.00000" pt_clust_6="13000.00000" pt_clust_7="13000.00000" pt_clust_8="13000.00000" pt_clust_9="29.77487"></scales>
<clustering>
<clus scale="   29.775">  2  9  1 -1</clus>
<clus scale="   92.758">  5  6 -1 -1</clus>
<clus scale="   94.358">  7  8 -1 -1</clus>
<clus scale="   95.432">  1  5  2 -1</clus>
<clus scale="   29.775">  2  5  1 -1</clus>
</clustering>
</event>
<event>
 9    1  0.9000149E-006  0.9658215E+02  0.7546771E-02  0.1287974E+00
         -3   -1    0    0    0  501 -0.00000000000E+00  0.00000000000E+00  0.63730457531E+03  0.63730457531E+03  0.00000000000E+00 0.  1.
          3   -1    0    0  502    0  0.00000000000E+00 -0.00000000000E+00 -0.24800669111E+02  0.24800669111E+02  0.00000000000E+00 0. -1.
         23    2    1    2    0    0 -0.14520115240E+02  0.33204416454E+02  0.46760687703E+03  0.47784009082E+03  0.91441751570E+02 0.  0.
         23    2    1    2    0    0  0.17480153764E+01 -0.15864352502E+02  0.12013313502E+03  0.15144664044E+03  0.90826106007E+02 0.  0.
        -11    1    3    3    0    0  0.26584922593E+02 -0.18433201998E+02  0.15711861433E+03  0.16041446324E+03  0.00000000000E+00 0. -1.
         11    1    3    3    0    0 -0.41105037833E+02  0.51637618452E+02  0.31048826270E+03  0.31742562758E+03  0.00000000000E+00 0.  1.
        -11    1    4    4    0    0  0.27042161594E+01 -0.49179044975E+02  0.36161482465E+02  0.61102733685E+02  0.00000000000E+00 0. -1.
         11    1    4    4    0    0 -0.95620078301E+00  0.33314692474E+02  0.83971652557E+02  0.90343906755E+02  0.00000000000E+00 0.  1.
         21    1    1    2  502  501  0.12772099864E+02 -0.17340063952E+02  0.24763894145E+02  0.32818513160E+02  0.00000000000E+00 0. -1.
<scales pt_clust_5="13000.00000" pt_clust_6="13000.00000" pt_clust_7="13000.00000" pt_clust_8="13000.00000" pt_clust_9="21.53612"></scales>
<clustering>
<clus scale="   21.536">  2  9  1 -1</clus>
<clus scale="   90.826">  7  8 -1 -1</clus>
<clus scale="   91.442">  5  6 -1 -1</clus>
<clus scale="   95.999">  2  7  1 -1</clus>
<clus scale="   21.536">  2  5  1 -1</clus>
</clustering>
</event>
<event>
 9    1  0.9000149E-006  0.1091345E+03  0.7546771E-02  0.1262827E+00
          1   -1    0    0  502    0  0.00000000000E+00  0.00000000000E+00  0.40521017142E+03  0.40521017142E+03  0.00000000000E+00 0. -1.
         -1   -1    0    0    0  501 -0.00000000000E+00 -0.00000000000E+00 -0.87370277536E+02  0.87370277536E+02  0.00000000000E+00 0.  1.
         23    2    1    2    0    0 -0.38114896496E+02  0.55143964968E+02 -0.25361498971E+02  0.11684054402E+03  0.92276242283E+02 0.  0.
         23    2    1    2    0    0  0.24254263534E+02 -0.16454640962E+02  0.14623208564E+03  0.17452884927E+03  0.90650272185E+02 0.  0.
        -11    1    3    3    0    0 -0.52098531359E+02  0.70506418224E+02 -0.50885887090E+01  0.87814040538E+02  0.00000000000E+00 0.  1.
         11    1    3    3    0    0  0.13983634862E+02 -0.15362453256E+02 -0.20272910262E+02  0.29026503484E+02  0.00000000000E+00 0. -1.
        -11    1    4    4    0    0  0.52252958781E+02  0.47734450179E+01  0.11906785650E+03  0.13011653212E+03  0.00000000000E+00 0. -1.
         11    1    4    4    0    0 -0.27998695247E+02 -0.21228085979E+02  0.27164229142E+02  0.44412317151E+02  0.00000000000E+00 0.  1.
         21    1    1    2  502  501  0.13860632963E+02 -0.38689324006E+02  0.19696930721E+03  0.20121105566E+03  0.00000000000E+00 0. -1.
<scales pt_clust_5="13000.00000" pt_clust_6="13000.00000" pt_clust_7="13000.00000" pt_clust_8="13000.00000" pt_clust_9="41.09721"></scales>
<clustering>
<clus scale="   41.097">  1  9  2 -1</clus>
<clus scale="   90.650">  7  8 -1 -1</clus>
<clus scale="   92.276">  5  6 -1 -1</clus>
<clus scale="  107.763">  1  7  2 -1</clus>
<clus scale="   41.097">  1  5  2 -1</clus>
</clustering>
</event>
<event>
 9    1  0.9000149E-006  0.9467055E+02  0.7546771E-02  0.1293656E+00
          2   -1    0    0  502    0  0.00000000000E+00  0.00000000000E+00  0.25028317872E+03  0.25028317872E+03  0.00000000000E+00 0. -1.
         -2   -1    0    0    0  501 -0.00000000000E+00 -0.00000000000E+00 -0.68225841598E+02  0.68225841598E+02  0.00000000000E+00 0.  1.
         23    2    1    2    0    0  0.85132829264E+01  0.85269602539E+01  0.57353906036E+02  0.10896712214E+03  0.91864999499E+02 0.  0.
         23    2    1    2    0    0  0.54358338212E+02 -0.12209922363E+02  0.69044833689E+02  0.12549260063E+03  0.88754113230E+02 0.  0.
        -13    1    4    4    0    0 -0.23823945596E+02 -0.81365222084E+01  0.86630684788E+01  0.26623901533E+02  0.00000000000E+00 0.  1.
         13    1    4    4    0    0  0.78182283808E+02 -0.40734001542E+01  0.60381765211E+02  0.98868699092E+02  0.00000000000E+00 0. -1.
        -13    1    3    3    0    0  0.15875193224E+02 -0.39211639152E+02  0.38222543429E+02  0.57013482889E+02  0.00000000000E+00 0. -1.
         13    1    3    3    0    0 -0.73619102973E+01  0.47738599406E+02  0.19131362607E+02  0.51953639254E+02  0.00000000000E+00 0.  1.
         21    1    1    2  502  501 -0.62871621139E+02  0.36829621087E+01  0.55658597393E+02  0.84049297548E+02  0.00000000000E+00 0.  1.
<scales pt_clust_5="13000.00000" pt_clust_6="13000.00000" pt_clust_7="13000.00000" pt_clust_8="13000.00000" pt_clust_9="62.97940"></scales>
<clustering>
<clus scale="   62.979">  1  9  2 -1</clus>
<clus scale="   88.754">  5  6 -1 -1</clus>
<clus scale="   91.655">  1  5  2 -1</clus>
<clus scale="   91.865">  7  8 -1 -1</clus>
<clus scale="   62.979">  1  5  2 -1</clus>
</clustering>
</event>
<event>
 9    1  0.9000149E-006  0.1363485E+03  0.7546771E-02  0.1218490E+00
          1   -1    0    0  502    0  0.00000000000E+00  0.00000000000E+00  0.80117400672E+03  0.80117400672E+03  0.00000000000E+00 0. -1.
         -1   -1    0    0    0  501 -0.00000000000E+00 -0.00000000000E+00 -0.34596335181E+02  0.34596335181E+02  0.00000000000E+00 0.  1.
         23    2    1    2    0    0  0.66917102624E+02 -0.11139081334E+03  0.42224853007E+03  0.45090734315E+03  0.90209750277E+02 0.  0.
         23    2    1    2    0    0 -0.44027694987E+02  0.62502735561E+02  0.24507718479E+03  0.27188105313E+03  0.89506707383E+02 0.  0.
        -11    1    3    3    0    0  0.15571497103E+02 -0.10527271304E+03  0.27821040187E+03  0.29786883580E+03  0.00000000000E+00 0.  1.
         11    1    3    3    0    0  0.51345605521E+02 -0.61181002969E+01  0.14403812820E+03  0.15303850735E+03  0.00000000000E+00 0. -1.
        -13    1    4    4    0    0 -0.45372912958E+02 -0.24227252716E+01  0.56913990683E+02  0.72827008475E+02  0.00000000000E+00 0.  1.
         13    1    4    4    0    0  0.13452179711E+01  0.64925460833E+02  0.18816319411E+03  0.19905404465E+03  0.00000000000E+00 0. -1.
         21    1    1    2  502  501 -0.22889407637E+02  0.48888077780E+02  0.99251956685E+02  0.11298194562E+03  0.00000000000E+00 0. -1.
<scales pt_clust_5="13000.00000" pt_clust_6="13000.00000" pt_clust_7="13000.00000" pt_clust_8="13000.00000" pt_clust_9="53.98119"></scales>
<clustering>
<clus scale="   53.981">  2  9  1 -1</clus>
<clus scale="   89.507">  7  8 -1 -1</clus>
<clus scale="   90.210">  5  6 -1 -1</clus>
<clus scale="  135.884">  1  7  2 -1</clus>
<clus scale="  135.884">  1  5  2 -1</clus>
</clustering>
</event>
<event>
 9    1  0.9000149E-006  0.2686337E+03  0.7546771E-02  0.1102181E+00
          2   -1    0    0  502    0  0.00000000000E+00  0.00000000000E+00  0.11167595577E+04  0.11167595577E+04  0.00000000000E+00 0. -1.
         -2   -1    0    0    0  501 -0.00000000000E+00 -0.00000000000E+00 -0.73346382516E+02  0.73346382516E+02  0.00000000000E+00 0.  1.
         23    2    1    2    0    0 -0.11627113425E+03 -0.22189039465E+03  0.42888236035E+03  0.50476342943E+03  0.89953970306E+02 0.  0.
         23    2    1    2    0    0  0.89752408360E+02  0.23923498929E+03  0.54848459498E+03  0.61208828945E+03  0.92346349367E+02 0.  0.
        -11    1    4    4    0    0  0.85830627268E+02  0.14065058231E+03  0.26630819764E+03  0.31316056427E+03  0.00000000000E+00 0.  1.
         11    1    4    4    0    0  0.39217810921E+01  0.98584406984E+02  0.28217639734E+03  0.29892772518E+03  0.00000000000E+00 0. -1.
        -13    1    3    3    0    0 -0.84353744163E+02 -0.17779911081E+03  0.25225082700E+03  0.31993523982E+03  0.00000000000E+00 0.  1.
         13    1    3    3    0    0 -0.31917390091E+02 -0.44091283848E+02  0.17663153335E+03  0.18482818961E+03  0.00000000000E+00 0. -1.
         21    1    1    2  502  501  0.26518725894E+02 -0.17344594636E+02  0.66046219848E+02  0.73254221328E+02  0.00000000000E+00 0. -1.
<scales pt_clust_5="13000.00000" pt_clust_6="13000.00000" pt_clust_7="13000.00000" pt_clust_8="13000.00000" pt_clust_9="31.68719"></scales>
<clustering>
<clus scale="   31.687">  1  9  2 -1</clus>
<clus scale="   89.954">  7  8 -1 -1</clus>
<clus scale="   92.346">  5  6 -1 -1</clus>
<clus scale="  267.821">  2  7  1 -1</clus>
<clus scale="   31.687">  1  5  2 -1</clus>
</clustering>
</event>
<event>
 9    1  0.9000149E-006  0.8908853E+02  0.7546771E-02  0.1309272E+00
         -1   -1    0    0    0  501 -0.00000000000E+00  0.00000000000E+00  0.27297895186E+03  0.27297895186E+03  0.00000000000E+00 0.  1.
          1   -1    0    0  502    0  0.00000000000E+00 -0.00000000000E+00 -0.14428309621E+03  0.14428309621E+03  0.00000000000E+00 0. -1.
         23    2    1    2    0    0 -0.12163609111E+02  0.29120905756E+01  0.23642529176E+03  0.25044316468E+03  0.81660434065E+02 0.  0.
         23    2    1    2    0    0  0.77258529095E+01  0.30223936826E+02 -0.84307481550E+02  0.12599881544E+03  0.88288022330E+02 0.  0.
        -13    1    4    4    0    0  0.22566286254E+02 -0.24433205018E+02 -0.49122920104E+02  0.59323520313E+02  0.00000000000E+00 0. -1.
         13    1    4    4    0    0 -0.14840433345E+02  0.54657141844E+02 -0.35184561446E+02  0.66675295129E+02  0.00000000000E+00 0.  1.
        -13    1    3    3    0    0  0.42637803789E+01  0.38704082051E+02  0.15745032170E+03  0.16219367927E+03  0.00000000000E+00 0.  1.
         13    1    3    3    0    0 -0.16427389490E+02 -0.35791991476E+02  0.78974970054E+02  0.88249485405E+02  0.00000000000E+00 0. -1.
         21    1    1    2  502  501  0.44377562013E+01 -0.33136027402E+02 -0.23421954562E+02  0.40820067952E+02  0.00000000000E+00 0.  1.
<scales pt_clust_5="13000.00000" pt_clust_6="13000.00000" pt_clust_7="13000.00000" pt_clust_8="13000.00000" pt_clust_9="33.43187"></scales>
<clustering>
<clus scale="   33.432">  2  9  1 -1</clus>
<clus scale="   81.660">  7  8 -1 -1</clus>
<clus scale="   82.525">  1  7  2 -1</clus>
<clus scale="   88.288">  5  6 -1 -1</clus>
<clus scale="   33.432">  2  5  1 -1</clus>
</clustering>
</event>
<event>
 9    1  0.9000149E-006  0.1276421E+03  0.7546771E-02  0.1231871E+00
          2   -1    0    0  502    0  0.00000000000E+00  0.00000000000E+00  0.96638491750E+03  0.96638491750E+03  0.00000000000E+00 0. -1.
         -2   -1    0    0    0  501 -0.00000000000E+00 -0.00000000000E+00 -0.11115354047E+03  0.11115354047E+03  0.00000000000E+00 0.  1.
         23    2    1    2    0    0  0.68475082113E+02  0.69434468173E+02 -0.59362922053E+02  0.14378036180E+03  0.87400535954E+02 0.  0.
         23    2    1    2    0    0 -0.21276991544E+01 -0.39042642033E+02  0.32486709140E+03  0.33953270306E+03  0.90636495803E+02 0.  0.
        -11    1    4    4    0    0 -0.18779191886E+02  0.21705710055E+02  0.16898563437E+03  0.17140577738E+03  0.00000000000E+00 0. -1.
         11    1    4    4    0    0  0.16651492731E+02 -0.60748352087E+02  0.15588145703E+03  0.16812692567E+03  0.00000000000E+00 0.  1.
        -13    1    3    3    0    0  0.47170146016E+02  0.85614007462E+02 -0.63709101755E+02  0.11667746396E+03  0.00000000000E+00 0.  1.
         13    1    3    3    0    0  0.21304936098E+02 -0.16179539289E+02  0.43461797021E+01  0.27102897848E+02  0.00000000000E+00 0. -1.
         21    1    1    2  502  501 -0.66347382959E+02 -0.30391826140E+02  0.58972720769E+03  0.59422539311E+03  0.00000000000E+00 0. -1.
<scales pt_clust_5="13000.00000" pt_clust_6="13000.00000" pt_clust_7="13000.00000" pt_clust_8="13000.00000" pt_clust_9="72.97697"></scales>
<clustering>
<clus scale="   72.977">  1  9  2 -1</clus>
<clus scale="   87.401">  7  8 -1 -1</clus>
<clus scale="   90.636">  5  6 -1 -1</clus>
<clus scale="  125.365">  2  7  1 -1</clus>
<clus scale="   72.977">  1  5  2 -1</clus>
</clustering>
</event>
<event>
 9    1  0.9000149E-006  0.1770036E+03  0.7546771E-02  0.1171978E+00
         -2   -1    0    0    0  501 -0.00000000000E+00  0.00000000000E+00  0.85834792777E+02  0.85834792777E+02  0.00000000000E+00 0.  1.
          2   -1    0    0  502    0  0.00000000000E+00 -0.00000000000E+00 -0.59146275249E+03  0.59146275249E+03  0.00000000000E+00 0. -1.
         23    2    1    2    0    0 -0.10121227808E+03 -0.87967470492E+02 -0.12725754602E+03  0.21028068676E+03  0.10020620292E+03 0.  0.
         23    2    1    2    0    0  0.14804560879E+03  0.70258606880E+02 -0.17133232590E+03  0.25401043956E+03  0.91174357059E+02 0.  0.
        -11    1    4    4    0    0  0.59814596127E+02 -0.61137688523E+01 -0.20969398792E+02  0.63677937821E+02  0.00000000000E+00 0.  1.
         11    1    4    4    0    0  0.88231012667E+02  0.76372375733E+02 -0.15036292711E+03  0.19033250174E+03  0.00000000000E+00 0. -1.
        -13    1    3    3    0    0 -0.35440357791E+02  0.19762409640E+02 -0.38857501203E+02  0.56182534607E+02  0.00000000000E+00 0. -1.
         13    1    3    3    0    0 -0.65771920291E+02 -0.10772988013E+03 -0.88400044819E+02  0.15409815215E+03  0.00000000000E+00 0.  1.
         21    1    1    2  502  501 -0.46833330712E+02  0.17708863612E+02 -0.20703808779E+03  0.21300641894E+03  0.00000000000E+00 0. -1.
<scales pt_clust_5="13000.00000" pt_clust_6="13000.00000" pt_clust_7="13000.00000" pt_clust_8="13000.00000" pt_clust_9="50.06960"></scales>
<clustering>
<clus scale="   50.070">  2  9  1 -1</clus>
<clus scale="   91.174">  5  6 -1 -1</clus>
<clus scale="  100.206">  7  8 -1 -1</clus>
<clus scale="  172.052">  2  5  1 -1</clus>
<clus scale="   50.070">  2  5  1 -1</clus>
</clustering>
</event>
<event>
 9    1  0.9000149E-006  0.1379340E+03  0.7546771E-02  0.1216386E+00
          1   -1    0    0  502    0  0.00000000000E+00  0.00000000000E+00  0.89617469597E+03  0.89617469597E+03  0.00000000000E+00 0. -1.
         -1   -1    0    0    0  501 -0.00000000000E+00 -0.00000000000E+00 -0.99592323478E+02  0.99592323478E+02  0.00000000000E+00 0.  1.
         23    2    1    2    0    0 -0.52684701203E+02  0.75850157734E+02 -0.81315735862E+01  0.12971898110E+03  0.90730190120E+02 0.  0.
         23    2    1    2    0    0  0.12820452384E+03 -0.13277581883E+03  0.38990948839E+03  0.44059943672E+03  0.89624977034E+02 0.  0.
        -11    1    3    3    0    0 -0.73931226289E+02  0.63423487686E+02 -0.24143098303E+02  0.10035563864E+03  0.00000000000E+00 0.  1.
         11    1    3    3    0    0  0.21246525085E+02  0.12426670048E+02  0.16011524717E+02  0.29363342460E+02  0.00000000000E+00 0. -1.
        -13    1    4    4    0    0  0.27970472338E+02  0.26857928230E+01  0.21176914601E+02  0.35185544161E+02  0.00000000000E+00 0.  1.
         13    1    4    4    0    0  0.10023405150E+03 -0.13546161166E+03  0.36873257378E+03  0.40541389256E+03  0.00000000000E+00 0. -1.
         21    1    1    2  502  501 -0.75519822637E+02  0.56925661100E+02  0.41480445770E+03  0.42544860163E+03  0.00000000000E+00 0.  1.
<scales pt_clust_5="13000.00000" pt_clust_6="13000.00000" pt_clust_7="13000.00000" pt_clust_8="13000.00000" pt_clust_9="94.57153"></scales>
<clustering>
<clus scale="   89.625">  7  8 -1 -1</clus>
<clus scale="   90.730">  5  6 -1 -1</clus>
<clus scale="   94.572">  1  9  2 -1</clus>
<clus scale="  137.209">  1  7  2 -1</clus>
<clus scale="   94.572">  1  5  2 -1</clus>
</clustering>
</event>
<event>
 9    1  0.9000149E-006  0.1086560E+03  0.7546771E-02  0.1264004E+00
         -1   -1    0    0    0  501 -0.00000000000E+00  0.00000000000E+00  0.49148343935E+03  0.49148343935E+03  0.00000000000E+00 0.  1.
          1   -1    0    0  502    0  0.00000000000E+00 -0.00000000000E+00 -0.56277307930E+02  0.56277307930E+02  0.00000000000E+00 0. -1.
         23    2    1    2    0    0 -0.55546057935E+02 -0.23501386423E+02  0.40013615522E+03  0.41488668442E+03  0.91566033430E+02 0.  0.
         23    2    1    2    0    0  0.50155411432E+02  0.27017523048E+01  0.15060328396E+02  0.10351303675E+03  0.89248364265E+02 0.  0.
        -11    1    4    4    0    0  0.75309631168E+02  0.61080878659E+01  0.35468111331E+01  0.75640129252E+02  0.00000000000E+00 0. -1.
         11    1    4    4    0    0 -0.25154219737E+02 -0.34063355610E+01  0.11513517262E+02  0.27872907496E+02  0.00000000000E+00 0.  1.
        -13    1    3    3    0    0 -0.60719076273E+02 -0.51567471753E+02  0.32181096680E+03  0.33152422041E+03  0.00000000000E+00 0.  1.
         13    1    3    3    0    0  0.51730183380E+01  0.28066085330E+02  0.78325188417E+02  0.83362464006E+02  0.00000000000E+00 0. -1.
         21    1    1    2  502  501  0.53906465034E+01  0.20799634118E+02  0.20009647805E+02  0.29361026114E+02  0.00000000000E+00 0.  1.
<scales pt_clust_5="13000.00000" pt_clust_6="13000.00000" pt_clust_7="13000.00000" pt_clust_8="13000.00000" pt_clust_9="21.48683"></scales>
<clustering>
<clus scale="   21.487">  2  9  1 -1</clus>
<clus scale="   89.248">  5  6 -1 -1</clus>
<clus scale="   91.566">  7  8 -1 -1</clus>
<clus scale="  106.710">  2  5  1 -1</clus>
<clus scale="   21.487">  2  5  1 -1</clus>
</clustering>
</event>
<event>
 9    1  0.9000149E-006  0.9296928E+02  0.7546771E-02  0.1297229E+00
         -2   -1    0    0    0  501 -0.00000000000E+00  0.00000000000E+00  0.34192768105E+02  0.34192768105E+02  0.00000000000E+00 0.  1.
          2   -1    0    0  502    0  0.00000000000E+00 -0.00000000000E+00 -0.54820308704E+03  0.54820308704E+03  0.00000000000E+00 0. -1.
         23    2    1    2    0    0 -0.28955659474E+01  0.41448016085E+01 -0.56106087128E+02  0.10632519666E+03  0.90175333375E+02 0.  0.
         23    2    1    2    0    0 -0.20840851184E+02 -0.24964497208E+02 -0.32666494544E+03  0.34108685386E+03  0.92588811973E+02 0.  0.
        -11    1    3    3    0    0 -0.39314369780E+02  0.26480190765E+02 -0.26025232593E+02  0.54075252248E+02  0.00000000000E+00 0.  1.
         11    1    3    3    0    0  0.36418803833E+02 -0.22335389157E+02 -0.30080854535E+02  0.52249944411E+02  0.00000000000E+00 0. -1.
        -13    1    4    4    0    0 -0.14564123215E+02  0.31624275197E+02 -0.69973917517E+02  0.78157261975E+02  0.00000000000E+00 0.  1.
         13    1    4    4    0    0 -0.62767279690E+01 -0.56588772405E+02 -0.25669102792E+03  0.26292959189E+03  0.00000000000E+00 0. -1.
         21    1    1    2  502  501  0.23736417131E+02  0.20819695599E+02 -0.13123928637E+03  0.13498380462E+03  0.00000000000E+00 0.  1.
<scales pt_clust_5="13000.00000" pt_clust_6="13000.00000" pt_clust_7="13000.00000" pt_clust_8="13000.00000" pt_clust_9="31.57336"></scales>
<clustering>
<clus scale="   31.573">  2  9  1 -1</clus>
<clus scale="   90.175">  5  6 -1 -1</clus>
<clus scale="   90.566">  1  5  2 -1</clus>
<clus scale="   92.589">  7  8 -1 -1</clus>
<clus scale="   31.573">  2  5  1 -1</clus>
</clustering>
</event>
<event>
 9    1  0.9000149E-006  0.1018234E+03  0.7546771E-02  0.1276616E+00
         -2   -1    0    0    0  501 -0.00000000000E+00  0.00000000000E+00  0.42239359289E+02  0.42239359289E+02  0.00000000000E+00 0.  1.
          2   -1    0    0  502    0  0.00000000000E+00 -0.00000000000E+00 -0.46855254878E+03  0.46855254878E+03  0.00000000000E+00 0. -1.
         23    2    1    2    0    0 -0.11322793331E+02  0.50987161831E+02 -0.96315499780E+02  0.14204631394E+03  0.90402342257E+02 0.  0.
         23    2    1    2    0    0 -0.41082004124E+02 -0.38062523245E+02 -0.17561424662E+03  0.20519879172E+03  0.90164814465E+02 0.  0.
        -11    1    3    3    0    0  0.20651628919E+02  0.46448258967E+02 -0.97254464064E+02  0.10973769324E+03  0.00000000000E+00 0. -1.
         11    1    3    3    0    0 -0.31974422249E+02  0.45389028643E+01  0.93896428366E+00  0.32308620696E+02  0.00000000000E+00 0.  1.
        -13    1    4    4    0    0  0.20740993816E+02  0.34297374464E+01 -0.93178179762E+01  0.22995078936E+02  0.00000000000E+00 0. -1.
         13    1    4    4    0    0 -0.61822997940E+02 -0.41492260691E+02 -0.16629642865E+03  0.18220371278E+03  0.00000000000E+00 0.  1.
         21    1    1    2  502  501  0.52404797454E+02 -0.12924638586E+02 -0.15438344309E+03  0.16354680241E+03  0.00000000000E+00 0. -1.
<scales pt_clust_5="13000.00000" pt_clust_6="13000.00000" pt_clust_7="13000.00000" pt_clust_8="13000.00000" pt_clust_9="53.97508"></scales>
<clustering>
<clus scale="   53.975">  2  9  1 -1</clus>
<clus scale="   90.165">  7  8 -1 -1</clus>
<clus scale="   90.402">  5  6 -1 -1</clus>
<clus scale="  101.613">  2  7  1 -1</clus>
<clus scale="   53.975">  2  5  1 -1</clus>
</clustering>
</event>
<event>
 9    1  0.9000149E-006  0.3381525E+03  0.7546771E-02  0.1067616E+00
         -1   -1    0    0    0  501 -0.00000000000E+00  0.00000000000E+00  0.19221762947E+03  0.19221762947E+03  0.00000000000E+00 0.  1.
          1   -1    0    0  502    0  0.00000000000E+00 -0.00000000000E+00 -0.65323500184E+03  0.65323500184E+03  0.00000000000E+00 0. -1.
         23    2    1    2    0    0  0.29385256902E+02 -0.32261904912E+03 -0.15868385989E+03  0.37193238432E+03  0.90590214364E+02 0.  0.
         23    2    1    2    0    0 -0.63564050381E+01  0.32805198546E+03 -0.28550172070E+03  0.44448313229E+03  0.91627033817E+02 0.  0.
        -11    1    3    3    0    0 -0.18095412829E+02 -0.23079357132E+02  0.67235649113E+00  0.29335179466E+02  0.00000000000E+00 0.  1.
         11    1    3    3    0    0  0.47480669731E+02 -0.29953969199E+03 -0.15935621638E+03  0.34259720485E+03  0.00000000000E+00 0. -1.
        -13    1    4    4    0    0 -0.14353821336E+02  0.21303473135E+03 -0.12682847871E+03  0.24834510658E+03  0.00000000000E+00 0.  1.
         13    1    4    4    0    0  0.79974162978E+01  0.11501725411E+03 -0.15867324199E+03  0.19613802572E+03  0.00000000000E+00 0. -1.
         21    1    1    2  502  501 -0.23028851864E+02 -0.54329363408E+01 -0.16831791788E+02  0.29037114703E+02  0.00000000000E+00 0. -1.
<scales pt_clust_5="13000.00000" pt_clust_6="13000.00000" pt_clust_7="13000.00000" pt_clust_8="13000.00000" pt_clust_9="23.66104"></scales>
<clustering>
<clus scale="   23.661">  2  9  1 -1</clus>
<clus scale="   90.590">  5  6 -1 -1</clus>
<clus scale="   91.627">  7  8 -1 -1</clus>
<clus scale="  337.873">  1  5  2 -1</clus>
<clus scale="   23.661">  2  5  1 -1</clus>
</clustering>
</event>
<event>
 9    1  0.9000149E-006  0.9564024E+02  0.7546771E-02  0.1289863E+00
          2   -1    0    0  502    0  0.00000000000E+00  0.00000000000E+00  0.10922210820E+03  0.10922210820E+03  0.00000000000E+00 0. -1.
         -2   -1    0    0    0  501 -0.00000000000E+00 -0.00000000000E+00 -0.12219229799E+03  0.12219229799E+03  0.00000000000E+00 0.  1.
         23    2    1    2    0    0  0.29484649663E+02 -0.30137287410E+02 -0.39658702435E+02  0.10716479460E+03  0.90188025065E+02 0.  0.
         23    2    1    2    0    0 -0.68141669720E+01  0.12861559197E+02  0.12569897227E+02  0.92441800090E+02  0.90419198797E+02 0.  0.
        -13    1    4    4    0    0  0.34571184627E+02  0.91642950750E+01 -0.18775757177E+02  0.40394061052E+02  0.00000000000E+00 0.  1.
         13    1    4    4    0    0 -0.41385351599E+02  0.36972641224E+01  0.31345654404E+02  0.52047739038E+02  0.00000000000E+00 0. -1.
        -13    1    3    3    0    0  0.10587687752E+02 -0.48507692598E+02 -0.57019157012E+02  0.75606082027E+02  0.00000000000E+00 0.  1.
         13    1    3    3    0    0  0.18896961911E+02  0.18370405189E+02  0.17360454577E+02  0.31558712575E+02  0.00000000000E+00 0. -1.
         21    1    1    2  502  501 -0.22670482691E+02  0.17275728212E+02  0.14118615421E+02  0.31807811495E+02  0.00000000000E+00 0. -1.
<scales pt_clust_5="13000.00000" pt_clust_6="13000.00000" pt_clust_7="13000.00000" pt_clust_8="13000.00000" pt_clust_9="28.50266"></scales>
<clustering>
<clus scale="   28.503">  1  9  2 -1</clus>
<clus scale="   90.188">  7  8 -1 -1</clus>
<clus scale="   90.419">  5  6 -1 -1</clus>
<clus scale="   95.422">  2  7  1 -1</clus>
<clus scale="   28.503">  1  5  2 -1</clus>
</clustering>
</event>
<event>
 9    1  0.9000149E-006  0.9068267E+02  0.7546771E-02  0.1301759E+00
         -2   -1    0    0    0  501 -0.00000000000E+00  0.00000000000E+00  0.10425908285E+03  0.10425908285E+03  0.00000000000E+00 0.  1.
          2   -1    0    0  502    0  0.00000000000E+00 -0.00000000000E+00 -0.20377242505E+03  0.20377242505E+03  0.00000000000E+00 0. -1.
         23    2    1    2    0    0 -0.12792503442E+02  0.10936418044E+02  0.27514685395E+02  0.95322520757E+02  0.89699897810E+02 0.  0.
         23    2    1    2    0    0 -0.28223193505E+02  0.41037251650E+02 -0.88519007078E+02  0.13611594308E+03  0.90616392956E+02 0.  0.
        -11    1    3    3    0    0  0.14039488965E+01 -0.38696308984E+02  0.51487767107E+01  0.39062581879E+02  0.00000000000E+00 0. -1.
         11    1    3    3    0    0 -0.14196452338E+02  0.49632727028E+02  0.22365908684E+02  0.56259938877E+02  0.00000000000E+00 0.  1.
        -13    1    4    4    0    0 -0.37432942478E+02  0.61802979676E+02 -0.40109309639E+02  0.82641334689E+02  0.00000000000E+00 0.  1.
         13    1    4    4    0    0  0.92097489731E+01 -0.20765728026E+02 -0.48409697439E+02  0.53474608393E+02  0.00000000000E+00 0. -1.
         21    1    1    2  502  501  0.41015696947E+02 -0.51973669694E+02 -0.38509020515E+02  0.76593044061E+02  0.00000000000E+00 0. -1.
<scales pt_clust_5="13000.00000" pt_clust_6="13000.00000" pt_clust_7="13000.00000" pt_clust_8="13000.00000" pt_clust_9="66.20838"></scales>
<clustering>
<clus scale="   66.208">  2  9  1 -1</clus>
<clus scale="   89.700">  5  6 -1 -1</clus>
<clus scale="   89.767">  1  5  2 -1</clus>
<clus scale="   90.616">  7  8 -1 -1</clus>
<clus scale="   66.208">  2  5  1 -1</clus>
</clustering>
</event>
<event>
 9    1  0.9000149E-006  0.1535093E+03  0.7546771E-02  0.1198742E+00
          1   -1    0    0  502    0  0.00000000000E+00  0.00000000000E+00  0.17151743147E+03  0.17151743147E+03  0.00000000000E+00 0. -1.
         -1   -1    0    0    0  501 -0.00000000000E+00 -0.00000000000E+00 -0.34341136436E+03  0.34341136436E+03  0.00000000000E+00 0.  1.
         23    2    1    2    0    0  0.38389378935E+02  0.10302882227E+03 -0.17925659142E+03  0.22480871613E+03  0.79481762989E+02 0.  0.
         23    2    1    2    0    0 -0.27808954866E+02 -0.15185465171E+03 -0.73603887929E+02  0.19498076795E+03  0.93631161125E+02 0.  0.
        -13    1    3    3    0    0 -0.17997401042E+02  0.10166034240E+02 -0.83468871172E+01  0.22291819597E+02  0.00000000000E+00 0. -1.
         13    1    3    3    0    0  0.56386779977E+02  0.92862788031E+02 -0.17090970430E+03  0.20251689654E+03  0.00000000000E+00 0.  1.
        -13    1    4    4    0    0 -0.44379131255E+02 -0.71101922014E+02  0.96797643529E+00  0.83820806387E+02  0.00000000000E+00 0. -1.
         13    1    4    4    0    0  0.16570176388E+02 -0.80752729699E+02 -0.74571864364E+02  0.11115996156E+03  0.00000000000E+00 0.  1.
         21    1    1    2  502  501 -0.10580424069E+02  0.48825829443E+02  0.80966546456E+02  0.95139311745E+02  0.00000000000E+00 0. -1.
<scales pt_clust_5="13000.00000" pt_clust_6="13000.00000" pt_clust_7="13000.00000" pt_clust_8="13000.00000" pt_clust_9="49.95905"></scales>
<clustering>
<clus scale="   49.959">  1  9  2 -1</clus>
<clus scale="   79.482">  5  6 -1 -1</clus>
<clus scale="   93.631">  7  8 -1 -1</clus>
<clus scale="  145.312">  2  5  1 -1</clus>
<clus scale="   49.959">  1  5  2 -1</clus>
</clustering>
</event>
<event>
 9    1  0.9000149E-006  0.1265041E+03  0.7546771E-02  0.1232765E+00
          2   -1    0    0  502    0  0.00000000000E+00  0.00000000000E+00  0.15799036421E+03  0.15799036421E+03  0.00000000000E+00 0. -1.
         -2   -1    0    0    0  501 -0.00000000000E+00 -0.00000000000E+00 -0.11891900228E+03  0.11891900228E+03  0.00000000000E+00 0.  1.
         23    2    1    2    0    0  0.30777431583E+01  0.95972262500E+02  0.20162864328E+02  0.13528044140E+03  0.93134897092E+02 0.  0.
         23    2    1    2    0    0 -0.31230510156E+01 -0.75830539347E+02  0.16136871467E+02  0.12129734926E+03  0.93234243558E+02 0.  0.
        -11    1    3    3    0    0  0.11639072857E+02  0.76002914379E+02  0.54781604819E+02  0.94408343051E+02  0.00000000000E+00 0. -1.
         11    1    3    3    0    0 -0.85613296988E+01  0.19969348120E+02 -0.34618740491E+02  0.40872098352E+02  0.00000000000E+00 0.  1.
        -11    1    4    4    0    0 -0.31734342759E+02 -0.82982983773E+02  0.21288887144E+02  0.91358966840E+02  0.00000000000E+00 0.  1.
         11    1    4    4    0    0  0.28611291743E+02  0.71524444263E+01 -0.51520156766E+01  0.29938382422E+02  0.00000000000E+00 0. -1.
         21    1    1    2  502  501  0.45307857251E-01 -0.20141723153E+02  0.27716261343E+01  0.20331575832E+02  0.00000000000E+00 0.  1.
<scales pt_clust_5="13000.00000" pt_clust_6="13000.00000" pt_clust_7="13000.00000" pt_clust_8="13000.00000" pt_clust_9="20.14177"></scales>
<clustering>
<clus scale="   20.142">  2  9  1 -1</clus>
<clus scale="   93.135">  5  6 -1 -1</clus>
<clus scale="   93.234">  7  8 -1 -1</clus>
<clus scale="  126.431">  2  5  1 -1</clus>
<clus scale="  126.504">  1  5  2 -1</clus>
</clustering>
</event>
<event>
 9    1  0.9000149E-006  0.1670427E+03  0.7546771E-02  0.1181444E+00
         -1   -1    0    0    0  501 -0.00000000000E+00  0.00000000000E+00  0.62597788910E+03  0.62597788910E+03  0.00000000000E+00 0.  1.
          1   -1    0    0  502    0  0.00000000000E+00 -0.00000000000E+00 -0.63094427029E+02  0.63094427029E+02  0.00000000000E+00 0. -1.
         23    2    1    2    0    0 -0.11219903836E+03  0.53146267137E+02  0.25085393046E+03  0.29421649302E+03  0.90678004056E+02 0.  0.
         23    2    1    2    0    0  0.15587062642E+03 -0.41088380120E+02  0.29316888915E+03  0.34578114454E+03  0.87365297436E+02 0.  0.
        -11    1    4    4    0    0  0.19314754414E+02 -0.36600869222E+02  0.10802823478E+03  0.11568397847E+03  0.00000000000E+00 0.  1.
         11    1    4    4    0    0  0.13655587200E+03 -0.44875108980E+01  0.18514065437E+03  0.23009716607E+03  0.00000000000E+00 0. -1.
        -13    1    3    3    0    0 -0.65216024115E+02  0.76922707272E+02  0.17239893165E+03  0.19972887705E+03  0.00000000000E+00 0.  1.
         13    1    3    3    0    0 -0.46983014249E+02 -0.23776440134E+02  0.78454998815E+02  0.94487615974E+02  0.00000000000E+00 0. -1.
         21    1    1    2  502  501 -0.43671588053E+02 -0.12057887017E+02  0.18860642470E+02  0.49074678570E+02  0.00000000000E+00 0.  1.
<scales pt_clust_5="13000.00000" pt_clust_6="13000.00000" pt_clust_7="13000.00000" pt_clust_8="13000.00000" pt_clust_9="45.30563"></scales>
<clustering>
<clus scale="   45.306">  2  9  1 -1</clus>
<clus scale="   87.365">  5  6 -1 -1</clus>
<clus scale="   90.678">  7  8 -1 -1</clus>
<clus scale="  165.268">  2  5  1 -1</clus>
<clus scale="   45.306">  2  5  1 -1</clus>
</clustering>
</event>
<event>
 9    1  0.9000149E-006  0.1184992E+03  0.7546771E-02  0.1247242E+00
         -3   -1    0    0    0  501 -0.00000000000E+00  0.00000000000E+00  0.44347706795E+03  0.44347706795E+03  0.00000000000E+00 0.  1.
          3   -1    0    0  502    0  0.00000000000E+00 -0.00000000000E+00 -0.59297708248E+02  0.59297708248E+02  0.00000000000E+00 0. -1.
         23    2    1    2    0    0 -0.76052711341E+02  0.59773770673E+02  0.18866224694E+03  0.23173939042E+03  0.93556309720E+02 0.  0.
         23    2    1    2    0    0  0.62456510274E+02  0.16997331455E+02  0.11386938277E+03  0.15814158339E+03  0.88616020626E+02 0.  0.
        -11    1    3    3    0    0 -0.44486971082E+02 -0.11862204201E+02  0.11651255986E+03  0.12527960364E+03  0.00000000000E+00 0.  1.
         11    1    3    3    0    0 -0.31565740259E+02  0.71635974874E+02  0.72149687087E+02  0.10645978678E+03  0.00000000000E+00 0. -1.
        -13    1    4    4    0    0  0.23406788621E+02 -0.13442391806E+02  0.10427046561E+03  0.10770750043E+03  0.00000000000E+00 0.  1.
         13    1    4    4    0    0  0.39049721653E+02  0.30439723261E+02  0.95989171688E+01  0.50434082962E+02  0.00000000000E+00 0. -1.
         21    1    1    2  502  501  0.13596201067E+02 -0.76771102128E+02  0.81647729984E+02  0.11289380239E+03  0.00000000000E+00 0.  1.
<scales pt_clust_5="13000.00000" pt_clust_6="13000.00000" pt_clust_7="13000.00000" pt_clust_8="13000.00000" pt_clust_9="77.96575"></scales>
<clustering>
<clus scale="   77.966">  2  9  1 -1</clus>
<clus scale="   88.616">  7  8 -1 -1</clus>
<clus scale="   93.556">  5  6 -1 -1</clus>
<clus scale="  114.639">  2  7  1 -1</clus>
<clus scale="   77.966">  2  5  1 -1</clus>
</clustering>
</event>
<event>
 9    1  0.9000149E-006  0.1501133E+03  0.7546771E-02  0.1200500E+00
          1   -1    0    0  502    0  0.00000000000E+00  0.00000000000E+00  0.25657030872E+03  0.25657030872E+03  0.00000000000E+00 0. -1.
         -1   -1    0    0    0  501 -0.00000000000E+00 -0.00000000000E+00 -0.14239651031E+03  0.14239651031E+03  0.00000000000E+00 0.  1.
         23    2    1    2    0    0 -0.51456252035E+02  0.12205694762E+03 -0.94986332801E+01  0.16128024830E+03  0.91517485324E+02 0.  0.
         23    2    1    2    0    0  0.82322523036E+02 -0.66837697164E+02  0.79829407880E+02  0.16071837571E+03  0.90627735092E+02 0.  0.
        -13    1    3    3    0    0  0.18978896513E+02  0.65383672292E+02 -0.18157132180E+02  0.70462078910E+02  0.00000000000E+00 0.  1.
         13    1    3    3    0    0 -0.70435148548E+02  0.56673275332E+02  0.86584988999E+01  0.90818169389E+02  0.00000000000E+00 0. -1.
        -13    1    4    4    0    0  0.46704047052E+02  0.14173074251E+02  0.15144373361E+02  0.51102799231E+02  0.00000000000E+00 0.  1.
         13    1    4    4    0    0  0.35618475985E+02 -0.81010771415E+02  0.64685034520E+02  0.10961557648E+03  0.00000000000E+00 0. -1.
         21    1    1    2  502  501 -0.30866271002E+02 -0.55219250461E+02  0.43843023810E+02  0.76968195014E+02  0.00000000000E+00 0. -1.
<scales pt_clust_5="13000.00000" pt_clust_6="13000.00000" pt_clust_7="13000.00000" pt_clust_8="13000.00000" pt_clust_9="63.26051"></scales>
<clustering>
<clus scale="   63.261">  1  9  2 -1</clus>
<clus scale="   90.628">  7  8 -1 -1</clus>
<clus scale="   91.517">  5  6 -1 -1</clus>
<clus scale="  149.573">  1  7  2 -1</clus>
<clus scale="   63.261">  1  5  2 -1</clus>
</clustering>
</event>
<event>
 9    1  0.9000149E-006  0.1041648E+03  0.7546771E-02  0.1274364E+00
          1   -1    0    0  502    0  0.00000000000E+00  0.00000000000E+00  0.16356185370E+03  0.16356185370E+03  0.00000000000E+00 0. -1.
         -1   -1    0    0    0  501 -0.00000000000E+00 -0.00000000000E+00 -0.20801129376E+03  0.20801129376E+03  0.00000000000E+00 0.  1.
         23    2    1    2    0    0 -0.20202445226E+02 -0.43882848721E+02 -0.14335894811E+03  0.17738370070E+03  0.92624759460E+02 0.  0.
         23    2    1    2    0    0 -0.30152944420E+02  0.57512019991E+02  0.40281604833E+02  0.11571237616E+03  0.86890240009E+02 0.  0.
        -11    1    3    3    0    0 -0.24768536968E+02  0.20450116062E+02 -0.83208325633E+02  0.89192562050E+02  0.00000000000E+00 0.  1.
         11    1    3    3    0    0  0.45660917417E+01 -0.64332964782E+02 -0.60150622475E+02  0.88191138646E+02  0.00000000000E+00 0. -1.
        -11    1    4    4    0    0 -0.39703364576E+02  0.21112861884E+02 -0.16239110145E+02  0.47810237334E+02  0.00000000000E+00 0.  1.
         11    1    4    4    0    0  0.95504201557E+01  0.36399158107E+02  0.56520714978E+02  0.67902138830E+02  0.00000000000E+00 0. -1.
         21    1    1    2  502  501  0.50355389646E+02 -0.13629171270E+02  0.58627903212E+02  0.78477070606E+02  0.00000000000E+00 0. -1.
<scales pt_clust_5="13000.00000" pt_clust_6="13000.00000" pt_clust_7="13000.00000" pt_clust_8="13000.00000" pt_clust_9="52.16723"></scales>
<clustering>
<clus scale="   52.167">  1  9  2 -1</clus>
<clus scale="   86.890">  7  8 -1 -1</clus>
<clus scale="   92.625">  5  6 -1 -1</clus>
<clus scale="   99.100">  1  7  2 -1</clus>
<clus scale="   52.167">  1  5  2 -1</clus>
</clustering>
</event>
<event>
 9    1  0.9000149E-006  0.1053863E+03  0.7546771E-02  0.1269997E+00
          2   -1    0    0  502    0  0.00000000000E+00  0.00000000000E+00  0.37206427065E+03  0.37206427065E+03  0.00000000000E+00 0. -1.
         -2   -1    0    0    0  501 -0.00000000000E+00 -0.00000000000E+00 -0.59518899372E+02  0.59518899372E+02  0.00000000000E+00 0.  1.
         23    2    1    2    0    0  0.85433674479E+01 -0.70760525085E+02  0.73773058882E+02  0.13775586718E+03  0.91946580617E+02 0.  0.
         23    2    1    2    0    0  0.25887708804E+02  0.30785663815E+02  0.82444592347E+02  0.12883686494E+03  0.90464890405E+02 0.  0.
        -11    1    3    3    0    0  0.40251762759E+02 -0.71081515206E+02  0.66225751570E+02  0.10516005126E+03  0.00000000000E+00 0.  1.
         11    1    3    3    0    0 -0.31708395311E+02  0.32099012127E+00  0.75473073118E+01  0.32595815920E+02  0.00000000000E+00 0. -1.
        -13    1    4    4    0    0  0.36945109108E+02 -0.23210143479E+02  0.41059342269E+02  0.59912614989E+02  0.00000000000E+00 0.  1.
         13    1    4    4    0    0 -0.11057400304E+02  0.53995807295E+02  0.41385250079E+02  0.68924249949E+02  0.00000000000E+00 0. -1.
         21    1    1    2  502  501 -0.34431076252E+02  0.39974861269E+02  0.15632772005E+03  0.16499043791E+03  0.00000000000E+00 0. -1.
<scales pt_clust_5="13000.00000" pt_clust_6="13000.00000" pt_clust_7="13000.00000" pt_clust_8="13000.00000" pt_clust_9="52.75878"></scales>
<clustering>
<clus scale="   52.759">  1  9  2 -1</clus>
<clus scale="   90.465">  7  8 -1 -1</clus>
<clus scale="   91.947">  5  6 -1 -1</clus>
<clus scale="  104.096">  1  7  2 -1</clus>
<clus scale="   52.759">  1  5  2 -1</clus>
</clustering>
</event>
<event>
 9    1  0.9000149E-006  0.2232890E+03  0.7546771E-02  0.1131489E+00
          2   -1    0    0  502    0  0.00000000000E+00  0.00000000000E+00  0.15120073881E+04  0.15120073881E+04  0.00000000000E+00 0. -1.
         -2   -1    0    0    0  501 -0.00000000000E+00 -0.00000000000E+00 -0.83444151317E+02  0.83444151317E+02  0.00000000000E+00 0.  1.
         23    2    1    2    0    0  0.17714795623E+03 -0.93086122366E+02  0.10921270162E+03  0.24554037250E+03  0.91193397566E+02 0.  0.
         23    2    1    2    0    0 -0.21070294516E+03  0.89026701368E+02  0.12286493758E+04  0.12531169703E+04  0.91658976884E+02 0.  0.
        -13    1    4    4    0    0 -0.27760048592E+02 -0.13888846665E+02  0.87978712171E+02  0.93294019930E+02  0.00000000000E+00 0.  1.
         13    1    4    4    0    0 -0.18294289657E+03  0.10291554803E+03  0.11406706636E+04  0.11598229504E+04  0.00000000000E+00 0. -1.
        -13    1    3    3    0    0  0.11558332444E+03 -0.28391146086E+02  0.22626916278E+02  0.12115089519E+03  0.00000000000E+00 0.  1.
         13    1    3    3    0    0  0.61564631789E+02 -0.64694976280E+02  0.86585785340E+02  0.12438947731E+03  0.00000000000E+00 0. -1.
         21    1    1    2  502  501  0.33554988938E+02  0.40594209974E+01  0.90701159383E+02  0.96794196597E+02  0.00000000000E+00 0. -1.
<scales pt_clust_5="13000.00000" pt_clust_6="13000.00000" pt_clust_7="13000.00000" pt_clust_8="13000.00000" pt_clust_9="33.79965"></scales>
<clustering>
<clus scale="   33.800">  1  9  2 -1</clus>
<clus scale="   91.193">  7  8 -1 -1</clus>
<clus scale="   91.659">  5  6 -1 -1</clus>
<clus scale="  223.098">  2  7  1 -1</clus>
<clus scale="   33.800">  1  5  2 -1</clus>
</clustering>
</event>
<event>
 9    1  0.9000149E-006  0.9411054E+02  0.7546771E-02  0.1293537E+00
         -2   -1    0    0    0  501 -0.00000000000E+00  0.00000000000E+00  0.46913480785E+02  0.46913480785E+02  0.00000000000E+00 0.  1.
          2   -1    0    0  502    0  0.00000000000E+00 -0.00000000000E+00 -0.37492247407E+03  0.37492247407E+03  0.00000000000E+00 0. -1.
         23    2    1    2    0    0  0.25345213268E+01  0.27594737881E+01 -0.75416508128E+02  0.11752087112E+03  0.90052578844E+02 0.  0.
         23    2    1    2    0    0 -0.49895142394E+01 -0.58241109400E+02 -0.12474432497E+03  0.16492573356E+03  0.90677609697E+02 0.  0.
        -11    1    4    4    0    0 -0.15563234340E+02 -0.77672570498E+02 -0.69373249691E+02  0.10529905149E+03  0.00000000000E+00 0. -1.
         11    1    4    4    0    0  0.10573720100E+02  0.19431461099E+02 -0.55371075283E+02  0.59626682074E+02  0.00000000000E+00 0.  1.
        -13    1    3    3    0    0 -0.24292856735E+02  0.19670486031E+01  0.11213732467E+02  0.26828342558E+02  0.00000000000E+00 0.  1.
         13    1    3    3    0    0  0.26827378062E+02  0.79242518503E+00 -0.86630240595E+02  0.90692528561E+02  0.00000000000E+00 0. -1.
         21    1    1    2  502  501  0.24549929126E+01  0.55481635612E+02 -0.12784816018E+03  0.13938935017E+03  0.00000000000E+00 0.  1.
<scales pt_clust_5="13000.00000" pt_clust_6="13000.00000" pt_clust_7="13000.00000" pt_clust_8="13000.00000" pt_clust_9="55.53592"></scales>
<clustering>
<clus scale="   55.536">  2  9  1 -1</clus>
<clus scale="   90.053">  7  8 -1 -1</clus>
<clus scale="   90.678">  5  6 -1 -1</clus>
<clus scale="   93.508">  1  7  2 -1</clus>
<clus scale="   55.536">  2  5  1 -1</clus>
</clustering>
</event>
<event>
 9    1  0.9000149E-006  0.9495977E+02  0.7546771E-02  0.1298860E+00
         -1   -1    0    0    0  501 -0.00000000000E+00  0.00000000000E+00  0.26384972994E+03  0.26384972994E+03  0.00000000000E+00 0.  1.
          1   -1    0    0  502    0  0.00000000000E+00 -0.00000000000E+00 -0.10050914615E+03  0.10050914615E+03  0.00000000000E+00 0. -1.
         23    2    1    2    0    0  0.96841078602E+01 -0.82538791617E+01  0.12280395551E+03  0.14727433751E+03  0.80293278269E+02 0.  0.
         23    2    1    2    0    0 -0.28221630199E+02 -0.57875071976E+02  0.79323232884E+02  0.13821072410E+03  0.93080849877E+02 0.  0.
        -11    1    4    4    0    0  0.30605704464E+02 -0.38591275493E+02  0.22391651485E+02  0.54105283903E+02  0.00000000000E+00 0.  1.
         11    1    4    4    0    0 -0.58827334663E+02 -0.19283796482E+02  0.56931581399E+02  0.84105440198E+02  0.00000000000E+00 0. -1.
        -11    1    3    3    0    0 -0.16256188286E+02 -0.30535305292E+02  0.10089856684E+03  0.10666390822E+03  0.00000000000E+00 0.  1.
         11    1    3    3    0    0  0.25940296147E+02  0.22281426131E+02  0.21905388671E+02  0.40610429294E+02  0.00000000000E+00 0. -1.
         21    1    1    2  502  501  0.18537522339E+02  0.66128951137E+02 -0.38786604607E+02  0.78873814475E+02  0.00000000000E+00 0. -1.
<scales pt_clust_5="13000.00000" pt_clust_6="13000.00000" pt_clust_7="13000.00000" pt_clust_8="13000.00000" pt_clust_9="68.67807"></scales>
<clustering>
<clus scale="   68.678">  2  9  1 -1</clus>
<clus scale="   80.293">  7  8 -1 -1</clus>
<clus scale="   82.464">  1  7  2 -1</clus>
<clus scale="   93.081">  5  6 -1 -1</clus>
<clus scale="   68.678">  2  5  1 -1</clus>
</clustering>
</event>
<event>
 9    1  0.9000149E-006  0.1379444E+03  0.7546771E-02  0.1229288E+00
         -2   -1    0    0    0  501 -0.00000000000E+00  0.00000000000E+00  0.18860583055E+03  0.18860583055E+03  0.00000000000E+00 0.  1.
          2   -1    0    0  502    0  0.00000000000E+00 -0.00000000000E+00 -0.17818485876E+03  0.17818485876E+03  0.00000000000E+00 0. -1.
         23    2    1    2    0    0  0.28554503282E+02  0.74324746611E+02 -0.40311844616E+02  0.12708895550E+03  0.90482209176E+02 0.  0.
         23    2    1    2    0    0 -0.15987505554E+02  0.39382680141E+02 -0.17926598853E+02  0.10627975798E+03  0.95746687574E+02 0.  0.
        -11    1    4    4    0    0 -0.25533266197E+02 -0.24128827816E+02  0.95787301261E+01  0.36412910970E+02  0.00000000000E+00 0.  1.
         11    1    4    4    0    0  0.95457606423E+01  0.63511507957E+02 -0.27505328979E+02  0.69866847013E+02  0.00000000000E+00 0. -1.
        -11    1    3    3    0    0  0.58240765088E+02  0.67692845057E+02 -0.36350632637E+02  0.96414088613E+02  0.00000000000E+00 0. -1.
         11    1    3    3    0    0 -0.29686261806E+02  0.66319015548E+01 -0.39612119791E+01  0.30674866888E+02  0.00000000000E+00 0.  1.
         21    1    1    2  502  501 -0.12566997727E+02 -0.11370742675E+03  0.68659415252E+02  0.13342197583E+03  0.00000000000E+00 0.  1.
<scales pt_clust_5="13000.00000" pt_clust_6="13000.00000" pt_clust_7="13000.00000" pt_clust_8="13000.00000" pt_clust_9="104.12311"></scales>
<clustering>
<clus scale="   90.482">  7  8 -1 -1</clus>
<clus scale="   95.747">  5  6 -1 -1</clus>
<clus scale="  104.757">  2  5  1 -1</clus>
<clus scale="  104.123">  1  9  2 -1</clus>
<clus scale="  104.757">  2  5  1 -1</clus>
</clustering>
</event>
<event>
 9    1  0.9000149E-006  0.1255223E+03  0.7546771E-02  0.1235579E+00
         -1   -1    0    0    0  501 -0.00000000000E+00  0.00000000000E+00  0.84840354773E+02  0.84840354773E+02  0.00000000000E+00 0.  1.
          1   -1    0    0  502    0  0.00000000000E+00 -0.00000000000E+00 -0.22089177193E+03  0.22089177193E+03  0.00000000000E+00 0. -1.
         23    2    1    2    0    0  0.11815827319E+02  0.80836837389E+02 -0.52073150817E+02  0.13240530162E+03  0.90251552929E+02 0.  0.
         23    2    1    2    0    0  0.11813850232E+02 -0.84016310384E+02 -0.64854756683E+02  0.14276247770E+03  0.94745332902E+02 0.  0.
        -11    1    3    3    0    0 -0.25857974344E+02  0.55133110436E+02  0.29145883851E+01  0.60965478174E+02  0.00000000000E+00 0.  1.
         11    1    3    3    0    0  0.37673801663E+02  0.25703726953E+02 -0.54987739203E+02  0.71439823443E+02  0.00000000000E+00 0. -1.
        -13    1    4    4    0    0  0.36193241376E+02  0.12775779364E+01 -0.70899528132E+01  0.36903256734E+02  0.00000000000E+00 0.  1.
         13    1    4    4    0    0 -0.24379391144E+02 -0.85293888320E+02 -0.57764803869E+02  0.10585922097E+03  0.00000000000E+00 0. -1.
         21    1    1    2  502  501 -0.23629677550E+02  0.31794729949E+01 -0.19123509661E+02  0.30564347391E+02  0.00000000000E+00 0.  1.
<scales pt_clust_5="13000.00000" pt_clust_6="13000.00000" pt_clust_7="13000.00000" pt_clust_8="13000.00000" pt_clust_9="23.84262"></scales>
<clustering>
<clus scale="   23.843">  2  9  1 -1</clus>
<clus scale="   90.252">  5  6 -1 -1</clus>
<clus scale="   94.745">  7  8 -1 -1</clus>
<clus scale="  122.166">  1  5  2 -1</clus>
<clus scale="   23.843">  2  5  1 -1</clus>
</clustering>
</event>
<event>
 9    1  0.9000149E-006  0.1396263E+03  0.7546771E-02  0.1214314E+00
         -2   -1    0    0    0  501 -0.00000000000E+00  0.00000000000E+00  0.11593160296E+03  0.11593160296E+03  0.00000000000E+00 0.  1.
          2   -1    0    0  502    0  0.00000000000E+00 -0.00000000000E+00 -0.26382702287E+03  0.26382702287E+03  0.00000000000E+00 0. -1.
         23    2    1    2    0    0  0.63459495585E+02  0.71137709979E+02 -0.18788960773E+02  0.13182248421E+03  0.89086816847E+02 0.  0.
         23    2    1    2    0    0 -0.76120754724E+02 -0.91538406344E+02 -0.39440945289E+02  0.15511157445E+03  0.91270823528E+02 0.  0.
        -13    1    3    3    0    0 -0.73090165240E+01  0.57157167859E+02 -0.15216344538E+02  0.59597824636E+02  0.00000000000E+00 0.  1.
         13    1    3    3    0    0  0.70768512109E+02  0.13980542119E+02 -0.35726162352E+01  0.72224659576E+02  0.00000000000E+00 0. -1.
        -13    1    4    4    0    0 -0.87777265124E+02 -0.53920175760E+02 -0.55687341210E+01  0.10316610115E+03  0.00000000000E+00 0.  1.
         13    1    4    4    0    0  0.11656510401E+02 -0.37618230584E+02 -0.33872211168E+02  0.51945473300E+02  0.00000000000E+00 0. -1.
         21    1    1    2  502  501  0.12661259138E+02  0.20400696365E+02 -0.89665513856E+02  0.92824567169E+02  0.00000000000E+00 0. -1.
<scales pt_clust_5="13000.00000" pt_clust_6="13000.00000" pt_clust_7="13000.00000" pt_clust_8="13000.00000" pt_clust_9="24.01033"></scales>
<clustering>
<clus scale="   24.010">  2  9  1 -1</clus>
<clus scale="   89.087">  5  6 -1 -1</clus>
<clus scale="   91.271">  7  8 -1 -1</clus>
<clus scale="  138.209">  1  5  2 -1</clus>
<clus scale="   24.010">  2  5  1 -1</clus>
</clustering>
</event>
<event>
 9    1  0.9000149E-006  0.1063694E+03  0.7546771E-02  0.1268011E+00
         -1   -1    0    0    0  501 -0.00000000000E+00  0.00000000000E+00  0.26707023436E+03  0.26707023436E+03  0.00000000000E+00 0.  1.
          1   -1    0    0  502    0  0.00000000000E+00 -0.00000000000E+00 -0.15094911209E+03  0.15094911209E+03  0.00000000000E+00 0. -1.
         23    2    1    2    0    0 -0.46948144625E+02  0.81127055289E+01  0.21870761933E+03  0.24235904218E+03  0.92924368714E+02 0.  0.
         23    2    1    2    0    0  0.64280953600E+02 -0.22596082436E+02 -0.99133779864E+02  0.15281045241E+03  0.94238549011E+02 0.  0.
        -11    1    4    4    0    0  0.28539336430E+02 -0.43133678495E+02 -0.74088470585E+01  0.52248434992E+02  0.00000000000E+00 0.  1.
         11    1    4    4    0    0  0.35741617169E+02  0.20537596059E+02 -0.91724932806E+02  0.10056201742E+03  0.00000000000E+00 0. -1.
        -13    1    3    3    0    0 -0.35965561426E+02 -0.33603387845E+02  0.58534523607E+02  0.76478753502E+02  0.00000000000E+00 0. -1.
         13    1    3    3    0    0 -0.10982583199E+02  0.41716093373E+02  0.16017309572E+03  0.16588028868E+03  0.00000000000E+00 0.  1.
         21    1    1    2  502  501 -0.17332808975E+02  0.14483376907E+02 -0.34527171923E+01  0.22849851851E+02  0.00000000000E+00 0.  1.
<scales pt_clust_5="13000.00000" pt_clust_6="13000.00000" pt_clust_7="13000.00000" pt_clust_8="13000.00000" pt_clust_9="22.58748"></scales>
<clustering>
<clus scale="   22.587">  2  9  1 -1</clus>
<clus scale="   92.924">  7  8 -1 -1</clus>
<clus scale="   94.239">  5  6 -1 -1</clus>
<clus scale="  105.207">  1  7  2 -1</clus>
<clus scale="   22.587">  2  5  1 -1</clus>
</clustering>
</event>
<event>
 9    1  0.9000149E-006  0.9432288E+02  0.7546771E-02  0.1297282E+00
         -3   -1    0    0    0  501 -0.00000000000E+00  0.00000000000E+00  0.17537569795E+03  0.17537569795E+03  0.00000000000E+00 0.  1.
          3   -1    0    0  502    0  0.00000000000E+00 -0.00000000000E+00 -0.87317214206E+02  0.87317214206E+02  0.00000000000E+00 0. -1.
         23    2    1    2    0    0 -0.73503774050E+01 -0.14554550269E+00  0.91881578114E+02  0.12644724105E+03  0.86559985794E+02 0.  0.
         23    2    1    2    0    0 -0.11505580246E+02  0.10370412514E+02  0.26480770334E+02  0.99118602010E+02  0.94251483991E+02 0.  0.
        -11    1    3    3    0    0  0.15355823278E+02 -0.28739286326E+02  0.60082416159E+01  0.33133772112E+02  0.00000000000E+00 0.  1.
         11    1    3    3    0    0 -0.22706200683E+02  0.28593740823E+02  0.85873336498E+02  0.93313468937E+02  0.00000000000E+00 0. -1.
        -11    1    4    4    0    0 -0.51732536881E+02 -0.41500272903E+01  0.79295037539E+01  0.52501001214E+02  0.00000000000E+00 0. -1.
         11    1    4    4    0    0  0.40226956636E+02  0.14520439804E+02  0.18551266580E+02  0.46617600796E+02  0.00000000000E+00 0.  1.
         21    1    1    2  502  501  0.18855957651E+02 -0.10224867011E+02 -0.30303864700E+02  0.37127069101E+02  0.00000000000E+00 0. -1.
<scales pt_clust_5="13000.00000" pt_clust_6="13000.00000" pt_clust_7="13000.00000" pt_clust_8="13000.00000" pt_clust_9="21.44983"></scales>
<clustering>
<clus scale="   21.450">  2  9  1 -1</clus>
<clus scale="   86.560">  5  6 -1 -1</clus>
<clus scale="   86.638">  1  5  2 -1</clus>
<clus scale="   94.251">  7  8 -1 -1</clus>
<clus scale="   21.450">  2  5  1 -1</clus>
</clustering>
</event>
<event>
 9    1  0.9000149E-006  0.1011597E+03  0.7546771E-02  0.1278260E+00
          2   -1    0    0  502    0  0.00000000000E+00  0.00000000000E+00  0.60741672991E+02  0.60741672991E+02  0.00000000000E+00 0. -1.
         -2   -1    0    0    0  501 -0.00000000000E+00 -0.00000000000E+00 -0.22204794346E+03  0.22204794346E+03  0.00000000000E+00 0.  1.
         23    2    1    2    0    0  0.24455450773E+02 -0.18616006235E+02 -0.79351181309E+02  0.12582157741E+03  0.92681360615E+02 0.  0.
         23    2    1    2    0    0 -0.32670806283E+02  0.40549863148E+02 -0.81741593074E+02  0.13354515011E+03  0.91874621604E+02 0.  0.
        -11    1    4    4    0    0 -0.58965334694E+02  0.21310399432E+01 -0.43714663091E+02  0.73433124651E+02  0.00000000000E+00 0. -1.
         11    1    4    4    0    0  0.26294528411E+02  0.38418823205E+02 -0.38026929983E+02  0.60112025459E+02  0.00000000000E+00 0.  1.
        -13    1    3    3    0    0  0.10907137030E+02 -0.47050500363E+02 -0.80972215398E+02  0.94282633020E+02  0.00000000000E+00 0.  1.
         13    1    3    3    0    0  0.13548313743E+02  0.28434494128E+02  0.16210340890E+01  0.31538944388E+02  0.00000000000E+00 0. -1.
         21    1    1    2  502  501  0.82153555100E+01 -0.21933856913E+02 -0.21349608108E+00  0.23422888930E+02  0.00000000000E+00 0.  1.
<scales pt_clust_5="13000.00000" pt_clust_6="13000.00000" pt_clust_7="13000.00000" pt_clust_8="13000.00000" pt_clust_9="23.42192"></scales>
<clustering>
<clus scale="   23.422">  1  9  2 -1</clus>
<clus scale="   91.875">  5  6 -1 -1</clus>
<clus scale="   92.681">  7  8 -1 -1</clus>
<clus scale="  100.421">  1  5  2 -1</clus>
<clus scale="   23.422">  1  5  2 -1</clus>
</clustering>
</event>
<event>
 9    1  0.9000149E-006  0.1003462E+03  0.7546771E-02  0.1280150E+00
          3   -1    0    0  502    0  0.00000000000E+00  0.00000000000E+00  0.47284448232E+03  0.47284448232E+03  0.00000000000E+00 0. -1.
         -3   -1    0    0    0  501 -0.00000000000E+00 -0.00000000000E+00 -0.76309869486E+02  0.76309869486E+02  0.00000000000E+00 0.  1.
         23    2    1    2    0    0  0.11768168784E+02 -0.30873787715E+02  0.66729899098E+01  0.98764303202E+02  0.92834143656E+02 0.  0.
         23    2    1    2    0    0 -0.78759734442E+02  0.42606954843E+01  0.11730718901E+03  0.16846444495E+03  0.91640838737E+02 0.  0.
        -13    1    3    3    0    0  0.18873092148E+02 -0.62744393686E+02  0.84445549677E+01  0.66063326096E+02  0.00000000000E+00 0.  1.
         13    1    3    3    0    0 -0.71049233640E+01  0.31870605971E+02 -0.17715650579E+01  0.32700977106E+02  0.00000000000E+00 0. -1.
        -13    1    4    4    0    0 -0.55910397315E+02  0.68138810138E+01  0.81481620829E+01  0.56910403687E+02  0.00000000000E+00 0.  1.
         13    1    4    4    0    0 -0.22849337126E+02 -0.25531855295E+01  0.10915902692E+03  0.11155404126E+03  0.00000000000E+00 0. -1.
         21    1    1    2  502  501  0.66991565658E+02  0.26613092230E+02  0.27255443392E+03  0.28192560365E+03  0.00000000000E+00 0. -1.
<scales pt_clust_5="13000.00000" pt_clust_6="13000.00000" pt_clust_7="13000.00000" pt_clust_8="13000.00000" pt_clust_9="72.08416"></scales>
<clustering>
<clus scale="   72.084">  1  9  2 -1</clus>
<clus scale="   91.641">  7  8 -1 -1</clus>
<clus scale="   92.834">  5  6 -1 -1</clus>
<clus scale="   99.243">  1  7  2 -1</clus>
<clus scale="   72.084">  1  5  2 -1</clus>
</clustering>
</event>
<event>
 9    1  0.9000149E-006  0.1498764E+03  0.7546771E-02  0.1219448E+00
         -1   -1    0    0    0  501 -0.00000000000E+00  0.00000000000E+00  0.47921934898E+03  0.47921934898E+03  0.00000000000E+00 0.  1.
          1   -1    0    0  502    0  0.00000000000E+00 -0.00000000000E+00 -0.15249820312E+03  0.15249820312E+03  0.00000000000E+00 0. -1.
         23    2    1    2    0    0  0.98403473684E+02 -0.40429213500E+02  0.20688709740E+03  0.25095383229E+03  0.94115832529E+02 0.  0.
         23    2    1    2    0    0  0.21827071782E+02  0.64879422674E+01 -0.91187798949E+02  0.13553400293E+03  0.97651097360E+02 0.  0.
        -13    1    4    4    0    0 -0.14599140504E+02  0.15753220229E+02  0.12771888652E+02  0.24988397123E+02  0.00000000000E+00 0.  1.
         13    1    4    4    0    0  0.36426212287E+02 -0.92652779615E+01 -0.10395968760E+03  0.11054560581E+03  0.00000000000E+00 0. -1.
        -13    1    3    3    0    0  0.96469042163E+02 -0.13075705976E+01  0.10924340145E+03  0.14574672071E+03  0.00000000000E+00 0. -1.
         13    1    3    3    0    0  0.19344315212E+01 -0.39121642902E+02  0.97643695944E+02  0.10520711158E+03  0.00000000000E+00 0.  1.
         21    1    1    2  502  501 -0.12023054547E+03  0.33941271232E+02  0.21102184742E+03  0.24522971689E+03  0.00000000000E+00 0.  1.
<scales pt_clust_5="13000.00000" pt_clust_6="13000.00000" pt_clust_7="13000.00000" pt_clust_8="13000.00000" pt_clust_9="116.64112"></scales>
<clustering>
<clus scale="   94.116">  7  8 -1 -1</clus>
<clus scale="   97.651">  5  6 -1 -1</clus>
<clus scale="  100.271">  2  5  1 -1</clus>
<clus scale="  116.641">  1  9  2 -1</clus>
<clus scale="  100.271">  2  5  1 -1</clus>
</clustering>
</event>
<event>
 9    1  0.9000149E-006  0.1404183E+03  0.7546771E-02  0.1215145E+00
          1   -1    0    0  502    0  0.00000000000E+00  0.00000000000E+00  0.92656398899E+03  0.92656398899E+03  0.00000000000E+00 0. -1.
         -1   -1    0    0    0  501 -0.00000000000E+00 -0.00000000000E+00 -0.62513274845E+02  0.62513274845E+02  0.00000000000E+00 0.  1.
         23    2    1    2    0    0  0.31935959976E+02  0.10172568146E+03  0.37582332424E+02  0.14493077288E+03  0.90688904549E+02 0.  0.
         23    2    1    2    0    0 -0.34383320077E+01 -0.50286132597E+02  0.51012600362E+03  0.52238471235E+03  0.10058196096E+03 0.  0.
        -13    1    4    4    0    0 -0.44388825939E+02  0.19079125650E+01  0.25095036261E+03  0.25485308021E+03  0.00000000000E+00 0. -1.
         13    1    4    4    0    0  0.40950493931E+02 -0.52194045162E+02  0.25917564101E+03  0.26753163215E+03  0.00000000000E+00 0.  1.
        -13    1    3    3    0    0  0.83057691427E+01  0.91649108643E+02 -0.82461548990E+01  0.92393419607E+02  0.00000000000E+00 0.  1.
         13    1    3    3    0    0  0.23630190834E+02  0.10076572821E+02  0.45828487323E+02  0.52537353273E+02  0.00000000000E+00 0. -1.
         21    1    1    2  502  501 -0.28497627969E+02 -0.51439548867E+02  0.31634237810E+03  0.32176177861E+03  0.00000000000E+00 0. -1.
<scales pt_clust_5="13000.00000" pt_clust_6="13000.00000" pt_clust_7="13000.00000" pt_clust_8="13000.00000" pt_clust_9="58.80597"></scales>
<clustering>
<clus scale="   58.806">  1  9  2 -1</clus>
<clus scale="   90.689">  7  8 -1 -1</clus>
<clus scale="  100.582">  5  6 -1 -1</clus>
<clus scale="  133.511">  2  7  1 -1</clus>
<clus scale="   58.806">  1  5  2 -1</clus>
</clustering>
</event>
<event>
 9    1  0.9000149E-006  0.9491967E+02  0.7546771E-02  0.1291883E+00
          2   -1    0    0  502    0  0.00000000000E+00  0.00000000000E+00  0.47754439464E+02  0.47754439464E+02  0.00000000000E+00 0. -1.
         -2   -1    0    0    0  501 -0.00000000000E+00 -0.00000000000E+00 -0.24276656375E+03  0.24276656375E+03  0.00000000000E+00 0.  1.
         23    2    1    2    0    0  0.15705985114E+02  0.33512356393E+01 -0.11247290206E+03  0.14553569259E+03  0.90953699056E+02 0.  0.
         23    2    1    2    0    0 -0.34364287796E+02 -0.11058914333E+02 -0.64799882809E+02  0.11811107142E+03  0.91912983398E+02 0.  0.
        -11    1    3    3    0    0  0.50587583344E+02 -0.94700036478E+01 -0.84819996258E+02  0.99212984649E+02  0.00000000000E+00 0.  1.
         11    1    3    3    0    0 -0.34881598231E+02  0.12821239287E+02 -0.27652905803E+02  0.46322707945E+02  0.00000000000E+00 0. -1.
        -13    1    4    4    0    0 -0.10900407348E+02 -0.20879589461E+02 -0.83359766085E+02  0.86623476830E+02  0.00000000000E+00 0.  1.
         13    1    4    4    0    0 -0.23463880448E+02  0.98206751277E+01  0.18559883276E+02  0.31487594587E+02  0.00000000000E+00 0. -1.
         21    1    1    2  502  501  0.18658302682E+02  0.77076786936E+01 -0.17739339412E+02  0.26874239200E+02  0.00000000000E+00 0. -1.
<scales pt_clust_5="13000.00000" pt_clust_6="13000.00000" pt_clust_7="13000.00000" pt_clust_8="13000.00000" pt_clust_9="20.18763"></scales>
<clustering>
<clus scale="   20.188">  1  9  2 -1</clus>
<clus scale="   90.954">  5  6 -1 -1</clus>
<clus scale="   91.913">  7  8 -1 -1</clus>
<clus scale="   93.991">  2  5  1 -1</clus>
<clus scale="   20.188">  1  5  2 -1</clus>
</clustering>
</event>
<event>
 9    1  0.9000149E-006  0.1454290E+03  0.7546771E-02  0.1210384E+00
         -2   -1    0    0    0  501 -0.00000000000E+00  0.00000000000E+00  0.31715232133E+03  0.31715232133E+03  0.00000000000E+00 0.  1.
          2   -1    0    0  502    0  0.00000000000E+00 -0.00000000000E+00 -0.11293480040E+03  0.11293480040E+03  0.00000000000E+00 0. -1.
         23    2    1    2    0    0  0.52474774203E+02  0.86537155269E+02  0.20826700186E+03  0.24940729850E+03  0.92663775625E+02 0.  0.
         23    2    1    2    0    0 -0.37969666997E+02 -0.70550390388E+02  0.31107026062E+02  0.13942506872E+03  0.10978455957E+03 0.  0.
        -13    1    4    4    0    0 -0.50934395890E+02  0.47345145551E+01 -0.10815684016E+02  0.52284867156E+02  0.00000000000E+00 0.  1.
         13    1    4    4    0    0  0.12964728893E+02 -0.75284904943E+02  0.41922710079E+02  0.87140201560E+02  0.00000000000E+00 0. -1.
        -13    1    3    3    0    0  0.43944638105E+02 -0.54688029528E+01  0.57465977260E+02  0.72549138977E+02  0.00000000000E+00 0. -1.
         13    1    3    3    0    0  0.85301360973E+01  0.92005958222E+02  0.15080102460E+03  0.17685815953E+03  0.00000000000E+00 0.  1.
         21    1    1    2  502  501 -0.14505107206E+02 -0.15986764881E+02 -0.35156506984E+02  0.41254754511E+02  0.00000000000E+00 0.  1.
<scales pt_clust_5="13000.00000" pt_clust_6="13000.00000" pt_clust_7="13000.00000" pt_clust_8="13000.00000" pt_clust_9="21.58645"></scales>
<clustering>
<clus scale="   21.586">  2  9  1 -1</clus>
<clus scale="   92.664">  7  8 -1 -1</clus>
<clus scale="  109.785">  5  6 -1 -1</clus>
<clus scale="  132.979">  1  7  2 -1</clus>
<clus scale="   21.586">  2  5  1 -1</clus>
</clustering>
</event>
<event>
 9    1  0.9000149E-006  0.1181262E+03  0.7546771E-02  0.1246416E+00
          1   -1    0    0  502    0  0.00000000000E+00  0.00000000000E+00  0.10132167797E+03  0.10132167797E+03  0.00000000000E+00 0. -1.
         -1   -1    0    0    0  501 -0.00000000000E+00 -0.00000000000E+00 -0.23848419780E+03  0.23848419780E+03  0.00000000000E+00 0.  1.
         23    2    1    2    0    0  0.58383006553E+02  0.36263683078E+02 -0.10133642829E+03  0.15069756652E+03  0.87846768240E+02 0.  0.
         23    2    1    2    0    0 -0.80932915206E+02 -0.49658018721E+02 -0.69461819206E+02  0.14645542209E+03  0.87224943368E+02 0.  0.
        -11    1    4    4    0    0 -0.13428416048E+02  0.15504370996E+02 -0.45061750667E+02  0.49510294391E+02  0.00000000000E+00 0.  1.
         11    1    4    4    0    0 -0.67504499157E+02 -0.65162389717E+02 -0.24400068540E+02  0.96945127701E+02  0.00000000000E+00 0. -1.
        -11    1    3    3    0    0 -0.19937857896E+02  0.18254536166E+02 -0.94761651653E+01  0.28645138756E+02  0.00000000000E+00 0. -1.
         11    1    3    3    0    0  0.78320864449E+02  0.18009146913E+02 -0.91860263128E+02  0.12205242776E+03  0.00000000000E+00 0.  1.
         21    1    1    2  502  501  0.22549908652E+02  0.13394335642E+02  0.33635727668E+02  0.42652887163E+02  0.00000000000E+00 0. -1.
<scales pt_clust_5="13000.00000" pt_clust_6="13000.00000" pt_clust_7="13000.00000" pt_clust_8="13000.00000" pt_clust_9="26.22797"></scales>
<clustering>
<clus scale="   26.228">  1  9  2 -1</clus>
<clus scale="   87.225">  5  6 -1 -1</clus>
<clus scale="   87.847">  7  8 -1 -1</clus>
<clus scale="  117.664">  1  5  2 -1</clus>
<clus scale="   26.228">  1  5  2 -1</clus>
</clustering>
</event>
<event>
 9    1  0.9180592E-006  0.1448379E+03  0.7546771E-02  0.1207034E+00
          1   -1    0    0  502    0  0.00000000000E+00  0.00000000000E+00  0.66105641794E+03  0.66105641794E+03  0.00000000000E+00 0. -1.
         -1   -1    0    0    0  501 -0.00000000000E+00 -0.00000000000E+00 -0.11134083700E+03  0.11134083700E+03  0.00000000000E+00 0.  1.
         23    2    1    2    0    0 -0.11753705501E+03  0.59749190157E+02 -0.29926979826E+02  0.16306807838E+03  0.91162761267E+02 0.  0.
         23    2    1    2    0    0  0.96632590885E+02 -0.53502280946E+02  0.56531209418E+03  0.58322586706E+03  0.91511182294E+02 0.  0.
        -13    1    4    4    0    0  0.64785863328E+02  0.16003147614E+02  0.28075560867E+03  0.28857758163E+03  0.00000000000E+00 0.  1.
         13    1    4    4    0    0  0.31846727557E+02 -0.69505428560E+02  0.28455648552E+03  0.29464828543E+03  0.00000000000E+00 0. -1.
        -13    1    3    3    0    0 -0.24640631832E+02 -0.55377417783E+01  0.26216444508E+02  0.36402325252E+02  0.00000000000E+00 0. -1.
         13    1    3    3    0    0 -0.92896423173E+02  0.65286931935E+02 -0.56143424334E+02  0.12666575313E+03  0.00000000000E+00 0.  1.
         21    1    1    2  502  501  0.20904464121E+02 -0.62469092104E+01  0.14330466579E+02  0.26103309507E+02  0.00000000000E+00 0. -1.
<scales pt_clust_5="13000.00000" pt_clust_6="13000.00000" pt_clust_7="13000.00000" pt_clust_8="13000.00000" pt_clust_9="21.81789"></scales>
<clustering>
<clus scale="   21.818">  2  9  1 -1</clus>
<clus scale="   91.163">  7  8 -1 -1</clus>
<clus scale="   91.511">  5  6 -1 -1</clus>
<clus scale="  144.618">  2  7  1 -1</clus>
<clus scale="  144.838">  1  5  2 -1</clus>
</clustering>
</event>
<event>
 9    1  0.9000149E-006  0.1286014E+03  0.7546771E-02  0.1239544E+00
         -1   -1    0    0    0  501 -0.00000000000E+00  0.00000000000E+00  0.24879724319E+02  0.24879724319E+02  0.00000000000E+00 0.  1.
          1   -1    0    0  502    0  0.00000000000E+00 -0.00000000000E+00 -0.74502418500E+03  0.74502418500E+03  0.00000000000E+00 0. -1.
         23    2    1    2    0    0  0.43232863360E+01  0.59954128657E+02 -0.19602113576E+03  0.22416345933E+03  0.90618885919E+02 0.  0.
         23    2    1    2    0    0  0.10116496352E+02 -0.38501401802E+02 -0.39240599576E+03  0.41150862957E+03  0.11735495413E+03 0.  0.
        -11    1    4    4    0    0  0.36326825296E+02 -0.71066881198E+02 -0.29287285005E+03  0.30355336621E+03  0.00000000000E+00 0.  1.
         11    1    4    4    0    0 -0.26210328944E+02  0.32565479396E+02 -0.99533145707E+02  0.10795526335E+03  0.00000000000E+00 0. -1.
        -13    1    3    3    0    0 -0.20280024736E+02 -0.16740173651E+02 -0.68061072382E+02  0.72964528307E+02  0.00000000000E+00 0.  1.
         13    1    3    3    0    0  0.24603311072E+02  0.76694302308E+02 -0.12796006338E+03  0.15119893102E+03  0.00000000000E+00 0. -1.
         21    1    1    2  502  501 -0.14439782688E+02 -0.21452726855E+02 -0.13171732916E+03  0.13423182043E+03  0.00000000000E+00 0. -1.
<scales pt_clust_5="13000.00000" pt_clust_6="13000.00000" pt_clust_7="13000.00000" pt_clust_8="13000.00000" pt_clust_9="25.85975"></scales>
<clustering>
<clus scale="   25.860">  2  9  1 -1</clus>
<clus scale="   90.619">  7  8 -1 -1</clus>
<clus scale="  104.776">  1  7  2 -1</clus>
<clus scale="  117.355">  5  6 -1 -1</clus>
<clus scale="   25.860">  2  5  1 -1</clus>
</clustering>
</event>
<event>
 9    1  0.9000149E-006  0.1595386E+03  0.7546771E-02  0.1192175E+00
         -1   -1    0    0    0  501 -0.00000000000E+00  0.00000000000E+00  0.10334720226E+03  0.10334720226E+03  0.00000000000E+00 0.  1.
          1   -1    0    0  502    0  0.00000000000E+00 -0.00000000000E+00 -0.65665375951E+03  0.65665375951E+03  0.00000000000E+00 0. -1.
         23    2    1    2    0    0  0.12173070830E+03 -0.39100984757E+02  0.26073142364E+02  0.15203344219E+03  0.78019910536E+02 0.  0.
         23    2    1    2    0    0 -0.12589341375E+03  0.14131381077E+02 -0.49648169991E+03  0.52129060466E+03  0.95921679551E+02 0.  0.
        -11    1    3    3    0    0  0.56017770269E+02  0.21857410558E+02  0.11585472538E+02  0.61236918245E+02  0.00000000000E+00 0. -1.
         11    1    3    3    0    0  0.65712938032E+02 -0.60958395315E+02  0.14487669826E+02  0.90796523949E+02  0.00000000000E+00 0.  1.
        -13    1    4    4    0    0 -0.68945294936E+02  0.10726874818E+02 -0.42063735586E+03  0.42638516002E+03  0.00000000000E+00 0. -1.
         13    1    4    4    0    0 -0.56948118810E+02  0.34045062591E+01 -0.75844344043E+02  0.94905444639E+02  0.00000000000E+00 0.  1.
         21    1    1    2  502  501  0.41627054441E+01  0.24969603680E+02 -0.82897999704E+02  0.86676914917E+02  0.00000000000E+00 0. -1.
<scales pt_clust_5="13000.00000" pt_clust_6="13000.00000" pt_clust_7="13000.00000" pt_clust_8="13000.00000" pt_clust_9="25.31421"></scales>
<clustering>
<clus scale="   25.314">  2  9  1 -1</clus>
<clus scale="   78.020">  5  6 -1 -1</clus>
<clus scale="   95.922">  7  8 -1 -1</clus>
<clus scale="  149.461">  1  5  2 -1</clus>
<clus scale="   25.314">  2  5  1 -1</clus>
</clustering>
</event>
<event>
 9    1  0.9000149E-006  0.3426642E+03  0.7546771E-02  0.1065741E+00
         -1   -1    0    0    0  501 -0.00000000000E+00  0.00000000000E+00  0.14235428342E+03  0.14235428342E+03  0.00000000000E+00 0.  1.
          1   -1    0    0  502    0  0.00000000000E+00 -0.00000000000E+00 -0.13679259784E+04  0.13679259784E+04  0.00000000000E+00 0. -1.
         23    2    1    2    0    0  0.30083416533E+03 -0.12732900138E+03 -0.15200152956E+03  0.37157244525E+03  0.90817109937E+02 0.  0.
         23    2    1    2    0    0 -0.31259581202E+03  0.14714006402E+03 -0.10104990039E+04  0.10715603226E+04  0.88130289169E+02 0.  0.
        -11    1    4    4    0    0 -0.13668848137E+03  0.88750304499E+02 -0.58856821091E+03  0.61071506972E+03  0.00000000000E+00 0. -1.
         11    1    4    4    0    0 -0.17590733065E+03  0.58389759523E+02 -0.42193079300E+03  0.46084525285E+03  0.00000000000E+00 0.  1.
        -13    1    3    3    0    0  0.13275961658E+03 -0.86871481673E+02 -0.33985387414E+02  0.16225528244E+03  0.00000000000E+00 0.  1.
         13    1    3    3    0    0  0.16807454876E+03 -0.40457519702E+02 -0.11801614215E+03  0.20931716281E+03  0.00000000000E+00 0. -1.
         21    1    1    2  502  501  0.11761646683E+02 -0.19811062647E+02 -0.63071161502E+02  0.67147493990E+02  0.00000000000E+00 0. -1.
<scales pt_clust_5="13000.00000" pt_clust_6="13000.00000" pt_clust_7="13000.00000" pt_clust_8="13000.00000" pt_clust_9="23.03941"></scales>
<clustering>
<clus scale="   23.039">  2  9  1 -1</clus>
<clus scale="   88.130">  5  6 -1 -1</clus>
<clus scale="   90.817">  7  8 -1 -1</clus>
<clus scale="  341.962">  2  5  1 -1</clus>
<clus scale="   23.039">  2  5  1 -1</clus>
</clustering>
</event>
<event>
 9    1  0.9000149E-006  0.1306689E+03  0.7546771E-02  0.1229304E+00
          1   -1    0    0  502    0  0.00000000000E+00  0.00000000000E+00  0.46146499964E+03  0.46146499964E+03  0.00000000000E+00 0. -1.
         -1   -1    0    0    0  501 -0.00000000000E+00 -0.00000000000E+00 -0.52012188553E+02  0.52012188553E+02  0.00000000000E+00 0.  1.
         23    2    1    2    0    0 -0.18397403764E+02 -0.73350274124E+02  0.10469663710E+03  0.16224254251E+03  0.98196382836E+02 0.  0.
         23    2    1    2    0    0  0.13559079770E+02  0.10309722354E+03  0.19827015049E+03  0.24056593475E+03  0.88022896110E+02 0.  0.
        -11    1    3    3    0    0  0.15592186170E+02 -0.85458674719E+02  0.82958281072E+02  0.12011818244E+03  0.00000000000E+00 0.  1.
         11    1    3    3    0    0 -0.33989589934E+02  0.12108400595E+02  0.21738356028E+02  0.42124360074E+02  0.00000000000E+00 0. -1.
        -11    1    4    4    0    0 -0.37070775314E+01  0.73448013042E+02  0.51355435347E+02  0.89698014378E+02  0.00000000000E+00 0.  1.
         11    1    4    4    0    0  0.17266157302E+02  0.29649210502E+02  0.14691471515E+03  0.15086792037E+03  0.00000000000E+00 0. -1.
         21    1    1    2  502  501  0.48383239938E+01 -0.29746949420E+02  0.10648602349E+03  0.11066871092E+03  0.00000000000E+00 0.  1.
<scales pt_clust_5="13000.00000" pt_clust_6="13000.00000" pt_clust_7="13000.00000" pt_clust_8="13000.00000" pt_clust_9="30.13786"></scales>
<clustering>
<clus scale="   30.138">  1  9  2 -1</clus>
<clus scale="   88.023">  7  8 -1 -1</clus>
<clus scale="   98.196">  5  6 -1 -1</clus>
<clus scale="  123.207">  1  7  2 -1</clus>
<clus scale="   30.138">  1  5  2 -1</clus>
</clustering>
</event>
<event>
 9    1  0.9000149E-006  0.9767949E+02  0.7546771E-02  0.1286277E+00
         -2   -1    0    0    0  501 -0.00000000000E+00  0.00000000000E+00  0.13195794341E+03  0.13195794341E+03  0.00000000000E+00 0.  1.
          2   -1    0    0  502    0  0.00000000000E+00 -0.00000000000E+00 -0.12034785341E+03  0.12034785341E+03  0.00000000000E+00 0. -1.
         23    2    1    2    0    0  0.21792308043E+01  0.48970894040E+02  0.43645742004E+02  0.11301018654E+03  0.91997032328E+02 0.  0.
         23    2    1    2    0    0 -0.23739038682E+01 -0.11166192039E+02 -0.15743591637E+01  0.90745391410E+02  0.90010711536E+02 0.  0.
        -11    1    4    4    0    0 -0.32380721069E+02  0.15480928346E+02 -0.25496543192E+02  0.44025492095E+02  0.00000000000E+00 0.  1.
         11    1    4    4    0    0  0.30006817201E+02 -0.26647120385E+02  0.23922184029E+02  0.46719899316E+02  0.00000000000E+00 0. -1.
        -13    1    3    3    0    0 -0.37965622736E+02  0.12435320925E+01  0.20416949577E+01  0.38040812296E+02  0.00000000000E+00 0. -1.
         13    1    3    3    0    0  0.40144853541E+02  0.47727361947E+02  0.41604047046E+02  0.74969374246E+02  0.00000000000E+00 0.  1.
         21    1    1    2  502  501  0.19467306396E+00 -0.37804702001E+02 -0.30461292842E+02  0.48550218873E+02  0.00000000000E+00 0. -1.
<scales pt_clust_5="13000.00000" pt_clust_6="13000.00000" pt_clust_7="13000.00000" pt_clust_8="13000.00000" pt_clust_9="37.80520"></scales>
<clustering>
<clus scale="   37.805">  2  9  1 -1</clus>
<clus scale="   90.011">  5  6 -1 -1</clus>
<clus scale="   91.997">  7  8 -1 -1</clus>
<clus scale="   95.811">  2  5  1 -1</clus>
<clus scale="   37.805">  2  5  1 -1</clus>
</clustering>
</event>
<event>
 9    1  0.9000149E-006  0.1135285E+03  0.7546771E-02  0.1256394E+00
          1   -1    0    0  502    0  0.00000000000E+00  0.00000000000E+00  0.74892834656E+03  0.74892834656E+03  0.00000000000E+00 0. -1.
         -1   -1    0    0    0  501 -0.00000000000E+00 -0.00000000000E+00 -0.28568613076E+02  0.28568613076E+02  0.00000000000E+00 0.  1.
         23    2    1    2    0    0 -0.23403279798E+02 -0.31708118956E+02  0.17780588195E+03  0.20083399867E+03  0.84653677149E+02 0.  0.
         23    2    1    2    0    0  0.81283859348E+02  0.49821314180E+02  0.41564452025E+03  0.43600654377E+03  0.90841124268E+02 0.  0.
        -11    1    4    4    0    0 -0.45037805520E+01  0.45043841990E+02  0.16191654894E+03  0.16812555000E+03  0.00000000000E+00 0. -1.
         11    1    4    4    0    0  0.85787639900E+02  0.47774721896E+01  0.25372797130E+03  0.26788099377E+03  0.00000000000E+00 0.  1.
        -11    1    3    3    0    0  0.23240629765E+02 -0.38711790524E+02  0.10207977767E+03  0.11161993821E+03  0.00000000000E+00 0. -1.
         11    1    3    3    0    0 -0.46643909563E+02  0.70036715684E+01  0.75726104280E+02  0.89214060463E+02  0.00000000000E+00 0.  1.
         21    1    1    2  502  501 -0.57880579550E+02 -0.18113195224E+02  0.12690933129E+03  0.14065641720E+03  0.00000000000E+00 0. -1.
<scales pt_clust_5="13000.00000" pt_clust_6="13000.00000" pt_clust_7="13000.00000" pt_clust_8="13000.00000" pt_clust_9="60.64857"></scales>
<clustering>
<clus scale="   60.649">  2  9  1 -1</clus>
<clus scale="   84.654">  7  8 -1 -1</clus>
<clus scale="   90.841">  5  6 -1 -1</clus>
<clus scale="  108.641">  2  7  1 -1</clus>
<clus scale="  113.528">  1  5  2 -1</clus>
</clustering>
</event>
<event>
 9    1  0.9000149E-006  0.1233651E+03  0.7546771E-02  0.1251945E+00
         -1   -1    0    0    0  501 -0.00000000000E+00  0.00000000000E+00  0.81450922300E+02  0.81450922300E+02  0.00000000000E+00 0.  1.
          1   -1    0    0  502    0  0.00000000000E+00 -0.00000000000E+00 -0.32581203231E+03  0.32581203231E+03  0.00000000000E+00 0. -1.
         23    2    1    2    0    0  0.98380508324E+00  0.93284589845E+01 -0.21227551685E+02  0.12546254353E+03  0.12329741627E+03 0.  0.
         23    2    1    2    0    0 -0.66379155376E+01  0.13053882756E+02 -0.47982414627E+02  0.10513445135E+03  0.92393046115E+02 0.  0.
        -11    1    4    4    0    0 -0.79358812654E+00 -0.34827979544E+02 -0.44857334119E+02  0.56796112239E+02  0.00000000000E+00 0.  1.
         11    1    4    4    0    0 -0.58443274111E+01  0.47881862300E+02 -0.31250805078E+01  0.48338339114E+02  0.00000000000E+00 0. -1.
        -13    1    3    3    0    0 -0.38042118609E+02 -0.47347517790E+00  0.38057002641E+02  0.53812288718E+02  0.00000000000E+00 0.  1.
         13    1    3    3    0    0  0.39025923692E+02  0.98019341624E+01 -0.59284554326E+02  0.71650254815E+02  0.00000000000E+00 0. -1.
         21    1    1    2  502  501  0.56541104544E+01 -0.22382341740E+02 -0.17515114370E+03  0.17666595972E+03  0.00000000000E+00 0. -1.
<scales pt_clust_5="13000.00000" pt_clust_6="13000.00000" pt_clust_7="13000.00000" pt_clust_8="13000.00000" pt_clust_9="23.08545"></scales>
<clustering>
<clus scale="   23.085">  2  9  1 -1</clus>
<clus scale="   92.393">  5  6 -1 -1</clus>
<clus scale="   92.483">  2  5  1 -1</clus>
<clus scale="  123.297">  7  8 -1 -1</clus>
<clus scale="   23.085">  2  5  1 -1</clus>
</clustering>
</event>
<event>
 9    1  0.9000149E-006  0.1629956E+03  0.7546771E-02  0.1206992E+00
         -1   -1    0    0    0  501 -0.00000000000E+00  0.00000000000E+00  0.65506646868E+02  0.65506646868E+02  0.00000000000E+00 0.  1.
          1   -1    0    0  502    0  0.00000000000E+00 -0.00000000000E+00 -0.80758990487E+03  0.80758990487E+03  0.00000000000E+00 0. -1.
         23    2    1    2    0    0  0.20410295142E+02  0.33715296620E+02 -0.49217418964E+02  0.11286075241E+03  0.93604987752E+02 0.  0.
         23    2    1    2    0    0 -0.70185154743E+02 -0.14593055113E+03 -0.35307190344E+03  0.39894683096E+03  0.90978696583E+02 0.  0.
        -11    1    3    3    0    0 -0.36882414320E+02  0.61163359052E+01 -0.24133048841E+02  0.44498607813E+02  0.00000000000E+00 0.  1.
         11    1    3    3    0    0  0.57292709461E+02  0.27598960714E+02 -0.25084370123E+02  0.68362144601E+02  0.00000000000E+00 0. -1.
        -13    1    4    4    0    0 -0.59023565389E+02 -0.87254684863E+02 -0.12642187887E+03  0.16455896438E+03  0.00000000000E+00 0.  1.
         13    1    4    4    0    0 -0.11161589355E+02 -0.58675866270E+02 -0.22665002457E+03  0.23438786658E+03  0.00000000000E+00 0. -1.
         21    1    1    2  502  501  0.49774859602E+02  0.11221525451E+03 -0.33979393560E+03  0.36128896837E+03  0.00000000000E+00 0. -1.
<scales pt_clust_5="13000.00000" pt_clust_6="13000.00000" pt_clust_7="13000.00000" pt_clust_8="13000.00000" pt_clust_9="135.24217"></scales>
<clustering>
<clus scale="   90.979">  7  8 -1 -1</clus>
<clus scale="   93.605">  5  6 -1 -1</clus>
<clus scale="  101.564">  1  5  2 -1</clus>
<clus scale="  135.242">  2  9  1 -1</clus>
<clus scale="  135.242">  2  5  1 -1</clus>
</clustering>
</event>
<event>
 9    1  0.9000149E-006  0.1955468E+03  0.7546771E-02  0.1153626E+00
          1   -1    0    0  502    0  0.00000000000E+00  0.00000000000E+00  0.10241974576E+04  0.10241974576E+04  0.00000000000E+00 0. -1.
         -1   -1    0    0    0  501 -0.00000000000E+00 -0.00000000000E+00 -0.74977971368E+02  0.74977971368E+02  0.00000000000E+00 0.  1.
         23    2    1    2    0    0 -0.10924523461E+03  0.12777876553E+03  0.10859486245E+03  0.21995523285E+03  0.91244320941E+02 0.  0.
         23    2    1    2    0    0  0.15097517740E+03 -0.12320966484E+03  0.71524159861E+03  0.74699626557E+03  0.91971466762E+02 0.  0.
        -13    1    3    3    0    0 -0.70034560741E+02  0.93983540936E+02  0.22278290904E+02  0.11930661302E+03  0.00000000000E+00 0.  1.
         13    1    3    3    0    0 -0.39210673868E+02  0.33795224591E+02  0.86316571546E+02  0.10064861983E+03  0.00000000000E+00 0. -1.
        -13    1    4    4    0    0  0.53343691798E+02 -0.10032253412E+03  0.42469047188E+03  0.43962729353E+03  0.00000000000E+00 0. -1.
         13    1    4    4    0    0  0.97631485604E+02 -0.22887130714E+02  0.29055112673E+03  0.30736897204E+03  0.00000000000E+00 0.  1.
         21    1    1    2  502  501 -0.41729942793E+02 -0.45691006893E+01  0.12538302515E+03  0.13222393052E+03  0.00000000000E+00 0. -1.
<scales pt_clust_5="13000.00000" pt_clust_6="13000.00000" pt_clust_7="13000.00000" pt_clust_8="13000.00000" pt_clust_9="41.97934"></scales>
<clustering>
<clus scale="   41.979">  1  9  2 -1</clus>
<clus scale="   91.244">  5  6 -1 -1</clus>
<clus scale="   91.971">  7  8 -1 -1</clus>
<clus scale="  195.206">  2  5  1 -1</clus>
<clus scale="   41.979">  1  5  2 -1</clus>
</clustering>
</event>
<event>
 9    1  0.9000149E-006  0.1781750E+03  0.7546771E-02  0.1171177E+00
          2   -1    0    0  502    0  0.00000000000E+00  0.00000000000E+00  0.91811412786E+03  0.91811412786E+03  0.00000000000E+00 0. -1.
         -2   -1    0    0    0  501 -0.00000000000E+00 -0.00000000000E+00 -0.44291750020E+02  0.44291750020E+02  0.00000000000E+00 0.  1.
         23    2    1    2    0    0 -0.14961522432E+03 -0.45850774614E+02  0.31340516400E+03  0.36490905374E+03  0.10221942965E+03 0.  0.
         23    2    1    2    0    0  0.12253847016E+03  0.56365766002E+02  0.35990291017E+03  0.39488956456E+03  0.90636014918E+02 0.  0.
        -11    1    4    4    0    0  0.11317256011E+03  0.19716121951E+02  0.20067260879E+03  0.23122770108E+03  0.00000000000E+00 0. -1.
         11    1    4    4    0    0  0.93659100502E+01  0.36649644052E+02  0.15923030138E+03  0.16366186348E+03  0.00000000000E+00 0.  1.
        -13    1    3    3    0    0 -0.75642324879E+02 -0.45787762228E+02  0.25729183117E+03  0.27206132925E+03  0.00000000000E+00 0. -1.
         13    1    3    3    0    0 -0.73972899445E+02 -0.63012386161E-01  0.56113332830E+02  0.92847724497E+02  0.00000000000E+00 0.  1.
         21    1    1    2  502  501  0.27076754166E+02 -0.10514991388E+02  0.20051430367E+03  0.20260725959E+03  0.00000000000E+00 0. -1.
<scales pt_clust_5="13000.00000" pt_clust_6="13000.00000" pt_clust_7="13000.00000" pt_clust_8="13000.00000" pt_clust_9="29.04678"></scales>
<clustering>
<clus scale="   29.047">  1  9  2 -1</clus>
<clus scale="   90.636">  5  6 -1 -1</clus>
<clus scale="  102.219">  7  8 -1 -1</clus>
<clus scale="  171.792">  1  5  2 -1</clus>
<clus scale="   29.047">  1  5  2 -1</clus>
</clustering>
</event>
<event>
 9    1  0.9000149E-006  0.1807567E+03  0.7546771E-02  0.1167419E+00
         -1   -1    0    0    0  501 -0.00000000000E+00  0.00000000000E+00  0.86044579977E+03  0.86044579977E+03  0.00000000000E+00 0.  1.
          1   -1    0    0  502    0  0.00000000000E+00 -0.00000000000E+00 -0.11577122732E+03  0.11577122732E+03  0.00000000000E+00 0. -1.
         23    2    1    2    0    0 -0.12828315144E+03 -0.80994031577E+02  0.52090993033E+03  0.55005649227E+03  0.90544956150E+02 0.  0.
         23    2    1    2    0    0  0.12526639315E+03  0.10135444918E+03  0.29674244138E+03  0.35033569312E+03  0.93352170492E+02 0.  0.
        -13    1    4    4    0    0  0.40278626867E+02  0.33741243865E+01  0.20861054203E+02  0.45485559028E+02  0.00000000000E+00 0.  1.
         13    1    4    4    0    0  0.84987766287E+02  0.97980324790E+02  0.27588138718E+03  0.30485013409E+03  0.00000000000E+00 0. -1.
        -13    1    3    3    0    0 -0.80012904319E+02 -0.26439360148E+02  0.14989468218E+03  0.17195790290E+03  0.00000000000E+00 0. -1.
         13    1    3    3    0    0 -0.48270247124E+02 -0.54554671429E+02  0.37101524814E+03  0.37809858938E+03  0.00000000000E+00 0.  1.
         21    1    1    2  502  501  0.30167582892E+01 -0.20360417599E+02 -0.72977799252E+02  0.75824841702E+02  0.00000000000E+00 0. -1.
<scales pt_clust_5="13000.00000" pt_clust_6="13000.00000" pt_clust_7="13000.00000" pt_clust_8="13000.00000" pt_clust_9="20.58270"></scales>
<clustering>
<clus scale="   20.583">  2  9  1 -1</clus>
<clus scale="   90.545">  7  8 -1 -1</clus>
<clus scale="   93.352">  5  6 -1 -1</clus>
<clus scale="  179.323">  1  7  2 -1</clus>
<clus scale="   20.583">  2  5  1 -1</clus>
</clustering>
</event>
<event>
 9    1  0.9000149E-006  0.9953761E+02  0.7546771E-02  0.1282325E+00
         -1   -1    0    0    0  501 -0.00000000000E+00  0.00000000000E+00  0.15788817906E+03  0.15788817906E+03  0.00000000000E+00 0.  1.
          1   -1    0    0  502    0  0.00000000000E+00 -0.00000000000E+00 -0.13641072804E+03  0.13641072804E+03  0.00000000000E+00 0. -1.
         23    2    1    2    0    0 -0.99489057586E+01 -0.28590833924E+01  0.95896572234E+02  0.13782435398E+03  0.98449199587E+02 0.  0.
         23    2    1    2    0    0  0.21498332195E+02  0.33057549177E+02 -0.64930337124E+02  0.12277924765E+03  0.96456286109E+02 0.  0.
        -11    1    3    3    0    0 -0.49095408636E+02  0.18055110416E+02  0.66416063851E+02  0.84542531892E+02  0.00000000000E+00 0.  1.
         11    1    3    3    0    0  0.39146502877E+02 -0.20914193809E+02  0.29480508383E+02  0.53281822085E+02  0.00000000000E+00 0. -1.
        -13    1    4    4    0    0 -0.38036407105E+02  0.13575320950E+02 -0.34601532902E+02  0.53181986457E+02  0.00000000000E+00 0.  1.
         13    1    4    4    0    0  0.59534739300E+02  0.19482228227E+02 -0.30328804222E+02  0.69597261194E+02  0.00000000000E+00 0. -1.
         21    1    1    2  502  501 -0.11549426436E+02 -0.30198465785E+02 -0.94887840896E+01  0.33695305463E+02  0.00000000000E+00 0.  1.
<scales pt_clust_5="13000.00000" pt_clust_6="13000.00000" pt_clust_7="13000.00000" pt_clust_8="13000.00000" pt_clust_9="32.33167"></scales>
<clustering>
<clus scale="   32.332">  2  9  1 -1</clus>
<clus scale="   96.456">  7  8 -1 -1</clus>
<clus scale="   97.567">  2  7  1 -1</clus>
<clus scale="   98.449">  5  6 -1 -1</clus>
<clus scale="   32.332">  2  5  1 -1</clus>
</clustering>
</event>
<event>
 9    1  0.9000149E-006  0.1408064E+03  0.7546771E-02  0.1212260E+00
          1   -1    0    0  502    0  0.00000000000E+00  0.00000000000E+00  0.45368893483E+03  0.45368893483E+03  0.00000000000E+00 0. -1.
         -1   -1    0    0    0  501 -0.00000000000E+00 -0.00000000000E+00 -0.19077277693E+03  0.19077277693E+03  0.00000000000E+00 0.  1.
         23    2    1    2    0    0  0.41481144145E+02 -0.10519262129E+03 -0.12592564593E+03  0.19278165298E+03  0.92311020618E+02 0.  0.
         23    2    1    2    0    0 -0.89300536570E+02  0.18825294124E+02  0.24391822186E+03  0.27632654696E+03  0.92364950434E+02 0.  0.
        -11    1    4    4    0    0 -0.90347883415E+02 -0.17126654878E+02  0.19514336697E+03  0.21572435193E+03  0.00000000000E+00 0. -1.
         11    1    4    4    0    0  0.10473468447E+01  0.35951949002E+02  0.48774854892E+02  0.60602195027E+02  0.00000000000E+00 0.  1.
        -11    1    3    3    0    0  0.57409379735E+02 -0.70270144201E+02 -0.12490347340E+03  0.15438460971E+03  0.00000000000E+00 0.  1.
         11    1    3    3    0    0 -0.15928235590E+02 -0.34922477092E+02 -0.10221725342E+01  0.38397043271E+02  0.00000000000E+00 0. -1.
         21    1    1    2  502  501  0.47819392424E+02  0.86367327169E+02  0.14492358197E+03  0.17535351181E+03  0.00000000000E+00 0. -1.
<scales pt_clust_5="13000.00000" pt_clust_6="13000.00000" pt_clust_7="13000.00000" pt_clust_8="13000.00000" pt_clust_9="98.72188"></scales>
<clustering>
<clus scale="   92.311">  7  8 -1 -1</clus>
<clus scale="   92.365">  5  6 -1 -1</clus>
<clus scale="   98.722">  1  9  2 -1</clus>
<clus scale="  140.771">  2  7  1 -1</clus>
<clus scale="   98.722">  1  5  2 -1</clus>
</clustering>
</event>
<event>
 9    1  0.9000149E-006  0.9155860E+02  0.7546771E-02  0.1299851E+00
          1   -1    0    0  502    0  0.00000000000E+00  0.00000000000E+00  0.20054076823E+03  0.20054076823E+03  0.00000000000E+00 0. -1.
         -1   -1    0    0    0  501 -0.00000000000E+00 -0.00000000000E+00 -0.68953127453E+02  0.68953127453E+02  0.00000000000E+00 0.  1.
         23    2    1    2    0    0 -0.14613550773E+02  0.13497510122E+02 -0.12402815347E+01  0.92559018514E+02  0.90387471279E+02 0.  0.
         23    2    1    2    0    0 -0.10992440957E+02 -0.10617305051E+02  0.95051337860E+02  0.13120706587E+03  0.89145815269E+02 0.  0.
        -11    1    3    3    0    0  0.63488889882E+01  0.49253528589E+02 -0.87796039509E+01  0.50431140334E+02  0.00000000000E+00 0.  1.
         11    1    3    3    0    0 -0.20962439761E+02 -0.35756018468E+02  0.75393224161E+01  0.42127878179E+02  0.00000000000E+00 0. -1.
        -13    1    4    4    0    0 -0.64786609747E+01 -0.49564670867E+02  0.42310609035E+02  0.65489062316E+02  0.00000000000E+00 0.  1.
         13    1    4    4    0    0 -0.45137799824E+01  0.38947365816E+02  0.52740728825E+02  0.65718003551E+02  0.00000000000E+00 0. -1.
         21    1    1    2  502  501  0.25605991730E+02 -0.28802050705E+01  0.37776584454E+02  0.45727811305E+02  0.00000000000E+00 0.  1.
<scales pt_clust_5="13000.00000" pt_clust_6="13000.00000" pt_clust_7="13000.00000" pt_clust_8="13000.00000" pt_clust_9="25.76747"></scales>
<clustering>
<clus scale="   25.767">  1  9  2 -1</clus>
<clus scale="   89.146">  7  8 -1 -1</clus>
<clus scale="   90.333">  1  7  2 -1</clus>
<clus scale="   90.387">  5  6 -1 -1</clus>
<clus scale="   25.767">  1  5  2 -1</clus>
</clustering>
</event>
<event>
 9    1  0.9000149E-006  0.1443281E+03  0.7546771E-02  0.1207894E+00
         -1   -1    0    0    0  501 -0.00000000000E+00  0.00000000000E+00  0.49223125396E+02  0.49223125396E+02  0.00000000000E+00 0.  1.
          1   -1    0    0  502    0  0.00000000000E+00 -0.00000000000E+00 -0.68645268371E+03  0.68645268371E+03  0.00000000000E+00 0. -1.
         23    2    1    2    0    0 -0.30909150066E+01  0.76880236701E+02 -0.15125487648E+03  0.19344705516E+03  0.92863345520E+02 0.  0.
         23    2    1    2    0    0  0.44318624062E+02 -0.13239141166E+03 -0.38716778570E+03  0.42163017492E+03  0.91550444004E+02 0.  0.
        -11    1    3    3    0    0 -0.28393790789E+02  0.85741408584E+02 -0.13388497324E+03  0.16150226797E+03  0.00000000000E+00 0. -1.
         11    1    3    3    0    0  0.25302875782E+02 -0.88611718824E+01 -0.17369903241E+02  0.31944787190E+02  0.00000000000E+00 0.  1.
        -13    1    4    4    0    0 -0.24975805214E+02 -0.24755263013E+02 -0.12540350187E+03  0.13024074698E+03  0.00000000000E+00 0. -1.
         13    1    4    4    0    0  0.69294429276E+02 -0.10763614865E+03 -0.26176428383E+03  0.29138942794E+03  0.00000000000E+00 0.  1.
         21    1    1    2  502  501 -0.41227709055E+02  0.55511174960E+02 -0.98806896137E+02  0.12059857903E+03  0.00000000000E+00 0. -1.
<scales pt_clust_5="13000.00000" pt_clust_6="13000.00000" pt_clust_7="13000.00000" pt_clust_8="13000.00000" pt_clust_9="69.14633"></scales>
<clustering>
<clus scale="   69.146">  1  9  2 -1</clus>
<clus scale="   91.550">  7  8 -1 -1</clus>
<clus scale="   92.863">  5  6 -1 -1</clus>
<clus scale="  143.487">  2  7  1 -1</clus>
<clus scale="  143.487">  2  5  1 -1</clus>
</clustering>
</event>
<event>
 9    1  0.9000149E-006  0.1023170E+03  0.7546771E-02  0.1277204E+00
          1   -1    0    0  502    0  0.00000000000E+00  0.00000000000E+00  0.18702468045E+03  0.18702468045E+03  0.00000000000E+00 0. -1.
         -1   -1    0    0    0  501 -0.00000000000E+00 -0.00000000000E+00 -0.16837103190E+03  0.16837103190E+03  0.00000000000E+00 0.  1.
         23    2    1    2    0    0  0.38090145031E+02  0.14165237247E+02 -0.68693552219E+02  0.11833573939E+03  0.87367213560E+02 0.  0.
         23    2    1    2    0    0 -0.20134554537E+02 -0.76835113653E+02 -0.84980049384E+01  0.12114526252E+03  0.91076470983E+02 0.  0.
        -11    1    4    4    0    0  0.26829241868E+02 -0.31259018157E+02 -0.31414995685E+02  0.51805756333E+02  0.00000000000E+00 0.  1.
         11    1    4    4    0    0 -0.46963796405E+02 -0.45576095496E+02  0.22916990747E+02  0.69339506187E+02  0.00000000000E+00 0. -1.
        -13    1    3    3    0    0  0.27663222739E+02  0.47418773891E+02 -0.19939892874E+02  0.58407134303E+02  0.00000000000E+00 0. -1.
         13    1    3    3    0    0  0.10426922291E+02 -0.33253536645E+02 -0.48753659345E+02  0.59928605084E+02  0.00000000000E+00 0.  1.
         21    1    1    2  502  501 -0.17955590494E+02  0.62669876406E+02  0.95845205713E+02  0.11591471044E+03  0.00000000000E+00 0. -1.
<scales pt_clust_5="13000.00000" pt_clust_6="13000.00000" pt_clust_7="13000.00000" pt_clust_8="13000.00000" pt_clust_9="65.19138"></scales>
<clustering>
<clus scale="   65.191">  1  9  2 -1</clus>
<clus scale="   87.367">  7  8 -1 -1</clus>
<clus scale="   91.076">  5  6 -1 -1</clus>
<clus scale="   99.030">  2  7  1 -1</clus>
<clus scale="   65.191">  1  5  2 -1</clus>
</clustering>
</event>
<event>
 9    1  0.9000149E-006  0.9279414E+02  0.7546771E-02  0.1297180E+00
          1   -1    0    0  502    0  0.00000000000E+00  0.00000000000E+00  0.82997783938E+02  0.82997783938E+02  0.00000000000E+00 0. -1.
         -1   -1    0    0    0  501 -0.00000000000E+00 -0.00000000000E+00 -0.23068939836E+03  0.23068939836E+03  0.00000000000E+00 0.  1.
         23    2    1    2    0    0 -0.10861854199E+01 -0.29013671503E+02 -0.12807230915E+03  0.15976764241E+03  0.90995660662E+02 0.  0.
         23    2    1    2    0    0  0.14583139166E+02 -0.22721432107E+01 -0.54075652538E+02  0.10546120903E+03  0.89331180620E+02 0.  0.
        -11    1    4    4    0    0  0.29872375527E+02  0.28206155261E+02 -0.58065361649E+02  0.71130388989E+02  0.00000000000E+00 0. -1.
         11    1    4    4    0    0 -0.15289236361E+02 -0.30478298472E+02  0.39897091109E+01  0.34330820046E+02  0.00000000000E+00 0.  1.
        -13    1    3    3    0    0 -0.45026025389E+02 -0.23336404060E+02 -0.76423290173E+02  0.91719409056E+02  0.00000000000E+00 0.  1.
         13    1    3    3    0    0  0.43939839969E+02 -0.56772674425E+01 -0.51649018974E+02  0.68048233357E+02  0.00000000000E+00 0. -1.
         21    1    1    2  502  501 -0.13496953746E+02  0.31285814713E+02  0.34456347259E+02  0.48458330854E+02  0.00000000000E+00 0. -1.
<scales pt_clust_5="13000.00000" pt_clust_6="13000.00000" pt_clust_7="13000.00000" pt_clust_8="13000.00000" pt_clust_9="34.07301"></scales>
<clustering>
<clus scale="   34.073">  1  9  2 -1</clus>
<clus scale="   89.331">  5  6 -1 -1</clus>
<clus scale="   90.996">  7  8 -1 -1</clus>
<clus scale="   91.162">  1  5  2 -1</clus>
<clus scale="   34.073">  1  5  2 -1</clus>
</clustering>
</event>
<event>
 9    1  0.9000149E-006  0.1445716E+03  0.7546771E-02  0.1208023E+00
         -1   -1    0    0    0  501 -0.00000000000E+00  0.00000000000E+00  0.56361412796E+03  0.56361412796E+03  0.00000000000E+00 0.  1.
          1   -1    0    0  502    0  0.00000000000E+00 -0.00000000000E+00 -0.97022102377E+02  0.97022102377E+02  0.00000000000E+00 0. -1.
         23    2    1    2    0    0 -0.10653423269E+03  0.37185264613E+02  0.47058803645E+03  0.49196292665E+03  0.88555827067E+02 0.  0.
         23    2    1    2    0    0  0.87533956735E+02 -0.58676462349E+02 -0.25113264220E+01  0.13994898725E+03  0.92055914843E+02 0.  0.
        -13    1    4    4    0    0  0.94573471742E+02 -0.26681310061E+02 -0.23507448111E+02  0.10103778492E+03  0.00000000000E+00 0. -1.
         13    1    4    4    0    0 -0.70395150070E+01 -0.31995152289E+02  0.20996121689E+02  0.38911202339E+02  0.00000000000E+00 0.  1.
        -13    1    3    3    0    0 -0.30142823024E+02  0.69463989381E+01  0.27712032140E+02  0.41530699048E+02  0.00000000000E+00 0. -1.
         13    1    3    3    0    0 -0.76391409670E+02  0.30238865674E+02  0.44287600431E+03  0.45043222760E+03  0.00000000000E+00 0.  1.
         21    1    1    2  502  501  0.19000275960E+02  0.21491197737E+02 -0.14846844438E+01  0.28724316434E+02  0.00000000000E+00 0. -1.
<scales pt_clust_5="13000.00000" pt_clust_6="13000.00000" pt_clust_7="13000.00000" pt_clust_8="13000.00000" pt_clust_9="28.68592"></scales>
<clustering>
<clus scale="   28.686">  2  9  1 -1</clus>
<clus scale="   88.556">  7  8 -1 -1</clus>
<clus scale="   92.056">  5  6 -1 -1</clus>
<clus scale="  142.368">  1  7  2 -1</clus>
<clus scale="   28.686">  2  5  1 -1</clus>
</clustering>
</event>
<event>
 9    1  0.9000149E-006  0.1053039E+03  0.7546771E-02  0.1287243E+00
         -1   -1    0    0    0  501 -0.00000000000E+00  0.00000000000E+00  0.52875751257E+03  0.52875751257E+03  0.00000000000E+00 0.  1.
          1   -1    0    0  502    0  0.00000000000E+00 -0.00000000000E+00 -0.49962965236E+02  0.49962965236E+02  0.00000000000E+00 0. -1.
         23    2    1    2    0    0 -0.70248042433E+01  0.19990338342E+02  0.38800277521E+03  0.40147620975E+03  0.10093578118E+03 0.  0.
         23    2    1    2    0    0  0.24071167276E+02 -0.67636599964E+02  0.45663060688E+02  0.10944054150E+03  0.68833031778E+02 0.  0.
        -11    1    4    4    0    0 -0.30136976019E+01 -0.56581446732E+02  0.54766176504E+02  0.78802770106E+02  0.00000000000E+00 0.  1.
         11    1    4    4    0    0  0.27084864877E+02 -0.11055153232E+02 -0.91031158162E+01  0.30637771394E+02  0.00000000000E+00 0. -1.
        -11    1    3    3    0    0  0.62711260249E+01 -0.40610406216E+02  0.15341037158E+03  0.15881836866E+03  0.00000000000E+00 0.  1.
         11    1    3    3    0    0 -0.13295930268E+02  0.60600744558E+02  0.23459240362E+03  0.24265784109E+03  0.00000000000E+00 0. -1.
         21    1    1    2  502  501 -0.17046363032E+02  0.47646261621E+02  0.45128711434E+02  0.67803726555E+02  0.00000000000E+00 0. -1.
<scales pt_clust_5="13000.00000" pt_clust_6="13000.00000" pt_clust_7="13000.00000" pt_clust_8="13000.00000" pt_clust_9="50.60380"></scales>
<clustering>
<clus scale="   50.604">  2  9  1 -1</clus>
<clus scale="   68.833">  5  6 -1 -1</clus>
<clus scale="   75.092">  2  5  1 -1</clus>
<clus scale="  100.936">  7  8 -1 -1</clus>
<clus scale="   50.604">  2  5  1 -1</clus>
</clustering>
</event>
<event>
 9    1  0.9000149E-006  0.9695822E+02  0.7546771E-02  0.1287316E+00
          1   -1    0    0  502    0  0.00000000000E+00  0.00000000000E+00  0.12874903160E+03  0.12874903160E+03  0.00000000000E+00 0. -1.
         -1   -1    0    0    0  501 -0.00000000000E+00 -0.00000000000E+00 -0.16337509244E+03  0.16337509244E+03  0.00000000000E+00 0.  1.
         23    2    1    2    0    0  0.11117918532E+02 -0.35762800705E+02 -0.75907354692E+02  0.12461810273E+03  0.91461243182E+02 0.  0.
         23    2    1    2    0    0  0.97418672568E+01  0.19306220666E+02 -0.23267064396E+02  0.97703154303E+02  0.92395432468E+02 0.  0.
        -11    1    3    3    0    0 -0.34642515794E+02 -0.33096634342E+02 -0.58428932944E+02  0.75560778916E+02  0.00000000000E+00 0. -1.
         11    1    3    3    0    0  0.45760434326E+02 -0.26661663626E+01 -0.17478421748E+02  0.49057323812E+02  0.00000000000E+00 0.  1.
        -11    1    4    4    0    0 -0.86021317065E+01 -0.33670897658E+02 -0.22936485023E+02  0.41639024535E+02  0.00000000000E+00 0.  1.
         11    1    4    4    0    0  0.18343998963E+02  0.52977118324E+02 -0.33057937321E+00  0.56064129768E+02  0.00000000000E+00 0. -1.
         21    1    1    2  502  501 -0.20859785789E+02  0.16456580038E+02  0.64548358250E+02  0.69802867008E+02  0.00000000000E+00 0. -1.
<scales pt_clust_5="13000.00000" pt_clust_6="13000.00000" pt_clust_7="13000.00000" pt_clust_8="13000.00000" pt_clust_9="26.56971"></scales>
<clustering>
<clus scale="   26.570">  1  9  2 -1</clus>
<clus scale="   91.461">  5  6 -1 -1</clus>
<clus scale="   92.395">  7  8 -1 -1</clus>
<clus scale="   96.068">  2  5  1 -1</clus>
<clus scale="   26.570">  1  5  2 -1</clus>
</clustering>
</event>
<event>
 9    1  0.9000149E-006  0.1214661E+03  0.7546771E-02  0.1244654E+00
          2   -1    0    0  502    0  0.00000000000E+00  0.00000000000E+00  0.54513318313E+03  0.54513318313E+03  0.00000000000E+00 0. -1.
         -2   -1    0    0    0  501 -0.00000000000E+00 -0.00000000000E+00 -0.42874146951E+02  0.42874146951E+02  0.00000000000E+00 0.  1.
         23    2    1    2    0    0 -0.66541678186E+02 -0.30691586534E+02  0.93478686930E+02  0.15650407453E+03  0.10190923420E+03 0.  0.
         23    2    1    2    0    0  0.52054108695E+02  0.52521462549E+01  0.26754257662E+03  0.28726330543E+03  0.90575720101E+02 0.  0.
        -11    1    4    4    0    0  0.77088535655E+02  0.66399141229E+00  0.22316514701E+03  0.23610541301E+03  0.00000000000E+00 0. -1.
         11    1    4    4    0    0 -0.25034426960E+02  0.45881548426E+01  0.44377429606E+02  0.51157892417E+02  0.00000000000E+00 0.  1.
        -13    1    3    3    0    0 -0.49728596028E+02 -0.67370014580E+02  0.73785869770E+02  0.11160648147E+03  0.00000000000E+00 0.  1.
         13    1    3    3    0    0 -0.16813082158E+02  0.36678428046E+02  0.19692817160E+02  0.44897593068E+02  0.00000000000E+00 0. -1.
         21    1    1    2  502  501  0.14487569491E+02  0.25439440279E+02  0.14123777264E+03  0.14423995012E+03  0.00000000000E+00 0. -1.
<scales pt_clust_5="13000.00000" pt_clust_6="13000.00000" pt_clust_7="13000.00000" pt_clust_8="13000.00000" pt_clust_9="29.27550"></scales>
<clustering>
<clus scale="   29.275">  1  9  2 -1</clus>
<clus scale="   90.576">  5  6 -1 -1</clus>
<clus scale="  101.909">  7  8 -1 -1</clus>
<clus scale="  112.127">  1  5  2 -1</clus>
<clus scale="   29.275">  1  5  2 -1</clus>
</clustering>
</event>
<event>
 9    1  0.9000149E-006  0.1617184E+03  0.7546771E-02  0.1187358E+00
          1   -1    0    0  502    0  0.00000000000E+00  0.00000000000E+00  0.79489823958E+02  0.79489823958E+02  0.00000000000E+00 0. -1.
         -1   -1    0    0    0  501 -0.00000000000E+00 -0.00000000000E+00 -0.54988164937E+03  0.54988164937E+03  0.00000000000E+00 0.  1.
         23    2    1    2    0    0  0.13521201909E+03 -0.29197818449E+02 -0.38076018555E+03  0.41536136128E+03  0.91716622450E+02 0.  0.
         23    2    1    2    0    0 -0.12150574500E+03  0.13312159329E+02 -0.10864609988E+03  0.18569464270E+03  0.87964002040E+02 0.  0.
        -11    1    4    4    0    0 -0.35648798195E+02  0.12373375621E+01 -0.90276553475E+02  0.97068140625E+02  0.00000000000E+00 0.  1.
         11    1    4    4    0    0 -0.85856946802E+02  0.12074821767E+02 -0.18369546404E+02  0.88626502074E+02  0.00000000000E+00 0. -1.
        -13    1    3    3    0    0  0.11363957305E+03 -0.49419001844E+02 -0.35547791469E+03  0.37645814925E+03  0.00000000000E+00 0.  1.
         13    1    3    3    0    0  0.21572446039E+02  0.20221183395E+02 -0.25282270860E+02  0.38903212025E+02  0.00000000000E+00 0. -1.
         21    1    1    2  502  501 -0.13706274095E+02  0.15885659120E+02  0.19014460012E+02  0.28315469355E+02  0.00000000000E+00 0.  1.
<scales pt_clust_5="13000.00000" pt_clust_6="13000.00000" pt_clust_7="13000.00000" pt_clust_8="13000.00000" pt_clust_9="20.98133"></scales>
<clustering>
<clus scale="   20.981">  1  9  2 -1</clus>
<clus scale="   87.964">  5  6 -1 -1</clus>
<clus scale="   91.717">  7  8 -1 -1</clus>
<clus scale="  159.620">  1  5  2 -1</clus>
<clus scale="   20.981">  1  5  2 -1</clus>
</clustering>
</event>
<event>
 9    1  0.9000149E-006  0.9974330E+02  0.7546771E-02  0.1283240E+00
         -1   -1    0    0    0  501 -0.00000000000E+00  0.00000000000E+00  0.53477003080E+03  0.53477003080E+03  0.00000000000E+00 0.  1.
          1   -1    0    0  502    0  0.00000000000E+00 -0.00000000000E+00 -0.15358039258E+03  0.15358039258E+03  0.00000000000E+00 0. -1.
         23    2    1    2    0    0 -0.10671649401E+02 -0.36321065974E+02  0.50581871934E+03  0.51479378953E+03  0.87903156756E+02 0.  0.
         23    2    1    2    0    0  0.68301274841E+00  0.11348121964E+02 -0.89954258998E+02  0.12967310522E+03  0.92704364126E+02 0.  0.
        -11    1    3    3    0    0 -0.36989356306E+02  0.13148165961E+02  0.18512660626E+03  0.18924308995E+03  0.00000000000E+00 0.  1.
         11    1    3    3    0    0  0.26317706905E+02 -0.49469231935E+02  0.32069211308E+03  0.32555069958E+03  0.00000000000E+00 0. -1.
        -13    1    4    4    0    0 -0.44372560627E+02 -0.66651356372E+01 -0.43921150275E+02  0.62788658300E+02  0.00000000000E+00 0.  1.
         13    1    4    4    0    0  0.45055573376E+02  0.18013257601E+02 -0.46033108723E+02  0.66884446924E+02  0.00000000000E+00 0. -1.
         21    1    1    2  502  501  0.99886366525E+01  0.24972944010E+02 -0.34674822130E+02  0.43883528624E+02  0.00000000000E+00 0. -1.
<scales pt_clust_5="13000.00000" pt_clust_6="13000.00000" pt_clust_7="13000.00000" pt_clust_8="13000.00000" pt_clust_9="26.89648"></scales>
<clustering>
<clus scale="   26.896">  2  9  1 -1</clus>
<clus scale="   87.903">  5  6 -1 -1</clus>
<clus scale="   92.704">  7  8 -1 -1</clus>
<clus scale="   95.297">  1  5  2 -1</clus>
<clus scale="   26.896">  2  5  1 -1</clus>
</clustering>
</event>
<event>
 9    1  0.9000149E-006  0.1327206E+03  0.7546771E-02  0.1226730E+00
         -2   -1    0    0    0  501 -0.00000000000E+00  0.00000000000E+00  0.70667470295E+02  0.70667470295E+02  0.00000000000E+00 0.  1.
          2   -1    0    0  502    0  0.00000000000E+00 -0.00000000000E+00 -0.59865526644E+03  0.59865526644E+03  0.00000000000E+00 0. -1.
         23    2    1    2    0    0  0.41570943490E+01 -0.67420902642E+02 -0.77320055683E+02  0.13799725898E+03  0.92206252119E+02 0.  0.
         23    2    1    2    0    0 -0.35027239710E+01  0.14910084165E+03 -0.17240044979E+03  0.24131733012E+03  0.79175808634E+02 0.  0.
        -13    1    3    3    0    0  0.41557192183E+01 -0.40162799770E+02  0.13969185510E+02  0.42725386264E+02  0.00000000000E+00 0.  1.
         13    1    3    3    0    0  0.13751306551E-02 -0.27258102872E+02 -0.91289241193E+02  0.95271872720E+02  0.00000000000E+00 0. -1.
        -13    1    4    4    0    0 -0.18280680312E+02  0.98463265604E+02 -0.15725561174E+03  0.18643638424E+03  0.00000000000E+00 0.  1.
         13    1    4    4    0    0  0.14777956341E+02  0.50637576041E+02 -0.15144838058E+02  0.54880945881E+02  0.00000000000E+00 0. -1.
         21    1    1    2  502  501 -0.65437037797E+00 -0.81679939004E+02 -0.27826729067E+03  0.29000814763E+03  0.00000000000E+00 0. -1.
<scales pt_clust_5="13000.00000" pt_clust_6="13000.00000" pt_clust_7="13000.00000" pt_clust_8="13000.00000" pt_clust_9="81.68256"></scales>
<clustering>
<clus scale="   79.176">  7  8 -1 -1</clus>
<clus scale="   81.683">  2  9  1 -1</clus>
<clus scale="   92.206">  5  6 -1 -1</clus>
<clus scale="  124.022">  2  7  1 -1</clus>
<clus scale="   81.683">  2  5  1 -1</clus>
</clustering>
</event>
<event>
 9    1  0.9000149E-006  0.1184522E+03  0.7546771E-02  0.1263125E+00
         -2   -1    0    0    0  501 -0.00000000000E+00  0.00000000000E+00  0.31135465717E+03  0.31135465717E+03  0.00000000000E+00 0.  1.
          2   -1    0    0  502    0  0.00000000000E+00 -0.00000000000E+00 -0.16156761026E+03  0.16156761026E+03  0.00000000000E+00 0. -1.
         23    2    1    2    0    0  0.37147436433E+02 -0.72932877773E+02  0.24277875841E+03  0.27032470731E+03  0.86225200235E+02 0.  0.
         23    2    1    2    0    0  0.31363128294E+02  0.21373315293E+02 -0.80047325274E+02  0.11588168443E+03  0.74702918818E+02 0.  0.
        -11    1    3    3    0    0  0.39110126330E+02 -0.45829513099E+02  0.23420429943E+03  0.24182969240E+03  0.00000000000E+00 0.  1.
         11    1    3    3    0    0 -0.19626898974E+01 -0.27103364674E+02  0.85744589761E+01  0.28495014915E+02  0.00000000000E+00 0. -1.
        -11    1    4    4    0    0 -0.21543638038E+02  0.47007009906E+01 -0.50890036226E+01  0.22630132293E+02  0.00000000000E+00 0.  1.
         11    1    4    4    0    0  0.52906766332E+02  0.16672614302E+02 -0.74958321651E+02  0.93251552138E+02  0.00000000000E+00 0. -1.
         21    1    1    2  502  501 -0.68510564726E+02  0.51559562480E+02 -0.12944386225E+02  0.86715875692E+02  0.00000000000E+00 0. -1.
<scales pt_clust_5="13000.00000" pt_clust_6="13000.00000" pt_clust_7="13000.00000" pt_clust_8="13000.00000" pt_clust_9="81.21669"></scales>
<clustering>
<clus scale="   74.703">  7  8 -1 -1</clus>
<clus scale="   83.791">  2  7  1 -1</clus>
<clus scale="   81.217">  2  9  1 -1</clus>
<clus scale="   86.225">  5  6 -1 -1</clus>
<clus scale="   83.791">  2  5  1 -1</clus>
</clustering>
</event>
<event>
 9    1  0.9000149E-006  0.1222254E+03  0.7546771E-02  0.1240133E+00
          1   -1    0    0  502    0  0.00000000000E+00  0.00000000000E+00  0.28230680495E+03  0.28230680495E+03  0.00000000000E+00 0. -1.
         -1   -1    0    0    0  501 -0.00000000000E+00 -0.00000000000E+00 -0.95418021335E+02  0.95418021335E+02  0.00000000000E+00 0.  1.
         23    2    1    2    0    0 -0.34783824526E+02 -0.64929516435E+02 -0.11269718079E+01  0.11826202545E+03  0.92514215367E+02 0.  0.
         23    2    1    2    0    0  0.76730813744E+02  0.66234825623E+02  0.13105414377E+03  0.18871056455E+03  0.90342784279E+02 0.  0.
        -11    1    4    4    0    0  0.38490921250E+02 -0.13558639652E+02  0.70603975906E+02  0.81549427599E+02  0.00000000000E+00 0.  1.
         11    1    4    4    0    0  0.38239892494E+02  0.79793465275E+02  0.60450167862E+02  0.10716113695E+03  0.00000000000E+00 0. -1.
        -13    1    3    3    0    0 -0.14267683626E+02 -0.84907565054E+02  0.11690668671E+02  0.86888049428E+02  0.00000000000E+00 0.  1.
         13    1    3    3    0    0 -0.20516140900E+02  0.19978048619E+02 -0.12817640479E+02  0.31373976023E+02  0.00000000000E+00 0. -1.
         21    1    1    2  502  501 -0.41946989218E+02 -0.13053091883E+01  0.56961611651E+02  0.70752236278E+02  0.00000000000E+00 0.  1.
<scales pt_clust_5="13000.00000" pt_clust_6="13000.00000" pt_clust_7="13000.00000" pt_clust_8="13000.00000" pt_clust_9="41.96729"></scales>
<clustering>
<clus scale="   41.967">  1  9  2 -1</clus>
<clus scale="   90.343">  5  6 -1 -1</clus>
<clus scale="   92.514">  7  8 -1 -1</clus>
<clus scale="  120.590">  1  5  2 -1</clus>
<clus scale="   41.967">  1  5  2 -1</clus>
</clustering>
</event>
<event>
 9    1  0.9000149E-006  0.1133469E+03  0.7546771E-02  0.1255389E+00
          3   -1    0    0  502    0  0.00000000000E+00  0.00000000000E+00  0.25909284475E+03  0.25909284475E+03  0.00000000000E+00 0. -1.
         -3   -1    0    0    0  501 -0.00000000000E+00 -0.00000000000E+00 -0.18197606144E+03  0.18197606144E+03  0.00000000000E+00 0.  1.
         23    2    1    2    0    0  0.52772841728E+02  0.16708558528E+02 -0.11137322711E+03  0.15649310978E+03  0.94983940429E+02 0.  0.
         23    2    1    2    0    0 -0.90796905591E+02 -0.39579590343E+01  0.47785281543E+02  0.13826712288E+03  0.92599247481E+02 0.  0.
        -11    1    3    3    0    0  0.18293318093E+02  0.29978393894E+02 -0.11416338829E+03  0.11944299399E+03  0.00000000000E+00 0.  1.
         11    1    3    3    0    0  0.34479523635E+02 -0.13269835365E+02  0.27901611778E+01  0.37050115791E+02  0.00000000000E+00 0. -1.
        -13    1    4    4    0    0 -0.27994598632E+02  0.42659221665E+02  0.24891125606E+02  0.56772131187E+02  0.00000000000E+00 0.  1.
         13    1    4    4    0    0 -0.62802306959E+02 -0.46617180699E+02  0.22894155937E+02  0.81494991698E+02  0.00000000000E+00 0. -1.
         21    1    1    2  502  501  0.38024063863E+02 -0.12750599494E+02  0.14070472888E+03  0.14630867352E+03  0.00000000000E+00 0. -1.
<scales pt_clust_5="13000.00000" pt_clust_6="13000.00000" pt_clust_7="13000.00000" pt_clust_8="13000.00000" pt_clust_9="40.10495"></scales>
<clustering>
<clus scale="   40.105">  1  9  2 -1</clus>
<clus scale="   92.599">  7  8 -1 -1</clus>
<clus scale="   94.984">  5  6 -1 -1</clus>
<clus scale="  111.356">  1  7  2 -1</clus>
<clus scale="   40.105">  1  5  2 -1</clus>
</clustering>
</event>
<event>
 9    1  0.9000149E-006  0.9157460E+02  0.7546771E-02  0.1302095E+00
          1   -1    0    0  502    0  0.00000000000E+00  0.00000000000E+00  0.18265099903E+03  0.18265099903E+03  0.00000000000E+00 0. -1.
         -1   -1    0    0    0  501 -0.00000000000E+00 -0.00000000000E+00 -0.87901991087E+02  0.87901991087E+02  0.00000000000E+00 0.  1.
         23    2    1    2    0    0  0.18675847205E+02  0.69443261351E+00 -0.98029996298E+01  0.88299204888E+02  0.85740196388E+02 0.  0.
         23    2    1    2    0    0  0.53960931258E+00 -0.13877760944E+02  0.19195491772E+02  0.93773455750E+02  0.90730979670E+02 0.  0.
        -11    1    3    3    0    0 -0.16125864893E+02 -0.33936299215E+02  0.25930327557E+01  0.37662179197E+02  0.00000000000E+00 0. -1.
         11    1    3    3    0    0  0.34801712098E+02  0.34630731829E+02 -0.12396032385E+02  0.50637025691E+02  0.00000000000E+00 0.  1.
        -11    1    4    4    0    0 -0.40992450070E+02 -0.14308804563E+01 -0.90809171893E+01  0.42010611024E+02  0.00000000000E+00 0. -1.
         11    1    4    4    0    0  0.41532059382E+02 -0.12446880488E+02  0.28276408961E+02  0.51762844726E+02  0.00000000000E+00 0.  1.
         21    1    1    2  502  501 -0.19215456518E+02  0.13183328331E+02  0.85356515802E+02  0.88480329480E+02  0.00000000000E+00 0. -1.
<scales pt_clust_5="13000.00000" pt_clust_6="13000.00000" pt_clust_7="13000.00000" pt_clust_8="13000.00000" pt_clust_9="23.30309"></scales>
<clustering>
<clus scale="   23.303">  1  9  2 -1</clus>
<clus scale="   85.740">  5  6 -1 -1</clus>
<clus scale="   86.632">  2  5  1 -1</clus>
<clus scale="   90.731">  7  8 -1 -1</clus>
<clus scale="   23.303">  1  5  2 -1</clus>
</clustering>
</event>
<event>
 9    1  0.9000149E-006  0.1464527E+03  0.7546771E-02  0.1205465E+00
         -1   -1    0    0    0  501 -0.00000000000E+00  0.00000000000E+00  0.93652957527E+02  0.93652957527E+02  0.00000000000E+00 0.  1.
          1   -1    0    0  502    0  0.00000000000E+00 -0.00000000000E+00 -0.29067228345E+03  0.29067228345E+03  0.00000000000E+00 0. -1.
         23    2    1    2    0    0  0.10787508285E+03 -0.19574471565E+02 -0.34446041641E+02  0.14730067469E+03  0.92145350085E+02 0.  0.
         23    2    1    2    0    0 -0.10578459475E+03  0.40237313840E+02 -0.15692762483E+03  0.21550256215E+03  0.94898118774E+02 0.  0.
        -13    1    3    3    0    0  0.37453512531E+02 -0.33579232501E+02 -0.53072522816E+02  0.73123341925E+02  0.00000000000E+00 0. -1.
         13    1    3    3    0    0  0.70421570322E+02  0.14004760936E+02  0.18626481174E+02  0.74177332767E+02  0.00000000000E+00 0.  1.
        -13    1    4    4    0    0 -0.70129932183E+02  0.50032527593E+02 -0.44117952732E+02  0.96787679788E+02  0.00000000000E+00 0.  1.
         13    1    4    4    0    0 -0.35654662567E+02 -0.97952137528E+01 -0.11280967210E+03  0.11871488237E+03  0.00000000000E+00 0. -1.
         21    1    1    2  502  501 -0.20904881019E+01 -0.20662842275E+02 -0.56456594503E+01  0.21522004136E+02  0.00000000000E+00 0.  1.
<scales pt_clust_5="13000.00000" pt_clust_6="13000.00000" pt_clust_7="13000.00000" pt_clust_8="13000.00000" pt_clust_9="20.76832"></scales>
<clustering>
<clus scale="   20.768">  1  9  2 -1</clus>
<clus scale="   92.145">  5  6 -1 -1</clus>
<clus scale="   94.898">  7  8 -1 -1</clus>
<clus scale="  144.684">  1  5  2 -1</clus>
<clus scale="  146.453">  2  5  1 -1</clus>
</clustering>
</event>
<event>
 9    1  0.9000149E-006  0.1335374E+03  0.7546771E-02  0.1222650E+00
         -1   -1    0    0    0  501 -0.00000000000E+00  0.00000000000E+00  0.42528965525E+03  0.42528965525E+03  0.00000000000E+00 0.  1.
          1   -1    0    0  502    0  0.00000000000E+00 -0.00000000000E+00 -0.80349987409E+02  0.80349987409E+02  0.00000000000E+00 0. -1.
         23    2    1    2    0    0 -0.53916308602E+02 -0.89648111627E+02  0.31061880528E+03  0.34044290115E+03  0.92052020626E+02 0.  0.
         23    2    1    2    0    0  0.58306098143E+02  0.50504608254E+02  0.39657077813E+02  0.12544803961E+03  0.90632280601E+02 0.  0.
        -11    1    4    4    0    0  0.10996322246E+01  0.49931541337E+02  0.45985345593E+02  0.67889763740E+02  0.00000000000E+00 0.  1.
         11    1    4    4    0    0  0.57206465919E+02  0.57306691616E+00 -0.63282677797E+01  0.57558275875E+02  0.00000000000E+00 0. -1.
        -11    1    3    3    0    0 -0.20252642662E+02 -0.67660867595E+02  0.28295812509E+03  0.29163926878E+03  0.00000000000E+00 0.  1.
         11    1    3    3    0    0 -0.33663665940E+02 -0.21987244032E+02  0.27660680190E+02  0.48803632377E+02  0.00000000000E+00 0. -1.
         21    1    1    2  502  501 -0.43897895414E+01  0.39143503374E+02 -0.53362152538E+01  0.39748701888E+02  0.00000000000E+00 0. -1.
<scales pt_clust_5="13000.00000" pt_clust_6="13000.00000" pt_clust_7="13000.00000" pt_clust_8="13000.00000" pt_clust_9="39.38888"></scales>
<clustering>
<clus scale="   39.389">  2  9  1 -1</clus>
<clus scale="   90.632">  5  6 -1 -1</clus>
<clus scale="   92.052">  7  8 -1 -1</clus>
<clus scale="  132.563">  2  5  1 -1</clus>
<clus scale="   39.389">  2  5  1 -1</clus>
</clustering>
</event>
<event>
 9    1  0.9000149E-006  0.1713706E+03  0.7546771E-02  0.1177217E+00
          2   -1    0    0  502    0  0.00000000000E+00  0.00000000000E+00  0.48073726051E+03  0.48073726051E+03  0.00000000000E+00 0. -1.
         -2   -1    0    0    0  501 -0.00000000000E+00 -0.00000000000E+00 -0.14031655361E+03  0.14031655361E+03  0.00000000000E+00 0.  1.
         23    2    1    2    0    0  0.32271572518E+02  0.14974388450E+03 -0.45808756945E+02  0.18119067426E+03  0.85246307177E+02 0.  0.
         23    2    1    2    0    0  0.13027220399E+02 -0.11904883920E+03  0.23506054506E+03  0.27909557954E+03  0.91096367046E+02 0.  0.
        -11    1    3    3    0    0  0.27246500554E+02  0.11112020669E+03 -0.71142975703E+02  0.13472711353E+03  0.00000000000E+00 0.  1.
         11    1    3    3    0    0  0.50250719642E+01  0.38623677808E+02  0.25334218758E+02  0.46463560730E+02  0.00000000000E+00 0. -1.
        -13    1    4    4    0    0  0.15312667195E+01 -0.47754658031E+02  0.19229386016E+02  0.51503605971E+02  0.00000000000E+00 0.  1.
         13    1    4    4    0    0  0.11495953680E+02 -0.71294181174E+02  0.21583115904E+03  0.22759197357E+03  0.00000000000E+00 0. -1.
         21    1    1    2  502  501 -0.45298792918E+02 -0.30695045295E+02  0.15116891879E+03  0.16076756033E+03  0.00000000000E+00 0. -1.
<scales pt_clust_5="13000.00000" pt_clust_6="13000.00000" pt_clust_7="13000.00000" pt_clust_8="13000.00000" pt_clust_9="54.71898"></scales>
<clustering>
<clus scale="   54.719">  1  9  2 -1</clus>
<clus scale="   85.246">  5  6 -1 -1</clus>
<clus scale="   91.096">  7  8 -1 -1</clus>
<clus scale="  168.334">  2  5  1 -1</clus>
<clus scale="   54.719">  1  5  2 -1</clus>
</clustering>
</event>
<event>
 9    1  0.9000149E-006  0.9757711E+02  0.7546771E-02  0.1286413E+00
          1   -1    0    0  502    0  0.00000000000E+00  0.00000000000E+00  0.22598895645E+03  0.22598895645E+03  0.00000000000E+00 0. -1.
         -1   -1    0    0    0  501 -0.00000000000E+00 -0.00000000000E+00 -0.11975049996E+03  0.11975049996E+03  0.00000000000E+00 0.  1.
         23    2    1    2    0    0 -0.12393526481E+00  0.55565088215E+01  0.30083140655E+02  0.94947023869E+02  0.89883545989E+02 0.  0.
         23    2    1    2    0    0 -0.20144113236E+02  0.52651700034E+02  0.13011635706E+03  0.16887306158E+03  0.91705276495E+02 0.  0.
        -11    1    3    3    0    0 -0.44890692557E+02 -0.20475722223E+00  0.16186510312E+02  0.47720219194E+02  0.00000000000E+00 0.  1.
         11    1    3    3    0    0  0.44766757292E+02  0.57612660438E+01  0.13896630343E+02  0.47226804675E+02  0.00000000000E+00 0. -1.
        -13    1    4    4    0    0 -0.22969908913E+01 -0.21051622288E+02  0.66818480365E+02  0.70093910480E+02  0.00000000000E+00 0. -1.
         13    1    4    4    0    0 -0.17847122345E+02  0.73703322322E+02  0.63297876696E+02  0.98779151097E+02  0.00000000000E+00 0.  1.
         21    1    1    2  502  501  0.20268048501E+02 -0.58208208855E+02 -0.53961041231E+02  0.81919370963E+02  0.00000000000E+00 0.  1.
<scales pt_clust_5="13000.00000" pt_clust_6="13000.00000" pt_clust_7="13000.00000" pt_clust_8="13000.00000" pt_clust_9="61.63594"></scales>
<clustering>
<clus scale="   61.636">  2  9  1 -1</clus>
<clus scale="   89.884">  5  6 -1 -1</clus>
<clus scale="   91.705">  7  8 -1 -1</clus>
<clus scale="   95.867">  2  5  1 -1</clus>
<clus scale="   97.577">  1  5  2 -1</clus>
</clustering>
</event>
<event>
 9    1  0.9000149E-006  0.1234554E+03  0.7546771E-02  0.1237586E+00
          4   -1    0    0  502    0  0.00000000000E+00  0.00000000000E+00  0.50662075401E+03  0.50662075401E+03  0.00000000000E+00 0. -1.
         -4   -1    0    0    0  501 -0.00000000000E+00 -0.00000000000E+00 -0.73153442762E+02  0.73153442762E+02  0.00000000000E+00 0.  1.
         23    2    1    2    0    0  0.40725652926E+02  0.10228579912E+03  0.50496622748E+02  0.15151201523E+03  0.91022076128E+02 0.  0.
         23    2    1    2    0    0 -0.76444854783E+01 -0.45581087602E+02  0.12237722861E+03  0.15952673675E+03  0.91304545070E+02 0.  0.
        -11    1    3    3    0    0  0.55670535404E+02  0.84064700245E+02  0.58124840272E+01  0.10099439247E+03  0.00000000000E+00 0.  1.
         11    1    3    3    0    0 -0.14944882478E+02  0.18221098878E+02  0.44684138720E+02  0.50517622765E+02  0.00000000000E+00 0. -1.
        -13    1    4    4    0    0 -0.46861301653E+02 -0.84685504509E+01  0.47966173610E+02  0.67590322903E+02  0.00000000000E+00 0.  1.
         13    1    4    4    0    0  0.39216816175E+02 -0.37112537151E+02  0.74411055000E+02  0.91936413846E+02  0.00000000000E+00 0. -1.
         21    1    1    2  502  501 -0.33081167448E+02 -0.56704711521E+02  0.26059345989E+03  0.26873544479E+03  0.00000000000E+00 0. -1.
<scales pt_clust_5="13000.00000" pt_clust_6="13000.00000" pt_clust_7="13000.00000" pt_clust_8="13000.00000" pt_clust_9="65.64898"></scales>
<clustering>
<clus scale="   65.649">  1  9  2 -1</clus>
<clus scale="   91.022">  5  6 -1 -1</clus>
<clus scale="   91.305">  7  8 -1 -1</clus>
<clus scale="  123.247">  2  5  1 -1</clus>
<clus scale="   65.649">  1  5  2 -1</clus>
</clustering>
</event>
<event>
 9    1  0.9000149E-006  0.9957356E+02  0.7546771E-02  0.1281361E+00
          1   -1    0    0  502    0  0.00000000000E+00  0.00000000000E+00  0.95325538933E+02  0.95325538933E+02  0.00000000000E+00 0. -1.
         -1   -1    0    0    0  501 -0.00000000000E+00 -0.00000000000E+00 -0.17704671302E+03  0.17704671302E+03  0.00000000000E+00 0.  1.
         23    2    1    2    0    0 -0.55641361646E+01 -0.36151204733E+02 -0.69837127330E+02  0.12001564725E+03  0.90491226190E+02 0.  0.
         23    2    1    2    0    0 -0.35248089185E+02  0.49561431128E+02 -0.11938770257E+02  0.10939761374E+03  0.90147326136E+02 0.  0.
        -13    1    3    3    0    0  0.22504030506E+02  0.22842774441E+02 -0.19368722478E+02  0.37461595583E+02  0.00000000000E+00 0.  1.
         13    1    3    3    0    0 -0.28068166671E+02 -0.58993979174E+02 -0.50468404852E+02  0.82554051672E+02  0.00000000000E+00 0. -1.
        -13    1    4    4    0    0 -0.52555419913E+01 -0.26124343616E+02  0.23122306243E+01  0.26747868354E+02  0.00000000000E+00 0. -1.
         13    1    4    4    0    0 -0.29992547194E+02  0.75685774745E+02 -0.14251000881E+02  0.82649745384E+02  0.00000000000E+00 0.  1.
         21    1    1    2  502  501  0.40812225350E+02 -0.13410226395E+02  0.54723498090E-01  0.42958990964E+02  0.00000000000E+00 0. -1.
<scales pt_clust_5="13000.00000" pt_clust_6="13000.00000" pt_clust_7="13000.00000" pt_clust_8="13000.00000" pt_clust_9="42.95896"></scales>
<clustering>
<clus scale="   42.959">  1  9  2 -1</clus>
<clus scale="   90.147">  7  8 -1 -1</clus>
<clus scale="   90.491">  5  6 -1 -1</clus>
<clus scale="   99.261">  1  7  2 -1</clus>
<clus scale="   42.959">  1  5  2 -1</clus>
</clustering>
</event>
<event>
 9    1  0.9000149E-006  0.1300426E+03  0.7546771E-02  0.1227479E+00
         -1   -1    0    0    0  501 -0.00000000000E+00  0.00000000000E+00  0.71735292449E+02  0.71735292449E+02  0.00000000000E+00 0.  1.
          1   -1    0    0  502    0  0.00000000000E+00 -0.00000000000E+00 -0.43237499284E+03  0.43237499284E+03  0.00000000000E+00 0. -1.
         23    2    1    2    0    0  0.91207404970E+02  0.39491890718E+02 -0.19901900547E+02  0.13476436611E+03  0.88808493819E+02 0.  0.
         23    2    1    2    0    0 -0.66968727174E+02 -0.39089095452E+02 -0.27653751467E+03  0.30072119796E+03  0.89148606728E+02 0.  0.
        -13    1    3    3    0    0  0.76566177054E+02 -0.79053815764E+01  0.87637640658E+01  0.77470498173E+02  0.00000000000E+00 0.  1.
         13    1    3    3    0    0  0.14641227916E+02  0.47397272294E+02 -0.28665664613E+02  0.57293867940E+02  0.00000000000E+00 0. -1.
        -13    1    4    4    0    0  0.12534964976E+02 -0.36515081746E+02 -0.91054373655E+02  0.98900836718E+02  0.00000000000E+00 0.  1.
         13    1    4    4    0    0 -0.79503692149E+02 -0.25740137060E+01 -0.18548314101E+03  0.20182036124E+03  0.00000000000E+00 0. -1.
         21    1    1    2  502  501 -0.24238677797E+02 -0.40279526611E+00 -0.64200285179E+02  0.68624721220E+02  0.00000000000E+00 0. -1.
<scales pt_clust_5="13000.00000" pt_clust_6="13000.00000" pt_clust_7="13000.00000" pt_clust_8="13000.00000" pt_clust_9="24.24202"></scales>
<clustering>
<clus scale="   24.242">  2  9  1 -1</clus>
<clus scale="   88.808">  5  6 -1 -1</clus>
<clus scale="   89.149">  7  8 -1 -1</clus>
<clus scale="  129.810">  1  5  2 -1</clus>
<clus scale="   24.242">  2  5  1 -1</clus>
</clustering>
</event>
<event>
 9    1  0.9843492E-006  0.1111354E+03  0.7546771E-02  0.1261322E+00
          2   -1    0    0  502    0  0.00000000000E+00  0.00000000000E+00  0.23740588528E+03  0.23740588528E+03  0.00000000000E+00 0. -1.
         -2   -1    0    0    0  501 -0.00000000000E+00 -0.00000000000E+00 -0.21951224271E+03  0.21951224271E+03  0.00000000000E+00 0.  1.
         23    2    1    2    0    0  0.13607617749E+02 -0.61939888217E+02 -0.18447520193E+03  0.21536179436E+03  0.91257248093E+02 0.  0.
         23    2    1    2    0    0  0.95088587636E+01  0.66837430358E+02  0.17454943159E+03  0.20505596186E+03  0.83802046129E+02 0.  0.
        -13    1    3    3    0    0  0.39877320192E+01 -0.81109645001E+02 -0.17282626115E+03  0.19095442666E+03  0.00000000000E+00 0.  1.
         13    1    3    3    0    0  0.96198857295E+01  0.19169756784E+02 -0.11648940778E+02  0.24407367696E+02  0.00000000000E+00 0. -1.
        -13    1    4    4    0    0 -0.33045399119E+02  0.10778738492E+02  0.38427535671E+02  0.51815587464E+02  0.00000000000E+00 0.  1.
         13    1    4    4    0    0  0.42554257883E+02  0.56058691865E+02  0.13612189592E+03  0.15324037440E+03  0.00000000000E+00 0. -1.
         21    1    1    2  502  501 -0.23116476512E+02 -0.48975421407E+01  0.27819412900E+02  0.36500371772E+02  0.00000000000E+00 0.  1.
<scales pt_clust_5="13000.00000" pt_clust_6="13000.00000" pt_clust_7="13000.00000" pt_clust_8="13000.00000" pt_clust_9="23.62959"></scales>
<clustering>
<clus scale="   23.630">  1  9  2 -1</clus>
<clus scale="   83.802">  7  8 -1 -1</clus>
<clus scale="   91.257">  5  6 -1 -1</clus>
<clus scale="  105.100">  1  7  2 -1</clus>
<clus scale="   23.630">  1  5  2 -1</clus>
</clustering>
</event>
<event>
 9    1  0.9000149E-006  0.1015874E+03  0.7546771E-02  0.1277500E+00
         -2   -1    0    0    0  501 -0.00000000000E+00  0.00000000000E+00  0.36873539142E+02  0.36873539142E+02  0.00000000000E+00 0.  1.
          2   -1    0    0  502    0  0.00000000000E+00 -0.00000000000E+00 -0.41193825281E+03  0.41193825281E+03  0.00000000000E+00 0. -1.
         23    2    1    2    0    0 -0.59445582853E+02 -0.20602937659E+02 -0.12029468643E+03  0.16323005302E+03  0.90636528317E+02 0.  0.
         23    2    1    2    0    0  0.30500305579E+02  0.15602326725E+02 -0.21396286235E+03  0.23530192297E+03  0.91723428041E+02 0.  0.
        -11    1    4    4    0    0 -0.17683439394E+02 -0.18315756991E+02 -0.13154778884E+03  0.13398877464E+03  0.00000000000E+00 0. -1.
         11    1    4    4    0    0  0.48183744973E+02  0.33918083715E+02 -0.82415073509E+02  0.10131314833E+03  0.00000000000E+00 0.  1.
        -13    1    3    3    0    0 -0.75255753115E+02 -0.36444545443E+02 -0.11106169767E+03  0.13901918558E+03  0.00000000000E+00 0. -1.
         13    1    3    3    0    0  0.15810170261E+02  0.15841607784E+02 -0.92329887548E+01  0.24210867440E+02  0.00000000000E+00 0.  1.
         21    1    1    2  502  501  0.28945277274E+02  0.50006109350E+01 -0.40807164892E+02  0.50279815958E+02  0.00000000000E+00 0. -1.
<scales pt_clust_5="13000.00000" pt_clust_6="13000.00000" pt_clust_7="13000.00000" pt_clust_8="13000.00000" pt_clust_9="29.37406"></scales>
<clustering>
<clus scale="   29.374">  1  9  2 -1</clus>
<clus scale="   90.637">  7  8 -1 -1</clus>
<clus scale="   91.723">  5  6 -1 -1</clus>
<clus scale="  100.607">  1  7  2 -1</clus>
<clus scale="  101.587">  2  5  1 -1</clus>
</clustering>
</event>
<event>
 9    1  0.9000149E-006  0.1536397E+03  0.7546771E-02  0.1196724E+00
          1   -1    0    0  502    0  0.00000000000E+00  0.00000000000E+00  0.70549918806E+03  0.70549918806E+03  0.00000000000E+00 0. -1.
         -1   -1    0    0    0  501 -0.00000000000E+00 -0.00000000000E+00 -0.46513191768E+02  0.46513191768E+02  0.00000000000E+00 0.  1.
         23    2    1    2    0    0 -0.10650389882E+03  0.52476174988E+02  0.15840386123E+03  0.21828116594E+03  0.91967683162E+02 0.  0.
         23    2    1    2    0    0  0.12240033231E+03 -0.29110134844E+02  0.45329645294E+03  0.47864397250E+03  0.88278745251E+02 0.  0.
        -11    1    3    3    0    0 -0.95598466500E+02  0.92606008307E+00  0.11808369626E+03  0.15193315539E+03  0.00000000000E+00 0.  1.
         11    1    3    3    0    0 -0.10905432321E+02  0.51550114905E+02  0.40320164977E+02  0.66348010555E+02  0.00000000000E+00 0. -1.
        -13    1    4    4    0    0  0.78947375036E+02  0.46165545736E+01  0.14209939545E+03  0.16262299587E+03  0.00000000000E+00 0.  1.
         13    1    4    4    0    0  0.43452957277E+02 -0.33726689417E+02  0.31119705749E+03  0.31602097662E+03  0.00000000000E+00 0. -1.
         21    1    1    2  502  501 -0.15896433492E+02 -0.23366040145E+02  0.47285682120E+02  0.55087241384E+02  0.00000000000E+00 0. -1.
<scales pt_clust_5="13000.00000" pt_clust_6="13000.00000" pt_clust_7="13000.00000" pt_clust_8="13000.00000" pt_clust_9="28.26072"></scales>
<clustering>
<clus scale="   28.261">  2  9  1 -1</clus>
<clus scale="   88.279">  7  8 -1 -1</clus>
<clus scale="   91.968">  5  6 -1 -1</clus>
<clus scale="  151.460">  1  7  2 -1</clus>
<clus scale="  151.460">  1  5  2 -1</clus>
</clustering>
</event>
<event>
 9    1  0.9000149E-006  0.1002418E+03  0.7546771E-02  0.1281943E+00
         -2   -1    0    0    0  501 -0.00000000000E+00  0.00000000000E+00  0.20048450695E+03  0.20048450695E+03  0.00000000000E+00 0.  1.
          2   -1    0    0  502    0  0.00000000000E+00 -0.00000000000E+00 -0.74680036799E+02  0.74680036799E+02  0.00000000000E+00 0. -1.
         23    2    1    2    0    0  0.11112231437E+02  0.33515157641E+02  0.11403493510E+03  0.14999654730E+03  0.90819878328E+02 0.  0.
         23    2    1    2    0    0 -0.26180975103E+02 -0.13478578380E+02  0.10203215012E+02  0.10004858359E+03  0.95071015296E+02 0.  0.
        -11    1    3    3    0    0 -0.37984709782E+01 -0.27084557751E+02  0.65360799229E+02  0.70852210453E+02  0.00000000000E+00 0.  1.
         11    1    3    3    0    0  0.14910702415E+02  0.60599715392E+02  0.48674135868E+02  0.79144336845E+02  0.00000000000E+00 0. -1.
        -13    1    4    4    0    0  0.27290736364E+02  0.14624661363E+02  0.22662527351E+02  0.38369977290E+02  0.00000000000E+00 0.  1.
         13    1    4    4    0    0 -0.53471711467E+02 -0.28103239744E+02 -0.12459312339E+02  0.61678606301E+02  0.00000000000E+00 0. -1.
         21    1    1    2  502  501  0.15068743666E+02 -0.20036579261E+02  0.15663200466E+01  0.25119412864E+02  0.00000000000E+00 0.  1.
<scales pt_clust_5="13000.00000" pt_clust_6="13000.00000" pt_clust_7="13000.00000" pt_clust_8="13000.00000" pt_clust_9="25.07053"></scales>
<clustering>
<clus scale="   25.071">  2  9  1 -1</clus>
<clus scale="   90.820">  5  6 -1 -1</clus>
<clus scale="   95.071">  7  8 -1 -1</clus>
<clus scale="   96.219">  1  5  2 -1</clus>
<clus scale="   25.071">  2  5  1 -1</clus>
</clustering>
</event>
<event>
 9    1  0.9000149E-006  0.2363813E+03  0.7546771E-02  0.1122231E+00
          2   -1    0    0  502    0  0.00000000000E+00  0.00000000000E+00  0.53943557200E+03  0.53943557200E+03  0.00000000000E+00 0. -1.
         -2   -1    0    0    0  501 -0.00000000000E+00 -0.00000000000E+00 -0.12982556635E+03  0.12982556635E+03  0.00000000000E+00 0.  1.
         23    2    1    2    0    0  0.22340823583E+03  0.61516833766E+02  0.14085017774E+03  0.28562987300E+03  0.89722299934E+02 0.  0.
         23    2    1    2    0    0 -0.18307365392E+03 -0.91503604828E+02  0.21886620950E+03  0.31281136635E+03  0.89775613631E+02 0.  0.
        -11    1    3    3    0    0  0.13043883761E+03  0.31037898466E+00  0.10863717430E+03  0.16975400535E+03  0.00000000000E+00 0.  1.
         11    1    3    3    0    0  0.92969398226E+02  0.61206454781E+02  0.32213003439E+02  0.11587586765E+03  0.00000000000E+00 0. -1.
        -13    1    4    4    0    0 -0.69962520596E+02 -0.43037224913E+02  0.30109591748E+02  0.87484538814E+02  0.00000000000E+00 0.  1.
         13    1    4    4    0    0 -0.11311113332E+03 -0.48466379916E+02  0.18875661775E+03  0.22532682754E+03  0.00000000000E+00 0. -1.
         21    1    1    2  502  501 -0.40334581912E+02  0.29986771063E+02  0.49893618409E+02  0.70819899003E+02  0.00000000000E+00 0. -1.
<scales pt_clust_5="13000.00000" pt_clust_6="13000.00000" pt_clust_7="13000.00000" pt_clust_8="13000.00000" pt_clust_9="50.26017"></scales>
<clustering>
<clus scale="   50.260">  1  9  2 -1</clus>
<clus scale="   89.722">  5  6 -1 -1</clus>
<clus scale="   89.776">  7  8 -1 -1</clus>
<clus scale="  236.361">  2  5  1 -1</clus>
<clus scale="   50.260">  1  5  2 -1</clus>
</clustering>
</event>
<event>
 9    1  0.9000149E-006  0.1328948E+03  0.7546771E-02  0.1223953E+00
         -1   -1    0    0    0  501 -0.00000000000E+00  0.00000000000E+00  0.75140852413E+02  0.75140852413E+02  0.00000000000E+00 0.  1.
          1   -1    0    0  502    0  0.00000000000E+00 -0.00000000000E+00 -0.61888872898E+03  0.61888872898E+03  0.00000000000E+00 0. -1.
         23    2    1    2    0    0  0.77207938038E+02  0.48124967017E+02 -0.94300990488E+01  0.13100280923E+03  0.93785559188E+02 0.  0.
         23    2    1    2    0    0 -0.10289602597E+03 -0.46433320781E+02 -0.38249863298E+03  0.40904043454E+03  0.90913296125E+02 0.  0.
        -13    1    3    3    0    0  0.41828362227E+02  0.36060892457E+02 -0.50947368775E+02  0.75137435653E+02  0.00000000000E+00 0. -1.
         13    1    3    3    0    0  0.35379575812E+02  0.12064074560E+02  0.41517269726E+02  0.55865373579E+02  0.00000000000E+00 0.  1.
        -13    1    4    4    0    0 -0.78647199610E+02 -0.48891766635E+02 -0.37045458738E+03  0.38185388326E+03  0.00000000000E+00 0. -1.
         13    1    4    4    0    0 -0.24248826356E+02  0.24584458543E+01 -0.12044045604E+02  0.27186551274E+02  0.00000000000E+00 0.  1.
         21    1    1    2  502  501  0.25688087928E+02 -0.16916462363E+01 -0.15181914453E+03  0.15398633762E+03  0.00000000000E+00 0. -1.
<scales pt_clust_5="13000.00000" pt_clust_6="13000.00000" pt_clust_7="13000.00000" pt_clust_8="13000.00000" pt_clust_9="25.74373"></scales>
<clustering>
<clus scale="   25.744">  2  9  1 -1</clus>
<clus scale="   90.913">  7  8 -1 -1</clus>
<clus scale="   93.786">  5  6 -1 -1</clus>
<clus scale="  130.884">  2  7  1 -1</clus>
<clus scale="   25.744">  2  5  1 -1</clus>
</clustering>
</event>
<event>
 9    1  0.9000149E-006  0.1416542E+03  0.7546771E-02  0.1211144E+00
          2   -1    0    0  502    0  0.00000000000E+00  0.00000000000E+00  0.64513542324E+03  0.64513542324E+03  0.00000000000E+00 0. -1.
         -2   -1    0    0    0  501 -0.00000000000E+00 -0.00000000000E+00 -0.41115033526E+02  0.41115033526E+02  0.00000000000E+00 0.  1.
         23    2    1    2    0    0  0.25030408935E+02 -0.10890143002E+03  0.19793124764E+03  0.24524716756E+03  0.92105111550E+02 0.  0.
         23    2    1    2    0    0  0.63319324238E+01  0.10379854922E+03  0.30829735031E+03  0.33817882526E+03  0.92214041542E+02 0.  0.
        -11    1    3    3    0    0  0.60519237286E+01 -0.11742732296E+03  0.18903181352E+03  0.22261812254E+03  0.00000000000E+00 0.  1.
         11    1    3    3    0    0  0.18978485207E+02  0.85258929381E+01  0.88994341131E+01  0.22629045023E+02  0.00000000000E+00 0. -1.
        -11    1    4    4    0    0  0.40587362348E+02  0.23128082700E+02  0.68902533884E+02  0.83245428508E+02  0.00000000000E+00 0.  1.
         11    1    4    4    0    0 -0.34255429925E+02  0.80670466524E+02  0.23939481643E+03  0.25493339675E+03  0.00000000000E+00 0. -1.
         21    1    1    2  502  501 -0.31362341359E+02  0.51028807993E+01  0.97791791766E+02  0.10282446394E+03  0.00000000000E+00 0.  1.
<scales pt_clust_5="13000.00000" pt_clust_6="13000.00000" pt_clust_7="13000.00000" pt_clust_8="13000.00000" pt_clust_9="31.77477"></scales>
<clustering>
<clus scale="   31.775">  1  9  2 -1</clus>
<clus scale="   92.105">  5  6 -1 -1</clus>
<clus scale="   92.214">  7  8 -1 -1</clus>
<clus scale="  141.583">  2  5  1 -1</clus>
<clus scale="   31.775">  1  5  2 -1</clus>
</clustering>
</event>
<event>
 9    1  0.9000149E-006  0.1079836E+03  0.7546771E-02  0.1264810E+00
         -3   -1    0    0    0  501 -0.00000000000E+00  0.00000000000E+00  0.48968324484E+03  0.48968324484E+03  0.00000000000E+00 0.  1.
          3   -1    0    0  502    0  0.00000000000E+00 -0.00000000000E+00 -0.32442798518E+02  0.32442798518E+02  0.00000000000E+00 0. -1.
         23    2    1    2    0    0 -0.43390047524E+02  0.20403844072E+02  0.23470061413E+03  0.25625240997E+03  0.91004979327E+02 0.  0.
         23    2    1    2    0    0  0.52985155096E+02 -0.44781934592E+02  0.20190362004E+03  0.23252381122E+03  0.92137954586E+02 0.  0.
        -11    1    4    4    0    0  0.36343351794E+02  0.23580165754E+02  0.58554447853E+02  0.72838772642E+02  0.00000000000E+00 0.  1.
         11    1    4    4    0    0  0.16641803302E+02 -0.68362100346E+02  0.14334917218E+03  0.15968503858E+03  0.00000000000E+00 0. -1.
        -13    1    3    3    0    0  0.26681874060E+02 -0.45438983027E+01  0.45297063103E+02  0.52767351088E+02  0.00000000000E+00 0. -1.
         13    1    3    3    0    0 -0.70071921584E+02  0.24947742374E+02  0.18940355103E+03  0.20348505888E+03  0.00000000000E+00 0.  1.
         21    1    1    2  502  501 -0.95951075725E+01  0.24378090521E+02  0.20636212157E+02  0.33349822173E+02  0.00000000000E+00 0.  1.
<scales pt_clust_5="13000.00000" pt_clust_6="13000.00000" pt_clust_7="13000.00000" pt_clust_8="13000.00000" pt_clust_9="26.19842"></scales>
<clustering>
<clus scale="   26.198">  2  9  1 -1</clus>
<clus scale="   91.005">  7  8 -1 -1</clus>
<clus scale="   92.138">  5  6 -1 -1</clus>
<clus scale="  107.018">  1  7  2 -1</clus>
<clus scale="   26.198">  2  5  1 -1</clus>
</clustering>
</event>
<event>
 9    1  0.9000149E-006  0.1198649E+03  0.7546771E-02  0.1243333E+00
         -2   -1    0    0    0  501 -0.00000000000E+00  0.00000000000E+00  0.24325549757E+03  0.24325549757E+03  0.00000000000E+00 0.  1.
          2   -1    0    0  502    0  0.00000000000E+00 -0.00000000000E+00 -0.23462298680E+03  0.23462298680E+03  0.00000000000E+00 0. -1.
         23    2    1    2    0    0  0.57889112615E+02  0.42597274123E+02  0.86652676337E+02  0.14478512584E+03  0.91040481249E+02 0.  0.
         23    2    1    2    0    0 -0.36578870637E+02 -0.83053243754E+02  0.91339770783E+02  0.15766930108E+03  0.90998899447E+02 0.  0.
        -11    1    4    4    0    0 -0.35092877842E+02 -0.45576685718E+02  0.10335683449E+03  0.11828516218E+03  0.00000000000E+00 0.  1.
         11    1    4    4    0    0 -0.14859927944E+01 -0.37476558037E+02 -0.12017063704E+02  0.39384138900E+02  0.00000000000E+00 0. -1.
        -11    1    3    3    0    0  0.15275524012E+02  0.59385089259E+02  0.21160873603E+02  0.64866887020E+02  0.00000000000E+00 0.  1.
         11    1    3    3    0    0  0.42613588603E+02 -0.16787815135E+02  0.65491802734E+02  0.79918238820E+02  0.00000000000E+00 0. -1.
         21    1    1    2  502  501 -0.21310241978E+02  0.40455969631E+02 -0.16935993635E+03  0.17542405745E+03  0.00000000000E+00 0. -1.
<scales pt_clust_5="13000.00000" pt_clust_6="13000.00000" pt_clust_7="13000.00000" pt_clust_8="13000.00000" pt_clust_9="45.72540"></scales>
<clustering>
<clus scale="   45.725">  2  9  1 -1</clus>
<clus scale="   90.999">  5  6 -1 -1</clus>
<clus scale="   91.040">  7  8 -1 -1</clus>
<clus scale="  119.833">  2  5  1 -1</clus>
<clus scale="   45.725">  2  5  1 -1</clus>
</clustering>
</event>
<event>
 9    1  0.9000149E-006  0.1315796E+03  0.7546771E-02  0.1231934E+00
          2   -1    0    0  502    0  0.00000000000E+00  0.00000000000E+00  0.53569481105E+02  0.53569481105E+02  0.00000000000E+00 0. -1.
         -2   -1    0    0    0  501 -0.00000000000E+00 -0.00000000000E+00 -0.56744998031E+03  0.56744998031E+03  0.00000000000E+00 0.  1.
         23    2    1    2    0    0 -0.22324910764E+02  0.67230724428E+02 -0.43743451264E+03  0.45725872351E+03  0.11277506564E+03 0.  0.
         23    2    1    2    0    0  0.39665299071E+02 -0.48054168771E+02 -0.80984900658E+02  0.13751133611E+03  0.92023227167E+02 0.  0.
        -11    1    4    4    0    0 -0.99832799486E+01  0.22090370369E+02 -0.10724186385E+02  0.26507706713E+02  0.00000000000E+00 0.  1.
         11    1    4    4    0    0  0.49648579020E+02 -0.70144539140E+02 -0.70260714273E+02  0.11100362940E+03  0.00000000000E+00 0. -1.
        -13    1    3    3    0    0 -0.78436110595E+01  0.96833538220E+02 -0.36449549449E+03  0.37722038898E+03  0.00000000000E+00 0.  1.
         13    1    3    3    0    0 -0.14481299705E+02 -0.29602813793E+02 -0.72939018146E+02  0.80038334526E+02  0.00000000000E+00 0. -1.
         21    1    1    2  502  501 -0.17340388307E+02 -0.19176555657E+02  0.45389140911E+01  0.26249401795E+02  0.00000000000E+00 0.  1.
<scales pt_clust_5="13000.00000" pt_clust_6="13000.00000" pt_clust_7="13000.00000" pt_clust_8="13000.00000" pt_clust_9="25.85400"></scales>
<clustering>
<clus scale="   25.854">  1  9  2 -1</clus>
<clus scale="   92.023">  5  6 -1 -1</clus>
<clus scale="  112.775">  7  8 -1 -1</clus>
<clus scale="  114.295">  1  5  2 -1</clus>
<clus scale="   25.854">  1  5  2 -1</clus>
</clustering>
</event>
<event>
 9    1  0.9000149E-006  0.2557424E+03  0.7546771E-02  0.1109742E+00
          1   -1    0    0  502    0  0.00000000000E+00  0.00000000000E+00  0.39760861804E+03  0.39760861804E+03  0.00000000000E+00 0. -1.
         -1   -1    0    0    0  501 -0.00000000000E+00 -0.00000000000E+00 -0.24132497172E+03  0.24132497172E+03  0.00000000000E+00 0.  1.
         23    2    1    2    0    0  0.10555305459E+03 -0.19699205775E+03  0.35840336987E+02  0.24387611898E+03  0.90794898012E+02 0.  0.
         23    2    1    2    0    0 -0.67871014222E+02  0.24952230702E+03  0.18836068680E+02  0.27462743048E+03  0.90540442982E+02 0.  0.
        -11    1    4    4    0    0 -0.31420377535E+00  0.16502512928E+03  0.21440921685E+02  0.16641245488E+03  0.00000000000E+00 0.  1.
         11    1    4    4    0    0 -0.67556810447E+02  0.84497177746E+02 -0.26048530043E+01  0.10821497560E+03  0.00000000000E+00 0. -1.
        -13    1    3    3    0    0  0.39582074880E+02 -0.55688350749E+02  0.53715682014E+02  0.86909766742E+02  0.00000000000E+00 0. -1.
         13    1    3    3    0    0  0.65970979705E+02 -0.14130370700E+03 -0.17875345026E+02  0.15696635224E+03  0.00000000000E+00 0.  1.
         21    1    1    2  502  501 -0.37682040363E+02 -0.52530249276E+02  0.10160724065E+03  0.12043004030E+03  0.00000000000E+00 0. -1.
<scales pt_clust_5="13000.00000" pt_clust_6="13000.00000" pt_clust_7="13000.00000" pt_clust_8="13000.00000" pt_clust_9="64.64799"></scales>
<clustering>
<clus scale="   64.648">  1  9  2 -1</clus>
<clus scale="   90.540">  5  6 -1 -1</clus>
<clus scale="   90.795">  7  8 -1 -1</clus>
<clus scale="  255.652">  1  5  2 -1</clus>
<clus scale="   64.648">  1  5  2 -1</clus>
</clustering>
</event>
<event>
 9    1  0.9000149E-006  0.1470207E+03  0.7546771E-02  0.1214542E+00
          1   -1    0    0  502    0  0.00000000000E+00  0.00000000000E+00  0.71550444873E+03  0.71550444873E+03  0.00000000000E+00 0. -1.
         -1   -1    0    0    0  501 -0.00000000000E+00 -0.00000000000E+00 -0.97542259663E+02  0.97542259663E+02  0.00000000000E+00 0.  1.
         23    2    1    2    0    0 -0.71393365816E+02  0.18975734394E+02 -0.16965971208E+02  0.11903015000E+03  0.91778217740E+02 0.  0.
         23    2    1    2    0    0 -0.31530282027E+02  0.74849722619E+02  0.16649218093E+03  0.20531546323E+03  0.88533346656E+02 0.  0.
        -11    1    4    4    0    0 -0.59160579322E+02  0.69116263854E+02  0.11541386415E+03  0.14696051209E+03  0.00000000000E+00 0. -1.
         11    1    4    4    0    0  0.27630297294E+02  0.57334587649E+01  0.51078316776E+02  0.58354951141E+02  0.00000000000E+00 0.  1.
        -13    1    3    3    0    0  0.12295931667E+02 -0.21090135386E+02  0.13657582748E+01  0.24450951757E+02  0.00000000000E+00 0. -1.
         13    1    3    3    0    0 -0.83689297482E+02  0.40065869780E+02 -0.18331729483E+02  0.94579198242E+02  0.00000000000E+00 0.  1.
         21    1    1    2  502  501  0.10292364784E+03 -0.93825457013E+02  0.46843597935E+03  0.48870109517E+03  0.00000000000E+00 0. -1.
<scales pt_clust_5="13000.00000" pt_clust_6="13000.00000" pt_clust_7="13000.00000" pt_clust_8="13000.00000" pt_clust_9="117.37514"></scales>
<clustering>
<clus scale="   88.533">  5  6 -1 -1</clus>
<clus scale="   91.778">  7  8 -1 -1</clus>
<clus scale="  117.815">  2  7  1 -1</clus>
<clus scale="  117.375">  1  9  2 -1</clus>
<clus scale="  117.375">  1  5  2 -1</clus>
</clustering>
</event>
<event>
 9    1  0.9000149E-006  0.9338517E+02  0.7546771E-02  0.1295161E+00
          1   -1    0    0  502    0  0.00000000000E+00  0.00000000000E+00  0.11807293287E+03  0.11807293287E+03  0.00000000000E+00 0. -1.
         -1   -1    0    0    0  501 -0.00000000000E+00 -0.00000000000E+00 -0.15058691762E+03  0.15058691762E+03  0.00000000000E+00 0.  1.
         23    2    1    2    0    0  0.38645527268E+02 -0.11044953431E+01 -0.65282521493E+02  0.11791164284E+03  0.90258801322E+02 0.  0.
         23    2    1    2    0    0 -0.27013184180E+01  0.73816821865E+00 -0.14964655813E+02  0.90993893863E+02  0.89711235546E+02 0.  0.
        -11    1    4    4    0    0 -0.30644923805E+02  0.87613111453E+01 -0.41024806464E+02  0.51951002622E+02  0.00000000000E+00 0.  1.
         11    1    4    4    0    0  0.27943605387E+02 -0.80231429266E+01  0.26060150651E+02  0.39042891241E+02  0.00000000000E+00 0. -1.
        -13    1    3    3    0    0 -0.21304517661E+02  0.22007994556E+02 -0.36099848566E+02  0.47343778510E+02  0.00000000000E+00 0.  1.
         13    1    3    3    0    0  0.59950044929E+02 -0.23112489899E+02 -0.29182672927E+02  0.70567864325E+02  0.00000000000E+00 0. -1.
         21    1    1    2  502  501 -0.35944208850E+02  0.36632712442E+00  0.47733192550E+02  0.59754313789E+02  0.00000000000E+00 0.  1.
<scales pt_clust_5="13000.00000" pt_clust_6="13000.00000" pt_clust_7="13000.00000" pt_clust_8="13000.00000" pt_clust_9="35.94608"></scales>
<clustering>
<clus scale="   35.946">  1  9  2 -1</clus>
<clus scale="   89.711">  5  6 -1 -1</clus>
<clus scale="   90.259">  7  8 -1 -1</clus>
<clus scale="   92.856">  1  5  2 -1</clus>
<clus scale="   35.946">  1  5  2 -1</clus>
</clustering>
</event>
<event>
 9    1  0.9000149E-006  0.9913677E+02  0.7546771E-02  0.1290518E+00
          2   -1    0    0  502    0  0.00000000000E+00  0.00000000000E+00  0.20841002099E+03  0.20841002099E+03  0.00000000000E+00 0. -1.
         -2   -1    0    0    0  501 -0.00000000000E+00 -0.00000000000E+00 -0.17725084519E+03  0.17725084519E+03  0.00000000000E+00 0.  1.
         23    2    1    2    0    0  0.12820571791E+02 -0.29043855588E+01 -0.13738235291E+03  0.16115671289E+03  0.83215219168E+02 0.  0.
         23    2    1    2    0    0 -0.43297066874E+02  0.20832063273E+02  0.14717283204E+03  0.18319023822E+03  0.97929617720E+02 0.  0.
        -11    1    3    3    0    0  0.10927678435E+02 -0.35055553227E+02 -0.25434005409E+02  0.44667601225E+02  0.00000000000E+00 0.  1.
         11    1    3    3    0    0  0.18928933562E+01  0.32151167668E+02 -0.11194834751E+03  0.11648911167E+03  0.00000000000E+00 0. -1.
        -13    1    4    4    0    0 -0.79168532822E+01 -0.30660132105E+02  0.10003352810E+03  0.10492581671E+03  0.00000000000E+00 0. -1.
         13    1    4    4    0    0 -0.35380213592E+02  0.51492195378E+02  0.47139303938E+02  0.78264421510E+02  0.00000000000E+00 0.  1.
         21    1    1    2  502  501  0.30476495084E+02 -0.17927677714E+02  0.21368696674E+02  0.41313915069E+02  0.00000000000E+00 0. -1.
<scales pt_clust_5="13000.00000" pt_clust_6="13000.00000" pt_clust_7="13000.00000" pt_clust_8="13000.00000" pt_clust_9="35.35843"></scales>
<clustering>
<clus scale="   35.358">  1  9  2 -1</clus>
<clus scale="   83.215">  5  6 -1 -1</clus>
<clus scale="   84.633">  2  5  1 -1</clus>
<clus scale="   97.930">  7  8 -1 -1</clus>
<clus scale="   35.358">  1  5  2 -1</clus>
</clustering>
</event>
<event>
 9    1  0.9000149E-006  0.2008119E+03  0.7546771E-02  0.1149173E+00
         -1   -1    0    0    0  501 -0.00000000000E+00  0.00000000000E+00  0.28570486098E+03  0.28570486098E+03  0.00000000000E+00 0.  1.
          1   -1    0    0  502    0  0.00000000000E+00 -0.00000000000E+00 -0.28089703445E+03  0.28089703445E+03  0.00000000000E+00 0. -1.
         23    2    1    2    0    0 -0.58862755048E+02  0.16271222818E+03  0.17236970122E+03  0.26091896194E+03  0.91800314112E+02 0.  0.
         23    2    1    2    0    0  0.73596370496E+02 -0.18929332832E+03 -0.13082489122E+03  0.25800442404E+03  0.90568983455E+02 0.  0.
        -11    1    3    3    0    0 -0.35866233084E+02  0.53000806667E+01  0.24768440135E+02  0.43908463392E+02  0.00000000000E+00 0. -1.
         11    1    3    3    0    0 -0.22996521964E+02  0.15741214751E+03  0.14760126108E+03  0.21701049855E+03  0.00000000000E+00 0.  1.
        -13    1    4    4    0    0  0.47397202700E+02 -0.16330725275E+03 -0.64044546488E+02  0.18170706524E+03  0.00000000000E+00 0.  1.
         13    1    4    4    0    0  0.26199167797E+02 -0.25986075574E+02 -0.66780344734E+02  0.76297358799E+02  0.00000000000E+00 0. -1.
         21    1    1    2  502  501 -0.14733615448E+02  0.26581100143E+02 -0.36736983464E+02  0.47678509446E+02  0.00000000000E+00 0. -1.
<scales pt_clust_5="13000.00000" pt_clust_6="13000.00000" pt_clust_7="13000.00000" pt_clust_8="13000.00000" pt_clust_9="30.39135"></scales>
<clustering>
<clus scale="   30.391">  2  9  1 -1</clus>
<clus scale="   90.569">  7  8 -1 -1</clus>
<clus scale="   91.800">  5  6 -1 -1</clus>
<clus scale="  200.252">  2  7  1 -1</clus>
<clus scale="   30.391">  2  5  1 -1</clus>
</clustering>
</event>
<event>
 9    1  0.9000149E-006  0.9188489E+02  0.7546771E-02  0.1298354E+00
         -1   -1    0    0    0  501 -0.00000000000E+00  0.00000000000E+00  0.46627846478E+03  0.46627846478E+03  0.00000000000E+00 0.  1.
          1   -1    0    0  502    0  0.00000000000E+00 -0.00000000000E+00 -0.32503016031E+02  0.32503016031E+02  0.00000000000E+00 0. -1.
         23    2    1    2    0    0  0.43091410359E+01  0.29492273745E+00  0.32391090958E+03  0.33668375236E+03  0.91755196484E+02 0.  0.
         23    2    1    2    0    0  0.98513686692E+01 -0.17441446416E+02  0.10163119455E+03  0.13838462505E+03  0.91761382002E+02 0.  0.
        -11    1    3    3    0    0 -0.42631373048E+02  0.10099979457E+02  0.14714654048E+03  0.15353028342E+03  0.00000000000E+00 0. -1.
         11    1    3    3    0    0  0.46940514084E+02 -0.98050567200E+01  0.17676436910E+03  0.18315346894E+03  0.00000000000E+00 0.  1.
        -11    1    4    4    0    0 -0.44399860261E+01 -0.39504154520E+02  0.10462980867E+03  0.11192715740E+03  0.00000000000E+00 0.  1.
         11    1    4    4    0    0  0.14291354695E+02  0.22062708104E+02 -0.29986141232E+01  0.26457467653E+02  0.00000000000E+00 0. -1.
         21    1    1    2  502  501 -0.14160509705E+02  0.17146523678E+02  0.82333446211E+01  0.23713103403E+02  0.00000000000E+00 0. -1.
<scales pt_clust_5="13000.00000" pt_clust_6="13000.00000" pt_clust_7="13000.00000" pt_clust_8="13000.00000" pt_clust_9="22.23788"></scales>
<clustering>
<clus scale="   22.238">  2  9  1 -1</clus>
<clus scale="   91.755">  5  6 -1 -1</clus>
<clus scale="   91.761">  7  8 -1 -1</clus>
<clus scale="   91.879">  1  5  2 -1</clus>
<clus scale="   22.238">  2  5  1 -1</clus>
</clustering>
</event>
<event>
 9    1  0.9000149E-006  0.1068660E+03  0.7546771E-02  0.1268164E+00
          1   -1    0    0  502    0  0.00000000000E+00  0.00000000000E+00  0.53812517029E+02  0.53812517029E+02  0.00000000000E+00 0. -1.
         -1   -1    0    0    0  501 -0.00000000000E+00 -0.00000000000E+00 -0.38528424982E+03  0.38528424982E+03  0.00000000000E+00 0.  1.
         23    2    1    2    0    0  0.39619134120E+02 -0.48941322986E+02 -0.27670640781E+03  0.29679021661E+03  0.86908386649E+02 0.  0.
         23    2    1    2    0    0 -0.31741481516E+02  0.16419154794E+02 -0.37752545572E+02  0.10476745731E+03  0.90960733950E+02 0.  0.
        -13    1    4    4    0    0  0.25662619066E+02  0.75333994155E+01 -0.38255316649E+02  0.46677525384E+02  0.00000000000E+00 0.  1.
         13    1    4    4    0    0 -0.57404100582E+02  0.88857553785E+01  0.50277107643E+00  0.58089931925E+02  0.00000000000E+00 0. -1.
        -13    1    3    3    0    0 -0.11640348609E+02  0.18669464409E+02 -0.46386812959E+02  0.51339877615E+02  0.00000000000E+00 0. -1.
         13    1    3    3    0    0  0.51259482730E+02 -0.67610787395E+02 -0.23031959485E+03  0.24545033900E+03  0.00000000000E+00 0.  1.
         21    1    1    2  502  501 -0.78776526047E+01  0.32522168192E+02 -0.17012779406E+02  0.37539092925E+02  0.00000000000E+00 0. -1.
<scales pt_clust_5="13000.00000" pt_clust_6="13000.00000" pt_clust_7="13000.00000" pt_clust_8="13000.00000" pt_clust_9="33.46265"></scales>
<clustering>
<clus scale="   33.463">  1  9  2 -1</clus>
<clus scale="   86.908">  7  8 -1 -1</clus>
<clus scale="   90.961">  5  6 -1 -1</clus>
<clus scale="  103.439">  2  7  1 -1</clus>
<clus scale="   33.463">  1  5  2 -1</clus>
</clustering>
</event>
<event>
 9    1  0.9000149E-006  0.2079917E+03  0.7546771E-02  0.1143211E+00
          1   -1    0    0  502    0  0.00000000000E+00  0.00000000000E+00  0.64075153339E+03  0.64075153339E+03  0.00000000000E+00 0. -1.
         -1   -1    0    0    0  501 -0.00000000000E+00 -0.00000000000E+00 -0.45624912641E+03  0.45624912641E+03  0.00000000000E+00 0.  1.
         23    2    1    2    0    0 -0.24675691349E+03  0.65038268882E+02 -0.28903795215E+03  0.39622817667E+03  0.91295560838E+02 0.  0.
         23    2    1    2    0    0  0.12041973164E+03  0.32464197101E+01 -0.49198734658E+02  0.15866544351E+03  0.90789627520E+02 0.  0.
        -11    1    4    4    0    0  0.25059054468E+02  0.38036407349E+02 -0.32107426312E+02  0.55728011980E+02  0.00000000000E+00 0.  1.
         11    1    4    4    0    0  0.95360677167E+02 -0.34789987639E+02 -0.17091308346E+02  0.10293743153E+03  0.00000000000E+00 0. -1.
        -13    1    3    3    0    0 -0.15047275313E+03 -0.63529802058E+01 -0.17344621047E+03  0.22970850597E+03  0.00000000000E+00 0.  1.
         13    1    3    3    0    0 -0.96284160359E+02  0.71391249088E+02 -0.11559174169E+03  0.16651967070E+03  0.00000000000E+00 0. -1.
         21    1    1    2  502  501  0.12633718185E+03 -0.68284688592E+02  0.52273909380E+03  0.54210703961E+03  0.00000000000E+00 0. -1.
<scales pt_clust_5="13000.00000" pt_clust_6="13000.00000" pt_clust_7="13000.00000" pt_clust_8="13000.00000" pt_clust_9="143.61017"></scales>
<clustering>
<clus scale="   90.790">  5  6 -1 -1</clus>
<clus scale="   91.296">  7  8 -1 -1</clus>
<clus scale="  143.610">  1  9  2 -1</clus>
<clus scale="  207.770">  1  5  2 -1</clus>
<clus scale="  143.610">  1  5  2 -1</clus>
</clustering>
</event>
<event>
 9    1  0.9000149E-006  0.1137048E+03  0.7546771E-02  0.1254877E+00
         -1   -1    0    0    0  501 -0.00000000000E+00  0.00000000000E+00  0.37235879994E+03  0.37235879994E+03  0.00000000000E+00 0.  1.
          1   -1    0    0  502    0  0.00000000000E+00 -0.00000000000E+00 -0.11969398954E+03  0.11969398954E+03  0.00000000000E+00 0. -1.
         23    2    1    2    0    0 -0.13063408291E+02  0.11331481853E+01  0.24335090484E+03  0.26086982556E+03  0.93066999206E+02 0.  0.
         23    2    1    2    0    0 -0.38563601484E+02 -0.65749618200E+02 -0.51130892812E+02  0.12874171252E+03  0.90276778248E+02 0.  0.
        -13    1    3    3    0    0  0.26660688816E+02 -0.22078090039E+02  0.42481862285E+02  0.54799115057E+02  0.00000000000E+00 0.  1.
         13    1    3    3    0    0 -0.39724097106E+02  0.23211238224E+02  0.20086904255E+03  0.20607071050E+03  0.00000000000E+00 0. -1.
        -13    1    4    4    0    0 -0.18747318465E+02 -0.15434829467E+02  0.25330419502E+02  0.35090255947E+02  0.00000000000E+00 0.  1.
         13    1    4    4    0    0 -0.19816283019E+02 -0.50314788733E+02 -0.76461312314E+02  0.93651456576E+02  0.00000000000E+00 0. -1.
         21    1    1    2  502  501  0.51627009774E+02  0.64616470015E+02  0.60444798375E+02  0.10244125139E+03  0.00000000000E+00 0.  1.
<scales pt_clust_5="13000.00000" pt_clust_6="13000.00000" pt_clust_7="13000.00000" pt_clust_8="13000.00000" pt_clust_9="82.70814"></scales>
<clustering>
<clus scale="   82.708">  1  9  2 -1</clus>
<clus scale="   90.277">  7  8 -1 -1</clus>
<clus scale="   93.067">  5  6 -1 -1</clus>
<clus scale="  111.433">  2  7  1 -1</clus>
<clus scale="  111.433">  2  5  1 -1</clus>
</clustering>
</event>
<event>
 9    1  0.9000149E-006  0.1217614E+03  0.7546771E-02  0.1240876E+00
         -1   -1    0    0    0  501 -0.00000000000E+00  0.00000000000E+00  0.19400765519E+03  0.19400765519E+03  0.00000000000E+00 0.  1.
          1   -1    0    0  502    0  0.00000000000E+00 -0.00000000000E+00 -0.19719495992E+03  0.19719495992E+03  0.00000000000E+00 0. -1.
         23    2    1    2    0    0  0.47087615774E+02  0.39380997058E+02  0.13162666597E+03  0.17212763950E+03  0.92380942835E+02 0.  0.
         23    2    1    2    0    0 -0.76124417715E+02 -0.31446329372E+02 -0.14279640269E+03  0.18793313818E+03  0.90245516240E+02 0.  0.
        -11    1    4    4    0    0 -0.70413910683E+02 -0.57669953021E+02 -0.12866255475E+03  0.15760074649E+03  0.00000000000E+00 0. -1.
         11    1    4    4    0    0 -0.57105070317E+01  0.26223623650E+02 -0.14133847930E+02  0.30332391683E+02  0.00000000000E+00 0.  1.
        -13    1    3    3    0    0  0.23164244831E+02 -0.28980680729E+02  0.32246665981E+02  0.49155971773E+02  0.00000000000E+00 0. -1.
         13    1    3    3    0    0  0.23923370943E+02  0.68361677787E+02  0.99379999986E+02  0.12297166773E+03  0.00000000000E+00 0.  1.
         21    1    1    2  502  501  0.29036801941E+02 -0.79346676863E+01  0.79824319850E+01  0.31141837432E+02  0.00000000000E+00 0.  1.
<scales pt_clust_5="13000.00000" pt_clust_6="13000.00000" pt_clust_7="13000.00000" pt_clust_8="13000.00000" pt_clust_9="30.10141"></scales>
<clustering>
<clus scale="   30.101">  1  9  2 -1</clus>
<clus scale="   90.246">  5  6 -1 -1</clus>
<clus scale="   92.381">  7  8 -1 -1</clus>
<clus scale="  120.149">  2  5  1 -1</clus>
<clus scale="  120.149">  2  5  1 -1</clus>
</clustering>
</event>
<event>
 9    1  0.9000149E-006  0.1058925E+03  0.7546771E-02  0.1269545E+00
          3   -1    0    0  502    0  0.00000000000E+00  0.00000000000E+00  0.53908320489E+03  0.53908320489E+03  0.00000000000E+00 0. -1.
         -3   -1    0    0    0  501 -0.00000000000E+00 -0.00000000000E+00 -0.31997491779E+02  0.31997491779E+02  0.00000000000E+00 0.  1.
         23    2    1    2    0    0  0.13255057363E+02 -0.28278627779E+02  0.11398972757E+03  0.15055669926E+03  0.93264593314E+02 0.  0.
         23    2    1    2    0    0  0.13569719448E+02  0.52761816982E+02  0.32710471269E+03  0.34519907924E+03  0.95900806188E+02 0.  0.
        -11    1    4    4    0    0 -0.33387466549E+02  0.13078173564E+02  0.20896976013E+03  0.21202387176E+03  0.00000000000E+00 0. -1.
         11    1    4    4    0    0  0.46957185997E+02  0.39683643418E+02  0.11813495256E+03  0.13317520748E+03  0.00000000000E+00 0.  1.
        -11    1    3    3    0    0 -0.24751560691E+02  0.17723089501E+02  0.70277377748E+02  0.76587580464E+02  0.00000000000E+00 0.  1.
         11    1    3    3    0    0  0.38006618055E+02 -0.46001717280E+02  0.43712349822E+02  0.73969118798E+02  0.00000000000E+00 0. -1.
         21    1    1    2  502  501 -0.26824776811E+02 -0.24483189203E+02  0.65991272851E+02  0.75324918168E+02  0.00000000000E+00 0. -1.
<scales pt_clust_5="13000.00000" pt_clust_6="13000.00000" pt_clust_7="13000.00000" pt_clust_8="13000.00000" pt_clust_9="36.31797"></scales>
<clustering>
<clus scale="   36.318">  2  9  1 -1</clus>
<clus scale="   93.265">  7  8 -1 -1</clus>
<clus scale="   95.901">  5  6 -1 -1</clus>
<clus scale="  103.511">  2  7  1 -1</clus>
<clus scale="  105.893">  1  5  2 -1</clus>
</clustering>
</event>
<event>
 9    1  0.9000149E-006  0.1532451E+03  0.7546771E-02  0.1196910E+00
         -1   -1    0    0    0  501 -0.00000000000E+00  0.00000000000E+00  0.30226396726E+03  0.30226396726E+03  0.00000000000E+00 0.  1.
          1   -1    0    0  502    0  0.00000000000E+00 -0.00000000000E+00 -0.30462562004E+03  0.30462562004E+03  0.00000000000E+00 0. -1.
         23    2    1    2    0    0 -0.11012619842E+03 -0.77025196139E+02  0.18707459551E+03  0.24763963286E+03  0.90927570386E+02 0.  0.
         23    2    1    2    0    0  0.69969614609E+02  0.77760521410E+02  0.26359857938E+02  0.13974812895E+03  0.88838346319E+02 0.  0.
        -11    1    4    4    0    0  0.50524963158E+02  0.97214827200E+02  0.23864689426E+02  0.11212946950E+03  0.00000000000E+00 0. -1.
         11    1    4    4    0    0  0.19444651451E+02 -0.19454305791E+02  0.24951685122E+01  0.27618659449E+02  0.00000000000E+00 0.  1.
        -13    1    3    3    0    0 -0.84806885914E+02 -0.16620267573E+02  0.61691913828E+02  0.10618066408E+03  0.00000000000E+00 0.  1.
         13    1    3    3    0    0 -0.25319312506E+02 -0.60404928566E+02  0.12538268169E+03  0.14145896878E+03  0.00000000000E+00 0. -1.
         21    1    1    2  502  501  0.40156583812E+02 -0.73532527023E+00 -0.21579610624E+03  0.21950182549E+03  0.00000000000E+00 0. -1.
<scales pt_clust_5="13000.00000" pt_clust_6="13000.00000" pt_clust_7="13000.00000" pt_clust_8="13000.00000" pt_clust_9="40.16332"></scales>
<clustering>
<clus scale="   40.163">  2  9  1 -1</clus>
<clus scale="   88.838">  5  6 -1 -1</clus>
<clus scale="   90.928">  7  8 -1 -1</clus>
<clus scale="  152.015">  2  5  1 -1</clus>
<clus scale="   40.163">  2  5  1 -1</clus>
</clustering>
</event>
<event>
 9    1  0.9000149E-006  0.9607050E+02  0.7546771E-02  0.1289640E+00
          1   -1    0    0  502    0  0.00000000000E+00  0.00000000000E+00  0.75344344842E+02  0.75344344842E+02  0.00000000000E+00 0. -1.
         -1   -1    0    0    0  501 -0.00000000000E+00 -0.00000000000E+00 -0.24987955113E+03  0.24987955113E+03  0.00000000000E+00 0.  1.
         23    2    1    2    0    0  0.15973172231E+02 -0.27805626285E+02 -0.17739522752E+03  0.20230233179E+03  0.91808886376E+02 0.  0.
         23    2    1    2    0    0  0.94872261548E+01  0.18172893388E+02  0.13906223770E+02  0.93544021403E+02  0.90204430970E+02 0.  0.
        -11    1    4    4    0    0 -0.49784603707E+01 -0.24127665818E+02 -0.24398206905E+02  0.34672782202E+02  0.00000000000E+00 0.  1.
         11    1    4    4    0    0  0.14465686525E+02  0.42300559206E+02  0.38304430674E+02  0.58871239201E+02  0.00000000000E+00 0. -1.
        -13    1    3    3    0    0 -0.25201209242E+02 -0.23074272034E+02 -0.14696613387E+03  0.15088594196E+03  0.00000000000E+00 0.  1.
         13    1    3    3    0    0  0.41174381473E+02 -0.47313542510E+01 -0.30429093647E+02  0.51416389827E+02  0.00000000000E+00 0. -1.
         21    1    1    2  502  501 -0.25460398386E+02  0.96327328974E+01 -0.11046202539E+02  0.29377542776E+02  0.00000000000E+00 0.  1.
<scales pt_clust_5="13000.00000" pt_clust_6="13000.00000" pt_clust_7="13000.00000" pt_clust_8="13000.00000" pt_clust_9="27.22171"></scales>
<clustering>
<clus scale="   27.222">  1  9  2 -1</clus>
<clus scale="   90.204">  5  6 -1 -1</clus>
<clus scale="   91.809">  7  8 -1 -1</clus>
<clus scale="   94.538">  1  5  2 -1</clus>
<clus scale="   27.222">  1  5  2 -1</clus>
</clustering>
</event>
<event>
 9    1  0.9000149E-006  0.1224224E+03  0.7546771E-02  0.1239713E+00
         -2   -1    0    0    0  501 -0.00000000000E+00  0.00000000000E+00  0.34072062664E+02  0.34072062664E+02  0.00000000000E+00 0.  1.
          2   -1    0    0  502    0  0.00000000000E+00 -0.00000000000E+00 -0.70446167055E+03  0.70446167055E+03  0.00000000000E+00 0. -1.
         23    2    1    2    0    0 -0.45853338412E+02  0.50366410879E+02 -0.21319108145E+03  0.24193475375E+03  0.91884078466E+02 0.  0.
         23    2    1    2    0    0  0.25999043611E+02 -0.10140270994E+03 -0.30335176281E+03  0.33329642736E+03  0.90031975664E+02 0.  0.
        -13    1    3    3    0    0  0.17577391013E+02  0.46793363014E+02 -0.79369450637E+02  0.93798151322E+02  0.00000000000E+00 0.  1.
         13    1    3    3    0    0 -0.63430729425E+02  0.35730478652E+01 -0.13382163081E+03  0.14813660243E+03  0.00000000000E+00 0. -1.
        -13    1    4    4    0    0  0.27315369679E+02 -0.21439982076E+02 -0.19803584157E+03  0.20105719783E+03  0.00000000000E+00 0. -1.
         13    1    4    4    0    0 -0.13163260679E+01 -0.79962727860E+02 -0.10531592123E+03  0.13223922953E+03  0.00000000000E+00 0.  1.
         21    1    1    2  502  501  0.19854294802E+02  0.51036299057E+02 -0.15384676363E+03  0.16330255210E+03  0.00000000000E+00 0. -1.
<scales pt_clust_5="13000.00000" pt_clust_6="13000.00000" pt_clust_7="13000.00000" pt_clust_8="13000.00000" pt_clust_9="54.76218"></scales>
<clustering>
<clus scale="   54.762">  2  9  1 -1</clus>
<clus scale="   90.032">  7  8 -1 -1</clus>
<clus scale="   91.884">  5  6 -1 -1</clus>
<clus scale="  121.038">  2  7  1 -1</clus>
<clus scale="   54.762">  2  5  1 -1</clus>
</clustering>
</event>
<event>
 9    1  0.9000149E-006  0.9431121E+02  0.7546771E-02  0.1293281E+00
         -1   -1    0    0    0  501 -0.00000000000E+00  0.00000000000E+00  0.80889881938E+02  0.80889881938E+02  0.00000000000E+00 0.  1.
          1   -1    0    0  502    0  0.00000000000E+00 -0.00000000000E+00 -0.41684074961E+03  0.41684074961E+03  0.00000000000E+00 0. -1.
         23    2    1    2    0    0 -0.16342189853E+02 -0.20510760231E+02  0.37533022101E+02  0.10131930982E+03  0.90383164029E+02 0.  0.
         23    2    1    2    0    0 -0.13545429081E+01  0.40190986086E+02 -0.22260100925E+03  0.24322473852E+03  0.89386318639E+02 0.  0.
        -11    1    4    4    0    0 -0.18608618752E+02 -0.23750692560E+02 -0.50591040536E+02  0.58905258436E+02  0.00000000000E+00 0.  1.
         11    1    4    4    0    0  0.17254075844E+02  0.63941678646E+02 -0.17200996872E+03  0.18431948009E+03  0.00000000000E+00 0. -1.
        -13    1    3    3    0    0  0.15619884050E+02 -0.41511029246E+02  0.44065880771E+02  0.62521581673E+02  0.00000000000E+00 0.  1.
         13    1    3    3    0    0 -0.31962073903E+02  0.21000269015E+02 -0.65328586696E+01  0.38797728146E+02  0.00000000000E+00 0. -1.
         21    1    1    2  502  501  0.17696732761E+02 -0.19680225855E+02 -0.15088288052E+03  0.15318658321E+03  0.00000000000E+00 0.  1.
<scales pt_clust_5="13000.00000" pt_clust_6="13000.00000" pt_clust_7="13000.00000" pt_clust_8="13000.00000" pt_clust_9="26.46669"></scales>
<clustering>
<clus scale="   26.467">  2  9  1 -1</clus>
<clus scale="   89.386">  5  6 -1 -1</clus>
<clus scale="   90.383">  7  8 -1 -1</clus>
<clus scale="   93.356">  2  5  1 -1</clus>
<clus scale="   26.467">  2  5  1 -1</clus>
</clustering>
</event>
<event>
 9    1  0.9000149E-006  0.1036730E+03  0.7546771E-02  0.1277223E+00
         -2   -1    0    0    0  501 -0.00000000000E+00  0.00000000000E+00  0.54470560143E+02  0.54470560143E+02  0.00000000000E+00 0.  1.
          2   -1    0    0  502    0  0.00000000000E+00 -0.00000000000E+00 -0.25944874632E+03  0.25944874632E+03  0.00000000000E+00 0. -1.
         23    2    1    2    0    0 -0.32745817670E+02  0.22435977539E+01 -0.57856217812E+02  0.11285763504E+03  0.91171166180E+02 0.  0.
         23    2    1    2    0    0  0.11803769606E+02 -0.27134767344E+02 -0.10736140288E+03  0.14969006186E+03  0.10002509293E+03 0.  0.
        -13    1    4    4    0    0 -0.30689880321E+02 -0.37018464708E+02 -0.91319977125E+02  0.10320646155E+03  0.00000000000E+00 0. -1.
         13    1    4    4    0    0  0.42493649927E+02  0.98836973640E+01 -0.16041425751E+02  0.46483600310E+02  0.00000000000E+00 0.  1.
        -13    1    3    3    0    0 -0.42397955924E+02  0.22442561034E+02 -0.71897362263E+02  0.86431972745E+02  0.00000000000E+00 0. -1.
         13    1    3    3    0    0  0.96521382542E+01 -0.20198963280E+02  0.14041144451E+02  0.26425662299E+02  0.00000000000E+00 0.  1.
         21    1    1    2  502  501  0.20942048063E+02  0.24891169590E+02 -0.39760565488E+02  0.51371609558E+02  0.00000000000E+00 0.  1.
<scales pt_clust_5="13000.00000" pt_clust_6="13000.00000" pt_clust_7="13000.00000" pt_clust_8="13000.00000" pt_clust_9="32.52906"></scales>
<clustering>
<clus scale="   32.529">  2  9  1 -1</clus>
<clus scale="   91.171">  7  8 -1 -1</clus>
<clus scale="   95.159">  1  7  2 -1</clus>
<clus scale="  100.025">  5  6 -1 -1</clus>
<clus scale="   32.529">  2  5  1 -1</clus>
</clustering>
</event>
<event>
 9    1  0.9000149E-006  0.2731378E+03  0.7546771E-02  0.1100181E+00
         -2   -1    0    0    0  501 -0.00000000000E+00  0.00000000000E+00  0.11777602204E+03  0.11777602204E+03  0.00000000000E+00 0.  1.
          2   -1    0    0  502    0  0.00000000000E+00 -0.00000000000E+00 -0.13825930244E+04  0.13825930244E+04  0.00000000000E+00 0. -1.
         23    2    1    2    0    0  0.25849544375E+03 -0.10318728373E+02 -0.95377095051E+02  0.29007815710E+03  0.90123117863E+02 0.  0.
         23    2    1    2    0    0 -0.25144237010E+03  0.48332134261E+02 -0.91925245809E+03  0.95713377483E+03  0.74301551355E+02 0.  0.
        -13    1    4    4    0    0 -0.74764498487E+02  0.31633834560E+02 -0.40683739057E+03  0.41485791795E+03  0.00000000000E+00 0. -1.
         13    1    4    4    0    0 -0.17667787161E+03  0.16698299701E+02 -0.51241506752E+03  0.54227585688E+03  0.00000000000E+00 0.  1.
        -13    1    3    3    0    0  0.18695708960E+03  0.73977464435E+01 -0.10689207846E+03  0.21548456195E+03  0.00000000000E+00 0.  1.
         13    1    3    3    0    0  0.71538354154E+02 -0.17716474817E+02  0.11514983404E+02  0.74593595153E+02  0.00000000000E+00 0. -1.
         21    1    1    2  502  501 -0.70530736515E+01 -0.38013405888E+02 -0.25018744926E+03  0.25315711454E+03  0.00000000000E+00 0. -1.
<scales pt_clust_5="13000.00000" pt_clust_6="13000.00000" pt_clust_7="13000.00000" pt_clust_8="13000.00000" pt_clust_9="38.66219"></scales>
<clustering>
<clus scale="   38.662">  2  9  1 -1</clus>
<clus scale="   74.302">  5  6 -1 -1</clus>
<clus scale="   90.123">  7  8 -1 -1</clus>
<clus scale="  268.333">  2  5  1 -1</clus>
<clus scale="   38.662">  2  5  1 -1</clus>
</clustering>
</event>
<event>
 9    1  0.9000149E-006  0.9559485E+02  0.7546771E-02  0.1290465E+00
         -1   -1    0    0    0  501 -0.00000000000E+00  0.00000000000E+00  0.30521698626E+02  0.30521698626E+02  0.00000000000E+00 0.  1.
          1   -1    0    0  502    0  0.00000000000E+00 -0.00000000000E+00 -0.50506250375E+03  0.50506250375E+03  0.00000000000E+00 0. -1.
         23    2    1    2    0    0 -0.19793499989E+02 -0.35403429176E+02 -0.14322717586E+03  0.17528970931E+03  0.92559563766E+02 0.  0.
         23    2    1    2    0    0  0.16535038415E+02 -0.11741074744E+02 -0.20299060138E+03  0.22354647185E+03  0.91414334203E+02 0.  0.
        -13    1    3    3    0    0  0.29077576774E+02 -0.31513285002E+02 -0.31272786444E+02  0.53071459134E+02  0.00000000000E+00 0.  1.
         13    1    3    3    0    0 -0.48871076763E+02 -0.38901441739E+01 -0.11195438942E+03  0.12221825017E+03  0.00000000000E+00 0. -1.
        -13    1    4    4    0    0  0.49372067210E+02  0.14449781404E+02 -0.11880347832E+03  0.12946298183E+03  0.00000000000E+00 0.  1.
         13    1    4    4    0    0 -0.32837028795E+02 -0.26190856149E+02 -0.84187123051E+02  0.94083490016E+02  0.00000000000E+00 0. -1.
         21    1    1    2  502  501  0.32584615745E+01  0.47144503920E+02 -0.12832302789E+03  0.13674802123E+03  0.00000000000E+00 0.  1.
<scales pt_clust_5="13000.00000" pt_clust_6="13000.00000" pt_clust_7="13000.00000" pt_clust_8="13000.00000" pt_clust_9="47.25698"></scales>
<clustering>
<clus scale="   47.257">  2  9  1 -1</clus>
<clus scale="   91.414">  7  8 -1 -1</clus>
<clus scale="   92.560">  5  6 -1 -1</clus>
<clus scale="   94.486">  2  7  1 -1</clus>
<clus scale="   47.257">  2  5  1 -1</clus>
</clustering>
</event>
<event>
 9    1  0.9000149E-006  0.1007455E+03  0.7546771E-02  0.1278973E+00
          1   -1    0    0  502    0  0.00000000000E+00  0.00000000000E+00  0.20675742072E+03  0.20675742072E+03  0.00000000000E+00 0. -1.
         -1   -1    0    0    0  501 -0.00000000000E+00 -0.00000000000E+00 -0.73703542858E+02  0.73703542858E+02  0.00000000000E+00 0.  1.
         23    2    1    2    0    0  0.15230739548E+02 -0.19703486498E+02  0.33043873508E+02  0.10033648321E+03  0.91407381973E+02 0.  0.
         23    2    1    2    0    0 -0.66172810209E+01  0.54288114055E+02  0.96954983262E+02  0.14435268582E+03  0.91904523220E+02 0.  0.
        -11    1    4    4    0    0  0.19893221677E+02  0.43134193308E+02  0.47165200160E+01  0.47734101669E+02  0.00000000000E+00 0.  1.
         11    1    4    4    0    0 -0.26510502698E+02  0.11153920746E+02  0.92238463246E+02  0.96618584151E+02  0.00000000000E+00 0. -1.
        -13    1    3    3    0    0 -0.31919477034E+02  0.78044985570E+01  0.31810382968E+02  0.45734709755E+02  0.00000000000E+00 0. -1.
         13    1    3    3    0    0  0.47150216582E+02 -0.27507985055E+02  0.12334905404E+01  0.54601773455E+02  0.00000000000E+00 0.  1.
         21    1    1    2  502  501 -0.86134585273E+01 -0.34584627557E+02  0.30550210868E+01  0.35771794544E+02  0.00000000000E+00 0. -1.
<scales pt_clust_5="13000.00000" pt_clust_6="13000.00000" pt_clust_7="13000.00000" pt_clust_8="13000.00000" pt_clust_9="35.64110"></scales>
<clustering>
<clus scale="   35.641">  2  9  1 -1</clus>
<clus scale="   91.407">  7  8 -1 -1</clus>
<clus scale="   91.905">  5  6 -1 -1</clus>
<clus scale="  100.292">  2  7  1 -1</clus>
<clus scale="  100.745">  1  5  2 -1</clus>
</clustering>
</event>
<event>
 9    1  0.9000149E-006  0.2272310E+03  0.7546771E-02  0.1130682E+00
          2   -1    0    0  502    0  0.00000000000E+00  0.00000000000E+00  0.72261106528E+02  0.72261106528E+02  0.00000000000E+00 0. -1.
         -2   -1    0    0    0  501 -0.00000000000E+00 -0.00000000000E+00 -0.11163192505E+04  0.11163192505E+04  0.00000000000E+00 0.  1.
         23    2    1    2    0    0 -0.25716266525E+03 -0.28328557522E+02 -0.46209798576E+03  0.53465398125E+03  0.73383837825E+02 0.  0.
         23    2    1    2    0    0  0.15336177164E+03  0.52418029186E+02 -0.36268916631E+03  0.41013405423E+03  0.10197562597E+03 0.  0.
        -11    1    4    4    0    0  0.43015008872E+02  0.52739089090E+02 -0.71375340061E+02  0.98621202969E+02  0.00000000000E+00 0. -1.
         11    1    4    4    0    0  0.11034676277E+03 -0.32105990428E+00 -0.29131382625E+03  0.31151285126E+03  0.00000000000E+00 0.  1.
        -13    1    3    3    0    0 -0.90227960448E+02  0.12077514441E+02 -0.21744173783E+03  0.23572836179E+03  0.00000000000E+00 0. -1.
         13    1    3    3    0    0 -0.16693470480E+03 -0.40406071963E+02 -0.24465624793E+03  0.29892561946E+03  0.00000000000E+00 0.  1.
         21    1    1    2  502  501  0.10380089361E+03 -0.24089471663E+02 -0.21927099191E+03  0.24379232156E+03  0.00000000000E+00 0.  1.
<scales pt_clust_5="13000.00000" pt_clust_6="13000.00000" pt_clust_7="13000.00000" pt_clust_8="13000.00000" pt_clust_9="106.55951"></scales>
<clustering>
<clus scale="   73.384">  7  8 -1 -1</clus>
<clus scale="  101.976">  5  6 -1 -1</clus>
<clus scale="  106.560">  2  9  1 -1</clus>
<clus scale="  215.917">  2  7  1 -1</clus>
<clus scale="  227.231">  1  5  2 -1</clus>
</clustering>
</event>
<event>
 9    1  0.9000149E-006  0.1719198E+03  0.7546771E-02  0.1176307E+00
          2   -1    0    0  502    0  0.00000000000E+00  0.00000000000E+00  0.75715668194E+03  0.75715668194E+03  0.00000000000E+00 0. -1.
         -2   -1    0    0    0  501 -0.00000000000E+00 -0.00000000000E+00 -0.85125868812E+02  0.85125868812E+02  0.00000000000E+00 0.  1.
         23    2    1    2    0    0 -0.13699953253E+02  0.13408562447E+03  0.68126717981E+02  0.17370417536E+03  0.85821019708E+02 0.  0.
         23    2    1    2    0    0 -0.23814337371E+02 -0.18994151784E+03  0.37951839830E+03  0.43432179860E+03  0.89198134644E+02 0.  0.
        -11    1    4    4    0    0  0.31006250742E+02 -0.98787845262E+02  0.21112055076E+03  0.23514317534E+03  0.00000000000E+00 0. -1.
         11    1    4    4    0    0 -0.54820588114E+02 -0.91153672575E+02  0.16839784755E+03  0.19917862326E+03  0.00000000000E+00 0.  1.
        -13    1    3    3    0    0  0.17721292428E+02  0.11161281098E+03  0.24881872174E+02  0.11571763627E+03  0.00000000000E+00 0. -1.
         13    1    3    3    0    0 -0.31421245681E+02  0.22472813490E+02  0.43244845807E+02  0.57986539086E+02  0.00000000000E+00 0.  1.
         21    1    1    2  502  501  0.37514290624E+02  0.55855893363E+02  0.22438569685E+03  0.23425657680E+03  0.00000000000E+00 0. -1.
<scales pt_clust_5="13000.00000" pt_clust_6="13000.00000" pt_clust_7="13000.00000" pt_clust_8="13000.00000" pt_clust_9="67.28449"></scales>
<clustering>
<clus scale="   67.284">  1  9  2 -1</clus>
<clus scale="   85.821">  7  8 -1 -1</clus>
<clus scale="   89.198">  5  6 -1 -1</clus>
<clus scale="  170.192">  2  7  1 -1</clus>
<clus scale="   67.284">  1  5  2 -1</clus>
</clustering>
</event>
<event>
 9    1  0.9000149E-006  0.1013289E+03  0.7546771E-02  0.1278144E+00
         -1   -1    0    0    0  501 -0.00000000000E+00  0.00000000000E+00  0.16697152764E+03  0.16697152764E+03  0.00000000000E+00 0.  1.
          1   -1    0    0  502    0  0.00000000000E+00 -0.00000000000E+00 -0.13551978370E+03  0.13551978370E+03  0.00000000000E+00 0. -1.
         23    2    1    2    0    0  0.38941077244E+02 -0.20441135831E+02  0.10612245104E+03  0.14697794724E+03  0.91685848577E+02 0.  0.
         23    2    1    2    0    0 -0.32363510331E+02 -0.14496025180E+02 -0.64300264028E+02  0.11848073396E+03  0.92981873604E+02 0.  0.
        -11    1    3    3    0    0  0.30830085622E+02  0.26511586975E+02  0.13545078616E+02  0.42858226493E+02  0.00000000000E+00 0.  1.
         11    1    3    3    0    0  0.81109916219E+01 -0.46952722805E+02  0.92577372419E+02  0.10411972074E+03  0.00000000000E+00 0. -1.
        -13    1    4    4    0    0 -0.32883966458E+01  0.37236353818E+02 -0.11667482753E+02  0.39159797649E+02  0.00000000000E+00 0.  1.
         13    1    4    4    0    0 -0.29075113685E+02 -0.51732378998E+02 -0.52632781275E+02  0.79320936311E+02  0.00000000000E+00 0. -1.
         21    1    1    2  502  501 -0.65775669131E+01  0.34937161011E+02 -0.10370443059E+02  0.37032630142E+02  0.00000000000E+00 0. -1.
<scales pt_clust_5="13000.00000" pt_clust_6="13000.00000" pt_clust_7="13000.00000" pt_clust_8="13000.00000" pt_clust_9="35.55094"></scales>
<clustering>
<clus scale="   35.551">  2  9  1 -1</clus>
<clus scale="   91.686">  5  6 -1 -1</clus>
<clus scale="   92.982">  7  8 -1 -1</clus>
<clus scale="  100.141">  1  5  2 -1</clus>
<clus scale="   35.551">  2  5  1 -1</clus>
</clustering>
</event>
<event>
 9    1  0.9000149E-006  0.1672562E+03  0.7546771E-02  0.1181103E+00
         -1   -1    0    0    0  501 -0.00000000000E+00  0.00000000000E+00  0.39368591665E+03  0.39368591665E+03  0.00000000000E+00 0.  1.
          1   -1    0    0  502    0  0.00000000000E+00 -0.00000000000E+00 -0.34533287241E+03  0.34533287241E+03  0.00000000000E+00 0. -1.
         23    2    1    2    0    0 -0.11720744720E+03  0.80683527817E+01  0.19926026073E+03  0.24875496651E+03  0.91496982796E+02 0.  0.
         23    2    1    2    0    0  0.20356586462E+03 -0.20012796638E+02  0.83574465535E+02  0.24009966604E+03  0.93933939939E+02 0.  0.
        -11    1    3    3    0    0 -0.84357161517E+02 -0.34709985938E+02  0.97073296636E+02  0.13320712722E+03  0.00000000000E+00 0. -1.
         11    1    3    3    0    0 -0.32850285684E+02  0.42778338719E+02  0.10218696410E+03  0.11554783929E+03  0.00000000000E+00 0.  1.
        -13    1    4    4    0    0  0.12537393429E+03 -0.13326603772E+02  0.98773943835E+02  0.16016402139E+03  0.00000000000E+00 0.  1.
         13    1    4    4    0    0  0.78191930337E+02 -0.66861928656E+01 -0.15199478300E+02  0.79935644649E+02  0.00000000000E+00 0. -1.
         21    1    1    2  502  501 -0.86358417422E+02  0.11944443856E+02 -0.23448168202E+03  0.25016415651E+03  0.00000000000E+00 0. -1.
<scales pt_clust_5="13000.00000" pt_clust_6="13000.00000" pt_clust_7="13000.00000" pt_clust_8="13000.00000" pt_clust_9="87.18054"></scales>
<clustering>
<clus scale="   87.181">  2  9  1 -1</clus>
<clus scale="   91.497">  5  6 -1 -1</clus>
<clus scale="   93.934">  7  8 -1 -1</clus>
<clus scale="  165.900">  1  5  2 -1</clus>
<clus scale="   87.181">  2  5  1 -1</clus>
</clustering>
</event>
<event>
 9    1  0.9000149E-006  0.3898544E+03  0.7546771E-02  0.1047440E+00
          2   -1    0    0  502    0  0.00000000000E+00  0.00000000000E+00  0.19581743999E+04  0.19581743999E+04  0.00000000000E+00 0. -1.
         -2   -1    0    0    0  501 -0.00000000000E+00 -0.00000000000E+00 -0.15549055067E+03  0.15549055067E+03  0.00000000000E+00 0.  1.
         23    2    1    2    0    0 -0.19589584585E+03  0.34299456826E+03  0.36855201194E+03  0.54758363529E+03  0.89424805581E+02 0.  0.
         23    2    1    2    0    0  0.36649867739E+02 -0.37321323890E+03  0.58193311779E+03  0.69860502908E+03  0.93656278924E+02 0.  0.
        -11    1    3    3    0    0 -0.17116408763E+03  0.28049037513E+03  0.25623052133E+03  0.41668462354E+03  0.00000000000E+00 0.  1.
         11    1    3    3    0    0 -0.24731758222E+02  0.62504193132E+02  0.11232149061E+03  0.13089901175E+03  0.00000000000E+00 0. -1.
        -13    1    4    4    0    0  0.35002710786E+02 -0.25371477572E+03  0.46794981612E+03  0.53345422258E+03  0.00000000000E+00 0.  1.
         13    1    4    4    0    0  0.16471569527E+01 -0.11949846319E+03  0.11398330167E+03  0.16515080651E+03  0.00000000000E+00 0. -1.
         21    1    1    2  502  501  0.15924597811E+03  0.30218670644E+02  0.85219871951E+03  0.86747628621E+03  0.00000000000E+00 0. -1.
<scales pt_clust_5="13000.00000" pt_clust_6="13000.00000" pt_clust_7="13000.00000" pt_clust_8="13000.00000" pt_clust_9="162.08778"></scales>
<clustering>
<clus scale="   89.425">  5  6 -1 -1</clus>
<clus scale="   93.656">  7  8 -1 -1</clus>
<clus scale="  162.088">  1  9  2 -1</clus>
<clus scale="  388.860">  2  5  1 -1</clus>
<clus scale="  162.088">  1  5  2 -1</clus>
</clustering>
</event>
<event>
 9    1  0.9000149E-006  0.1069318E+03  0.7546771E-02  0.1268201E+00
         -1   -1    0    0    0  501 -0.00000000000E+00  0.00000000000E+00  0.17784398786E+03  0.17784398786E+03  0.00000000000E+00 0.  1.
          1   -1    0    0  502    0  0.00000000000E+00 -0.00000000000E+00 -0.78700862135E+02  0.78700862135E+02  0.00000000000E+00 0. -1.
         23    2    1    2    0    0  0.39290996403E+02 -0.45870249337E+02  0.73306788219E+02  0.13147379317E+03  0.90904405392E+02 0.  0.
         23    2    1    2    0    0 -0.45500317400E+02  0.26438737266E+02  0.26632690888E+02  0.10465602542E+03  0.86454020850E+02 0.  0.
        -11    1    3    3    0    0  0.55558510062E+02 -0.64013330924E+02  0.56176062944E+02  0.10168679671E+03  0.00000000000E+00 0. -1.
         11    1    3    3    0    0 -0.16267513660E+02  0.18143081587E+02  0.17130725274E+02  0.29786996467E+02  0.00000000000E+00 0.  1.
        -11    1    4    4    0    0 -0.64660598158E+02  0.16228491626E+02  0.41330113953E+02  0.78438097975E+02  0.00000000000E+00 0.  1.
         11    1    4    4    0    0  0.19160280758E+02  0.10210245640E+02 -0.14697423065E+02  0.26217927445E+02  0.00000000000E+00 0. -1.
         21    1    1    2  502  501  0.62093209968E+01  0.19431512071E+02 -0.79635337637E+00  0.20415031406E+02  0.00000000000E+00 0. -1.
<scales pt_clust_5="13000.00000" pt_clust_6="13000.00000" pt_clust_7="13000.00000" pt_clust_8="13000.00000" pt_clust_9="20.39949"></scales>
<clustering>
<clus scale="   20.399">  2  9  1 -1</clus>
<clus scale="   86.454">  7  8 -1 -1</clus>
<clus scale="   90.904">  5  6 -1 -1</clus>
<clus scale="  103.175">  2  7  1 -1</clus>
<clus scale="   20.399">  2  5  1 -1</clus>
</clustering>
</event>
<event>
 9    1  0.9000149E-006  0.1477307E+03  0.7546771E-02  0.1203358E+00
         -1   -1    0    0    0  501 -0.00000000000E+00  0.00000000000E+00  0.34002123917E+03  0.34002123917E+03  0.00000000000E+00 0.  1.
          1   -1    0    0  502    0  0.00000000000E+00 -0.00000000000E+00 -0.11199166782E+03  0.11199166782E+03  0.00000000000E+00 0. -1.
         23    2    1    2    0    0 -0.61737470919E+02 -0.10881259811E+03  0.16191312788E+03  0.22420410197E+03  0.91651085844E+02 0.  0.
         23    2    1    2    0    0  0.24821060082E+02  0.11080552163E+03 -0.65364405407E+01  0.14629049611E+03  0.92001280150E+02 0.  0.
        -11    1    3    3    0    0  0.16682236461E+02 -0.52489412653E+02  0.37103249688E+02  0.66408482827E+02  0.00000000000E+00 0. -1.
         11    1    3    3    0    0 -0.78419707380E+02 -0.56323185452E+02  0.12480987819E+03  0.15779561914E+03  0.00000000000E+00 0.  1.
        -13    1    4    4    0    0  0.20007380672E+02  0.84960841404E+02  0.37503479478E+02  0.95000793820E+02  0.00000000000E+00 0.  1.
         13    1    4    4    0    0  0.48136794103E+01  0.25844680224E+02 -0.44039920019E+02  0.51289702287E+02  0.00000000000E+00 0. -1.
         21    1    1    2  502  501  0.36916410837E+02 -0.19929235223E+01  0.72652884014E+02  0.81518308918E+02  0.00000000000E+00 0.  1.
<scales pt_clust_5="13000.00000" pt_clust_6="13000.00000" pt_clust_7="13000.00000" pt_clust_8="13000.00000" pt_clust_9="36.97017"></scales>
<clustering>
<clus scale="   36.970">  1  9  2 -1</clus>
<clus scale="   91.651">  5  6 -1 -1</clus>
<clus scale="   92.001">  7  8 -1 -1</clus>
<clus scale="  147.513">  1  5  2 -1</clus>
<clus scale="  147.731">  2  5  1 -1</clus>
</clustering>
</event>
<event>
 9    1  0.9000149E-006  0.1174356E+03  0.7546771E-02  0.1248077E+00
         -1   -1    0    0    0  501 -0.00000000000E+00  0.00000000000E+00  0.56554650981E+03  0.56554650981E+03  0.00000000000E+00 0.  1.
          1   -1    0    0  502    0  0.00000000000E+00 -0.00000000000E+00 -0.90124448623E+02  0.90124448623E+02  0.00000000000E+00 0. -1.
         23    2    1    2    0    0 -0.64965228448E+02  0.24581205612E+02  0.48016537605E+03  0.49419144179E+03  0.94030187724E+02 0.  0.
         23    2    1    2    0    0  0.84563635894E+02  0.51720822498E+01  0.26065927806E+01  0.12510126964E+03  0.92009642909E+02 0.  0.
        -13    1    3    3    0    0 -0.15594057756E+02  0.56070482432E+02  0.22698358561E+03  0.23432588797E+03  0.00000000000E+00 0. -1.
         13    1    3    3    0    0 -0.49371170691E+02 -0.31489276820E+02  0.25318179044E+03  0.25986555382E+03  0.00000000000E+00 0.  1.
        -13    1    4    4    0    0  0.93611613478E+02  0.28884698262E+02 -0.63872938898E+01  0.98174627551E+02  0.00000000000E+00 0. -1.
         13    1    4    4    0    0 -0.90479775841E+01 -0.23712616013E+02  0.89938866703E+01  0.26926642085E+02  0.00000000000E+00 0.  1.
         21    1    1    2  502  501 -0.19598407446E+02 -0.29753287862E+02 -0.73499076434E+01  0.36378247008E+02  0.00000000000E+00 0.  1.
<scales pt_clust_5="13000.00000" pt_clust_6="13000.00000" pt_clust_7="13000.00000" pt_clust_8="13000.00000" pt_clust_9="35.62802"></scales>
<clustering>
<clus scale="   35.628">  2  9  1 -1</clus>
<clus scale="   92.010">  7  8 -1 -1</clus>
<clus scale="   94.030">  5  6 -1 -1</clus>
<clus scale="  115.824">  2  7  1 -1</clus>
<clus scale="   35.628">  2  5  1 -1</clus>
</clustering>
</event>
<event>
 9    1  0.9000149E-006  0.1072907E+03  0.7546771E-02  0.1265813E+00
          1   -1    0    0  502    0  0.00000000000E+00  0.00000000000E+00  0.43302778924E+02  0.43302778924E+02  0.00000000000E+00 0. -1.
         -1   -1    0    0    0  501 -0.00000000000E+00 -0.00000000000E+00 -0.41170695497E+03  0.41170695497E+03  0.00000000000E+00 0.  1.
         23    2    1    2    0    0 -0.35551021005E+02  0.38981475383E+02 -0.22780888872E+03  0.25056145662E+03  0.90004017940E+02 0.  0.
         23    2    1    2    0    0  0.65218142713E+02 -0.29448297761E+02 -0.12340768412E+03  0.16886129524E+03  0.90355255254E+02 0.  0.
        -11    1    3    3    0    0  0.16376284900E+02  0.35588893480E+02 -0.16197078551E+03  0.16664119360E+03  0.00000000000E+00 0.  1.
         11    1    3    3    0    0 -0.51927305905E+02  0.33925819028E+01 -0.65838103209E+02  0.83920263016E+02  0.00000000000E+00 0. -1.
        -11    1    4    4    0    0  0.11600596278E+02  0.29926983672E+02 -0.18900571162E+02  0.37248218426E+02  0.00000000000E+00 0.  1.
         11    1    4    4    0    0  0.53617546435E+02 -0.59375281432E+02 -0.10450711296E+03  0.13161307682E+03  0.00000000000E+00 0. -1.
         21    1    1    2  502  501 -0.29667121708E+02 -0.95331776220E+01 -0.17187603207E+02  0.35586982030E+02  0.00000000000E+00 0. -1.
<scales pt_clust_5="13000.00000" pt_clust_6="13000.00000" pt_clust_7="13000.00000" pt_clust_8="13000.00000" pt_clust_9="31.16119"></scales>
<clustering>
<clus scale="   31.161">  1  9  2 -1</clus>
<clus scale="   90.004">  5  6 -1 -1</clus>
<clus scale="   90.355">  7  8 -1 -1</clus>
<clus scale="  106.995">  2  5  1 -1</clus>
<clus scale="   31.161">  1  5  2 -1</clus>
</clustering>
</event>
<event>
 9    1  0.9000149E-006  0.9483437E+02  0.7546771E-02  0.1292500E+00
          1   -1    0    0  502    0  0.00000000000E+00  0.00000000000E+00  0.18085299392E+03  0.18085299392E+03  0.00000000000E+00 0. -1.
         -1   -1    0    0    0  501 -0.00000000000E+00 -0.00000000000E+00 -0.11307309261E+03  0.11307309261E+03  0.00000000000E+00 0.  1.
         23    2    1    2    0    0 -0.15719806518E+02  0.41273246595E+02 -0.39138545538E+02  0.10664048648E+03  0.88824402095E+02 0.  0.
         23    2    1    2    0    0  0.87280875809E+01  0.53036484554E+01  0.27945397455E+02  0.95334342223E+02  0.90572530981E+02 0.  0.
        -13    1    3    3    0    0 -0.43511884621E+02  0.53127179991E+02 -0.23233096222E+02  0.72495228237E+02  0.00000000000E+00 0. -1.
         13    1    3    3    0    0  0.27792078103E+02 -0.11853933396E+02 -0.15905449315E+02  0.34145258239E+02  0.00000000000E+00 0.  1.
        -13    1    4    4    0    0 -0.25740726671E+02  0.35949278318E+02  0.20021148568E+02  0.48536398827E+02  0.00000000000E+00 0.  1.
         13    1    4    4    0    0  0.34468814252E+02 -0.30645629862E+02  0.79242488875E+01  0.46797943395E+02  0.00000000000E+00 0. -1.
         21    1    1    2  502  501  0.69917189372E+01 -0.46576895050E+02  0.78973049398E+02  0.91951257835E+02  0.00000000000E+00 0. -1.
<scales pt_clust_5="13000.00000" pt_clust_6="13000.00000" pt_clust_7="13000.00000" pt_clust_8="13000.00000" pt_clust_9="47.09874"></scales>
<clustering>
<clus scale="   47.099">  1  9  2 -1</clus>
<clus scale="   88.824">  5  6 -1 -1</clus>
<clus scale="   90.573">  7  8 -1 -1</clus>
<clus scale="   93.166">  2  5  1 -1</clus>
<clus scale="   47.099">  1  5  2 -1</clus>
</clustering>
</event>
<event>
 9    1  0.9000149E-006  0.1187217E+03  0.7546771E-02  0.1246113E+00
          3   -1    0    0  502    0  0.00000000000E+00  0.00000000000E+00  0.23011830633E+03  0.23011830633E+03  0.00000000000E+00 0. -1.
         -3   -1    0    0    0  501 -0.00000000000E+00 -0.00000000000E+00 -0.97047842443E+02  0.97047842443E+02  0.00000000000E+00 0.  1.
         23    2    1    2    0    0 -0.82337373762E+02  0.21006666917E+02 -0.57441782648E+01  0.12608915062E+03  0.92977175414E+02 0.  0.
         23    2    1    2    0    0  0.51394922397E+02 -0.20608136676E+02  0.73804791375E+02  0.12907786745E+03  0.90265249631E+02 0.  0.
        -11    1    3    3    0    0 -0.43268357026E+02  0.44221022761E+02 -0.35918201098E+02  0.71538568226E+02  0.00000000000E+00 0.  1.
         11    1    3    3    0    0 -0.39069016737E+02 -0.23214355844E+02  0.30174022833E+02  0.54550582398E+02  0.00000000000E+00 0. -1.
        -13    1    4    4    0    0  0.10061573711E+02  0.26021128138E+02  0.58653775828E+02  0.64950748987E+02  0.00000000000E+00 0. -1.
         13    1    4    4    0    0  0.41333348686E+02 -0.46629264814E+02  0.15151015546E+02  0.64127118466E+02  0.00000000000E+00 0.  1.
         21    1    1    2  502  501  0.30942451365E+02 -0.39853024090E+00  0.65009850781E+02  0.71999130699E+02  0.00000000000E+00 0. -1.
<scales pt_clust_5="13000.00000" pt_clust_6="13000.00000" pt_clust_7="13000.00000" pt_clust_8="13000.00000" pt_clust_9="30.94502"></scales>
<clustering>
<clus scale="   30.945">  1  9  2 -1</clus>
<clus scale="   90.265">  7  8 -1 -1</clus>
<clus scale="   92.977">  5  6 -1 -1</clus>
<clus scale="  116.610">  1  7  2 -1</clus>
<clus scale="   30.945">  1  5  2 -1</clus>
</clustering>
</event>
<event>
 9    1  0.9000149E-006  0.1019037E+03  0.7546771E-02  0.1277257E+00
          2   -1    0    0  502    0  0.00000000000E+00  0.00000000000E+00  0.65258720140E+03  0.65258720140E+03  0.00000000000E+00 0. -1.
         -2   -1    0    0    0  501 -0.00000000000E+00 -0.00000000000E+00 -0.28191479701E+02  0.28191479701E+02  0.00000000000E+00 0.  1.
         23    2    1    2    0    0  0.31419601042E+02 -0.19265364653E+02  0.22095822640E+03  0.24216490996E+03  0.91994348740E+02 0.  0.
         23    2    1    2    0    0  0.12447170133E+02  0.60079610975E+02  0.26504761894E+03  0.28780974535E+03  0.93913351075E+02 0.  0.
        -13    1    3    3    0    0  0.31291768386E+02  0.25189011606E+02  0.43446630427E+02  0.59171536822E+02  0.00000000000E+00 0.  1.
         13    1    3    3    0    0  0.12783265635E+00 -0.44454376259E+02  0.17751159597E+03  0.18299337314E+03  0.00000000000E+00 0. -1.
        -13    1    4    4    0    0 -0.38882838012E+02  0.20850134599E+02  0.74227956066E+02  0.86350406290E+02  0.00000000000E+00 0. -1.
         13    1    4    4    0    0  0.51330008145E+02  0.39229476376E+02  0.19081966288E+03  0.20145933906E+03  0.00000000000E+00 0.  1.
         21    1    1    2  502  501 -0.43866771175E+02 -0.40814246322E+02  0.13838987636E+03  0.15080402579E+03  0.00000000000E+00 0.  1.
<scales pt_clust_5="13000.00000" pt_clust_6="13000.00000" pt_clust_7="13000.00000" pt_clust_8="13000.00000" pt_clust_9="59.91741"></scales>
<clustering>
<clus scale="   59.917">  1  9  2 -1</clus>
<clus scale="   91.994">  5  6 -1 -1</clus>
<clus scale="   93.913">  7  8 -1 -1</clus>
<clus scale="  100.138">  2  5  1 -1</clus>
<clus scale="   59.917">  1  5  2 -1</clus>
</clustering>
</event>
<event>
 9    1  0.1189262E-005  0.2423164E+03  0.7546771E-02  0.1118454E+00
         -3   -1    0    0    0  501 -0.00000000000E+00  0.00000000000E+00  0.21922268649E+03  0.21922268649E+03  0.00000000000E+00 0.  1.
          3   -1    0    0  502    0  0.00000000000E+00 -0.00000000000E+00 -0.10124299071E+04  0.10124299071E+04  0.00000000000E+00 0. -1.
         23    2    1    2    0    0 -0.64119118776E+02  0.21242751176E+03  0.12169579674E+03  0.26813330147E+03  0.88593968554E+02 0.  0.
         23    2    1    2    0    0  0.56076372245E+02 -0.24557499601E+03 -0.81134750812E+03  0.85449092435E+03  0.91751417892E+02 0.  0.
        -11    1    4    4    0    0 -0.17494943144E+02 -0.11454148097E+03 -0.30309257310E+03  0.32448564185E+03  0.00000000000E+00 0.  1.
         11    1    4    4    0    0  0.73571315389E+02 -0.13103351504E+03 -0.50825493502E+03  0.53000528250E+03  0.00000000000E+00 0. -1.
        -13    1    3    3    0    0 -0.81843471743E+02  0.19471693611E+03  0.12021736534E+03  0.24303344215E+03  0.00000000000E+00 0.  1.
         13    1    3    3    0    0  0.17724352968E+02  0.17710575652E+02  0.14784313986E+01  0.25099859311E+02  0.00000000000E+00 0. -1.
         21    1    1    2  502  501  0.80427465305E+01  0.33147484249E+02 -0.10355550920E+03  0.10902836773E+03  0.00000000000E+00 0.  1.
<scales pt_clust_5="13000.00000" pt_clust_6="13000.00000" pt_clust_7="13000.00000" pt_clust_8="13000.00000" pt_clust_9="34.10926"></scales>
<clustering>
<clus scale="   34.109">  2  9  1 -1</clus>
<clus scale="   88.594">  7  8 -1 -1</clus>
<clus scale="   91.751">  5  6 -1 -1</clus>
<clus scale="  241.139">  1  7  2 -1</clus>
<clus scale="   34.109">  2  5  1 -1</clus>
</clustering>
</event>
<event>
 9    1  0.9000149E-006  0.1124860E+03  0.7546771E-02  0.1260541E+00
         -1   -1    0    0    0  501 -0.00000000000E+00  0.00000000000E+00  0.52847232674E+02  0.52847232674E+02  0.00000000000E+00 0.  1.
          1   -1    0    0  502    0  0.00000000000E+00 -0.00000000000E+00 -0.46186168548E+03  0.46186168548E+03  0.00000000000E+00 0. -1.
         23    2    1    2    0    0 -0.19321133227E+02  0.34761764163E+02 -0.67392546388E+02  0.12683212418E+03  0.99814557955E+02 0.  0.
         23    2    1    2    0    0  0.10912922653E+02 -0.72667004402E+02 -0.13465327201E+03  0.17729778060E+03  0.88901146974E+02 0.  0.
        -13    1    3    3    0    0 -0.93668583207E+01  0.70100998809E+02 -0.43650699797E+02  0.83109997362E+02  0.00000000000E+00 0. -1.
         13    1    3    3    0    0 -0.99542749067E+01 -0.35339234647E+02 -0.23741846591E+02  0.43722126822E+02  0.00000000000E+00 0.  1.
        -13    1    4    4    0    0 -0.11734307032E+02 -0.39133936634E+02 -0.46220261919E+01  0.41115958996E+02  0.00000000000E+00 0.  1.
         13    1    4    4    0    0  0.22647229686E+02 -0.33533067767E+02 -0.13003124582E+03  0.13618182161E+03  0.00000000000E+00 0. -1.
         21    1    1    2  502  501  0.84082105744E+01  0.37905240239E+02 -0.20696863441E+03  0.21057901337E+03  0.00000000000E+00 0. -1.
<scales pt_clust_5="13000.00000" pt_clust_6="13000.00000" pt_clust_7="13000.00000" pt_clust_8="13000.00000" pt_clust_9="38.82660"></scales>
<clustering>
<clus scale="   38.827">  2  9  1 -1</clus>
<clus scale="   88.901">  7  8 -1 -1</clus>
<clus scale="   99.815">  5  6 -1 -1</clus>
<clus scale="  102.925">  2  7  1 -1</clus>
<clus scale="   38.827">  2  5  1 -1</clus>
</clustering>
</event>
<event>
 9    1  0.9000149E-006  0.9777083E+02  0.7546771E-02  0.1285925E+00
         -1   -1    0    0    0  501 -0.00000000000E+00  0.00000000000E+00  0.99007790742E+02  0.99007790742E+02  0.00000000000E+00 0.  1.
          1   -1    0    0  502    0  0.00000000000E+00 -0.00000000000E+00 -0.39370387870E+03  0.39370387870E+03  0.00000000000E+00 0. -1.
         23    2    1    2    0    0  0.36907339543E+02  0.14843400086E+02  0.93057093147E+01  0.10158000566E+03  0.93002274625E+02 0.  0.
         23    2    1    2    0    0 -0.20702291577E+02  0.30090409784E+02 -0.16554754213E+02  0.99742828355E+02  0.91326635127E+02 0.  0.
        -11    1    4    4    0    0 -0.39414985391E+02 -0.62437691881E+01  0.20243938074E+02  0.44747544690E+02  0.00000000000E+00 0.  1.
         11    1    4    4    0    0  0.18712693814E+02  0.36334178972E+02 -0.36798692288E+02  0.54995283665E+02  0.00000000000E+00 0. -1.
        -11    1    3    3    0    0  0.45149842110E+02 -0.29812715005E+02 -0.40228184974E+01  0.54253933380E+02  0.00000000000E+00 0. -1.
         11    1    3    3    0    0 -0.82425025669E+01  0.44656115091E+02  0.13328527812E+02  0.47326072278E+02  0.00000000000E+00 0.  1.
         21    1    1    2  502  501 -0.16205047966E+02 -0.44933809870E+02 -0.28744704306E+03  0.29138883543E+03  0.00000000000E+00 0. -1.
<scales pt_clust_5="13000.00000" pt_clust_6="13000.00000" pt_clust_7="13000.00000" pt_clust_8="13000.00000" pt_clust_9="47.76663"></scales>
<clustering>
<clus scale="   47.767">  2  9  1 -1</clus>
<clus scale="   91.327">  5  6 -1 -1</clus>
<clus scale="   93.002">  7  8 -1 -1</clus>
<clus scale="   96.178">  2  5  1 -1</clus>
<clus scale="   47.767">  2  5  1 -1</clus>
</clustering>
</event>
<event>
 9    1  0.9000149E-006  0.1064340E+03  0.7546771E-02  0.1268810E+00
         -1   -1    0    0    0  501 -0.00000000000E+00  0.00000000000E+00  0.15479695491E+03  0.15479695491E+03  0.00000000000E+00 0.  1.
          1   -1    0    0  502    0  0.00000000000E+00 -0.00000000000E+00 -0.61278663559E+03  0.61278663559E+03  0.00000000000E+00 0. -1.
         23    2    1    2    0    0  0.45752880461E+02  0.76672223198E+01  0.92999262686E+02  0.13766815111E+03  0.90285904774E+02 0.  0.
         23    2    1    2    0    0 -0.53634064616E+02 -0.67530156072E+02 -0.70377788939E+02  0.14552637503E+03  0.93744108017E+02 0.  0.
        -11    1    4    4    0    0 -0.40574767688E+02 -0.24258148928E+01  0.94104304668E+01  0.41722326785E+02  0.00000000000E+00 0.  1.
         11    1    4    4    0    0 -0.13059296928E+02 -0.65104341179E+02 -0.79788219406E+02  0.10380404825E+03  0.00000000000E+00 0. -1.
        -13    1    3    3    0    0 -0.19747645810E+02 -0.20648868948E+02  0.16246473127E+02  0.32867813936E+02  0.00000000000E+00 0.  1.
         13    1    3    3    0    0  0.65500526270E+02  0.28316091268E+02  0.76752789560E+02  0.10480033717E+03  0.00000000000E+00 0. -1.
         21    1    1    2  502  501  0.78811841549E+01  0.59862933752E+02 -0.48061115443E+03  0.48438906435E+03  0.00000000000E+00 0. -1.
<scales pt_clust_5="13000.00000" pt_clust_6="13000.00000" pt_clust_7="13000.00000" pt_clust_8="13000.00000" pt_clust_9="60.37950"></scales>
<clustering>
<clus scale="   60.379">  2  9  1 -1</clus>
<clus scale="   90.286">  7  8 -1 -1</clus>
<clus scale="   93.744">  5  6 -1 -1</clus>
<clus scale="  103.401">  1  7  2 -1</clus>
<clus scale="   60.379">  2  5  1 -1</clus>
</clustering>
</event>
<event>
 9    1  0.9000149E-006  0.1201391E+03  0.7546771E-02  0.1246284E+00
          1   -1    0    0  502    0  0.00000000000E+00  0.00000000000E+00  0.10541772128E+03  0.10541772128E+03  0.00000000000E+00 0. -1.
         -1   -1    0    0    0  501 -0.00000000000E+00 -0.00000000000E+00 -0.23078213612E+03  0.23078213612E+03  0.00000000000E+00 0.  1.
         23    2    1    2    0    0  0.69353116687E+02  0.10383407793E+02 -0.11329647146E+03  0.16281267559E+03  0.93563918995E+02 0.  0.
         23    2    1    2    0    0 -0.85554432731E+02  0.16774440144E+02 -0.44236423206E+02  0.12827795391E+03  0.83050764714E+02 0.  0.
        -11    1    3    3    0    0  0.11122282233E+02  0.34747810950E+02 -0.87169388149E+02  0.94496654745E+02  0.00000000000E+00 0.  1.
         11    1    3    3    0    0  0.58230834454E+02 -0.24364403156E+02 -0.26127083310E+02  0.68316020849E+02  0.00000000000E+00 0. -1.
        -13    1    4    4    0    0 -0.26904839094E+00  0.27946348068E+02 -0.30162907601E+02  0.41120210995E+02  0.00000000000E+00 0.  1.
         13    1    4    4    0    0 -0.85285384340E+02 -0.11171907924E+02 -0.14073515606E+02  0.87157742916E+02  0.00000000000E+00 0. -1.
         21    1    1    2  502  501  0.16201316045E+02 -0.27157847938E+02  0.32168479828E+02  0.45109227888E+02  0.00000000000E+00 0. -1.
<scales pt_clust_5="13000.00000" pt_clust_6="13000.00000" pt_clust_7="13000.00000" pt_clust_8="13000.00000" pt_clust_9="31.62327"></scales>
<clustering>
<clus scale="   31.623">  1  9  2 -1</clus>
<clus scale="   83.051">  7  8 -1 -1</clus>
<clus scale="   93.564">  5  6 -1 -1</clus>
<clus scale="  112.146">  1  7  2 -1</clus>
<clus scale="   31.623">  1  5  2 -1</clus>
</clustering>
</event>
<event>
 9    1  0.9000149E-006  0.1053884E+03  0.7546771E-02  0.1269760E+00
          1   -1    0    0  502    0  0.00000000000E+00  0.00000000000E+00  0.89952597223E+02  0.89952597223E+02  0.00000000000E+00 0. -1.
         -1   -1    0    0    0  501 -0.00000000000E+00 -0.00000000000E+00 -0.21967891515E+03  0.21967891515E+03  0.00000000000E+00 0.  1.
         23    2    1    2    0    0 -0.50731398778E+02 -0.23765179480E+02 -0.15279840843E+03  0.18651050946E+03  0.91106300236E+02 0.  0.
         23    2    1    2    0    0  0.28574524047E+02  0.20619214456E+02  0.18834371483E+02  0.10034420647E+03  0.92046568617E+02 0.  0.
        -11    1    4    4    0    0 -0.49673341646E+01  0.48828246865E+02  0.26614623293E+02  0.55831982534E+02  0.00000000000E+00 0. -1.
         11    1    4    4    0    0  0.33541858212E+02 -0.28209032409E+02 -0.77802518101E+01  0.44512223939E+02  0.00000000000E+00 0.  1.
        -13    1    3    3    0    0 -0.40879147082E+02 -0.56541697562E+02 -0.12162350016E+03  0.14021534873E+03  0.00000000000E+00 0.  1.
         13    1    3    3    0    0 -0.98522516954E+01  0.32776518082E+02 -0.31174908272E+02  0.46295160728E+02  0.00000000000E+00 0. -1.
         21    1    1    2  502  501  0.22156874730E+02  0.31459650237E+01  0.42377190169E+01  0.22776796443E+02  0.00000000000E+00 0.  1.
<scales pt_clust_5="13000.00000" pt_clust_6="13000.00000" pt_clust_7="13000.00000" pt_clust_8="13000.00000" pt_clust_9="22.37910"></scales>
<clustering>
<clus scale="   22.379">  1  9  2 -1</clus>
<clus scale="   91.106">  7  8 -1 -1</clus>
<clus scale="   92.047">  5  6 -1 -1</clus>
<clus scale="  104.568">  2  7  1 -1</clus>
<clus scale="   22.379">  1  5  2 -1</clus>
</clustering>
</event>
<event>
 9    1  0.9000149E-006  0.1391076E+03  0.7546771E-02  0.1214848E+00
          2   -1    0    0  502    0  0.00000000000E+00  0.00000000000E+00  0.63767802407E+03  0.63767802407E+03  0.00000000000E+00 0. -1.
         -2   -1    0    0    0  501 -0.00000000000E+00 -0.00000000000E+00 -0.42601374451E+02  0.42601374451E+02  0.00000000000E+00 0.  1.
         23    2    1    2    0    0  0.83951241131E+02 -0.77331573639E+02  0.19520279529E+03  0.24362383793E+03  0.90666752159E+02 0.  0.
         23    2    1    2    0    0 -0.59074391757E+02  0.76364460478E+02  0.22967754700E+03  0.26464807247E+03  0.89249717540E+02 0.  0.
        -11    1    4    4    0    0 -0.42218548258E+02  0.95319720558E+02  0.16500752808E+03  0.19518129845E+03  0.00000000000E+00 0. -1.
         11    1    4    4    0    0 -0.16855843500E+02 -0.18955260080E+02  0.64670018919E+02  0.69466774013E+02  0.00000000000E+00 0.  1.
        -13    1    3    3    0    0  0.66193777870E+02 -0.94644725588E+02  0.13016408116E+03  0.17401703461E+03  0.00000000000E+00 0.  1.
         13    1    3    3    0    0  0.17757463261E+02  0.17313151949E+02  0.65038714132E+02  0.69606803316E+02  0.00000000000E+00 0. -1.
         21    1    1    2  502  501 -0.24876849374E+02  0.96711316091E+00  0.17019630734E+03  0.17200748813E+03  0.00000000000E+00 0. -1.
<scales pt_clust_5="13000.00000" pt_clust_6="13000.00000" pt_clust_7="13000.00000" pt_clust_8="13000.00000" pt_clust_9="24.89564"></scales>
<clustering>
<clus scale="   24.896">  1  9  2 -1</clus>
<clus scale="   89.250">  5  6 -1 -1</clus>
<clus scale="   90.667">  7  8 -1 -1</clus>
<clus scale="  138.188">  1  5  2 -1</clus>
<clus scale="   24.896">  1  5  2 -1</clus>
</clustering>
</event>
<event>
 9    1  0.9000149E-006  0.9557433E+02  0.7546771E-02  0.1290431E+00
          1   -1    0    0  502    0  0.00000000000E+00  0.00000000000E+00  0.41864348755E+03  0.41864348755E+03  0.00000000000E+00 0. -1.
         -1   -1    0    0    0  501 -0.00000000000E+00 -0.00000000000E+00 -0.73015695347E+02  0.73015695347E+02  0.00000000000E+00 0.  1.
         23    2    1    2    0    0  0.13732233574E+02  0.16190875409E+02  0.10303545878E+01  0.93882199835E+02  0.91444448327E+02 0.  0.
         23    2    1    2    0    0  0.26930076413E+02 -0.79539045287E+02  0.21587407550E+03  0.24865918387E+03  0.90432762377E+02 0.  0.
        -11    1    4    4    0    0  0.76805962317E+01  0.19135275474E+02  0.21288289057E+02  0.29636828051E+02  0.00000000000E+00 0.  1.
         11    1    4    4    0    0  0.19249480181E+02 -0.98674320761E+02  0.19458578644E+03  0.21902235582E+03  0.00000000000E+00 0. -1.
        -13    1    3    3    0    0 -0.23671459461E+02  0.33034442616E+02  0.23667543291E+02  0.47029405667E+02  0.00000000000E+00 0. -1.
         13    1    3    3    0    0  0.37403693035E+02 -0.16843567207E+02 -0.22637188703E+02  0.46852794168E+02  0.00000000000E+00 0.  1.
         21    1    1    2  502  501 -0.40662309987E+02  0.63348169878E+02  0.12872336212E+03  0.14911779919E+03  0.00000000000E+00 0.  1.
<scales pt_clust_5="13000.00000" pt_clust_6="13000.00000" pt_clust_7="13000.00000" pt_clust_8="13000.00000" pt_clust_9="75.27559"></scales>
<clustering>
<clus scale="   75.276">  1  9  2 -1</clus>
<clus scale="   90.433">  5  6 -1 -1</clus>
<clus scale="   91.444">  7  8 -1 -1</clus>
<clus scale="   94.607">  1  5  2 -1</clus>
<clus scale="   75.276">  1  5  2 -1</clus>
</clustering>
</event>
<event>
 9    1  0.9000149E-006  0.1095496E+03  0.7546771E-02  0.1261641E+00
         -2   -1    0    0    0  501 -0.00000000000E+00  0.00000000000E+00  0.19018338044E+03  0.19018338044E+03  0.00000000000E+00 0.  1.
          2   -1    0    0  502    0  0.00000000000E+00 -0.00000000000E+00 -0.88647642405E+02  0.88647642405E+02  0.00000000000E+00 0. -1.
         23    2    1    2    0    0  0.67006684974E+02 -0.35792316404E+02  0.37605621134E+02  0.12528968499E+03  0.92262325353E+02 0.  0.
         23    2    1    2    0    0 -0.30168463591E+02  0.33470909434E+02  0.40842744024E+02  0.11000433898E+03  0.91664534474E+02 0.  0.
        -11    1    4    4    0    0  0.24703843659E+02 -0.14614876001E+02  0.68260033108E+01  0.29503708466E+02  0.00000000000E+00 0. -1.
         11    1    4    4    0    0 -0.54872307250E+02  0.48085785435E+02  0.34016740713E+02  0.80500630510E+02  0.00000000000E+00 0.  1.
        -13    1    3    3    0    0  0.32762181469E+02 -0.36135024117E+02  0.65118639497E+02  0.81360541495E+02  0.00000000000E+00 0.  1.
         13    1    3    3    0    0  0.34244503505E+02  0.34270771312E+00 -0.27513018362E+02  0.43929143496E+02  0.00000000000E+00 0. -1.
         21    1    1    2  502  501 -0.36838221383E+02  0.23214069702E+01  0.23087372877E+02  0.43536998878E+02  0.00000000000E+00 0. -1.
<scales pt_clust_5="13000.00000" pt_clust_6="13000.00000" pt_clust_7="13000.00000" pt_clust_8="13000.00000" pt_clust_9="36.91129"></scales>
<clustering>
<clus scale="   36.911">  1  9  2 -1</clus>
<clus scale="   91.665">  5  6 -1 -1</clus>
<clus scale="   92.262">  7  8 -1 -1</clus>
<clus scale="  109.047">  2  5  1 -1</clus>
<clus scale="  109.047">  2  5  1 -1</clus>
</clustering>
</event>
<event>
 9    1  0.9000149E-006  0.9163816E+02  0.7546771E-02  0.1299216E+00
         -3   -1    0    0    0  501 -0.00000000000E+00  0.00000000000E+00  0.22274526688E+03  0.22274526688E+03  0.00000000000E+00 0.  1.
          3   -1    0    0  502    0  0.00000000000E+00 -0.00000000000E+00 -0.55336691604E+02  0.55336691604E+02  0.00000000000E+00 0. -1.
         23    2    1    2    0    0 -0.83811810200E-02 -0.23884674259E+02  0.84346766651E+02  0.12568979362E+03  0.90072578740E+02 0.  0.
         23    2    1    2    0    0  0.96200045235E+01  0.59171293851E+01  0.30828201804E+02  0.96324655078E+02  0.90556635551E+02 0.  0.
        -11    1    3    3    0    0  0.44046455420E+02 -0.16111978880E+02  0.31727471916E+02  0.56624363773E+02  0.00000000000E+00 0. -1.
         11    1    3    3    0    0 -0.44054836601E+02 -0.77726953788E+01  0.52619294735E+02  0.69065429846E+02  0.00000000000E+00 0.  1.
        -11    1    4    4    0    0  0.20238312481E+01  0.28976233288E+02  0.54915881247E+02  0.62124648906E+02  0.00000000000E+00 0.  1.
         11    1    4    4    0    0  0.75961732754E+01 -0.23059103903E+02 -0.24087679443E+02  0.34200006172E+02  0.00000000000E+00 0. -1.
         21    1    1    2  502  501 -0.96116233425E+01  0.17967544874E+02  0.52233606818E+02  0.56067509783E+02  0.00000000000E+00 0.  1.
<scales pt_clust_5="13000.00000" pt_clust_6="13000.00000" pt_clust_7="13000.00000" pt_clust_8="13000.00000" pt_clust_9="20.37685"></scales>
<clustering>
<clus scale="   20.377">  1  9  2 -1</clus>
<clus scale="   90.073">  5  6 -1 -1</clus>
<clus scale="   90.557">  7  8 -1 -1</clus>
<clus scale="   91.160">  1  5  2 -1</clus>
<clus scale="   91.638">  2  5  1 -1</clus>
</clustering>
</event>
<event>
 9    1  0.9000149E-006  0.3853041E+03  0.7546771E-02  0.1049077E+00
         -1   -1    0    0    0  501 -0.00000000000E+00  0.00000000000E+00  0.42137977581E+03  0.42137977581E+03  0.00000000000E+00 0.  1.
          1   -1    0    0  502    0  0.00000000000E+00 -0.00000000000E+00 -0.58913166319E+03  0.58913166319E+03  0.00000000000E+00 0. -1.
         23    2    1    2    0    0 -0.37103989495E+03  0.11469042924E+03  0.17573649434E+03  0.43653735252E+03  0.94111882907E+02 0.  0.
         23    2    1    2    0    0  0.30130770006E+03 -0.16617613379E+03 -0.20486064521E+03  0.41047789048E+03  0.90129778986E+02 0.  0.
        -13    1    3    3    0    0 -0.29507528161E+03  0.11066800234E+03  0.10369495578E+03  0.33176719611E+03  0.00000000000E+00 0.  1.
         13    1    3    3    0    0 -0.75964613331E+02  0.40224269064E+01  0.72041538559E+02  0.10477015641E+03  0.00000000000E+00 0. -1.
        -13    1    4    4    0    0  0.10800426903E+03 -0.77004491635E+02 -0.12747543091E+03  0.18396901736E+03  0.00000000000E+00 0. -1.
         13    1    4    4    0    0  0.19330343103E+03 -0.89171642153E+02 -0.77385214302E+02  0.22650887312E+03  0.00000000000E+00 0.  1.
         21    1    1    2  502  501  0.69732194889E+02  0.51485704546E+02 -0.13862773651E+03  0.16349619600E+03  0.00000000000E+00 0. -1.
<scales pt_clust_5="13000.00000" pt_clust_6="13000.00000" pt_clust_7="13000.00000" pt_clust_8="13000.00000" pt_clust_9="86.67962"></scales>
<clustering>
<clus scale="   86.680">  2  9  1 -1</clus>
<clus scale="   90.130">  7  8 -1 -1</clus>
<clus scale="   94.112">  5  6 -1 -1</clus>
<clus scale="  384.351">  2  7  1 -1</clus>
<clus scale="   86.680">  2  5  1 -1</clus>
</clustering>
</event>
<event>
 9    1  0.9000149E-006  0.1073405E+03  0.7546771E-02  0.1271795E+00
          1   -1    0    0  502    0  0.00000000000E+00  0.00000000000E+00  0.41507508118E+03  0.41507508118E+03  0.00000000000E+00 0. -1.
         -1   -1    0    0    0  501 -0.00000000000E+00 -0.00000000000E+00 -0.40621595873E+02  0.40621595873E+02  0.00000000000E+00 0.  1.
         23    2    1    2    0    0  0.13620426000E+02  0.24960408126E+02  0.10492498270E+03  0.14212125826E+03  0.91545956088E+02 0.  0.
         23    2    1    2    0    0 -0.33544802891E+02  0.21604549176E+01  0.12947535584E+03  0.16953582033E+03  0.10415663799E+03 0.  0.
        -13    1    4    4    0    0 -0.11283700353E+02  0.38939554059E+02  0.88745885443E+01  0.41501434744E+02  0.00000000000E+00 0.  1.
         13    1    4    4    0    0 -0.22261102539E+02 -0.36779099142E+02  0.12060076729E+03  0.12803438558E+03  0.00000000000E+00 0. -1.
        -13    1    3    3    0    0  0.42147441638E+02  0.40110577397E+02  0.43239988809E+02  0.72491115925E+02  0.00000000000E+00 0.  1.
         13    1    3    3    0    0 -0.28527015638E+02 -0.15150169271E+02  0.61684993888E+02  0.69630142332E+02  0.00000000000E+00 0. -1.
         21    1    1    2  502  501  0.19924376892E+02 -0.27120863043E+02  0.14005314677E+03  0.14403959846E+03  0.00000000000E+00 0. -1.
<scales pt_clust_5="13000.00000" pt_clust_6="13000.00000" pt_clust_7="13000.00000" pt_clust_8="13000.00000" pt_clust_9="33.65296"></scales>
<clustering>
<clus scale="   33.653">  1  9  2 -1</clus>
<clus scale="   91.546">  7  8 -1 -1</clus>
<clus scale="   95.153">  2  7  1 -1</clus>
<clus scale="  104.157">  5  6 -1 -1</clus>
<clus scale="   33.653">  1  5  2 -1</clus>
</clustering>
</event>
<event>
 9    1  0.9000149E-006  0.2365973E+03  0.7546771E-02  0.1123229E+00
          1   -1    0    0  502    0  0.00000000000E+00  0.00000000000E+00  0.17200018406E+04  0.17200018406E+04  0.00000000000E+00 0. -1.
         -1   -1    0    0    0  501 -0.00000000000E+00 -0.00000000000E+00 -0.72340432037E+02  0.72340432037E+02  0.00000000000E+00 0.  1.
         23    2    1    2    0    0  0.18896446454E+03 -0.10363670506E+03  0.17180885276E+03  0.29046486795E+03  0.91670181269E+02 0.  0.
         23    2    1    2    0    0 -0.19026944264E+03  0.13667409186E+03  0.12969642736E+04  0.13199593204E+04  0.72759963076E+02 0.  0.
        -11    1    3    3    0    0  0.17342198923E+03 -0.12016010452E+03  0.16065698933E+03  0.26518730228E+03  0.00000000000E+00 0.  1.
         11    1    3    3    0    0  0.15542475305E+02  0.16523399464E+02  0.11151863432E+02  0.25277565675E+02  0.00000000000E+00 0. -1.
        -13    1    4    4    0    0 -0.84764210940E+02  0.20033599302E+02  0.40861954729E+03  0.41779929510E+03  0.00000000000E+00 0.  1.
         13    1    4    4    0    0 -0.10550523170E+03  0.11664049256E+03  0.88834472631E+03  0.90216002526E+03  0.00000000000E+00 0. -1.
         21    1    1    2  502  501  0.13049780963E+01 -0.33037386800E+02  0.17888828224E+03  0.18191808436E+03  0.00000000000E+00 0. -1.
<scales pt_clust_5="13000.00000" pt_clust_6="13000.00000" pt_clust_7="13000.00000" pt_clust_8="13000.00000" pt_clust_9="33.06315"></scales>
<clustering>
<clus scale="   33.063">  1  9  2 -1</clus>
<clus scale="   72.760">  7  8 -1 -1</clus>
<clus scale="   91.670">  5  6 -1 -1</clus>
<clus scale="  229.932">  1  7  2 -1</clus>
<clus scale="   33.063">  1  5  2 -1</clus>
</clustering>
</event>
<event>
 9    1  0.9000149E-006  0.1053071E+03  0.7546771E-02  0.1270681E+00
          2   -1    0    0  502    0  0.00000000000E+00  0.00000000000E+00  0.24253616017E+03  0.24253616017E+03  0.00000000000E+00 0. -1.
         -2   -1    0    0    0  501 -0.00000000000E+00 -0.00000000000E+00 -0.13995159395E+03  0.13995159395E+03  0.00000000000E+00 0.  1.
         23    2    1    2    0    0  0.59102038140E+02 -0.10340166955E+02 -0.58561629233E+02  0.12804867397E+03  0.96783410362E+02 0.  0.
         23    2    1    2    0    0 -0.13418203415E+02  0.20347776480E+01  0.92984932533E+01  0.95650803162E+02  0.94225398199E+02 0.  0.
        -11    1    3    3    0    0 -0.35231523469E+01 -0.30969900910E+02  0.10186689700E+02  0.32792011404E+02  0.00000000000E+00 0. -1.
         11    1    3    3    0    0  0.62625190486E+02  0.20629733955E+02 -0.68748318933E+02  0.95256662563E+02  0.00000000000E+00 0.  1.
        -11    1    4    4    0    0  0.40851469399E+02  0.23933081548E+01  0.45012359185E+01  0.41168332500E+02  0.00000000000E+00 0.  1.
         11    1    4    4    0    0 -0.54269672814E+02 -0.35853050681E+00  0.47972573348E+01  0.54482470662E+02  0.00000000000E+00 0. -1.
         21    1    1    2  502  501 -0.45683834725E+02  0.83053893069E+01  0.15184770220E+03  0.15878827699E+03  0.00000000000E+00 0. -1.
<scales pt_clust_5="13000.00000" pt_clust_6="13000.00000" pt_clust_7="13000.00000" pt_clust_8="13000.00000" pt_clust_9="46.43266"></scales>
<clustering>
<clus scale="   46.433">  1  9  2 -1</clus>
<clus scale="   94.225">  7  8 -1 -1</clus>
<clus scale="   96.783">  5  6 -1 -1</clus>
<clus scale="  102.961">  1  7  2 -1</clus>
<clus scale="   46.433">  1  5  2 -1</clus>
</clustering>
</event>
<event>
 9    1  0.9000149E-006  0.1181393E+03  0.7546771E-02  0.1246742E+00
         -1   -1    0    0    0  501 -0.00000000000E+00  0.00000000000E+00  0.20114780339E+03  0.20114780339E+03  0.00000000000E+00 0.  1.
          1   -1    0    0  502    0  0.00000000000E+00 -0.00000000000E+00 -0.91462826493E+02  0.91462826493E+02  0.00000000000E+00 0. -1.
         23    2    1    2    0    0 -0.62126275962E+01  0.67977877582E+02  0.80292815391E+02  0.13988974543E+03  0.91992478442E+02 0.  0.
         23    2    1    2    0    0  0.28036795537E+02 -0.80531059907E+02  0.28873445028E+02  0.12753863357E+03  0.90338882614E+02 0.  0.
        -13    1    3    3    0    0  0.42178108312E+02  0.24360231921E+02  0.42047186647E+02  0.64345781718E+02  0.00000000000E+00 0. -1.
         13    1    3    3    0    0 -0.48390735908E+02  0.43617645661E+02  0.38245628744E+02  0.75543963708E+02  0.00000000000E+00 0.  1.
        -13    1    4    4    0    0 -0.24645546329E+02 -0.51971453615E+02 -0.66068282072E+01  0.57897194437E+02  0.00000000000E+00 0. -1.
         13    1    4    4    0    0  0.52682341866E+02 -0.28559606292E+02  0.35480273236E+02  0.69641439136E+02  0.00000000000E+00 0.  1.
         21    1    1    2  502  501 -0.21824167941E+02  0.12553182325E+02  0.51871647658E+00  0.25182250884E+02  0.00000000000E+00 0. -1.
<scales pt_clust_5="13000.00000" pt_clust_6="13000.00000" pt_clust_7="13000.00000" pt_clust_8="13000.00000" pt_clust_9="25.17691"></scales>
<clustering>
<clus scale="   25.177">  2  9  1 -1</clus>
<clus scale="   90.339">  7  8 -1 -1</clus>
<clus scale="   91.992">  5  6 -1 -1</clus>
<clus scale="  116.856">  2  7  1 -1</clus>
<clus scale="   25.177">  2  5  1 -1</clus>
</clustering>
</event>
<event>
 9    1  0.9000149E-006  0.1020694E+03  0.7546771E-02  0.1276175E+00
         -2   -1    0    0    0  501 -0.00000000000E+00  0.00000000000E+00  0.22256936378E+03  0.22256936378E+03  0.00000000000E+00 0.  1.
          2   -1    0    0  502    0  0.00000000000E+00 -0.00000000000E+00 -0.20134613620E+03  0.20134613620E+03  0.00000000000E+00 0. -1.
         23    2    1    2    0    0 -0.39079772702E+02 -0.19190942194E+02  0.18360972303E+03  0.21009522664E+03  0.92368571322E+02 0.  0.
         23    2    1    2    0    0  0.51396216460E+02 -0.11146462889E+02 -0.13062970670E+03  0.16820726461E+03  0.91998635281E+02 0.  0.
        -11    1    4    4    0    0  0.53904959133E+02 -0.31820577640E+02 -0.37917702415E+02  0.73185011696E+02  0.00000000000E+00 0. -1.
         11    1    4    4    0    0 -0.25087426726E+01  0.20674114751E+02 -0.92712004280E+02  0.95022252911E+02  0.00000000000E+00 0.  1.
        -13    1    3    3    0    0  0.20259800440E+02 -0.41974873150E+00  0.11774788346E+03  0.11947886743E+03  0.00000000000E+00 0.  1.
         13    1    3    3    0    0 -0.59339573142E+02 -0.18771193463E+02  0.65861839570E+02  0.90616359209E+02  0.00000000000E+00 0. -1.
         21    1    1    2  502  501 -0.12316443758E+02  0.30337405083E+02 -0.31756788758E+02  0.45613008739E+02  0.00000000000E+00 0.  1.
<scales pt_clust_5="13000.00000" pt_clust_6="13000.00000" pt_clust_7="13000.00000" pt_clust_8="13000.00000" pt_clust_9="32.74222"></scales>
<clustering>
<clus scale="   32.742">  2  9  1 -1</clus>
<clus scale="   91.999">  5  6 -1 -1</clus>
<clus scale="   92.369">  7  8 -1 -1</clus>
<clus scale="  101.735">  2  5  1 -1</clus>
<clus scale="   32.742">  2  5  1 -1</clus>
</clustering>
</event>
<event>
 9    1  0.9000149E-006  0.3403474E+03  0.7546771E-02  0.1066724E+00
         -1   -1    0    0    0  501 -0.00000000000E+00  0.00000000000E+00  0.23909560638E+03  0.23909560638E+03  0.00000000000E+00 0.  1.
          1   -1    0    0  502    0  0.00000000000E+00 -0.00000000000E+00 -0.62299134687E+03  0.62299134687E+03  0.00000000000E+00 0. -1.
         23    2    1    2    0    0  0.12651319410E+03  0.30201448181E+03 -0.85392608842E+02  0.35125147677E+03  0.94166696782E+02 0.  0.
         23    2    1    2    0    0 -0.15122329221E+03 -0.28833697545E+03 -0.17103526728E+03  0.38027621953E+03  0.96696664718E+02 0.  0.
        -13    1    3    3    0    0 -0.80554612859E+01  0.84852486081E+02 -0.22040773198E+02  0.88037665427E+02  0.00000000000E+00 0. -1.
         13    1    3    3    0    0  0.13456865539E+03  0.21716199573E+03 -0.63351835644E+02  0.26321381134E+03  0.00000000000E+00 0.  1.
        -13    1    4    4    0    0 -0.13391362547E+03 -0.24798102747E+03 -0.10454526144E+03  0.30059467853E+03  0.00000000000E+00 0. -1.
         13    1    4    4    0    0 -0.17309666743E+02 -0.40355947979E+02 -0.66490005831E+02  0.79681540996E+02  0.00000000000E+00 0.  1.
         21    1    1    2  502  501  0.24710098111E+02 -0.13677506358E+02 -0.12746786438E+03  0.13055925696E+03  0.00000000000E+00 0.  1.
<scales pt_clust_5="13000.00000" pt_clust_6="13000.00000" pt_clust_7="13000.00000" pt_clust_8="13000.00000" pt_clust_9="28.24293"></scales>
<clustering>
<clus scale="   28.243">  2  9  1 -1</clus>
<clus scale="   94.167">  5  6 -1 -1</clus>
<clus scale="   96.697">  7  8 -1 -1</clus>
<clus scale="  339.637">  1  5  2 -1</clus>
<clus scale="   28.243">  2  5  1 -1</clus>
</clustering>
</event>
<event>
 9    1  0.9000149E-006  0.9419809E+02  0.7546771E-02  0.1293241E+00
         -2   -1    0    0    0  501 -0.00000000000E+00  0.00000000000E+00  0.76541786492E+02  0.76541786492E+02  0.00000000000E+00 0.  1.
          2   -1    0    0  502    0  0.00000000000E+00 -0.00000000000E+00 -0.16594240122E+03  0.16594240122E+03  0.00000000000E+00 0. -1.
         23    2    1    2    0    0 -0.17192738324E+02  0.48793791533E+01 -0.29798228002E+02  0.98276013479E+02  0.91928460454E+02 0.  0.
         23    2    1    2    0    0  0.17609004950E+02  0.22526598839E+02 -0.65605354662E+02  0.11614936935E+03  0.91482723663E+02 0.  0.
        -11    1    3    3    0    0  0.26649055182E+02 -0.21820645466E+02 -0.31837248810E+02  0.46903338074E+02  0.00000000000E+00 0. -1.
         11    1    3    3    0    0 -0.43841793506E+02  0.26700024619E+02  0.20390208085E+01  0.51372675406E+02  0.00000000000E+00 0.  1.
        -13    1    4    4    0    0  0.42095827506E+02  0.30464714611E+02 -0.73758755631E+01  0.52483912488E+02  0.00000000000E+00 0.  1.
         13    1    4    4    0    0 -0.24486822556E+02 -0.79381157718E+01 -0.58229479099E+02  0.63665456859E+02  0.00000000000E+00 0. -1.
         21    1    1    2  502  501 -0.41626662686E+00 -0.27405977992E+02  0.60029679358E+01  0.28058804886E+02  0.00000000000E+00 0. -1.
<scales pt_clust_5="13000.00000" pt_clust_6="13000.00000" pt_clust_7="13000.00000" pt_clust_8="13000.00000" pt_clust_9="27.40914"></scales>
<clustering>
<clus scale="   27.409">  1  9  2 -1</clus>
<clus scale="   91.483">  7  8 -1 -1</clus>
<clus scale="   91.928">  5  6 -1 -1</clus>
<clus scale="   93.763">  2  7  1 -1</clus>
<clus scale="   93.763">  2  5  1 -1</clus>
</clustering>
</event>
<event>
 9    1  0.9000149E-006  0.1042387E+03  0.7546771E-02  0.1274563E+00
          1   -1    0    0  502    0  0.00000000000E+00  0.00000000000E+00  0.10209786459E+04  0.10209786459E+04  0.00000000000E+00 0. -1.
         -1   -1    0    0    0  501 -0.00000000000E+00 -0.00000000000E+00 -0.13637600132E+02  0.13637600132E+02  0.00000000000E+00 0.  1.
         23    2    1    2    0    0 -0.36249728903E+02 -0.34233079934E+02  0.36059118748E+03  0.37663118436E+03  0.96639008325E+02 0.  0.
         23    2    1    2    0    0  0.22623857231E+02  0.12777517746E+02  0.46097292115E+03  0.47047752610E+03  0.90432099693E+02 0.  0.
        -11    1    3    3    0    0  0.29118136142E+02 -0.31678843725E+02  0.12965992101E+03  0.13661299392E+03  0.00000000000E+00 0. -1.
         11    1    3    3    0    0 -0.65367865044E+02 -0.25542362093E+01  0.23093126648E+03  0.24001819044E+03  0.00000000000E+00 0.  1.
        -11    1    4    4    0    0 -0.31096911466E+02  0.22732673218E+02  0.15880480710E+03  0.16340978886E+03  0.00000000000E+00 0.  1.
         11    1    4    4    0    0  0.53720768698E+02 -0.99551554714E+01  0.30216811405E+03  0.30706773724E+03  0.00000000000E+00 0. -1.
         21    1    1    2  502  501  0.13625871672E+02  0.21455562188E+02  0.18577693710E+03  0.18750753554E+03  0.00000000000E+00 0. -1.
<scales pt_clust_5="13000.00000" pt_clust_6="13000.00000" pt_clust_7="13000.00000" pt_clust_8="13000.00000" pt_clust_9="25.41664"></scales>
<clustering>
<clus scale="   25.417">  1  9  2 -1</clus>
<clus scale="   90.432">  7  8 -1 -1</clus>
<clus scale="   96.639">  5  6 -1 -1</clus>
<clus scale="   98.512">  1  7  2 -1</clus>
<clus scale="   25.417">  1  5  2 -1</clus>
</clustering>
</event>
<event>
 9    1  0.1368745E-005  0.9699509E+02  0.7546771E-02  0.1286761E+00
         -2   -1    0    0    0  501 -0.00000000000E+00  0.00000000000E+00  0.34494948013E+03  0.34494948013E+03  0.00000000000E+00 0.  1.
          2   -1    0    0  502    0  0.00000000000E+00 -0.00000000000E+00 -0.23237231654E+03  0.23237231654E+03  0.00000000000E+00 0. -1.
         23    2    1    2    0    0 -0.35891231060E+02 -0.23583314436E+02 -0.21402606107E+02  0.10284093478E+03  0.90960613080E+02 0.  0.
         23    2    1    2    0    0 -0.25173861329E+02  0.35958474317E+02 -0.15162003058E+03  0.18216367797E+03  0.90929845090E+02 0.  0.
        -11    1    3    3    0    0 -0.63593831137E+02  0.77928979368E+00 -0.15741556999E+02  0.65517778259E+02  0.00000000000E+00 0. -1.
         11    1    3    3    0    0  0.27702600077E+02 -0.24362604230E+02 -0.56610491083E+01  0.37323156523E+02  0.00000000000E+00 0.  1.
        -11    1    4    4    0    0  0.19209828836E+02  0.24264810442E+02 -0.88376024794E+01  0.32185427872E+02  0.00000000000E+00 0.  1.
         11    1    4    4    0    0 -0.44383690165E+02  0.11693663875E+02 -0.14278242810E+03  0.14997825010E+03  0.00000000000E+00 0. -1.
         21    1    1    2  502  501  0.61065092389E+02 -0.12375159881E+02  0.28559980028E+03  0.29231718391E+03  0.00000000000E+00 0.  1.
<scales pt_clust_5="13000.00000" pt_clust_6="13000.00000" pt_clust_7="13000.00000" pt_clust_8="13000.00000" pt_clust_9="62.30642"></scales>
<clustering>
<clus scale="   62.306">  1  9  2 -1</clus>
<clus scale="   90.930">  7  8 -1 -1</clus>
<clus scale="   90.961">  5  6 -1 -1</clus>
<clus scale="   96.966">  2  7  1 -1</clus>
<clus scale="   96.966">  2  5  1 -1</clus>
</clustering>
</event>
<event>
 9    1  0.9000149E-006  0.1136414E+03  0.7546771E-02  0.1254534E+00
          2   -1    0    0  502    0  0.00000000000E+00  0.00000000000E+00  0.51674165213E+03  0.51674165213E+03  0.00000000000E+00 0.  1.
         -2   -1    0    0    0  501 -0.00000000000E+00 -0.00000000000E+00 -0.50180651798E+02  0.50180651798E+02  0.00000000000E+00 0. -1.
         23    2    1    2    0    0 -0.41896586672E+02  0.43063118309E+02  0.50625607629E+02  0.12206848169E+03  0.93423797505E+02 0.  0.
         23    2    1    2    0    0  0.73747337443E+02 -0.43766271648E+02  0.34109589247E+03  0.36351554377E+03  0.91885724627E+02 0.  0.
        -11    1    4    4    0    0 -0.18200885014E+02 -0.19935039670E+02  0.11785702239E+03  0.12090887374E+03  0.00000000000E+00 0.  1.
         11    1    4    4    0    0  0.91948222457E+02 -0.23831231978E+02  0.22323887008E+03  0.24260667003E+03  0.00000000000E+00 0. -1.
        -13    1    3    3    0    0 -0.25135809126E+02 -0.25515704936E+02  0.11038990169E+01  0.35834043755E+02  0.00000000000E+00 0.  1.
         13    1    3    3    0    0 -0.16760777545E+02  0.68578823245E+02  0.49521708612E+02  0.86234437932E+02  0.00000000000E+00 0. -1.
         21    1    1    2  502  501 -0.31850750772E+02  0.70315333916E+00  0.74839500234E+02  0.81338278471E+02  0.00000000000E+00 0.  1.
<scales pt_clust_5="13000.00000" pt_clust_6="13000.00000" pt_clust_7="13000.00000" pt_clust_8="13000.00000" pt_clust_9="31.85851"></scales>
<clustering>
<clus scale="   31.859">  1  9  2 -1</clus>
<clus scale="   91.886">  5  6 -1 -1</clus>
<clus scale="   93.424">  7  8 -1 -1</clus>
<clus scale="  112.380">  1  5  2 -1</clus>
<clus scale="   31.859">  1  5  2 -1</clus>
</clustering>
</event>
<event>
 9    1  0.9000149E-006  0.1326613E+03  0.7546771E-02  0.1228543E+00
          2   -1    0    0  502    0  0.00000000000E+00  0.00000000000E+00  0.66333541004E+03  0.66333541004E+03  0.00000000000E+00 0. -1.
         -2   -1    0    0    0  501 -0.00000000000E+00 -0.00000000000E+00 -0.14749767458E+03  0.14749767458E+03  0.00000000000E+00 0.  1.
         23    2    1    2    0    0  0.66714968759E+02  0.32748460428E+02 -0.99718173433E+02  0.15505084242E+03  0.92594281163E+02 0.  0.
         23    2    1    2    0    0 -0.98003057829E+02 -0.26520594364E+01  0.26738314476E+03  0.30491330434E+03  0.10893458726E+03 0.  0.
        -11    1    3    3    0    0  0.47428692984E+02  0.16863033513E+02  0.19324848000E+01  0.50374371608E+02  0.00000000000E+00 0.  1.
         11    1    3    3    0    0  0.19286275776E+02  0.15885426915E+02 -0.10165065823E+03  0.10467647081E+03  0.00000000000E+00 0. -1.
        -13    1    4    4    0    0 -0.92056079125E+02 -0.45300075367E+02  0.17229010656E+03  0.20052505916E+03  0.00000000000E+00 0.  1.
         13    1    4    4    0    0 -0.59469787040E+01  0.42648015931E+02  0.95093038200E+02  0.10438824518E+03  0.00000000000E+00 0. -1.
         21    1    1    2  502  501  0.31288089070E+02 -0.30096400991E+02  0.34817276414E+03  0.35086893787E+03  0.00000000000E+00 0. -1.
<scales pt_clust_5="13000.00000" pt_clust_6="13000.00000" pt_clust_7="13000.00000" pt_clust_8="13000.00000" pt_clust_9="43.41357"></scales>
<clustering>
<clus scale="   43.414">  1  9  2 -1</clus>
<clus scale="   92.594">  5  6 -1 -1</clus>
<clus scale="  108.935">  7  8 -1 -1</clus>
<clus scale="  119.608">  2  5  1 -1</clus>
<clus scale="   43.414">  1  5  2 -1</clus>
</clustering>
</event>
<event>
 9    1  0.9000149E-006  0.1424348E+03  0.7546771E-02  0.1210984E+00
         -2   -1    0    0    0  501 -0.00000000000E+00  0.00000000000E+00  0.15707108039E+03  0.15707108039E+03  0.00000000000E+00 0.  1.
          2   -1    0    0  502    0  0.00000000000E+00 -0.00000000000E+00 -0.39614056888E+03  0.39614056888E+03  0.00000000000E+00 0. -1.
         23    2    1    2    0    0  0.10589884914E+03 -0.30363076166E+02  0.10492910911E+03  0.17542934392E+03  0.87343311848E+02 0.  0.
         23    2    1    2    0    0 -0.90692546963E+02  0.43368364501E+02 -0.30518888562E+03  0.33411809926E+03  0.91589820578E+02 0.  0.
        -11    1    3    3    0    0  0.50604282246E+02  0.26743065088E+02  0.24224073329E+02  0.62151352685E+02  0.00000000000E+00 0. -1.
         11    1    3    3    0    0  0.55294566897E+02 -0.57106141254E+02  0.80705035779E+02  0.11327799123E+03  0.00000000000E+00 0.  1.
        -13    1    4    4    0    0 -0.16785227121E+02  0.49451829737E+02 -0.19061436032E+03  0.19763871502E+03  0.00000000000E+00 0. -1.
         13    1    4    4    0    0 -0.73907319841E+02 -0.60834652356E+01 -0.11457452530E+03  0.13647938424E+03  0.00000000000E+00 0.  1.
         21    1    1    2  502  501 -0.15206302180E+02 -0.13005288335E+02 -0.38809711968E+02  0.43664206093E+02  0.00000000000E+00 0.  1.
<scales pt_clust_5="13000.00000" pt_clust_6="13000.00000" pt_clust_7="13000.00000" pt_clust_8="13000.00000" pt_clust_9="20.00923"></scales>
<clustering>
<clus scale="   20.009">  2  9  1 -1</clus>
<clus scale="   87.343">  5  6 -1 -1</clus>
<clus scale="   91.590">  7  8 -1 -1</clus>
<clus scale="  139.742">  1  5  2 -1</clus>
<clus scale="   20.009">  2  5  1 -1</clus>
</clustering>
</event>
<event>
 9    1  0.9000149E-006  0.1141422E+03  0.7546771E-02  0.1262760E+00
          3   -1    0    0  502    0  0.00000000000E+00  0.00000000000E+00  0.30755688099E+03  0.30755688099E+03  0.00000000000E+00 0. -1.
         -3   -1    0    0    0  501 -0.00000000000E+00 -0.00000000000E+00 -0.10982126677E+03  0.10982126677E+03  0.00000000000E+00 0.  1.
         23    2    1    2    0    0  0.46694424037E+01  0.30462420330E+02 -0.60363789378E+02  0.11306436488E+03  0.90498623155E+02 0.  0.
         23    2    1    2    0    0  0.28371641356E+02  0.21186647319E+01  0.17635984428E+03  0.21032125192E+03  0.11100808782E+03 0.  0.
        -11    1    4    4    0    0 -0.13577756445E+02  0.49490953069E+02  0.79029537188E+02  0.94230449717E+02  0.00000000000E+00 0.  1.
         11    1    4    4    0    0  0.41949397802E+02 -0.47372288337E+02  0.97330307092E+02  0.11609080221E+03  0.00000000000E+00 0. -1.
        -13    1    3    3    0    0  0.26484952109E+02  0.50577176058E+02 -0.15297227611E+02  0.59105910016E+02  0.00000000000E+00 0.  1.
         13    1    3    3    0    0 -0.21815509706E+02 -0.20114755729E+02 -0.45066561767E+02  0.53958454863E+02  0.00000000000E+00 0. -1.
         21    1    1    2  502  501 -0.33041083760E+02 -0.32581085062E+02  0.81739559310E+02  0.93992530958E+02  0.00000000000E+00 0. -1.
<scales pt_clust_5="13000.00000" pt_clust_6="13000.00000" pt_clust_7="13000.00000" pt_clust_8="13000.00000" pt_clust_9="46.40302"></scales>
<clustering>
<clus scale="   46.403">  1  9  2 -1</clus>
<clus scale="   90.499">  7  8 -1 -1</clus>
<clus scale="   94.317">  2  7  1 -1</clus>
<clus scale="  111.008">  5  6 -1 -1</clus>
<clus scale="   46.403">  1  5  2 -1</clus>
</clustering>
</event>
<event>
 9    1  0.9000149E-006  0.1016354E+03  0.7546771E-02  0.1277676E+00
         -3   -1    0    0    0  501 -0.00000000000E+00  0.00000000000E+00  0.46562043427E+03  0.46562043427E+03  0.00000000000E+00 0.  1.
          3   -1    0    0  502    0  0.00000000000E+00 -0.00000000000E+00 -0.78372163155E+02  0.78372163155E+02  0.00000000000E+00 0. -1.
         23    2    1    2    0    0 -0.17252741244E+02  0.86963334566E+01  0.28127046826E+03  0.29735191420E+03  0.94508207412E+02 0.  0.
         23    2    1    2    0    0  0.86985938687E+02  0.30294106570E+01  0.11751925699E+03  0.17499281470E+03  0.96103998742E+02 0.  0.
        -11    1    4    4    0    0  0.46123445246E+02  0.32633502513E+02  0.11615340520E+02  0.57682179423E+02  0.00000000000E+00 0. -1.
         11    1    4    4    0    0  0.40862493440E+02 -0.29604091856E+02  0.10590391647E+03  0.11731063527E+03  0.00000000000E+00 0.  1.
        -13    1    3    3    0    0  0.37241054516E+02 -0.98829916544E+01  0.12553252932E+03  0.13131254922E+03  0.00000000000E+00 0.  1.
         13    1    3    3    0    0 -0.54493795759E+02  0.18579325111E+02  0.15573793894E+03  0.16603936498E+03  0.00000000000E+00 0. -1.
         21    1    1    2  502  501 -0.69733197443E+02 -0.11725744114E+02 -0.11541454136E+02  0.71647868525E+02  0.00000000000E+00 0. -1.
<scales pt_clust_5="13000.00000" pt_clust_6="13000.00000" pt_clust_7="13000.00000" pt_clust_8="13000.00000" pt_clust_9="70.71218"></scales>
<clustering>
<clus scale="   70.712">  2  9  1 -1</clus>
<clus scale="   94.508">  7  8 -1 -1</clus>
<clus scale="   96.104">  5  6 -1 -1</clus>
<clus scale="  100.128">  1  7  2 -1</clus>
<clus scale="   70.712">  2  5  1 -1</clus>
</clustering>
</event>
<event>
 9    1  0.9000149E-006  0.1898650E+03  0.7546771E-02  0.1158861E+00
         -4   -1    0    0    0  501 -0.00000000000E+00  0.00000000000E+00  0.22520277412E+03  0.22520277412E+03  0.00000000000E+00 0.  1.
          4   -1    0    0  502    0  0.00000000000E+00 -0.00000000000E+00 -0.25465743093E+03  0.25465743093E+03  0.00000000000E+00 0. -1.
         23    2    1    2    0    0  0.16197008511E+03  0.39800457040E+02  0.11087432926E+03  0.22002290179E+03  0.91096517888E+02 0.  0.
         23    2    1    2    0    0 -0.16741688661E+03 -0.11582186126E+02 -0.11786138873E+03  0.22335811206E+03  0.88515412868E+02 0.  0.
        -11    1    3    3    0    0  0.11675126263E+03 -0.14434888662E+02  0.54425771982E+02  0.12962016815E+03  0.00000000000E+00 0.  1.
         11    1    3    3    0    0  0.45218822483E+02  0.54235345702E+02  0.56448557281E+02  0.90402733639E+02  0.00000000000E+00 0. -1.
        -13    1    4    4    0    0 -0.16280351551E+03  0.11336008524E+02 -0.11534568135E+03  0.19984523001E+03  0.00000000000E+00 0. -1.
         13    1    4    4    0    0 -0.46133711009E+01 -0.22918194650E+02 -0.25157073751E+01  0.23512882055E+02  0.00000000000E+00 0.  1.
         21    1    1    2  502  501  0.54468014985E+01 -0.28218270915E+02 -0.22467597341E+02  0.36479191195E+02  0.00000000000E+00 0. -1.
<scales pt_clust_5="13000.00000" pt_clust_6="13000.00000" pt_clust_7="13000.00000" pt_clust_8="13000.00000" pt_clust_9="28.73915"></scales>
<clustering>
<clus scale="   28.739">  2  9  1 -1</clus>
<clus scale="   88.515">  7  8 -1 -1</clus>
<clus scale="   91.097">  5  6 -1 -1</clus>
<clus scale="  188.640">  2  7  1 -1</clus>
<clus scale="   28.739">  2  5  1 -1</clus>
</clustering>
</event>
<event>
 9    1  0.9000149E-006  0.3042000E+03  0.7546771E-02  0.1083461E+00
          2   -1    0    0  502    0  0.00000000000E+00  0.00000000000E+00  0.34709906235E+03  0.34709906235E+03  0.00000000000E+00 0. -1.
         -2   -1    0    0    0  501 -0.00000000000E+00 -0.00000000000E+00 -0.44135263425E+03  0.44135263425E+03  0.00000000000E+00 0.  1.
         23    2    1    2    0    0  0.65080850390E+01  0.30965683094E+03 -0.24686524975E+03  0.40613048159E+03  0.89832112435E+02 0.  0.
         23    2    1    2    0    0 -0.13720742635E+02 -0.28540841723E+03  0.17815171594E+03  0.34637261917E+03  0.81177176685E+02 0.  0.
        -11    1    4    4    0    0  0.33026151513E+02 -0.14007223339E+03  0.96117704459E+02  0.17305944170E+03  0.00000000000E+00 0.  1.
         11    1    4    4    0    0 -0.46746894148E+02 -0.14533618384E+03  0.82034011480E+02  0.17331317748E+03  0.00000000000E+00 0. -1.
        -13    1    3    3    0    0  0.15911145877E+02  0.12250983904E+03 -0.15270576410E+03  0.19642015073E+03  0.00000000000E+00 0. -1.
         13    1    3    3    0    0 -0.94030608381E+01  0.18714699190E+03 -0.94159485648E+02  0.20971033086E+03  0.00000000000E+00 0.  1.
         21    1    1    2  502  501  0.72126575962E+01 -0.24248413714E+02 -0.25540038094E+02  0.35948595843E+02  0.00000000000E+00 0. -1.
<scales pt_clust_5="13000.00000" pt_clust_6="13000.00000" pt_clust_7="13000.00000" pt_clust_8="13000.00000" pt_clust_9="25.29838"></scales>
<clustering>
<clus scale="   25.298">  2  9  1 -1</clus>
<clus scale="   81.177">  5  6 -1 -1</clus>
<clus scale="   89.832">  7  8 -1 -1</clus>
<clus scale="  301.758">  1  5  2 -1</clus>
<clus scale="  301.758">  1  5  2 -1</clus>
</clustering>
</event>
<event>
 9    1  0.9000149E-006  0.1019139E+03  0.7546771E-02  0.1276822E+00
         -2   -1    0    0    0  501 -0.00000000000E+00  0.00000000000E+00  0.40704741796E+03  0.40704741796E+03  0.00000000000E+00 0.  1.
          2   -1    0    0  502    0  0.00000000000E+00 -0.00000000000E+00 -0.14708756208E+03  0.14708756208E+03  0.00000000000E+00 0. -1.
         23    2    1    2    0    0  0.47335556191E+02 -0.10364577047E+02  0.36358985539E+03  0.37794573942E+03  0.91089624343E+02 0.  0.
         23    2    1    2    0    0 -0.22692453283E+02 -0.94981229146E+01 -0.33303747129E+02  0.99068613384E+02  0.90001604486E+02 0.  0.
        -11    1    4    4    0    0 -0.18111551254E+02 -0.45793114367E+02  0.51701196348E+00  0.49247384841E+02  0.00000000000E+00 0.  1.
         11    1    4    4    0    0 -0.45809020295E+01  0.36294991453E+02 -0.33820759093E+02  0.49821228543E+02  0.00000000000E+00 0. -1.
        -13    1    3    3    0    0  0.46336997301E+02 -0.46227659144E+02  0.19887775765E+03  0.20937162242E+03  0.00000000000E+00 0.  1.
         13    1    3    3    0    0  0.99855888992E+00  0.35863082098E+02  0.16471209775E+03  0.16857411700E+03  0.00000000000E+00 0. -1.
         21    1    1    2  502  501 -0.24643102908E+02  0.19862699961E+02 -0.70326252381E+02  0.77120627232E+02  0.00000000000E+00 0. -1.
<scales pt_clust_5="13000.00000" pt_clust_6="13000.00000" pt_clust_7="13000.00000" pt_clust_8="13000.00000" pt_clust_9="31.65137"></scales>
<clustering>
<clus scale="   31.651">  2  9  1 -1</clus>
<clus scale="   90.002">  5  6 -1 -1</clus>
<clus scale="   91.090">  7  8 -1 -1</clus>
<clus scale="  100.943">  2  5  1 -1</clus>
<clus scale="   31.651">  2  5  1 -1</clus>
</clustering>
</event>
<event>
 9    1  0.9000149E-006  0.1374769E+03  0.7546771E-02  0.1216918E+00
          1   -1    0    0  502    0  0.00000000000E+00  0.00000000000E+00  0.66107283950E+02  0.66107283950E+02  0.00000000000E+00 0. -1.
         -1   -1    0    0    0  501 -0.00000000000E+00 -0.00000000000E+00 -0.42666215159E+03  0.42666215159E+03  0.00000000000E+00 0.  1.
         23    2    1    2    0    0  0.43404196921E+02 -0.91313821974E+02 -0.24853893249E+03  0.28330785110E+03  0.90937336320E+02 0.  0.
         23    2    1    2    0    0 -0.25942618747E+02  0.10507169594E+03 -0.12074372903E+03  0.18557936943E+03  0.90263910290E+02 0.  0.
        -11    1    4    4    0    0 -0.40496405459E+02  0.90102878815E+02 -0.12955354810E+03  0.16291902729E+03  0.00000000000E+00 0. -1.
         11    1    4    4    0    0  0.14553786711E+02  0.14968817126E+02  0.88098190720E+01  0.22660342139E+02  0.00000000000E+00 0.  1.
        -11    1    3    3    0    0  0.70532852444E+02 -0.74452239058E+02 -0.20593944764E+03  0.23006319842E+03  0.00000000000E+00 0.  1.
         11    1    3    3    0    0 -0.27128655524E+02 -0.16861582916E+02 -0.42599484847E+02  0.53244652673E+02  0.00000000000E+00 0. -1.
         21    1    1    2  502  501 -0.17461578173E+02 -0.13757873967E+02  0.87277938746E+01  0.23882215021E+02  0.00000000000E+00 0. -1.
<scales pt_clust_5="13000.00000" pt_clust_6="13000.00000" pt_clust_7="13000.00000" pt_clust_8="13000.00000" pt_clust_9="22.23029"></scales>
<clustering>
<clus scale="   22.230">  1  9  2 -1</clus>
<clus scale="   90.264">  5  6 -1 -1</clus>
<clus scale="   90.937">  7  8 -1 -1</clus>
<clus scale="  137.032">  1  5  2 -1</clus>
<clus scale="   22.230">  1  5  2 -1</clus>
</clustering>
</event>
<event>
 9    1  0.9000149E-006  0.1751778E+03  0.7546771E-02  0.1172893E+00
         -1   -1    0    0    0  501 -0.00000000000E+00  0.00000000000E+00  0.42637172397E+03  0.42637172397E+03  0.00000000000E+00 0.  1.
          1   -1    0    0  502    0  0.00000000000E+00 -0.00000000000E+00 -0.22944754658E+03  0.22944754658E+03  0.00000000000E+00 0. -1.
         23    2    1    2    0    0 -0.42693956020E+02  0.14519566334E+03  0.35983334917E+03  0.40099529656E+03  0.91720412966E+02 0.  0.
         23    2    1    2    0    0  0.43245664359E+02 -0.11494599773E+03 -0.98029651685E+02  0.18323697253E+03  0.94250759204E+02 0.  0.
        -11    1    3    3    0    0  0.24906305965E+02  0.47687264571E+02  0.73786687302E+02  0.91317438105E+02  0.00000000000E+00 0. -1.
         11    1    3    3    0    0 -0.67600261985E+02  0.97508398765E+02  0.28604666187E+03  0.30967785846E+03  0.00000000000E+00 0.  1.
        -11    1    4    4    0    0 -0.21684606280E+02 -0.52649229012E+02 -0.10880875900E+02  0.57970310724E+02  0.00000000000E+00 0.  1.
         11    1    4    4    0    0  0.64930270639E+02 -0.62296768721E+02 -0.87148775784E+02  0.12526666180E+03  0.00000000000E+00 0. -1.
         21    1    1    2  502  501 -0.55170833908E+00 -0.30249665603E+02 -0.64879520093E+02  0.71587001465E+02  0.00000000000E+00 0. -1.
<scales pt_clust_5="13000.00000" pt_clust_6="13000.00000" pt_clust_7="13000.00000" pt_clust_8="13000.00000" pt_clust_9="30.25470"></scales>
<clustering>
<clus scale="   30.255">  2  9  1 -1</clus>
<clus scale="   91.720">  5  6 -1 -1</clus>
<clus scale="   94.251">  7  8 -1 -1</clus>
<clus scale="  173.830">  1  5  2 -1</clus>
<clus scale="   30.255">  2  5  1 -1</clus>
</clustering>
</event>
<event>
 9    1  0.9000149E-006  0.9613124E+02  0.7546771E-02  0.1292019E+00
         -1   -1    0    0    0  501 -0.00000000000E+00  0.00000000000E+00  0.33244362150E+02  0.33244362150E+02  0.00000000000E+00 0.  1.
          1   -1    0    0  502    0  0.00000000000E+00 -0.00000000000E+00 -0.60764638103E+03  0.60764638103E+03  0.00000000000E+00 0. -1.
         23    2    1    2    0    0 -0.21154316198E+02 -0.42016051434E+02 -0.17287995870E+03  0.20030212320E+03  0.89557840355E+02 0.  0.
         23    2    1    2    0    0 -0.18735462095E+02 -0.27515831833E+02 -0.21662060838E+03  0.23905841360E+03  0.95479309784E+02 0.  0.
        -11    1    3    3    0    0  0.11907331501E+02 -0.60298783994E+02 -0.87426293845E+02  0.10686947530E+03  0.00000000000E+00 0.  1.
         11    1    3    3    0    0 -0.33061647699E+02  0.18282732560E+02 -0.85453664852E+02  0.93432647907E+02  0.00000000000E+00 0. -1.
        -13    1    4    4    0    0 -0.45123983871E+02 -0.14142054812E+01 -0.46021191997E+02  0.64468007650E+02  0.00000000000E+00 0. -1.
         13    1    4    4    0    0  0.26388521776E+02 -0.26101626352E+02 -0.17059941638E+03  0.17459040595E+03  0.00000000000E+00 0.  1.
         21    1    1    2  502  501  0.39889778293E+02  0.69531883267E+02 -0.18490145181E+03  0.20153020638E+03  0.00000000000E+00 0.  1.
<scales pt_clust_5="13000.00000" pt_clust_6="13000.00000" pt_clust_7="13000.00000" pt_clust_8="13000.00000" pt_clust_9="80.16157"></scales>
<clustering>
<clus scale="   80.162">  2  9  1 -1</clus>
<clus scale="   89.558">  5  6 -1 -1</clus>
<clus scale="   90.253">  1  5  2 -1</clus>
<clus scale="   95.479">  7  8 -1 -1</clus>
<clus scale="   80.162">  2  5  1 -1</clus>
</clustering>
</event>
<event>
 9    1  0.9000149E-006  0.1061954E+03  0.7546771E-02  0.1268268E+00
          1   -1    0    0  502    0  0.00000000000E+00  0.00000000000E+00  0.21549762226E+03  0.21549762226E+03  0.00000000000E+00 0. -1.
         -1   -1    0    0    0  501 -0.00000000000E+00 -0.00000000000E+00 -0.10727140983E+03  0.10727140983E+03  0.00000000000E+00 0.  1.
         23    2    1    2    0    0 -0.25118245910E+02  0.59546861443E+02 -0.18929237101E+02  0.11419216843E+03  0.92221365896E+02 0.  0.
         23    2    1    2    0    0  0.45132055317E+01 -0.37555508135E+02  0.24532524807E+02  0.10162055488E+03  0.91071989030E+02 0.  0.
        -11    1    3    3    0    0  0.17559903097E+02 -0.15310555434E+02 -0.15447022308E+02  0.27953064280E+02  0.00000000000E+00 0. -1.
         11    1    3    3    0    0 -0.42678149007E+02  0.74857416878E+02 -0.34822147931E+01  0.86239104147E+02  0.00000000000E+00 0.  1.
        -13    1    4    4    0    0 -0.11308127637E+02  0.16764051254E+02 -0.20884173270E+02  0.29069844483E+02  0.00000000000E+00 0.  1.
         13    1    4    4    0    0  0.15821333169E+02 -0.54319559389E+02  0.45416698076E+02  0.72550710400E+02  0.00000000000E+00 0. -1.
         21    1    1    2  502  501  0.20605040378E+02 -0.21991353308E+02  0.10262292472E+03  0.10695630878E+03  0.00000000000E+00 0. -1.
<scales pt_clust_5="13000.00000" pt_clust_6="13000.00000" pt_clust_7="13000.00000" pt_clust_8="13000.00000" pt_clust_9="30.13615"></scales>
<clustering>
<clus scale="   30.136">  1  9  2 -1</clus>
<clus scale="   91.072">  7  8 -1 -1</clus>
<clus scale="   92.221">  5  6 -1 -1</clus>
<clus scale="  105.199">  1  7  2 -1</clus>
<clus scale="   30.136">  1  5  2 -1</clus>
</clustering>
</event>
<event>
 9    1  0.9000149E-006  0.1014627E+03  0.7546771E-02  0.1280906E+00
         -1   -1    0    0    0  501 -0.00000000000E+00  0.00000000000E+00  0.30384988335E+03  0.30384988335E+03  0.00000000000E+00 0.  1.
          1   -1    0    0  502    0  0.00000000000E+00 -0.00000000000E+00 -0.58583947588E+02  0.58583947588E+02  0.00000000000E+00 0. -1.
         23    2    1    2    0    0 -0.12156477326E+02  0.68557964111E+01  0.12595264704E+03  0.16009993875E+03  0.97842420275E+02 0.  0.
         23    2    1    2    0    0  0.10524581375E+02 -0.41772589443E+02  0.13135798552E+03  0.16536200773E+03  0.90741154924E+02 0.  0.
        -11    1    4    4    0    0 -0.22031174308E+02 -0.55048662721E+02  0.10783045237E+03  0.12305744336E+03  0.00000000000E+00 0.  1.
         11    1    4    4    0    0  0.32555755683E+02  0.13276073278E+02  0.23527533154E+02  0.42304564365E+02  0.00000000000E+00 0. -1.
        -13    1    3    3    0    0 -0.17198634396E+02  0.50713282406E+02  0.80947712356E+02  0.97057519920E+02  0.00000000000E+00 0. -1.
         13    1    3    3    0    0  0.50421570696E+01 -0.43857485995E+02  0.45004934682E+02  0.63042418826E+02  0.00000000000E+00 0.  1.
         21    1    1    2  502  501  0.16318959511E+01  0.34916793032E+02 -0.12044696797E+02  0.36971884466E+02  0.00000000000E+00 0. -1.
<scales pt_clust_5="13000.00000" pt_clust_6="13000.00000" pt_clust_7="13000.00000" pt_clust_8="13000.00000" pt_clust_9="34.95491"></scales>
<clustering>
<clus scale="   34.955">  2  9  1 -1</clus>
<clus scale="   90.741">  5  6 -1 -1</clus>
<clus scale="   94.633">  2  5  1 -1</clus>
<clus scale="   97.842">  7  8 -1 -1</clus>
<clus scale="   34.955">  2  5  1 -1</clus>
</clustering>
</event>
<event>
 9    1  0.9000149E-006  0.1834659E+03  0.7546771E-02  0.1164887E+00
         -1   -1    0    0    0  501 -0.00000000000E+00  0.00000000000E+00  0.40221109671E+03  0.40221109671E+03  0.00000000000E+00 0.  1.
          1   -1    0    0  502    0  0.00000000000E+00 -0.00000000000E+00 -0.16396613565E+03  0.16396613565E+03  0.00000000000E+00 0. -1.
         23    2    1    2    0    0 -0.27779612724E+02 -0.15183663764E+03  0.28940364955E+03  0.34098816821E+03  0.93232972027E+02 0.  0.
         23    2    1    2    0    0  0.33939728093E+02  0.17256858575E+03 -0.48624745813E+02  0.20341335384E+03  0.89893296090E+02 0.  0.
        -11    1    4    4    0    0  0.62443860550E+02  0.12761188003E+03 -0.48688343370E+02  0.15018183121E+03  0.00000000000E+00 0.  1.
         11    1    4    4    0    0 -0.28504132457E+02  0.44956705721E+02  0.63597557466E-01  0.53231522626E+02  0.00000000000E+00 0. -1.
        -13    1    3    3    0    0 -0.30301193728E+02 -0.44146463410E+01  0.31619990746E+02  0.44016761108E+02  0.00000000000E+00 0.  1.
         13    1    3    3    0    0  0.25215810040E+01 -0.14742199130E+03  0.25778365880E+03  0.29697140710E+03  0.00000000000E+00 0. -1.
         21    1    1    2  502  501 -0.61601153682E+01 -0.20731948113E+02 -0.25339426736E+01  0.21775710307E+02  0.00000000000E+00 0. -1.
<scales pt_clust_5="13000.00000" pt_clust_6="13000.00000" pt_clust_7="13000.00000" pt_clust_8="13000.00000" pt_clust_9="21.62778"></scales>
<clustering>
<clus scale="   21.628">  2  9  1 -1</clus>
<clus scale="   89.893">  5  6 -1 -1</clus>
<clus scale="   93.233">  7  8 -1 -1</clus>
<clus scale="  181.792">  2  5  1 -1</clus>
<clus scale="   21.628">  2  5  1 -1</clus>
</clustering>
</event>
<event>
 9    1  0.9000149E-006  0.1213025E+03  0.7546771E-02  0.1241294E+00
          1   -1    0    0  502    0  0.00000000000E+00  0.00000000000E+00  0.34439498145E+03  0.34439498145E+03  0.00000000000E+00 0. -1.
         -1   -1    0    0    0  501 -0.00000000000E+00 -0.00000000000E+00 -0.69506846105E+02  0.69506846105E+02  0.00000000000E+00 0.  1.
         23    2    1    2    0    0  0.42599120282E+01 -0.62824770959E+02  0.44969699806E+02  0.12020884824E+03  0.91993448664E+02 0.  0.
         23    2    1    2    0    0 -0.17099422075E+02  0.82376846916E+02  0.23792436475E+03  0.26896988090E+03  0.93050837444E+02 0.  0.
        -13    1    3    3    0    0  0.37326197565E+02 -0.59367025389E+02  0.81469915340E+01  0.70597890897E+02  0.00000000000E+00 0. -1.
         13    1    3    3    0    0 -0.33066285536E+02 -0.34577455706E+01  0.36822708272E+02  0.49610957339E+02  0.00000000000E+00 0.  1.
        -13    1    4    4    0    0  0.31900994431E+02  0.65382948776E+02  0.15388967610E+03  0.17021937565E+03  0.00000000000E+00 0.  1.
         13    1    4    4    0    0 -0.49000416505E+02  0.16993898140E+02  0.84034688649E+02  0.98750505254E+02  0.00000000000E+00 0. -1.
         21    1    1    2  502  501  0.12839510046E+02 -0.19552075957E+02 -0.80059292141E+01  0.24723098411E+02  0.00000000000E+00 0. -1.
<scales pt_clust_5="13000.00000" pt_clust_6="13000.00000" pt_clust_7="13000.00000" pt_clust_8="13000.00000" pt_clust_9="23.39095"></scales>
<clustering>
<clus scale="   23.391">  2  9  1 -1</clus>
<clus scale="   91.993">  5  6 -1 -1</clus>
<clus scale="   93.051">  7  8 -1 -1</clus>
<clus scale="  120.493">  2  5  1 -1</clus>
<clus scale="  121.302">  1  5  2 -1</clus>
</clustering>
</event>
<event>
 9    1  0.9000149E-006  0.1342679E+03  0.7546771E-02  0.1221426E+00
          2   -1    0    0  502    0  0.00000000000E+00  0.00000000000E+00  0.39777947561E+03  0.39777947561E+03  0.00000000000E+00 0. -1.
         -2   -1    0    0    0  501 -0.00000000000E+00 -0.00000000000E+00 -0.63928928138E+02  0.63928928138E+02  0.00000000000E+00 0.  1.
         23    2    1    2    0    0 -0.63134532103E+02  0.59523028432E+02  0.11477720283E+03  0.17041296913E+03  0.91311629605E+02 0.  0.
         23    2    1    2    0    0  0.78702756865E+02 -0.75457093604E+02  0.11048057653E+03  0.18044123604E+03  0.92006439775E+02 0.  0.
        -11    1    3    3    0    0 -0.25884367424E+02  0.43544915797E+02  0.11931881823E+03  0.12962692835E+03  0.00000000000E+00 0. -1.
         11    1    3    3    0    0 -0.37250164679E+02  0.15978112634E+02 -0.45416154065E+01  0.40786040780E+02  0.00000000000E+00 0.  1.
        -13    1    4    4    0    0  0.58379516491E+02  0.53916999449E+01  0.54323031168E+02  0.79926404206E+02  0.00000000000E+00 0. -1.
         13    1    4    4    0    0  0.20323240374E+02 -0.80848793549E+02  0.56157545360E+02  0.10051483183E+03  0.00000000000E+00 0.  1.
         21    1    1    2  502  501 -0.15568224763E+02  0.15934065172E+02  0.10859276811E+03  0.11085419858E+03  0.00000000000E+00 0.  1.
<scales pt_clust_5="13000.00000" pt_clust_6="13000.00000" pt_clust_7="13000.00000" pt_clust_8="13000.00000" pt_clust_9="22.27698"></scales>
<clustering>
<clus scale="   22.277">  1  9  2 -1</clus>
<clus scale="   91.312">  5  6 -1 -1</clus>
<clus scale="   92.006">  7  8 -1 -1</clus>
<clus scale="  133.793">  2  5  1 -1</clus>
<clus scale="   22.277">  1  5  2 -1</clus>
</clustering>
</event>
<event>
 9    1  0.9000149E-006  0.1220319E+03  0.7546771E-02  0.1248114E+00
          2   -1    0    0  502    0  0.00000000000E+00  0.00000000000E+00  0.35040358942E+03  0.35040358942E+03  0.00000000000E+00 0. -1.
         -2   -1    0    0    0  501 -0.00000000000E+00 -0.00000000000E+00 -0.79443068876E+02  0.79443068876E+02  0.00000000000E+00 0.  1.
         23    2    1    2    0    0  0.66672349352E+02 -0.17414745936E+02  0.56443397856E+02  0.12514549627E+03  0.87903711709E+02 0.  0.
         23    2    1    2    0    0  0.16745027152E+02 -0.43634756791E+02  0.15264475984E+03  0.18422838596E+03  0.91952637558E+02 0.  0.
        -13    1    4    4    0    0  0.35360837373E+01  0.27419008677E+02  0.64962536115E+02  0.70600545490E+02  0.00000000000E+00 0.  1.
         13    1    4    4    0    0  0.13208943414E+02 -0.71053765469E+02  0.87682223724E+02  0.11362784047E+03  0.00000000000E+00 0. -1.
        -13    1    3    3    0    0  0.42847100824E+02 -0.53286320836E+02  0.38717646748E+02  0.78577109943E+02  0.00000000000E+00 0. -1.
         13    1    3    3    0    0  0.23825248529E+02  0.35871574900E+02  0.17725751108E+02  0.46568386332E+02  0.00000000000E+00 0.  1.
         21    1    1    2  502  501 -0.83417376504E+02  0.61049502727E+02  0.61872362847E+02  0.12047277605E+03  0.00000000000E+00 0.  1.
<scales pt_clust_5="13000.00000" pt_clust_6="13000.00000" pt_clust_7="13000.00000" pt_clust_8="13000.00000" pt_clust_9="84.64470"></scales>
<clustering>
<clus scale="   87.904">  7  8 -1 -1</clus>
<clus scale="   91.953">  5  6 -1 -1</clus>
<clus scale="  103.149">  1  5  2 -1</clus>
<clus scale="   84.645">  1  9  2 -1</clus>
<clus scale="  103.149">  1  5  2 -1</clus>
</clustering>
</event>
<event>
 9    1  0.9000149E-006  0.1954941E+03  0.7546771E-02  0.1153795E+00
          2   -1    0    0  502    0  0.00000000000E+00  0.00000000000E+00  0.74140974849E+03  0.74140974849E+03  0.00000000000E+00 0. -1.
         -2   -1    0    0    0  501 -0.00000000000E+00 -0.00000000000E+00 -0.66377274178E+02  0.66377274178E+02  0.00000000000E+00 0.  1.
         23    2    1    2    0    0 -0.16742097496E+03  0.66367189288E+02  0.18421687204E+03  0.27366568571E+03  0.92318280525E+02 0.  0.
         23    2    1    2    0    0  0.14364230662E+03 -0.67137947143E+02  0.39081735613E+03  0.43133189993E+03  0.90379122818E+02 0.  0.
        -11    1    3    3    0    0 -0.99537460868E+02  0.22389650924E+02  0.15904431873E+03  0.18895528017E+03  0.00000000000E+00 0.  1.
         11    1    3    3    0    0 -0.67883514089E+02  0.43977538364E+02  0.25172553311E+02  0.84710405535E+02  0.00000000000E+00 0. -1.
        -13    1    4    4    0    0  0.50090262792E+02  0.30531767992E+01  0.21055120476E+03  0.21644899201E+03  0.00000000000E+00 0.  1.
         13    1    4    4    0    0  0.93552043825E+02 -0.70191123942E+02  0.18026615137E+03  0.21488290791E+03  0.00000000000E+00 0. -1.
         21    1    1    2  502  501  0.23778668340E+02  0.77075785490E+00  0.99998246133E+02  0.10278943703E+03  0.00000000000E+00 0.  1.
<scales pt_clust_5="13000.00000" pt_clust_6="13000.00000" pt_clust_7="13000.00000" pt_clust_8="13000.00000" pt_clust_9="23.79116"></scales>
<clustering>
<clus scale="   23.791">  1  9  2 -1</clus>
<clus scale="   90.379">  7  8 -1 -1</clus>
<clus scale="   92.318">  5  6 -1 -1</clus>
<clus scale="  194.586">  1  7  2 -1</clus>
<clus scale="   23.791">  1  5  2 -1</clus>
</clustering>
</event>
<event>
 9    1  0.9000149E-006  0.1062115E+03  0.7546771E-02  0.1268250E+00
          1   -1    0    0  502    0  0.00000000000E+00  0.00000000000E+00  0.22853273236E+03  0.22853273236E+03  0.00000000000E+00 0. -1.
         -1   -1    0    0    0  501 -0.00000000000E+00 -0.00000000000E+00 -0.28968097622E+03  0.28968097622E+03  0.00000000000E+00 0.  1.
         23    2    1    2    0    0  0.99125716919E+00 -0.61182768810E+02 -0.19735528030E+03  0.22608134921E+03  0.91757048821E+02 0.  0.
         23    2    1    2    0    0  0.10534539939E+02  0.36507790414E+02 -0.45607032686E+02  0.10828988796E+03  0.90569879708E+02 0.  0.
        -11    1    4    4    0    0  0.27536391372E+02 -0.69946851322E+01 -0.53827422328E+02  0.60865177765E+02  0.00000000000E+00 0.  1.
         11    1    4    4    0    0 -0.17001851434E+02  0.43502475546E+02  0.82203896416E+01  0.47424710191E+02  0.00000000000E+00 0. -1.
        -11    1    3    3    0    0  0.15040691385E+02  0.21600297280E+02 -0.47556569153E+02  0.54354599708E+02  0.00000000000E+00 0. -1.
         11    1    3    3    0    0 -0.14049434216E+02 -0.82783066090E+02 -0.14979871115E+03  0.17172674951E+03  0.00000000000E+00 0.  1.
         21    1    1    2  502  501 -0.11525797108E+02  0.24674978396E+02  0.18181406913E+03  0.18384247140E+03  0.00000000000E+00 0. -1.
<scales pt_clust_5="13000.00000" pt_clust_6="13000.00000" pt_clust_7="13000.00000" pt_clust_8="13000.00000" pt_clust_9="27.23414"></scales>
<clustering>
<clus scale="   27.234">  1  9  2 -1</clus>
<clus scale="   90.570">  5  6 -1 -1</clus>
<clus scale="   91.757">  7  8 -1 -1</clus>
<clus scale="  105.188">  1  5  2 -1</clus>
<clus scale="   27.234">  1  5  2 -1</clus>
</clustering>
</event>
<event>
 9    1  0.9000149E-006  0.9943429E+02  0.7546771E-02  0.1282382E+00
          1   -1    0    0  502    0  0.00000000000E+00  0.00000000000E+00  0.22063174591E+03  0.22063174591E+03  0.00000000000E+00 0. -1.
         -1   -1    0    0    0  501 -0.00000000000E+00 -0.00000000000E+00 -0.14380163210E+03  0.14380163210E+03  0.00000000000E+00 0.  1.
         23    2    1    2    0    0  0.15115248498E+02 -0.33669712274E+02 -0.10464315845E+03  0.14470555819E+03  0.92883732155E+02 0.  0.
         23    2    1    2    0    0 -0.25964659891E+02  0.12878491352E+02  0.16623218162E+03  0.19175863250E+03  0.91094543350E+02 0.  0.
        -11    1    3    3    0    0  0.22588232224E+02 -0.13169773104E+01  0.10446481702E+02  0.24921710298E+02  0.00000000000E+00 0. -1.
         11    1    3    3    0    0 -0.74729837265E+01 -0.32352734964E+02 -0.11508964015E+03  0.11978384789E+03  0.00000000000E+00 0.  1.
        -13    1    4    4    0    0  0.12479634093E+02 -0.29444258964E+02  0.29316796327E+02  0.43384100773E+02  0.00000000000E+00 0.  1.
         13    1    4    4    0    0 -0.38444293983E+02  0.42322750316E+02  0.13691538529E+03  0.14837453172E+03  0.00000000000E+00 0. -1.
         21    1    1    2  502  501  0.10849411393E+02  0.20791220923E+02  0.15241090641E+02  0.27969187313E+02  0.00000000000E+00 0.  1.
<scales pt_clust_5="13000.00000" pt_clust_6="13000.00000" pt_clust_7="13000.00000" pt_clust_8="13000.00000" pt_clust_9="23.45175"></scales>
<clustering>
<clus scale="   23.452">  1  9  2 -1</clus>
<clus scale="   91.095">  7  8 -1 -1</clus>
<clus scale="   92.884">  5  6 -1 -1</clus>
<clus scale="   97.765">  1  7  2 -1</clus>
<clus scale="   23.452">  1  5  2 -1</clus>
</clustering>
</event>
<event>
 9    1  0.9000149E-006  0.1012256E+03  0.7546771E-02  0.1280713E+00
          1   -1    0    0  502    0  0.00000000000E+00  0.00000000000E+00  0.32414756219E+03  0.32414756219E+03  0.00000000000E+00 0. -1.
         -1   -1    0    0    0  501 -0.00000000000E+00 -0.00000000000E+00 -0.55718748189E+02  0.55718748189E+02  0.00000000000E+00 0.  1.
         23    2    1    2    0    0  0.16127238067E+02 -0.40475556691E+02  0.28590815908E+02  0.10326455490E+03  0.89150294715E+02 0.  0.
         23    2    1    2    0    0 -0.11240493656E+02  0.12281360293E+02  0.12332432035E+03  0.15662579920E+03  0.95108214572E+02 0.  0.
        -13    1    4    4    0    0 -0.22836685488E+02 -0.14339693960E+02  0.12467451389E+03  0.12755734178E+03  0.00000000000E+00 0. -1.
         13    1    4    4    0    0  0.11596191832E+02  0.26621054252E+02 -0.13501935463E+01  0.29068457426E+02  0.00000000000E+00 0.  1.
        -13    1    3    3    0    0 -0.31665021496E+02 -0.24824507984E+02  0.34009524466E+02  0.52683750221E+02  0.00000000000E+00 0. -1.
         13    1    3    3    0    0  0.47792259563E+02 -0.15651048707E+02 -0.54187085578E+01  0.50580804681E+02  0.00000000000E+00 0.  1.
         21    1    1    2  502  501 -0.48867444108E+01  0.28194196399E+02  0.11651367774E+03  0.11997595627E+03  0.00000000000E+00 0.  1.
<scales pt_clust_5="13000.00000" pt_clust_6="13000.00000" pt_clust_7="13000.00000" pt_clust_8="13000.00000" pt_clust_9="28.61456"></scales>
<clustering>
<clus scale="   28.615">  1  9  2 -1</clus>
<clus scale="   89.150">  7  8 -1 -1</clus>
<clus scale="   95.108">  5  6 -1 -1</clus>
<clus scale="   95.649">  2  7  1 -1</clus>
<clus scale="   28.615">  1  5  2 -1</clus>
</clustering>
</event>
<event>
 9    1  0.9000149E-006  0.1077098E+03  0.7546771E-02  0.1265445E+00
          3   -1    0    0  502    0  0.00000000000E+00  0.00000000000E+00  0.47491803927E+03  0.47491803927E+03  0.00000000000E+00 0. -1.
         -3   -1    0    0    0  501 -0.00000000000E+00 -0.00000000000E+00 -0.45739375613E+02  0.45739375613E+02  0.00000000000E+00 0.  1.
         23    2    1    2    0    0  0.20233035695E+02 -0.28918331161E+02  0.11748032019E+03  0.15287202107E+03  0.91228195122E+02 0.  0.
         23    2    1    2    0    0 -0.80357487742E+02  0.31098457482E+02  0.15587309521E+03  0.20074883889E+03  0.92624157813E+02 0.  0.
        -13    1    4    4    0    0 -0.48715078650E+02 -0.26732784810E+02  0.43920987592E+02  0.70829752383E+02  0.00000000000E+00 0.  1.
         13    1    4    4    0    0 -0.31642409092E+02  0.57831242292E+02  0.11195210762E+03  0.12991908651E+03  0.00000000000E+00 0. -1.
        -13    1    3    3    0    0 -0.63852163584E+01 -0.19263946590E+02 -0.97598372182E+01  0.22519437131E+02  0.00000000000E+00 0. -1.
         13    1    3    3    0    0  0.26618252053E+02 -0.96543845714E+01  0.12724015741E+03  0.13035258394E+03  0.00000000000E+00 0.  1.
         21    1    1    2  502  501  0.60124452047E+02 -0.21801263205E+01  0.15582524825E+03  0.16703655491E+03  0.00000000000E+00 0.  1.
<scales pt_clust_5="13000.00000" pt_clust_6="13000.00000" pt_clust_7="13000.00000" pt_clust_8="13000.00000" pt_clust_9="60.16397"></scales>
<clustering>
<clus scale="   60.164">  1  9  2 -1</clus>
<clus scale="   91.228">  7  8 -1 -1</clus>
<clus scale="   92.624">  5  6 -1 -1</clus>
<clus scale="  106.512">  2  7  1 -1</clus>
<clus scale="   60.164">  1  5  2 -1</clus>
</clustering>
</event>
<event>
 9    1  0.9000149E-006  0.9449072E+02  0.7546771E-02  0.1293615E+00
          1   -1    0    0  502    0  0.00000000000E+00  0.00000000000E+00  0.28226313667E+03  0.28226313667E+03  0.00000000000E+00 0. -1.
         -1   -1    0    0    0  501 -0.00000000000E+00 -0.00000000000E+00 -0.16573138198E+03  0.16573138198E+03  0.00000000000E+00 0.  1.
         23    2    1    2    0    0 -0.19476827314E+02  0.21611691082E+02 -0.12108115102E+03  0.15384703425E+03  0.90342973281E+02 0.  0.
         23    2    1    2    0    0 -0.30335791038E+02 -0.43311981873E+02  0.88843307285E+02  0.13576632080E+03  0.87995298861E+02 0.  0.
        -13    1    3    3    0    0 -0.27144123865E+02  0.43513706904E+02 -0.12013309332E+03  0.13062238039E+03  0.00000000000E+00 0.  1.
         13    1    3    3    0    0  0.76672965503E+01 -0.21902015822E+02 -0.94805770270E+00  0.23224653859E+02  0.00000000000E+00 0. -1.
        -13    1    4    4    0    0 -0.59297087206E+02 -0.35011392014E+02  0.43918647677E+02  0.81674902728E+02  0.00000000000E+00 0.  1.
         13    1    4    4    0    0  0.28961296168E+02 -0.83005898594E+01  0.44924659608E+02  0.54091418069E+02  0.00000000000E+00 0. -1.
         21    1    1    2  502  501  0.49812618352E+02  0.21700290791E+02  0.14876959843E+03  0.15838116360E+03  0.00000000000E+00 0. -1.
<scales pt_clust_5="13000.00000" pt_clust_6="13000.00000" pt_clust_7="13000.00000" pt_clust_8="13000.00000" pt_clust_9="54.33415"></scales>
<clustering>
<clus scale="   54.334">  1  9  2 -1</clus>
<clus scale="   87.995">  7  8 -1 -1</clus>
<clus scale="   90.343">  5  6 -1 -1</clus>
<clus scale="   92.249">  1  7  2 -1</clus>
<clus scale="   54.334">  1  5  2 -1</clus>
</clustering>
</event>
<event>
 9    1  0.9000149E-006  0.1437361E+03  0.7546771E-02  0.1212196E+00
          1   -1    0    0  502    0  0.00000000000E+00  0.00000000000E+00  0.88653625463E+03  0.88653625463E+03  0.00000000000E+00 0. -1.
         -1   -1    0    0    0  501 -0.00000000000E+00 -0.00000000000E+00 -0.46671892229E+02  0.46671892229E+02  0.00000000000E+00 0.  1.
         23    2    1    2    0    0 -0.83337632963E+02 -0.29893266131E+02  0.11500361450E+03  0.17110055026E+03  0.90613456636E+02 0.  0.
         23    2    1    2    0    0  0.98374192189E+02 -0.34310500283E+02  0.62465407886E+03  0.64215094503E+03  0.10635048589E+03 0.  0.
        -11    1    3    3    0    0 -0.90690154614E+02 -0.49563600124E+02  0.10662006360E+03  0.14848936852E+03  0.00000000000E+00 0.  1.
         11    1    3    3    0    0  0.73525216512E+01  0.19670333993E+02  0.83835508996E+01  0.22611181741E+02  0.00000000000E+00 0. -1.
        -13    1    4    4    0    0  0.59811648248E+02  0.33838598425E+02  0.34291181139E+03  0.34972988777E+03  0.00000000000E+00 0.  1.
         13    1    4    4    0    0  0.38562543941E+02 -0.68149098708E+02  0.28174226746E+03  0.29242105725E+03  0.00000000000E+00 0. -1.
         21    1    1    2  502  501 -0.15036559226E+02  0.64203766414E+02  0.10020666904E+03  0.11995665157E+03  0.00000000000E+00 0.  1.
<scales pt_clust_5="13000.00000" pt_clust_6="13000.00000" pt_clust_7="13000.00000" pt_clust_8="13000.00000" pt_clust_9="65.94105"></scales>
<clustering>
<clus scale="   65.941">  2  9  1 -1</clus>
<clus scale="   90.613">  5  6 -1 -1</clus>
<clus scale="  106.350">  7  8 -1 -1</clus>
<clus scale="  132.516">  2  5  1 -1</clus>
<clus scale="  143.736">  1  5  2 -1</clus>
</clustering>
</event>
<event>
 9    1  0.9000149E-006  0.1528367E+03  0.7546771E-02  0.1214718E+00
         -1   -1    0    0    0  501 -0.00000000000E+00  0.00000000000E+00  0.32482470546E+03  0.32482470546E+03  0.00000000000E+00 0.  1.
          1   -1    0    0  502    0  0.00000000000E+00 -0.00000000000E+00 -0.23653644713E+03  0.23653644713E+03  0.00000000000E+00 0. -1.
         23    2    1    2    0    0  0.20553722516E+02 -0.12141805186E+03  0.22554060195E+03  0.27091173841E+03  0.85789323674E+02 0.  0.
         23    2    1    2    0    0 -0.39514578630E+02 -0.28591466617E+02 -0.49309558919E+02  0.11553142460E+03  0.92396989025E+02 0.  0.
        -11    1    4    4    0    0  0.10021882092E+02 -0.47727549047E+02 -0.10843372191E+02  0.49959341260E+02  0.00000000000E+00 0.  1.
         11    1    4    4    0    0 -0.49536460722E+02  0.19136082430E+02 -0.38466186728E+02  0.65572083336E+02  0.00000000000E+00 0. -1.
        -13    1    3    3    0    0 -0.32238241564E+02 -0.53221074309E+02  0.75350959856E+02  0.97721820086E+02  0.00000000000E+00 0. -1.
         13    1    3    3    0    0  0.52791964079E+02 -0.68196977549E+02  0.15018964209E+03  0.17318991833E+03  0.00000000000E+00 0.  1.
         21    1    1    2  502  501  0.18960856114E+02  0.15000951848E+03 -0.87942784694E+02  0.17491798958E+03  0.00000000000E+00 0. -1.
<scales pt_clust_5="13000.00000" pt_clust_6="13000.00000" pt_clust_7="13000.00000" pt_clust_8="13000.00000" pt_clust_9="126.48812"></scales>
<clustering>
<clus scale="   85.789">  7  8 -1 -1</clus>
<clus scale="   92.397">  5  6 -1 -1</clus>
<clus scale="  104.480">  2  5  1 -1</clus>
<clus scale="  126.488">  2  9  1 -1</clus>
<clus scale="  104.480">  2  5  1 -1</clus>
</clustering>
</event>
<event>
 9    1  0.9000149E-006  0.9538085E+02  0.7546771E-02  0.1291148E+00
         -1   -1    0    0    0  501 -0.00000000000E+00  0.00000000000E+00  0.11145018280E+03  0.11145018280E+03  0.00000000000E+00 0.  1.
          1   -1    0    0  502    0  0.00000000000E+00 -0.00000000000E+00 -0.81697837808E+03  0.81697837808E+03  0.00000000000E+00 0. -1.
         23    2    1    2    0    0  0.19211277255E+01  0.23727186043E+02  0.75312028410E+02  0.12151061395E+03  0.92337736541E+02 0.  0.
         23    2    1    2    0    0  0.74937179791E+02 -0.24564874916E+02 -0.37353891733E+03  0.39242759080E+03  0.90824430992E+02 0.  0.
        -13    1    4    4    0    0  0.19651295378E+02 -0.46757105161E+02 -0.25224439893E+03  0.25729290135E+03  0.00000000000E+00 0. -1.
         13    1    4    4    0    0  0.55285884413E+02  0.22192230245E+02 -0.12129451840E+03  0.13513468945E+03  0.00000000000E+00 0.  1.
        -13    1    3    3    0    0 -0.27056218858E+02 -0.66384315757E+01 -0.73418539298E+01  0.28809904058E+02  0.00000000000E+00 0. -1.
         13    1    3    3    0    0  0.28977346584E+02  0.30365617618E+02  0.82653882340E+02  0.92700709891E+02  0.00000000000E+00 0.  1.
         21    1    1    2  502  501 -0.76858307516E+02  0.83768887363E+00 -0.40730130637E+03  0.41449035613E+03  0.00000000000E+00 0. -1.
<scales pt_clust_5="13000.00000" pt_clust_6="13000.00000" pt_clust_7="13000.00000" pt_clust_8="13000.00000" pt_clust_9="76.86287"></scales>
<clustering>
<clus scale="   76.863">  2  9  1 -1</clus>
<clus scale="   90.824">  5  6 -1 -1</clus>
<clus scale="   92.338">  7  8 -1 -1</clus>
<clus scale="   93.917">  2  5  1 -1</clus>
<clus scale="   76.863">  2  5  1 -1</clus>
</clustering>
</event>
<event>
 9    1  0.9000149E-006  0.1113170E+03  0.7546771E-02  0.1258996E+00
         -2   -1    0    0    0  501 -0.00000000000E+00  0.00000000000E+00  0.73447535405E+02  0.73447535405E+02  0.00000000000E+00 0.  1.
          2   -1    0    0  502    0  0.00000000000E+00 -0.00000000000E+00 -0.21744472807E+03  0.21744472807E+03  0.00000000000E+00 0. -1.
         23    2    1    2    0    0 -0.51847337723E+02  0.28830899731E+02 -0.35821980202E+02  0.11694638466E+03  0.94201249526E+02 0.  0.
         23    2    1    2    0    0  0.33572009683E+02 -0.41497330292E+02 -0.72318282037E+02  0.13175410784E+03  0.96333289989E+02 0.  0.
        -11    1    4    4    0    0  0.26246578883E+02 -0.73011526773E+02 -0.47434452439E+02  0.90937303803E+02  0.00000000000E+00 0.  1.
         11    1    4    4    0    0  0.73254308001E+01  0.31514196481E+02 -0.24883829597E+02  0.40816804035E+02  0.00000000000E+00 0. -1.
        -13    1    3    3    0    0 -0.57496072591E+02  0.41497628464E+01 -0.59096093102E+02  0.82555236751E+02  0.00000000000E+00 0. -1.
         13    1    3    3    0    0  0.56487348680E+01  0.24681136885E+02  0.23274112900E+02  0.34391147914E+02  0.00000000000E+00 0.  1.
         21    1    1    2  502  501  0.18275328039E+02  0.12666430561E+02 -0.35856930427E+02  0.42191770972E+02  0.00000000000E+00 0. -1.
<scales pt_clust_5="13000.00000" pt_clust_6="13000.00000" pt_clust_7="13000.00000" pt_clust_8="13000.00000" pt_clust_9="22.23569"></scales>
<clustering>
<clus scale="   22.236">  2  9  1 -1</clus>
<clus scale="   94.201">  7  8 -1 -1</clus>
<clus scale="   96.333">  5  6 -1 -1</clus>
<clus scale="  109.477">  1  7  2 -1</clus>
<clus scale="   22.236">  2  5  1 -1</clus>
</clustering>
</event>
<event>
 9    1  0.9000149E-006  0.1005538E+03  0.7546771E-02  0.1280561E+00
         -3   -1    0    0    0  501 -0.00000000000E+00  0.00000000000E+00  0.29946864971E+02  0.29946864971E+02  0.00000000000E+00 0.  1.
          3   -1    0    0  502    0  0.00000000000E+00 -0.00000000000E+00 -0.44575432331E+03  0.44575432331E+03  0.00000000000E+00 0. -1.
         23    2    1    2    0    0  0.25733762154E+02  0.63012331422E+01 -0.15163664291E+03  0.17984496880E+03  0.92997899324E+02 0.  0.
         23    2    1    2    0    0 -0.35134372295E+02  0.19326683836E+02 -0.18578568767E+03  0.21285387099E+03  0.95825381961E+02 0.  0.
        -13    1    4    4    0    0 -0.93821581629E+01  0.50625197745E+02 -0.15067779089E+03  0.15923169347E+03  0.00000000000E+00 0. -1.
         13    1    4    4    0    0 -0.25752214132E+02 -0.31298513909E+02 -0.35107896783E+02  0.53622177521E+02  0.00000000000E+00 0.  1.
        -13    1    3    3    0    0  0.17418972623E+01  0.30105662016E+02 -0.14132941270E+03  0.14451085767E+03  0.00000000000E+00 0. -1.
         13    1    3    3    0    0  0.23991864892E+02 -0.23804428874E+02 -0.10307230210E+02  0.35334111134E+02  0.00000000000E+00 0.  1.
         21    1    1    2  502  501  0.94006101406E+01 -0.25627916978E+02 -0.78385127762E+02  0.83002348485E+02  0.00000000000E+00 0. -1.
<scales pt_clust_5="13000.00000" pt_clust_6="13000.00000" pt_clust_7="13000.00000" pt_clust_8="13000.00000" pt_clust_9="27.29765"></scales>
<clustering>
<clus scale="   27.298">  2  9  1 -1</clus>
<clus scale="   92.998">  7  8 -1 -1</clus>
<clus scale="   95.825">  5  6 -1 -1</clus>
<clus scale="   97.863">  1  7  2 -1</clus>
<clus scale="   27.298">  2  5  1 -1</clus>
</clustering>
</event>
<event>
 9    1  0.9000149E-006  0.2098810E+03  0.7546771E-02  0.1141762E+00
         -2   -1    0    0    0  501 -0.00000000000E+00  0.00000000000E+00  0.92212363606E+02  0.92212363606E+02  0.00000000000E+00 0.  1.
          2   -1    0    0  502    0  0.00000000000E+00 -0.00000000000E+00 -0.10579060576E+04  0.10579060576E+04  0.00000000000E+00 0. -1.
         23    2    1    2    0    0  0.14968941582E+03 -0.13762177495E+03 -0.88803707048E+02  0.23943948849E+03  0.89991644689E+02 0.  0.
         23    2    1    2    0    0 -0.12017282635E+03  0.81710960767E+02 -0.50223445237E+03  0.53072628069E+03  0.91174286736E+02 0.  0.
        -13    1    3    3    0    0  0.27162271446E+02  0.28664764107E+01  0.92169484083E+01  0.28826338913E+02  0.00000000000E+00 0. -1.
         13    1    3    3    0    0  0.12252714437E+03 -0.14048825136E+03 -0.98020655457E+02  0.21061314958E+03  0.00000000000E+00 0.  1.
        -13    1    4    4    0    0 -0.96583375762E+02  0.97102383921E+02 -0.34874055205E+03  0.37466944642E+03  0.00000000000E+00 0. -1.
         13    1    4    4    0    0 -0.23589450587E+02 -0.15391423154E+02 -0.15349390032E+03  0.15605683427E+03  0.00000000000E+00 0.  1.
         21    1    1    2  502  501 -0.29516589469E+02  0.55910814183E+02 -0.37465553459E+03  0.37995265205E+03  0.00000000000E+00 0. -1.
<scales pt_clust_5="13000.00000" pt_clust_6="13000.00000" pt_clust_7="13000.00000" pt_clust_8="13000.00000" pt_clust_9="63.22379"></scales>
<clustering>
<clus scale="   63.224">  2  9  1 -1</clus>
<clus scale="   89.992">  5  6 -1 -1</clus>
<clus scale="   91.174">  7  8 -1 -1</clus>
<clus scale="  209.370">  1  5  2 -1</clus>
<clus scale="   63.224">  2  5  1 -1</clus>
</clustering>
</event>
<event>
 9    1  0.9000149E-006  0.2044182E+03  0.7546771E-02  0.1165274E+00
          2   -1    0    0  502    0  0.00000000000E+00  0.00000000000E+00  0.45853830614E+03  0.45853830614E+03  0.00000000000E+00 0. -1.
         -2   -1    0    0    0  501 -0.00000000000E+00 -0.00000000000E+00 -0.17331515700E+03  0.17331515700E+03  0.00000000000E+00 0.  1.
         23    2    1    2    0    0  0.12418896253E+03 -0.16244897477E+03 -0.15248245129E+01  0.22382492875E+03  0.91009372177E+02 0.  0.
         23    2    1    2    0    0 -0.91975184912E+02  0.17482323987E+02  0.77931549389E+02  0.15179161989E+03  0.90566567713E+02 0.  0.
        -11    1    3    3    0    0  0.74557982187E+02 -0.11527916833E+03  0.40930468919E+02  0.14326019212E+03  0.00000000000E+00 0. -1.
         11    1    3    3    0    0  0.49630980345E+02 -0.47169806434E+02 -0.42455293432E+02  0.80564736637E+02  0.00000000000E+00 0.  1.
        -11    1    4    4    0    0 -0.67771997305E+02  0.46454659529E+02  0.79058157963E+02  0.11402311762E+03  0.00000000000E+00 0.  1.
         11    1    4    4    0    0 -0.24203187606E+02 -0.28972335542E+02 -0.11266085745E+01  0.37768502273E+02  0.00000000000E+00 0. -1.
         21    1    1    2  502  501 -0.32213777621E+02  0.14496665078E+03  0.20881642427E+03  0.25623691450E+03  0.00000000000E+00 0. -1.
<scales pt_clust_5="13000.00000" pt_clust_6="13000.00000" pt_clust_7="13000.00000" pt_clust_8="13000.00000" pt_clust_9="183.04126"></scales>
<clustering>
<clus scale="   90.567">  7  8 -1 -1</clus>
<clus scale="   91.009">  5  6 -1 -1</clus>
<clus scale="  130.259">  1  7  2 -1</clus>
<clus scale="  183.041">  1  9  2 -1</clus>
<clus scale="  130.259">  1  5  2 -1</clus>
</clustering>
</event>
<event>
 9    1  0.9000149E-006  0.1345240E+03  0.7546771E-02  0.1221092E+00
          1   -1    0    0  502    0  0.00000000000E+00  0.00000000000E+00  0.16863323580E+03  0.16863323580E+03  0.00000000000E+00 0. -1.
         -1   -1    0    0    0  501 -0.00000000000E+00 -0.00000000000E+00 -0.15053421608E+03  0.15053421608E+03  0.00000000000E+00 0.  1.
         23    2    1    2    0    0  0.60728730922E+02  0.73511491310E+02 -0.48536244182E+02  0.14023851859E+03  0.90659566413E+02 0.  0.
         23    2    1    2    0    0 -0.82239045504E+02 -0.68005316810E+02  0.44156602743E+02  0.14733301903E+03  0.91483491461E+02 0.  0.
        -13    1    3    3    0    0 -0.18925594235E+02  0.16848228229E+02 -0.32450709125E+02  0.41171463835E+02  0.00000000000E+00 0.  1.
         13    1    3    3    0    0  0.79654325157E+02  0.56663263081E+02 -0.16085535057E+02  0.99067054752E+02  0.00000000000E+00 0. -1.
        -13    1    4    4    0    0 -0.88479376021E+02 -0.40493282938E+02  0.28937319575E+01  0.97348238961E+02  0.00000000000E+00 0. -1.
         13    1    4    4    0    0  0.62403305173E+01 -0.27512033872E+02  0.41262870785E+02  0.49984780065E+02  0.00000000000E+00 0.  1.
         21    1    1    2  502  501  0.21510314582E+02 -0.55061745001E+01  0.22478661156E+02  0.31595914268E+02  0.00000000000E+00 0.  1.
<scales pt_clust_5="13000.00000" pt_clust_6="13000.00000" pt_clust_7="13000.00000" pt_clust_8="13000.00000" pt_clust_9="22.20386"></scales>
<clustering>
<clus scale="   22.204">  1  9  2 -1</clus>
<clus scale="   90.660">  5  6 -1 -1</clus>
<clus scale="   91.483">  7  8 -1 -1</clus>
<clus scale="  133.965">  2  5  1 -1</clus>
<clus scale="   22.204">  1  5  2 -1</clus>
</clustering>
</event>
<event>
 9    1  0.9000149E-006  0.9472750E+02  0.7546771E-02  0.1292222E+00
          2   -1    0    0  502    0  0.00000000000E+00  0.00000000000E+00  0.48252594812E+03  0.48252594812E+03  0.00000000000E+00 0. -1.
         -2   -1    0    0    0  501 -0.00000000000E+00 -0.00000000000E+00 -0.29019505769E+02  0.29019505769E+02  0.00000000000E+00 0.  1.
         23    2    1    2    0    0 -0.79923591515E+01  0.31176043360E+02  0.12656624677E+03  0.15867758213E+03  0.90131774444E+02 0.  0.
         23    2    1    2    0    0 -0.23604312204E+02 -0.18619859681E+02  0.20480624591E+03  0.22608968337E+03  0.90923505392E+02 0.  0.
        -13    1    4    4    0    0 -0.48176283247E+02 -0.11557194201E+02  0.19040688406E+03  0.19674680304E+03  0.00000000000E+00 0.  1.
         13    1    4    4    0    0  0.24571971043E+02 -0.70626654795E+01  0.14399361842E+02  0.29342880331E+02  0.00000000000E+00 0. -1.
        -13    1    3    3    0    0  0.33927955801E+02  0.15896457877E+02  0.99907411495E+02  0.10670189515E+03  0.00000000000E+00 0. -1.
         13    1    3    3    0    0 -0.41920314952E+02  0.15279585483E+02  0.26658835274E+02  0.51975686974E+02  0.00000000000E+00 0.  1.
         21    1    1    2  502  501  0.31596671355E+02 -0.12556183679E+02  0.12213394968E+03  0.12677818840E+03  0.00000000000E+00 0. -1.
<scales pt_clust_5="13000.00000" pt_clust_6="13000.00000" pt_clust_7="13000.00000" pt_clust_8="13000.00000" pt_clust_9="34.00011"></scales>
<clustering>
<clus scale="   34.000">  1  9  2 -1</clus>
<clus scale="   90.132">  7  8 -1 -1</clus>
<clus scale="   90.924">  5  6 -1 -1</clus>
<clus scale="   93.968">  2  7  1 -1</clus>
<clus scale="   34.000">  1  5  2 -1</clus>
</clustering>
</event>
<event>
 9    1  0.9000149E-006  0.1013069E+03  0.7546771E-02  0.1278645E+00
         -1   -1    0    0    0  501 -0.00000000000E+00  0.00000000000E+00  0.32381931700E+03  0.32381931700E+03  0.00000000000E+00 0.  1.
          1   -1    0    0  502    0  0.00000000000E+00 -0.00000000000E+00 -0.46485279943E+02  0.46485279943E+02  0.00000000000E+00 0. -1.
         23    2    1    2    0    0  0.19218252164E+02 -0.37670066497E+02  0.19015925215E+03  0.21567456709E+03  0.92555943003E+02 0.  0.
         23    2    1    2    0    0 -0.26661969127E+02  0.98637754226E+01  0.67447180145E+02  0.11973336618E+03  0.94756541754E+02 0.  0.
        -13    1    3    3    0    0  0.12979908099E+02  0.23108512750E+02  0.15652507048E+02  0.30781201286E+02  0.00000000000E+00 0.  1.
         13    1    3    3    0    0  0.62383440651E+01 -0.60778579247E+02  0.17450674511E+03  0.18489336581E+03  0.00000000000E+00 0. -1.
        -13    1    4    4    0    0 -0.46516339003E+02  0.40199632956E+02  0.51183817261E+02  0.79997271413E+02  0.00000000000E+00 0.  1.
         13    1    4    4    0    0  0.19854369876E+02 -0.30335857533E+02  0.16263362884E+02  0.39736094772E+02  0.00000000000E+00 0. -1.
         21    1    1    2  502  501  0.74437169631E+01  0.27806291074E+02  0.19727604763E+02  0.34896663668E+02  0.00000000000E+00 0.  1.
<scales pt_clust_5="13000.00000" pt_clust_6="13000.00000" pt_clust_7="13000.00000" pt_clust_8="13000.00000" pt_clust_9="28.78539"></scales>
<clustering>
<clus scale="   28.785">  2  9  1 -1</clus>
<clus scale="   92.556">  5  6 -1 -1</clus>
<clus scale="   94.757">  7  8 -1 -1</clus>
<clus scale="   99.252">  1  5  2 -1</clus>
<clus scale="   28.785">  2  5  1 -1</clus>
</clustering>
</event>
<event>
 9    1  0.9000149E-006  0.9795267E+02  0.7546771E-02  0.1288599E+00
          1   -1    0    0  502    0  0.00000000000E+00  0.00000000000E+00  0.42410456799E+03  0.42410456799E+03  0.00000000000E+00 0. -1.
         -1   -1    0    0    0  501 -0.00000000000E+00 -0.00000000000E+00 -0.26620607494E+02  0.26620607494E+02  0.00000000000E+00 0.  1.
         23    2    1    2    0    0  0.73367787233E+00  0.20597320727E+02  0.17770566572E+03  0.20371070438E+03  0.97436951661E+02 0.  0.
         23    2    1    2    0    0  0.61691968649E+01 -0.87562644017E+00  0.19148659727E+03  0.21184324631E+03  0.90397004162E+02 0.  0.
        -11    1    3    3    0    0 -0.13531689371E+02 -0.31696835621E+02  0.27714296487E+02  0.44225312157E+02  0.00000000000E+00 0. -1.
         11    1    3    3    0    0  0.14265367243E+02  0.52294156348E+02  0.14999136923E+03  0.15948539223E+03  0.00000000000E+00 0.  1.
        -13    1    4    4    0    0  0.32009815397E+02 -0.12514130002E+02  0.17643950270E+03  0.17975575052E+03  0.00000000000E+00 0. -1.
         13    1    4    4    0    0 -0.25840618532E+02  0.11638503562E+02  0.15047094574E+02  0.32087495795E+02  0.00000000000E+00 0.  1.
         21    1    1    2  502  501 -0.69028747372E+01 -0.19721694287E+02  0.28291697503E+02  0.35171224784E+02  0.00000000000E+00 0.  1.
<scales pt_clust_5="13000.00000" pt_clust_6="13000.00000" pt_clust_7="13000.00000" pt_clust_8="13000.00000" pt_clust_9="20.89485"></scales>
<clustering>
<clus scale="   20.895">  2  9  1 -1</clus>
<clus scale="   90.397">  7  8 -1 -1</clus>
<clus scale="   90.953">  1  7  2 -1</clus>
<clus scale="   97.437">  5  6 -1 -1</clus>
<clus scale="   90.953">  1  5  2 -1</clus>
</clustering>
</event>
<event>
 9    1  0.9000149E-006  0.1240470E+03  0.7546771E-02  0.1243784E+00
          1   -1    0    0  502    0  0.00000000000E+00  0.00000000000E+00  0.28940323780E+03  0.28940323780E+03  0.00000000000E+00 0. -1.
         -1   -1    0    0    0  501 -0.00000000000E+00 -0.00000000000E+00 -0.97397348573E+02  0.97397348573E+02  0.00000000000E+00 0.  1.
         23    2    1    2    0    0  0.20553286361E+02 -0.62786671158E+02 -0.24302135526E+02  0.13076429579E+03  0.11020028860E+03 0.  0.
         23    2    1    2    0    0 -0.44328934617E+01  0.25572092049E+02  0.17029336346E+03  0.19469999610E+03  0.90745117828E+02 0.  0.
        -11    1    4    4    0    0 -0.45996918052E+02  0.22728102833E+02  0.11043188191E+03  0.12176815540E+03  0.00000000000E+00 0.  1.
         11    1    4    4    0    0  0.41564024591E+02  0.28439892163E+01  0.59861481551E+02  0.72931840703E+02  0.00000000000E+00 0. -1.
        -13    1    3    3    0    0 -0.42757642601E+02 -0.55429352642E+01 -0.91872181796E+01  0.44083388142E+02  0.00000000000E+00 0.  1.
         13    1    3    3    0    0  0.63310928962E+02 -0.57243735894E+02 -0.15114917347E+02  0.86680907653E+02  0.00000000000E+00 0. -1.
         21    1    1    2  502  501 -0.16120392900E+02  0.37214579109E+02  0.46014661299E+02  0.61336294475E+02  0.00000000000E+00 0.  1.
<scales pt_clust_5="13000.00000" pt_clust_6="13000.00000" pt_clust_7="13000.00000" pt_clust_8="13000.00000" pt_clust_9="40.55603"></scales>
<clustering>
<clus scale="   40.556">  1  9  2 -1</clus>
<clus scale="   90.745">  5  6 -1 -1</clus>
<clus scale="  107.137">  1  5  2 -1</clus>
<clus scale="  110.200">  7  8 -1 -1</clus>
<clus scale="   40.556">  1  5  2 -1</clus>
</clustering>
</event>
<event>
 9    1  0.9000149E-006  0.1016278E+03  0.7546771E-02  0.1278241E+00
          2   -1    0    0  502    0  0.00000000000E+00  0.00000000000E+00  0.91665699648E+02  0.91665699648E+02  0.00000000000E+00 0. -1.
         -2   -1    0    0    0  501 -0.00000000000E+00 -0.00000000000E+00 -0.20441736017E+03  0.20441736017E+03  0.00000000000E+00 0.  1.
         23    2    1    2    0    0 -0.33754509093E+02 -0.30052145206E+02 -0.12848378358E+03  0.16557899636E+03  0.94158499767E+02 0.  0.
         23    2    1    2    0    0  0.67711111303E+01  0.14461524114E+02  0.28146888871E+02  0.96958607101E+02  0.91398799293E+02 0.  0.
        -11    1    4    4    0    0  0.42209852937E+02 -0.13969888250E+02  0.25930472859E+02  0.51470563290E+02  0.00000000000E+00 0. -1.
         11    1    4    4    0    0 -0.35438741807E+02  0.28431412363E+02  0.22164160119E+01  0.45488043811E+02  0.00000000000E+00 0.  1.
        -11    1    3    3    0    0 -0.27339748331E+02  0.30371639122E+02 -0.71074699790E+02  0.81984823303E+02  0.00000000000E+00 0.  1.
         11    1    3    3    0    0 -0.64147607621E+01 -0.60423784328E+02 -0.57409083789E+02  0.83594173061E+02  0.00000000000E+00 0. -1.
         21    1    1    2  502  501  0.26983397963E+02  0.15590621092E+02 -0.12414765815E+02  0.33545456353E+02  0.00000000000E+00 0.  1.
<scales pt_clust_5="13000.00000" pt_clust_6="13000.00000" pt_clust_7="13000.00000" pt_clust_8="13000.00000" pt_clust_9="31.16362"></scales>
<clustering>
<clus scale="   31.164">  1  9  2 -1</clus>
<clus scale="   91.399">  5  6 -1 -1</clus>
<clus scale="   94.158">  7  8 -1 -1</clus>
<clus scale="   99.076">  1  5  2 -1</clus>
<clus scale="   31.164">  1  5  2 -1</clus>
</clustering>
</event>
<event>
 9    1  0.9000149E-006  0.1048429E+03  0.7546771E-02  0.1272024E+00
          1   -1    0    0  502    0  0.00000000000E+00  0.00000000000E+00  0.17542873813E+03  0.17542873813E+03  0.00000000000E+00 0. -1.
         -1   -1    0    0    0  501 -0.00000000000E+00 -0.00000000000E+00 -0.15953744967E+03  0.15953744967E+03  0.00000000000E+00 0.  1.
         23    2    1    2    0    0  0.34623523712E+01  0.52474067969E+02 -0.11474676672E+03  0.15461701794E+03  0.89297738324E+02 0.  0.
         23    2    1    2    0    0  0.28914839635E+01 -0.25609746723E+02  0.95951885746E+02  0.13601866859E+03  0.92898299338E+02 0.  0.
        -11    1    4    4    0    0 -0.23763716048E+02 -0.35241567769E+02  0.75317639565E+01  0.43167230250E+02  0.00000000000E+00 0. -1.
         11    1    4    4    0    0  0.26655200011E+02  0.96318210461E+01  0.88420121789E+02  0.92851438338E+02  0.00000000000E+00 0.  1.
        -13    1    3    3    0    0  0.44599112518E+02  0.25615951926E+02 -0.39932904451E+02  0.65114473724E+02  0.00000000000E+00 0. -1.
         13    1    3    3    0    0 -0.41136760147E+02  0.26858116043E+02 -0.74813862272E+02  0.89502544215E+02  0.00000000000E+00 0.  1.
         21    1    1    2  502  501 -0.63538363346E+01 -0.26864321246E+02  0.34686169441E+02  0.44330501268E+02  0.00000000000E+00 0. -1.
<scales pt_clust_5="13000.00000" pt_clust_6="13000.00000" pt_clust_7="13000.00000" pt_clust_8="13000.00000" pt_clust_9="27.60549"></scales>
<clustering>
<clus scale="   27.605">  1  9  2 -1</clus>
<clus scale="   89.298">  7  8 -1 -1</clus>
<clus scale="   92.898">  5  6 -1 -1</clus>
<clus scale="  101.666">  2  7  1 -1</clus>
<clus scale="   27.605">  1  5  2 -1</clus>
</clustering>
</event>
<event>
 9    1  0.9000149E-006  0.1576459E+03  0.7546771E-02  0.1191541E+00
         -2   -1    0    0    0  501 -0.00000000000E+00  0.00000000000E+00  0.43120384574E+03  0.43120384574E+03  0.00000000000E+00 0.  1.
          2   -1    0    0  502    0  0.00000000000E+00 -0.00000000000E+00 -0.80842186782E+02  0.80842186782E+02  0.00000000000E+00 0. -1.
         23    2    1    2    0    0 -0.10931480497E+03 -0.97394349747E+02  0.25227599809E+03  0.30579600306E+03  0.91829354386E+02 0.  0.
         23    2    1    2    0    0  0.76822700452E+02  0.65297478661E+02  0.75000422534E+02  0.15507509205E+03  0.90872068157E+02 0.  0.
        -13    1    4    4    0    0  0.87415754979E+02  0.22965643725E+02  0.61780213478E+02  0.10947935782E+03  0.00000000000E+00 0.  1.
         13    1    4    4    0    0 -0.10593054527E+02  0.42331834937E+02  0.13220209056E+02  0.45595734239E+02  0.00000000000E+00 0. -1.
        -13    1    3    3    0    0 -0.73572572619E+01 -0.60844856437E+02  0.12074845693E+03  0.13541202177E+03  0.00000000000E+00 0.  1.
         13    1    3    3    0    0 -0.10195754771E+03 -0.36549493310E+02  0.13152754116E+03  0.17038398129E+03  0.00000000000E+00 0. -1.
         21    1    1    2  502  501  0.32492104521E+02  0.32096871085E+02  0.23085238334E+02  0.51174937407E+02  0.00000000000E+00 0.  1.
<scales pt_clust_5="13000.00000" pt_clust_6="13000.00000" pt_clust_7="13000.00000" pt_clust_8="13000.00000" pt_clust_9="45.67216"></scales>
<clustering>
<clus scale="   45.672">  2  9  1 -1</clus>
<clus scale="   90.872">  5  6 -1 -1</clus>
<clus scale="   91.829">  7  8 -1 -1</clus>
<clus scale="  157.090">  2  5  1 -1</clus>
<clus scale="   45.672">  2  5  1 -1</clus>
</clustering>
</event>
<event>
 9    1  0.9000149E-006  0.9677689E+02  0.7546771E-02  0.1288154E+00
          1   -1    0    0  502    0  0.00000000000E+00  0.00000000000E+00  0.24844645826E+03  0.24844645826E+03  0.00000000000E+00 0. -1.
         -1   -1    0    0    0  501 -0.00000000000E+00 -0.00000000000E+00 -0.13048708081E+03  0.13048708081E+03  0.00000000000E+00 0.  1.
         23    2    1    2    0    0  0.19136401310E+02  0.27633329654E+02 -0.63093602719E+02  0.11481866626E+03  0.89848320263E+02 0.  0.
         23    2    1    2    0    0  0.46209261964E+02 -0.42072270009E+02  0.60758293755E+02  0.12645823372E+03  0.91622829149E+02 0.  0.
        -13    1    4    4    0    0  0.49400260370E+02  0.14132077140E+02  0.13940977508E+02  0.53239573465E+02  0.00000000000E+00 0.  1.
         13    1    4    4    0    0 -0.31909984055E+01 -0.56204347149E+02  0.46817316246E+02  0.73218660257E+02  0.00000000000E+00 0. -1.
        -13    1    3    3    0    0 -0.25916632244E+02  0.15463882561E+02  0.66483747121E+01  0.30903145100E+02  0.00000000000E+00 0. -1.
         13    1    3    3    0    0  0.45053033554E+02  0.12169447092E+02 -0.69741977432E+02  0.83915521157E+02  0.00000000000E+00 0.  1.
         21    1    1    2  502  501 -0.65345663274E+02  0.14438940355E+02  0.12029468641E+03  0.13765663909E+03  0.00000000000E+00 0. -1.
<scales pt_clust_5="13000.00000" pt_clust_6="13000.00000" pt_clust_7="13000.00000" pt_clust_8="13000.00000" pt_clust_9="66.92189"></scales>
<clustering>
<clus scale="   66.922">  1  9  2 -1</clus>
<clus scale="   89.848">  7  8 -1 -1</clus>
<clus scale="   91.623">  5  6 -1 -1</clus>
<clus scale="   95.099">  2  7  1 -1</clus>
<clus scale="   66.922">  1  5  2 -1</clus>
</clustering>
</event>
<event>
 9    1  0.9000149E-006  0.1391411E+03  0.7546771E-02  0.1215391E+00
         -3   -1    0    0    0  501 -0.00000000000E+00  0.00000000000E+00  0.40611795501E+03  0.40611795501E+03  0.00000000000E+00 0.  1.
          3   -1    0    0  502    0  0.00000000000E+00 -0.00000000000E+00 -0.14925759653E+03  0.14925759653E+03  0.00000000000E+00 0. -1.
         23    2    1    2    0    0 -0.10112286487E+03 -0.50054035745E+02  0.29507080477E+03  0.32793440855E+03  0.87994069058E+02 0.  0.
         23    2    1    2    0    0  0.90925762595E+02 -0.21346849547E+02  0.22664497536E+02  0.13305986252E+03  0.92022091246E+02 0.  0.
        -11    1    3    3    0    0  0.29452100129E+01 -0.29353611397E+02  0.11686865641E+03  0.12053460754E+03  0.00000000000E+00 0. -1.
         11    1    3    3    0    0 -0.10406807488E+03 -0.20700424348E+02  0.17820214836E+03  0.20739980101E+03  0.00000000000E+00 0.  1.
        -13    1    4    4    0    0 -0.52136548335E+01  0.23849755009E+02 -0.10775210342E+00  0.24413205877E+02  0.00000000000E+00 0.  1.
         13    1    4    4    0    0  0.96139417428E+02 -0.45196604555E+02  0.22772249639E+02  0.10864665665E+03  0.00000000000E+00 0. -1.
         21    1    1    2  502  501  0.10197102276E+02  0.71400885292E+02 -0.60874943825E+02  0.94381280459E+02  0.00000000000E+00 0. -1.
<scales pt_clust_5="13000.00000" pt_clust_6="13000.00000" pt_clust_7="13000.00000" pt_clust_8="13000.00000" pt_clust_9="72.12536"></scales>
<clustering>
<clus scale="   72.125">  2  9  1 -1</clus>
<clus scale="   87.994">  5  6 -1 -1</clus>
<clus scale="   92.022">  7  8 -1 -1</clus>
<clus scale="  136.511">  1  5  2 -1</clus>
<clus scale="   72.125">  2  5  1 -1</clus>
</clustering>
</event>
<event>
 9    1  0.9000149E-006  0.1170202E+03  0.7546771E-02  0.1250044E+00
          2   -1    0    0  502    0  0.00000000000E+00  0.00000000000E+00  0.40250043788E+03  0.40250043788E+03  0.00000000000E+00 0. -1.
         -2   -1    0    0    0  501 -0.00000000000E+00 -0.00000000000E+00 -0.98755826248E+02  0.98755826248E+02  0.00000000000E+00 0.  1.
         23    2    1    2    0    0  0.18534476044E+02 -0.47024409924E+02  0.56506805644E+02  0.12288014186E+03  0.96704127366E+02 0.  0.
         23    2    1    2    0    0 -0.41216858183E+02  0.58159838249E+02  0.29907661552E+03  0.32070680290E+03  0.91239439334E+02 0.  0.
        -11    1    3    3    0    0  0.38687894347E+02 -0.66464286002E+02  0.55538998499E+02  0.94862188658E+02  0.00000000000E+00 0.  1.
         11    1    3    3    0    0 -0.20153418303E+02  0.19439876078E+02  0.96780714496E+00  0.28017953207E+02  0.00000000000E+00 0. -1.
        -13    1    4    4    0    0 -0.70214038024E+02  0.45550257979E+02  0.22940322560E+03  0.24419393328E+03  0.00000000000E+00 0. -1.
         13    1    4    4    0    0  0.28997179841E+02  0.12609580270E+02  0.69673389918E+02  0.76512869610E+02  0.00000000000E+00 0.  1.
         21    1    1    2  502  501  0.22682382139E+02 -0.11135428325E+02 -0.51838809527E+02  0.57669319370E+02  0.00000000000E+00 0.  1.
<scales pt_clust_5="13000.00000" pt_clust_6="13000.00000" pt_clust_7="13000.00000" pt_clust_8="13000.00000" pt_clust_9="25.26832"></scales>
<clustering>
<clus scale="   25.268">  2  9  1 -1</clus>
<clus scale="   91.239">  7  8 -1 -1</clus>
<clus scale="   96.704">  5  6 -1 -1</clus>
<clus scale="  112.546">  1  7  2 -1</clus>
<clus scale="  112.546">  1  5  2 -1</clus>
</clustering>
</event>
<event>
 9    1  0.9000149E-006  0.1131807E+03  0.7546771E-02  0.1256094E+00
          1   -1    0    0  502    0  0.00000000000E+00  0.00000000000E+00  0.41859519086E+02  0.41859519086E+02  0.00000000000E+00 0. -1.
         -1   -1    0    0    0  501 -0.00000000000E+00 -0.00000000000E+00 -0.56932226856E+03  0.56932226856E+03  0.00000000000E+00 0.  1.
         23    2    1    2    0    0 -0.51758321792E+02 -0.74049792628E+02 -0.31090155433E+03  0.33513717837E+03  0.86572837447E+02 0.  0.
         23    2    1    2    0    0 -0.47500472433E+01  0.50267370111E+02 -0.17035929096E+03  0.19927602623E+03  0.90217931515E+02 0.  0.
        -11    1    4    4    0    0  0.28684124550E+02  0.51076329858E+02 -0.14766231728E+03  0.15885757903E+03  0.00000000000E+00 0.  1.
         11    1    4    4    0    0 -0.33434171793E+02 -0.80895974721E+00 -0.22696973683E+02  0.40418447196E+02  0.00000000000E+00 0. -1.
        -13    1    3    3    0    0 -0.70545002568E+02 -0.64334463517E+02 -0.19266666782E+03  0.21502549959E+03  0.00000000000E+00 0. -1.
         13    1    3    3    0    0  0.18786680776E+02 -0.97153291103E+01 -0.11823488651E+03  0.12011167879E+03  0.00000000000E+00 0.  1.
         21    1    1    2  502  501  0.56508369036E+02  0.23782422517E+02 -0.46201904189E+02  0.76768583044E+02  0.00000000000E+00 0. -1.
<scales pt_clust_5="13000.00000" pt_clust_6="13000.00000" pt_clust_7="13000.00000" pt_clust_8="13000.00000" pt_clust_9="61.30905"></scales>
<clustering>
<clus scale="   61.309">  1  9  2 -1</clus>
<clus scale="   86.573">  7  8 -1 -1</clus>
<clus scale="   90.218">  5  6 -1 -1</clus>
<clus scale="  110.297">  2  7  1 -1</clus>
<clus scale="   61.309">  1  5  2 -1</clus>
</clustering>
</event>
<event>
 9    1  0.9000149E-006  0.1241141E+03  0.7546771E-02  0.1236751E+00
          1   -1    0    0  502    0  0.00000000000E+00  0.00000000000E+00  0.14194244505E+03  0.14194244505E+03  0.00000000000E+00 0. -1.
         -1   -1    0    0    0  501 -0.00000000000E+00 -0.00000000000E+00 -0.16997712544E+03  0.16997712544E+03  0.00000000000E+00 0.  1.
         23    2    1    2    0    0  0.98880284096E+02 -0.13406429324E+02 -0.79178045896E+02  0.15673541126E+03  0.91322413801E+02 0.  0.
         23    2    1    2    0    0 -0.77122861621E+02  0.70249273703E+01  0.54530198814E+02  0.13225863547E+03  0.92312072257E+02 0.  0.
        -11    1    3    3    0    0  0.27948606196E+02 -0.24062083621E+02  0.13737434891E+02  0.39355121317E+02  0.00000000000E+00 0. -1.
         11    1    3    3    0    0  0.70931677900E+02  0.10655654298E+02 -0.92915480788E+02  0.11738028995E+03  0.00000000000E+00 0.  1.
        -13    1    4    4    0    0 -0.90702369257E+02  0.27554294816E+02  0.35806858596E+02  0.10133257164E+03  0.00000000000E+00 0. -1.
         13    1    4    4    0    0  0.13579507636E+02 -0.20529367446E+02  0.18723340218E+02  0.30926063834E+02  0.00000000000E+00 0.  1.
         21    1    1    2  502  501 -0.21757422474E+02  0.63815019532E+01 -0.33868333105E+01  0.22925523762E+02  0.00000000000E+00 0. -1.
<scales pt_clust_5="13000.00000" pt_clust_6="13000.00000" pt_clust_7="13000.00000" pt_clust_8="13000.00000" pt_clust_9="22.67397"></scales>
<clustering>
<clus scale="   22.674">  2  9  1 -1</clus>
<clus scale="   91.322">  5  6 -1 -1</clus>
<clus scale="   92.312">  7  8 -1 -1</clus>
<clus scale="  123.380">  2  5  1 -1</clus>
<clus scale="  124.114">  1  5  2 -1</clus>
</clustering>
</event>
<event>
 9    1  0.9000149E-006  0.9489736E+02  0.7546771E-02  0.1292298E+00
          2   -1    0    0  502    0  0.00000000000E+00  0.00000000000E+00  0.20506558370E+03  0.20506558370E+03  0.00000000000E+00 0. -1.
         -2   -1    0    0    0  501 -0.00000000000E+00 -0.00000000000E+00 -0.11970665546E+03  0.11970665546E+03  0.00000000000E+00 0.  1.
         23    2    1    2    0    0 -0.28118255987E+02  0.33820700223E+00 -0.73475321361E+02  0.12060282109E+03  0.91409337063E+02 0.  0.
         23    2    1    2    0    0  0.71149147605E+01  0.20845513402E+02  0.14331109732E+03  0.17054117682E+03  0.89783433530E+02 0.  0.
        -11    1    4    4    0    0  0.29382304473E+02 -0.25686953482E+02  0.45377267566E+02  0.59851781988E+02  0.00000000000E+00 0.  1.
         11    1    4    4    0    0 -0.22267389713E+02  0.46532466885E+02  0.97933829752E+02  0.11068939483E+03  0.00000000000E+00 0. -1.
        -11    1    3    3    0    0  0.13732580812E+02  0.21852186515E+02  0.75618010909E+01  0.26893915055E+02  0.00000000000E+00 0.  1.
         11    1    3    3    0    0 -0.41850836799E+02 -0.21513979513E+02 -0.81037122452E+02  0.93708906037E+02  0.00000000000E+00 0. -1.
         21    1    1    2  502  501  0.21003341227E+02 -0.21183720404E+02  0.15523152283E+02  0.33628241251E+02  0.00000000000E+00 0.  1.
<scales pt_clust_5="13000.00000" pt_clust_6="13000.00000" pt_clust_7="13000.00000" pt_clust_8="13000.00000" pt_clust_9="29.83103"></scales>
<clustering>
<clus scale="   29.831">  1  9  2 -1</clus>
<clus scale="   89.783">  5  6 -1 -1</clus>
<clus scale="   91.409">  7  8 -1 -1</clus>
<clus scale="   93.332">  1  5  2 -1</clus>
<clus scale="   29.831">  1  5  2 -1</clus>
</clustering>
</event>
<event>
 9    1  0.9000149E-006  0.1018761E+03  0.7546771E-02  0.1278909E+00
          3   -1    0    0  502    0  0.00000000000E+00  0.00000000000E+00  0.17129746404E+03  0.17129746404E+03  0.00000000000E+00 0. -1.
         -3   -1    0    0    0  501 -0.00000000000E+00 -0.00000000000E+00 -0.97279987725E+02  0.97279987725E+02  0.00000000000E+00 0.  1.
         23    2    1    2    0    0  0.20534376528E+02  0.11932793943E+02 -0.76173179076E-02  0.90395077168E+02  0.87219365553E+02 0.  0.
         23    2    1    2    0    0 -0.32948517301E+02 -0.42509762845E+02  0.91547238060E+02  0.14081812078E+03  0.92499522238E+02 0.  0.
        -11    1    4    4    0    0 -0.62851830398E+02 -0.13422603060E+02  0.45878784116E+02  0.78964433065E+02  0.00000000000E+00 0. -1.
         11    1    4    4    0    0  0.29903313096E+02 -0.29087159785E+02  0.45668453944E+02  0.61853687717E+02  0.00000000000E+00 0.  1.
        -13    1    3    3    0    0  0.17514894583E+02  0.48544887626E+02 -0.94467537569E+01  0.52465405778E+02  0.00000000000E+00 0.  1.
         13    1    3    3    0    0  0.30194819450E+01 -0.36612093683E+02  0.94391364390E+01  0.37929671390E+02  0.00000000000E+00 0. -1.
         21    1    1    2  502  501  0.12414140774E+02  0.30576968902E+02 -0.17522144424E+02  0.37364253821E+02  0.00000000000E+00 0. -1.
<scales pt_clust_5="13000.00000" pt_clust_6="13000.00000" pt_clust_7="13000.00000" pt_clust_8="13000.00000" pt_clust_9="33.00094"></scales>
<clustering>
<clus scale="   33.001">  2  9  1 -1</clus>
<clus scale="   87.219">  7  8 -1 -1</clus>
<clus scale="   92.500">  5  6 -1 -1</clus>
<clus scale="   97.107">  2  7  1 -1</clus>
<clus scale="  101.876">  1  5  2 -1</clus>
</clustering>
</event>
<event>
 9    1  0.9000149E-006  0.1013336E+03  0.7546771E-02  0.1279764E+00
         -1   -1    0    0    0  501 -0.00000000000E+00  0.00000000000E+00  0.30764877516E+03  0.30764877516E+03  0.00000000000E+00 0.  1.
          1   -1    0    0  502    0  0.00000000000E+00 -0.00000000000E+00 -0.11176302639E+03  0.11176302639E+03  0.00000000000E+00 0. -1.
         23    2    1    2    0    0 -0.27141994650E+02 -0.32417446913E+02  0.13178833858E+03  0.16319501843E+03  0.86468891038E+02 0.  0.
         23    2    1    2    0    0 -0.41290618579E+02  0.62644618137E+02  0.11569836022E+03  0.16533574837E+03  0.91216970832E+02 0.  0.
        -11    1    3    3    0    0 -0.54512267143E+01  0.22420802063E+02  0.53586122910E+01  0.23688034184E+02  0.00000000000E+00 0. -1.
         11    1    3    3    0    0 -0.21690767936E+02 -0.54838248976E+02  0.12642972629E+03  0.13950698424E+03  0.00000000000E+00 0.  1.
        -13    1    4    4    0    0  0.26545068293E+02  0.73938054635E+01  0.45377675518E+02  0.53089004938E+02  0.00000000000E+00 0. -1.
         13    1    4    4    0    0 -0.67835686872E+02  0.55250812674E+02  0.70320684707E+02  0.11224674344E+03  0.00000000000E+00 0.  1.
         21    1    1    2  502  501  0.68432613229E+02 -0.30227171224E+02 -0.51600950026E+02  0.90881034749E+02  0.00000000000E+00 0. -1.
<scales pt_clust_5="13000.00000" pt_clust_6="13000.00000" pt_clust_7="13000.00000" pt_clust_8="13000.00000" pt_clust_9="74.81113"></scales>
<clustering>
<clus scale="   74.811">  2  9  1 -1</clus>
<clus scale="   86.469">  5  6 -1 -1</clus>
<clus scale="   91.217">  7  8 -1 -1</clus>
<clus scale="   97.082">  1  5  2 -1</clus>
<clus scale="   74.811">  2  5  1 -1</clus>
</clustering>
</event>
<event>
 9    1  0.9000149E-006  0.1121706E+03  0.7546771E-02  0.1257248E+00
         -2   -1    0    0    0  501 -0.00000000000E+00  0.00000000000E+00  0.90893451149E+02  0.90893451149E+02  0.00000000000E+00 0.  1.
          2   -1    0    0  502    0  0.00000000000E+00 -0.00000000000E+00 -0.32821612947E+03  0.32821612947E+03  0.00000000000E+00 0. -1.
         23    2    1    2    0    0 -0.33126271761E+02  0.49040728850E+02  0.21554211942E+02  0.10926783718E+03  0.89289043133E+02 0.  0.
         23    2    1    2    0    0  0.45117816918E+02 -0.82894131944E+02 -0.17569624827E+03  0.21923893300E+03  0.91046601102E+02 0.  0.
        -11    1    3    3    0    0 -0.36000219526E+02 -0.17029301617E+02  0.15943855901E+02  0.42897779202E+02  0.00000000000E+00 0.  1.
         11    1    3    3    0    0  0.28739477646E+01  0.66070030467E+02  0.56103560414E+01  0.66370057983E+02  0.00000000000E+00 0. -1.
        -13    1    4    4    0    0 -0.26454015184E+02 -0.28213183417E+02 -0.34878584089E+02  0.52079883505E+02  0.00000000000E+00 0.  1.
         13    1    4    4    0    0  0.71571832102E+02 -0.54680948527E+02 -0.14081766418E+03  0.16715904949E+03  0.00000000000E+00 0. -1.
         21    1    1    2  502  501 -0.11991545157E+02  0.33853403094E+02 -0.83180641992E+02  0.90602810433E+02  0.00000000000E+00 0.  1.
<scales pt_clust_5="13000.00000" pt_clust_6="13000.00000" pt_clust_7="13000.00000" pt_clust_8="13000.00000" pt_clust_9="35.91448"></scales>
<clustering>
<clus scale="   35.914">  2  9  1 -1</clus>
<clus scale="   89.289">  5  6 -1 -1</clus>
<clus scale="   91.047">  7  8 -1 -1</clus>
<clus scale="  110.749">  1  5  2 -1</clus>
<clus scale="   35.914">  2  5  1 -1</clus>
</clustering>
</event>
<event>
 9    1  0.9000149E-006  0.1466371E+03  0.7546771E-02  0.1209857E+00
         -2   -1    0    0    0  501 -0.00000000000E+00  0.00000000000E+00  0.26921448587E+03  0.26921448587E+03  0.00000000000E+00 0.  1.
          2   -1    0    0  502    0  0.00000000000E+00 -0.00000000000E+00 -0.87169013884E+03  0.87169013884E+03  0.00000000000E+00 0. -1.
         23    2    1    2    0    0 -0.78463382625E+02  0.50476573311E+02  0.24311943663E+03  0.27638682500E+03  0.92618732986E+02 0.  0.
         23    2    1    2    0    0  0.73132845823E+02 -0.23398045408E+02 -0.79652511463E+03  0.80821927629E+03  0.11344716240E+03 0.  0.
        -11    1    3    3    0    0  0.20813640151E+02  0.19203782069E+01  0.41401613423E+02  0.46378756590E+02  0.00000000000E+00 0. -1.
         11    1    3    3    0    0 -0.99277022775E+02  0.48556195104E+02  0.20171782321E+03  0.23000806841E+03  0.00000000000E+00 0.  1.
        -11    1    4    4    0    0  0.61339122872E+02  0.39502510110E+02 -0.43335336193E+03  0.43945201399E+03  0.00000000000E+00 0.  1.
         11    1    4    4    0    0  0.11793722951E+02 -0.62900555518E+02 -0.36317175270E+03  0.36876726230E+03  0.00000000000E+00 0. -1.
         21    1    1    2  502  501  0.53305368015E+01 -0.27078527903E+02 -0.49069974968E+02  0.56298523421E+02  0.00000000000E+00 0.  1.
<scales pt_clust_5="13000.00000" pt_clust_6="13000.00000" pt_clust_7="13000.00000" pt_clust_8="13000.00000" pt_clust_9="27.59821"></scales>
<clustering>
<clus scale="   27.598">  2  9  1 -1</clus>
<clus scale="   92.619">  5  6 -1 -1</clus>
<clus scale="  113.447">  7  8 -1 -1</clus>
<clus scale="  131.188">  1  5  2 -1</clus>
<clus scale="   27.598">  2  5  1 -1</clus>
</clustering>
</event>
<event>
 9    1  0.9000149E-006  0.1336825E+03  0.7546771E-02  0.1222267E+00
         -1   -1    0    0    0  501 -0.00000000000E+00  0.00000000000E+00  0.62884106234E+03  0.62884106234E+03  0.00000000000E+00 0.  1.
          1   -1    0    0  502    0  0.00000000000E+00 -0.00000000000E+00 -0.44745036447E+02  0.44745036447E+02  0.00000000000E+00 0. -1.
         23    2    1    2    0    0  0.81474348865E+02 -0.18683073829E+02  0.26780022276E+03  0.29523593846E+03  0.91979200248E+02 0.  0.
         23    2    1    2    0    0 -0.10897409102E+03  0.27464576315E+02  0.31802873662E+03  0.34943038054E+03  0.91266960382E+02 0.  0.
        -11    1    3    3    0    0  0.65689872539E+02  0.13025844986E+01  0.26062229699E+03  0.26877655733E+03  0.00000000000E+00 0.  1.
         11    1    3    3    0    0  0.15784476326E+02 -0.19985658327E+02  0.71779257703E+01  0.26459381134E+02  0.00000000000E+00 0. -1.
        -11    1    4    4    0    0 -0.63706914542E+02  0.53456929692E+02  0.25134422232E+03  0.26474541051E+03  0.00000000000E+00 0. -1.
         11    1    4    4    0    0 -0.45267176483E+02 -0.25992353376E+02  0.66684514307E+02  0.84684970031E+02  0.00000000000E+00 0.  1.
         21    1    1    2  502  501  0.27499742160E+02 -0.87815024868E+01 -0.17329334860E+01  0.28919779793E+02  0.00000000000E+00 0.  1.
<scales pt_clust_5="13000.00000" pt_clust_6="13000.00000" pt_clust_7="13000.00000" pt_clust_8="13000.00000" pt_clust_9="28.86781"></scales>
<clustering>
<clus scale="   28.868">  2  9  1 -1</clus>
<clus scale="   91.267">  7  8 -1 -1</clus>
<clus scale="   91.979">  5  6 -1 -1</clus>
<clus scale="  133.193">  2  7  1 -1</clus>
<clus scale="   28.868">  2  5  1 -1</clus>
</clustering>
</event>
<event>
 9    1  0.9000149E-006  0.1835269E+03  0.7546771E-02  0.1165078E+00
         -1   -1    0    0    0  501 -0.00000000000E+00  0.00000000000E+00  0.14872420367E+03  0.14872420367E+03  0.00000000000E+00 0.  1.
          1   -1    0    0  502    0  0.00000000000E+00 -0.00000000000E+00 -0.51785619820E+03  0.51785619820E+03  0.00000000000E+00 0. -1.
         23    2    1    2    0    0  0.13458302573E+03  0.90027743121E+02  0.25758543322E+02  0.19079408866E+03  0.97577130354E+02 0.  0.
         23    2    1    2    0    0 -0.13465320927E+03 -0.49766345516E+02 -0.14889475707E+03  0.22651756422E+03  0.92370895311E+02 0.  0.
        -11    1    4    4    0    0 -0.10766398047E+02 -0.45275780360E+02 -0.35838744677E+02  0.58738634936E+02  0.00000000000E+00 0.  1.
         11    1    4    4    0    0 -0.12388681123E+03 -0.44905651559E+01 -0.11305601240E+03  0.16777892928E+03  0.00000000000E+00 0. -1.
        -13    1    3    3    0    0  0.62603993049E+02  0.80503809475E+02 -0.21419651931E+02  0.10420616476E+03  0.00000000000E+00 0. -1.
         13    1    3    3    0    0  0.71979032684E+02  0.95239336468E+01  0.47178195254E+02  0.86587923902E+02  0.00000000000E+00 0.  1.
         21    1    1    2  502  501  0.70183540041E-01 -0.40261397605E+02 -0.24599578078E+03  0.24926874899E+03  0.00000000000E+00 0. -1.
<scales pt_clust_5="13000.00000" pt_clust_6="13000.00000" pt_clust_7="13000.00000" pt_clust_8="13000.00000" pt_clust_9="40.26146"></scales>
<clustering>
<clus scale="   40.261">  2  9  1 -1</clus>
<clus scale="   92.371">  5  6 -1 -1</clus>
<clus scale="   97.577">  7  8 -1 -1</clus>
<clus scale="  180.813">  2  5  1 -1</clus>
<clus scale="   40.261">  2  5  1 -1</clus>
</clustering>
</event>
<event>
 9    1  0.9000149E-006  0.1235441E+03  0.7546771E-02  0.1238376E+00
          1   -1    0    0  502    0  0.00000000000E+00  0.00000000000E+00  0.28133932107E+03  0.28133932107E+03  0.00000000000E+00 0. -1.
         -1   -1    0    0    0  501 -0.00000000000E+00 -0.00000000000E+00 -0.94771365867E+02  0.94771365867E+02  0.00000000000E+00 0.  1.
         23    2    1    2    0    0  0.32199289244E+02 -0.74776958921E+02  0.98231821039E+01  0.11993405309E+03  0.87517394672E+02 0.  0.
         23    2    1    2    0    0 -0.54531640414E+02  0.70086883984E+02  0.66267874653E+02  0.14336761026E+03  0.90977850869E+02 0.  0.
        -11    1    4    4    0    0 -0.18312137731E+02  0.79408087785E+02  0.20067259615E+02  0.83926597109E+02  0.00000000000E+00 0.  1.
         11    1    4    4    0    0 -0.36219502683E+02 -0.93212038004E+01  0.46200615038E+02  0.59441013154E+02  0.00000000000E+00 0. -1.
        -11    1    3    3    0    0 -0.27405370151E+02 -0.15999665899E+02 -0.11150311425E+02  0.33635889566E+02  0.00000000000E+00 0. -1.
         11    1    3    3    0    0  0.59604659395E+02 -0.58777293022E+02  0.20973493529E+02  0.86298163523E+02  0.00000000000E+00 0.  1.
         21    1    1    2  502  501  0.22332351170E+02  0.46900749373E+01  0.11047689844E+03  0.11280902358E+03  0.00000000000E+00 0.  1.
<scales pt_clust_5="13000.00000" pt_clust_6="13000.00000" pt_clust_7="13000.00000" pt_clust_8="13000.00000" pt_clust_9="22.81952"></scales>
<clustering>
<clus scale="   22.820">  1  9  2 -1</clus>
<clus scale="   87.517">  7  8 -1 -1</clus>
<clus scale="   90.978">  5  6 -1 -1</clus>
<clus scale="  121.018">  2  7  1 -1</clus>
<clus scale="   22.820">  1  5  2 -1</clus>
</clustering>
</event>
<event>
 9    1  0.9000149E-006  0.1148132E+03  0.7546771E-02  0.1252309E+00
          1   -1    0    0  502    0  0.00000000000E+00  0.00000000000E+00  0.31413568570E+03  0.31413568570E+03  0.00000000000E+00 0. -1.
         -1   -1    0    0    0  501 -0.00000000000E+00 -0.00000000000E+00 -0.57725998156E+02  0.57725998156E+02  0.00000000000E+00 0.  1.
         23    2    1    2    0    0 -0.67440042623E+02 -0.61348652250E+01  0.69406071916E+02  0.13337834929E+03  0.91579393528E+02 0.  0.
         23    2    1    2    0    0  0.66429400990E+02  0.34425949845E+02  0.13208288977E+03  0.17669585207E+03  0.90429657906E+02 0.  0.
        -11    1    4    4    0    0  0.58980970361E+02 -0.10755174071E+01  0.12704582073E+03  0.14007338136E+03  0.00000000000E+00 0. -1.
         11    1    4    4    0    0  0.74484306290E+01  0.35501467252E+02  0.50370690431E+01  0.36622470703E+02  0.00000000000E+00 0.  1.
        -11    1    3    3    0    0 -0.41646446044E+02  0.29153639759E+01  0.89961674444E+02  0.99176754756E+02  0.00000000000E+00 0. -1.
         11    1    3    3    0    0 -0.25793596579E+02 -0.90502292009E+01 -0.20555602528E+02  0.34201594529E+02  0.00000000000E+00 0.  1.
         21    1    1    2  502  501  0.10106416332E+01 -0.28291084620E+02  0.54920725856E+02  0.61787482502E+02  0.00000000000E+00 0.  1.
<scales pt_clust_5="13000.00000" pt_clust_6="13000.00000" pt_clust_7="13000.00000" pt_clust_8="13000.00000" pt_clust_9="28.30913"></scales>
<clustering>
<clus scale="   28.309">  1  9  2 -1</clus>
<clus scale="   90.430">  5  6 -1 -1</clus>
<clus scale="   91.579">  7  8 -1 -1</clus>
<clus scale="  113.898">  1  5  2 -1</clus>
<clus scale="   28.309">  1  5  2 -1</clus>
</clustering>
</event>
<event>
 9    1  0.9000149E-006  0.9570429E+02  0.7546771E-02  0.1290314E+00
          1   -1    0    0  502    0  0.00000000000E+00  0.00000000000E+00  0.22607787508E+03  0.22607787508E+03  0.00000000000E+00 0. -1.
         -1   -1    0    0    0  501 -0.00000000000E+00 -0.00000000000E+00 -0.17316510336E+03  0.17316510336E+03  0.00000000000E+00 0.  1.
         23    2    1    2    0    0  0.17991038560E+02 -0.23686273303E+02 -0.13734391887E+03  0.16689900520E+03  0.90040040396E+02 0.  0.
         23    2    1    2    0    0 -0.32477150039E+02 -0.55049725061E+01  0.11630913682E+03  0.15153421537E+03  0.91376874101E+02 0.  0.
        -11    1    4    4    0    0  0.24497833433E+02 -0.10815226798E+02  0.78518882858E+02  0.82959797124E+02  0.00000000000E+00 0.  1.
         11    1    4    4    0    0 -0.56974983472E+02  0.53102542916E+01  0.37790253967E+02  0.68574418241E+02  0.00000000000E+00 0. -1.
        -13    1    3    3    0    0  0.21285718782E+02 -0.50520102930E+02 -0.12631914249E+03  0.13770217276E+03  0.00000000000E+00 0.  1.
         13    1    3    3    0    0 -0.32946802214E+01  0.26833829628E+02 -0.11024776385E+02  0.29196832441E+02  0.00000000000E+00 0. -1.
         21    1    1    2  502  501  0.14486111479E+02  0.29191245809E+02  0.73947553771E+02  0.80809757866E+02  0.00000000000E+00 0. -1.
<scales pt_clust_5="13000.00000" pt_clust_6="13000.00000" pt_clust_7="13000.00000" pt_clust_8="13000.00000" pt_clust_9="32.58798"></scales>
<clustering>
<clus scale="   32.588">  1  9  2 -1</clus>
<clus scale="   90.040">  7  8 -1 -1</clus>
<clus scale="   91.377">  5  6 -1 -1</clus>
<clus scale="   94.429">  2  7  1 -1</clus>
<clus scale="   32.588">  1  5  2 -1</clus>
</clustering>
</event>
<event>
 9    1  0.9000149E-006  0.3601600E+03  0.7546771E-02  0.1058528E+00
          1   -1    0    0  502    0  0.00000000000E+00  0.00000000000E+00  0.52080186282E+03  0.52080186282E+03  0.00000000000E+00 0. -1.
         -1   -1    0    0    0  501 -0.00000000000E+00 -0.00000000000E+00 -0.67336305376E+03  0.67336305376E+03  0.00000000000E+00 0.  1.
         23    2    1    2    0    0  0.35056127590E+03 -0.69744959909E+02 -0.45742151132E+03  0.58770806360E+03  0.91699298813E+02 0.  0.
         23    2    1    2    0    0 -0.31373640736E+03  0.72990574533E+02  0.37920405821E+02  0.33696933389E+03  0.91390467386E+02 0.  0.
        -11    1    3    3    0    0  0.31355816574E+03 -0.62289440870E+02 -0.44508656829E+03  0.54799703559E+03  0.00000000000E+00 0.  1.
         11    1    3    3    0    0  0.37003110164E+02 -0.74555190388E+01 -0.12334943038E+02  0.39711028011E+02  0.00000000000E+00 0. -1.
        -13    1    4    4    0    0 -0.10244388363E+03  0.65650316966E+02 -0.25949116602E+01  0.12170228830E+03  0.00000000000E+00 0.  1.
         13    1    4    4    0    0 -0.21129252373E+03  0.73402575671E+01  0.40515317481E+02  0.21526704558E+03  0.00000000000E+00 0. -1.
         21    1    1    2  502  501 -0.36824868546E+02 -0.32456146240E+01  0.26693991457E+03  0.26948751909E+03  0.00000000000E+00 0. -1.
<scales pt_clust_5="13000.00000" pt_clust_6="13000.00000" pt_clust_7="13000.00000" pt_clust_8="13000.00000" pt_clust_9="36.96762"></scales>
<clustering>
<clus scale="   36.968">  1  9  2 -1</clus>
<clus scale="   91.390">  7  8 -1 -1</clus>
<clus scale="   91.699">  5  6 -1 -1</clus>
<clus scale="  360.082">  1  7  2 -1</clus>
<clus scale="   36.968">  1  5  2 -1</clus>
</clustering>
</event>
<event>
 9    1  0.9000149E-006  0.9193237E+02  0.7546771E-02  0.1298355E+00
          2   -1    0    0  502    0  0.00000000000E+00  0.00000000000E+00  0.33109671823E+03  0.33109671823E+03  0.00000000000E+00 0. -1.
         -2   -1    0    0    0  501 -0.00000000000E+00 -0.00000000000E+00 -0.12594324041E+03  0.12594324041E+03  0.00000000000E+00 0.  1.
         23    2    1    2    0    0 -0.72853877536E+01 -0.12938480664E+02 -0.94862637287E+02  0.13192085505E+03  0.90463865097E+02 0.  0.
         23    2    1    2    0    0 -0.15251508287E+02  0.29011763097E+02  0.21289182426E+03  0.23370299917E+03  0.90663510196E+02 0.  0.
        -11    1    3    3    0    0  0.21814568384E+01 -0.51253045223E+02 -0.62676651353E+02  0.80993802376E+02  0.00000000000E+00 0. -1.
         11    1    3    3    0    0 -0.94668445920E+01  0.38314564559E+02 -0.32185985934E+02  0.50927052677E+02  0.00000000000E+00 0.  1.
        -13    1    4    4    0    0 -0.16083996199E+02  0.61603430349E+02  0.14656074482E+03  0.15979277045E+03  0.00000000000E+00 0.  1.
         13    1    4    4    0    0  0.83248791124E+00 -0.32591667252E+02  0.66331079441E+02  0.73910228725E+02  0.00000000000E+00 0. -1.
         21    1    1    2  502  501  0.22536896041E+02 -0.16073282433E+02  0.87124290843E+02  0.91416104414E+02  0.00000000000E+00 0. -1.
<scales pt_clust_5="13000.00000" pt_clust_6="13000.00000" pt_clust_7="13000.00000" pt_clust_8="13000.00000" pt_clust_9="27.68144"></scales>
<clustering>
<clus scale="   27.681">  1  9  2 -1</clus>
<clus scale="   90.464">  5  6 -1 -1</clus>
<clus scale="   90.664">  7  8 -1 -1</clus>
<clus scale="   91.735">  2  5  1 -1</clus>
<clus scale="   27.681">  1  5  2 -1</clus>
</clustering>
</event>
<event>
 9    1  0.9000149E-006  0.1060522E+03  0.7546771E-02  0.1274230E+00
         -1   -1    0    0    0  501 -0.00000000000E+00  0.00000000000E+00  0.54100320214E+03  0.54100320214E+03  0.00000000000E+00 0.  1.
          1   -1    0    0  502    0  0.00000000000E+00 -0.00000000000E+00 -0.37106592187E+02  0.37106592187E+02  0.00000000000E+00 0. -1.
         23    2    1    2    0    0 -0.66319016029E+02 -0.20400477543E+02  0.36136302663E+03  0.37572561528E+03  0.75974400935E+02 0.  0.
         23    2    1    2    0    0  0.24642423061E+02 -0.93759536796E+00  0.11415778986E+03  0.14763532141E+03  0.90310902127E+02 0.  0.
        -11    1    3    3    0    0 -0.26292684757E+02 -0.41487777184E+02  0.26177246603E+03  0.26634069329E+03  0.00000000000E+00 0.  1.
         11    1    3    3    0    0 -0.40026331272E+02  0.21087299640E+02  0.99590560592E+02  0.10938492200E+03  0.00000000000E+00 0. -1.
        -13    1    4    4    0    0  0.37527082218E+02  0.36976845890E+02  0.74771409797E+02  0.91467659611E+02  0.00000000000E+00 0.  1.
         13    1    4    4    0    0 -0.12884659157E+02 -0.37914441258E+02  0.39386380068E+02  0.56167661803E+02  0.00000000000E+00 0. -1.
         21    1    1    2  502  501  0.41676592968E+02  0.21338072911E+02  0.28375793462E+02  0.54748857628E+02  0.00000000000E+00 0. -1.
<scales pt_clust_5="13000.00000" pt_clust_6="13000.00000" pt_clust_7="13000.00000" pt_clust_8="13000.00000" pt_clust_9="46.82149"></scales>
<clustering>
<clus scale="   46.821">  2  9  1 -1</clus>
<clus scale="   75.974">  5  6 -1 -1</clus>
<clus scale="   90.311">  7  8 -1 -1</clus>
<clus scale="   94.144">  1  5  2 -1</clus>
<clus scale="   46.821">  2  5  1 -1</clus>
</clustering>
</event>
<event>
 9    1  0.9000149E-006  0.1106828E+03  0.7546771E-02  0.1262081E+00
         -1   -1    0    0    0  501 -0.00000000000E+00  0.00000000000E+00  0.35268365012E+02  0.35268365012E+02  0.00000000000E+00 0.  1.
          1   -1    0    0  502    0  0.00000000000E+00 -0.00000000000E+00 -0.76782669256E+03  0.76782669256E+03  0.00000000000E+00 0. -1.
         23    2    1    2    0    0 -0.21594546281E+02 -0.39321555934E+02 -0.12106434440E+03  0.15428090457E+03  0.84460125751E+02 0.  0.
         23    2    1    2    0    0  0.44120736575E+02  0.10568498385E+03 -0.40346715171E+03  0.42929946918E+03  0.91631525779E+02 0.  0.
        -11    1    3    3    0    0 -0.47712827241E+02 -0.47271496795E+02 -0.96383866770E+02  0.11747747897E+03  0.00000000000E+00 0.  1.
         11    1    3    3    0    0  0.26118280960E+02  0.79499408612E+01 -0.24680477627E+02  0.36803425600E+02  0.00000000000E+00 0. -1.
        -13    1    4    4    0    0 -0.26930542581E+02  0.37104597654E+02 -0.96457894266E+02  0.10679948809E+03  0.00000000000E+00 0.  1.
         13    1    4    4    0    0  0.71051279156E+02  0.68580386199E+02 -0.30700925745E+03  0.32249998108E+03  0.00000000000E+00 0. -1.
         21    1    1    2  502  501 -0.22526190293E+02 -0.66363427920E+02 -0.20802683144E+03  0.21951468382E+03  0.00000000000E+00 0.  1.
<scales pt_clust_5="13000.00000" pt_clust_6="13000.00000" pt_clust_7="13000.00000" pt_clust_8="13000.00000" pt_clust_9="70.08234"></scales>
<clustering>
<clus scale="   70.082">  2  9  1 -1</clus>
<clus scale="   84.460">  5  6 -1 -1</clus>
<clus scale="   91.632">  7  8 -1 -1</clus>
<clus scale="  104.823">  1  5  2 -1</clus>
<clus scale="   70.082">  2  5  1 -1</clus>
</clustering>
</event>
<event>
 9    1  0.9000149E-006  0.9918541E+02  0.7546771E-02  0.1282433E+00
          1   -1    0    0  502    0  0.00000000000E+00  0.00000000000E+00  0.53410907565E+03  0.53410907565E+03  0.00000000000E+00 0. -1.
         -1   -1    0    0    0  501 -0.00000000000E+00 -0.00000000000E+00 -0.37368665975E+02  0.37368665975E+02  0.00000000000E+00 0.  1.
         23    2    1    2    0    0 -0.33290422880E+02  0.40350522901E+02  0.86720672734E+02  0.13646288635E+03  0.91461616634E+02 0.  0.
         23    2    1    2    0    0 -0.20229974081E+00  0.45192157319E+00  0.24845827359E+03  0.26504806916E+03  0.92296912677E+02 0.  0.
        -13    1    4    4    0    0  0.31342029233E+02 -0.18214062935E+02  0.20507365989E+03  0.20825292523E+03  0.00000000000E+00 0. -1.
         13    1    4    4    0    0 -0.31544328974E+02  0.18665984508E+02  0.43384613705E+02  0.56795143933E+02  0.00000000000E+00 0.  1.
        -13    1    3    3    0    0 -0.33691412190E+02 -0.22768284187E+01 -0.61058710754E+01  0.34315839849E+02  0.00000000000E+00 0.  1.
         13    1    3    3    0    0  0.40098930932E+00  0.42627351320E+02  0.92826543810E+02  0.10214704650E+03  0.00000000000E+00 0. -1.
         21    1    1    2  502  501  0.33492722621E+02 -0.40802444474E+02  0.16156146335E+03  0.16996678612E+03  0.00000000000E+00 0. -1.
<scales pt_clust_5="13000.00000" pt_clust_6="13000.00000" pt_clust_7="13000.00000" pt_clust_8="13000.00000" pt_clust_9="52.78827"></scales>
<clustering>
<clus scale="   52.788">  1  9  2 -1</clus>
<clus scale="   91.462">  7  8 -1 -1</clus>
<clus scale="   92.297">  5  6 -1 -1</clus>
<clus scale="   98.409">  2  7  1 -1</clus>
<clus scale="   52.788">  1  5  2 -1</clus>
</clustering>
</event>
<event>
 9    1  0.9000149E-006  0.9804856E+02  0.7546771E-02  0.1287346E+00
          1   -1    0    0  502    0  0.00000000000E+00  0.00000000000E+00  0.14234135205E+03  0.14234135205E+03  0.00000000000E+00 0. -1.
         -1   -1    0    0    0  501 -0.00000000000E+00 -0.00000000000E+00 -0.99944968493E+02  0.99944968493E+02  0.00000000000E+00 0.  1.
         23    2    1    2    0    0  0.82823051626E+00 -0.20309637610E+02 -0.81922510357E+01  0.91176462217E+02  0.88503485467E+02 0.  0.
         23    2    1    2    0    0 -0.25888952377E+02  0.33255080864E+02  0.12512539306E+02  0.10372406601E+03  0.93946686856E+02 0.  0.
        -11    1    4    4    0    0  0.15708258642E+02  0.51475929813E+02  0.20542854606E+02  0.57606680299E+02  0.00000000000E+00 0. -1.
         11    1    4    4    0    0 -0.41597211019E+02 -0.18220848949E+02 -0.80303152999E+01  0.46117385711E+02  0.00000000000E+00 0.  1.
        -11    1    3    3    0    0 -0.36248346464E+02  0.14992130417E+02 -0.77247513515E+01  0.39979724602E+02  0.00000000000E+00 0.  1.
         11    1    3    3    0    0  0.37076576981E+02 -0.35301768027E+02 -0.46749968422E+00  0.51196737615E+02  0.00000000000E+00 0. -1.
         21    1    1    2  502  501  0.25060721860E+02 -0.12945443254E+02  0.38076095292E+02  0.47385792321E+02  0.00000000000E+00 0.  1.
<scales pt_clust_5="13000.00000" pt_clust_6="13000.00000" pt_clust_7="13000.00000" pt_clust_8="13000.00000" pt_clust_9="28.20681"></scales>
<clustering>
<clus scale="   28.207">  1  9  2 -1</clus>
<clus scale="   88.503">  7  8 -1 -1</clus>
<clus scale="   92.846">  2  7  1 -1</clus>
<clus scale="   93.947">  5  6 -1 -1</clus>
<clus scale="   28.207">  1  5  2 -1</clus>
</clustering>
</event>
<event>
 9    1  0.9000149E-006  0.9779980E+02  0.7546771E-02  0.1287423E+00
          2   -1    0    0  502    0  0.00000000000E+00  0.00000000000E+00  0.46395437250E+02  0.46395437250E+02  0.00000000000E+00 0. -1.
         -2   -1    0    0    0  501 -0.00000000000E+00 -0.00000000000E+00 -0.54958354152E+03  0.54958354152E+03  0.00000000000E+00 0.  1.
         23    2    1    2    0    0 -0.99820061006E+01  0.19514033340E+02 -0.33462598255E+03  0.34722955343E+03  0.90074283984E+02 0.  0.
         23    2    1    2    0    0 -0.50297040600E+02 -0.46458941159E+02 -0.10339775917E+03  0.15598097341E+03  0.94608360917E+02 0.  0.
        -11    1    3    3    0    0 -0.33359290129E+02  0.44946197420E+02 -0.24153867897E+03  0.24793938038E+03  0.00000000000E+00 0.  1.
         11    1    3    3    0    0  0.23377284028E+02 -0.25432164080E+02 -0.93087303574E+02  0.99290173053E+02  0.00000000000E+00 0. -1.
        -11    1    4    4    0    0 -0.16423800802E+02  0.27119667737E+02 -0.49162567233E+02  0.58499364337E+02  0.00000000000E+00 0.  1.
         11    1    4    4    0    0 -0.33873239797E+02 -0.73578608897E+02 -0.54235191941E+02  0.97481609068E+02  0.00000000000E+00 0. -1.
         21    1    1    2  502  501  0.60279046700E+02  0.26944907819E+02 -0.65164362552E+02  0.92768451940E+02  0.00000000000E+00 0. -1.
<scales pt_clust_5="13000.00000" pt_clust_6="13000.00000" pt_clust_7="13000.00000" pt_clust_8="13000.00000" pt_clust_9="66.02720"></scales>
<clustering>
<clus scale="   66.027">  1  9  2 -1</clus>
<clus scale="   90.074">  5  6 -1 -1</clus>
<clus scale="   93.421">  2  5  1 -1</clus>
<clus scale="   94.608">  7  8 -1 -1</clus>
<clus scale="   66.027">  1  5  2 -1</clus>
</clustering>
</event>
<event>
 9    1  0.9000149E-006  0.1715193E+03  0.7546771E-02  0.1177586E+00
          1   -1    0    0  502    0  0.00000000000E+00  0.00000000000E+00  0.76265155738E+03  0.76265155738E+03  0.00000000000E+00 0. -1.
         -1   -1    0    0    0  501 -0.00000000000E+00 -0.00000000000E+00 -0.93147413761E+02  0.93147413761E+02  0.00000000000E+00 0.  1.
         23    2    1    2    0    0  0.14075923815E+02  0.14500697624E+03  0.12627299753E+02  0.16925717819E+03  0.85225517768E+02 0.  0.
         23    2    1    2    0    0 -0.32893879492E+02 -0.12197339833E+03  0.61652170646E+03  0.63640998386E+03  0.94652711615E+02 0.  0.
        -13    1    4    4    0    0 -0.52066602375E+02 -0.54769822616E+02  0.19493312599E+03  0.20906838154E+03  0.00000000000E+00 0.  1.
         13    1    4    4    0    0  0.19172722883E+02 -0.67203575710E+02  0.42158858047E+03  0.42734160232E+03  0.00000000000E+00 0. -1.
        -13    1    3    3    0    0 -0.32767284742E+02  0.33036201006E+02  0.11267065389E+02  0.47875174034E+02  0.00000000000E+00 0. -1.
         13    1    3    3    0    0  0.46843208557E+02  0.11197077524E+03  0.13602343643E+01  0.12138200416E+03  0.00000000000E+00 0.  1.
         21    1    1    2  502  501  0.18817955677E+02 -0.23033577918E+02  0.40355137410E+02  0.50131809094E+02  0.00000000000E+00 0. -1.
<scales pt_clust_5="13000.00000" pt_clust_6="13000.00000" pt_clust_7="13000.00000" pt_clust_8="13000.00000" pt_clust_9="29.74325"></scales>
<clustering>
<clus scale="   29.743">  1  9  2 -1</clus>
<clus scale="   85.226">  7  8 -1 -1</clus>
<clus scale="   94.653">  5  6 -1 -1</clus>
<clus scale="  166.503">  2  7  1 -1</clus>
<clus scale="   29.743">  1  5  2 -1</clus>
</clustering>
</event>
<event>
 9    1  0.9000149E-006  0.1277191E+03  0.7546771E-02  0.1233556E+00
          1   -1    0    0  502    0  0.00000000000E+00  0.00000000000E+00  0.84933540492E+02  0.84933540492E+02  0.00000000000E+00 0. -1.
         -1   -1    0    0    0  501 -0.00000000000E+00 -0.00000000000E+00 -0.30790440626E+03  0.30790440626E+03  0.00000000000E+00 0.  1.
         23    2    1    2    0    0  0.61527802445E+01 -0.93356452485E+02 -0.18235860580E+03  0.22763551368E+03  0.99045353525E+02 0.  0.
         23    2    1    2    0    0 -0.99133134302E+01  0.61886179875E+02 -0.62889930962E+02  0.12646208855E+03  0.90051892718E+02 0.  0.
        -13    1    3    3    0    0 -0.37372945275E+02 -0.82935587067E+02 -0.13136719016E+03  0.15978857059E+03  0.00000000000E+00 0. -1.
         13    1    3    3    0    0  0.43525725520E+02 -0.10420865418E+02 -0.50991415645E+02  0.67846943097E+02  0.00000000000E+00 0.  1.
        -13    1    4    4    0    0  0.12691813782E+01  0.79299605556E+02 -0.68743079625E+02  0.10495546322E+03  0.00000000000E+00 0.  1.
         13    1    4    4    0    0 -0.11182494808E+02 -0.17413425681E+02  0.58531486622E+01  0.21506625336E+02  0.00000000000E+00 0. -1.
         21    1    1    2  502  501  0.37605331858E+01  0.31470272609E+02  0.22277670998E+02  0.38740344514E+02  0.00000000000E+00 0. -1.
<scales pt_clust_5="13000.00000" pt_clust_6="13000.00000" pt_clust_7="13000.00000" pt_clust_8="13000.00000" pt_clust_9="31.69416"></scales>
<clustering>
<clus scale="   31.694">  1  9  2 -1</clus>
<clus scale="   90.052">  7  8 -1 -1</clus>
<clus scale="   99.045">  5  6 -1 -1</clus>
<clus scale="  120.878">  1  7  2 -1</clus>
<clus scale="   31.694">  1  5  2 -1</clus>
</clustering>
</event>
<event>
 9    1  0.9000149E-006  0.1364541E+03  0.7546771E-02  0.1218446E+00
          2   -1    0    0  502    0  0.00000000000E+00  0.00000000000E+00  0.49732867597E+03  0.49732867597E+03  0.00000000000E+00 0. -1.
         -2   -1    0    0    0  501 -0.00000000000E+00 -0.00000000000E+00 -0.75357002697E+02  0.75357002697E+02  0.00000000000E+00 0.  1.
         23    2    1    2    0    0  0.89825625754E+02 -0.93298555575E+01  0.40794621436E+02  0.13526620017E+03  0.92070921167E+02 0.  0.
         23    2    1    2    0    0 -0.13831143891E+03  0.11447099126E+02  0.30065719310E+03  0.34340456239E+03  0.90944243918E+02 0.  0.
        -13    1    3    3    0    0  0.86529668896E+02  0.27663345162E+02  0.21244151868E+02  0.93295006584E+02  0.00000000000E+00 0. -1.
         13    1    3    3    0    0  0.32959568578E+01 -0.36993200720E+02  0.19550469568E+02  0.41971193591E+02  0.00000000000E+00 0.  1.
        -13    1    4    4    0    0 -0.16293201335E+02 -0.12105833824E+02  0.25820020677E+01  0.20461826825E+02  0.00000000000E+00 0.  1.
         13    1    4    4    0    0 -0.12201823757E+03  0.23552932950E+02  0.29807519103E+03  0.32294273557E+03  0.00000000000E+00 0. -1.
         21    1    1    2  502  501  0.48485813154E+02 -0.21172435682E+01  0.80519858744E+02  0.94014916102E+02  0.00000000000E+00 0.  1.
<scales pt_clust_5="13000.00000" pt_clust_6="13000.00000" pt_clust_7="13000.00000" pt_clust_8="13000.00000" pt_clust_9="48.53202"></scales>
<clustering>
<clus scale="   48.532">  1  9  2 -1</clus>
<clus scale="   90.944">  7  8 -1 -1</clus>
<clus scale="   92.071">  5  6 -1 -1</clus>
<clus scale="  135.696">  1  7  2 -1</clus>
<clus scale="   48.532">  1  5  2 -1</clus>
</clustering>
</event>
<event>
 9    1  0.9000149E-006  0.1433749E+03  0.7546771E-02  0.1211703E+00
         -1   -1    0    0    0  501 -0.00000000000E+00  0.00000000000E+00  0.19775618944E+03  0.19775618944E+03  0.00000000000E+00 0.  1.
          1   -1    0    0  502    0  0.00000000000E+00 -0.00000000000E+00 -0.29439820287E+03  0.29439820287E+03  0.00000000000E+00 0. -1.
         23    2    1    2    0    0  0.90355321282E+02  0.46172823124E+02  0.81975133928E+02  0.15849002161E+03  0.90017502121E+02 0.  0.
         23    2    1    2    0    0 -0.10610845212E+03 -0.59307936225E+00  0.13374660729E+01  0.14735995028E+03  0.10224387892E+03 0.  0.
        -11    1    4    4    0    0 -0.65889329149E+02  0.18746505286E+02  0.47338043775E+02  0.83268995098E+02  0.00000000000E+00 0.  1.
         11    1    4    4    0    0 -0.40219122973E+02 -0.19339584649E+02 -0.46000577702E+02  0.64090955181E+02  0.00000000000E+00 0. -1.
        -13    1    3    3    0    0  0.25066649603E+02  0.48374197450E+02  0.75131124646E+02  0.92806711998E+02  0.00000000000E+00 0.  1.
         13    1    3    3    0    0  0.65288671679E+02 -0.22013743254E+01  0.68440092817E+01  0.65683309612E+02  0.00000000000E+00 0. -1.
         21    1    1    2  502  501  0.15753130840E+02 -0.45579743762E+02 -0.17995461343E+03  0.18630442042E+03  0.00000000000E+00 0. -1.
<scales pt_clust_5="13000.00000" pt_clust_6="13000.00000" pt_clust_7="13000.00000" pt_clust_8="13000.00000" pt_clust_9="48.22524"></scales>
<clustering>
<clus scale="   48.225">  2  9  1 -1</clus>
<clus scale="   90.018">  7  8 -1 -1</clus>
<clus scale="  102.244">  5  6 -1 -1</clus>
<clus scale="  134.928">  1  7  2 -1</clus>
<clus scale="   48.225">  2  5  1 -1</clus>
</clustering>
</event>
<event>
 9    1  0.9000149E-006  0.9850348E+02  0.7546771E-02  0.1283757E+00
          2   -1    0    0  502    0  0.00000000000E+00  0.00000000000E+00  0.22590376991E+03  0.22590376991E+03  0.00000000000E+00 0. -1.
         -2   -1    0    0    0  501 -0.00000000000E+00 -0.00000000000E+00 -0.12798511386E+03  0.12798511386E+03  0.00000000000E+00 0.  1.
         23    2    1    2    0    0  0.26761351464E+02  0.25878303884E+02 -0.86940664452E+02  0.13197577875E+03  0.92049282976E+02 0.  0.
         23    2    1    2    0    0 -0.67724701468E+01 -0.24764820422E+02  0.11466619387E+03  0.14892084346E+03  0.91487260962E+02 0.  0.
        -13    1    4    4    0    0 -0.48146219349E+02 -0.17724425513E+02  0.77010179163E+02  0.92535298087E+02  0.00000000000E+00 0. -1.
         13    1    4    4    0    0  0.41373749202E+02 -0.70403949098E+01  0.37656014704E+02  0.56385545372E+02  0.00000000000E+00 0.  1.
        -13    1    3    3    0    0  0.79864021202E+01  0.46041838013E+02 -0.92715590047E+02  0.10382588360E+03  0.00000000000E+00 0.  1.
         13    1    3    3    0    0  0.18774949344E+02 -0.20163534129E+02  0.57749255949E+01  0.28149895152E+02  0.00000000000E+00 0. -1.
         21    1    1    2  502  501 -0.19988881317E+02 -0.11134834616E+01  0.70193126633E+02  0.72992261564E+02  0.00000000000E+00 0. -1.
<scales pt_clust_5="13000.00000" pt_clust_6="13000.00000" pt_clust_7="13000.00000" pt_clust_8="13000.00000" pt_clust_9="20.01987"></scales>
<clustering>
<clus scale="   20.020">  1  9  2 -1</clus>
<clus scale="   91.487">  5  6 -1 -1</clus>
<clus scale="   92.049">  7  8 -1 -1</clus>
<clus scale="   97.978">  1  5  2 -1</clus>
<clus scale="   20.020">  1  5  2 -1</clus>
</clustering>
</event>
<event>
 9    1  0.9000149E-006  0.1771735E+03  0.7546771E-02  0.1170716E+00
         -1   -1    0    0    0  501 -0.00000000000E+00  0.00000000000E+00  0.68819523537E+03  0.68819523537E+03  0.00000000000E+00 0.  1.
          1   -1    0    0  502    0  0.00000000000E+00 -0.00000000000E+00 -0.55957942760E+02  0.55957942760E+02  0.00000000000E+00 0. -1.
         23    2    1    2    0    0  0.56911692472E+02  0.14475646668E+03  0.35369365838E+03  0.39728742733E+03  0.92437657613E+02 0.  0.
         23    2    1    2    0    0 -0.74025852307E+02 -0.12699147075E+03  0.27014697296E+03  0.32080824771E+03  0.91279156141E+02 0.  0.
        -11    1    4    4    0    0 -0.81604169805E+02 -0.62027198853E+02  0.12534092115E+03  0.16191652306E+03  0.00000000000E+00 0. -1.
         11    1    4    4    0    0  0.75783174975E+01 -0.64964271896E+02  0.14480605181E+03  0.15889172464E+03  0.00000000000E+00 0.  1.
        -13    1    3    3    0    0  0.21666428134E+02  0.14346767337E+03  0.29640807003E+03  0.33001538054E+03  0.00000000000E+00 0.  1.
         13    1    3    3    0    0  0.35245264338E+02  0.12887933082E+01  0.57285588353E+02  0.67272046791E+02  0.00000000000E+00 0. -1.
         21    1    1    2  502  501  0.17114159835E+02 -0.17764995929E+02  0.83966612676E+01  0.26057503097E+02  0.00000000000E+00 0. -1.
<scales pt_clust_5="13000.00000" pt_clust_6="13000.00000" pt_clust_7="13000.00000" pt_clust_8="13000.00000" pt_clust_9="24.66758"></scales>
<clustering>
<clus scale="   24.668">  2  9  1 -1</clus>
<clus scale="   91.279">  5  6 -1 -1</clus>
<clus scale="   92.438">  7  8 -1 -1</clus>
<clus scale="  176.572">  2  5  1 -1</clus>
<clus scale="   24.668">  2  5  1 -1</clus>
</clustering>
</event>
<event>
 9    1  0.9000149E-006  0.1009491E+03  0.7546771E-02  0.1279288E+00
          2   -1    0    0  502    0  0.00000000000E+00  0.00000000000E+00  0.74392990665E+03  0.74392990665E+03  0.00000000000E+00 0. -1.
         -2   -1    0    0    0  501 -0.00000000000E+00 -0.00000000000E+00 -0.22112728517E+02  0.22112728517E+02  0.00000000000E+00 0.  1.
         23    2    1    2    0    0 -0.44150988450E+02  0.10936037975E+02  0.14617343531E+03  0.17757424342E+03  0.89983509748E+02 0.  0.
         23    2    1    2    0    0  0.32882469785E+02  0.92839795292E+01  0.43557974959E+03  0.44650448499E+03  0.92027646797E+02 0.  0.
        -11    1    4    4    0    0  0.49539662553E+02  0.38939747209E+02  0.24895972143E+03  0.25681009515E+03  0.00000000000E+00 0.  1.
         11    1    4    4    0    0 -0.16657192769E+02 -0.29655767679E+02  0.18662002816E+03  0.18969438984E+03  0.00000000000E+00 0. -1.
        -13    1    3    3    0    0  0.66724280590E+00  0.31388585826E+02  0.10294619009E+02  0.33040395180E+02  0.00000000000E+00 0.  1.
         13    1    3    3    0    0 -0.44818231255E+02 -0.20452547851E+02  0.13587881630E+03  0.14453384824E+03  0.00000000000E+00 0. -1.
         21    1    1    2  502  501  0.11268518665E+02 -0.20220017504E+02  0.14006399323E+03  0.14196390675E+03  0.00000000000E+00 0. -1.
<scales pt_clust_5="13000.00000" pt_clust_6="13000.00000" pt_clust_7="13000.00000" pt_clust_8="13000.00000" pt_clust_9="23.14797"></scales>
<clustering>
<clus scale="   23.148">  1  9  2 -1</clus>
<clus scale="   89.984">  7  8 -1 -1</clus>
<clus scale="   92.028">  5  6 -1 -1</clus>
<clus scale="   99.089">  2  7  1 -1</clus>
<clus scale="   23.148">  1  5  2 -1</clus>
</clustering>
</event>
<event>
 9    1  0.9000149E-006  0.1215643E+03  0.7546771E-02  0.1241234E+00
          1   -1    0    0  502    0  0.00000000000E+00  0.00000000000E+00  0.11827051808E+03  0.11827051808E+03  0.00000000000E+00 0. -1.
         -1   -1    0    0    0  501 -0.00000000000E+00 -0.00000000000E+00 -0.20962811992E+03  0.20962811992E+03  0.00000000000E+00 0.  1.
         23    2    1    2    0    0 -0.75854969167E+01  0.84462914177E+02 -0.11815150298E+03  0.17327101104E+03  0.94188863322E+02 0.  0.
         23    2    1    2    0    0 -0.55948748058E+01 -0.62355145725E+02 -0.77669526206E+01  0.11153553677E+03  0.91980343482E+02 0.  0.
        -11    1    4    4    0    0  0.17820725963E+02  0.18481929263E+02  0.57147722647E+01  0.26302444852E+02  0.00000000000E+00 0.  1.
         11    1    4    4    0    0 -0.23415600769E+02 -0.80837074988E+02 -0.13481724885E+02  0.85233091918E+02  0.00000000000E+00 0. -1.
        -13    1    3    3    0    0  0.25655557299E+02  0.13895567476E+02 -0.82496126825E+02  0.87503744817E+02  0.00000000000E+00 0.  1.
         13    1    3    3    0    0 -0.33241054216E+02  0.70567346701E+02 -0.35655376155E+02  0.85767266218E+02  0.00000000000E+00 0. -1.
         21    1    1    2  502  501  0.13180371722E+02 -0.22107768453E+02  0.34560853755E+02  0.43092090190E+02  0.00000000000E+00 0. -1.
<scales pt_clust_5="13000.00000" pt_clust_6="13000.00000" pt_clust_7="13000.00000" pt_clust_8="13000.00000" pt_clust_9="25.73860"></scales>
<clustering>
<clus scale="   25.739">  1  9  2 -1</clus>
<clus scale="   91.980">  5  6 -1 -1</clus>
<clus scale="   94.189">  7  8 -1 -1</clus>
<clus scale="  119.861">  1  5  2 -1</clus>
<clus scale="   25.739">  1  5  2 -1</clus>
</clustering>
</event>
<event>
 9    1  0.9000149E-006  0.1196706E+03  0.7546771E-02  0.1243867E+00
          1   -1    0    0  502    0  0.00000000000E+00  0.00000000000E+00  0.15772228871E+03  0.15772228871E+03  0.00000000000E+00 0. -1.
         -1   -1    0    0    0  501 -0.00000000000E+00 -0.00000000000E+00 -0.14172305448E+03  0.14172305448E+03  0.00000000000E+00 0.  1.
         23    2    1    2    0    0 -0.14130683532E+02 -0.80186857935E+02 -0.26892852838E+02  0.12594801043E+03  0.92250026530E+02 0.  0.
         23    2    1    2    0    0 -0.87895587787E+01  0.69928510227E+02 -0.78173523879E+01  0.11691095229E+03  0.92950561481E+02 0.  0.
        -11    1    4    4    0    0  0.88033935410E+01  0.89119364467E+02 -0.12617224715E+02  0.90437576374E+02  0.00000000000E+00 0. -1.
         11    1    4    4    0    0 -0.17592952320E+02 -0.19190854240E+02  0.47998723269E+01  0.26473375911E+02  0.00000000000E+00 0.  1.
        -11    1    3    3    0    0 -0.33860936269E+02 -0.72871564362E+02 -0.50043137442E+02  0.94663316562E+02  0.00000000000E+00 0.  1.
         11    1    3    3    0    0  0.19730252737E+02 -0.73152935733E+01  0.23150284603E+02  0.31284693867E+02  0.00000000000E+00 0. -1.
         21    1    1    2  502  501  0.22920242311E+02  0.10258347708E+02  0.50709439460E+02  0.56586380478E+02  0.00000000000E+00 0. -1.
<scales pt_clust_5="13000.00000" pt_clust_6="13000.00000" pt_clust_7="13000.00000" pt_clust_8="13000.00000" pt_clust_9="25.11118"></scales>
<clustering>
<clus scale="   25.111">  1  9  2 -1</clus>
<clus scale="   92.250">  7  8 -1 -1</clus>
<clus scale="   92.951">  5  6 -1 -1</clus>
<clus scale="  119.127">  2  7  1 -1</clus>
<clus scale="   25.111">  1  5  2 -1</clus>
</clustering>
</event>
<event>
 9    1  0.9000149E-006  0.1756988E+03  0.7546771E-02  0.1172271E+00
         -1   -1    0    0    0  501 -0.00000000000E+00  0.00000000000E+00  0.22313956829E+03  0.22313956829E+03  0.00000000000E+00 0.  1.
          1   -1    0    0  502    0  0.00000000000E+00 -0.00000000000E+00 -0.24235143416E+03  0.24235143416E+03  0.00000000000E+00 0. -1.
         23    2    1    2    0    0  0.85512707678E+02  0.12164441466E+03  0.68995510347E+02  0.18629143699E+03  0.88511763371E+02 0.  0.
         23    2    1    2    0    0 -0.25908393233E+02 -0.16366524098E+03 -0.43628289462E+02  0.19372606594E+03  0.90381441885E+02 0.  0.
        -11    1    3    3    0    0  0.56388354553E+02  0.12888035503E+03  0.68039759765E+02  0.15626644345E+03  0.00000000000E+00 0.  1.
         11    1    3    3    0    0  0.29124353125E+02 -0.72359403606E+01  0.95575058197E+00  0.30024993539E+02  0.00000000000E+00 0. -1.
        -13    1    4    4    0    0  0.29815510956E+02 -0.42589429826E+02  0.41106613674E+01  0.52150951701E+02  0.00000000000E+00 0.  1.
         13    1    4    4    0    0 -0.55723904189E+02 -0.12107581116E+03 -0.47738950829E+02  0.14157511424E+03  0.00000000000E+00 0. -1.
         21    1    1    2  502  501 -0.59604314445E+02  0.42020826318E+02 -0.44579086753E+02  0.85473499523E+02  0.00000000000E+00 0. -1.
<scales pt_clust_5="13000.00000" pt_clust_6="13000.00000" pt_clust_7="13000.00000" pt_clust_8="13000.00000" pt_clust_9="72.92753"></scales>
<clustering>
<clus scale="   72.928">  2  9  1 -1</clus>
<clus scale="   88.512">  5  6 -1 -1</clus>
<clus scale="   90.381">  7  8 -1 -1</clus>
<clus scale="  174.744">  1  5  2 -1</clus>
<clus scale="   72.928">  2  5  1 -1</clus>
</clustering>
</event>
<event>
 9    1  0.9000149E-006  0.9711691E+02  0.7546771E-02  0.1290343E+00
          1   -1    0    0  502    0  0.00000000000E+00  0.00000000000E+00  0.51674298025E+02  0.51674298025E+02  0.00000000000E+00 0. -1.
         -1   -1    0    0    0  501 -0.00000000000E+00 -0.00000000000E+00 -0.37819626253E+03  0.37819626253E+03  0.00000000000E+00 0.  1.
         23    2    1    2    0    0 -0.10184568611E+02  0.19330207404E+02 -0.23683490038E+03  0.25677168844E+03  0.96765425597E+02 0.  0.
         23    2    1    2    0    0 -0.54217781539E+00  0.23638289263E+02 -0.89124692388E+02  0.12880811623E+03  0.89940298737E+02 0.  0.
        -11    1    4    4    0    0 -0.41961053500E+02  0.14509326253E+02 -0.68539798261E+02  0.81663666981E+02  0.00000000000E+00 0.  1.
         11    1    4    4    0    0  0.41418875685E+02  0.91289630094E+01 -0.20584894127E+02  0.47144449247E+02  0.00000000000E+00 0. -1.
        -13    1    3    3    0    0 -0.49653200910E+02 -0.87485654029E+01 -0.11006290991E+03  0.12106123201E+03  0.00000000000E+00 0.  1.
         13    1    3    3    0    0  0.39468632299E+02  0.28078772807E+02 -0.12677199047E+03  0.13571045643E+03  0.00000000000E+00 0. -1.
         21    1    1    2  502  501  0.10726746427E+02 -0.42968496666E+02 -0.56237173293E+00  0.44290755882E+02  0.00000000000E+00 0.  1.
<scales pt_clust_5="13000.00000" pt_clust_6="13000.00000" pt_clust_7="13000.00000" pt_clust_8="13000.00000" pt_clust_9="44.28719"></scales>
<clustering>
<clus scale="   44.287">  1  9  2 -1</clus>
<clus scale="   89.940">  5  6 -1 -1</clus>
<clus scale="   90.318">  1  5  2 -1</clus>
<clus scale="   96.765">  7  8 -1 -1</clus>
<clus scale="   44.287">  1  5  2 -1</clus>
</clustering>
</event>
<event>
 9    1  0.9000149E-006  0.1032991E+03  0.7546771E-02  0.1277086E+00
         -1   -1    0    0    0  501 -0.00000000000E+00  0.00000000000E+00  0.78010947566E+02  0.78010947566E+02  0.00000000000E+00 0.  1.
          1   -1    0    0  502    0  0.00000000000E+00 -0.00000000000E+00 -0.40387768449E+03  0.40387768449E+03  0.00000000000E+00 0. -1.
         23    2    1    2    0    0  0.30830019335E+02  0.47940859141E+01  0.19927577132E+02  0.10499249816E+03  0.98248882883E+02 0.  0.
         23    2    1    2    0    0 -0.28550169525E+02 -0.41362524072E+02 -0.30413781112E+03  0.32141899787E+03  0.91018643491E+02 0.  0.
        -11    1    3    3    0    0  0.44938980590E+02 -0.34021633493E+02  0.27959506935E+02  0.62918340331E+02  0.00000000000E+00 0.  1.
         11    1    3    3    0    0 -0.14108961255E+02  0.38815719407E+02 -0.80319298020E+01  0.42074157830E+02  0.00000000000E+00 0. -1.
        -11    1    4    4    0    0  0.32638783870E+02 -0.96363808049E+01 -0.12265026027E+03  0.12728407752E+03  0.00000000000E+00 0.  1.
         11    1    4    4    0    0 -0.61188953395E+02 -0.31726143267E+02 -0.18148755085E+03  0.19413492035E+03  0.00000000000E+00 0. -1.
         21    1    1    2  502  501 -0.22798498104E+01  0.36568438158E+02 -0.41656502941E+02  0.55477136027E+02  0.00000000000E+00 0. -1.
<scales pt_clust_5="13000.00000" pt_clust_6="13000.00000" pt_clust_7="13000.00000" pt_clust_8="13000.00000" pt_clust_9="36.63944"></scales>
<clustering>
<clus scale="   36.639">  2  9  1 -1</clus>
<clus scale="   91.019">  7  8 -1 -1</clus>
<clus scale="   96.448">  2  7  1 -1</clus>
<clus scale="   98.249">  5  6 -1 -1</clus>
<clus scale="   36.639">  2  5  1 -1</clus>
</clustering>
</event>
<event>
 9    1  0.9000149E-006  0.1046461E+03  0.7546771E-02  0.1271837E+00
          1   -1    0    0  502    0  0.00000000000E+00  0.00000000000E+00  0.56940549352E+03  0.56940549352E+03  0.00000000000E+00 0. -1.
         -1   -1    0    0    0  501 -0.00000000000E+00 -0.00000000000E+00 -0.47328591181E+02  0.47328591181E+02  0.00000000000E+00 0.  1.
         23    2    1    2    0    0 -0.40789711158E+02 -0.38692588205E+01  0.51211986507E+02  0.11290050258E+03  0.91897139346E+02 0.  0.
         23    2    1    2    0    0  0.52449913479E+02  0.58949896454E+02  0.31480861746E+03  0.33793178822E+03  0.94166576576E+02 0.  0.
        -11    1    4    4    0    0  0.23188717463E+02  0.81988664680E+02  0.20598269094E+03  0.22290968287E+03  0.00000000000E+00 0. -1.
         11    1    4    4    0    0  0.29261196015E+02 -0.23038768226E+02  0.10882592653E+03  0.11502210534E+03  0.00000000000E+00 0.  1.
        -11    1    3    3    0    0  0.22133726636E+02 -0.25614560020E+01 -0.10610353781E+02  0.24678786822E+02  0.00000000000E+00 0.  1.
         11    1    3    3    0    0 -0.62923437794E+02 -0.13078028185E+01  0.61822340289E+02  0.88221715755E+02  0.00000000000E+00 0. -1.
         21    1    1    2  502  501 -0.11660202321E+02 -0.55080637634E+02  0.15605629837E+03  0.16590179390E+03  0.00000000000E+00 0.  1.
<scales pt_clust_5="13000.00000" pt_clust_6="13000.00000" pt_clust_7="13000.00000" pt_clust_8="13000.00000" pt_clust_9="56.30131"></scales>
<clustering>
<clus scale="   56.301">  1  9  2 -1</clus>
<clus scale="   91.897">  7  8 -1 -1</clus>
<clus scale="   94.167">  5  6 -1 -1</clus>
<clus scale="  102.609">  2  7  1 -1</clus>
<clus scale="   56.301">  1  5  2 -1</clus>
</clustering>
</event>
<event>
 9    1  0.9000149E-006  0.9877509E+02  0.7546771E-02  0.1283735E+00
          2   -1    0    0  502    0  0.00000000000E+00  0.00000000000E+00  0.26425733169E+03  0.26425733169E+03  0.00000000000E+00 0. -1.
         -2   -1    0    0    0  501 -0.00000000000E+00 -0.00000000000E+00 -0.21149503154E+03  0.21149503154E+03  0.00000000000E+00 0.  1.
         23    2    1    2    0    0  0.52271813808E+01 -0.41574407918E+02 -0.17283731191E+03  0.19881911309E+03  0.88885029801E+02 0.  0.
         23    2    1    2    0    0  0.36036263319E+01  0.22889122254E+02  0.62366815102E+02  0.11239732984E+03  0.90590518763E+02 0.  0.
        -11    1    3    3    0    0 -0.13001653465E+02  0.20697614110E+02 -0.16332545183E+02  0.29397045001E+02  0.00000000000E+00 0. -1.
         11    1    3    3    0    0  0.18228834846E+02 -0.62272022028E+02 -0.15650476673E+03  0.16942206809E+03  0.00000000000E+00 0.  1.
        -13    1    4    4    0    0  0.46367989047E+02  0.17369303594E+02  0.40941054040E+02  0.64248369797E+02  0.00000000000E+00 0.  1.
         13    1    4    4    0    0 -0.42764362716E+02  0.55198186603E+01  0.21425761062E+02  0.48148960047E+02  0.00000000000E+00 0. -1.
         21    1    1    2  502  501 -0.88308077127E+01  0.18685285664E+02  0.16323279696E+03  0.16453592030E+03  0.00000000000E+00 0.  1.
<scales pt_clust_5="13000.00000" pt_clust_6="13000.00000" pt_clust_7="13000.00000" pt_clust_8="13000.00000" pt_clust_9="20.66696"></scales>
<clustering>
<clus scale="   20.667">  1  9  2 -1</clus>
<clus scale="   88.885">  5  6 -1 -1</clus>
<clus scale="   90.591">  7  8 -1 -1</clus>
<clus scale="   97.213">  2  5  1 -1</clus>
<clus scale="   20.667">  1  5  2 -1</clus>
</clustering>
</event>
<event>
 9    1  0.9000149E-006  0.1056501E+03  0.7546771E-02  0.1271796E+00
         -2   -1    0    0    0  501 -0.00000000000E+00  0.00000000000E+00  0.18214813692E+03  0.18214813692E+03  0.00000000000E+00 0.  1.
          2   -1    0    0  502    0  0.00000000000E+00 -0.00000000000E+00 -0.11685453284E+03  0.11685453284E+03  0.00000000000E+00 0. -1.
         23    2    1    2    0    0  0.51143906982E+01 -0.34975256196E+02  0.11595809983E+03  0.15789557366E+03  0.10116968779E+03 0.  0.
         23    2    1    2    0    0 -0.11462794969E+02  0.15682544856E+02 -0.12402342695E+02  0.97788470742E+02  0.95033830945E+02 0.  0.
        -11    1    3    3    0    0 -0.29988190991E+02 -0.53295185768E+02  0.95304699394E+02  0.11323715888E+03  0.00000000000E+00 0.  1.
         11    1    3    3    0    0  0.35102581689E+02  0.18319929573E+02  0.20653400433E+02  0.44658414775E+02  0.00000000000E+00 0. -1.
        -13    1    4    4    0    0  0.21303658206E+02 -0.31598082435E+02  0.30315124429E+01  0.38229239257E+02  0.00000000000E+00 0.  1.
         13    1    4    4    0    0 -0.32766453175E+02  0.47280627290E+02 -0.15433855138E+02  0.59559231485E+02  0.00000000000E+00 0. -1.
         21    1    1    2  502  501  0.63484042710E+01  0.19292711340E+02 -0.38262153050E+02  0.43318625367E+02  0.00000000000E+00 0.  1.
<scales pt_clust_5="13000.00000" pt_clust_6="13000.00000" pt_clust_7="13000.00000" pt_clust_8="13000.00000" pt_clust_9="20.31037"></scales>
<clustering>
<clus scale="   20.310">  2  9  1 -1</clus>
<clus scale="   95.034">  7  8 -1 -1</clus>
<clus scale="   99.790">  2  7  1 -1</clus>
<clus scale="  101.170">  5  6 -1 -1</clus>
<clus scale="   20.310">  2  5  1 -1</clus>
</clustering>
</event>
<event>
 9    1  0.9000149E-006  0.1561364E+03  0.7546771E-02  0.1215616E+00
         -1   -1    0    0    0  501 -0.00000000000E+00  0.00000000000E+00  0.15737143070E+03  0.15737143070E+03  0.00000000000E+00 0.  1.
          1   -1    0    0  502    0  0.00000000000E+00 -0.00000000000E+00 -0.24748175376E+03  0.24748175376E+03  0.00000000000E+00 0. -1.
         23    2    1    2    0    0  0.57769208557E+02 -0.67496850290E+02  0.36873666279E+02  0.15517504658E+03  0.12176420476E+03 0.  0.
         23    2    1    2    0    0  0.30567334921E+02 -0.80355540883E+01 -0.38369565518E+02  0.10352409197E+03  0.90807939998E+02 0.  0.
        -13    1    4    4    0    0 -0.16144043866E+02 -0.27577932723E+02  0.10015540048E+02  0.33488558764E+02  0.00000000000E+00 0.  1.
         13    1    4    4    0    0  0.46711378787E+02  0.19542378635E+02 -0.48385105566E+02  0.70035533207E+02  0.00000000000E+00 0. -1.
        -13    1    3    3    0    0  0.26182661060E+02  0.33897146448E+02  0.23424168092E+00  0.42832267587E+02  0.00000000000E+00 0. -1.
         13    1    3    3    0    0  0.31586547498E+02 -0.10139399674E+03  0.36639424598E+02  0.11234277899E+03  0.00000000000E+00 0.  1.
         21    1    1    2  502  501 -0.88336543478E+02  0.75532404378E+02 -0.88614423822E+02  0.14615404590E+03  0.00000000000E+00 0. -1.
<scales pt_clust_5="13000.00000" pt_clust_6="13000.00000" pt_clust_7="13000.00000" pt_clust_8="13000.00000" pt_clust_9="97.73467"></scales>
<clustering>
<clus scale="   90.808">  5  6 -1 -1</clus>
<clus scale="   96.151">  2  5  1 -1</clus>
<clus scale="   97.735">  2  9  1 -1</clus>
<clus scale="  121.764">  7  8 -1 -1</clus>
<clus scale="   96.151">  2  5  1 -1</clus>
</clustering>
</event>
<event>
 9    1  0.1302144E-005  0.9157525E+02  0.7546771E-02  0.1299975E+00
         -1   -1    0    0    0  501 -0.00000000000E+00  0.00000000000E+00  0.21787721422E+03  0.21787721422E+03  0.00000000000E+00 0.  1.
          1   -1    0    0  502    0  0.00000000000E+00 -0.00000000000E+00 -0.15391977235E+03  0.15391977235E+03  0.00000000000E+00 0. -1.
         23    2    1    2    0    0 -0.53833153780E+01  0.25171178796E+01  0.17951636397E+03  0.20148115869E+03  0.91286452493E+02 0.  0.
         23    2    1    2    0    0  0.73395039032E+01 -0.29233471569E+02 -0.10531423521E+03  0.14163580282E+03  0.89783897918E+02 0.  0.
        -11    1    4    4    0    0 -0.25356335929E+02  0.11853934084E+02 -0.77106826872E+02  0.82030008383E+02  0.00000000000E+00 0.  1.
         11    1    4    4    0    0  0.32695839832E+02 -0.41087405653E+02 -0.28207408342E+02  0.59605794441E+02  0.00000000000E+00 0. -1.
        -13    1    3    3    0    0 -0.46978675516E+02  0.15420050814E+01  0.69899979253E+02  0.84234083556E+02  0.00000000000E+00 0.  1.
         13    1    3    3    0    0  0.41595360138E+02  0.97511279822E+00  0.10961638471E+03  0.11724707513E+03  0.00000000000E+00 0. -1.
         21    1    1    2  502  501 -0.19561885252E+01  0.26716353689E+02 -0.10244686877E+02  0.28680025056E+02  0.00000000000E+00 0. -1.
<scales pt_clust_5="13000.00000" pt_clust_6="13000.00000" pt_clust_7="13000.00000" pt_clust_8="13000.00000" pt_clust_9="26.78787"></scales>
<clustering>
<clus scale="   26.788">  2  9  1 -1</clus>
<clus scale="   89.784">  5  6 -1 -1</clus>
<clus scale="   90.078">  2  5  1 -1</clus>
<clus scale="   91.286">  7  8 -1 -1</clus>
<clus scale="   26.788">  2  5  1 -1</clus>
</clustering>
</event>
<event>
 9    1  0.9000149E-006  0.1224583E+03  0.7546771E-02  0.1240339E+00
         -2   -1    0    0    0  501 -0.00000000000E+00  0.00000000000E+00  0.42399910193E+02  0.42399910193E+02  0.00000000000E+00 0.  1.
          2   -1    0    0  502    0  0.00000000000E+00 -0.00000000000E+00 -0.50119192625E+03  0.50119192625E+03  0.00000000000E+00 0. -1.
         23    2    1    2    0    0  0.20320431845E+02  0.71833777266E+02 -0.10011945449E+03  0.15378544113E+03  0.89738761021E+02 0.  0.
         23    2    1    2    0    0 -0.40258647298E+00 -0.81282963785E+02 -0.33599926457E+03  0.35818225759E+03  0.93765353849E+02 0.  0.
        -11    1    4    4    0    0 -0.18906874868E+02  0.15384192362E+02 -0.89510898326E+02  0.92770384342E+02  0.00000000000E+00 0.  1.
         11    1    4    4    0    0  0.18504288395E+02 -0.96667156147E+02 -0.24648836624E+03  0.26541187324E+03  0.00000000000E+00 0. -1.
        -13    1    3    3    0    0 -0.17766619343E+01  0.74677540665E+02 -0.30495571277E+02  0.80683774546E+02  0.00000000000E+00 0.  1.
         13    1    3    3    0    0  0.22097093779E+02 -0.28437633996E+01 -0.69623883213E+02  0.73101666584E+02  0.00000000000E+00 0. -1.
         21    1    1    2  502  501 -0.19917845372E+02  0.94491865194E+01 -0.22673297002E+02  0.31624137728E+02  0.00000000000E+00 0.  1.
<scales pt_clust_5="13000.00000" pt_clust_6="13000.00000" pt_clust_7="13000.00000" pt_clust_8="13000.00000" pt_clust_9="22.04558"></scales>
<clustering>
<clus scale="   22.046">  1  9  2 -1</clus>
<clus scale="   89.739">  7  8 -1 -1</clus>
<clus scale="   93.765">  5  6 -1 -1</clus>
<clus scale="  119.403">  1  7  2 -1</clus>
<clus scale="  122.458">  2  5  1 -1</clus>
</clustering>
</event>
<event>
 9    1  0.9000149E-006  0.1137516E+03  0.7546771E-02  0.1254353E+00
          2   -1    0    0  502    0  0.00000000000E+00  0.00000000000E+00  0.77218529761E+02  0.77218529761E+02  0.00000000000E+00 0. -1.
         -2   -1    0    0    0  501 -0.00000000000E+00 -0.00000000000E+00 -0.22109471343E+03  0.22109471343E+03  0.00000000000E+00 0.  1.
         23    2    1    2    0    0  0.66974733151E+02  0.32738837287E+02 -0.10876212694E+03  0.15983258684E+03  0.90331662292E+02 0.  0.
         23    2    1    2    0    0 -0.43334247978E+02 -0.36642869154E+02 -0.37580959623E+02  0.11439332329E+03  0.91939909606E+02 0.  0.
        -11    1    3    3    0    0  0.47768087546E+02  0.15512638459E+02 -0.22865778777E+01  0.50275844878E+02  0.00000000000E+00 0. -1.
         11    1    3    3    0    0  0.19206645605E+02  0.17226198828E+02 -0.10647554907E+03  0.10955674197E+03  0.00000000000E+00 0.  1.
        -13    1    4    4    0    0  0.15913197800E+02 -0.39597061774E+02  0.25851165255E+01  0.42753245407E+02  0.00000000000E+00 0. -1.
         13    1    4    4    0    0 -0.59247445778E+02  0.29541926196E+01 -0.40166076149E+02  0.71640077879E+02  0.00000000000E+00 0.  1.
         21    1    1    2  502  501 -0.23640485173E+02  0.39040318676E+01  0.24669028990E+01  0.24087333060E+02  0.00000000000E+00 0.  1.
<scales pt_clust_5="13000.00000" pt_clust_6="13000.00000" pt_clust_7="13000.00000" pt_clust_8="13000.00000" pt_clust_9="23.96068"></scales>
<clustering>
<clus scale="   23.961">  1  9  2 -1</clus>
<clus scale="   90.332">  5  6 -1 -1</clus>
<clus scale="   91.940">  7  8 -1 -1</clus>
<clus scale="  112.456">  2  5  1 -1</clus>
<clus scale="   23.961">  1  5  2 -1</clus>
</clustering>
</event>
<event>
 9    1  0.9000149E-006  0.9995192E+02  0.7546771E-02  0.1281290E+00
          1   -1    0    0  502    0  0.00000000000E+00  0.00000000000E+00  0.12251347230E+03  0.12251347230E+03  0.00000000000E+00 0. -1.
         -1   -1    0    0    0  501 -0.00000000000E+00 -0.00000000000E+00 -0.11232365549E+03  0.11232365549E+03  0.00000000000E+00 0.  1.
         23    2    1    2    0    0 -0.30040239622E+02  0.47788914348E+01 -0.25416496172E+02  0.10171900555E+03  0.93677660154E+02 0.  0.
         23    2    1    2    0    0  0.42327851178E+02  0.15987269429E+02  0.19917983297E+02  0.10433718197E+03  0.91881890018E+02 0.  0.
        -11    1    3    3    0    0  0.14988182214E+02  0.36514180628E+02 -0.24823833484E+02  0.46627821114E+02  0.00000000000E+00 0.  1.
         11    1    3    3    0    0 -0.45028421836E+02 -0.31735289193E+02 -0.59266268766E+00  0.55091184433E+02  0.00000000000E+00 0. -1.
        -13    1    4    4    0    0  0.10332445823E+02  0.52067229921E+02  0.27659534468E+01  0.53154551703E+02  0.00000000000E+00 0.  1.
         13    1    4    4    0    0  0.31995405355E+02 -0.36079960491E+02  0.17152029851E+02  0.51182630265E+02  0.00000000000E+00 0. -1.
         21    1    1    2  502  501 -0.12287611556E+02 -0.20766160864E+02  0.15688329684E+02  0.28780940274E+02  0.00000000000E+00 0. -1.
<scales pt_clust_5="13000.00000" pt_clust_6="13000.00000" pt_clust_7="13000.00000" pt_clust_8="13000.00000" pt_clust_9="24.12921"></scales>
<clustering>
<clus scale="   24.129">  1  9  2 -1</clus>
<clus scale="   91.882">  7  8 -1 -1</clus>
<clus scale="   93.678">  5  6 -1 -1</clus>
<clus scale="   98.271">  1  7  2 -1</clus>
<clus scale="   24.129">  1  5  2 -1</clus>
</clustering>
</event>
<event>
 9    1  0.9000149E-006  0.1200991E+03  0.7546771E-02  0.1248962E+00
          2   -1    0    0  502    0  0.00000000000E+00  0.00000000000E+00  0.75517444440E+03  0.75517444440E+03  0.00000000000E+00 0. -1.
         -2   -1    0    0    0  501 -0.00000000000E+00 -0.00000000000E+00 -0.27205944209E+02  0.27205944209E+02  0.00000000000E+00 0.  1.
         23    2    1    2    0    0  0.62337378174E+02  0.49397865980E+02  0.35988120091E+03  0.38339492881E+03  0.10559874425E+03 0.  0.
         23    2    1    2    0    0 -0.10203471773E+02 -0.44341544822E+02  0.26281783719E+03  0.28140497575E+03  0.89695381140E+02 0.  0.
        -11    1    4    4    0    0 -0.31631508673E+02 -0.25531532221E+02  0.24372127369E+03  0.24708798175E+03  0.00000000000E+00 0. -1.
         11    1    4    4    0    0  0.21428036899E+02 -0.18810012600E+02  0.19096563502E+02  0.34316993997E+02  0.00000000000E+00 0.  1.
        -13    1    3    3    0    0 -0.28021646394E+02  0.14822741562E+02  0.54436116920E+02  0.62993786673E+02  0.00000000000E+00 0.  1.
         13    1    3    3    0    0  0.90359024568E+02  0.34575124418E+02  0.30544508399E+03  0.32040114214E+03  0.00000000000E+00 0. -1.
         21    1    1    2  502  501 -0.52133906401E+02 -0.50563211587E+01  0.10526946209E+03  0.11758048405E+03  0.00000000000E+00 0.  1.
<scales pt_clust_5="13000.00000" pt_clust_6="13000.00000" pt_clust_7="13000.00000" pt_clust_8="13000.00000" pt_clust_9="52.37853"></scales>
<clustering>
<clus scale="   52.379">  2  9  1 -1</clus>
<clus scale="   89.695">  5  6 -1 -1</clus>
<clus scale="  105.599">  7  8 -1 -1</clus>
<clus scale="  106.386">  1  5  2 -1</clus>
<clus scale="  106.386">  1  5  2 -1</clus>
</clustering>
</event>
<event>
 9    1  0.9000149E-006  0.9538259E+02  0.7546771E-02  0.1292349E+00
          1   -1    0    0  502    0  0.00000000000E+00  0.00000000000E+00  0.16784615646E+03  0.16784615646E+03  0.00000000000E+00 0. -1.
         -1   -1    0    0    0  501 -0.00000000000E+00 -0.00000000000E+00 -0.26118403163E+03  0.26118403163E+03  0.00000000000E+00 0.  1.
         23    2    1    2    0    0 -0.46631612755E+02 -0.30153174433E+02 -0.17779138526E+03  0.20906237448E+03  0.94939867887E+02 0.  0.
         23    2    1    2    0    0  0.57900214397E+01 -0.53072383624E+01  0.12309200380E+03  0.15349669467E+03  0.91366858034E+02 0.  0.
        -13    1    3    3    0    0 -0.69830495549E+02  0.25672530051E+01 -0.11302157486E+03  0.13287876159E+03  0.00000000000E+00 0.  1.
         13    1    3    3    0    0  0.23198882794E+02 -0.32720427438E+02 -0.64769810401E+02  0.76183612896E+02  0.00000000000E+00 0. -1.
        -13    1    4    4    0    0  0.28337842987E+02  0.33791326158E+02  0.43184131320E+02  0.61723223073E+02  0.00000000000E+00 0.  1.
         13    1    4    4    0    0 -0.22547821548E+02 -0.39098564520E+02  0.79907872483E+02  0.91773471597E+02  0.00000000000E+00 0. -1.
         21    1    1    2  502  501  0.40841591316E+02  0.35460412795E+02 -0.38638493714E+02  0.66471118941E+02  0.00000000000E+00 0. -1.
<scales pt_clust_5="13000.00000" pt_clust_6="13000.00000" pt_clust_7="13000.00000" pt_clust_8="13000.00000" pt_clust_9="54.08767"></scales>
<clustering>
<clus scale="   54.088">  2  9  1 -1</clus>
<clus scale="   91.367">  7  8 -1 -1</clus>
<clus scale="   91.827">  1  7  2 -1</clus>
<clus scale="   94.940">  5  6 -1 -1</clus>
<clus scale="   91.827">  1  5  2 -1</clus>
</clustering>
</event>
<event>
 9    1  0.9000149E-006  0.2839485E+03  0.7546771E-02  0.1093567E+00
          1   -1    0    0  502    0  0.00000000000E+00  0.00000000000E+00  0.77256867594E+03  0.77256867594E+03  0.00000000000E+00 0. -1.
         -1   -1    0    0    0  501 -0.00000000000E+00 -0.00000000000E+00 -0.24779573441E+03  0.24779573441E+03  0.00000000000E+00 0.  1.
         23    2    1    2    0    0  0.27338868663E+03  0.99532844877E+01 -0.11839932210E+03  0.31196136113E+03  0.91983963352E+02 0.  0.
         23    2    1    2    0    0 -0.23837385220E+03  0.11370795200E+02  0.55852687248E+03  0.61435201389E+03  0.92329525526E+02 0.  0.
        -11    1    3    3    0    0  0.96123442907E+02 -0.31113641144E+02 -0.72343347288E+02  0.12426316767E+03  0.00000000000E+00 0.  1.
         11    1    3    3    0    0  0.17726524372E+03  0.41066925632E+02 -0.46055974809E+02  0.18769819346E+03  0.00000000000E+00 0. -1.
        -13    1    4    4    0    0 -0.10575814502E+03  0.49448430033E+02  0.28533888134E+03  0.30829889665E+03  0.00000000000E+00 0.  1.
         13    1    4    4    0    0 -0.13261570718E+03 -0.38077634833E+02  0.27318799114E+03  0.30605311723E+03  0.00000000000E+00 0. -1.
         21    1    1    2  502  501 -0.35014834427E+02 -0.21324079688E+02  0.84645391148E+02  0.94051035332E+02  0.00000000000E+00 0.  1.
<scales pt_clust_5="13000.00000" pt_clust_6="13000.00000" pt_clust_7="13000.00000" pt_clust_8="13000.00000" pt_clust_9="40.99701"></scales>
<clustering>
<clus scale="   40.997">  1  9  2 -1</clus>
<clus scale="   91.984">  5  6 -1 -1</clus>
<clus scale="   92.330">  7  8 -1 -1</clus>
<clus scale="  283.836">  2  5  1 -1</clus>
<clus scale="   40.997">  1  5  2 -1</clus>
</clustering>
</event>
<event>
 9    1  0.9000149E-006  0.1142269E+03  0.7546771E-02  0.1253051E+00
         -1   -1    0    0    0  501 -0.00000000000E+00  0.00000000000E+00  0.44297998943E+02  0.44297998943E+02  0.00000000000E+00 0.  1.
          1   -1    0    0  502    0  0.00000000000E+00 -0.00000000000E+00 -0.38293432852E+03  0.38293432852E+03  0.00000000000E+00 0. -1.
         23    2    1    2    0    0 -0.29651344083E+02  0.46456628377E+02 -0.94251814327E+02  0.14164361631E+03  0.90233524880E+02 0.  0.
         23    2    1    2    0    0  0.47620386318E+02 -0.64039252644E+02 -0.21922123418E+03  0.25001869753E+03  0.89903684718E+02 0.  0.
        -13    1    4    4    0    0  0.26681300325E+02 -0.72693845001E+02 -0.21282700355E+03  0.22647653373E+03  0.00000000000E+00 0. -1.
         13    1    4    4    0    0  0.20939085993E+02  0.86545923571E+01 -0.63942306272E+01  0.23542163800E+02  0.00000000000E+00 0.  1.
        -13    1    3    3    0    0  0.28211394766E+02  0.42045030471E+01 -0.49614461124E+02  0.57228973371E+02  0.00000000000E+00 0. -1.
         13    1    3    3    0    0 -0.57862738849E+02  0.42252125330E+02 -0.44637353203E+02  0.84414642942E+02  0.00000000000E+00 0.  1.
         21    1    1    2  502  501 -0.17969042235E+02  0.17582624266E+02 -0.25163281075E+02  0.35570013626E+02  0.00000000000E+00 0. -1.
<scales pt_clust_5="13000.00000" pt_clust_6="13000.00000" pt_clust_7="13000.00000" pt_clust_8="13000.00000" pt_clust_9="25.14031"></scales>
<clustering>
<clus scale="   25.140">  1  9  2 -1</clus>
<clus scale="   89.904">  5  6 -1 -1</clus>
<clus scale="   90.234">  7  8 -1 -1</clus>
<clus scale="  113.966">  2  5  1 -1</clus>
<clus scale="  113.966">  2  5  1 -1</clus>
</clustering>
</event>
<event>
 9    1  0.9000149E-006  0.1126510E+03  0.7546771E-02  0.1256275E+00
         -1   -1    0    0    0  501 -0.00000000000E+00  0.00000000000E+00  0.47769568085E+03  0.47769568085E+03  0.00000000000E+00 0.  1.
          1   -1    0    0  502    0  0.00000000000E+00 -0.00000000000E+00 -0.60351028487E+02  0.60351028487E+02  0.00000000000E+00 0. -1.
         23    2    1    2    0    0 -0.17094219826E+01  0.72133508993E+02  0.39616255425E+03  0.41247499671E+03  0.89357082973E+02 0.  0.
         23    2    1    2    0    0  0.44029842975E+01 -0.49587789779E+02  0.15435694315E+02  0.10214980217E+03  0.87852070315E+02 0.  0.
        -11    1    3    3    0    0  0.37850665489E+02  0.37867836734E+02  0.12008239501E+03  0.13147785946E+03  0.00000000000E+00 0. -1.
         11    1    3    3    0    0 -0.39560087472E+02  0.34265672259E+02  0.27608015924E+03  0.28099713725E+03  0.00000000000E+00 0.  1.
        -13    1    4    4    0    0 -0.24459139971E+02 -0.38267521848E+02  0.41594696795E+02  0.61585481714E+02  0.00000000000E+00 0.  1.
         13    1    4    4    0    0  0.28862124268E+02 -0.11320267931E+02 -0.26159002480E+02  0.40564320456E+02  0.00000000000E+00 0. -1.
         21    1    1    2  502  501 -0.26935623149E+01 -0.22545719214E+02  0.57464037987E+01  0.23421910457E+02  0.00000000000E+00 0. -1.
<scales pt_clust_5="13000.00000" pt_clust_6="13000.00000" pt_clust_7="13000.00000" pt_clust_8="13000.00000" pt_clust_9="22.70605"></scales>
<clustering>
<clus scale="   22.706">  2  9  1 -1</clus>
<clus scale="   87.852">  7  8 -1 -1</clus>
<clus scale="   89.357">  5  6 -1 -1</clus>
<clus scale="  111.461">  2  7  1 -1</clus>
<clus scale="   22.706">  2  5  1 -1</clus>
</clustering>
</event>
<event>
 9    1  0.9000149E-006  0.1080831E+03  0.7546771E-02  0.1266895E+00
          1   -1    0    0  502    0  0.00000000000E+00  0.00000000000E+00  0.18987772260E+03  0.18987772260E+03  0.00000000000E+00 0. -1.
         -1   -1    0    0    0  501 -0.00000000000E+00 -0.00000000000E+00 -0.11379411771E+03  0.11379411771E+03  0.00000000000E+00 0.  1.
         23    2    1    2    0    0 -0.46038744277E+02  0.45912534616E+01 -0.51356285329E+02  0.11343433509E+03  0.89940173179E+02 0.  0.
         23    2    1    2    0    0  0.62059683069E+02  0.15438677865E+02  0.10522418284E+03  0.15630512713E+03  0.96277760032E+02 0.  0.
        -11    1    3    3    0    0 -0.64651018503E+02  0.14440263498E+02 -0.61202241478E+02  0.90188634346E+02  0.00000000000E+00 0.  1.
         11    1    3    3    0    0  0.18612274226E+02 -0.98490100359E+01  0.98459561486E+01  0.23245700743E+02  0.00000000000E+00 0. -1.
        -11    1    4    4    0    0  0.40491336440E+02 -0.14634105537E+02  0.11080801335E+03  0.11887859856E+03  0.00000000000E+00 0. -1.
         11    1    4    4    0    0  0.21568346629E+02  0.30072783402E+02 -0.55838305158E+01  0.37426528574E+02  0.00000000000E+00 0.  1.
         21    1    1    2  502  501 -0.16020938793E+02 -0.20029931327E+02  0.22215707379E+02  0.33932378094E+02  0.00000000000E+00 0.  1.
<scales pt_clust_5="13000.00000" pt_clust_6="13000.00000" pt_clust_7="13000.00000" pt_clust_8="13000.00000" pt_clust_9="25.64895"></scales>
<clustering>
<clus scale="   25.649">  1  9  2 -1</clus>
<clus scale="   89.940">  5  6 -1 -1</clus>
<clus scale="   96.278">  7  8 -1 -1</clus>
<clus scale="  102.478">  2  5  1 -1</clus>
<clus scale="   25.649">  1  5  2 -1</clus>
</clustering>
</event>
<event>
 9    1  0.9000149E-006  0.1275209E+03  0.7546771E-02  0.1231822E+00
         -1   -1    0    0    0  501 -0.00000000000E+00  0.00000000000E+00  0.33238111614E+02  0.33238111614E+02  0.00000000000E+00 0.  1.
          1   -1    0    0  502    0  0.00000000000E+00 -0.00000000000E+00 -0.59069974030E+03  0.59069974030E+03  0.00000000000E+00 0. -1.
         23    2    1    2    0    0  0.88598517284E+02  0.10663791988E+02 -0.23219610346E+03  0.26474833925E+03  0.90626921774E+02 0.  0.
         23    2    1    2    0    0 -0.80875581820E+02 -0.32341103887E+02 -0.29366289666E+03  0.32009634554E+03  0.92935282960E+02 0.  0.
        -13    1    3    3    0    0  0.69320157217E+02 -0.18429490275E+02 -0.75212688457E+02  0.10393208751E+03  0.00000000000E+00 0.  1.
         13    1    3    3    0    0  0.19278360066E+02  0.29093282263E+02 -0.15698341500E+03  0.16081625174E+03  0.00000000000E+00 0. -1.
        -13    1    4    4    0    0 -0.81980855746E+02 -0.57999859793E+02 -0.25036536837E+03  0.26975481854E+03  0.00000000000E+00 0.  1.
         13    1    4    4    0    0  0.11052739254E+01  0.25658755907E+02 -0.43297528290E+02  0.50341527005E+02  0.00000000000E+00 0. -1.
         21    1    1    2  502  501 -0.77229354632E+01  0.21677311899E+02 -0.31602628565E+02  0.39093167121E+02  0.00000000000E+00 0.  1.
<scales pt_clust_5="13000.00000" pt_clust_6="13000.00000" pt_clust_7="13000.00000" pt_clust_8="13000.00000" pt_clust_9="23.01194"></scales>
<clustering>
<clus scale="   23.012">  1  9  2 -1</clus>
<clus scale="   90.627">  5  6 -1 -1</clus>
<clus scale="   92.935">  7  8 -1 -1</clus>
<clus scale="  125.849">  1  5  2 -1</clus>
<clus scale="  127.521">  2  5  1 -1</clus>
</clustering>
</event>
<event>
 9    1  0.9000149E-006  0.1024936E+03  0.7546771E-02  0.1279938E+00
          1   -1    0    0  502    0  0.00000000000E+00  0.00000000000E+00  0.33164474038E+02  0.33164474038E+02  0.00000000000E+00 0. -1.
         -1   -1    0    0    0  501 -0.00000000000E+00 -0.00000000000E+00 -0.51272704920E+03  0.51272704920E+03  0.00000000000E+00 0.  1.
         23    2    1    2    0    0 -0.28779388201E+02  0.38623948515E+02 -0.36601122376E+03  0.38119092814E+03  0.94985499927E+02 0.  0.
         23    2    1    2    0    0  0.10115804651E+02 -0.12272248649E+02 -0.87959517146E+02  0.12349764111E+03  0.85216507275E+02 0.  0.
        -13    1    4    4    0    0 -0.18110024246E+02  0.13155175165E+02  0.51217309900E+01  0.22962224198E+02  0.00000000000E+00 0. -1.
         13    1    4    4    0    0  0.28225828897E+02 -0.25427423814E+02 -0.93081248136E+02  0.10053541691E+03  0.00000000000E+00 0.  1.
        -13    1    3    3    0    0  0.33677785678E+02  0.26472979972E+02 -0.14249485834E+03  0.14879447762E+03  0.00000000000E+00 0. -1.
         13    1    3    3    0    0 -0.62457173879E+02  0.12150968543E+02 -0.22351636542E+03  0.23239645053E+03  0.00000000000E+00 0.  1.
         21    1    1    2  502  501  0.18663583550E+02 -0.26351699865E+02 -0.25591834258E+02  0.41202953989E+02  0.00000000000E+00 0. -1.
<scales pt_clust_5="13000.00000" pt_clust_6="13000.00000" pt_clust_7="13000.00000" pt_clust_8="13000.00000" pt_clust_9="32.29151"></scales>
<clustering>
<clus scale="   32.292">  1  9  2 -1</clus>
<clus scale="   85.217">  5  6 -1 -1</clus>
<clus scale="   93.512">  1  5  2 -1</clus>
<clus scale="   94.985">  7  8 -1 -1</clus>
<clus scale="   32.292">  1  5  2 -1</clus>
</clustering>
</event>
<event>
 9    1  0.9000149E-006  0.9683575E+02  0.7546771E-02  0.1287662E+00
          2   -1    0    0  502    0  0.00000000000E+00  0.00000000000E+00  0.39623061860E+03  0.39623061860E+03  0.00000000000E+00 0. -1.
         -2   -1    0    0    0  501 -0.00000000000E+00 -0.00000000000E+00 -0.65282447151E+02  0.65282447151E+02  0.00000000000E+00 0.  1.
         23    2    1    2    0    0 -0.12307335976E+02 -0.40836806163E+02  0.90358170203E+01  0.10065908005E+03  0.90727554533E+02 0.  0.
         23    2    1    2    0    0  0.66471299493E+01  0.31071986603E+01  0.10108068162E+03  0.13675090912E+03  0.91813223063E+02 0.  0.
        -11    1    3    3    0    0 -0.49915669592E+02 -0.21722409044E+02 -0.82669019083E+01  0.55061590902E+02  0.00000000000E+00 0.  1.
         11    1    3    3    0    0  0.37608333616E+02 -0.19114397119E+02  0.17302718929E+02  0.45597489151E+02  0.00000000000E+00 0. -1.
        -13    1    4    4    0    0 -0.13737559931E+02 -0.33066349275E+02  0.84982138759E+02  0.92217503302E+02  0.00000000000E+00 0.  1.
         13    1    4    4    0    0  0.20384689880E+02  0.36173547935E+02  0.16098542859E+02  0.44533405819E+02  0.00000000000E+00 0. -1.
         21    1    1    2  502  501  0.56602060269E+01  0.37729607503E+02  0.22083167281E+03  0.22410307658E+03  0.00000000000E+00 0. -1.
<scales pt_clust_5="13000.00000" pt_clust_6="13000.00000" pt_clust_7="13000.00000" pt_clust_8="13000.00000" pt_clust_9="38.15182"></scales>
<clustering>
<clus scale="   38.152">  1  9  2 -1</clus>
<clus scale="   90.728">  5  6 -1 -1</clus>
<clus scale="   91.813">  7  8 -1 -1</clus>
<clus scale="   95.807">  2  5  1 -1</clus>
<clus scale="   38.152">  1  5  2 -1</clus>
</clustering>
</event>
<event>
 9    1  0.9000149E-006  0.1502801E+03  0.7546771E-02  0.1200582E+00
         -2   -1    0    0    0  501 -0.00000000000E+00  0.00000000000E+00  0.16549635533E+03  0.16549635533E+03  0.00000000000E+00 0.  1.
          2   -1    0    0  502    0  0.00000000000E+00 -0.00000000000E+00 -0.50227257545E+03  0.50227257545E+03  0.00000000000E+00 0. -1.
         23    2    1    2    0    0  0.93400142175E+02  0.68305106925E+02  0.10494393990E+03  0.18088248671E+03  0.91192484810E+02 0.  0.
         23    2    1    2    0    0 -0.12775519581E+03 -0.55004567862E+02 -0.35122719340E+03  0.38918203754E+03  0.93569356188E+02 0.  0.
        -11    1    4    4    0    0 -0.68220141712E+02 -0.18180067719E+02 -0.70179440836E+02  0.99547257690E+02  0.00000000000E+00 0.  1.
         11    1    4    4    0    0 -0.59535054101E+02 -0.36824500143E+02 -0.28104775257E+03  0.28963477985E+03  0.00000000000E+00 0. -1.
        -13    1    3    3    0    0  0.59378451731E+02  0.88701999640E+02  0.85185513257E+02  0.13656652935E+03  0.00000000000E+00 0.  1.
         13    1    3    3    0    0  0.34021690445E+02 -0.20396892715E+02  0.19758426642E+02  0.44315957357E+02  0.00000000000E+00 0. -1.
         21    1    1    2  502  501  0.34355053638E+02 -0.13300539063E+02 -0.90492966614E+02  0.97704406535E+02  0.00000000000E+00 0.  1.
<scales pt_clust_5="13000.00000" pt_clust_6="13000.00000" pt_clust_7="13000.00000" pt_clust_8="13000.00000" pt_clust_9="36.83984"></scales>
<clustering>
<clus scale="   36.840">  2  9  1 -1</clus>
<clus scale="   91.192">  7  8 -1 -1</clus>
<clus scale="   93.569">  5  6 -1 -1</clus>
<clus scale="  148.812">  1  7  2 -1</clus>
<clus scale="   36.840">  2  5  1 -1</clus>
</clustering>
</event>
<event>
 9    1  0.9000149E-006  0.1230406E+03  0.7546771E-02  0.1238617E+00
         -1   -1    0    0    0  501 -0.00000000000E+00  0.00000000000E+00  0.59584972769E+02  0.59584972769E+02  0.00000000000E+00 0.  1.
          1   -1    0    0  502    0  0.00000000000E+00 -0.00000000000E+00 -0.57017285645E+03  0.57017285645E+03  0.00000000000E+00 0. -1.
         23    2    1    2    0    0 -0.74860219272E+02 -0.30108749659E+02 -0.30104807664E+02  0.12600045991E+03  0.91974057307E+02 0.  0.
         23    2    1    2    0    0  0.72789135908E+02  0.50224611396E+02 -0.35978360031E+03  0.38137558670E+03  0.90456227977E+02 0.  0.
        -11    1    3    3    0    0 -0.52062598516E+02  0.20896673864E+02  0.10319460830E+02  0.57041006431E+02  0.00000000000E+00 0. -1.
         11    1    3    3    0    0 -0.22797620756E+02 -0.51005423523E+02 -0.40424268494E+02  0.68959453479E+02  0.00000000000E+00 0.  1.
        -13    1    4    4    0    0  0.49249808043E+02 -0.12630837381E+02 -0.90004541700E+02  0.10337262293E+03  0.00000000000E+00 0.  1.
         13    1    4    4    0    0  0.23539327864E+02  0.62855448776E+02 -0.26977905861E+03  0.27800296376E+03  0.00000000000E+00 0. -1.
         21    1    1    2  502  501  0.20710833646E+01 -0.20115861737E+02 -0.12069947571E+03  0.12238178261E+03  0.00000000000E+00 0.  1.
<scales pt_clust_5="13000.00000" pt_clust_6="13000.00000" pt_clust_7="13000.00000" pt_clust_8="13000.00000" pt_clust_9="20.22220"></scales>
<clustering>
<clus scale="   20.222">  2  9  1 -1</clus>
<clus scale="   90.456">  7  8 -1 -1</clus>
<clus scale="   91.974">  5  6 -1 -1</clus>
<clus scale="  121.910">  2  7  1 -1</clus>
<clus scale="   20.222">  2  5  1 -1</clus>
</clustering>
</event>
<event>
 9    1  0.9000149E-006  0.1118167E+03  0.7546771E-02  0.1257393E+00
         -2   -1    0    0    0  501 -0.00000000000E+00  0.00000000000E+00  0.14718980700E+03  0.14718980700E+03  0.00000000000E+00 0.  1.
          2   -1    0    0  502    0  0.00000000000E+00 -0.00000000000E+00 -0.14420638076E+03  0.14420638076E+03  0.00000000000E+00 0. -1.
         23    2    1    2    0    0  0.67374575245E+02  0.14913706389E+02  0.37875950437E+02  0.11996880008E+03  0.90532719733E+02 0.  0.
         23    2    1    2    0    0 -0.62194363295E+02  0.36637493983E+02 -0.30524617572E+02  0.11943277773E+03  0.90122091227E+02 0.  0.
        -13    1    4    4    0    0 -0.83679694127E+02  0.24353281242E+02 -0.35645620419E+02  0.94159353075E+02  0.00000000000E+00 0.  1.
         13    1    4    4    0    0  0.21485330832E+02  0.12284212741E+02  0.51210028469E+01  0.25273424655E+02  0.00000000000E+00 0. -1.
        -13    1    3    3    0    0  0.21112377906E+01  0.30396911547E+02 -0.15557776961E+02  0.34212190526E+02  0.00000000000E+00 0.  1.
         13    1    3    3    0    0  0.65263337455E+02 -0.15483205159E+02  0.53433727398E+02  0.85756609549E+02  0.00000000000E+00 0. -1.
         21    1    1    2  502  501 -0.51802119503E+01 -0.51551200372E+02 -0.43679066269E+01  0.51994609950E+02  0.00000000000E+00 0.  1.
<scales pt_clust_5="13000.00000" pt_clust_6="13000.00000" pt_clust_7="13000.00000" pt_clust_8="13000.00000" pt_clust_9="51.81082"></scales>
<clustering>
<clus scale="   51.811">  2  9  1 -1</clus>
<clus scale="   90.122">  5  6 -1 -1</clus>
<clus scale="   90.533">  7  8 -1 -1</clus>
<clus scale="  111.484">  2  5  1 -1</clus>
<clus scale="   51.811">  2  5  1 -1</clus>
</clustering>
</event>
<event>
 9    1  0.9000149E-006  0.1409640E+03  0.7546771E-02  0.1212659E+00
          2   -1    0    0  502    0  0.00000000000E+00  0.00000000000E+00  0.39083980646E+03  0.39083980646E+03  0.00000000000E+00 0. -1.
         -2   -1    0    0    0  501 -0.00000000000E+00 -0.00000000000E+00 -0.66664582811E+02  0.66664582811E+02  0.00000000000E+00 0.  1.
         23    2    1    2    0    0  0.66384458985E+01 -0.94547041238E+02  0.10379224888E+03  0.16810052396E+03  0.92204898223E+02 0.  0.
         23    2    1    2    0    0 -0.17330037172E+02  0.11485392476E+03  0.13788623032E+03  0.20377447499E+03  0.94971942819E+02 0.  0.
        -11    1    3    3    0    0  0.16469521650E+02 -0.14220455525E+02 -0.13494628835E+02  0.25604130645E+02  0.00000000000E+00 0.  1.
         11    1    3    3    0    0 -0.98310757516E+01 -0.80326585713E+02  0.11728687771E+03  0.14249639331E+03  0.00000000000E+00 0. -1.
        -13    1    4    4    0    0  0.39396556792E+02  0.43668207650E+02  0.49011521423E+02  0.76558019035E+02  0.00000000000E+00 0.  1.
         13    1    4    4    0    0 -0.56726593964E+02  0.71185717114E+02  0.88874708894E+02  0.12721645595E+03  0.00000000000E+00 0. -1.
         21    1    1    2  502  501  0.10691591274E+02 -0.20306883526E+02  0.82496744451E+02  0.85629390326E+02  0.00000000000E+00 0. -1.
<scales pt_clust_5="13000.00000" pt_clust_6="13000.00000" pt_clust_7="13000.00000" pt_clust_8="13000.00000" pt_clust_9="22.94950"></scales>
<clustering>
<clus scale="   22.950">  1  9  2 -1</clus>
<clus scale="   92.205">  5  6 -1 -1</clus>
<clus scale="   94.972">  7  8 -1 -1</clus>
<clus scale="  139.115">  2  5  1 -1</clus>
<clus scale="   22.950">  1  5  2 -1</clus>
</clustering>
</event>
<event>
 9    1  0.9000149E-006  0.1124805E+03  0.7546771E-02  0.1260091E+00
          1   -1    0    0  502    0  0.00000000000E+00  0.00000000000E+00  0.22394245504E+03  0.22394245504E+03  0.00000000000E+00 0. -1.
         -1   -1    0    0    0  501 -0.00000000000E+00 -0.00000000000E+00 -0.76475245737E+02  0.76475245737E+02  0.00000000000E+00 0.  1.
         23    2    1    2    0    0 -0.73236728667E+02 -0.36111135275E+01  0.20184446587E+02  0.11236187176E+03  0.82711061981E+02 0.  0.
         23    2    1    2    0    0  0.41996443920E+02  0.18017665500E+02  0.99096441006E+02  0.14358142220E+03  0.93312285408E+02 0.  0.
        -11    1    4    4    0    0  0.71527396612E+01  0.53472045467E+02  0.46661167802E+02  0.71328016317E+02  0.00000000000E+00 0.  1.
         11    1    4    4    0    0  0.34843704259E+02 -0.35454379967E+02  0.52435273204E+02  0.72253405880E+02  0.00000000000E+00 0. -1.
        -13    1    3    3    0    0 -0.12204344079E+02  0.25061402811E+02  0.33549025814E+02  0.43618311044E+02  0.00000000000E+00 0.  1.
         13    1    3    3    0    0 -0.61032384588E+02 -0.28672516338E+02 -0.13364579227E+02  0.68743560714E+02  0.00000000000E+00 0. -1.
         21    1    1    2  502  501  0.31240284746E+02 -0.14406551972E+02  0.28186321712E+02  0.44474406825E+02  0.00000000000E+00 0.  1.
<scales pt_clust_5="13000.00000" pt_clust_6="13000.00000" pt_clust_7="13000.00000" pt_clust_8="13000.00000" pt_clust_9="34.40209"></scales>
<clustering>
<clus scale="   34.402">  1  9  2 -1</clus>
<clus scale="   82.711">  7  8 -1 -1</clus>
<clus scale="   93.312">  5  6 -1 -1</clus>
<clus scale="  103.855">  2  7  1 -1</clus>
<clus scale="   34.402">  1  5  2 -1</clus>
</clustering>
</event>
<event>
 9    1  0.9000149E-006  0.1046833E+03  0.7546771E-02  0.1275385E+00
         -2   -1    0    0    0  501 -0.00000000000E+00  0.00000000000E+00  0.25805090104E+02  0.25805090104E+02  0.00000000000E+00 0.  1.
          2   -1    0    0  502    0  0.00000000000E+00 -0.00000000000E+00 -0.63317963764E+03  0.63317963764E+03  0.00000000000E+00 0. -1.
         23    2    1    2    0    0  0.39157719885E+02  0.54924158153E+02 -0.18662896802E+03  0.21422093306E+03  0.80686097218E+02 0.  0.
         23    2    1    2    0    0 -0.22380891983E+02 -0.25627883438E+02 -0.21125579519E+03  0.23257118546E+03  0.91118892512E+02 0.  0.
        -11    1    3    3    0    0 -0.21780329149E+01  0.22744014983E+02 -0.27350830132E+01  0.23011186932E+02  0.00000000000E+00 0.  1.
         11    1    3    3    0    0  0.41335752800E+02  0.32180143170E+02 -0.18389388500E+03  0.19120974613E+03  0.00000000000E+00 0. -1.
        -13    1    4    4    0    0 -0.29269621327E+02  0.28589616636E+02 -0.69568017944E+02  0.80708029543E+02  0.00000000000E+00 0.  1.
         13    1    4    4    0    0  0.68887293443E+01 -0.54217500074E+02 -0.14168777724E+03  0.15186315592E+03  0.00000000000E+00 0. -1.
         21    1    1    2  502  501 -0.16776827902E+02 -0.29296274715E+02 -0.20948978434E+03  0.21219260922E+03  0.00000000000E+00 0.  1.
<scales pt_clust_5="13000.00000" pt_clust_6="13000.00000" pt_clust_7="13000.00000" pt_clust_8="13000.00000" pt_clust_9="33.75994"></scales>
<clustering>
<clus scale="   33.760">  2  9  1 -1</clus>
<clus scale="   80.686">  5  6 -1 -1</clus>
<clus scale="   91.119">  7  8 -1 -1</clus>
<clus scale="   95.740">  1  5  2 -1</clus>
<clus scale="   33.760">  2  5  1 -1</clus>
</clustering>
</event>
<event>
 9    1  0.9000149E-006  0.1487582E+03  0.7546771E-02  0.1202048E+00
         -2   -1    0    0    0  501 -0.00000000000E+00  0.00000000000E+00  0.25993934370E+03  0.25993934370E+03  0.00000000000E+00 0.  1.
          2   -1    0    0  502    0  0.00000000000E+00 -0.00000000000E+00 -0.15229366721E+03  0.15229366721E+03  0.00000000000E+00 0. -1.
         23    2    1    2    0    0  0.11940162601E+03 -0.22874566923E+02  0.17999159907E+03  0.23567561171E+03  0.91465972448E+02 0.  0.
         23    2    1    2    0    0 -0.99932837011E+02  0.10236914036E+02 -0.71343718285E+02  0.15332491270E+03  0.91253692487E+02 0.  0.
        -11    1    4    4    0    0 -0.50718680020E+02  0.36518577032E+02  0.32654871073E+00  0.62498780832E+02  0.00000000000E+00 0.  1.
         11    1    4    4    0    0 -0.49214156991E+02 -0.26281662995E+02 -0.71670266996E+02  0.90826131864E+02  0.00000000000E+00 0. -1.
        -13    1    3    3    0    0  0.34678091824E+02  0.18398038884E+02  0.87583849078E+01  0.40221476769E+02  0.00000000000E+00 0. -1.
         13    1    3    3    0    0  0.84723534184E+02 -0.41272605807E+02  0.17123321416E+03  0.19545413494E+03  0.00000000000E+00 0.  1.
         21    1    1    2  502  501 -0.19468788996E+02  0.12637652886E+02 -0.10022043002E+01  0.23232486498E+02  0.00000000000E+00 0. -1.
<scales pt_clust_5="13000.00000" pt_clust_6="13000.00000" pt_clust_7="13000.00000" pt_clust_8="13000.00000" pt_clust_9="23.21086"></scales>
<clustering>
<clus scale="   23.211">  2  9  1 -1</clus>
<clus scale="   91.254">  5  6 -1 -1</clus>
<clus scale="   91.466">  7  8 -1 -1</clus>
<clus scale="  148.628">  2  5  1 -1</clus>
<clus scale="   23.211">  2  5  1 -1</clus>
</clustering>
</event>
<event>
 9    1  0.9000149E-006  0.1392503E+03  0.7546771E-02  0.1226546E+00
          2   -1    0    0  502    0  0.00000000000E+00  0.00000000000E+00  0.85475007168E+03  0.85475007168E+03  0.00000000000E+00 0. -1.
         -2   -1    0    0    0  501 -0.00000000000E+00 -0.00000000000E+00 -0.12275124379E+03  0.12275124379E+03  0.00000000000E+00 0.  1.
         23    2    1    2    0    0 -0.23043529236E+02  0.24877420691E+00 -0.67641863215E+02  0.12725808169E+03  0.10530019738E+03 0.  0.
         23    2    1    2    0    0 -0.85138445009E+02  0.21060659813E+02  0.17299848435E+03  0.21397451161E+03  0.90357677170E+02 0.  0.
        -11    1    3    3    0    0 -0.59451311867E+02  0.14994582905E+02 -0.62652241314E+02  0.87661846552E+02  0.00000000000E+00 0. -1.
         11    1    3    3    0    0  0.36407782631E+02 -0.14745808698E+02 -0.49896219006E+01  0.39596235136E+02  0.00000000000E+00 0.  1.
        -11    1    4    4    0    0 -0.55353308092E+02  0.16642692383E+02  0.25054860560E+02  0.62997729833E+02  0.00000000000E+00 0.  1.
         11    1    4    4    0    0 -0.29785136917E+02  0.44179674303E+01  0.14794362379E+03  0.15097678178E+03  0.00000000000E+00 0. -1.
         21    1    1    2  502  501  0.10818197424E+03 -0.21309434020E+02  0.62664220675E+03  0.63626872217E+03  0.00000000000E+00 0.  1.
<scales pt_clust_5="13000.00000" pt_clust_6="13000.00000" pt_clust_7="13000.00000" pt_clust_8="13000.00000" pt_clust_9="105.95352"></scales>
<clustering>
<clus scale="   90.358">  7  8 -1 -1</clus>
<clus scale="  105.300">  5  6 -1 -1</clus>
<clus scale="  107.792">  2  5  1 -1</clus>
<clus scale="  105.954">  1  9  2 -1</clus>
<clus scale="  105.954">  1  5  2 -1</clus>
</clustering>
</event>
<event>
 9    1  0.9000149E-006  0.1412060E+03  0.7546771E-02  0.1211744E+00
         -3   -1    0    0    0  501 -0.00000000000E+00  0.00000000000E+00  0.54840139533E+03  0.54840139533E+03  0.00000000000E+00 0.  1.
          3   -1    0    0  502    0  0.00000000000E+00 -0.00000000000E+00 -0.71061587811E+02  0.71061587811E+02  0.00000000000E+00 0. -1.
         23    2    1    2    0    0 -0.96856907537E+02 -0.49433182880E+02  0.41433147937E+03  0.43812851241E+03  0.91984338268E+02 0.  0.
         23    2    1    2    0    0  0.10208406338E+03  0.19052886473E+02  0.45681845766E+02  0.14597216651E+03  0.91852457134E+02 0.  0.
        -11    1    4    4    0    0  0.56264578885E+02  0.49454415449E+02  0.67311044460E+00  0.74912583203E+02  0.00000000000E+00 0. -1.
         11    1    4    4    0    0  0.45819484499E+02 -0.30401528975E+02  0.45008735322E+02  0.71059583302E+02  0.00000000000E+00 0.  1.
        -13    1    3    3    0    0 -0.71673034295E+02  0.93504979781E+01  0.15494585518E+03  0.17097565234E+03  0.00000000000E+00 0.  1.
         13    1    3    3    0    0 -0.25183873241E+02 -0.58783680858E+02  0.25938562419E+03  0.26715286007E+03  0.00000000000E+00 0. -1.
         21    1    1    2  502  501 -0.52271558478E+01  0.30380296407E+02  0.17326482382E+02  0.35362304220E+02  0.00000000000E+00 0. -1.
<scales pt_clust_5="13000.00000" pt_clust_6="13000.00000" pt_clust_7="13000.00000" pt_clust_8="13000.00000" pt_clust_9="30.82670"></scales>
<clustering>
<clus scale="   30.827">  2  9  1 -1</clus>
<clus scale="   91.852">  5  6 -1 -1</clus>
<clus scale="   91.984">  7  8 -1 -1</clus>
<clus scale="  141.120">  2  5  1 -1</clus>
<clus scale="   30.827">  2  5  1 -1</clus>
</clustering>
</event>
<event>
 9    1  0.9000149E-006  0.1555396E+03  0.7546771E-02  0.1194074E+00
          3   -1    0    0  502    0  0.00000000000E+00  0.00000000000E+00  0.96553198289E+03  0.96553198289E+03  0.00000000000E+00 0. -1.
         -3   -1    0    0    0  501 -0.00000000000E+00 -0.00000000000E+00 -0.59618947080E+02  0.59618947080E+02  0.00000000000E+00 0.  1.
         23    2    1    2    0    0 -0.50663766149E+02 -0.10395877678E+03  0.94926600477E+02  0.17489670651E+03  0.90573472935E+02 0.  0.
         23    2    1    2    0    0  0.52181066537E+02  0.15206054353E+03  0.45857518147E+03  0.49457209851E+03  0.92005928923E+02 0.  0.
        -11    1    4    4    0    0  0.42475767799E+02  0.78268938523E+02  0.12935844730E+03  0.15704720779E+03  0.00000000000E+00 0. -1.
         11    1    4    4    0    0  0.97052987381E+01  0.73791605004E+02  0.32921673418E+03  0.33752489072E+03  0.00000000000E+00 0.  1.
        -11    1    3    3    0    0 -0.60156042663E+02 -0.81082344545E+02  0.29872852155E+02  0.10528762207E+03  0.00000000000E+00 0.  1.
         11    1    3    3    0    0  0.94922765147E+01 -0.22876432232E+02  0.65053748322E+02  0.69609084435E+02  0.00000000000E+00 0. -1.
         21    1    1    2  502  501 -0.15173003886E+01 -0.48101766751E+02  0.35241125386E+03  0.35568212496E+03  0.00000000000E+00 0.  1.
<scales pt_clust_5="13000.00000" pt_clust_6="13000.00000" pt_clust_7="13000.00000" pt_clust_8="13000.00000" pt_clust_9="48.12569"></scales>
<clustering>
<clus scale="   48.126">  1  9  2 -1</clus>
<clus scale="   90.573">  7  8 -1 -1</clus>
<clus scale="   92.006">  5  6 -1 -1</clus>
<clus scale="  154.697">  2  7  1 -1</clus>
<clus scale="   48.126">  1  5  2 -1</clus>
</clustering>
</event>
<event>
 9    1  0.9000149E-006  0.1574030E+03  0.7546771E-02  0.1191879E+00
          1   -1    0    0  502    0  0.00000000000E+00  0.00000000000E+00  0.12191141171E+03  0.12191141171E+03  0.00000000000E+00 0. -1.
         -1   -1    0    0    0  501 -0.00000000000E+00 -0.00000000000E+00 -0.25362090254E+03  0.25362090254E+03  0.00000000000E+00 0.  1.
         23    2    1    2    0    0  0.10625423219E+03  0.82368672941E+02 -0.10440327487E+03  0.19308594693E+03  0.91145921232E+02 0.  0.
         23    2    1    2    0    0 -0.10931206531E+03 -0.58616576184E+02 -0.14719334190E+02  0.15539194003E+03  0.92438983118E+02 0.  0.
        -11    1    3    3    0    0  0.69406479550E+02  0.98015269162E+02 -0.63508352043E+02  0.13585861464E+03  0.00000000000E+00 0.  1.
         11    1    3    3    0    0  0.36847752644E+02 -0.15646596220E+02 -0.40894922826E+02  0.57227332291E+02  0.00000000000E+00 0. -1.
        -13    1    4    4    0    0 -0.10583296512E+03 -0.25597035652E+02 -0.37460524470E+02  0.11514823331E+03  0.00000000000E+00 0. -1.
         13    1    4    4    0    0 -0.34791001918E+01 -0.33019540532E+02  0.22741190280E+02  0.40243706719E+02  0.00000000000E+00 0.  1.
         21    1    1    2  502  501  0.30578331193E+01 -0.23752096757E+02 -0.12586881771E+02  0.27054427299E+02  0.00000000000E+00 0.  1.
<scales pt_clust_5="13000.00000" pt_clust_6="13000.00000" pt_clust_7="13000.00000" pt_clust_8="13000.00000" pt_clust_9="23.94812"></scales>
<clustering>
<clus scale="   23.948">  2  9  1 -1</clus>
<clus scale="   91.146">  5  6 -1 -1</clus>
<clus scale="   92.439">  7  8 -1 -1</clus>
<clus scale="  156.647">  2  5  1 -1</clus>
<clus scale="  157.403">  1  5  2 -1</clus>
</clustering>
</event>
<event>
 9    1  0.9000149E-006  0.1893917E+03  0.7546771E-02  0.1159919E+00
          1   -1    0    0  502    0  0.00000000000E+00  0.00000000000E+00  0.55821281716E+03  0.55821281716E+03  0.00000000000E+00 0. -1.
         -1   -1    0    0    0  501 -0.00000000000E+00 -0.00000000000E+00 -0.99269923778E+02  0.99269923778E+02  0.00000000000E+00 0.  1.
         23    2    1    2    0    0  0.78242391004E+02 -0.14206634536E+03  0.61127784443E+02  0.19559581944E+03  0.90644361762E+02 0.  0.
         23    2    1    2    0    0 -0.11411182616E+03  0.11877834209E+03  0.32334568038E+03  0.37601117833E+03  0.98499613147E+02 0.  0.
        -11    1    3    3    0    0  0.46515562621E+02 -0.13463044761E+03  0.74053111882E+02  0.16053946048E+03  0.00000000000E+00 0.  1.
         11    1    3    3    0    0  0.31726828384E+02 -0.74358977437E+01 -0.12925327440E+02  0.35056358966E+02  0.00000000000E+00 0. -1.
        -13    1    4    4    0    0 -0.85151993315E+02  0.63740165763E+02  0.10687788679E+03  0.15078644960E+03  0.00000000000E+00 0.  1.
         13    1    4    4    0    0 -0.28959832844E+02  0.55038176324E+02  0.21646779359E+03  0.22522472874E+03  0.00000000000E+00 0. -1.
         21    1    1    2  502  501  0.35869435154E+02  0.23288003269E+02  0.74469428562E+02  0.85875743169E+02  0.00000000000E+00 0. -1.
<scales pt_clust_5="13000.00000" pt_clust_6="13000.00000" pt_clust_7="13000.00000" pt_clust_8="13000.00000" pt_clust_9="42.76620"></scales>
<clustering>
<clus scale="   42.766">  1  9  2 -1</clus>
<clus scale="   90.644">  5  6 -1 -1</clus>
<clus scale="   98.500">  7  8 -1 -1</clus>
<clus scale="  185.428">  2  5  1 -1</clus>
<clus scale="   42.766">  1  5  2 -1</clus>
</clustering>
</event>
<event>
 9    1  0.9000149E-006  0.1570560E+03  0.7546771E-02  0.1194002E+00
          1   -1    0    0  502    0  0.00000000000E+00  0.00000000000E+00  0.67517217107E+03  0.67517217107E+03  0.00000000000E+00 0. -1.
         -1   -1    0    0    0  501 -0.00000000000E+00 -0.00000000000E+00 -0.16650006104E+03  0.16650006104E+03  0.00000000000E+00 0.  1.
         23    2    1    2    0    0  0.11121912361E+03 -0.18636834627E+02 -0.81222904735E+02  0.17401221087E+03  0.10471897735E+03 0.  0.
         23    2    1    2    0    0 -0.13967124285E+03 -0.28159016101E+02  0.15971066043E+03  0.23400352877E+03  0.94600053696E+02 0.  0.
        -13    1    3    3    0    0  0.11755193307E+02 -0.33542082466E+02  0.11358783439E+02  0.37313239300E+02  0.00000000000E+00 0. -1.
         13    1    3    3    0    0  0.99463930301E+02  0.14905247839E+02 -0.92581688173E+02  0.13669897157E+03  0.00000000000E+00 0.  1.
        -13    1    4    4    0    0 -0.77205709745E+02 -0.48033420394E+02  0.43998376827E+02  0.10101380230E+03  0.00000000000E+00 0.  1.
         13    1    4    4    0    0 -0.62465533100E+02  0.19874404293E+02  0.11571228360E+03  0.13298972647E+03  0.00000000000E+00 0. -1.
         21    1    1    2  502  501  0.28452119237E+02  0.46795850728E+02  0.43018435434E+03  0.43365649246E+03  0.00000000000E+00 0. -1.
<scales pt_clust_5="13000.00000" pt_clust_6="13000.00000" pt_clust_7="13000.00000" pt_clust_8="13000.00000" pt_clust_9="54.76655"></scales>
<clustering>
<clus scale="   54.767">  1  9  2 -1</clus>
<clus scale="   94.600">  7  8 -1 -1</clus>
<clus scale="  104.719">  5  6 -1 -1</clus>
<clus scale="  150.498">  1  7  2 -1</clus>
<clus scale="   54.767">  1  5  2 -1</clus>
</clustering>
</event>
<event>
 9    1  0.9000149E-006  0.9343498E+02  0.7546771E-02  0.1295411E+00
          1   -1    0    0  502    0  0.00000000000E+00  0.00000000000E+00  0.47390983853E+03  0.47390983853E+03  0.00000000000E+00 0. -1.
         -1   -1    0    0    0  501 -0.00000000000E+00 -0.00000000000E+00 -0.48397459818E+02  0.48397459818E+02  0.00000000000E+00 0.  1.
         23    2    1    2    0    0  0.26875498631E+02  0.43038894141E+02  0.92902603109E+02  0.13996067101E+03  0.91561219575E+02 0.  0.
         23    2    1    2    0    0 -0.10038110122E+01  0.41262599429E+02  0.15616942865E+03  0.18509733818E+03  0.90379889408E+02 0.  0.
        -11    1    3    3    0    0  0.28305944739E+02 -0.97196004283E+01  0.80304378640E+02  0.85700002152E+02  0.00000000000E+00 0.  1.
         11    1    3    3    0    0 -0.14304461079E+01  0.52758494570E+02  0.12598224468E+02  0.54260668860E+02  0.00000000000E+00 0. -1.
        -13    1    4    4    0    0  0.31411261823E+02  0.15089278922E+02  0.15054035053E+02  0.37960211789E+02  0.00000000000E+00 0.  1.
         13    1    4    4    0    0 -0.32415072836E+02  0.26173320507E+02  0.14111539360E+03  0.14713712639E+03  0.00000000000E+00 0. -1.
         21    1    1    2  502  501 -0.25871687619E+02 -0.84301493571E+02  0.17644034695E+03  0.19724928915E+03  0.00000000000E+00 0. -1.
<scales pt_clust_5="13000.00000" pt_clust_6="13000.00000" pt_clust_7="13000.00000" pt_clust_8="13000.00000" pt_clust_9="88.18212"></scales>
<clustering>
<clus scale="   88.182">  1  9  2 -1</clus>
<clus scale="   90.380">  7  8 -1 -1</clus>
<clus scale="   91.561">  5  6 -1 -1</clus>
<clus scale="   92.278">  1  7  2 -1</clus>
<clus scale="   88.182">  1  5  2 -1</clus>
</clustering>
</event>
<event>
 9    1  0.9000149E-006  0.1091211E+03  0.7546771E-02  0.1264368E+00
          1   -1    0    0  502    0  0.00000000000E+00  0.00000000000E+00  0.10076140346E+04  0.10076140346E+04  0.00000000000E+00 0. -1.
         -1   -1    0    0    0  501 -0.00000000000E+00 -0.00000000000E+00 -0.27788241631E+02  0.27788241631E+02  0.00000000000E+00 0.  1.
         23    2    1    2    0    0 -0.68894527814E+02  0.21002463680E+02  0.19176735930E+03  0.22433521826E+03  0.91454964971E+02 0.  0.
         23    2    1    2    0    0  0.93725374193E+01 -0.64279229078E+02  0.33062511878E+03  0.34775184849E+03  0.86015784651E+02 0.  0.
        -11    1    3    3    0    0  0.17826883191E+02  0.18847466871E+02  0.71389006117E+02  0.75956665054E+02  0.00000000000E+00 0. -1.
         11    1    3    3    0    0 -0.86721411005E+02  0.21549968090E+01  0.12037835318E+03  0.14837855321E+03  0.00000000000E+00 0.  1.
        -13    1    4    4    0    0  0.45329939895E+02 -0.28490172530E+02  0.12544225088E+03  0.13639007180E+03  0.00000000000E+00 0. -1.
         13    1    4    4    0    0 -0.35957402476E+02 -0.35789056548E+02  0.20518286791E+03  0.21136177669E+03  0.00000000000E+00 0.  1.
         21    1    1    2  502  501  0.59521990395E+02  0.43276765398E+02  0.45743331494E+03  0.46331520953E+03  0.00000000000E+00 0. -1.
<scales pt_clust_5="13000.00000" pt_clust_6="13000.00000" pt_clust_7="13000.00000" pt_clust_8="13000.00000" pt_clust_9="73.59175"></scales>
<clustering>
<clus scale="   73.592">  1  9  2 -1</clus>
<clus scale="   86.016">  7  8 -1 -1</clus>
<clus scale="   91.455">  5  6 -1 -1</clus>
<clus scale="  104.605">  1  7  2 -1</clus>
<clus scale="   73.592">  1  5  2 -1</clus>
</clustering>
</event>
<event>
 9    1  0.9000149E-006  0.2218364E+03  0.7546771E-02  0.1132713E+00
         -1   -1    0    0    0  501 -0.00000000000E+00  0.00000000000E+00  0.83867858811E+03  0.83867858811E+03  0.00000000000E+00 0.  1.
          1   -1    0    0  502    0  0.00000000000E+00 -0.00000000000E+00 -0.12307083105E+03  0.12307083105E+03  0.00000000000E+00 0. -1.
         23    2    1    2    0    0  0.23302144539E+03 -0.10973917649E+02  0.54426133403E+03  0.59863624639E+03  0.87895022024E+02 0.  0.
         23    2    1    2    0    0 -0.14675295493E+03  0.77271584082E+02  0.17023406710E+03  0.25430659965E+03  0.90470335128E+02 0.  0.
        -11    1    3    3    0    0  0.82733620994E+02 -0.10284613181E+02  0.10317350889E+03  0.13264764697E+03  0.00000000000E+00 0.  1.
         11    1    3    3    0    0  0.15028782439E+03 -0.68930446800E+00  0.44108782514E+03  0.46598859942E+03  0.00000000000E+00 0. -1.
        -11    1    4    4    0    0 -0.12600420798E+03  0.52203016789E+02  0.17450964047E+03  0.22148550744E+03  0.00000000000E+00 0.  1.
         11    1    4    4    0    0 -0.20748746949E+02  0.25068567294E+02 -0.42755733707E+01  0.32821092208E+02  0.00000000000E+00 0. -1.
         21    1    1    2  502  501 -0.86268490456E+02 -0.66297666433E+02  0.11123559330E+01  0.10880657313E+03  0.00000000000E+00 0.  1.
<scales pt_clust_5="13000.00000" pt_clust_6="13000.00000" pt_clust_7="13000.00000" pt_clust_8="13000.00000" pt_clust_9="108.80089"></scales>
<clustering>
<clus scale="   87.895">  5  6 -1 -1</clus>
<clus scale="   90.470">  7  8 -1 -1</clus>
<clus scale="  108.801">  2  9  1 -1</clus>
<clus scale="  220.799">  1  5  2 -1</clus>
<clus scale="  108.801">  2  5  1 -1</clus>
</clustering>
</event>
<event>
 9    1  0.9000149E-006  0.1041197E+03  0.7546771E-02  0.1275389E+00
          2   -1    0    0  502    0  0.00000000000E+00  0.00000000000E+00  0.41562914311E+02  0.41562914311E+02  0.00000000000E+00 0. -1.
         -2   -1    0    0    0  501 -0.00000000000E+00 -0.00000000000E+00 -0.31085275140E+03  0.31085275140E+03  0.00000000000E+00 0.  1.
         23    2    1    2    0    0  0.44197364531E+02 -0.16936829622E+02 -0.15608598305E+03  0.18872559424E+03  0.94943417813E+02 0.  0.
         23    2    1    2    0    0 -0.27157750352E+02  0.28988105883E+02 -0.10169676397E+03  0.13985742931E+03  0.87407179587E+02 0.  0.
        -11    1    3    3    0    0  0.62503317392E+02 -0.41224033536E+02 -0.12100598478E+03  0.14229734354E+03  0.00000000000E+00 0.  1.
         11    1    3    3    0    0 -0.18305952861E+02  0.24287203914E+02 -0.35079998274E+02  0.46428250699E+02  0.00000000000E+00 0. -1.
        -13    1    4    4    0    0  0.11143433863E+01  0.56026973929E+02 -0.68874447620E+02  0.88791627442E+02  0.00000000000E+00 0.  1.
         13    1    4    4    0    0 -0.28272093738E+02 -0.27038868046E+02 -0.32822316352E+02  0.51065801866E+02  0.00000000000E+00 0. -1.
         21    1    1    2  502  501 -0.17039614179E+02 -0.12051276261E+02 -0.11507090069E+02  0.23832642169E+02  0.00000000000E+00 0. -1.
<scales pt_clust_5="13000.00000" pt_clust_6="13000.00000" pt_clust_7="13000.00000" pt_clust_8="13000.00000" pt_clust_9="20.87059"></scales>
<clustering>
<clus scale="   20.871">  1  9  2 -1</clus>
<clus scale="   87.407">  7  8 -1 -1</clus>
<clus scale="   94.943">  5  6 -1 -1</clus>
<clus scale="   97.297">  1  7  2 -1</clus>
<clus scale="   20.871">  1  5  2 -1</clus>
</clustering>
</event>
<event>
 9    1  0.9000149E-006  0.1523136E+03  0.7546771E-02  0.1198627E+00
          1   -1    0    0  502    0  0.00000000000E+00  0.00000000000E+00  0.80992129111E+02  0.80992129111E+02  0.00000000000E+00 0. -1.
         -1   -1    0    0    0  501 -0.00000000000E+00 -0.00000000000E+00 -0.37277697016E+03  0.37277697016E+03  0.00000000000E+00 0.  1.
         23    2    1    2    0    0  0.45508662092E+02  0.95535418079E+02 -0.15775116492E+03  0.21061107160E+03  0.90958996329E+02 0.  0.
         23    2    1    2    0    0 -0.53446758556E+02 -0.12796275660E+03 -0.11950767701E+03  0.20674991993E+03  0.96085490317E+02 0.  0.
        -11    1    3    3    0    0  0.70514043619E+02  0.50492375700E+02 -0.11244047368E+03  0.14200200870E+03  0.00000000000E+00 0.  1.
         11    1    3    3    0    0 -0.25005381527E+02  0.45043042379E+02 -0.45310691235E+02  0.68609062902E+02  0.00000000000E+00 0. -1.
        -11    1    4    4    0    0 -0.38478381686E+02 -0.57100286602E+02 -0.11518343592E+03  0.13419483036E+03  0.00000000000E+00 0.  1.
         11    1    4    4    0    0 -0.14968376870E+02 -0.70862469999E+02 -0.43242410905E+01  0.72555089563E+02  0.00000000000E+00 0. -1.
         21    1    1    2  502  501  0.79380964642E+01  0.32427338522E+02 -0.14525999124E+02  0.36408107746E+02  0.00000000000E+00 0.  1.
<scales pt_clust_5="13000.00000" pt_clust_6="13000.00000" pt_clust_7="13000.00000" pt_clust_8="13000.00000" pt_clust_9="33.38481"></scales>
<clustering>
<clus scale="   33.385">  1  9  2 -1</clus>
<clus scale="   90.959">  5  6 -1 -1</clus>
<clus scale="   96.085">  7  8 -1 -1</clus>
<clus scale="  149.133">  2  5  1 -1</clus>
<clus scale="   33.385">  1  5  2 -1</clus>
</clustering>
</event>
<event>
 9    1  0.9000149E-006  0.1695884E+03  0.7546771E-02  0.1183969E+00
         -2   -1    0    0    0  501 -0.00000000000E+00  0.00000000000E+00  0.25661910801E+03  0.25661910801E+03  0.00000000000E+00 0.  1.
          2   -1    0    0  502    0  0.00000000000E+00 -0.00000000000E+00 -0.14121424693E+03  0.14121424693E+03  0.00000000000E+00 0. -1.
         23    2    1    2    0    0  0.12962587792E+03 -0.15985333105E+02  0.13914480835E+03  0.22560175886E+03  0.12031823140E+03 0.  0.
         23    2    1    2    0    0 -0.98402996861E+02  0.25952809210E+02 -0.75593604690E+01  0.13567984822E+03  0.89415765866E+02 0.  0.
        -13    1    3    3    0    0  0.29186191153E+02 -0.58382083007E+02  0.73690967849E+02  0.98441150506E+02  0.00000000000E+00 0. -1.
         13    1    3    3    0    0  0.10043968677E+03  0.42396749902E+02  0.65453840505E+02  0.12716060836E+03  0.00000000000E+00 0.  1.
        -13    1    4    4    0    0 -0.32807730655E+02  0.51110319440E+02  0.13738460972E+02  0.62268429030E+02  0.00000000000E+00 0.  1.
         13    1    4    4    0    0 -0.65595266205E+02 -0.25157510230E+02 -0.21297821441E+02  0.73411419191E+02  0.00000000000E+00 0. -1.
         21    1    1    2  502  501 -0.31222881063E+02 -0.99674761055E+01 -0.16180586808E+02  0.36551747855E+02  0.00000000000E+00 0.  1.
<scales pt_clust_5="13000.00000" pt_clust_6="13000.00000" pt_clust_7="13000.00000" pt_clust_8="13000.00000" pt_clust_9="32.77528"></scales>
<clustering>
<clus scale="   32.775">  2  9  1 -1</clus>
<clus scale="   89.416">  7  8 -1 -1</clus>
<clus scale="  120.318">  5  6 -1 -1</clus>
<clus scale="  149.261">  2  7  1 -1</clus>
<clus scale="   32.775">  2  5  1 -1</clus>
</clustering>
</event>
<event>
 9    1  0.9000149E-006  0.1023010E+03  0.7546771E-02  0.1277412E+00
         -1   -1    0    0    0  501 -0.00000000000E+00  0.00000000000E+00  0.75194963384E+02  0.75194963384E+02  0.00000000000E+00 0.  1.
          1   -1    0    0  502    0  0.00000000000E+00 -0.00000000000E+00 -0.23861268139E+03  0.23861268139E+03  0.00000000000E+00 0. -1.
         23    2    1    2    0    0 -0.18842451566E+02 -0.54214421591E+02 -0.19551871515E+02  0.10671311186E+03  0.87813273903E+02 0.  0.
         23    2    1    2    0    0  0.37990192351E+02  0.21963319042E+02 -0.13404739332E+03  0.16832377570E+03  0.91861568195E+02 0.  0.
        -11    1    3    3    0    0 -0.52886879398E+02 -0.41814371436E+02 -0.20501649462E+02  0.70468299978E+02  0.00000000000E+00 0.  1.
         11    1    3    3    0    0  0.34044427832E+02 -0.12400050154E+02  0.94977794763E+00  0.36244811882E+02  0.00000000000E+00 0. -1.
        -13    1    4    4    0    0 -0.26129701096E+02 -0.12371433966E+02 -0.33957451100E+02  0.44597333361E+02  0.00000000000E+00 0.  1.
         13    1    4    4    0    0  0.64119893447E+02  0.34334753008E+02 -0.10008994222E+03  0.12372644234E+03  0.00000000000E+00 0. -1.
         21    1    1    2  502  501 -0.19147740785E+02  0.32251102549E+02 -0.98184531781E+01  0.38770757222E+02  0.00000000000E+00 0. -1.
<scales pt_clust_5="13000.00000" pt_clust_6="13000.00000" pt_clust_7="13000.00000" pt_clust_8="13000.00000" pt_clust_9="37.50693"></scales>
<clustering>
<clus scale="   37.507">  1  9  2 -1</clus>
<clus scale="   87.813">  5  6 -1 -1</clus>
<clus scale="   91.862">  7  8 -1 -1</clus>
<clus scale="   98.682">  1  5  2 -1</clus>
<clus scale="  102.301">  2  5  1 -1</clus>
</clustering>
</event>
<event>
 9    1  0.9000149E-006  0.2061685E+03  0.7546771E-02  0.1146658E+00
          1   -1    0    0  502    0  0.00000000000E+00  0.00000000000E+00  0.12567787717E+04  0.12567787717E+04  0.00000000000E+00 0. -1.
         -1   -1    0    0    0  501 -0.00000000000E+00 -0.00000000000E+00 -0.40688608676E+02  0.40688608676E+02  0.00000000000E+00 0.  1.
         23    2    1    2    0    0  0.15737165237E+03 -0.60436555967E+02  0.39979590412E+03  0.44684873540E+03  0.10685791082E+03 0.  0.
         23    2    1    2    0    0 -0.18440651852E+03  0.47839865475E+02  0.72165921554E+03  0.75139489766E+03  0.86647862395E+02 0.  0.
        -13    1    4    4    0    0 -0.80326981985E+02  0.46365857487E+02  0.46990625769E+03  0.47897192798E+03  0.00000000000E+00 0. -1.
         13    1    4    4    0    0 -0.10407953654E+03  0.14740079881E+01  0.25175295785E+03  0.27242296969E+03  0.00000000000E+00 0.  1.
        -13    1    3    3    0    0  0.85823190911E+02 -0.62581363999E+02  0.13081870163E+03  0.16850988076E+03  0.00000000000E+00 0.  1.
         13    1    3    3    0    0  0.71548461455E+02  0.21448080322E+01  0.26897720249E+03  0.27833885463E+03  0.00000000000E+00 0. -1.
         21    1    1    2  502  501  0.27034866157E+02  0.12596690492E+02  0.94635043342E+02  0.99223747297E+02  0.00000000000E+00 0. -1.
<scales pt_clust_5="13000.00000" pt_clust_6="13000.00000" pt_clust_7="13000.00000" pt_clust_8="13000.00000" pt_clust_9="29.82550"></scales>
<clustering>
<clus scale="   29.826">  1  9  2 -1</clus>
<clus scale="   86.648">  5  6 -1 -1</clus>
<clus scale="  106.858">  7  8 -1 -1</clus>
<clus scale="  196.455">  1  5  2 -1</clus>
<clus scale="   29.826">  1  5  2 -1</clus>
</clustering>
</event>
<event>
 9    1  0.9000149E-006  0.1052730E+03  0.7546771E-02  0.1270574E+00
          1   -1    0    0  502    0  0.00000000000E+00  0.00000000000E+00  0.13096984383E+03  0.13096984383E+03  0.00000000000E+00 0. -1.
         -1   -1    0    0    0  501 -0.00000000000E+00 -0.00000000000E+00 -0.24650868965E+03  0.24650868965E+03  0.00000000000E+00 0.  1.
         23    2    1    2    0    0 -0.47968927503E+02  0.22752239038E+02 -0.17158933177E+03  0.20161662645E+03  0.91584293947E+02 0.  0.
         23    2    1    2    0    0  0.51510551419E+02 -0.18442378771E+01 -0.12743079255E+02  0.10387411483E+03  0.89278819106E+02 0.  0.
        -11    1    3    3    0    0 -0.67045935069E+02  0.30608937069E+02 -0.16370299545E+03  0.17952920419E+03  0.00000000000E+00 0.  1.
         11    1    3    3    0    0  0.19077007566E+02 -0.78566980312E+01 -0.78863363186E+01  0.22087422261E+02  0.00000000000E+00 0. -1.
        -13    1    4    4    0    0  0.28670186213E+02  0.15242656515E+01  0.38291853482E+02  0.47859889327E+02  0.00000000000E+00 0. -1.
         13    1    4    4    0    0  0.22840365206E+02 -0.33685035286E+01 -0.51034932737E+02  0.56014225499E+02  0.00000000000E+00 0.  1.
         21    1    1    2  502  501 -0.35416239158E+01 -0.20908001161E+02  0.68793565208E+02  0.71987792205E+02  0.00000000000E+00 0. -1.
<scales pt_clust_5="13000.00000" pt_clust_6="13000.00000" pt_clust_7="13000.00000" pt_clust_8="13000.00000" pt_clust_9="21.20584"></scales>
<clustering>
<clus scale="   21.206">  1  9  2 -1</clus>
<clus scale="   89.279">  7  8 -1 -1</clus>
<clus scale="   91.584">  5  6 -1 -1</clus>
<clus scale="  103.274">  1  7  2 -1</clus>
<clus scale="   21.206">  1  5  2 -1</clus>
</clustering>
</event>
<event>
 9    1  0.9000149E-006  0.9805106E+02  0.7546771E-02  0.1285013E+00
          3   -1    0    0  502    0  0.00000000000E+00  0.00000000000E+00  0.60364011783E+02  0.60364011783E+02  0.00000000000E+00 0. -1.
         -3   -1    0    0    0  501 -0.00000000000E+00 -0.00000000000E+00 -0.22126613074E+03  0.22126613074E+03  0.00000000000E+00 0.  1.
         23    2    1    2    0    0  0.23828353388E+02  0.76057237594E+00 -0.92376419183E+02  0.13211677394E+03  0.91395132467E+02 0.  0.
         23    2    1    2    0    0 -0.42099901886E+02 -0.20839506970E+02 -0.64259225833E+02  0.12203217685E+03  0.92498201570E+02 0.  0.
        -11    1    3    3    0    0  0.26094869843E+02 -0.40682115411E+02 -0.69710351294E+02  0.84826351000E+02  0.00000000000E+00 0.  1.
         11    1    3    3    0    0 -0.22665164550E+01  0.41442687787E+02 -0.22666067889E+02  0.47290422935E+02  0.00000000000E+00 0. -1.
        -13    1    4    4    0    0  0.10673473218E+02  0.24255943019E+02  0.13254816887E+01  0.26533576916E+02  0.00000000000E+00 0. -1.
         13    1    4    4    0    0 -0.52773375104E+02 -0.45095449989E+02 -0.65584707521E+02  0.95498599939E+02  0.00000000000E+00 0.  1.
         21    1    1    2  502  501  0.18271548498E+02  0.20078934594E+02 -0.42664739380E+01  0.27481191728E+02  0.00000000000E+00 0. -1.
<scales pt_clust_5="13000.00000" pt_clust_6="13000.00000" pt_clust_7="13000.00000" pt_clust_8="13000.00000" pt_clust_9="27.14799"></scales>
<clustering>
<clus scale="   27.148">  1  9  2 -1</clus>
<clus scale="   91.395">  5  6 -1 -1</clus>
<clus scale="   92.498">  7  8 -1 -1</clus>
<clus scale="   97.011">  2  5  1 -1</clus>
<clus scale="   27.148">  1  5  2 -1</clus>
</clustering>
</event>
<event>
 9    1  0.9000149E-006  0.1011522E+03  0.7546771E-02  0.1277927E+00
          1   -1    0    0  502    0  0.00000000000E+00  0.00000000000E+00  0.64880677851E+03  0.64880677851E+03  0.00000000000E+00 0. -1.
         -1   -1    0    0    0  501 -0.00000000000E+00 -0.00000000000E+00 -0.22582846232E+02  0.22582846232E+02  0.00000000000E+00 0.  1.
         23    2    1    2    0    0  0.16600635236E+02 -0.32163029643E+02  0.20787324654E+03  0.23028291524E+03  0.92243660259E+02 0.  0.
         23    2    1    2    0    0  0.12444166793E+02  0.47917125899E+02  0.34792859478E+03  0.36331813085E+03  0.92167504567E+02 0.  0.
        -11    1    4    4    0    0 -0.26405714744E+02  0.57918983959E+02  0.19025455617E+03  0.20062070336E+03  0.00000000000E+00 0.  1.
         11    1    4    4    0    0  0.38849881536E+02 -0.10001858060E+02  0.15767403861E+03  0.16269742749E+03  0.00000000000E+00 0. -1.
        -13    1    3    3    0    0  0.74517230003E+00 -0.60287918000E+02  0.92004816585E+02  0.11000033915E+03  0.00000000000E+00 0. -1.
         13    1    3    3    0    0  0.15855462936E+02  0.28124888358E+02  0.11586842996E+03  0.12028257609E+03  0.00000000000E+00 0.  1.
         21    1    1    2  502  501 -0.29044802029E+02 -0.15754096256E+02  0.70422090957E+02  0.77788578650E+02  0.00000000000E+00 0.  1.
<scales pt_clust_5="13000.00000" pt_clust_6="13000.00000" pt_clust_7="13000.00000" pt_clust_8="13000.00000" pt_clust_9="33.04228"></scales>
<clustering>
<clus scale="   33.042">  2  9  1 -1</clus>
<clus scale="   92.168">  5  6 -1 -1</clus>
<clus scale="   92.244">  7  8 -1 -1</clus>
<clus scale="  101.083">  1  5  2 -1</clus>
<clus scale="  101.083">  1  5  2 -1</clus>
</clustering>
</event>
<event>
 9    1  0.9000149E-006  0.1149538E+03  0.7546771E-02  0.1251783E+00
         -3   -1    0    0    0  501 -0.00000000000E+00  0.00000000000E+00  0.31270861996E+02  0.31270861996E+02  0.00000000000E+00 0.  1.
          3   -1    0    0  502    0  0.00000000000E+00 -0.00000000000E+00 -0.59384114252E+03  0.59384114252E+03  0.00000000000E+00 0. -1.
         23    2    1    2    0    0  0.40777788344E+02  0.25180730871E+02 -0.14983222383E+03  0.18212337497E+03  0.91773259614E+02 0.  0.
         23    2    1    2    0    0 -0.69101360123E+02 -0.47249088800E+02 -0.33948318841E+03  0.36140730285E+03  0.91427178538E+02 0.  0.
        -13    1    4    4    0    0 -0.85199911208E+02 -0.59197381638E+02 -0.27728770900E+03  0.29606051480E+03  0.00000000000E+00 0.  1.
         13    1    4    4    0    0  0.16098551085E+02  0.11948292838E+02 -0.62195479411E+02  0.65346788046E+02  0.00000000000E+00 0. -1.
        -13    1    3    3    0    0 -0.18042329001E+02  0.24863940138E+02 -0.10133012724E+03  0.10588454015E+03  0.00000000000E+00 0.  1.
         13    1    3    3    0    0  0.58820117345E+02  0.31679073318E+00 -0.48502096592E+02  0.76238834819E+02  0.00000000000E+00 0. -1.
         21    1    1    2  502  501  0.28323571779E+02  0.22068357930E+02 -0.73254868277E+02  0.81581326701E+02  0.00000000000E+00 0. -1.
<scales pt_clust_5="13000.00000" pt_clust_6="13000.00000" pt_clust_7="13000.00000" pt_clust_8="13000.00000" pt_clust_9="35.90595"></scales>
<clustering>
<clus scale="   35.906">  1  9  2 -1</clus>
<clus scale="   91.427">  5  6 -1 -1</clus>
<clus scale="   91.773">  7  8 -1 -1</clus>
<clus scale="  114.678">  2  5  1 -1</clus>
<clus scale="  114.678">  2  5  1 -1</clus>
</clustering>
</event>
<event>
 9    1  0.9000149E-006  0.1039989E+03  0.7546771E-02  0.1273441E+00
         -1   -1    0    0    0  501 -0.00000000000E+00  0.00000000000E+00  0.34845366327E+02  0.34845366327E+02  0.00000000000E+00 0.  1.
          1   -1    0    0  502    0  0.00000000000E+00 -0.00000000000E+00 -0.52060180478E+03  0.52060180478E+03  0.00000000000E+00 0. -1.
         23    2    1    2    0    0  0.40218019700E+02  0.44715156231E+00 -0.10339648654E+03  0.14534418211E+03  0.93895733619E+02 0.  0.
         23    2    1    2    0    0 -0.51733781254E+02 -0.35548933037E+02 -0.30416629062E+03  0.32362179744E+03  0.90960566537E+02 0.  0.
        -11    1    4    4    0    0 -0.16050162527E+02  0.29380398841E+02 -0.13222539679E+03  0.13639784130E+03  0.00000000000E+00 0. -1.
         11    1    4    4    0    0 -0.35683618727E+02 -0.64929331877E+02 -0.17194089383E+03  0.18722395614E+03  0.00000000000E+00 0.  1.
        -13    1    3    3    0    0  0.96839134338E+01 -0.29417279973E+02  0.25871149898E+01  0.31078090424E+02  0.00000000000E+00 0.  1.
         13    1    3    3    0    0  0.30534106266E+02  0.29864431536E+02 -0.10598360153E+03  0.11426609169E+03  0.00000000000E+00 0. -1.
         21    1    1    2  502  501  0.11515761554E+02  0.35101781474E+02 -0.78193661297E+02  0.86481191561E+02  0.00000000000E+00 0.  1.
<scales pt_clust_5="13000.00000" pt_clust_6="13000.00000" pt_clust_7="13000.00000" pt_clust_8="13000.00000" pt_clust_9="36.94249"></scales>
<clustering>
<clus scale="   36.942">  2  9  1 -1</clus>
<clus scale="   90.961">  5  6 -1 -1</clus>
<clus scale="   93.896">  7  8 -1 -1</clus>
<clus scale="  101.357">  2  5  1 -1</clus>
<clus scale="   36.942">  2  5  1 -1</clus>
</clustering>
</event>
<event>
 9    1  0.9000149E-006  0.1191156E+03  0.7546771E-02  0.1244910E+00
          3   -1    0    0  502    0  0.00000000000E+00  0.00000000000E+00  0.52818732024E+02  0.52818732024E+02  0.00000000000E+00 0. -1.
         -3   -1    0    0    0  501 -0.00000000000E+00 -0.00000000000E+00 -0.40474550002E+03  0.40474550002E+03  0.00000000000E+00 0.  1.
         23    2    1    2    0    0 -0.76236715696E+02  0.43910334879E+02 -0.24778330507E+03  0.27837005650E+03  0.91395665948E+02 0.  0.
         23    2    1    2    0    0  0.38590122695E+02 -0.39258290389E+02 -0.62448657419E+02  0.12282606143E+03  0.90310550987E+02 0.  0.
        -13    1    4    4    0    0  0.36608030210E+02  0.21491660389E+02 -0.39099981250E+02  0.57713498213E+02  0.00000000000E+00 0.  1.
         13    1    4    4    0    0  0.19820924854E+01 -0.60749950779E+02 -0.23348676169E+02  0.65112563220E+02  0.00000000000E+00 0. -1.
        -13    1    3    3    0    0 -0.78853550565E+02  0.71425777461E+01 -0.10866120839E+03  0.13444759969E+03  0.00000000000E+00 0.  1.
         13    1    3    3    0    0  0.26168348688E+01  0.36767757133E+02 -0.13912209668E+03  0.14392245681E+03  0.00000000000E+00 0. -1.
         21    1    1    2  502  501  0.37646593001E+02 -0.46520444900E+01 -0.41694805507E+02  0.56368114114E+02  0.00000000000E+00 0. -1.
<scales pt_clust_5="13000.00000" pt_clust_6="13000.00000" pt_clust_7="13000.00000" pt_clust_8="13000.00000" pt_clust_9="37.93293"></scales>
<clustering>
<clus scale="   37.933">  1  9  2 -1</clus>
<clus scale="   90.311">  5  6 -1 -1</clus>
<clus scale="   91.396">  7  8 -1 -1</clus>
<clus scale="  118.285">  1  5  2 -1</clus>
<clus scale="   37.933">  1  5  2 -1</clus>
</clustering>
</event>
<event>
 9    1  0.9000149E-006  0.1794258E+03  0.7546771E-02  0.1168421E+00
          1   -1    0    0  502    0  0.00000000000E+00  0.00000000000E+00  0.39417800673E+03  0.39417800673E+03  0.00000000000E+00 0. -1.
         -1   -1    0    0    0  501 -0.00000000000E+00 -0.00000000000E+00 -0.11005550750E+03  0.11005550750E+03  0.00000000000E+00 0.  1.
         23    2    1    2    0    0  0.11629639184E+03  0.10468317033E+03  0.70476468260E+02  0.19377598254E+03  0.89993232666E+02 0.  0.
         23    2    1    2    0    0 -0.97717352939E+02 -0.11987234099E+03  0.12358646901E+03  0.21725551297E+03  0.89489012702E+02 0.  0.
        -11    1    3    3    0    0  0.93091701967E+02  0.79133895137E+02  0.80528671091E+01  0.12244626170E+03  0.00000000000E+00 0.  1.
         11    1    3    3    0    0  0.23204689874E+02  0.25549275189E+02  0.62423601151E+02  0.71329720842E+02  0.00000000000E+00 0. -1.
        -13    1    4    4    0    0 -0.26155896164E+02 -0.94492312759E+02  0.93814217085E+02  0.13569832498E+03  0.00000000000E+00 0. -1.
         13    1    4    4    0    0 -0.71561456774E+02 -0.25380028232E+02  0.29772251924E+02  0.81557187993E+02  0.00000000000E+00 0.  1.
         21    1    1    2  502  501 -0.18579038903E+02  0.15189170665E+02  0.90059561960E+02  0.93202018715E+02  0.00000000000E+00 0. -1.
<scales pt_clust_5="13000.00000" pt_clust_6="13000.00000" pt_clust_7="13000.00000" pt_clust_8="13000.00000" pt_clust_9="23.99774"></scales>
<clustering>
<clus scale="   23.998">  1  9  2 -1</clus>
<clus scale="   89.489">  7  8 -1 -1</clus>
<clus scale="   89.993">  5  6 -1 -1</clus>
<clus scale="  179.173">  1  7  2 -1</clus>
<clus scale="   23.998">  1  5  2 -1</clus>
</clustering>
</event>
<event>
 9    1  0.9000149E-006  0.1053391E+03  0.7546771E-02  0.1269980E+00
          2   -1    0    0  502    0  0.00000000000E+00  0.00000000000E+00  0.27073699824E+03  0.27073699824E+03  0.00000000000E+00 0. -1.
         -2   -1    0    0    0  501 -0.00000000000E+00 -0.00000000000E+00 -0.11845463788E+03  0.11845463788E+03  0.00000000000E+00 0.  1.
         23    2    1    2    0    0  0.43009547662E+02  0.23019643684E+02 -0.67980023166E+02  0.12337963420E+03  0.90672627619E+02 0.  0.
         23    2    1    2    0    0 -0.50641103480E+02 -0.53199413956E+02  0.17601652874E+03  0.21171251169E+03  0.91900327595E+02 0.  0.
        -11    1    3    3    0    0 -0.87696254805E+01 -0.28360182775E+02 -0.24248944462E+02  0.38330374452E+02  0.00000000000E+00 0. -1.
         11    1    3    3    0    0  0.51779173142E+02  0.51379826460E+02 -0.43731078704E+02  0.85049259743E+02  0.00000000000E+00 0.  1.
        -13    1    4    4    0    0  0.17865386116E+02 -0.41132209365E+02  0.45908013294E+02  0.64176135385E+02  0.00000000000E+00 0.  1.
         13    1    4    4    0    0 -0.68506489596E+02 -0.12067204590E+02  0.13010851544E+03  0.14753637631E+03  0.00000000000E+00 0. -1.
         21    1    1    2  502  501  0.76315558181E+01  0.30179770272E+02  0.44245854781E+02  0.54099490230E+02  0.00000000000E+00 0. -1.
<scales pt_clust_5="13000.00000" pt_clust_6="13000.00000" pt_clust_7="13000.00000" pt_clust_8="13000.00000" pt_clust_9="31.12972"></scales>
<clustering>
<clus scale="   31.130">  1  9  2 -1</clus>
<clus scale="   90.673">  5  6 -1 -1</clus>
<clus scale="   91.900">  7  8 -1 -1</clus>
<clus scale="  104.270">  2  5  1 -1</clus>
<clus scale="   31.130">  1  5  2 -1</clus>
</clustering>
</event>
<event>
 9    1  0.9000149E-006  0.9801103E+02  0.7546771E-02  0.1284652E+00
          1   -1    0    0  502    0  0.00000000000E+00  0.00000000000E+00  0.48462009118E+03  0.48462009118E+03  0.00000000000E+00 0. -1.
         -1   -1    0    0    0  501 -0.00000000000E+00 -0.00000000000E+00 -0.39959008715E+02  0.39959008715E+02  0.00000000000E+00 0.  1.
         23    2    1    2    0    0 -0.43216372638E+02  0.17549842770E+02  0.68052896991E+02  0.12345178095E+03  0.91834054605E+02 0.  0.
         23    2    1    2    0    0  0.46828898662E+01 -0.64707613837E+01  0.20151138107E+03  0.22149862900E+03  0.91602433040E+02 0.  0.
        -11    1    4    4    0    0  0.84158016113E+01  0.38768466365E+02  0.13692416611E+03  0.14255541717E+03  0.00000000000E+00 0.  1.
         11    1    4    4    0    0 -0.37329117450E+01 -0.45239227749E+02  0.64587214964E+02  0.78943211831E+02  0.00000000000E+00 0. -1.
        -13    1    3    3    0    0 -0.90254014368E+01  0.22759836914E+02  0.82435608289E+02  0.85994753104E+02  0.00000000000E+00 0. -1.
         13    1    3    3    0    0 -0.34190971201E+02 -0.52099941437E+01 -0.14382711298E+02  0.37457027844E+02  0.00000000000E+00 0.  1.
         21    1    1    2  502  501  0.38533482772E+02 -0.11079081386E+02  0.17509680440E+03  0.17962868994E+03  0.00000000000E+00 0. -1.
<scales pt_clust_5="13000.00000" pt_clust_6="13000.00000" pt_clust_7="13000.00000" pt_clust_8="13000.00000" pt_clust_9="40.09458"></scales>
<clustering>
<clus scale="   40.095">  1  9  2 -1</clus>
<clus scale="   91.602">  5  6 -1 -1</clus>
<clus scale="   91.834">  7  8 -1 -1</clus>
<clus scale="   97.794">  1  5  2 -1</clus>
<clus scale="   40.095">  1  5  2 -1</clus>
</clustering>
</event>
<event>
 9    1  0.9000149E-006  0.1008156E+03  0.7546771E-02  0.1279135E+00
          2   -1    0    0  502    0  0.00000000000E+00  0.00000000000E+00  0.35322016198E+03  0.35322016198E+03  0.00000000000E+00 0. -1.
         -2   -1    0    0    0  501 -0.00000000000E+00 -0.00000000000E+00 -0.68975643039E+02  0.68975643039E+02  0.00000000000E+00 0.  1.
         23    2    1    2    0    0 -0.49860853538E+02  0.18156387209E+02  0.17483171822E+02  0.10706889023E+03  0.91336339130E+02 0.  0.
         23    2    1    2    0    0  0.99048596619E+01 -0.22697310302E+02  0.82031998856E+02  0.12607127870E+03  0.92474019790E+02 0.  0.
        -11    1    4    4    0    0 -0.26533754950E+02 -0.25960423989E+02  0.96750080216E+00  0.37133809706E+02  0.00000000000E+00 0.  1.
         11    1    4    4    0    0  0.36438614612E+02  0.32631136872E+01  0.81064498054E+02  0.88937468991E+02  0.00000000000E+00 0. -1.
        -13    1    3    3    0    0 -0.76517556534E+02  0.75914038459E+01  0.14395397551E+02  0.78229108016E+02  0.00000000000E+00 0.  1.
         13    1    3    3    0    0  0.26656702996E+02  0.10564983363E+02  0.30877742710E+01  0.28839782212E+02  0.00000000000E+00 0. -1.
         21    1    1    2  502  501  0.39955993876E+02  0.45409230930E+01  0.18472934827E+03  0.18905563610E+03  0.00000000000E+00 0. -1.
<scales pt_clust_5="13000.00000" pt_clust_6="13000.00000" pt_clust_7="13000.00000" pt_clust_8="13000.00000" pt_clust_9="40.21320"></scales>
<clustering>
<clus scale="   40.213">  1  9  2 -1</clus>
<clus scale="   91.336">  7  8 -1 -1</clus>
<clus scale="   92.474">  5  6 -1 -1</clus>
<clus scale="   99.773">  2  7  1 -1</clus>
<clus scale="   40.213">  1  5  2 -1</clus>
</clustering>
</event>
<event>
 9    1  0.9000149E-006  0.1206024E+03  0.7546771E-02  0.1242171E+00
         -2   -1    0    0    0  501 -0.00000000000E+00  0.00000000000E+00  0.30453608846E+02  0.30453608846E+02  0.00000000000E+00 0.  1.
          2   -1    0    0  502    0  0.00000000000E+00 -0.00000000000E+00 -0.10594530197E+04  0.10594530197E+04  0.00000000000E+00 0. -1.
         23    2    1    2    0    0  0.86972732671E+02 -0.50504744079E+02 -0.26963652453E+03  0.30199714264E+03  0.91561091086E+02 0.  0.
         23    2    1    2    0    0 -0.66945552264E+02 -0.20376075776E+02 -0.27694555469E+03  0.29990163715E+03  0.91352396102E+02 0.  0.
        -11    1    4    4    0    0 -0.86532554855E+02 -0.59571796003E+01 -0.17797070437E+03  0.19798217762E+03  0.00000000000E+00 0. -1.
         11    1    4    4    0    0  0.19587002591E+02 -0.14418896176E+02 -0.98974850318E+02  0.10191945954E+03  0.00000000000E+00 0.  1.
        -13    1    3    3    0    0  0.39519741025E+02 -0.57471604133E+02 -0.78837308073E+02  0.10526213164E+03  0.00000000000E+00 0.  1.
         13    1    3    3    0    0  0.47452991647E+02  0.69668600547E+01 -0.19079921646E+03  0.19673501101E+03  0.00000000000E+00 0. -1.
         21    1    1    2  502  501 -0.20027180407E+02  0.70880819855E+02 -0.48241733162E+03  0.48800784873E+03  0.00000000000E+00 0. -1.
<scales pt_clust_5="13000.00000" pt_clust_6="13000.00000" pt_clust_7="13000.00000" pt_clust_8="13000.00000" pt_clust_9="73.65581"></scales>
<clustering>
<clus scale="   73.656">  2  9  1 -1</clus>
<clus scale="   91.352">  5  6 -1 -1</clus>
<clus scale="   91.561">  7  8 -1 -1</clus>
<clus scale="  120.444">  2  5  1 -1</clus>
<clus scale="   73.656">  2  5  1 -1</clus>
</clustering>
</event>
<event>
 9    1  0.9000149E-006  0.1308644E+03  0.7546771E-02  0.1239793E+00
         -1   -1    0    0    0  501 -0.00000000000E+00  0.00000000000E+00  0.89584774192E+02  0.89584774192E+02  0.00000000000E+00 0.  1.
          1   -1    0    0  502    0  0.00000000000E+00 -0.00000000000E+00 -0.41493856694E+03  0.41493856694E+03  0.00000000000E+00 0. -1.
         23    2    1    2    0    0 -0.56564219139E+01 -0.38166629868E+02  0.32091357499E+02  0.10508179476E+03  0.92323570232E+02 0.  0.
         23    2    1    2    0    0 -0.32216992183E+02  0.17884135002E+02 -0.22814907686E+03  0.26319452920E+03  0.12594277295E+03 0.  0.
        -11    1    3    3    0    0 -0.40807108975E+02 -0.36049213900E+02 -0.40769570555E+01  0.54602083702E+02  0.00000000000E+00 0.  1.
         11    1    3    3    0    0  0.35150687061E+02 -0.21174159680E+01  0.36168314555E+02  0.50479711063E+02  0.00000000000E+00 0. -1.
        -13    1    4    4    0    0 -0.26114296890E+02 -0.39427994272E+02 -0.28104714118E+02  0.55012709350E+02  0.00000000000E+00 0.  1.
         13    1    4    4    0    0 -0.61026952926E+01  0.57312129273E+02 -0.20004436274E+03  0.20818181985E+03  0.00000000000E+00 0. -1.
         21    1    1    2  502  501  0.37873414097E+02  0.20282494867E+02 -0.12929607338E+03  0.13624701716E+03  0.00000000000E+00 0. -1.
<scales pt_clust_5="13000.00000" pt_clust_6="13000.00000" pt_clust_7="13000.00000" pt_clust_8="13000.00000" pt_clust_9="42.96248"></scales>
<clustering>
<clus scale="   42.962">  2  9  1 -1</clus>
<clus scale="   92.324">  5  6 -1 -1</clus>
<clus scale="   98.932">  1  5  2 -1</clus>
<clus scale="  125.943">  7  8 -1 -1</clus>
<clus scale="   42.962">  2  5  1 -1</clus>
</clustering>
</event>
<event>
 9    1  0.9000149E-006  0.1296399E+03  0.7546771E-02  0.1228444E+00
         -2   -1    0    0    0  501 -0.00000000000E+00  0.00000000000E+00  0.49767068110E+02  0.49767068110E+02  0.00000000000E+00 0.  1.
          2   -1    0    0  502    0  0.00000000000E+00 -0.00000000000E+00 -0.45364250137E+03  0.45364250137E+03  0.00000000000E+00 0. -1.
         23    2    1    2    0    0 -0.50522147620E+02 -0.66482762146E+02 -0.16235450903E+03  0.20400196272E+03  0.91024003038E+02 0.  0.
         23    2    1    2    0    0  0.85183830212E+02  0.53218206223E+02 -0.21073433355E+03  0.25118733250E+03  0.92723536754E+02 0.  0.
        -13    1    4    4    0    0  0.89043509719E+02  0.26000442790E+02 -0.20210240169E+03  0.22237389779E+03  0.00000000000E+00 0.  1.
         13    1    4    4    0    0 -0.38596795066E+01  0.27217763433E+02 -0.86319318574E+01  0.28813434710E+02  0.00000000000E+00 0. -1.
        -13    1    3    3    0    0 -0.35649495809E+02 -0.89279380479E+02 -0.12196963079E+03  0.15530062835E+03  0.00000000000E+00 0. -1.
         13    1    3    3    0    0 -0.14872651811E+02  0.22796618333E+02 -0.40384878239E+02  0.48701334373E+02  0.00000000000E+00 0.  1.
         21    1    1    2  502  501 -0.34661682592E+02  0.13264555923E+02 -0.30786590682E+02  0.48220274261E+02  0.00000000000E+00 0. -1.
<scales pt_clust_5="13000.00000" pt_clust_6="13000.00000" pt_clust_7="13000.00000" pt_clust_8="13000.00000" pt_clust_9="37.11308"></scales>
<clustering>
<clus scale="   37.113">  1  9  2 -1</clus>
<clus scale="   91.024">  7  8 -1 -1</clus>
<clus scale="   92.724">  5  6 -1 -1</clus>
<clus scale="  128.430">  1  7  2 -1</clus>
<clus scale="  129.640">  2  5  1 -1</clus>
</clustering>
</event>
<event>
 9    1  0.9000149E-006  0.1037869E+03  0.7546771E-02  0.1273748E+00
         -1   -1    0    0    0  501 -0.00000000000E+00  0.00000000000E+00  0.64117051728E+03  0.64117051728E+03  0.00000000000E+00 0.  1.
          1   -1    0    0  502    0  0.00000000000E+00 -0.00000000000E+00 -0.22867663311E+02  0.22867663311E+02  0.00000000000E+00 0. -1.
         23    2    1    2    0    0  0.30417377648E+02  0.45580974510E+02  0.39649057687E+03  0.41095859678E+03  0.93163021757E+02 0.  0.
         23    2    1    2    0    0 -0.98220200938E+01 -0.29421411169E+02  0.17168473558E+03  0.19652809701E+03  0.90474045836E+02 0.  0.
        -11    1    4    4    0    0 -0.50147293040E+02 -0.12495019537E+02  0.86183082555E+02  0.10049079675E+03  0.00000000000E+00 0. -1.
         11    1    4    4    0    0  0.40325272946E+02 -0.16926391632E+02  0.85501653020E+02  0.96037300259E+02  0.00000000000E+00 0.  1.
        -11    1    3    3    0    0  0.13903253686E+02  0.62903595051E+02  0.36868734862E+03  0.37427332761E+03  0.00000000000E+00 0.  1.
         11    1    3    3    0    0  0.16514123962E+02 -0.17322620541E+02  0.27803228251E+02  0.36685269167E+02  0.00000000000E+00 0. -1.
         21    1    1    2  502  501 -0.20595357554E+02 -0.16159563342E+02  0.50127541527E+02  0.56551486804E+02  0.00000000000E+00 0. -1.
<scales pt_clust_5="13000.00000" pt_clust_6="13000.00000" pt_clust_7="13000.00000" pt_clust_8="13000.00000" pt_clust_9="26.17824"></scales>
<clustering>
<clus scale="   26.178">  2  9  1 -1</clus>
<clus scale="   90.474">  5  6 -1 -1</clus>
<clus scale="   93.163">  7  8 -1 -1</clus>
<clus scale="  101.380">  2  5  1 -1</clus>
<clus scale="   26.178">  2  5  1 -1</clus>
</clustering>
</event>
<event>
 9    1  0.9000149E-006  0.1047525E+03  0.7546771E-02  0.1270918E+00
         -1   -1    0    0    0  501 -0.00000000000E+00  0.00000000000E+00  0.21166750127E+03  0.21166750127E+03  0.00000000000E+00 0.  1.
          1   -1    0    0  502    0  0.00000000000E+00 -0.00000000000E+00 -0.87790939376E+02  0.87790939376E+02  0.00000000000E+00 0. -1.
         23    2    1    2    0    0 -0.64508277068E+02  0.17758951356E+02  0.10443982819E+03  0.15420487471E+03  0.91622963876E+02 0.  0.
         23    2    1    2    0    0  0.21704978390E+02  0.33852650171E+01 -0.48106156129E+00  0.93524281846E+02  0.90906511145E+02 0.  0.
        -13    1    4    4    0    0 -0.25434913063E+01 -0.37611649953E+02  0.18816041513E+02  0.42132516877E+02  0.00000000000E+00 0.  1.
         13    1    4    4    0    0  0.24248469696E+02  0.40996914970E+02 -0.19297103074E+02  0.51391764969E+02  0.00000000000E+00 0. -1.
        -13    1    3    3    0    0 -0.29187454722E+02 -0.66777474598E+01 -0.10320688672E+02  0.31670434777E+02  0.00000000000E+00 0. -1.
         13    1    3    3    0    0 -0.35320822346E+02  0.24436698816E+02  0.11476051686E+03  0.12253443994E+03  0.00000000000E+00 0.  1.
         21    1    1    2  502  501  0.42803298678E+02 -0.21144216373E+02  0.19917795264E+02  0.51729284085E+02  0.00000000000E+00 0. -1.
<scales pt_clust_5="13000.00000" pt_clust_6="13000.00000" pt_clust_7="13000.00000" pt_clust_8="13000.00000" pt_clust_9="47.74097"></scales>
<clustering>
<clus scale="   47.741">  2  9  1 -1</clus>
<clus scale="   90.907">  5  6 -1 -1</clus>
<clus scale="   91.623">  7  8 -1 -1</clus>
<clus scale="  104.126">  2  5  1 -1</clus>
<clus scale="   47.741">  2  5  1 -1</clus>
</clustering>
</event>
<event>
 9    1  0.9000149E-006  0.1084240E+03  0.7546771E-02  0.1264200E+00
         -1   -1    0    0    0  501 -0.00000000000E+00  0.00000000000E+00  0.12371497474E+03  0.12371497474E+03  0.00000000000E+00 0.  1.
          1   -1    0    0  502    0  0.00000000000E+00 -0.00000000000E+00 -0.15874947634E+03  0.15874947634E+03  0.00000000000E+00 0. -1.
         23    2    1    2    0    0 -0.21132062697E+02  0.63350045053E+02  0.32738055386E+02  0.11800725480E+03  0.91619537398E+02 0.  0.
         23    2    1    2    0    0  0.31186918192E+02 -0.28478148111E+02 -0.19802571574E+02  0.10430514881E+03  0.93294123292E+02 0.  0.
        -13    1    4    4    0    0  0.97068954270E+01 -0.26632368713E+02  0.35219704797E+02  0.45209893697E+02  0.00000000000E+00 0.  1.
         13    1    4    4    0    0  0.21480022765E+02 -0.18457793982E+01 -0.55022276371E+02  0.59095255111E+02  0.00000000000E+00 0. -1.
        -13    1    3    3    0    0 -0.55067624700E+02  0.34170091350E+02  0.42352377519E+01  0.64945944229E+02  0.00000000000E+00 0.  1.
         13    1    3    3    0    0  0.33935562002E+02  0.29179953703E+02  0.28502817634E+02  0.53061310572E+02  0.00000000000E+00 0. -1.
         21    1    1    2  502  501 -0.10054855495E+02 -0.34871896942E+02 -0.47969985407E+02  0.60152047474E+02  0.00000000000E+00 0.  1.
<scales pt_clust_5="13000.00000" pt_clust_6="13000.00000" pt_clust_7="13000.00000" pt_clust_8="13000.00000" pt_clust_9="36.29255"></scales>
<clustering>
<clus scale="   36.293">  2  9  1 -1</clus>
<clus scale="   91.620">  7  8 -1 -1</clus>
<clus scale="   93.294">  5  6 -1 -1</clus>
<clus scale="  106.986">  1  7  2 -1</clus>
<clus scale="   36.293">  2  5  1 -1</clus>
</clustering>
</event>
<event>
 9    1  0.9000149E-006  0.2031313E+03  0.7546771E-02  0.1147391E+00
          1   -1    0    0  502    0  0.00000000000E+00  0.00000000000E+00  0.42932321751E+03  0.42932321751E+03  0.00000000000E+00 0. -1.
         -1   -1    0    0    0  501 -0.00000000000E+00 -0.00000000000E+00 -0.16728052132E+03  0.16728052132E+03  0.00000000000E+00 0.  1.
         23    2    1    2    0    0  0.85158553094E+02 -0.16071696949E+03 -0.43664817567E+02  0.20953005133E+03  0.94415584902E+02 0.  0.
         23    2    1    2    0    0 -0.55970340614E+02  0.16618445650E+03  0.21759768331E+03  0.29409418770E+03  0.91611608701E+02 0.  0.
        -11    1    4    4    0    0 -0.35994610889E+02  0.17114464043E+03  0.20685040255E+03  0.27087485855E+03  0.00000000000E+00 0. -1.
         11    1    4    4    0    0 -0.19975729725E+02 -0.49601839285E+01  0.10747280767E+02  0.23219329157E+02  0.00000000000E+00 0.  1.
        -13    1    3    3    0    0 -0.17285329011E+02 -0.16673008977E+02  0.81046645586E+01  0.25346743676E+02  0.00000000000E+00 0. -1.
         13    1    3    3    0    0  0.10244388210E+03 -0.14404396051E+03 -0.51769482125E+02  0.18418330766E+03  0.00000000000E+00 0.  1.
         21    1    1    2  502  501 -0.29188212480E+02 -0.54674870105E+01  0.88109830441E+02  0.92979499796E+02  0.00000000000E+00 0. -1.
<scales pt_clust_5="13000.00000" pt_clust_6="13000.00000" pt_clust_7="13000.00000" pt_clust_8="13000.00000" pt_clust_9="29.69588"></scales>
<clustering>
<clus scale="   29.696">  1  9  2 -1</clus>
<clus scale="   91.612">  5  6 -1 -1</clus>
<clus scale="   94.416">  7  8 -1 -1</clus>
<clus scale="  201.843">  1  5  2 -1</clus>
<clus scale="   29.696">  1  5  2 -1</clus>
</clustering>
</event>
<event>
 9    1  0.9000149E-006  0.9315180E+02  0.7546771E-02  0.1298548E+00
          1   -1    0    0  502    0  0.00000000000E+00  0.00000000000E+00  0.44590958339E+03  0.44590958339E+03  0.00000000000E+00 0. -1.
         -1   -1    0    0    0  501 -0.00000000000E+00 -0.00000000000E+00 -0.59815525322E+02  0.59815525322E+02  0.00000000000E+00 0.  1.
         23    2    1    2    0    0 -0.79845806162E+01  0.21195643884E+02  0.97773058394E+01  0.87981318928E+02  0.84451808290E+02 0.  0.
         23    2    1    2    0    0 -0.57354978973E+02 -0.39090203968E+02  0.23859620615E+03  0.26426277422E+03  0.89939015936E+02 0.  0.
        -13    1    3    3    0    0  0.35456382279E+02 -0.20599109014E+01  0.14749305894E+02  0.38456992883E+02  0.00000000000E+00 0. -1.
         13    1    3    3    0    0 -0.43440962895E+02  0.23255554785E+02 -0.49720000546E+01  0.49524326045E+02  0.00000000000E+00 0.  1.
        -13    1    4    4    0    0  0.24483318985E+02 -0.11221353826E+02  0.63947098641E+02  0.69387197053E+02  0.00000000000E+00 0. -1.
         13    1    4    4    0    0 -0.81838297958E+02 -0.27868850142E+02  0.17464910751E+03  0.19487557716E+03  0.00000000000E+00 0.  1.
         21    1    1    2  502  501  0.65339559589E+02  0.17894560085E+02  0.13772054607E+03  0.15348101556E+03  0.00000000000E+00 0. -1.
<scales pt_clust_5="13000.00000" pt_clust_6="13000.00000" pt_clust_7="13000.00000" pt_clust_8="13000.00000" pt_clust_9="67.74565"></scales>
<clustering>
<clus scale="   67.746">  1  9  2 -1</clus>
<clus scale="   84.452">  5  6 -1 -1</clus>
<clus scale="   87.865">  2  5  1 -1</clus>
<clus scale="   89.939">  7  8 -1 -1</clus>
<clus scale="   67.746">  1  5  2 -1</clus>
</clustering>
</event>
<event>
 9    1  0.9000149E-006  0.1011593E+03  0.7546771E-02  0.1280997E+00
         -2   -1    0    0    0  501 -0.00000000000E+00  0.00000000000E+00  0.24253530957E+02  0.24253530957E+02  0.00000000000E+00 0.  1.
          2   -1    0    0  502    0  0.00000000000E+00 -0.00000000000E+00 -0.84907856256E+03  0.84907856256E+03  0.00000000000E+00 0. -1.
         23    2    1    2    0    0 -0.35416703803E+02  0.45915923815E+02 -0.21395083253E+03  0.23835143765E+03  0.87600423054E+02 0.  0.
         23    2    1    2    0    0  0.31012861258E+02  0.19445059059E+02 -0.27772503564E+03  0.29545183971E+03  0.93918508710E+02 0.  0.
        -11    1    3    3    0    0 -0.10235894329E+02  0.65523715003E+02 -0.99818583585E+02  0.11984106304E+03  0.00000000000E+00 0.  1.
         11    1    3    3    0    0 -0.25180809474E+02 -0.19607791188E+02 -0.11413224895E+03  0.11851037461E+03  0.00000000000E+00 0. -1.
        -11    1    4    4    0    0  0.47927340691E+00  0.45847757168E+02 -0.22174806989E+03  0.22643862975E+03  0.00000000000E+00 0.  1.
         11    1    4    4    0    0  0.30533587851E+02 -0.26402698109E+02 -0.55976965750E+02  0.69013209961E+02  0.00000000000E+00 0. -1.
         21    1    1    2  502  501  0.44038425449E+01 -0.65360982874E+02 -0.33314916343E+03  0.33952881616E+03  0.00000000000E+00 0. -1.
<scales pt_clust_5="13000.00000" pt_clust_6="13000.00000" pt_clust_7="13000.00000" pt_clust_8="13000.00000" pt_clust_9="65.50917"></scales>
<clustering>
<clus scale="   65.509">  2  9  1 -1</clus>
<clus scale="   87.600">  5  6 -1 -1</clus>
<clus scale="   93.919">  7  8 -1 -1</clus>
<clus scale="   95.322">  1  5  2 -1</clus>
<clus scale="   65.509">  2  5  1 -1</clus>
</clustering>
</event>
<event>
 9    1  0.9000149E-006  0.3065064E+03  0.7546771E-02  0.1107274E+00
         -4   -1    0    0    0  501 -0.00000000000E+00  0.00000000000E+00  0.22547841466E+03  0.22547841466E+03  0.00000000000E+00 0.  1.
          4   -1    0    0  502    0  0.00000000000E+00 -0.00000000000E+00 -0.80336839537E+03  0.80336839537E+03  0.00000000000E+00 0. -1.
         23    2    1    2    0    0  0.12569306769E+03  0.39929937225E+02 -0.35950937269E+02  0.16220278102E+03  0.87316236324E+02 0.  0.
         23    2    1    2    0    0 -0.18783872838E+03 -0.26216423742E+03 -0.54020578853E+03  0.63587754206E+03  0.92219733662E+02 0.  0.
        -11    1    3    3    0    0  0.92692950068E+02  0.27669508161E+01  0.11553645116E+02  0.93451194346E+02  0.00000000000E+00 0.  1.
         11    1    3    3    0    0  0.33000117625E+02  0.37162986408E+02 -0.47504582385E+02  0.68751586670E+02  0.00000000000E+00 0. -1.
        -13    1    4    4    0    0 -0.73679016549E+02 -0.15377488454E+03 -0.21359251610E+03  0.27330765728E+03  0.00000000000E+00 0.  1.
         13    1    4    4    0    0 -0.11415971183E+03 -0.10838935289E+03 -0.32661327243E+03  0.36256988479E+03  0.00000000000E+00 0. -1.
         21    1    1    2  502  501  0.62145660686E+02  0.22223430020E+03 -0.17332549002E+01  0.23076648695E+03  0.00000000000E+00 0.  1.
<scales pt_clust_5="13000.00000" pt_clust_6="13000.00000" pt_clust_7="13000.00000" pt_clust_8="13000.00000" pt_clust_9="292.30409"></scales>
<clustering>
<clus scale="   87.316">  5  6 -1 -1</clus>
<clus scale="   92.220">  7  8 -1 -1</clus>
<clus scale="  158.168">  1  5  2 -1</clus>
<clus scale="  292.304">  1  9  2 -1</clus>
<clus scale="  306.506">  2  5  1 -1</clus>
</clustering>
</event>
<event>
 9    1  0.9000149E-006  0.1055326E+03  0.7546771E-02  0.1269905E+00
          1   -1    0    0  502    0  0.00000000000E+00  0.00000000000E+00  0.13385164251E+03  0.13385164251E+03  0.00000000000E+00 0. -1.
         -1   -1    0    0    0  501 -0.00000000000E+00 -0.00000000000E+00 -0.14901558045E+03  0.14901558045E+03  0.00000000000E+00 0.  1.
         23    2    1    2    0    0  0.75384015007E+02  0.10391085359E+01 -0.42862836306E+02  0.12578767854E+03  0.91112501182E+02 0.  0.
         23    2    1    2    0    0 -0.39901970558E+02 -0.25656221180E+02  0.44991758807E+02  0.11056050815E+03  0.89156932776E+02 0.  0.
        -11    1    3    3    0    0 -0.14463859794E+02  0.18676697597E+02  0.22225643788E+01  0.23726821652E+02  0.00000000000E+00 0.  1.
         11    1    3    3    0    0  0.89847874801E+02 -0.17637589062E+02 -0.45085400685E+02  0.10206085689E+03  0.00000000000E+00 0. -1.
        -13    1    4    4    0    0 -0.39847908291E+02  0.24760081796E+02  0.36485661180E+02  0.59431649123E+02  0.00000000000E+00 0.  1.
         13    1    4    4    0    0 -0.54062266435E-01 -0.50416302976E+02  0.85060976266E+01  0.51128859026E+02  0.00000000000E+00 0. -1.
         21    1    1    2  502  501 -0.35482044449E+02  0.24617112644E+02 -0.17292860433E+02  0.46519036267E+02  0.00000000000E+00 0.  1.
<scales pt_clust_5="13000.00000" pt_clust_6="13000.00000" pt_clust_7="13000.00000" pt_clust_8="13000.00000" pt_clust_9="43.18539"></scales>
<clustering>
<clus scale="   43.185">  2  9  1 -1</clus>
<clus scale="   89.157">  7  8 -1 -1</clus>
<clus scale="   91.113">  5  6 -1 -1</clus>
<clus scale="  103.849">  1  7  2 -1</clus>
<clus scale="  103.849">  1  5  2 -1</clus>
</clustering>
</event>
<event>
 9    1  0.9000149E-006  0.9816553E+02  0.7546771E-02  0.1286365E+00
          3   -1    0    0  502    0  0.00000000000E+00  0.00000000000E+00  0.30881048715E+02  0.30881048715E+02  0.00000000000E+00 0. -1.
         -3   -1    0    0    0  501 -0.00000000000E+00 -0.00000000000E+00 -0.57005614590E+03  0.57005614590E+03  0.00000000000E+00 0.  1.
         23    2    1    2    0    0 -0.56371717830E+01 -0.27119165901E+02 -0.30009441554E+03  0.31599497278E+03  0.95020722571E+02 0.  0.
         23    2    1    2    0    0  0.25627963196E+02  0.10975126102E+02 -0.24107687221E+03  0.25916924104E+03  0.90958184332E+02 0.  0.
        -11    1    3    3    0    0 -0.45417921213E+02 -0.12353737504E+02 -0.89017163661E+02  0.10069487486E+03  0.00000000000E+00 0.  1.
         11    1    3    3    0    0  0.39780749430E+02 -0.14765428397E+02 -0.21107725188E+03  0.21530009791E+03  0.00000000000E+00 0. -1.
        -13    1    4    4    0    0 -0.16775259244E+02  0.25941252392E+02 -0.18365836400E+03  0.18623842935E+03  0.00000000000E+00 0.  1.
         13    1    4    4    0    0  0.42403222440E+02 -0.14966126290E+02 -0.57418508210E+02  0.72930811695E+02  0.00000000000E+00 0. -1.
         21    1    1    2  502  501 -0.19990791413E+02  0.16144039799E+02  0.19961905638E+01  0.25772980796E+02  0.00000000000E+00 0. -1.
<scales pt_clust_5="13000.00000" pt_clust_6="13000.00000" pt_clust_7="13000.00000" pt_clust_8="13000.00000" pt_clust_9="25.69556"></scales>
<clustering>
<clus scale="   25.696">  1  9  2 -1</clus>
<clus scale="   90.958">  7  8 -1 -1</clus>
<clus scale="   94.239">  1  7  2 -1</clus>
<clus scale="   95.021">  5  6 -1 -1</clus>
<clus scale="   25.696">  1  5  2 -1</clus>
</clustering>
</event>
<event>
 9    1  0.9000149E-006  0.9107414E+02  0.7546771E-02  0.1318671E+00
          1   -1    0    0  502    0  0.00000000000E+00  0.00000000000E+00  0.14542272465E+03  0.14542272465E+03  0.00000000000E+00 0. -1.
         -1   -1    0    0    0  501 -0.00000000000E+00 -0.00000000000E+00 -0.16715086209E+03  0.16715086209E+03  0.00000000000E+00 0.  1.
         23    2    1    2    0    0 -0.88390532690E-01  0.29784445734E+01 -0.12963623214E+03  0.14508232403E+03  0.65072644916E+02 0.  0.
         23    2    1    2    0    0  0.29063537811E+02 -0.12128674310E+02  0.92109319455E+02  0.13324382247E+03  0.90983490394E+02 0.  0.
        -13    1    4    4    0    0  0.52165416885E+02 -0.10028735731E+02  0.18795792070E+02  0.56347919737E+02  0.00000000000E+00 0.  1.
         13    1    4    4    0    0 -0.23101879074E+02 -0.20999385787E+01  0.73313527385E+02  0.76895902729E+02  0.00000000000E+00 0. -1.
        -13    1    3    3    0    0  0.27941145217E+02 -0.12366459149E+02 -0.83882821603E+02  0.89274658600E+02  0.00000000000E+00 0. -1.
         13    1    3    3    0    0 -0.28029535750E+02  0.15344903723E+02 -0.45753410540E+02  0.55807665429E+02  0.00000000000E+00 0.  1.
         21    1    1    2  502  501 -0.28975147279E+02  0.91502297365E+01  0.15798775253E+02  0.34247440248E+02  0.00000000000E+00 0. -1.
<scales pt_clust_5="13000.00000" pt_clust_6="13000.00000" pt_clust_7="13000.00000" pt_clust_8="13000.00000" pt_clust_9="30.38562"></scales>
<clustering>
<clus scale="   30.386">  1  9  2 -1</clus>
<clus scale="   65.073">  7  8 -1 -1</clus>
<clus scale="   65.199">  2  7  1 -1</clus>
<clus scale="   90.983">  5  6 -1 -1</clus>
<clus scale="   30.386">  1  5  2 -1</clus>
</clustering>
</event>
<event>
 9    1  0.9000149E-006  0.9118284E+02  0.7546771E-02  0.1300590E+00
         -3   -1    0    0    0  501 -0.00000000000E+00  0.00000000000E+00  0.39560662937E+02  0.39560662937E+02  0.00000000000E+00 0.  1.
          3   -1    0    0  502    0  0.00000000000E+00 -0.00000000000E+00 -0.66054660931E+03  0.66054660931E+03  0.00000000000E+00 0. -1.
         23    2    1    2    0    0  0.26003242396E+00  0.26796439566E+01 -0.32444026788E+02  0.96738972899E+02  0.91096464776E+02 0.  0.
         23    2    1    2    0    0  0.27619019613E+02  0.14134309933E+02 -0.35526157757E+03  0.36782707459E+03  0.90129791658E+02 0.  0.
        -11    1    4    4    0    0  0.56625311114E+02  0.27995108013E+02 -0.23718042473E+03  0.24544796965E+03  0.00000000000E+00 0.  1.
         11    1    4    4    0    0 -0.29006291500E+02 -0.13860798080E+02 -0.11808115284E+03  0.12237910494E+03  0.00000000000E+00 0. -1.
        -13    1    3    3    0    0  0.91298098599E+01  0.39101499962E+02  0.86935566762E+01  0.41083556991E+02  0.00000000000E+00 0.  1.
         13    1    3    3    0    0 -0.88697774359E+01 -0.36421856005E+02 -0.41137583464E+02  0.55655415908E+02  0.00000000000E+00 0. -1.
         21    1    1    2  502  501 -0.27879052037E+02 -0.16813953889E+02 -0.23328034202E+03  0.23554122476E+03  0.00000000000E+00 0. -1.
<scales pt_clust_5="13000.00000" pt_clust_6="13000.00000" pt_clust_7="13000.00000" pt_clust_8="13000.00000" pt_clust_9="32.55688"></scales>
<clustering>
<clus scale="   32.557">  2  9  1 -1</clus>
<clus scale="   90.130">  5  6 -1 -1</clus>
<clus scale="   90.217">  2  5  1 -1</clus>
<clus scale="   91.096">  7  8 -1 -1</clus>
<clus scale="   32.557">  2  5  1 -1</clus>
</clustering>
</event>
<event>
 9    1  0.9000149E-006  0.1959473E+03  0.7546771E-02  0.1153390E+00
          1   -1    0    0  502    0  0.00000000000E+00  0.00000000000E+00  0.10217080346E+04  0.10217080346E+04  0.00000000000E+00 0. -1.
         -1   -1    0    0    0  501 -0.00000000000E+00 -0.00000000000E+00 -0.96470173316E+02  0.96470173316E+02  0.00000000000E+00 0.  1.
         23    2    1    2    0    0 -0.15760600804E+03 -0.78500373168E+02  0.43783766230E+02  0.20371027323E+03  0.92622323841E+02 0.  0.
         23    2    1    2    0    0  0.11707712335E+03  0.10058525195E+03  0.80884175523E+03  0.82842791923E+03  0.90793097948E+02 0.  0.
        -11    1    4    4    0    0  0.90751405359E+01  0.59464024374E+02  0.35753121605E+03  0.36255606300E+03  0.00000000000E+00 0.  1.
         11    1    4    4    0    0  0.10800198282E+03  0.41121227581E+02  0.45131053918E+03  0.46587185623E+03  0.00000000000E+00 0. -1.
        -13    1    3    3    0    0 -0.13047416700E+03 -0.72647232151E+02 -0.29394769968E+01  0.14936455108E+03  0.00000000000E+00 0.  1.
         13    1    3    3    0    0 -0.27131841043E+02 -0.58531410166E+01  0.46723243227E+02  0.54345722148E+02  0.00000000000E+00 0. -1.
         21    1    1    2  502  501  0.40528884692E+02 -0.22084878787E+02  0.72612339830E+02  0.86040015463E+02  0.00000000000E+00 0.  1.
<scales pt_clust_5="13000.00000" pt_clust_6="13000.00000" pt_clust_7="13000.00000" pt_clust_8="13000.00000" pt_clust_9="46.15552"></scales>
<clustering>
<clus scale="   46.156">  1  9  2 -1</clus>
<clus scale="   90.793">  5  6 -1 -1</clus>
<clus scale="   92.622">  7  8 -1 -1</clus>
<clus scale="  195.089">  1  5  2 -1</clus>
<clus scale="   46.156">  1  5  2 -1</clus>
</clustering>
</event>
<event>
 9    1  0.9000149E-006  0.1183442E+03  0.7546771E-02  0.1246130E+00
          2   -1    0    0  502    0  0.00000000000E+00  0.00000000000E+00  0.73520404247E+03  0.73520404247E+03  0.00000000000E+00 0. -1.
         -2   -1    0    0    0  501 -0.00000000000E+00 -0.00000000000E+00 -0.71010622744E+02  0.71010622744E+02  0.00000000000E+00 0.  1.
         23    2    1    2    0    0 -0.72093893728E+01 -0.66595377381E+02  0.11043745196E+02  0.11464724056E+03  0.92385636742E+02 0.  0.
         23    2    1    2    0    0 -0.11365874379E+02  0.12624015547E+03  0.53835372434E+03  0.56087446326E+03  0.93218405248E+02 0.  0.
        -11    1    4    4    0    0 -0.49448983547E+02  0.58087227202E+02  0.32052017981E+03  0.32947308479E+03  0.00000000000E+00 0. -1.
         11    1    4    4    0    0  0.38083109167E+02  0.68152928270E+02  0.21783354453E+03  0.23140137847E+03  0.00000000000E+00 0.  1.
        -13    1    3    3    0    0 -0.90590019958E+01 -0.40628689747E+02 -0.39758816577E+02  0.57563177843E+02  0.00000000000E+00 0.  1.
         13    1    3    3    0    0  0.18496126229E+01 -0.25966687634E+02  0.50802561773E+02  0.57084062717E+02  0.00000000000E+00 0. -1.
         21    1    1    2  502  501  0.18575263752E+02 -0.59644778090E+02  0.11479595019E+03  0.13069296139E+03  0.00000000000E+00 0. -1.
<scales pt_clust_5="13000.00000" pt_clust_6="13000.00000" pt_clust_7="13000.00000" pt_clust_8="13000.00000" pt_clust_9="62.47031"></scales>
<clustering>
<clus scale="   62.470">  1  9  2 -1</clus>
<clus scale="   92.386">  7  8 -1 -1</clus>
<clus scale="   93.218">  5  6 -1 -1</clus>
<clus scale="  117.689">  2  7  1 -1</clus>
<clus scale="   62.470">  1  5  2 -1</clus>
</clustering>
</event>
<event>
 9    1  0.9000149E-006  0.1182467E+03  0.7546771E-02  0.1246272E+00
          2   -1    0    0  502    0  0.00000000000E+00  0.00000000000E+00  0.82017400361E+03  0.82017400361E+03  0.00000000000E+00 0. -1.
         -2   -1    0    0    0  501 -0.00000000000E+00 -0.00000000000E+00 -0.33380376035E+02  0.33380376035E+02  0.00000000000E+00 0.  1.
         23    2    1    2    0    0  0.60479318569E+02  0.59185030953E+02  0.18753078351E+03  0.22432926540E+03  0.89415930834E+02 0.  0.
         23    2    1    2    0    0 -0.72533391844E+02 -0.13723775411E+02  0.23905039886E+03  0.26595519791E+03  0.90208864054E+02 0.  0.
        -11    1    4    4    0    0 -0.33194663527E+02 -0.54753479550E+01  0.12536935865E+02  0.35903201567E+02  0.00000000000E+00 0.  1.
         11    1    4    4    0    0 -0.39338728317E+02 -0.82484274564E+01  0.22651346300E+03  0.23005199634E+03  0.00000000000E+00 0. -1.
        -13    1    3    3    0    0 -0.10638489654E+02  0.49569864188E+02  0.66502344204E+02  0.83623625145E+02  0.00000000000E+00 0.  1.
         13    1    3    3    0    0  0.71117808223E+02  0.96151667645E+01  0.12102843930E+03  0.14070564025E+03  0.00000000000E+00 0. -1.
         21    1    1    2  502  501  0.12054073275E+02 -0.45461255541E+02  0.36021244520E+03  0.36326991634E+03  0.00000000000E+00 0.  1.
<scales pt_clust_5="13000.00000" pt_clust_6="13000.00000" pt_clust_7="13000.00000" pt_clust_8="13000.00000" pt_clust_9="47.03219"></scales>
<clustering>
<clus scale="   47.032">  1  9  2 -1</clus>
<clus scale="   89.416">  7  8 -1 -1</clus>
<clus scale="   90.209">  5  6 -1 -1</clus>
<clus scale="  117.643">  2  7  1 -1</clus>
<clus scale="   47.032">  1  5  2 -1</clus>
</clustering>
</event>
<event>
 9    1  0.9000149E-006  0.1016919E+03  0.7546771E-02  0.1277218E+00
         -1   -1    0    0    0  501 -0.00000000000E+00  0.00000000000E+00  0.39993946827E+02  0.39993946827E+02  0.00000000000E+00 0.  1.
          1   -1    0    0  502    0  0.00000000000E+00 -0.00000000000E+00 -0.47675550755E+03  0.47675550755E+03  0.00000000000E+00 0. -1.
         23    2    1    2    0    0  0.38036138847E+02  0.12269754757E+02 -0.73602330025E+02  0.12397719920E+03  0.91409781731E+02 0.  0.
         23    2    1    2    0    0 -0.33141812846E+02 -0.42979892253E+02 -0.20203926274E+03  0.22867865065E+03  0.92349394571E+02 0.  0.
        -11    1    4    4    0    0 -0.53604971100E+02 -0.58848977122E+02 -0.16803670832E+03  0.18593824345E+03  0.00000000000E+00 0. -1.
         11    1    4    4    0    0  0.20463158254E+02  0.15869084869E+02 -0.34002554417E+02  0.42740407195E+02  0.00000000000E+00 0.  1.
        -11    1    3    3    0    0  0.21495656496E+02  0.45507941103E+02 -0.11504642429E+02  0.51627441821E+02  0.00000000000E+00 0.  1.
         11    1    3    3    0    0  0.16540482351E+02 -0.33238186346E+02 -0.62097687596E+02  0.72349757379E+02  0.00000000000E+00 0. -1.
         21    1    1    2  502  501 -0.48943260011E+01  0.30710137496E+02 -0.16111996796E+03  0.16409360452E+03  0.00000000000E+00 0.  1.
<scales pt_clust_5="13000.00000" pt_clust_6="13000.00000" pt_clust_7="13000.00000" pt_clust_8="13000.00000" pt_clust_9="31.09770"></scales>
<clustering>
<clus scale="   31.098">  2  9  1 -1</clus>
<clus scale="   91.410">  7  8 -1 -1</clus>
<clus scale="   92.349">  5  6 -1 -1</clus>
<clus scale="  100.839">  1  7  2 -1</clus>
<clus scale="   31.098">  2  5  1 -1</clus>
</clustering>
</event>
<event>
 9    1  0.9000149E-006  0.1025264E+03  0.7546771E-02  0.1277619E+00
         -3   -1    0    0    0  501 -0.00000000000E+00  0.00000000000E+00  0.15612668746E+03  0.15612668746E+03  0.00000000000E+00 0.  1.
          3   -1    0    0  502    0  0.00000000000E+00 -0.00000000000E+00 -0.13502457826E+03  0.13502457826E+03  0.00000000000E+00 0. -1.
         23    2    1    2    0    0 -0.46518954418E+01 -0.19415799443E+02  0.60454487406E+02  0.11658691915E+03  0.97668578721E+02 0.  0.
         23    2    1    2    0    0 -0.36681661869E+02  0.53360010524E+02 -0.95602696946E+01  0.11334145742E+03  0.92531357780E+02 0.  0.
        -11    1    3    3    0    0 -0.21994569814E+02  0.34950214485E+02  0.16144688358E+02  0.44338804179E+02  0.00000000000E+00 0. -1.
         11    1    3    3    0    0  0.17342674372E+02 -0.54366013928E+02  0.44309799047E+02  0.72248114968E+02  0.00000000000E+00 0.  1.
        -13    1    4    4    0    0  0.15571460875E+02  0.16233724148E+02  0.30391522707E+02  0.37810697507E+02  0.00000000000E+00 0.  1.
         13    1    4    4    0    0 -0.52253122745E+02  0.37126286376E+02 -0.39951792402E+02  0.75530759911E+02  0.00000000000E+00 0. -1.
         21    1    1    2  502  501  0.41333557311E+02 -0.33944211081E+02 -0.29792108514E+02  0.61222889148E+02  0.00000000000E+00 0.  1.
<scales pt_clust_5="13000.00000" pt_clust_6="13000.00000" pt_clust_7="13000.00000" pt_clust_8="13000.00000" pt_clust_9="53.48525"></scales>
<clustering>
<clus scale="   53.485">  2  9  1 -1</clus>
<clus scale="   92.531">  7  8 -1 -1</clus>
<clus scale="   97.645">  2  7  1 -1</clus>
<clus scale="   97.669">  5  6 -1 -1</clus>
<clus scale="   53.485">  2  5  1 -1</clus>
</clustering>
</event>
<event>
 9    1  0.1507568E-005  0.3286527E+03  0.7546771E-02  0.1093557E+00
         -2   -1    0    0    0  501 -0.00000000000E+00  0.00000000000E+00  0.34340869571E+03  0.34340869571E+03  0.00000000000E+00 0.  1.
          2   -1    0    0  502    0  0.00000000000E+00 -0.00000000000E+00 -0.15278965438E+04  0.15278965438E+04  0.00000000000E+00 0. -1.
         23    2    1    2    0    0 -0.27637335790E+03 -0.17708045040E+03  0.19990608348E+03  0.39553245524E+03  0.93508085536E+02 0.  0.
         23    2    1    2    0    0  0.13902558361E+01  0.16043816524E+03 -0.90075481741E+03  0.91917646303E+03  0.88225797909E+02 0.  0.
        -11    1    3    3    0    0 -0.61847852204E+02 -0.12711019847E+02  0.70765060190E+01  0.63535846459E+02  0.00000000000E+00 0. -1.
         11    1    3    3    0    0 -0.21452550569E+03 -0.16436943055E+03  0.19282957747E+03  0.33199660878E+03  0.00000000000E+00 0.  1.
        -11    1    4    4    0    0 -0.42432502869E+02  0.75881929947E+02 -0.38401152885E+03  0.39373015998E+03  0.00000000000E+00 0. -1.
         11    1    4    4    0    0  0.43822758705E+02  0.84556235288E+02 -0.51674328856E+03  0.52544630304E+03  0.00000000000E+00 0.  1.
         21    1    1    2  502  501  0.27498310206E+03  0.16642285166E+02 -0.48363911411E+03  0.55659632120E+03  0.00000000000E+00 0. -1.
<scales pt_clust_5="13000.00000" pt_clust_6="13000.00000" pt_clust_7="13000.00000" pt_clust_8="13000.00000" pt_clust_9="315.06954"></scales>
<clustering>
<clus scale="   88.226">  7  8 -1 -1</clus>
<clus scale="   93.508">  5  6 -1 -1</clus>
<clus scale="  183.101">  2  7  1 -1</clus>
<clus scale="  315.070">  2  9  1 -1</clus>
<clus scale="  183.101">  2  5  1 -1</clus>
</clustering>
</event>
<event>
 9    1  0.9000149E-006  0.9475923E+02  0.7546771E-02  0.1293124E+00
         -2   -1    0    0    0  501 -0.00000000000E+00  0.00000000000E+00  0.11296212354E+03  0.11296212354E+03  0.00000000000E+00 0.  1.
          2   -1    0    0  502    0  0.00000000000E+00 -0.00000000000E+00 -0.72692700333E+03  0.72692700333E+03  0.00000000000E+00 0. -1.
         23    2    1    2    0    0 -0.25735410734E+02  0.30358547417E+02  0.61917916549E+02  0.11660787113E+03  0.90441220981E+02 0.  0.
         23    2    1    2    0    0  0.12523373687E+02  0.41726922999E+02 -0.90892800799E+02  0.13371856371E+03  0.87870256918E+02 0.  0.
        -11    1    4    4    0    0  0.40602538908E+02 -0.17537805017E+01 -0.62866221940E+02  0.74858558447E+02  0.00000000000E+00 0. -1.
         11    1    4    4    0    0 -0.28079165220E+02  0.43480703501E+02 -0.28026578859E+02  0.58860005258E+02  0.00000000000E+00 0.  1.
        -13    1    3    3    0    0 -0.44015220038E+02  0.19973136021E+02  0.76874025435E+02  0.90806836439E+02  0.00000000000E+00 0.  1.
         13    1    3    3    0    0  0.18279809304E+02  0.10385411396E+02 -0.14956108886E+02  0.25801034690E+02  0.00000000000E+00 0. -1.
         21    1    1    2  502  501  0.13212037046E+02 -0.72085470416E+02 -0.58498999553E+03  0.58956269204E+03  0.00000000000E+00 0. -1.
<scales pt_clust_5="13000.00000" pt_clust_6="13000.00000" pt_clust_7="13000.00000" pt_clust_8="13000.00000" pt_clust_9="73.28624"></scales>
<clustering>
<clus scale="   73.286">  2  9  1 -1</clus>
<clus scale="   87.870">  5  6 -1 -1</clus>
<clus scale="   90.441">  7  8 -1 -1</clus>
<clus scale="   92.309">  2  5  1 -1</clus>
<clus scale="   73.286">  2  5  1 -1</clus>
</clustering>
</event>
<event>
 9    1  0.9000149E-006  0.1899446E+03  0.7546771E-02  0.1158751E+00
         -1   -1    0    0    0  501 -0.00000000000E+00  0.00000000000E+00  0.58187681377E+02  0.58187681377E+02  0.00000000000E+00 0.  1.
          1   -1    0    0  502    0  0.00000000000E+00 -0.00000000000E+00 -0.86646747222E+03  0.86646747222E+03  0.00000000000E+00 0. -1.
         23    2    1    2    0    0 -0.11140934784E+03 -0.13229387906E+03 -0.18054577919E+03  0.26621413262E+03  0.91430152591E+02 0.  0.
         23    2    1    2    0    0  0.10207838786E+03  0.11052907149E+03 -0.54452005653E+03  0.57192318472E+03  0.89204060125E+02 0.  0.
        -13    1    4    4    0    0  0.43202790439E+02  0.56357906561E+02 -0.11608735441E+03  0.13608441714E+03  0.00000000000E+00 0.  1.
         13    1    4    4    0    0  0.58875597418E+02  0.54171164927E+02 -0.42843270211E+03  0.43583876758E+03  0.00000000000E+00 0. -1.
        -13    1    3    3    0    0 -0.10714430713E+03 -0.69800122117E+02 -0.14811219323E+03  0.19567621568E+03  0.00000000000E+00 0.  1.
         13    1    3    3    0    0 -0.42650407096E+01 -0.62493756944E+02 -0.32433585959E+02  0.70537916948E+02  0.00000000000E+00 0. -1.
         21    1    1    2  502  501  0.93309599822E+01  0.21764807573E+02 -0.83213955127E+02  0.86517836258E+02  0.00000000000E+00 0.  1.
<scales pt_clust_5="13000.00000" pt_clust_6="13000.00000" pt_clust_7="13000.00000" pt_clust_8="13000.00000" pt_clust_9="23.68066"></scales>
<clustering>
<clus scale="   23.681">  2  9  1 -1</clus>
<clus scale="   89.204">  5  6 -1 -1</clus>
<clus scale="   91.430">  7  8 -1 -1</clus>
<clus scale="  188.883">  2  5  1 -1</clus>
<clus scale="   23.681">  2  5  1 -1</clus>
</clustering>
</event>
<event>
 9    1  0.9000149E-006  0.1032129E+03  0.7546771E-02  0.1280098E+00
          1   -1    0    0  502    0  0.00000000000E+00  0.00000000000E+00  0.15475086159E+03  0.15475086159E+03  0.00000000000E+00 0. -1.
         -1   -1    0    0    0  501 -0.00000000000E+00 -0.00000000000E+00 -0.15795906963E+03  0.15795906963E+03  0.00000000000E+00 0.  1.
         23    2    1    2    0    0 -0.14164901839E+02  0.40319863909E+02 -0.18594651089E+02  0.10060908329E+03  0.89163281236E+02 0.  0.
         23    2    1    2    0    0 -0.38097317227E+02  0.17714978158E+02  0.56982655619E+02  0.12361566649E+03  0.10133402158E+03 0.  0.
        -13    1    3    3    0    0 -0.38770173260E+02 -0.12317210364E+02 -0.97964544651E+01  0.41842687842E+02  0.00000000000E+00 0.  1.
         13    1    3    3    0    0  0.24605271421E+02  0.52637074273E+02 -0.87981966234E+01  0.58766395444E+02  0.00000000000E+00 0. -1.
        -13    1    4    4    0    0 -0.70290137671E+02  0.18554605957E+02  0.55349764370E+02  0.91370527370E+02  0.00000000000E+00 0.  1.
         13    1    4    4    0    0  0.32192820444E+02 -0.83962779823E+00  0.16328912494E+01  0.32245139119E+02  0.00000000000E+00 0. -1.
         21    1    1    2  502  501  0.52262219066E+02 -0.58034842067E+02 -0.41596212564E+02  0.88485181444E+02  0.00000000000E+00 0. -1.
<scales pt_clust_5="13000.00000" pt_clust_6="13000.00000" pt_clust_7="13000.00000" pt_clust_8="13000.00000" pt_clust_9="78.09854"></scales>
<clustering>
<clus scale="   78.099">  2  9  1 -1</clus>
<clus scale="   89.163">  5  6 -1 -1</clus>
<clus scale="   91.293">  2  5  1 -1</clus>
<clus scale="  101.334">  7  8 -1 -1</clus>
<clus scale="  103.213">  1  5  2 -1</clus>
</clustering>
</event>
<event>
 9    1  0.9000149E-006  0.1045110E+03  0.7546771E-02  0.1271325E+00
         -1   -1    0    0    0  501 -0.00000000000E+00  0.00000000000E+00  0.37393144252E+03  0.37393144252E+03  0.00000000000E+00 0.  1.
          1   -1    0    0  502    0  0.00000000000E+00 -0.00000000000E+00 -0.41832348974E+02  0.41832348974E+02  0.00000000000E+00 0. -1.
         23    2    1    2    0    0  0.19717136509E+01  0.33885872404E+02  0.18737216588E+03  0.21178826964E+03  0.92702764826E+02 0.  0.
         23    2    1    2    0    0  0.26393394059E+01 -0.55743789174E+02  0.76370972541E+02  0.13206191440E+03  0.92160119601E+02 0.  0.
        -11    1    4    4    0    0 -0.33967099248E+02 -0.62992745701E+01  0.58601654519E+02  0.68026455176E+02  0.00000000000E+00 0.  1.
         11    1    4    4    0    0  0.36606438654E+02 -0.49444514604E+02  0.17769318022E+02  0.64035459227E+02  0.00000000000E+00 0. -1.
        -11    1    3    3    0    0  0.29001269306E+02 -0.18631839022E+02  0.38770547607E+02  0.51878458039E+02  0.00000000000E+00 0. -1.
         11    1    3    3    0    0 -0.27029555655E+02  0.52517711426E+02  0.14860161828E+03  0.15990981160E+03  0.00000000000E+00 0.  1.
         21    1    1    2  502  501 -0.46110530568E+01  0.21857916770E+02  0.68355955119E+02  0.71913607448E+02  0.00000000000E+00 0.  1.
<scales pt_clust_5="13000.00000" pt_clust_6="13000.00000" pt_clust_7="13000.00000" pt_clust_8="13000.00000" pt_clust_9="22.33899"></scales>
<clustering>
<clus scale="   22.339">  1  9  2 -1</clus>
<clus scale="   92.160">  5  6 -1 -1</clus>
<clus scale="   92.703">  7  8 -1 -1</clus>
<clus scale="  104.030">  2  5  1 -1</clus>
<clus scale="  104.030">  2  5  1 -1</clus>
</clustering>
</event>
<event>
 9    1  0.9000149E-006  0.1345609E+03  0.7546771E-02  0.1221798E+00
         -1   -1    0    0    0  501 -0.00000000000E+00  0.00000000000E+00  0.16014257021E+03  0.16014257021E+03  0.00000000000E+00 0.  1.
          1   -1    0    0  502    0  0.00000000000E+00 -0.00000000000E+00 -0.19331743767E+03  0.19331743767E+03  0.00000000000E+00 0. -1.
         23    2    1    2    0    0 -0.17147872849E+02 -0.81204434298E+02  0.11937754826E+02  0.12533828339E+03  0.93160966072E+02 0.  0.
         23    2    1    2    0    0  0.38298192440E+02  0.10528450588E+03  0.30093140790E+02  0.14637153998E+03  0.89260584092E+02 0.  0.
        -13    1    4    4    0    0  0.40421626612E+02  0.46605519826E+01  0.19647284571E+02  0.45184559683E+02  0.00000000000E+00 0.  1.
         13    1    4    4    0    0 -0.21234341722E+01  0.10062395390E+03  0.10445856219E+02  0.10118698030E+03  0.00000000000E+00 0. -1.
        -13    1    3    3    0    0 -0.49874621075E+02 -0.75104276688E+02  0.16758976179E+02  0.91700564267E+02  0.00000000000E+00 0.  1.
         13    1    3    3    0    0  0.32726748226E+02 -0.61001576096E+01 -0.48212213526E+01  0.33637719121E+02  0.00000000000E+00 0. -1.
         21    1    1    2  502  501 -0.21150319591E+02 -0.24080071580E+02 -0.75205763083E+02  0.81750184507E+02  0.00000000000E+00 0.  1.
<scales pt_clust_5="13000.00000" pt_clust_6="13000.00000" pt_clust_7="13000.00000" pt_clust_8="13000.00000" pt_clust_9="32.04974"></scales>
<clustering>
<clus scale="   32.050">  2  9  1 -1</clus>
<clus scale="   89.261">  5  6 -1 -1</clus>
<clus scale="   93.161">  7  8 -1 -1</clus>
<clus scale="  131.891">  2  5  1 -1</clus>
<clus scale="   32.050">  2  5  1 -1</clus>
</clustering>
</event>
<event>
 9    1  0.9000149E-006  0.9113409E+02  0.7546771E-02  0.1300317E+00
          3   -1    0    0  502    0  0.00000000000E+00  0.00000000000E+00  0.12465773651E+03  0.12465773651E+03  0.00000000000E+00 0. -1.
         -3   -1    0    0    0  501 -0.00000000000E+00 -0.00000000000E+00 -0.99370224082E+02  0.99370224082E+02  0.00000000000E+00 0.  1.
         23    2    1    2    0    0 -0.11724441414E+02  0.67643019187E+01 -0.20718090014E+02  0.93903779420E+02  0.90584006473E+02 0.  0.
         23    2    1    2    0    0 -0.13930265960E+02 -0.17936770580E+01  0.48303768897E+02  0.10389151659E+03  0.90900624547E+02 0.  0.
        -11    1    4    4    0    0  0.37789349726E+02 -0.16793481930E+01  0.32332585996E+02  0.49761946106E+02  0.00000000000E+00 0.  1.
         11    1    4    4    0    0 -0.51719615686E+02 -0.11432886496E+00  0.15971182902E+02  0.54129570486E+02  0.00000000000E+00 0. -1.
        -13    1    3    3    0    0 -0.32405710844E+02 -0.14196561834E+01 -0.48480324349E+02  0.58330844053E+02  0.00000000000E+00 0.  1.
         13    1    3    3    0    0  0.20681269430E+02  0.81839581021E+01  0.27762234334E+02  0.35572935368E+02  0.00000000000E+00 0. -1.
         21    1    1    2  502  501  0.25654707374E+02 -0.49706248606E+01 -0.22981664549E+01  0.26232664581E+02  0.00000000000E+00 0. -1.
<scales pt_clust_5="13000.00000" pt_clust_6="13000.00000" pt_clust_7="13000.00000" pt_clust_8="13000.00000" pt_clust_9="26.13180"></scales>
<clustering>
<clus scale="   26.132">  2  9  1 -1</clus>
<clus scale="   90.584">  7  8 -1 -1</clus>
<clus scale="   90.818">  2  7  1 -1</clus>
<clus scale="   90.901">  5  6 -1 -1</clus>
<clus scale="   91.134">  1  5  2 -1</clus>
</clustering>
</event>
<event>
 9    1  0.9000149E-006  0.9870426E+02  0.7546771E-02  0.1284844E+00
          1   -1    0    0  502    0  0.00000000000E+00  0.00000000000E+00  0.40051823383E+03  0.40051823383E+03  0.00000000000E+00 0. -1.
         -1   -1    0    0    0  501 -0.00000000000E+00 -0.00000000000E+00 -0.32225046977E+02  0.32225046977E+02  0.00000000000E+00 0.  1.
         23    2    1    2    0    0  0.22007279004E+02  0.10839556927E+02  0.10216751027E+03  0.13756842537E+03  0.88797833199E+02 0.  0.
         23    2    1    2    0    0 -0.25788863581E+02 -0.33064180820E+02  0.24071413099E+03  0.26120456049E+03  0.92337554796E+02 0.  0.
        -11    1    4    4    0    0 -0.52071100099E+02 -0.36100400542E+01  0.78593069104E+02  0.94346713593E+02  0.00000000000E+00 0.  1.
         11    1    4    4    0    0  0.26282236518E+02 -0.29454140766E+02  0.16212106189E+03  0.16685784690E+03  0.00000000000E+00 0. -1.
        -13    1    3    3    0    0  0.46037438294E+02  0.20896859192E+02  0.99211923496E+02  0.11135138173E+03  0.00000000000E+00 0.  1.
         13    1    3    3    0    0 -0.24030159290E+02 -0.10057302266E+02  0.29555867767E+01  0.26217043646E+02  0.00000000000E+00 0. -1.
         21    1    1    2  502  501  0.37815845768E+01  0.22224623893E+02  0.25411545587E+02  0.33970294939E+02  0.00000000000E+00 0. -1.
<scales pt_clust_5="13000.00000" pt_clust_6="13000.00000" pt_clust_7="13000.00000" pt_clust_8="13000.00000" pt_clust_9="22.54405"></scales>
<clustering>
<clus scale="   22.544">  2  9  1 -1</clus>
<clus scale="   88.798">  7  8 -1 -1</clus>
<clus scale="   92.338">  5  6 -1 -1</clus>
<clus scale="   95.401">  2  7  1 -1</clus>
<clus scale="   98.704">  1  5  2 -1</clus>
</clustering>
</event>
<event>
 9    1  0.9000149E-006  0.1060439E+03  0.7546771E-02  0.1269339E+00
         -2   -1    0    0    0  501 -0.00000000000E+00  0.00000000000E+00  0.14888043002E+03  0.14888043002E+03  0.00000000000E+00 0.  1.
          2   -1    0    0  502    0  0.00000000000E+00 -0.00000000000E+00 -0.20940150904E+03  0.20940150904E+03  0.00000000000E+00 0. -1.
         23    2    1    2    0    0 -0.43883166854E+02 -0.37568990645E+02  0.89375200275E+02  0.13698203324E+03  0.86249577470E+02 0.  0.
         23    2    1    2    0    0  0.57712545349E+02  0.15297317774E+02 -0.50871115377E+02  0.11886328049E+03  0.89307688621E+02 0.  0.
        -11    1    4    4    0    0  0.13935642443E+02 -0.36505190575E+02 -0.12982027077E+02  0.41174799286E+02  0.00000000000E+00 0.  1.
         11    1    4    4    0    0  0.43776902906E+02  0.51802508349E+02 -0.37889088299E+02  0.77688481201E+02  0.00000000000E+00 0. -1.
        -11    1    3    3    0    0  0.25226460686E+02 -0.20721840633E+02  0.29619163606E+02  0.44080197942E+02  0.00000000000E+00 0.  1.
         11    1    3    3    0    0 -0.69109627540E+02 -0.16847150012E+02  0.59756036670E+02  0.92901835293E+02  0.00000000000E+00 0. -1.
         21    1    1    2  502  501 -0.13829378494E+02  0.22271672871E+02 -0.99025163918E+02  0.10243662534E+03  0.00000000000E+00 0. -1.
<scales pt_clust_5="13000.00000" pt_clust_6="13000.00000" pt_clust_7="13000.00000" pt_clust_8="13000.00000" pt_clust_9="26.21601"></scales>
<clustering>
<clus scale="   26.216">  2  9  1 -1</clus>
<clus scale="   86.250">  7  8 -1 -1</clus>
<clus scale="   89.308">  5  6 -1 -1</clus>
<clus scale="  103.482">  1  7  2 -1</clus>
<clus scale="   26.216">  2  5  1 -1</clus>
</clustering>
</event>
<event>
 9    1  0.9000149E-006  0.9035304E+02  0.7546771E-02  0.1302552E+00
          2   -1    0    0  502    0  0.00000000000E+00  0.00000000000E+00  0.27435208611E+03  0.27435208611E+03  0.00000000000E+00 0. -1.
         -2   -1    0    0    0  501 -0.00000000000E+00 -0.00000000000E+00 -0.11702306812E+03  0.11702306812E+03  0.00000000000E+00 0.  1.
         23    2    1    2    0    0 -0.84369175137E+01 -0.63543464176E+01 -0.75083128038E+02  0.11691389044E+03  0.88993383838E+02 0.  0.
         23    2    1    2    0    0 -0.13235883312E+02  0.13283972961E+02  0.84481425920E+02  0.12479086601E+03  0.89911046983E+02 0.  0.
        -11    1    3    3    0    0 -0.30401488988E+02  0.13213983304E+02 -0.80449495069E+02  0.87011385142E+02  0.00000000000E+00 0.  1.
         11    1    3    3    0    0  0.21964571475E+02 -0.19568329721E+02  0.53663670308E+01  0.29902505301E+02  0.00000000000E+00 0. -1.
        -13    1    4    4    0    0  0.25558054721E+02  0.96847502404E+01  0.81218470726E+02  0.85693923561E+02  0.00000000000E+00 0. -1.
         13    1    4    4    0    0 -0.38793938033E+02  0.35992227205E+01  0.32629551941E+01  0.39096942449E+02  0.00000000000E+00 0.  1.
         21    1    1    2  502  501  0.21672800826E+02 -0.69296265433E+01  0.14793072011E+03  0.14967039778E+03  0.00000000000E+00 0. -1.
<scales pt_clust_5="13000.00000" pt_clust_6="13000.00000" pt_clust_7="13000.00000" pt_clust_8="13000.00000" pt_clust_9="22.75368"></scales>
<clustering>
<clus scale="   22.754">  1  9  2 -1</clus>
<clus scale="   88.993">  5  6 -1 -1</clus>
<clus scale="   89.440">  2  5  1 -1</clus>
<clus scale="   89.911">  7  8 -1 -1</clus>
<clus scale="   22.754">  1  5  2 -1</clus>
</clustering>
</event>
<event>
 9    1  0.9000149E-006  0.1266827E+03  0.7546771E-02  0.1233256E+00
         -1   -1    0    0    0  501 -0.00000000000E+00  0.00000000000E+00  0.40782900716E+03  0.40782900716E+03  0.00000000000E+00 0.  1.
          1   -1    0    0  502    0  0.00000000000E+00 -0.00000000000E+00 -0.11141945229E+03  0.11141945229E+03  0.00000000000E+00 0. -1.
         23    2    1    2    0    0 -0.25340456276E+02 -0.71682984838E+02  0.19545274140E+03  0.22840910472E+03  0.90489535098E+02 0.  0.
         23    2    1    2    0    0  0.51311856633E+02  0.87128872396E+02  0.16809330612E+03  0.21721600432E+03  0.93290331409E+02 0.  0.
        -11    1    3    3    0    0  0.12486529006E+02 -0.63635642636E+02  0.17041875386E+03  0.18234023167E+03  0.00000000000E+00 0.  1.
         11    1    3    3    0    0 -0.37826985282E+02 -0.80473422022E+01  0.25033987537E+02  0.46068873050E+02  0.00000000000E+00 0. -1.
        -13    1    4    4    0    0  0.17034436645E+02  0.85517010981E+02  0.15959774706E+03  0.18186470814E+03  0.00000000000E+00 0. -1.
         13    1    4    4    0    0  0.34277419988E+02  0.16118614146E+01  0.84955590628E+01  0.35351296186E+02  0.00000000000E+00 0.  1.
         21    1    1    2  502  501 -0.25971400357E+02 -0.15445887557E+02 -0.67136492650E+02  0.73623350401E+02  0.00000000000E+00 0. -1.
<scales pt_clust_5="13000.00000" pt_clust_6="13000.00000" pt_clust_7="13000.00000" pt_clust_8="13000.00000" pt_clust_9="30.21736"></scales>
<clustering>
<clus scale="   30.217">  2  9  1 -1</clus>
<clus scale="   90.490">  5  6 -1 -1</clus>
<clus scale="   93.290">  7  8 -1 -1</clus>
<clus scale="  124.635">  1  5  2 -1</clus>
<clus scale="   30.217">  2  5  1 -1</clus>
</clustering>
</event>
<event>
 9    1  0.9000149E-006  0.1209861E+03  0.7546771E-02  0.1241922E+00
         -1   -1    0    0    0  501 -0.00000000000E+00  0.00000000000E+00  0.13542346304E+03  0.13542346304E+03  0.00000000000E+00 0.  1.
          1   -1    0    0  502    0  0.00000000000E+00 -0.00000000000E+00 -0.39179684470E+03  0.39179684470E+03  0.00000000000E+00 0. -1.
         23    2    1    2    0    0  0.49349294497E+02 -0.59900885192E+02  0.81683958567E+02  0.14495254478E+03  0.91189375683E+02 0.  0.
         23    2    1    2    0    0 -0.89931734850E+02  0.49729759457E+02 -0.26574554470E+03  0.29872506708E+03  0.89750795348E+02 0.  0.
        -11    1    4    4    0    0 -0.62754054105E+02 -0.16367581257E+02 -0.13270015455E+03  0.14770003399E+03  0.00000000000E+00 0.  1.
         11    1    4    4    0    0 -0.27177680745E+02  0.66097340713E+02 -0.13304539015E+03  0.15102503309E+03  0.00000000000E+00 0. -1.
        -11    1    3    3    0    0  0.83079415209E+01  0.23220751497E+02  0.62616724880E+01  0.25444719192E+02  0.00000000000E+00 0. -1.
         11    1    3    3    0    0  0.41041352976E+02 -0.83121636689E+02  0.75422286079E+02  0.11950782559E+03  0.00000000000E+00 0.  1.
         21    1    1    2  502  501  0.40582440353E+02  0.10171125735E+02 -0.72311795523E+02  0.83542695883E+02  0.00000000000E+00 0. -1.
<scales pt_clust_5="13000.00000" pt_clust_6="13000.00000" pt_clust_7="13000.00000" pt_clust_8="13000.00000" pt_clust_9="41.83762"></scales>
<clustering>
<clus scale="   41.838">  2  9  1 -1</clus>
<clus scale="   89.751">  5  6 -1 -1</clus>
<clus scale="   91.189">  7  8 -1 -1</clus>
<clus scale="  119.906">  2  5  1 -1</clus>
<clus scale="   41.838">  2  5  1 -1</clus>
</clustering>
</event>
<event>
 9    1  0.9000149E-006  0.1119492E+03  0.7546771E-02  0.1257131E+00
         -1   -1    0    0    0  501 -0.00000000000E+00  0.00000000000E+00  0.32833273760E+02  0.32833273760E+02  0.00000000000E+00 0.  1.
          1   -1    0    0  502    0  0.00000000000E+00 -0.00000000000E+00 -0.59424773464E+03  0.59424773464E+03  0.00000000000E+00 0. -1.
         23    2    1    2    0    0 -0.10947196848E+02 -0.46384565323E+02 -0.11123285311E+03  0.15096848659E+03  0.90262768153E+02 0.  0.
         23    2    1    2    0    0 -0.67640257825E+01  0.74034796904E+02 -0.39373057563E+03  0.41080600036E+03  0.90614019606E+02 0.  0.
        -13    1    3    3    0    0 -0.23453057164E+02 -0.12006543212E+01  0.63974868455E+01  0.24339582968E+02  0.00000000000E+00 0. -1.
         13    1    3    3    0    0  0.12505860316E+02 -0.45183911002E+02 -0.11763033995E+03  0.12662890363E+03  0.00000000000E+00 0.  1.
        -13    1    4    4    0    0  0.37078609378E+02  0.15063344263E+02 -0.19153147600E+03  0.19566817296E+03  0.00000000000E+00 0.  1.
         13    1    4    4    0    0 -0.43842635160E+02  0.58971452641E+02 -0.20219909964E+03  0.21513782740E+03  0.00000000000E+00 0. -1.
         21    1    1    2  502  501  0.17711222631E+02 -0.27650231581E+02 -0.56451032139E+02  0.65306521444E+02  0.00000000000E+00 0.  1.
<scales pt_clust_5="13000.00000" pt_clust_6="13000.00000" pt_clust_7="13000.00000" pt_clust_8="13000.00000" pt_clust_9="32.83630"></scales>
<clustering>
<clus scale="   32.836">  1  9  2 -1</clus>
<clus scale="   90.263">  5  6 -1 -1</clus>
<clus scale="   90.614">  7  8 -1 -1</clus>
<clus scale="  111.665">  1  5  2 -1</clus>
<clus scale="  111.949">  2  5  1 -1</clus>
</clustering>
</event>
<event>
 9    1  0.9000149E-006  0.9857143E+02  0.7546771E-02  0.1284673E+00
         -1   -1    0    0    0  501 -0.00000000000E+00  0.00000000000E+00  0.57072310464E+02  0.57072310464E+02  0.00000000000E+00 0.  1.
          1   -1    0    0  502    0  0.00000000000E+00 -0.00000000000E+00 -0.32846146413E+03  0.32846146413E+03  0.00000000000E+00 0. -1.
         23    2    1    2    0    0 -0.27332709935E+02  0.20091432575E+02 -0.44583504758E+02  0.10885542508E+03  0.93333123688E+02 0.  0.
         23    2    1    2    0    0  0.32388795729E+02 -0.58206606591E+00 -0.71230024532E+02  0.11980274821E+03  0.90717193485E+02 0.  0.
        -11    1    4    4    0    0  0.58973798817E+02  0.19322449583E+02 -0.54611760071E+02  0.82666258794E+02  0.00000000000E+00 0.  1.
         11    1    4    4    0    0 -0.26585003088E+02 -0.19904515648E+02 -0.16618264461E+02  0.37136489415E+02  0.00000000000E+00 0. -1.
        -11    1    3    3    0    0  0.14825517867E+01 -0.35689522027E+02 -0.96223716724E+01  0.36993647819E+02  0.00000000000E+00 0. -1.
         11    1    3    3    0    0 -0.28815261722E+02  0.55780954602E+02 -0.34961133086E+02  0.71861777261E+02  0.00000000000E+00 0.  1.
         21    1    1    2  502  501 -0.50560857939E+01 -0.19509366509E+02 -0.15557562438E+03  0.15687560131E+03  0.00000000000E+00 0. -1.
<scales pt_clust_5="13000.00000" pt_clust_6="13000.00000" pt_clust_7="13000.00000" pt_clust_8="13000.00000" pt_clust_9="20.15389"></scales>
<clustering>
<clus scale="   20.154">  2  9  1 -1</clus>
<clus scale="   90.717">  5  6 -1 -1</clus>
<clus scale="   93.333">  7  8 -1 -1</clus>
<clus scale="   96.098">  2  5  1 -1</clus>
<clus scale="   20.154">  2  5  1 -1</clus>
</clustering>
</event>
<event>
 9    1  0.9000149E-006  0.1543979E+03  0.7546771E-02  0.1195298E+00
          2   -1    0    0  502    0  0.00000000000E+00  0.00000000000E+00  0.11808470779E+03  0.11808470779E+03  0.00000000000E+00 0. -1.
         -2   -1    0    0    0  501 -0.00000000000E+00 -0.00000000000E+00 -0.31733910856E+03  0.31733910856E+03  0.00000000000E+00 0.  1.
         23    2    1    2    0    0 -0.12101204697E+03  0.24950361328E+02 -0.18387106824E+03  0.23982380744E+03  0.91871937165E+02 0.  0.
         23    2    1    2    0    0  0.12721574710E+03  0.11653104458E+01 -0.37368877778E+02  0.16090305793E+03  0.91149090868E+02 0.  0.
        -13    1    4    4    0    0  0.34565212803E+02  0.21110127710E+02  0.24863066874E+02  0.47524346628E+02  0.00000000000E+00 0.  1.
         13    1    4    4    0    0  0.92650534299E+02 -0.19944817264E+02 -0.62231944652E+02  0.11337871130E+03  0.00000000000E+00 0. -1.
        -13    1    3    3    0    0 -0.16414024594E+02 -0.31179565624E+02 -0.44006112782E+02  0.56374847921E+02  0.00000000000E+00 0. -1.
         13    1    3    3    0    0 -0.10459802238E+03  0.56129926952E+02 -0.13986495546E+03  0.18344895952E+03  0.00000000000E+00 0.  1.
         21    1    1    2  502  501 -0.62037001313E+01 -0.26115671774E+02  0.21985545245E+02  0.34696950979E+02  0.00000000000E+00 0. -1.
<scales pt_clust_5="13000.00000" pt_clust_6="13000.00000" pt_clust_7="13000.00000" pt_clust_8="13000.00000" pt_clust_9="26.84240"></scales>
<clustering>
<clus scale="   26.842">  1  9  2 -1</clus>
<clus scale="   91.149">  5  6 -1 -1</clus>
<clus scale="   91.872">  7  8 -1 -1</clus>
<clus scale="  153.969">  1  5  2 -1</clus>
<clus scale="   26.842">  1  5  2 -1</clus>
</clustering>
</event>
<event>
 9    1  0.9000149E-006  0.1052929E+03  0.7546771E-02  0.1287861E+00
          2   -1    0    0  502    0  0.00000000000E+00  0.00000000000E+00  0.29782573765E+03  0.29782573765E+03  0.00000000000E+00 0. -1.
         -2   -1    0    0    0  501 -0.00000000000E+00 -0.00000000000E+00 -0.58705478774E+02  0.58705478774E+02  0.00000000000E+00 0.  1.
         23    2    1    2    0    0 -0.19951631548E+02  0.18367657202E+02  0.63662714171E+02  0.97804462366E+02  0.69118255551E+02 0.  0.
         23    2    1    2    0    0 -0.54118471383E+02  0.12169893748E+02  0.13791833291E+03  0.17025012105E+03  0.82986275407E+02 0.  0.
        -11    1    4    4    0    0 -0.72334025310E+02 -0.78411166661E+01  0.10038559952E+03  0.12397968753E+03  0.00000000000E+00 0.  1.
         11    1    4    4    0    0  0.18215553928E+02  0.20011010414E+02  0.37532733393E+02  0.46270433525E+02  0.00000000000E+00 0. -1.
        -13    1    3    3    0    0 -0.30946017193E+02 -0.77423999333E+01  0.45095164785E+01  0.32217021521E+02  0.00000000000E+00 0.  1.
         13    1    3    3    0    0  0.10994385644E+02  0.26110057136E+02  0.59153197692E+02  0.65587440845E+02  0.00000000000E+00 0. -1.
         21    1    1    2  502  501  0.74070102931E+02 -0.30537550950E+02  0.37539211791E+02  0.88476633007E+02  0.00000000000E+00 0. -1.
<scales pt_clust_5="13000.00000" pt_clust_6="13000.00000" pt_clust_7="13000.00000" pt_clust_8="13000.00000" pt_clust_9="64.80640"></scales>
<clustering>
<clus scale="   69.118">  7  8 -1 -1</clus>
<clus scale="   74.248">  2  7  1 -1</clus>
<clus scale="   64.806">  2  9  1 -1</clus>
<clus scale="   82.986">  5  6 -1 -1</clus>
<clus scale="  105.293">  1  5  2 -1</clus>
</clustering>
</event>
<event>
 9    1  0.9000149E-006  0.9866562E+02  0.7546771E-02  0.1283465E+00
         -3   -1    0    0    0  501 -0.00000000000E+00  0.00000000000E+00  0.55689488274E+02  0.55689488274E+02  0.00000000000E+00 0.  1.
          3   -1    0    0  502    0  0.00000000000E+00 -0.00000000000E+00 -0.33952026540E+03  0.33952026540E+03  0.00000000000E+00 0. -1.
         23    2    1    2    0    0 -0.37195385445E+02  0.98824108467E+01 -0.20884652604E+02  0.10264225449E+03  0.92833748979E+02 0.  0.
         23    2    1    2    0    0  0.11896621697E+02 -0.43451123169E+01 -0.15415937532E+03  0.18074064228E+03  0.93496829711E+02 0.  0.
        -11    1    4    4    0    0  0.13873906713E+02 -0.34249860658E+02 -0.17598461705E+02  0.40929745870E+02  0.00000000000E+00 0.  1.
         11    1    4    4    0    0 -0.19772850169E+01  0.29904748341E+02 -0.13656091361E+03  0.13981089641E+03  0.00000000000E+00 0. -1.
        -11    1    3    3    0    0  0.55025297464E+01  0.23104933261E+02 -0.45710174580E+02  0.51512482320E+02  0.00000000000E+00 0. -1.
         11    1    3    3    0    0 -0.42697915191E+02 -0.13222522415E+02  0.24825521976E+02  0.51129772169E+02  0.00000000000E+00 0.  1.
         21    1    1    2  502  501  0.25298763748E+02 -0.55372985297E+01 -0.10878674920E+03  0.11182685690E+03  0.00000000000E+00 0.  1.
<scales pt_clust_5="13000.00000" pt_clust_6="13000.00000" pt_clust_7="13000.00000" pt_clust_8="13000.00000" pt_clust_9="25.89767"></scales>
<clustering>
<clus scale="   25.898">  2  9  1 -1</clus>
<clus scale="   92.834">  7  8 -1 -1</clus>
<clus scale="   93.497">  5  6 -1 -1</clus>
<clus scale="   98.038">  1  7  2 -1</clus>
<clus scale="   25.898">  2  5  1 -1</clus>
</clustering>
</event>
<event>
 9    1  0.9000149E-006  0.9245266E+02  0.7546771E-02  0.1297470E+00
          1   -1    0    0  502    0  0.00000000000E+00  0.00000000000E+00  0.48668685456E+03  0.48668685456E+03  0.00000000000E+00 0. -1.
         -1   -1    0    0    0  501 -0.00000000000E+00 -0.00000000000E+00 -0.43064575571E+02  0.43064575571E+02  0.00000000000E+00 0.  1.
         23    2    1    2    0    0  0.13913138832E+02 -0.88022654316E+01  0.28221658428E+02  0.96220496128E+02  0.90503406355E+02 0.  0.
         23    2    1    2    0    0 -0.35790383711E+02 -0.36965458641E+01  0.29197691467E+03  0.30756171037E+03  0.89716614775E+02 0.  0.
        -13    1    4    4    0    0 -0.42992307904E+02  0.35735367540E+02  0.18759523659E+03  0.19574812342E+03  0.00000000000E+00 0. -1.
         13    1    4    4    0    0  0.72019241931E+01 -0.39431913404E+02  0.10438167808E+03  0.11181358695E+03  0.00000000000E+00 0.  1.
        -13    1    3    3    0    0  0.17556115407E+02  0.38833389723E+02  0.22243707417E+02  0.48073192792E+02  0.00000000000E+00 0. -1.
         13    1    3    3    0    0 -0.36429765751E+01 -0.47635655154E+02  0.59779510113E+01  0.48147303337E+02  0.00000000000E+00 0.  1.
         21    1    1    2  502  501  0.21877244879E+02  0.12498811296E+02  0.12342370589E+03  0.12596922364E+03  0.00000000000E+00 0. -1.
<scales pt_clust_5="13000.00000" pt_clust_6="13000.00000" pt_clust_7="13000.00000" pt_clust_8="13000.00000" pt_clust_9="25.19591"></scales>
<clustering>
<clus scale="   25.196">  1  9  2 -1</clus>
<clus scale="   89.717">  5  6 -1 -1</clus>
<clus scale="   90.503">  7  8 -1 -1</clus>
<clus scale="   91.683">  1  5  2 -1</clus>
<clus scale="   25.196">  1  5  2 -1</clus>
</clustering>
</event>
<event>
 9    1  0.9000149E-006  0.9989216E+02  0.7546771E-02  0.1281905E+00
          1   -1    0    0  502    0  0.00000000000E+00  0.00000000000E+00  0.29112748650E+03  0.29112748650E+03  0.00000000000E+00 0. -1.
         -1   -1    0    0    0  501 -0.00000000000E+00 -0.00000000000E+00 -0.51154306572E+02  0.51154306572E+02  0.00000000000E+00 0.  1.
         23    2    1    2    0    0 -0.79862283829E+01 -0.41830775121E+02  0.47868302039E+02  0.10984839973E+03  0.89228375487E+02 0.  0.
         23    2    1    2    0    0  0.26001161282E+02  0.25919315219E+02  0.11569794658E+03  0.15233513171E+03  0.92044045014E+02 0.  0.
        -11    1    4    4    0    0  0.51621726190E+02  0.23394542512E+01  0.10306604134E+03  0.11529477238E+03  0.00000000000E+00 0. -1.
         11    1    4    4    0    0 -0.25620564908E+02  0.23579860968E+02  0.12631905237E+02  0.37040359331E+02  0.00000000000E+00 0.  1.
        -11    1    3    3    0    0  0.17590753274E+02 -0.19873653215E+02  0.66310255194E+02  0.71424412050E+02  0.00000000000E+00 0. -1.
         11    1    3    3    0    0 -0.25576981657E+02 -0.21957121905E+02 -0.18441953154E+02  0.38423987680E+02  0.00000000000E+00 0.  1.
         21    1    1    2  502  501 -0.18014932899E+02  0.15911459901E+02  0.76406931311E+02  0.80098261628E+02  0.00000000000E+00 0.  1.
<scales pt_clust_5="13000.00000" pt_clust_6="13000.00000" pt_clust_7="13000.00000" pt_clust_8="13000.00000" pt_clust_9="24.03565"></scales>
<clustering>
<clus scale="   24.036">  1  9  2 -1</clus>
<clus scale="   89.228">  7  8 -1 -1</clus>
<clus scale="   92.044">  5  6 -1 -1</clus>
<clus scale="   97.304">  2  7  1 -1</clus>
<clus scale="   24.036">  1  5  2 -1</clus>
</clustering>
</event>
<event>
 9    1  0.9000149E-006  0.1055815E+03  0.7546771E-02  0.1279395E+00
         -2   -1    0    0    0  501 -0.00000000000E+00  0.00000000000E+00  0.18812613362E+03  0.18812613362E+03  0.00000000000E+00 0.  1.
          2   -1    0    0  502    0  0.00000000000E+00 -0.00000000000E+00 -0.26541792574E+03  0.26541792574E+03  0.00000000000E+00 0. -1.
         23    2    1    2    0    0  0.35178785154E+02  0.37464893179E+02  0.15014081227E+03  0.18341824872E+03  0.91971872391E+02 0.  0.
         23    2    1    2    0    0 -0.54434574643E+02 -0.22780138323E+02 -0.81170801067E+02  0.12187284249E+03  0.69153692389E+02 0.  0.
        -13    1    4    4    0    0 -0.30057344018E+02  0.21137578328E+02 -0.17292539183E+02  0.40611243005E+02  0.00000000000E+00 0.  1.
         13    1    4    4    0    0 -0.24377230624E+02 -0.43917716651E+02 -0.63878261884E+02  0.81261599480E+02  0.00000000000E+00 0. -1.
        -13    1    3    3    0    0 -0.80984646046E+01  0.45921283212E+02  0.12323542870E+03  0.13176236287E+03  0.00000000000E+00 0.  1.
         13    1    3    3    0    0  0.43277249758E+02 -0.84563900327E+01  0.26905383565E+02  0.51655885858E+02  0.00000000000E+00 0. -1.
         21    1    1    2  502  501  0.19255789489E+02 -0.14684754857E+02 -0.14626180332E+03  0.14825296815E+03  0.00000000000E+00 0.  1.
<scales pt_clust_5="13000.00000" pt_clust_6="13000.00000" pt_clust_7="13000.00000" pt_clust_8="13000.00000" pt_clust_9="24.21626"></scales>
<clustering>
<clus scale="   24.216">  2  9  1 -1</clus>
<clus scale="   69.154">  5  6 -1 -1</clus>
<clus scale="   86.434">  2  5  1 -1</clus>
<clus scale="   91.972">  7  8 -1 -1</clus>
<clus scale="   24.216">  2  5  1 -1</clus>
</clustering>
</event>
<event>
 9    1  0.9000149E-006  0.1417922E+03  0.7546771E-02  0.1211192E+00
          1   -1    0    0  502    0  0.00000000000E+00  0.00000000000E+00  0.10936363214E+03  0.10936363214E+03  0.00000000000E+00 0. -1.
         -1   -1    0    0    0  501 -0.00000000000E+00 -0.00000000000E+00 -0.26685157104E+03  0.26685157104E+03  0.00000000000E+00 0.  1.
         23    2    1    2    0    0 -0.68840280000E+02 -0.64720825657E+02 -0.91159359506E+02  0.16059156466E+03  0.92476226087E+02 0.  0.
         23    2    1    2    0    0  0.73547505066E+02  0.10323096367E+03 -0.78685253899E+02  0.17490661378E+03  0.91296697652E+02 0.  0.
        -13    1    3    3    0    0  0.20525293685E+02 -0.20905126567E+02 -0.37281418612E+02  0.47415357969E+02  0.00000000000E+00 0. -1.
         13    1    3    3    0    0 -0.89365573685E+02 -0.43815699091E+02 -0.53877940894E+02  0.11317620669E+03  0.00000000000E+00 0.  1.
        -13    1    4    4    0    0 -0.12883534232E+02  0.33684897715E+02 -0.47557168812E+02  0.59685359124E+02  0.00000000000E+00 0.  1.
         13    1    4    4    0    0  0.86431039298E+02  0.69546065956E+02 -0.31128085087E+02  0.11522125466E+03  0.00000000000E+00 0. -1.
         21    1    1    2  502  501 -0.47072250654E+01 -0.38510138014E+02  0.12356674503E+02  0.40717024725E+02  0.00000000000E+00 0. -1.
<scales pt_clust_5="13000.00000" pt_clust_6="13000.00000" pt_clust_7="13000.00000" pt_clust_8="13000.00000" pt_clust_9="38.79676"></scales>
<clustering>
<clus scale="   38.797">  1  9  2 -1</clus>
<clus scale="   91.297">  7  8 -1 -1</clus>
<clus scale="   92.476">  5  6 -1 -1</clus>
<clus scale="  141.026">  1  7  2 -1</clus>
<clus scale="   38.797">  1  5  2 -1</clus>
</clustering>
</event>
<event>
 9    1  0.9000149E-006  0.1190225E+03  0.7546771E-02  0.1244782E+00
          2   -1    0    0  502    0  0.00000000000E+00  0.00000000000E+00  0.26975376514E+03  0.26975376514E+03  0.00000000000E+00 0. -1.
         -2   -1    0    0    0  501 -0.00000000000E+00 -0.00000000000E+00 -0.28624266956E+03  0.28624266956E+03  0.00000000000E+00 0.  1.
         23    2    1    2    0    0  0.34079600776E+01 -0.79005350041E+02 -0.25624237981E+03  0.28288154355E+03  0.90046382186E+02 0.  0.
         23    2    1    2    0    0 -0.14800492281E+01  0.56081827335E+02  0.17918205590E+03  0.20832213236E+03  0.90247103942E+02 0.  0.
        -11    1    3    3    0    0  0.38176434823E+02 -0.50888192869E+02 -0.20611334902E+03  0.21570758214E+03  0.00000000000E+00 0.  1.
         11    1    3    3    0    0 -0.34768474745E+02 -0.28117157172E+02 -0.50129030786E+02  0.67173961407E+02  0.00000000000E+00 0. -1.
        -11    1    4    4    0    0 -0.43374715414E+02  0.43082418447E+02  0.88176278493E+02  0.10729639698E+03  0.00000000000E+00 0. -1.
         11    1    4    4    0    0  0.41894666186E+02  0.12999408888E+02  0.91005777409E+02  0.10102573538E+03  0.00000000000E+00 0.  1.
         21    1    1    2  502  501 -0.19279108496E+01  0.22923522706E+02  0.60571419485E+02  0.64792758793E+02  0.00000000000E+00 0. -1.
<scales pt_clust_5="13000.00000" pt_clust_6="13000.00000" pt_clust_7="13000.00000" pt_clust_8="13000.00000" pt_clust_9="23.00445"></scales>
<clustering>
<clus scale="   23.004">  1  9  2 -1</clus>
<clus scale="   90.046">  5  6 -1 -1</clus>
<clus scale="   90.247">  7  8 -1 -1</clus>
<clus scale="  118.870">  2  5  1 -1</clus>
<clus scale="   23.004">  1  5  2 -1</clus>
</clustering>
</event>
<event>
 9    1  0.9000149E-006  0.9542602E+02  0.7546771E-02  0.1291620E+00
         -1   -1    0    0    0  501 -0.00000000000E+00  0.00000000000E+00  0.28899132282E+03  0.28899132282E+03  0.00000000000E+00 0.  1.
          1   -1    0    0  502    0  0.00000000000E+00 -0.00000000000E+00 -0.41919763768E+02  0.41919763768E+02  0.00000000000E+00 0. -1.
         23    2    1    2    0    0 -0.30641993473E+02  0.24953850187E+01  0.14826520955E+03  0.17522815084E+03  0.88188285924E+02 0.  0.
         23    2    1    2    0    0  0.21909957870E+02 -0.24466596738E+02  0.82117797821E+02  0.12674351026E+03  0.90785043177E+02 0.  0.
        -13    1    4    4    0    0  0.19652033909E+01  0.32119022755E+02  0.11719453996E+02  0.34246740707E+02  0.00000000000E+00 0. -1.
         13    1    4    4    0    0  0.19944754479E+02 -0.56585619493E+02  0.70398343825E+02  0.92496769554E+02  0.00000000000E+00 0.  1.
        -13    1    3    3    0    0  0.30888791479E+02  0.38350630587E+01  0.60454417898E+02  0.67996777799E+02  0.00000000000E+00 0.  1.
         13    1    3    3    0    0 -0.61530784952E+02 -0.13396780400E+01  0.87810791647E+02  0.10723137304E+03  0.00000000000E+00 0. -1.
         21    1    1    2  502  501  0.87320356028E+01  0.21971211720E+02  0.16688551687E+02  0.28939425488E+02  0.00000000000E+00 0.  1.
<scales pt_clust_5="13000.00000" pt_clust_6="13000.00000" pt_clust_7="13000.00000" pt_clust_8="13000.00000" pt_clust_9="23.64281"></scales>
<clustering>
<clus scale="   23.643">  2  9  1 -1</clus>
<clus scale="   88.188">  7  8 -1 -1</clus>
<clus scale="   90.785">  5  6 -1 -1</clus>
<clus scale="   92.959">  1  7  2 -1</clus>
<clus scale="   23.643">  2  5  1 -1</clus>
</clustering>
</event>
<event>
 9    1  0.9000149E-006  0.1196265E+03  0.7546771E-02  0.1244430E+00
         -1   -1    0    0    0  501 -0.00000000000E+00  0.00000000000E+00  0.43464163623E+02  0.43464163623E+02  0.00000000000E+00 0.  1.
          1   -1    0    0  502    0  0.00000000000E+00 -0.00000000000E+00 -0.49346580769E+03  0.49346580769E+03  0.00000000000E+00 0. -1.
         23    2    1    2    0    0  0.27526278357E+01 -0.83889334942E+02 -0.97482305151E+02  0.15851826395E+03  0.92629599539E+02 0.  0.
         23    2    1    2    0    0  0.38965413747E+01  0.59379885232E+02 -0.24344021166E+03  0.26641536555E+03  0.90403852489E+02 0.  0.
        -13    1    4    4    0    0  0.30178264599E+02  0.52357047317E+02 -0.22637392400E+03  0.23430139037E+03  0.00000000000E+00 0. -1.
         13    1    4    4    0    0 -0.26281723224E+02  0.70228379146E+01 -0.17066287656E+02  0.32113975188E+02  0.00000000000E+00 0.  1.
        -13    1    3    3    0    0 -0.34600550641E+02 -0.55202924832E+02 -0.20550209322E+02  0.68314508838E+02  0.00000000000E+00 0.  1.
         13    1    3    3    0    0  0.37353178477E+02 -0.28686410110E+02 -0.76932095829E+02  0.90203755110E+02  0.00000000000E+00 0. -1.
         21    1    1    2  502  501 -0.66491692104E+01  0.24509449710E+02 -0.10907912725E+03  0.11199634181E+03  0.00000000000E+00 0. -1.
<scales pt_clust_5="13000.00000" pt_clust_6="13000.00000" pt_clust_7="13000.00000" pt_clust_8="13000.00000" pt_clust_9="25.39537"></scales>
<clustering>
<clus scale="   25.395">  2  9  1 -1</clus>
<clus scale="   90.404">  5  6 -1 -1</clus>
<clus scale="   92.630">  7  8 -1 -1</clus>
<clus scale="  117.911">  2  5  1 -1</clus>
<clus scale="   25.395">  2  5  1 -1</clus>
</clustering>
</event>
<event>
 9    1  0.9000149E-006  0.9526400E+02  0.7546771E-02  0.1291776E+00
          1   -1    0    0  502    0  0.00000000000E+00  0.00000000000E+00  0.41310098774E+02  0.41310098774E+02  0.00000000000E+00 0. -1.
         -1   -1    0    0    0  501 -0.00000000000E+00 -0.00000000000E+00 -0.31804977924E+03  0.31804977924E+03  0.00000000000E+00 0.  1.
         23    2    1    2    0    0  0.76755160033E+01 -0.18863627381E+02 -0.19409894215E+03  0.21553409845E+03  0.91464737834E+02 0.  0.
         23    2    1    2    0    0  0.13572949192E+02  0.14998595799E+02 -0.71586319407E+02  0.11956395936E+03  0.93604254315E+02 0.  0.
        -13    1    4    4    0    0  0.35537345374E+02 -0.26125789914E+02 -0.54025597014E+02  0.69743995782E+02  0.00000000000E+00 0.  1.
         13    1    4    4    0    0 -0.21964396183E+02  0.41124385713E+02 -0.17560722393E+02  0.49819963578E+02  0.00000000000E+00 0. -1.
        -13    1    3    3    0    0  0.55327499232E+01  0.37108883825E+02 -0.84328177586E+02  0.92298007105E+02  0.00000000000E+00 0. -1.
         13    1    3    3    0    0  0.21427660801E+01 -0.55972511206E+02 -0.10977076456E+03  0.12323609135E+03  0.00000000000E+00 0.  1.
         21    1    1    2  502  501 -0.21248465195E+02  0.38650315823E+01 -0.11054418913E+02  0.24261820207E+02  0.00000000000E+00 0. -1.
<scales pt_clust_5="13000.00000" pt_clust_6="13000.00000" pt_clust_7="13000.00000" pt_clust_8="13000.00000" pt_clust_9="21.59712"></scales>
<clustering>
<clus scale="   21.597">  1  9  2 -1</clus>
<clus scale="   91.465">  7  8 -1 -1</clus>
<clus scale="   93.163">  2  7  1 -1</clus>
<clus scale="   93.604">  5  6 -1 -1</clus>
<clus scale="   21.597">  1  5  2 -1</clus>
</clustering>
</event>
<event>
 9    1  0.9000149E-006  0.1079443E+03  0.7546771E-02  0.1266249E+00
          2   -1    0    0  502    0  0.00000000000E+00  0.00000000000E+00  0.16995278492E+03  0.16995278492E+03  0.00000000000E+00 0. -1.
         -2   -1    0    0    0  501 -0.00000000000E+00 -0.00000000000E+00 -0.13469740040E+03  0.13469740040E+03  0.00000000000E+00 0.  1.
         23    2    1    2    0    0 -0.17597030091E+02 -0.33562144791E+02 -0.33545756134E+02  0.10804054768E+03  0.95453492117E+02 0.  0.
         23    2    1    2    0    0  0.72045907424E+02  0.50387143485E+02  0.54311734436E+02  0.13780739519E+03  0.91168177934E+02 0.  0.
        -11    1    3    3    0    0 -0.21126761221E+01 -0.55012327571E+02  0.11085374657E+02  0.56157858902E+02  0.00000000000E+00 0.  1.
         11    1    3    3    0    0 -0.15484353969E+02  0.21450182779E+02 -0.44631130791E+02  0.51882688778E+02  0.00000000000E+00 0. -1.
        -13    1    4    4    0    0  0.34028156394E+02  0.37696180080E+02  0.76632028601E+02  0.91931415891E+02  0.00000000000E+00 0. -1.
         13    1    4    4    0    0  0.38017751030E+02  0.12690963405E+02 -0.22320294165E+02  0.45875979304E+02  0.00000000000E+00 0.  1.
         21    1    1    2  502  501 -0.54448877332E+02 -0.16824998694E+02  0.14489406226E+02  0.58802242445E+02  0.00000000000E+00 0.  1.
<scales pt_clust_5="13000.00000" pt_clust_6="13000.00000" pt_clust_7="13000.00000" pt_clust_8="13000.00000" pt_clust_9="56.98913"></scales>
<clustering>
<clus scale="   56.989">  1  9  2 -1</clus>
<clus scale="   91.168">  7  8 -1 -1</clus>
<clus scale="   95.453">  5  6 -1 -1</clus>
<clus scale="  104.174">  1  7  2 -1</clus>
<clus scale="   56.989">  1  5  2 -1</clus>
</clustering>
</event>
<event>
 9    1  0.9000149E-006  0.1167731E+03  0.7546771E-02  0.1249641E+00
         -1   -1    0    0    0  501 -0.00000000000E+00  0.00000000000E+00  0.38153436672E+03  0.38153436672E+03  0.00000000000E+00 0.  1.
          1   -1    0    0  502    0  0.00000000000E+00 -0.00000000000E+00 -0.75734197027E+02  0.75734197027E+02  0.00000000000E+00 0. -1.
         23    2    1    2    0    0 -0.42206284623E+02  0.53018973383E+02  0.27575484836E+03  0.29807284704E+03  0.90632796225E+02 0.  0.
         23    2    1    2    0    0  0.26254075335E+02 -0.77491102621E+02  0.12588898811E+02  0.12516507201E+03  0.93881134536E+02 0.  0.
        -11    1    3    3    0    0 -0.53530800832E+02  0.99781917511E+01  0.22049528766E+03  0.22711953423E+03  0.00000000000E+00 0.  1.
         11    1    3    3    0    0  0.11324516209E+02  0.43040781632E+02  0.55259560700E+02  0.70953312817E+02  0.00000000000E+00 0. -1.
        -11    1    4    4    0    0 -0.25438241364E+01 -0.80765305460E+02  0.35460994354E+02  0.88243910430E+02  0.00000000000E+00 0. -1.
         11    1    4    4    0    0  0.28797899472E+02  0.32742028392E+01 -0.22872095543E+02  0.36921161584E+02  0.00000000000E+00 0.  1.
         21    1    1    2  502  501  0.15952209288E+02  0.24472129238E+02  0.17456422524E+02  0.34030644689E+02  0.00000000000E+00 0.  1.
<scales pt_clust_5="13000.00000" pt_clust_6="13000.00000" pt_clust_7="13000.00000" pt_clust_8="13000.00000" pt_clust_9="29.21229"></scales>
<clustering>
<clus scale="   29.212">  2  9  1 -1</clus>
<clus scale="   90.633">  5  6 -1 -1</clus>
<clus scale="   93.881">  7  8 -1 -1</clus>
<clus scale="  114.178">  1  5  2 -1</clus>
<clus scale="   29.212">  2  5  1 -1</clus>
</clustering>
</event>
<event>
 9    1  0.9000149E-006  0.1078947E+03  0.7546771E-02  0.1266940E+00
         -1   -1    0    0    0  501 -0.00000000000E+00  0.00000000000E+00  0.19845256003E+03  0.19845256003E+03  0.00000000000E+00 0.  1.
          1   -1    0    0  502    0  0.00000000000E+00 -0.00000000000E+00 -0.19601257512E+03  0.19601257512E+03  0.00000000000E+00 0. -1.
         23    2    1    2    0    0 -0.46804471252E+01  0.52942015788E+02  0.75533421237E+02  0.13134963421E+03  0.93395208986E+02 0.  0.
         23    2    1    2    0    0  0.59349538749E+02 -0.60930844253E+01  0.45730976633E+02  0.12418108093E+03  0.98843943719E+02 0.  0.
        -13    1    4    4    0    0  0.80034269813E+02  0.19486234259E+02  0.29469874952E+02  0.87485262758E+02  0.00000000000E+00 0.  1.
         13    1    4    4    0    0 -0.20684731064E+02 -0.25579318684E+02  0.16261101680E+02  0.36695818173E+02  0.00000000000E+00 0. -1.
        -13    1    3    3    0    0 -0.36229832463E+02  0.58208020112E+02  0.28006455047E+02  0.74061703261E+02  0.00000000000E+00 0.  1.
         13    1    3    3    0    0  0.31549385338E+02 -0.52660043246E+01  0.47526966190E+02  0.57287930945E+02  0.00000000000E+00 0. -1.
         21    1    1    2  502  501 -0.54669091623E+02 -0.46848931362E+02 -0.11882441296E+03  0.13893442001E+03  0.00000000000E+00 0. -1.
<scales pt_clust_5="13000.00000" pt_clust_6="13000.00000" pt_clust_7="13000.00000" pt_clust_8="13000.00000" pt_clust_9="71.99675"></scales>
<clustering>
<clus scale="   71.997">  2  9  1 -1</clus>
<clus scale="   93.395">  7  8 -1 -1</clus>
<clus scale="   98.844">  5  6 -1 -1</clus>
<clus scale="  102.926">  1  7  2 -1</clus>
<clus scale="   71.997">  2  5  1 -1</clus>
</clustering>
</event>
<event>
 9    1  0.9000149E-006  0.1004435E+03  0.7546771E-02  0.1282159E+00
         -1   -1    0    0    0  501 -0.00000000000E+00  0.00000000000E+00  0.31669100276E+03  0.31669100276E+03  0.00000000000E+00 0.  1.
          1   -1    0    0  502    0  0.00000000000E+00 -0.00000000000E+00 -0.94014226486E+02  0.94014226486E+02  0.00000000000E+00 0. -1.
         23    2    1    2    0    0 -0.79344400087E+01  0.25175152713E+02  0.23803679518E+03  0.25837058850E+03  0.96938648094E+02 0.  0.
         23    2    1    2    0    0  0.30449662246E+02 -0.14985959256E+02  0.28744602404E+02  0.10177801391E+03  0.91546442000E+02 0.  0.
        -13    1    3    3    0    0  0.18521306072E+02  0.49923141649E+02  0.19488419751E+03  0.20202774387E+03  0.00000000000E+00 0.  1.
         13    1    3    3    0    0 -0.26455746080E+02 -0.24747988936E+02  0.43152597662E+02  0.56342844639E+02  0.00000000000E+00 0. -1.
        -13    1    4    4    0    0  0.50107734427E+02  0.10445419608E+02  0.42775695230E+02  0.66705711469E+02  0.00000000000E+00 0.  1.
         13    1    4    4    0    0 -0.19658072181E+02 -0.25431378864E+02 -0.14031092826E+02  0.35072302443E+02  0.00000000000E+00 0. -1.
         21    1    1    2  502  501 -0.22515222237E+02 -0.10189193457E+02 -0.44104621306E+02  0.50556626828E+02  0.00000000000E+00 0. -1.
<scales pt_clust_5="13000.00000" pt_clust_6="13000.00000" pt_clust_7="13000.00000" pt_clust_8="13000.00000" pt_clust_9="24.71346"></scales>
<clustering>
<clus scale="   24.713">  2  9  1 -1</clus>
<clus scale="   91.546">  7  8 -1 -1</clus>
<clus scale="   95.250">  2  7  1 -1</clus>
<clus scale="   96.939">  5  6 -1 -1</clus>
<clus scale="   24.713">  2  5  1 -1</clus>
</clustering>
</event>
<event>
 9    1  0.9000149E-006  0.1199380E+03  0.7546771E-02  0.1244442E+00
         -2   -1    0    0    0  501 -0.00000000000E+00  0.00000000000E+00  0.61009149596E+03  0.61009149596E+03  0.00000000000E+00 0.  1.
          2   -1    0    0  502    0  0.00000000000E+00 -0.00000000000E+00 -0.97484596905E+02  0.97484596905E+02  0.00000000000E+00 0. -1.
         23    2    1    2    0    0 -0.69841615607E+02 -0.13630637420E+02  0.40735760599E+03  0.42420168856E+03  0.94568535345E+02 0.  0.
         23    2    1    2    0    0  0.60010039596E+02  0.79884258228E+02  0.15078540379E+03  0.20238218531E+03  0.90772305085E+02 0.  0.
        -11    1    3    3    0    0 -0.22969999843E+02 -0.52567789303E+02  0.19146834234E+03  0.19987776135E+03  0.00000000000E+00 0. -1.
         11    1    3    3    0    0 -0.46871615764E+02  0.38937151882E+02  0.21588926365E+03  0.22432392721E+03  0.00000000000E+00 0.  1.
        -13    1    4    4    0    0 -0.15690733207E+02  0.35872348149E+02  0.17455078336E+02  0.42868452619E+02  0.00000000000E+00 0. -1.
         13    1    4    4    0    0  0.75700772802E+02  0.44011910079E+02  0.13333032546E+03  0.15951373269E+03  0.00000000000E+00 0.  1.
         21    1    1    2  502  501  0.98315760108E+01 -0.66253620807E+02 -0.45536110724E+02  0.80992218989E+02  0.00000000000E+00 0. -1.
<scales pt_clust_5="13000.00000" pt_clust_6="13000.00000" pt_clust_7="13000.00000" pt_clust_8="13000.00000" pt_clust_9="66.97912"></scales>
<clustering>
<clus scale="   66.979">  2  9  1 -1</clus>
<clus scale="   90.772">  7  8 -1 -1</clus>
<clus scale="   94.569">  5  6 -1 -1</clus>
<clus scale="  116.968">  2  7  1 -1</clus>
<clus scale="   66.979">  2  5  1 -1</clus>
</clustering>
</event>
<event>
 9    1  0.9000149E-006  0.1517354E+03  0.7546771E-02  0.1198443E+00
          2   -1    0    0  502    0  0.00000000000E+00  0.00000000000E+00  0.69812096562E+03  0.69812096562E+03  0.00000000000E+00 0. -1.
         -2   -1    0    0    0  501 -0.00000000000E+00 -0.00000000000E+00 -0.71262181903E+02  0.71262181903E+02  0.00000000000E+00 0.  1.
         23    2    1    2    0    0  0.10390508725E+03  0.72975257513E+02  0.16455902956E+03  0.22668251247E+03  0.90463428438E+02 0.  0.
         23    2    1    2    0    0 -0.14086671217E+02 -0.14171403608E+03  0.24332582066E+03  0.29624181276E+03  0.90942038127E+02 0.  0.
        -13    1    4    4    0    0  0.34843757510E+02 -0.95508136980E+02  0.14500022763E+03  0.17709025292E+03  0.00000000000E+00 0.  1.
         13    1    4    4    0    0 -0.48930428727E+02 -0.46205899097E+02  0.98325593031E+02  0.11915155984E+03  0.00000000000E+00 0. -1.
        -13    1    3    3    0    0  0.46410716894E+02 -0.16450324595E+02  0.45179605006E+02  0.66826376008E+02  0.00000000000E+00 0. -1.
         13    1    3    3    0    0  0.57494370353E+02  0.89425582107E+02  0.11937942455E+03  0.15985613646E+03  0.00000000000E+00 0.  1.
         21    1    1    2  502  501 -0.89818416030E+02  0.68738778565E+02  0.21897393350E+03  0.24645882230E+03  0.00000000000E+00 0. -1.
<scales pt_clust_5="13000.00000" pt_clust_6="13000.00000" pt_clust_7="13000.00000" pt_clust_8="13000.00000" pt_clust_9="113.10335"></scales>
<clustering>
<clus scale="   90.463">  7  8 -1 -1</clus>
<clus scale="   90.942">  5  6 -1 -1</clus>
<clus scale="  113.103">  1  9  2 -1</clus>
<clus scale="  151.449">  2  7  1 -1</clus>
<clus scale="  113.103">  1  5  2 -1</clus>
</clustering>
</event>
<event>
 9    1  0.9000149E-006  0.9917186E+02  0.7546771E-02  0.1282115E+00
         -1   -1    0    0    0  501 -0.00000000000E+00  0.00000000000E+00  0.12317184802E+03  0.12317184802E+03  0.00000000000E+00 0.  1.
          1   -1    0    0  502    0  0.00000000000E+00 -0.00000000000E+00 -0.14015822833E+03  0.14015822833E+03  0.00000000000E+00 0. -1.
         23    2    1    2    0    0  0.24395096687E+02  0.38231072174E+02  0.55890313644E+02  0.11599472952E+03  0.90963259040E+02 0.  0.
         23    2    1    2    0    0 -0.29036145172E+02 -0.75460428606E+01 -0.46432371358E+02  0.10656265313E+03  0.91102104487E+02 0.  0.
        -11    1    3    3    0    0  0.51555290851E+02  0.25321418345E+02  0.60112992284E+01  0.57751692271E+02  0.00000000000E+00 0. -1.
         11    1    3    3    0    0 -0.27160194164E+02  0.12909653829E+02  0.49879014415E+02  0.58243037249E+02  0.00000000000E+00 0.  1.
        -11    1    4    4    0    0 -0.41649195099E+02 -0.25856024082E+02  0.62132854800E+01  0.49414515582E+02  0.00000000000E+00 0.  1.
         11    1    4    4    0    0  0.12613049927E+02  0.18309981221E+02 -0.52645656838E+02  0.57148137544E+02  0.00000000000E+00 0. -1.
         21    1    1    2  502  501  0.46410484845E+01 -0.30685029313E+02 -0.26444322589E+02  0.40772693708E+02  0.00000000000E+00 0. -1.
<scales pt_clust_5="13000.00000" pt_clust_6="13000.00000" pt_clust_7="13000.00000" pt_clust_8="13000.00000" pt_clust_9="31.03402"></scales>
<clustering>
<clus scale="   31.034">  2  9  1 -1</clus>
<clus scale="   90.963">  5  6 -1 -1</clus>
<clus scale="   91.102">  7  8 -1 -1</clus>
<clus scale="   99.044">  1  5  2 -1</clus>
<clus scale="   31.034">  2  5  1 -1</clus>
</clustering>
</event>
<event>
 9    1  0.9000149E-006  0.1849665E+03  0.7546771E-02  0.1164709E+00
         -1   -1    0    0    0  501 -0.00000000000E+00  0.00000000000E+00  0.21464888191E+03  0.21464888191E+03  0.00000000000E+00 0.  1.
          1   -1    0    0  502    0  0.00000000000E+00 -0.00000000000E+00 -0.22604783733E+03  0.22604783733E+03  0.00000000000E+00 0. -1.
         23    2    1    2    0    0 -0.13002622683E+03 -0.11566591957E+03  0.59253774461E+02  0.20673869781E+03  0.94575127654E+02 0.  0.
         23    2    1    2    0    0  0.12923988325E+03  0.59536917227E+02 -0.34059059040E+02  0.16694921614E+03  0.80401674942E+02 0.  0.
        -13    1    4    4    0    0  0.63034923254E+02  0.72334947655E+02 -0.22244066639E+02  0.98491343288E+02  0.00000000000E+00 0.  1.
         13    1    4    4    0    0  0.66204959992E+02 -0.12798030428E+02 -0.11814992402E+02  0.68457872855E+02  0.00000000000E+00 0. -1.
        -13    1    3    3    0    0 -0.10011437641E+03 -0.12060714594E+03  0.21335253291E+02  0.15819028114E+03  0.00000000000E+00 0. -1.
         13    1    3    3    0    0 -0.29911850419E+02  0.49412263625E+01  0.37918521170E+02  0.48548416670E+02  0.00000000000E+00 0.  1.
         21    1    1    2  502  501  0.78634358246E+00  0.56129002346E+02 -0.36593670844E+02  0.67008805290E+02  0.00000000000E+00 0.  1.
<scales pt_clust_5="13000.00000" pt_clust_6="13000.00000" pt_clust_7="13000.00000" pt_clust_8="13000.00000" pt_clust_9="56.13451"></scales>
<clustering>
<clus scale="   56.135">  2  9  1 -1</clus>
<clus scale="   80.402">  5  6 -1 -1</clus>
<clus scale="   94.575">  7  8 -1 -1</clus>
<clus scale="  178.136">  2  5  1 -1</clus>
<clus scale="   56.135">  2  5  1 -1</clus>
</clustering>
</event>
<event>
 9    1  0.9000149E-006  0.9453585E+02  0.7546771E-02  0.1293279E+00
          1   -1    0    0  502    0  0.00000000000E+00  0.00000000000E+00  0.37492105214E+03  0.37492105214E+03  0.00000000000E+00 0. -1.
         -1   -1    0    0    0  501 -0.00000000000E+00 -0.00000000000E+00 -0.14815940724E+03  0.14815940724E+03  0.00000000000E+00 0.  1.
         23    2    1    2    0    0  0.20735234456E+02 -0.80572306679E+01 -0.11473173592E+03  0.14750326224E+03  0.89994289978E+02 0.  0.
         23    2    1    2    0    0 -0.30210573063E+02 -0.23654895200E+02  0.14246898113E+03  0.17381953894E+03  0.91889002293E+02 0.  0.
        -11    1    3    3    0    0 -0.18309130561E+02  0.25817880845E+02 -0.77748917919E+02  0.83944514238E+02  0.00000000000E+00 0. -1.
         11    1    3    3    0    0  0.39044365017E+02 -0.33875111513E+02 -0.36982818003E+02  0.63558747997E+02  0.00000000000E+00 0.  1.
        -13    1    4    4    0    0 -0.25459309802E+02 -0.50902688589E+02  0.13286284541E+03  0.14453994553E+03  0.00000000000E+00 0. -1.
         13    1    4    4    0    0 -0.47512632611E+01  0.27247793389E+02  0.96061357130E+01  0.29279593414E+02  0.00000000000E+00 0.  1.
         21    1    1    2  502  501  0.94753386066E+01  0.31712125868E+02  0.19902439970E+03  0.20175765820E+03  0.00000000000E+00 0. -1.
<scales pt_clust_5="13000.00000" pt_clust_6="13000.00000" pt_clust_7="13000.00000" pt_clust_8="13000.00000" pt_clust_9="33.09745"></scales>
<clustering>
<clus scale="   33.097">  1  9  2 -1</clus>
<clus scale="   89.994">  5  6 -1 -1</clus>
<clus scale="   91.889">  7  8 -1 -1</clus>
<clus scale="   92.695">  2  5  1 -1</clus>
<clus scale="   33.097">  1  5  2 -1</clus>
</clustering>
</event>
<event>
 9    1  0.9000149E-006  0.1105069E+03  0.7546771E-02  0.1261009E+00
          3   -1    0    0  502    0  0.00000000000E+00  0.00000000000E+00  0.49937796630E+03  0.49937796630E+03  0.00000000000E+00 0. -1.
         -3   -1    0    0    0  501 -0.00000000000E+00 -0.00000000000E+00 -0.75042316745E+02  0.75042316745E+02  0.00000000000E+00 0.  1.
         23    2    1    2    0    0  0.51330854058E+02 -0.28829366727E+02 -0.18781262639E+02  0.11011412158E+03  0.91139426051E+02 0.  0.
         23    2    1    2    0    0 -0.25669139816E+02  0.44011135699E+02  0.31705110242E+03  0.33476235389E+03  0.94596761211E+02 0.  0.
        -11    1    3    3    0    0  0.55380442291E+02  0.20109502888E+02 -0.15366716169E+02  0.60889419939E+02  0.00000000000E+00 0.  1.
         11    1    3    3    0    0 -0.40495882335E+01 -0.48938869615E+02 -0.34145464708E+01  0.49224701641E+02  0.00000000000E+00 0. -1.
        -11    1    4    4    0    0 -0.55824216095E+02  0.49489882910E+02  0.25275572203E+03  0.26353566482E+03  0.00000000000E+00 0. -1.
         11    1    4    4    0    0  0.30155076279E+02 -0.54787472109E+01  0.64295380391E+02  0.71226689071E+02  0.00000000000E+00 0.  1.
         21    1    1    2  502  501 -0.25661714241E+02 -0.15181768972E+02  0.12606580977E+03  0.12954380757E+03  0.00000000000E+00 0.  1.
<scales pt_clust_5="13000.00000" pt_clust_6="13000.00000" pt_clust_7="13000.00000" pt_clust_8="13000.00000" pt_clust_9="29.81627"></scales>
<clustering>
<clus scale="   29.816">  1  9  2 -1</clus>
<clus scale="   91.139">  5  6 -1 -1</clus>
<clus scale="   94.597">  7  8 -1 -1</clus>
<clus scale="  107.562">  2  5  1 -1</clus>
<clus scale="   29.816">  1  5  2 -1</clus>
</clustering>
</event>
<event>
 9    1  0.9000149E-006  0.1193209E+03  0.7546771E-02  0.1244233E+00
          1   -1    0    0  502    0  0.00000000000E+00  0.00000000000E+00  0.68526911184E+03  0.68526911184E+03  0.00000000000E+00 0. -1.
         -1   -1    0    0    0  501 -0.00000000000E+00 -0.00000000000E+00 -0.36834511548E+02  0.36834511548E+02  0.00000000000E+00 0.  1.
         23    2    1    2    0    0  0.38920792735E+02  0.75268004515E+02  0.11781731930E+03  0.17193073960E+03  0.92190877422E+02 0.  0.
         23    2    1    2    0    0 -0.38024052126E+02 -0.36309609621E+02  0.40205215032E+03  0.41583170060E+03  0.92227194246E+02 0.  0.
        -11    1    3    3    0    0  0.54397456796E+02  0.33616312216E+02  0.10938256873E+03  0.12670314162E+03  0.00000000000E+00 0. -1.
         11    1    3    3    0    0 -0.15476664061E+02  0.41651692299E+02  0.84347505681E+01  0.45227597979E+02  0.00000000000E+00 0.  1.
        -11    1    4    4    0    0 -0.47153041433E+02 -0.55887865670E+02  0.37015281260E+03  0.37730619862E+03  0.00000000000E+00 0. -1.
         11    1    4    4    0    0  0.91289893062E+01  0.19578256049E+02  0.31899337723E+02  0.38525501981E+02  0.00000000000E+00 0.  1.
         21    1    1    2  502  501 -0.89674060819E+00 -0.38958394895E+02  0.12856513067E+03  0.13434118319E+03  0.00000000000E+00 0. -1.
<scales pt_clust_5="13000.00000" pt_clust_6="13000.00000" pt_clust_7="13000.00000" pt_clust_8="13000.00000" pt_clust_9="38.96871"></scales>
<clustering>
<clus scale="   38.969">  1  9  2 -1</clus>
<clus scale="   92.191">  5  6 -1 -1</clus>
<clus scale="   92.227">  7  8 -1 -1</clus>
<clus scale="  119.293">  2  5  1 -1</clus>
<clus scale="   38.969">  1  5  2 -1</clus>
</clustering>
</event>
<event>
 9    1  0.9000149E-006  0.9408761E+02  0.7546771E-02  0.1294971E+00
          1   -1    0    0  502    0  0.00000000000E+00  0.00000000000E+00  0.14596650393E+03  0.14596650393E+03  0.00000000000E+00 0. -1.
         -1   -1    0    0    0  501 -0.00000000000E+00 -0.00000000000E+00 -0.27069191986E+03  0.27069191986E+03  0.00000000000E+00 0.  1.
         23    2    1    2    0    0  0.26436878052E+02 -0.80669970792E+01 -0.13262489114E+03  0.16262158499E+03  0.89957952362E+02 0.  0.
         23    2    1    2    0    0  0.83758885567E+01  0.11517845726E+02 -0.10197522269E+03  0.13872731484E+03  0.92970455306E+02 0.  0.
        -11    1    3    3    0    0  0.44751757657E+02 -0.26151777837E+02 -0.37236439497E+02  0.63821530253E+02  0.00000000000E+00 0. -1.
         11    1    3    3    0    0 -0.18314879605E+02  0.18084780758E+02 -0.95388451643E+02  0.98800054741E+02  0.00000000000E+00 0.  1.
        -13    1    4    4    0    0 -0.64319974768E+01  0.47039008074E+02 -0.27421299496E+02  0.54826695489E+02  0.00000000000E+00 0.  1.
         13    1    4    4    0    0  0.14807886033E+02 -0.35521162348E+02 -0.74553923198E+02  0.83900619351E+02  0.00000000000E+00 0. -1.
         21    1    1    2  502  501 -0.34812766609E+02 -0.34508486469E+01  0.10987469790E+03  0.11530952395E+03  0.00000000000E+00 0. -1.
<scales pt_clust_5="13000.00000" pt_clust_6="13000.00000" pt_clust_7="13000.00000" pt_clust_8="13000.00000" pt_clust_9="34.98338"></scales>
<clustering>
<clus scale="   34.983">  1  9  2 -1</clus>
<clus scale="   89.958">  5  6 -1 -1</clus>
<clus scale="   91.112">  2  5  1 -1</clus>
<clus scale="   92.970">  7  8 -1 -1</clus>
<clus scale="   34.983">  1  5  2 -1</clus>
</clustering>
</event>
<event>
 9    1  0.9000149E-006  0.1117142E+03  0.7546771E-02  0.1257484E+00
         -1   -1    0    0    0  501 -0.00000000000E+00  0.00000000000E+00  0.89894320834E+02  0.89894320834E+02  0.00000000000E+00 0.  1.
          1   -1    0    0  502    0  0.00000000000E+00 -0.00000000000E+00 -0.22326384687E+03  0.22326384687E+03  0.00000000000E+00 0. -1.
         23    2    1    2    0    0 -0.49084353398E+02  0.33547318332E+02 -0.88968886695E+01  0.10642602748E+03  0.87821685147E+02 0.  0.
         23    2    1    2    0    0  0.82638708656E+02 -0.30769122032E+02 -0.69994374849E+02  0.14268923102E+03  0.87664754039E+02 0.  0.
        -11    1    3    3    0    0 -0.28112781576E+02 -0.26661963044E+02  0.98354519580E+01  0.39974052541E+02  0.00000000000E+00 0. -1.
         11    1    3    3    0    0 -0.20971571822E+02  0.60209281375E+02 -0.18732340628E+02  0.66451974943E+02  0.00000000000E+00 0.  1.
        -13    1    4    4    0    0  0.77603819103E+02 -0.57354745379E+02 -0.47775058828E+02  0.10767718330E+03  0.00000000000E+00 0.  1.
         13    1    4    4    0    0  0.50348895531E+01  0.26585623347E+02 -0.22219316021E+02  0.35012047727E+02  0.00000000000E+00 0. -1.
         21    1    1    2  502  501 -0.33554355257E+02 -0.27781963000E+01 -0.54478262518E+02  0.64042909197E+02  0.00000000000E+00 0. -1.
<scales pt_clust_5="13000.00000" pt_clust_6="13000.00000" pt_clust_7="13000.00000" pt_clust_8="13000.00000" pt_clust_9="33.66917"></scales>
<clustering>
<clus scale="   33.669">  2  9  1 -1</clus>
<clus scale="   87.665">  7  8 -1 -1</clus>
<clus scale="   87.822">  5  6 -1 -1</clus>
<clus scale="  111.591">  2  7  1 -1</clus>
<clus scale="   33.669">  2  5  1 -1</clus>
</clustering>
</event>
<event>
 9    1  0.9000149E-006  0.1446024E+03  0.7546771E-02  0.1212898E+00
          1   -1    0    0  502    0  0.00000000000E+00  0.00000000000E+00  0.43746928226E+03  0.43746928226E+03  0.00000000000E+00 0. -1.
         -1   -1    0    0    0  501 -0.00000000000E+00 -0.00000000000E+00 -0.12758464969E+03  0.12758464969E+03  0.00000000000E+00 0.  1.
         23    2    1    2    0    0  0.67933143978E+02  0.77299272430E+02 -0.54078945124E+01  0.14212961501E+03  0.97885098827E+02 0.  0.
         23    2    1    2    0    0 -0.61484657309E+02 -0.16832278036E+02  0.39154051677E+02  0.14016947967E+03  0.11853587896E+03 0.  0.
        -13    1    3    3    0    0  0.82270776461E+01  0.51251462600E+02 -0.42572554356E+02  0.67132850451E+02  0.00000000000E+00 0.  1.
         13    1    3    3    0    0  0.59706066332E+02  0.26047809830E+02  0.37164659844E+02  0.74996764564E+02  0.00000000000E+00 0. -1.
        -13    1    4    4    0    0  0.20816942827E+02 -0.39561952334E+01  0.51749728916E+02  0.55919862592E+02  0.00000000000E+00 0. -1.
         13    1    4    4    0    0 -0.82301600137E+02 -0.12876082802E+02 -0.12595677239E+02  0.84249617082E+02  0.00000000000E+00 0.  1.
         21    1    1    2  502  501 -0.64484866685E+01 -0.60466994394E+02  0.27613847541E+03  0.28275483726E+03  0.00000000000E+00 0. -1.
<scales pt_clust_5="13000.00000" pt_clust_6="13000.00000" pt_clust_7="13000.00000" pt_clust_8="13000.00000" pt_clust_9="60.80987"></scales>
<clustering>
<clus scale="   60.810">  1  9  2 -1</clus>
<clus scale="   97.885">  5  6 -1 -1</clus>
<clus scale="  118.536">  7  8 -1 -1</clus>
<clus scale="  128.221">  2  5  1 -1</clus>
<clus scale="   60.810">  1  5  2 -1</clus>
</clustering>
</event>
<event>
 9    1  0.9000149E-006  0.1280466E+03  0.7546771E-02  0.1231448E+00
         -1   -1    0    0    0  501 -0.00000000000E+00  0.00000000000E+00  0.15950053189E+03  0.15950053189E+03  0.00000000000E+00 0.  1.
          1   -1    0    0  502    0  0.00000000000E+00 -0.00000000000E+00 -0.13678548899E+03  0.13678548899E+03  0.00000000000E+00 0. -1.
         23    2    1    2    0    0 -0.54784802199E+02  0.68225185675E+02  0.25881582105E+02  0.12898048976E+03  0.91159530136E+02 0.  0.
         23    2    1    2    0    0  0.39592037000E+02 -0.84923625734E+02  0.25802051163E+02  0.13057901151E+03  0.87209981090E+02 0.  0.
        -11    1    4    4    0    0  0.43438436583E+02 -0.22801933208E+02  0.43822910455E+02  0.65782014347E+02  0.00000000000E+00 0.  1.
         11    1    4    4    0    0 -0.38463995835E+01 -0.62121692526E+02 -0.18020859292E+02  0.64796997166E+02  0.00000000000E+00 0. -1.
        -13    1    3    3    0    0 -0.60409138527E+02  0.13246886686E+02 -0.10618970072E+02  0.62749554180E+02  0.00000000000E+00 0. -1.
         13    1    3    3    0    0  0.56243363275E+01  0.54978298989E+02  0.36500552177E+02  0.66230935582E+02  0.00000000000E+00 0.  1.
         21    1    1    2  502  501  0.15192765199E+02  0.16698440059E+02 -0.28968590364E+02  0.36726519607E+02  0.00000000000E+00 0.  1.
<scales pt_clust_5="13000.00000" pt_clust_6="13000.00000" pt_clust_7="13000.00000" pt_clust_8="13000.00000" pt_clust_9="22.57561"></scales>
<clustering>
<clus scale="   22.576">  2  9  1 -1</clus>
<clus scale="   87.210">  5  6 -1 -1</clus>
<clus scale="   91.160">  7  8 -1 -1</clus>
<clus scale="  125.265">  2  5  1 -1</clus>
<clus scale="   22.576">  2  5  1 -1</clus>
</clustering>
</event>
<event>
 9    1  0.9000149E-006  0.9444777E+02  0.7546771E-02  0.1293004E+00
          1   -1    0    0  502    0  0.00000000000E+00  0.00000000000E+00  0.13588396078E+03  0.13588396078E+03  0.00000000000E+00 0. -1.
         -1   -1    0    0    0  501 -0.00000000000E+00 -0.00000000000E+00 -0.36642636087E+03  0.36642636087E+03  0.00000000000E+00 0.  1.
         23    2    1    2    0    0  0.21740018068E+02 -0.20166952736E+01 -0.30683796083E+03  0.32090276778E+03  0.91391228887E+02 0.  0.
         23    2    1    2    0    0 -0.34052706886E+02  0.44699106170E+02  0.17665976447E+02  0.10784928675E+03  0.90342597874E+02 0.  0.
        -11    1    3    3    0    0  0.62807116815E+01 -0.44428242851E+02 -0.10695191623E+03  0.11598288015E+03  0.00000000000E+00 0.  1.
         11    1    3    3    0    0  0.15459306386E+02  0.42411547577E+02 -0.19988604460E+03  0.20491988763E+03  0.00000000000E+00 0. -1.
        -11    1    4    4    0    0 -0.64637756689E+02  0.34864189023E+02  0.18410442625E+02  0.75713246290E+02  0.00000000000E+00 0. -1.
         11    1    4    4    0    0  0.30585049803E+02  0.98349171467E+01 -0.74446617821E+00  0.32136040463E+02  0.00000000000E+00 0.  1.
         21    1    1    2  502  501  0.12312688818E+02 -0.42682410897E+02  0.58629584297E+02  0.73558267114E+02  0.00000000000E+00 0. -1.
<scales pt_clust_5="13000.00000" pt_clust_6="13000.00000" pt_clust_7="13000.00000" pt_clust_8="13000.00000" pt_clust_9="44.42286"></scales>
<clustering>
<clus scale="   44.423">  1  9  2 -1</clus>
<clus scale="   90.343">  7  8 -1 -1</clus>
<clus scale="   91.391">  5  6 -1 -1</clus>
<clus scale="   93.433">  1  7  2 -1</clus>
<clus scale="   44.423">  1  5  2 -1</clus>
</clustering>
</event>
<event>
 9    1  0.9000149E-006  0.9861518E+02  0.7546771E-02  0.1284888E+00
          1   -1    0    0  502    0  0.00000000000E+00  0.00000000000E+00  0.13914594924E+03  0.13914594924E+03  0.00000000000E+00 0. -1.
         -1   -1    0    0    0  501 -0.00000000000E+00 -0.00000000000E+00 -0.11902118134E+03  0.11902118134E+03  0.00000000000E+00 0.  1.
         23    2    1    2    0    0 -0.23297009797E+02  0.15375817153E+02 -0.29547269383E+02  0.10482632886E+03  0.96624798453E+02 0.  0.
         23    2    1    2    0    0 -0.77770703425E+01 -0.19412676086E+02  0.14689360720E+01  0.95847900825E+02  0.93527148483E+02 0.  0.
        -11    1    4    4    0    0 -0.38022949680E+01 -0.56595670579E+02  0.97292705396E+01  0.57551594943E+02  0.00000000000E+00 0.  1.
         11    1    4    4    0    0 -0.39747753745E+01  0.37182994492E+02 -0.82603344676E+01  0.38296305882E+02  0.00000000000E+00 0. -1.
        -13    1    3    3    0    0  0.32970686500E+02 -0.10158229653E+02 -0.25504735995E+02  0.42903931710E+02  0.00000000000E+00 0.  1.
         13    1    3    3    0    0 -0.56267696297E+02  0.25534046806E+02 -0.40425333874E+01  0.61922397152E+02  0.00000000000E+00 0. -1.
         21    1    1    2  502  501  0.31074080140E+02  0.40368589331E+01  0.48203101216E+02  0.57492900896E+02  0.00000000000E+00 0.  1.
<scales pt_clust_5="13000.00000" pt_clust_6="13000.00000" pt_clust_7="13000.00000" pt_clust_8="13000.00000" pt_clust_9="31.33520"></scales>
<clustering>
<clus scale="   31.335">  1  9  2 -1</clus>
<clus scale="   93.527">  5  6 -1 -1</clus>
<clus scale="   95.582">  1  5  2 -1</clus>
<clus scale="   96.625">  7  8 -1 -1</clus>
<clus scale="   31.335">  1  5  2 -1</clus>
</clustering>
</event>
<event>
 9    1  0.9000149E-006  0.1531108E+03  0.7546771E-02  0.1196709E+00
         -2   -1    0    0    0  501 -0.00000000000E+00  0.00000000000E+00  0.27299071901E+03  0.27299071901E+03  0.00000000000E+00 0.  1.
          2   -1    0    0  502    0  0.00000000000E+00 -0.00000000000E+00 -0.42262783039E+03  0.42262783039E+03  0.00000000000E+00 0. -1.
         23    2    1    2    0    0 -0.67342917843E+02 -0.10857075380E+03  0.22109362645E+03  0.27100798481E+03  0.90775872418E+02 0.  0.
         23    2    1    2    0    0 -0.68825489654E+01  0.94887576551E+02 -0.23354033834E+03  0.26802878092E+03  0.90814735063E+02 0.  0.
        -11    1    3    3    0    0 -0.47635743935E+02 -0.12273211538E+03  0.19589662826E+03  0.23602505208E+03  0.00000000000E+00 0.  1.
         11    1    3    3    0    0 -0.19707173908E+02  0.14161361577E+02  0.25196998184E+02  0.34982932733E+02  0.00000000000E+00 0. -1.
        -11    1    4    4    0    0  0.41841039171E+02  0.38655630304E+02 -0.94869602651E+02  0.11065790446E+03  0.00000000000E+00 0.  1.
         11    1    4    4    0    0 -0.48723588136E+02  0.56231946247E+02 -0.13867073569E+03  0.15737087645E+03  0.00000000000E+00 0. -1.
         21    1    1    2  502  501  0.74225466808E+02  0.13683177248E+02 -0.13719039949E+03  0.15658178366E+03  0.00000000000E+00 0. -1.
<scales pt_clust_5="13000.00000" pt_clust_6="13000.00000" pt_clust_7="13000.00000" pt_clust_8="13000.00000" pt_clust_9="75.47615"></scales>
<clustering>
<clus scale="   75.476">  2  9  1 -1</clus>
<clus scale="   90.776">  5  6 -1 -1</clus>
<clus scale="   90.815">  7  8 -1 -1</clus>
<clus scale="  153.088">  1  5  2 -1</clus>
<clus scale="   75.476">  2  5  1 -1</clus>
</clustering>
</event>
<event>
 9    1  0.9000149E-006  0.1041368E+03  0.7546771E-02  0.1274135E+00
          1   -1    0    0  502    0  0.00000000000E+00  0.00000000000E+00  0.25901831859E+03  0.25901831859E+03  0.00000000000E+00 0. -1.
         -1   -1    0    0    0  501 -0.00000000000E+00 -0.00000000000E+00 -0.28745627333E+03  0.28745627333E+03  0.00000000000E+00 0.  1.
         23    2    1    2    0    0  0.40951896729E+02 -0.29858253194E+02 -0.15276501349E+03  0.18441898264E+03  0.90025766760E+02 0.  0.
         23    2    1    2    0    0 -0.12059194805E+02  0.33633185842E+02 -0.96061190643E+02  0.13974947168E+03  0.95002879530E+02 0.  0.
        -11    1    4    4    0    0 -0.33712096468E+00 -0.32053329680E+02 -0.47166582926E+02  0.57028204768E+02  0.00000000000E+00 0.  1.
         11    1    4    4    0    0 -0.11722073840E+02  0.65686515522E+02 -0.48894607717E+02  0.82721266917E+02  0.00000000000E+00 0. -1.
        -13    1    3    3    0    0 -0.16045886896E+02  0.20107621984E+02 -0.54942959297E+02  0.60667254136E+02  0.00000000000E+00 0. -1.
         13    1    3    3    0    0  0.56997783624E+02 -0.49965875178E+02 -0.97822054194E+02  0.12375172850E+03  0.00000000000E+00 0.  1.
         21    1    1    2  502  501 -0.28892701924E+02 -0.37749326480E+01  0.22038824939E+03  0.22230613759E+03  0.00000000000E+00 0. -1.
<scales pt_clust_5="13000.00000" pt_clust_6="13000.00000" pt_clust_7="13000.00000" pt_clust_8="13000.00000" pt_clust_9="29.13826"></scales>
<clustering>
<clus scale="   29.138">  1  9  2 -1</clus>
<clus scale="   90.026">  7  8 -1 -1</clus>
<clus scale="   95.003">  5  6 -1 -1</clus>
<clus scale="   99.617">  2  7  1 -1</clus>
<clus scale="   29.138">  1  5  2 -1</clus>
</clustering>
</event>
<event>
 9    1  0.9000149E-006  0.1215343E+03  0.7546771E-02  0.1240758E+00
          2   -1    0    0  502    0  0.00000000000E+00  0.00000000000E+00  0.19842118210E+03  0.19842118210E+03  0.00000000000E+00 0.  1.
         -2   -1    0    0    0  501 -0.00000000000E+00 -0.00000000000E+00 -0.43397923952E+03  0.43397923952E+03  0.00000000000E+00 0. -1.
         23    2    1    2    0    0  0.19193553307E+02  0.89334891581E+02 -0.37500787620E+03  0.39672662503E+03  0.91716914770E+02 0.  0.
         23    2    1    2    0    0  0.14633818459E+02 -0.15699259846E+02  0.27749618990E+02  0.97675854665E+02  0.91158739724E+02 0.  0.
        -11    1    3    3    0    0  0.37123287828E+02  0.46912004263E+01 -0.66378667176E+02  0.76198906270E+02  0.00000000000E+00 0.  1.
         11    1    3    3    0    0 -0.17929734522E+02  0.84643691155E+02 -0.30862920902E+03  0.32052771876E+03  0.00000000000E+00 0. -1.
        -13    1    4    4    0    0  0.79796552497E+01 -0.52918836523E+02  0.26804124059E+02  0.59854316665E+02  0.00000000000E+00 0.  1.
         13    1    4    4    0    0  0.66541632094E+01  0.37219576677E+02  0.94549493180E+00  0.37821538001E+02  0.00000000000E+00 0. -1.
         21    1    1    2  502  501 -0.33827371766E+02 -0.73635631735E+02  0.11170019979E+03  0.13799794193E+03  0.00000000000E+00 0.  1.
<scales pt_clust_5="13000.00000" pt_clust_6="13000.00000" pt_clust_7="13000.00000" pt_clust_8="13000.00000" pt_clust_9="81.03393"></scales>
<clustering>
<clus scale="   81.034">  1  9  2 -1</clus>
<clus scale="   91.159">  7  8 -1 -1</clus>
<clus scale="   91.717">  5  6 -1 -1</clus>
<clus scale="  121.114">  1  7  2 -1</clus>
<clus scale="   81.034">  1  5  2 -1</clus>
</clustering>
</event>
<event>
 9    1  0.9000149E-006  0.9188252E+02  0.7546771E-02  0.1298855E+00
          1   -1    0    0  502    0  0.00000000000E+00  0.00000000000E+00  0.15438336352E+03  0.15438336352E+03  0.00000000000E+00 0. -1.
         -1   -1    0    0    0  501 -0.00000000000E+00 -0.00000000000E+00 -0.89009247144E+02  0.89009247144E+02  0.00000000000E+00 0.  1.
         23    2    1    2    0    0  0.10490972318E+02  0.10558736987E+02 -0.45222888403E+01  0.92241097683E+02  0.90919863498E+02 0.  0.
         23    2    1    2    0    0  0.50373994545E+01  0.68323327552E+01  0.17501524620E+02  0.93803425398E+02  0.91764497973E+02 0.  0.
        -13    1    3    3    0    0 -0.39121611967E+02 -0.19012960232E+01  0.70447861138E+01  0.39796287024E+02  0.00000000000E+00 0.  1.
         13    1    3    3    0    0  0.49612584285E+02  0.12460033010E+02 -0.11567074954E+02  0.52444810659E+02  0.00000000000E+00 0. -1.
        -13    1    4    4    0    0  0.24198525451E+02  0.31856798657E+02  0.38826837764E+02  0.55748969367E+02  0.00000000000E+00 0. -1.
         13    1    4    4    0    0 -0.19161125997E+02 -0.25024465902E+02 -0.21325313144E+02  0.38054456031E+02  0.00000000000E+00 0.  1.
         21    1    1    2  502  501 -0.15528371773E+02 -0.17391069742E+02  0.52394880594E+02  0.57348087580E+02  0.00000000000E+00 0. -1.
<scales pt_clust_5="13000.00000" pt_clust_6="13000.00000" pt_clust_7="13000.00000" pt_clust_8="13000.00000" pt_clust_9="23.31479"></scales>
<clustering>
<clus scale="   23.315">  1  9  2 -1</clus>
<clus scale="   90.920">  5  6 -1 -1</clus>
<clus scale="   91.039">  2  5  1 -1</clus>
<clus scale="   91.764">  7  8 -1 -1</clus>
<clus scale="   23.315">  1  5  2 -1</clus>
</clustering>
</event>
<event>
 9    1  0.9000149E-006  0.1029668E+03  0.7546771E-02  0.1275109E+00
         -1   -1    0    0    0  501 -0.00000000000E+00  0.00000000000E+00  0.22770757902E+03  0.22770757902E+03  0.00000000000E+00 0.  1.
          1   -1    0    0  502    0  0.00000000000E+00 -0.00000000000E+00 -0.46863988623E+03  0.46863988623E+03  0.00000000000E+00 0. -1.
         23    2    1    2    0    0  0.29885248346E+02  0.32739985163E+02  0.20172700716E+03  0.22623970554E+03  0.92334090391E+02 0.  0.
         23    2    1    2    0    0 -0.63216401226E+02 -0.48028761951E+02 -0.31085730297E+03  0.33329956310E+03  0.90295407396E+02 0.  0.
        -13    1    4    4    0    0 -0.39262507456E+02 -0.70695243711E+02 -0.16487418027E+03  0.18363784277E+03  0.00000000000E+00 0. -1.
         13    1    4    4    0    0 -0.23953893770E+02  0.22666481760E+02 -0.14598312270E+03  0.14966172034E+03  0.00000000000E+00 0.  1.
        -13    1    3    3    0    0  0.18412124088E+02 -0.31771692582E+02  0.66141749461E+02  0.75651687256E+02  0.00000000000E+00 0. -1.
         13    1    3    3    0    0  0.11473124258E+02  0.64511677745E+02  0.13558525770E+03  0.15058801829E+03  0.00000000000E+00 0.  1.
         21    1    1    2  502  501  0.33331152879E+02  0.15288776788E+02 -0.13180201141E+03  0.13680819661E+03  0.00000000000E+00 0.  1.
<scales pt_clust_5="13000.00000" pt_clust_6="13000.00000" pt_clust_7="13000.00000" pt_clust_8="13000.00000" pt_clust_9="36.67032"></scales>
<clustering>
<clus scale="   36.670">  2  9  1 -1</clus>
<clus scale="   90.295">  5  6 -1 -1</clus>
<clus scale="   92.334">  7  8 -1 -1</clus>
<clus scale="  101.143">  2  5  1 -1</clus>
<clus scale="   36.670">  2  5  1 -1</clus>
</clustering>
</event>
<event>
 9    1  0.9000149E-006  0.1230581E+03  0.7546771E-02  0.1238346E+00
         -2   -1    0    0    0  501 -0.00000000000E+00  0.00000000000E+00  0.23778724135E+03  0.23778724135E+03  0.00000000000E+00 0.  1.
          2   -1    0    0  502    0  0.00000000000E+00 -0.00000000000E+00 -0.52397230419E+03  0.52397230419E+03  0.00000000000E+00 0. -1.
         23    2    1    2    0    0 -0.67513480416E+02  0.69883715645E+02  0.16482901686E+03  0.21137984658E+03  0.89838916912E+02 0.  0.
         23    2    1    2    0    0  0.66969297832E+02  0.14407496171E+02 -0.25209118152E+02  0.11631153634E+03  0.90556120992E+02 0.  0.
        -11    1    4    4    0    0 -0.22158176981E+02  0.86651207351E+01 -0.95479528536E+01  0.25636546728E+02  0.00000000000E+00 0. -1.
         11    1    4    4    0    0  0.89127474812E+02  0.57423754358E+01 -0.15661165299E+02  0.90674989609E+02  0.00000000000E+00 0.  1.
        -13    1    3    3    0    0 -0.79985069564E+02  0.50254921994E+02  0.81161985979E+02  0.12454090294E+03  0.00000000000E+00 0. -1.
         13    1    3    3    0    0  0.12471589148E+02  0.19628793651E+02  0.83667030879E+02  0.86838943638E+02  0.00000000000E+00 0.  1.
         21    1    1    2  502  501  0.54418258464E+00 -0.84291211816E+02 -0.42580496155E+03  0.43406816262E+03  0.00000000000E+00 0. -1.
<scales pt_clust_5="13000.00000" pt_clust_6="13000.00000" pt_clust_7="13000.00000" pt_clust_8="13000.00000" pt_clust_9="84.29297"></scales>
<clustering>
<clus scale="   84.293">  2  9  1 -1</clus>
<clus scale="   89.839">  7  8 -1 -1</clus>
<clus scale="   90.556">  5  6 -1 -1</clus>
<clus scale="  122.531">  1  7  2 -1</clus>
<clus scale="   84.293">  2  5  1 -1</clus>
</clustering>
</event>
<event>
 9    1  0.9000149E-006  0.2128082E+03  0.7546771E-02  0.1139513E+00
         -1   -1    0    0    0  501 -0.00000000000E+00  0.00000000000E+00  0.25943285861E+03  0.25943285861E+03  0.00000000000E+00 0.  1.
          1   -1    0    0  502    0  0.00000000000E+00 -0.00000000000E+00 -0.29605640507E+03  0.29605640507E+03  0.00000000000E+00 0. -1.
         23    2    1    2    0    0  0.19564178151E+03 -0.18670461664E+00  0.15127228029E+03  0.26349543626E+03  0.90943942138E+02 0.  0.
         23    2    1    2    0    0 -0.18014088899E+03  0.14398421389E+02 -0.16138367083E+03  0.25815383667E+03  0.89110379587E+02 0.  0.
        -13    1    3    3    0    0  0.14538029317E+03 -0.75156318962E+01  0.56855602882E+02  0.15628331307E+03  0.00000000000E+00 0.  1.
         13    1    3    3    0    0  0.50261488347E+02  0.73289272795E+01  0.94416677413E+02  0.10721212319E+03  0.00000000000E+00 0. -1.
        -13    1    4    4    0    0 -0.14365531487E+03 -0.20321765169E+02 -0.89802200071E+02  0.17062900916E+03  0.00000000000E+00 0.  1.
         13    1    4    4    0    0 -0.36485574123E+02  0.34720186558E+02 -0.71581470764E+02  0.87524827509E+02  0.00000000000E+00 0. -1.
         21    1    1    2  502  501 -0.15500892519E+02 -0.14211716773E+02 -0.26512155920E+02  0.33839990751E+02  0.00000000000E+00 0. -1.
<scales pt_clust_5="13000.00000" pt_clust_6="13000.00000" pt_clust_7="13000.00000" pt_clust_8="13000.00000" pt_clust_9="21.02975"></scales>
<clustering>
<clus scale="   21.030">  2  9  1 -1</clus>
<clus scale="   89.110">  7  8 -1 -1</clus>
<clus scale="   90.944">  5  6 -1 -1</clus>
<clus scale="  212.031">  2  7  1 -1</clus>
<clus scale="   21.030">  2  5  1 -1</clus>
</clustering>
</event>
<event>
 9    1  0.9000149E-006  0.9622628E+02  0.7546771E-02  0.1289292E+00
         -1   -1    0    0    0  501 -0.00000000000E+00  0.00000000000E+00  0.11111112926E+03  0.11111112926E+03  0.00000000000E+00 0.  1.
          1   -1    0    0  502    0  0.00000000000E+00 -0.00000000000E+00 -0.13978479183E+03  0.13978479183E+03  0.00000000000E+00 0. -1.
         23    2    1    2    0    0 -0.22696455760E+00  0.30299100519E+02  0.50278565331E+02  0.10674490950E+03  0.89154105725E+02 0.  0.
         23    2    1    2    0    0  0.20333735756E+02 -0.35708512194E+02 -0.67871769785E+02  0.12056456347E+03  0.90778181176E+02 0.  0.
        -11    1    4    4    0    0 -0.71097454258E+01 -0.51381378784E+02 -0.71950672862E+02  0.88698894531E+02  0.00000000000E+00 0. -1.
         11    1    4    4    0    0  0.27443481182E+02  0.15672866590E+02  0.40789030770E+01  0.31865668937E+02  0.00000000000E+00 0.  1.
        -13    1    3    3    0    0 -0.21969977322E+02  0.16699710142E+01 -0.18739951690E+02  0.28924980485E+02  0.00000000000E+00 0. -1.
         13    1    3    3    0    0  0.21743012765E+02  0.28629129504E+02  0.69018517021E+02  0.77819929016E+02  0.00000000000E+00 0.  1.
         21    1    1    2  502  501 -0.20106771199E+02  0.54094116756E+01 -0.11080458125E+02  0.23586448121E+02  0.00000000000E+00 0. -1.
<scales pt_clust_5="13000.00000" pt_clust_6="13000.00000" pt_clust_7="13000.00000" pt_clust_8="13000.00000" pt_clust_9="20.82172"></scales>
<clustering>
<clus scale="   20.822">  2  9  1 -1</clus>
<clus scale="   89.154">  7  8 -1 -1</clus>
<clus scale="   90.778">  5  6 -1 -1</clus>
<clus scale="   94.696">  1  7  2 -1</clus>
<clus scale="   20.822">  2  5  1 -1</clus>
</clustering>
</event>
<event>
 9    1  0.9000149E-006  0.1069747E+03  0.7546771E-02  0.1267851E+00
         -1   -1    0    0    0  501 -0.00000000000E+00  0.00000000000E+00  0.15095021711E+03  0.15095021711E+03  0.00000000000E+00 0.  1.
          1   -1    0    0  502    0  0.00000000000E+00 -0.00000000000E+00 -0.12585478948E+03  0.12585478948E+03  0.00000000000E+00 0. -1.
         23    2    1    2    0    0  0.38570213236E+02 -0.27345897193E+01  0.56911160785E+02  0.11693239364E+03  0.94547158236E+02 0.  0.
         23    2    1    2    0    0 -0.73545409670E+02  0.48675267373E+01 -0.75676596575E+01  0.11726060931E+03  0.90885427455E+02 0.  0.
        -11    1    3    3    0    0  0.14683826946E+02 -0.26596417053E+02  0.73340650862E+02  0.79384099433E+02  0.00000000000E+00 0.  1.
         11    1    3    3    0    0  0.23886386290E+02  0.23861827334E+02 -0.16429490077E+02  0.37548294207E+02  0.00000000000E+00 0. -1.
        -11    1    4    4    0    0 -0.56378496842E+02 -0.13379747559E+02  0.35125393920E+02  0.67759470548E+02  0.00000000000E+00 0.  1.
         11    1    4    4    0    0 -0.17166912828E+02  0.18247274297E+02 -0.42693053577E+02  0.49501138765E+02  0.00000000000E+00 0. -1.
         21    1    1    2  502  501  0.34975196435E+02 -0.21329370180E+01 -0.24248073496E+02  0.42612003640E+02  0.00000000000E+00 0. -1.
<scales pt_clust_5="13000.00000" pt_clust_6="13000.00000" pt_clust_7="13000.00000" pt_clust_8="13000.00000" pt_clust_9="35.04017"></scales>
<clustering>
<clus scale="   35.040">  2  9  1 -1</clus>
<clus scale="   90.885">  7  8 -1 -1</clus>
<clus scale="   94.547">  5  6 -1 -1</clus>
<clus scale="  103.753">  2  7  1 -1</clus>
<clus scale="   35.040">  2  5  1 -1</clus>
</clustering>
</event>
<event>
 9    1  0.9000149E-006  0.1072894E+03  0.7546771E-02  0.1265982E+00
          2   -1    0    0  502    0  0.00000000000E+00  0.00000000000E+00  0.16357634934E+03  0.16357634934E+03  0.00000000000E+00 0. -1.
         -2   -1    0    0    0  501 -0.00000000000E+00 -0.00000000000E+00 -0.22372378866E+03  0.22372378866E+03  0.00000000000E+00 0.  1.
         23    2    1    2    0    0 -0.15896942379E+02  0.47298729430E+02 -0.16030151878E+03  0.19167984407E+03  0.92491638093E+02 0.  0.
         23    2    1    2    0    0 -0.25462960642E+01 -0.82537949634E+02  0.92451392266E+02  0.15510749257E+03  0.93231312148E+02 0.  0.
        -13    1    4    4    0    0 -0.35179012640E+02 -0.32251155420E+02  0.35158501754E+01  0.47854583466E+02  0.00000000000E+00 0.  1.
         13    1    4    4    0    0  0.32632716576E+02 -0.50286794214E+02  0.88935542091E+02  0.10725290910E+03  0.00000000000E+00 0. -1.
        -13    1    3    3    0    0  0.13654472828E+02  0.64094137100E+02 -0.13229931523E+03  0.14764014308E+03  0.00000000000E+00 0.  1.
         13    1    3    3    0    0 -0.29551415208E+02 -0.16795407670E+02 -0.28002203549E+02  0.44039700989E+02  0.00000000000E+00 0. -1.
         21    1    1    2  502  501  0.18443238444E+02  0.35239220204E+02  0.77026871946E+01  0.40512801371E+02  0.00000000000E+00 0.  1.
<scales pt_clust_5="13000.00000" pt_clust_6="13000.00000" pt_clust_7="13000.00000" pt_clust_8="13000.00000" pt_clust_9="39.77381"></scales>
<clustering>
<clus scale="   39.774">  1  9  2 -1</clus>
<clus scale="   92.492">  7  8 -1 -1</clus>
<clus scale="   93.231">  5  6 -1 -1</clus>
<clus scale="  106.647">  2  7  1 -1</clus>
<clus scale="   39.774">  1  5  2 -1</clus>
</clustering>
</event>
<event>
 9    1  0.9000149E-006  0.1095778E+03  0.7546771E-02  0.1262794E+00
          1   -1    0    0  502    0  0.00000000000E+00  0.00000000000E+00  0.15841940641E+03  0.15841940641E+03  0.00000000000E+00 0. -1.
         -1   -1    0    0    0  501 -0.00000000000E+00 -0.00000000000E+00 -0.11421949973E+03  0.11421949973E+03  0.00000000000E+00 0.  1.
         23    2    1    2    0    0  0.25514783094E+01 -0.52050212056E+02 -0.19699917780E+02  0.10895886209E+03  0.93638732647E+02 0.  0.
         23    2    1    2    0    0 -0.30100560973E+02  0.60541017182E+02  0.25148712726E+02  0.11538206906E+03  0.90051682806E+02 0.  0.
        -11    1    3    3    0    0  0.17538932830E+02 -0.76027010949E+02 -0.82717196803E+01  0.78461085291E+02  0.00000000000E+00 0.  1.
         11    1    3    3    0    0 -0.14987454521E+02  0.23976798893E+02 -0.11428198100E+02  0.30497776803E+02  0.00000000000E+00 0. -1.
        -13    1    4    4    0    0 -0.53186686670E+02  0.38471740335E+02  0.43309165439E+02  0.78642115017E+02  0.00000000000E+00 0. -1.
         13    1    4    4    0    0  0.23086125697E+02  0.22069276847E+02 -0.18160452713E+02  0.36739954042E+02  0.00000000000E+00 0.  1.
         21    1    1    2  502  501  0.27549082664E+02 -0.84908051256E+01  0.38751111737E+02  0.48297974990E+02  0.00000000000E+00 0. -1.
<scales pt_clust_5="13000.00000" pt_clust_6="13000.00000" pt_clust_7="13000.00000" pt_clust_8="13000.00000" pt_clust_9="28.82786"></scales>
<clustering>
<clus scale="   28.828">  1  9  2 -1</clus>
<clus scale="   90.052">  7  8 -1 -1</clus>
<clus scale="   93.639">  5  6 -1 -1</clus>
<clus scale="  106.529">  1  7  2 -1</clus>
<clus scale="   28.828">  1  5  2 -1</clus>
</clustering>
</event>
<event>
 9    1  0.9000149E-006  0.1051009E+03  0.7546771E-02  0.1276073E+00
          2   -1    0    0  502    0  0.00000000000E+00  0.00000000000E+00  0.25762147545E+03  0.25762147545E+03  0.00000000000E+00 0. -1.
         -2   -1    0    0    0  501 -0.00000000000E+00 -0.00000000000E+00 -0.77858005992E+02  0.77858005992E+02  0.00000000000E+00 0.  1.
         23    2    1    2    0    0 -0.16304329383E+02  0.15280609277E+02  0.78042710017E+01  0.10579322246E+03  0.10311144988E+03 0.  0.
         23    2    1    2    0    0  0.27413758799E+02  0.25550592823E+02  0.74768302255E+02  0.12368306662E+03  0.91120003186E+02 0.  0.
        -11    1    4    4    0    0  0.49196100131E+02  0.45363754975E+02  0.39378252767E+02  0.77645175797E+02  0.00000000000E+00 0.  1.
         11    1    4    4    0    0 -0.21782341332E+02 -0.19813162153E+02  0.35390049488E+02  0.46037890820E+02  0.00000000000E+00 0. -1.
        -13    1    3    3    0    0 -0.40909865236E+02  0.36156297858E+02 -0.24759812898E+02  0.59949506113E+02  0.00000000000E+00 0.  1.
         13    1    3    3    0    0  0.24605535853E+02 -0.20875688580E+02  0.32564083900E+02  0.45843716348E+02  0.00000000000E+00 0. -1.
         21    1    1    2  502  501 -0.11109429416E+02 -0.40831202100E+02  0.97190896201E+02  0.10600319236E+03  0.00000000000E+00 0. -1.
<scales pt_clust_5="13000.00000" pt_clust_6="13000.00000" pt_clust_7="13000.00000" pt_clust_8="13000.00000" pt_clust_9="42.31556"></scales>
<clustering>
<clus scale="   42.316">  1  9  2 -1</clus>
<clus scale="   91.120">  5  6 -1 -1</clus>
<clus scale="   93.365">  1  5  2 -1</clus>
<clus scale="  103.111">  7  8 -1 -1</clus>
<clus scale="   42.316">  1  5  2 -1</clus>
</clustering>
</event>
<event>
 9    1  0.9000149E-006  0.1026267E+03  0.7546771E-02  0.1275304E+00
          1   -1    0    0  502    0  0.00000000000E+00  0.00000000000E+00  0.64044727427E+03  0.64044727427E+03  0.00000000000E+00 0. -1.
         -1   -1    0    0    0  501 -0.00000000000E+00 -0.00000000000E+00 -0.12036540167E+03  0.12036540167E+03  0.00000000000E+00 0.  1.
         23    2    1    2    0    0 -0.44316620861E+02 -0.64759800156E+01 -0.91122425673E+02  0.13760129923E+03  0.92870446789E+02 0.  0.
         23    2    1    2    0    0  0.19843907906E+02 -0.38332075210E+01  0.50799531782E+03  0.51664080537E+03  0.91923907067E+02 0.  0.
        -11    1    3    3    0    0 -0.73535005205E+02 -0.46183543267E+01 -0.68486472827E+02  0.10059385243E+03  0.00000000000E+00 0.  1.
         11    1    3    3    0    0  0.29218384344E+02 -0.18576256888E+01 -0.22635952846E+02  0.37007446793E+02  0.00000000000E+00 0. -1.
        -11    1    4    4    0    0  0.56374430052E+02  0.35308283067E+01  0.32803851372E+03  0.33286605353E+03  0.00000000000E+00 0. -1.
         11    1    4    4    0    0 -0.36530522146E+02 -0.73640358277E+01  0.17995680410E+03  0.18377475184E+03  0.00000000000E+00 0.  1.
         21    1    1    2  502  501  0.24472712955E+02  0.10309187537E+02  0.10320898046E+03  0.10657057133E+03  0.00000000000E+00 0. -1.
<scales pt_clust_5="13000.00000" pt_clust_6="13000.00000" pt_clust_7="13000.00000" pt_clust_8="13000.00000" pt_clust_9="26.55547"></scales>
<clustering>
<clus scale="   26.555">  1  9  2 -1</clus>
<clus scale="   91.924">  7  8 -1 -1</clus>
<clus scale="   92.870">  5  6 -1 -1</clus>
<clus scale="  101.771">  1  7  2 -1</clus>
<clus scale="   26.555">  1  5  2 -1</clus>
</clustering>
</event>
<event>
 9    1  0.9000149E-006  0.1235187E+03  0.7546771E-02  0.1238009E+00
         -1   -1    0    0    0  501 -0.00000000000E+00  0.00000000000E+00  0.19200550226E+03  0.19200550226E+03  0.00000000000E+00 0.  1.
          1   -1    0    0  502    0  0.00000000000E+00 -0.00000000000E+00 -0.16890988667E+03  0.16890988667E+03  0.00000000000E+00 0. -1.
         23    2    1    2    0    0 -0.68371294116E+02 -0.56409874504E+02  0.93392399558E+02  0.15712190277E+03  0.90046900185E+02 0.  0.
         23    2    1    2    0    0  0.73786964387E+02  0.18327756442E+02  0.46942544479E+01  0.11951280603E+03  0.92091541473E+02 0.  0.
        -13    1    4    4    0    0  0.19700152542E+02  0.18962551403E+02 -0.40608919554E+02  0.48956702434E+02  0.00000000000E+00 0. -1.
         13    1    4    4    0    0  0.54086811845E+02 -0.63479496094E+00  0.45303174002E+02  0.70556103597E+02  0.00000000000E+00 0.  1.
        -13    1    3    3    0    0 -0.35156436119E+02  0.18730707723E+02  0.12309791048E+02  0.41693469129E+02  0.00000000000E+00 0. -1.
         13    1    3    3    0    0 -0.33214857997E+02 -0.75140582226E+02  0.81082608510E+02  0.11542843364E+03  0.00000000000E+00 0.  1.
         21    1    1    2  502  501 -0.54156702710E+01  0.38082118062E+02 -0.74991038417E+02  0.84280680131E+02  0.00000000000E+00 0. -1.
<scales pt_clust_5="13000.00000" pt_clust_6="13000.00000" pt_clust_7="13000.00000" pt_clust_8="13000.00000" pt_clust_9="38.46527"></scales>
<clustering>
<clus scale="   38.465">  2  9  1 -1</clus>
<clus scale="   90.047">  7  8 -1 -1</clus>
<clus scale="   92.092">  5  6 -1 -1</clus>
<clus scale="  122.002">  1  7  2 -1</clus>
<clus scale="   38.465">  2  5  1 -1</clus>
</clustering>
</event>
<event>
 9    1  0.9000149E-006  0.1027895E+03  0.7546771E-02  0.1280752E+00
         -1   -1    0    0    0  501 -0.00000000000E+00  0.00000000000E+00  0.62223034428E+02  0.62223034428E+02  0.00000000000E+00 0.  1.
          1   -1    0    0  502    0  0.00000000000E+00 -0.00000000000E+00 -0.19947584429E+03  0.19947584429E+03  0.00000000000E+00 0. -1.
         23    2    1    2    0    0  0.21448420610E+02 -0.57795765722E+02 -0.57527504499E+02  0.12418092527E+03  0.91165251851E+02 0.  0.
         23    2    1    2    0    0 -0.82573527096E+01  0.37925416596E+02 -0.70106798012E+02  0.11180121317E+03  0.77961702401E+02 0.  0.
        -11    1    4    4    0    0  0.12351470174E+02  0.57150092594E+02 -0.52421532778E+02  0.78528396124E+02  0.00000000000E+00 0. -1.
         11    1    4    4    0    0 -0.20608822883E+02 -0.19224675998E+02 -0.17685265233E+02  0.33272817047E+02  0.00000000000E+00 0.  1.
        -11    1    3    3    0    0 -0.20935571235E+02 -0.31562044808E+02 -0.63542227107E+02  0.73973477957E+02  0.00000000000E+00 0. -1.
         11    1    3    3    0    0  0.42383991845E+02 -0.26233720914E+02  0.60147226072E+01  0.50207447313E+02  0.00000000000E+00 0.  1.
         21    1    1    2  502  501 -0.13191067900E+02  0.19870349126E+02 -0.96185073510E+01  0.25716740276E+02  0.00000000000E+00 0. -1.
<scales pt_clust_5="13000.00000" pt_clust_6="13000.00000" pt_clust_7="13000.00000" pt_clust_8="13000.00000" pt_clust_9="23.85026"></scales>
<clustering>
<clus scale="   23.850">  1  9  2 -1</clus>
<clus scale="   77.962">  5  6 -1 -1</clus>
<clus scale="   91.165">  7  8 -1 -1</clus>
<clus scale="   91.283">  2  5  1 -1</clus>
<clus scale="   91.283">  2  5  1 -1</clus>
</clustering>
</event>
<event>
 9    1  0.9000149E-006  0.1083194E+03  0.7546771E-02  0.1267252E+00
         -2   -1    0    0    0  501 -0.00000000000E+00  0.00000000000E+00  0.46027319812E+02  0.46027319812E+02  0.00000000000E+00 0.  1.
          2   -1    0    0  502    0  0.00000000000E+00 -0.00000000000E+00 -0.48550699878E+03  0.48550699878E+03  0.00000000000E+00 0. -1.
         23    2    1    2    0    0 -0.21351711774E+01 -0.42479802732E+02 -0.11445762259E+03  0.15576389170E+03  0.96709616848E+02 0.  0.
         23    2    1    2    0    0 -0.57542809226E+02  0.40126721182E+02 -0.13213030959E+03  0.17384414253E+03  0.88555285187E+02 0.  0.
        -11    1    4    4    0    0 -0.35787228761E+02 -0.24443588747E+02 -0.37983758656E+02  0.57627950639E+02  0.00000000000E+00 0.  1.
         11    1    4    4    0    0 -0.21755580465E+02  0.64570309929E+02 -0.94146550929E+02  0.11621619189E+03  0.00000000000E+00 0. -1.
        -13    1    3    3    0    0  0.27244041623E+02 -0.54136453819E+02 -0.34388031814E+02  0.69681634368E+02  0.00000000000E+00 0.  1.
         13    1    3    3    0    0 -0.29379212801E+02  0.11656651087E+02 -0.80069590780E+02  0.86082257330E+02  0.00000000000E+00 0. -1.
         21    1    1    2  502  501  0.59677980404E+02  0.23530815507E+01 -0.19289174679E+03  0.20192628437E+03  0.00000000000E+00 0.  1.
<scales pt_clust_5="13000.00000" pt_clust_6="13000.00000" pt_clust_7="13000.00000" pt_clust_8="13000.00000" pt_clust_9="59.72435"></scales>
<clustering>
<clus scale="   59.724">  2  9  1 -1</clus>
<clus scale="   88.555">  5  6 -1 -1</clus>
<clus scale="   96.710">  7  8 -1 -1</clus>
<clus scale="  101.106">  2  5  1 -1</clus>
<clus scale="   59.724">  2  5  1 -1</clus>
</clustering>
</event>
<event>
 9    1  0.9000149E-006  0.1110752E+03  0.7546771E-02  0.1261493E+00
          2   -1    0    0  502    0  0.00000000000E+00  0.00000000000E+00  0.62072123264E+03  0.62072123264E+03  0.00000000000E+00 0. -1.
         -2   -1    0    0    0  501 -0.00000000000E+00 -0.00000000000E+00 -0.37253637155E+02  0.37253637155E+02  0.00000000000E+00 0.  1.
         23    2    1    2    0    0  0.29476680279E+02 -0.53734074259E+02  0.10322420417E+03  0.15004943812E+03  0.90018732143E+02 0.  0.
         23    2    1    2    0    0  0.11448441679E+02  0.47555372440E+02  0.23159007904E+03  0.25585101475E+03  0.97124645548E+02 0.  0.
        -11    1    3    3    0    0  0.53059624791E+02 -0.22219855462E+02  0.93048711121E+02  0.10939427956E+03  0.00000000000E+00 0.  1.
         11    1    3    3    0    0 -0.23582944512E+02 -0.31514218798E+02  0.10175493044E+02  0.40655158553E+02  0.00000000000E+00 0. -1.
        -13    1    4    4    0    0 -0.36682172340E+02 -0.51665983384E+01  0.70103567274E+02  0.79289253058E+02  0.00000000000E+00 0. -1.
         13    1    4    4    0    0  0.48130614019E+02  0.52721970778E+02  0.16148651177E+03  0.17656176169E+03  0.00000000000E+00 0.  1.
         21    1    1    2  502  501 -0.40925121958E+02  0.61787018195E+01  0.24865331228E+03  0.25207441693E+03  0.00000000000E+00 0. -1.
<scales pt_clust_5="13000.00000" pt_clust_6="13000.00000" pt_clust_7="13000.00000" pt_clust_8="13000.00000" pt_clust_9="41.38891"></scales>
<clustering>
<clus scale="   41.389">  1  9  2 -1</clus>
<clus scale="   90.019">  5  6 -1 -1</clus>
<clus scale="   97.125">  7  8 -1 -1</clus>
<clus scale="  104.918">  2  5  1 -1</clus>
<clus scale="   41.389">  1  5  2 -1</clus>
</clustering>
</event>
<event>
 9    1  0.9000149E-006  0.1234630E+03  0.7546771E-02  0.1242363E+00
         -2   -1    0    0    0  501 -0.00000000000E+00  0.00000000000E+00  0.12201070166E+03  0.12201070166E+03  0.00000000000E+00 0.  1.
          2   -1    0    0  502    0  0.00000000000E+00 -0.00000000000E+00 -0.17906908135E+03  0.17906908135E+03  0.00000000000E+00 0. -1.
         23    2    1    2    0    0 -0.18002866285E+02  0.63644076963E+02  0.32711958240E+02  0.12717379632E+03  0.10357813733E+03 0.  0.
         23    2    1    2    0    0  0.47856162827E+02 -0.56730480758E+02 -0.82243714607E+02  0.14235179227E+03  0.89394879058E+02 0.  0.
        -11    1    3    3    0    0 -0.32044960907E+02 -0.57247073789E+01  0.44795348774E+02  0.55373956567E+02  0.00000000000E+00 0. -1.
         11    1    3    3    0    0  0.14042094622E+02  0.69368784342E+02 -0.12083390534E+02  0.71799839758E+02  0.00000000000E+00 0.  1.
        -13    1    4    4    0    0  0.61657691792E+02 -0.72515757596E+02 -0.68751276612E+02  0.11741781846E+03  0.00000000000E+00 0. -1.
         13    1    4    4    0    0 -0.13801528965E+02  0.15785276838E+02 -0.13492437995E+02  0.24933973804E+02  0.00000000000E+00 0.  1.
         21    1    1    2  502  501 -0.29853296542E+02 -0.69135962055E+01 -0.75266233166E+01  0.31554194420E+02  0.00000000000E+00 0. -1.
<scales pt_clust_5="13000.00000" pt_clust_6="13000.00000" pt_clust_7="13000.00000" pt_clust_8="13000.00000" pt_clust_9="30.64339"></scales>
<clustering>
<clus scale="   30.643">  2  9  1 -1</clus>
<clus scale="   89.395">  7  8 -1 -1</clus>
<clus scale="  103.578">  5  6 -1 -1</clus>
<clus scale="  111.831">  2  7  1 -1</clus>
<clus scale="   30.643">  2  5  1 -1</clus>
</clustering>
</event>
<event>
 9    1  0.9000149E-006  0.4346831E+03  0.7546771E-02  0.1032405E+00
         -1   -1    0    0    0  501 -0.00000000000E+00  0.00000000000E+00  0.13250759358E+04  0.13250759358E+04  0.00000000000E+00 0.  1.
          1   -1    0    0  502    0  0.00000000000E+00 -0.00000000000E+00 -0.16880506077E+03  0.16880506077E+03  0.00000000000E+00 0. -1.
         23    2    1    2    0    0 -0.88615611853E+02  0.41105390694E+03  0.77207092829E+03  0.88430995717E+03  0.95354816143E+02 0.  0.
         23    2    1    2    0    0  0.62479318965E+02 -0.42678226006E+03  0.36922820162E+03  0.57559104456E+03  0.94492448977E+02 0.  0.
        -13    1    4    4    0    0 -0.23264274075E+02 -0.14956852557E+03  0.12385436839E+03  0.19558086527E+03  0.00000000000E+00 0. -1.
         13    1    4    4    0    0  0.85743593040E+02 -0.27721373448E+03  0.24537383322E+03  0.38001017929E+03  0.00000000000E+00 0.  1.
        -13    1    3    3    0    0 -0.11594386262E+01  0.77003903915E+02  0.80980832482E+02  0.11175348203E+03  0.00000000000E+00 0. -1.
         13    1    3    3    0    0 -0.87456173227E+02  0.33405000303E+03  0.69109009580E+03  0.77255647514E+03  0.00000000000E+00 0.  1.
         21    1    1    2  502  501  0.26136292888E+02  0.15728353111E+02  0.14971745119E+02  0.33979994841E+02  0.00000000000E+00 0. -1.
<scales pt_clust_5="13000.00000" pt_clust_6="13000.00000" pt_clust_7="13000.00000" pt_clust_8="13000.00000" pt_clust_9="30.50388"></scales>
<clustering>
<clus scale="   30.504">  2  9  1 -1</clus>
<clus scale="   94.492">  5  6 -1 -1</clus>
<clus scale="   95.355">  7  8 -1 -1</clus>
<clus scale="  434.495">  2  5  1 -1</clus>
<clus scale="   30.504">  2  5  1 -1</clus>
</clustering>
</event>
<event>
 9    1  0.9000149E-006  0.9977866E+02  0.7546771E-02  0.1282997E+00
          2   -1    0    0  502    0  0.00000000000E+00  0.00000000000E+00  0.53487430572E+03  0.53487430572E+03  0.00000000000E+00 0. -1.
         -2   -1    0    0    0  501 -0.00000000000E+00 -0.00000000000E+00 -0.39786905937E+02  0.39786905937E+02  0.00000000000E+00 0.  1.
         23    2    1    2    0    0 -0.20828643524E+02  0.11675566337E+01  0.74658192107E+02  0.12218510218E+03  0.94446587901E+02 0.  0.
         23    2    1    2    0    0  0.53636903887E+02 -0.41685131855E+02  0.25046992448E+03  0.27470036930E+03  0.90058548458E+02 0.  0.
        -11    1    4    4    0    0  0.23941005502E+02  0.26252224724E+02  0.53356940718E+02  0.64103932564E+02  0.00000000000E+00 0.  1.
         11    1    4    4    0    0  0.29695898386E+02 -0.67937356580E+02  0.19711298376E+03  0.21059643674E+03  0.00000000000E+00 0. -1.
        -11    1    3    3    0    0  0.11415779718E+02 -0.34172050850E+02  0.31711574338E+01  0.36167738736E+02  0.00000000000E+00 0. -1.
         11    1    3    3    0    0 -0.32244423242E+02  0.35339607483E+02  0.71487034673E+02  0.86017363443E+02  0.00000000000E+00 0.  1.
         21    1    1    2  502  501 -0.32808260363E+02  0.40517575222E+02  0.16995928320E+03  0.17777574018E+03  0.00000000000E+00 0.  1.
<scales pt_clust_5="13000.00000" pt_clust_6="13000.00000" pt_clust_7="13000.00000" pt_clust_8="13000.00000" pt_clust_9="52.13498"></scales>
<clustering>
<clus scale="   52.135">  1  9  2 -1</clus>
<clus scale="   90.059">  5  6 -1 -1</clus>
<clus scale="   94.447">  7  8 -1 -1</clus>
<clus scale="   95.636">  1  5  2 -1</clus>
<clus scale="   52.135">  1  5  2 -1</clus>
</clustering>
</event>
<event>
 9    1  0.9000149E-006  0.1332377E+03  0.7546771E-02  0.1222852E+00
          2   -1    0    0  502    0  0.00000000000E+00  0.00000000000E+00  0.76934911277E+03  0.76934911277E+03  0.00000000000E+00 0. -1.
         -2   -1    0    0    0  501 -0.00000000000E+00 -0.00000000000E+00 -0.31475065662E+02  0.31475065662E+02  0.00000000000E+00 0.  1.
         23    2    1    2    0    0  0.17426462035E+02 -0.89003494799E+02  0.22107210877E+03  0.25562903199E+03  0.90818616243E+02 0.  0.
         23    2    1    2    0    0  0.24381998428E+01  0.11070473414E+03  0.44594112786E+03  0.46846964193E+03  0.91317210378E+02 0.  0.
        -11    1    4    4    0    0  0.34696105385E+02  0.10022891726E+03  0.37702329705E+03  0.39165829763E+03  0.00000000000E+00 0. -1.
         11    1    4    4    0    0 -0.32257905542E+02  0.10475816884E+02  0.68917830806E+02  0.76811344294E+02  0.00000000000E+00 0.  1.
        -13    1    3    3    0    0 -0.26346934620E+02 -0.85133606399E+01  0.18500134131E+02  0.33300048591E+02  0.00000000000E+00 0.  1.
         13    1    3    3    0    0  0.43773396655E+02 -0.80490134159E+02  0.20257197464E+03  0.22232898340E+03  0.00000000000E+00 0. -1.
         21    1    1    2  502  501 -0.19864661877E+02 -0.21701239346E+02  0.70860810477E+02  0.76725504509E+02  0.00000000000E+00 0.  1.
<scales pt_clust_5="13000.00000" pt_clust_6="13000.00000" pt_clust_7="13000.00000" pt_clust_8="13000.00000" pt_clust_9="29.42021"></scales>
<clustering>
<clus scale="   29.420">  1  9  2 -1</clus>
<clus scale="   90.819">  7  8 -1 -1</clus>
<clus scale="   91.317">  5  6 -1 -1</clus>
<clus scale="  132.896">  2  7  1 -1</clus>
<clus scale="   29.420">  1  5  2 -1</clus>
</clustering>
</event>
<event>
 9    1  0.9000149E-006  0.1256940E+03  0.7546771E-02  0.1234405E+00
         -1   -1    0    0    0  501 -0.00000000000E+00  0.00000000000E+00  0.22572180825E+03  0.22572180825E+03  0.00000000000E+00 0.  1.
          1   -1    0    0  502    0  0.00000000000E+00 -0.00000000000E+00 -0.16834437623E+03  0.16834437623E+03  0.00000000000E+00 0. -1.
         23    2    1    2    0    0 -0.99301426613E+02 -0.41240410544E+02  0.13419660000E+03  0.19431370832E+03  0.90485054017E+02 0.  0.
         23    2    1    2    0    0  0.29255637452E+02  0.38714580597E+02 -0.12676047659E+02  0.10474125429E+03  0.91952906923E+02 0.  0.
        -13    1    3    3    0    0 -0.62851592840E+02 -0.21587073011E+02  0.13755525388E+03  0.15276705245E+03  0.00000000000E+00 0.  1.
         13    1    3    3    0    0 -0.36449833772E+02 -0.19653337533E+02 -0.33586538792E+01  0.41546655871E+02  0.00000000000E+00 0. -1.
        -13    1    4    4    0    0 -0.29287991617E+02  0.80339546575E+01  0.14029989246E+02  0.33454020366E+02  0.00000000000E+00 0.  1.
         13    1    4    4    0    0  0.58543629070E+02  0.30680625939E+02 -0.26706036906E+02  0.71287233920E+02  0.00000000000E+00 0. -1.
         21    1    1    2  502  501  0.70045789160E+02  0.25258299471E+01 -0.64143120325E+02  0.95011221869E+02  0.00000000000E+00 0. -1.
<scales pt_clust_5="13000.00000" pt_clust_6="13000.00000" pt_clust_7="13000.00000" pt_clust_8="13000.00000" pt_clust_9="70.09131"></scales>
<clustering>
<clus scale="   70.091">  2  9  1 -1</clus>
<clus scale="   90.485">  5  6 -1 -1</clus>
<clus scale="   91.953">  7  8 -1 -1</clus>
<clus scale="  124.624">  1  5  2 -1</clus>
<clus scale="   70.091">  2  5  1 -1</clus>
</clustering>
</event>
<event>
 9    1  0.9000149E-006  0.1000251E+03  0.7546771E-02  0.1281793E+00
          1   -1    0    0  502    0  0.00000000000E+00  0.00000000000E+00  0.68031433410E+02  0.68031433410E+02  0.00000000000E+00 0. -1.
         -1   -1    0    0    0  501 -0.00000000000E+00 -0.00000000000E+00 -0.28049643725E+03  0.28049643725E+03  0.00000000000E+00 0.  1.
         23    2    1    2    0    0 -0.56263445498E+02  0.34837888195E+02 -0.12218419221E+03  0.16381941849E+03  0.86767340036E+02 0.  0.
         23    2    1    2    0    0  0.27328048149E+02  0.18552619395E+02 -0.75952135195E+02  0.12231362475E+03  0.90004855738E+02 0.  0.
        -11    1    4    4    0    0 -0.22181803722E+02 -0.22114064520E+02 -0.19312540191E+02  0.36797261781E+02  0.00000000000E+00 0.  1.
         11    1    4    4    0    0  0.49509851871E+02  0.40666683915E+02 -0.56639595004E+02  0.85516362967E+02  0.00000000000E+00 0. -1.
        -13    1    3    3    0    0 -0.76411917116E+02  0.29594070016E+02 -0.70489045967E+02  0.10808929484E+03  0.00000000000E+00 0.  1.
         13    1    3    3    0    0  0.20148471619E+02  0.52438181791E+01 -0.51695146242E+02  0.55730123656E+02  0.00000000000E+00 0. -1.
         21    1    1    2  502  501  0.28935397349E+02 -0.53390507590E+02 -0.14328676441E+02  0.62394827422E+02  0.00000000000E+00 0. -1.
<scales pt_clust_5="13000.00000" pt_clust_6="13000.00000" pt_clust_7="13000.00000" pt_clust_8="13000.00000" pt_clust_9="60.72729"></scales>
<clustering>
<clus scale="   60.727">  1  9  2 -1</clus>
<clus scale="   86.767">  7  8 -1 -1</clus>
<clus scale="   90.005">  5  6 -1 -1</clus>
<clus scale="   97.122">  2  7  1 -1</clus>
<clus scale="   60.727">  1  5  2 -1</clus>
</clustering>
</event>
<event>
 9    1  0.9000149E-006  0.1039937E+03  0.7546771E-02  0.1277627E+00
         -2   -1    0    0    0  501 -0.00000000000E+00  0.00000000000E+00  0.75687573093E+02  0.75687573093E+02  0.00000000000E+00 0.  1.
          2   -1    0    0  502    0  0.00000000000E+00 -0.00000000000E+00 -0.17837286869E+03  0.17837286869E+03  0.00000000000E+00 0. -1.
         23    2    1    2    0    0 -0.29433847049E+02  0.43606775415E+02 -0.46193076672E+01  0.95170759340E+02  0.79172174504E+02 0.  0.
         23    2    1    2    0    0  0.40248785835E+02 -0.24236852481E+02 -0.83803785193E+02  0.13251607362E+03  0.91269083350E+02 0.  0.
        -11    1    4    4    0    0 -0.28621195867E+02 -0.16984121593E+02 -0.30237023013E+02  0.44965662453E+02  0.00000000000E+00 0.  1.
         11    1    4    4    0    0  0.68869981702E+02 -0.72527308877E+01 -0.53566762179E+02  0.87550411166E+02  0.00000000000E+00 0. -1.
        -13    1    3    3    0    0 -0.77213512110E+01  0.35038094815E+02  0.34398006323E+02  0.49704227102E+02  0.00000000000E+00 0.  1.
         13    1    3    3    0    0 -0.21712495838E+02  0.85686806003E+01 -0.39017313990E+02  0.45466532238E+02  0.00000000000E+00 0. -1.
         21    1    1    2  502  501 -0.10814938786E+02 -0.19369922934E+02 -0.14262202735E+02  0.26373608822E+02  0.00000000000E+00 0.  1.
<scales pt_clust_5="13000.00000" pt_clust_6="13000.00000" pt_clust_7="13000.00000" pt_clust_8="13000.00000" pt_clust_9="22.18461"></scales>
<clustering>
<clus scale="   22.185">  2  9  1 -1</clus>
<clus scale="   79.172">  7  8 -1 -1</clus>
<clus scale="   91.269">  5  6 -1 -1</clus>
<clus scale="   93.557">  1  7  2 -1</clus>
<clus scale="   22.185">  2  5  1 -1</clus>
</clustering>
</event>
<event>
 9    1  0.9000149E-006  0.9694531E+02  0.7546771E-02  0.1292419E+00
          1   -1    0    0  502    0  0.00000000000E+00  0.00000000000E+00  0.43059896187E+03  0.43059896187E+03  0.00000000000E+00 0. -1.
         -1   -1    0    0    0  501 -0.00000000000E+00 -0.00000000000E+00 -0.91187369461E+02  0.91187369461E+02  0.00000000000E+00 0.  1.
         23    2    1    2    0    0  0.27702784147E+02 -0.22201928974E+02 -0.53316465761E+02  0.10609845352E+03  0.84580532151E+02 0.  0.
         23    2    1    2    0    0 -0.21254734834E+02  0.27996835970E+00  0.37343024153E+03  0.38577875839E+03  0.94463024540E+02 0.  0.
        -11    1    3    3    0    0  0.40277678961E+02 -0.47885405627E+02 -0.41909029718E+02  0.75310492406E+02  0.00000000000E+00 0.  1.
         11    1    3    3    0    0 -0.12574894814E+02  0.25683476653E+02 -0.11407436042E+02  0.30787961116E+02  0.00000000000E+00 0. -1.
        -13    1    4    4    0    0  0.32674459865E+02  0.20655091676E+02  0.13071286573E+03  0.13630886401E+03  0.00000000000E+00 0.  1.
         13    1    4    4    0    0 -0.53929194699E+02 -0.20375123317E+02  0.24271737579E+03  0.24946989438E+03  0.00000000000E+00 0. -1.
         21    1    1    2  502  501 -0.64480493124E+01  0.21921960614E+02  0.19297816648E+02  0.29909119420E+02  0.00000000000E+00 0.  1.
<scales pt_clust_5="13000.00000" pt_clust_6="13000.00000" pt_clust_7="13000.00000" pt_clust_8="13000.00000" pt_clust_9="22.85060"></scales>
<clustering>
<clus scale="   22.851">  2  9  1 -1</clus>
<clus scale="   84.581">  5  6 -1 -1</clus>
<clus scale="   87.344">  2  5  1 -1</clus>
<clus scale="   94.463">  7  8 -1 -1</clus>
<clus scale="   96.945">  1  5  2 -1</clus>
</clustering>
</event>
<event>
 9    1  0.9000149E-006  0.9501341E+02  0.7546771E-02  0.1292276E+00
         -1   -1    0    0    0  501 -0.00000000000E+00  0.00000000000E+00  0.98621774543E+02  0.98621774543E+02  0.00000000000E+00 0.  1.
          1   -1    0    0  502    0  0.00000000000E+00 -0.00000000000E+00 -0.62145315659E+03  0.62145315659E+03  0.00000000000E+00 0. -1.
         23    2    1    2    0    0 -0.17190158203E+02 -0.99501729041E+01  0.53419615401E+02  0.10928935442E+03  0.93252346893E+02 0.  0.
         23    2    1    2    0    0  0.25826578595E+02 -0.66271998380E+02 -0.24744589792E+03  0.27315086193E+03  0.91230099424E+02 0.  0.
        -13    1    4    4    0    0  0.40535534899E+02 -0.80624575739E+02 -0.16375543778E+03  0.18697404955E+03  0.00000000000E+00 0.  1.
         13    1    4    4    0    0 -0.14708956304E+02  0.14352577359E+02 -0.83690460138E+02  0.86176812371E+02  0.00000000000E+00 0. -1.
        -13    1    3    3    0    0 -0.54645848243E+02 -0.17001272524E+02  0.32320063613E+02  0.65725174094E+02  0.00000000000E+00 0.  1.
         13    1    3    3    0    0  0.37455690040E+02  0.70510996198E+01  0.21099551787E+02  0.43564180331E+02  0.00000000000E+00 0. -1.
         21    1    1    2  502  501 -0.86364203920E+01  0.76222171284E+02 -0.32880509953E+03  0.33763471478E+03  0.00000000000E+00 0. -1.
<scales pt_clust_5="13000.00000" pt_clust_6="13000.00000" pt_clust_7="13000.00000" pt_clust_8="13000.00000" pt_clust_9="76.70989"></scales>
<clustering>
<clus scale="   76.710">  2  9  1 -1</clus>
<clus scale="   91.230">  5  6 -1 -1</clus>
<clus scale="   93.029">  2  5  1 -1</clus>
<clus scale="   93.252">  7  8 -1 -1</clus>
<clus scale="   76.710">  2  5  1 -1</clus>
</clustering>
</event>
<event>
 9    1  0.9000149E-006  0.1237658E+03  0.7546771E-02  0.1253524E+00
         -1   -1    0    0    0  501 -0.00000000000E+00  0.00000000000E+00  0.61736604582E+02  0.61736604582E+02  0.00000000000E+00 0.  1.
          1   -1    0    0  502    0  0.00000000000E+00 -0.00000000000E+00 -0.31432215032E+03  0.31432215032E+03  0.00000000000E+00 0. -1.
         23    2    1    2    0    0 -0.18306964923E+02 -0.70158480786E+01 -0.65744646134E+02  0.14126439867E+03  0.12348645572E+03 0.  0.
         23    2    1    2    0    0 -0.28170999708E+01  0.32001293744E+01 -0.61784615697E+02  0.10790913262E+03  0.88367784208E+02 0.  0.
        -11    1    3    3    0    0 -0.25597855688E+02  0.28386859083E+02  0.23574279540E+02  0.44908914931E+02  0.00000000000E+00 0.  1.
         11    1    3    3    0    0  0.72908907648E+01 -0.35402707162E+02 -0.89318925674E+02  0.96355483736E+02  0.00000000000E+00 0. -1.
        -11    1    4    4    0    0 -0.37346264916E+02 -0.16467191482E+02 -0.89268350276E+01  0.41780381545E+02  0.00000000000E+00 0.  1.
         11    1    4    4    0    0  0.34529164945E+02  0.19667320856E+02 -0.52857780670E+02  0.66128751075E+02  0.00000000000E+00 0. -1.
         21    1    1    2  502  501  0.21124064894E+02  0.38157187042E+01 -0.12505628391E+03  0.12688522361E+03  0.00000000000E+00 0.  1.
<scales pt_clust_5="13000.00000" pt_clust_6="13000.00000" pt_clust_7="13000.00000" pt_clust_8="13000.00000" pt_clust_9="21.46592"></scales>
<clustering>
<clus scale="   21.466">  2  9  1 -1</clus>
<clus scale="   88.368">  7  8 -1 -1</clus>
<clus scale="   88.758">  2  7  1 -1</clus>
<clus scale="  123.486">  5  6 -1 -1</clus>
<clus scale="   21.466">  2  5  1 -1</clus>
</clustering>
</event>
<event>
 9    1  0.9000149E-006  0.9451700E+02  0.7546771E-02  0.1293433E+00
         -4   -1    0    0    0  501 -0.00000000000E+00  0.00000000000E+00  0.35997909621E+02  0.35997909621E+02  0.00000000000E+00 0.  1.
          4   -1    0    0  502    0  0.00000000000E+00 -0.00000000000E+00 -0.58925387960E+03  0.58925387960E+03  0.00000000000E+00 0. -1.
         23    2    1    2    0    0 -0.23958029632E+02  0.20565630740E+02 -0.81953621313E+02  0.12593542495E+03  0.90257425511E+02 0.  0.
         23    2    1    2    0    0  0.11211495611E+02  0.19255888713E+02 -0.16674841854E+03  0.19190568798E+03  0.92337809752E+02 0.  0.
        -11    1    4    4    0    0  0.46998264708E+02  0.32097304474E+02 -0.10312761807E+03  0.11778955577E+03  0.00000000000E+00 0.  1.
         11    1    4    4    0    0 -0.35786769097E+02 -0.12841415761E+02 -0.63620800475E+02  0.74116132213E+02  0.00000000000E+00 0. -1.
        -13    1    3    3    0    0  0.76317889523E+01  0.44556601109E+02 -0.72039065840E+02  0.85047997696E+02  0.00000000000E+00 0.  1.
         13    1    3    3    0    0 -0.31589818585E+02 -0.23990970369E+02 -0.99145554733E+01  0.40887427257E+02  0.00000000000E+00 0. -1.
         21    1    1    2  502  501  0.12746534022E+02 -0.39821519453E+02 -0.30455393012E+03  0.30741067629E+03  0.00000000000E+00 0. -1.
<scales pt_clust_5="13000.00000" pt_clust_6="13000.00000" pt_clust_7="13000.00000" pt_clust_8="13000.00000" pt_clust_9="41.81181"></scales>
<clustering>
<clus scale="   41.812">  2  9  1 -1</clus>
<clus scale="   90.257">  7  8 -1 -1</clus>
<clus scale="   92.338">  5  6 -1 -1</clus>
<clus scale="   92.486">  1  7  2 -1</clus>
<clus scale="   41.812">  2  5  1 -1</clus>
</clustering>
</event>
<event>
 9    1  0.9000149E-006  0.1008217E+03  0.7546771E-02  0.1278676E+00
         -1   -1    0    0    0  501 -0.00000000000E+00  0.00000000000E+00  0.66029453670E+03  0.66029453670E+03  0.00000000000E+00 0.  1.
          1   -1    0    0  502    0  0.00000000000E+00 -0.00000000000E+00 -0.23815368792E+02  0.23815368792E+02  0.00000000000E+00 0. -1.
         23    2    1    2    0    0 -0.31972969464E+02  0.24349703283E+02  0.34582901580E+03  0.35976875174E+03  0.90667898053E+02 0.  0.
         23    2    1    2    0    0  0.53505802952E+02 -0.56135165725E+01  0.26792799741E+03  0.28785822727E+03  0.90457529772E+02 0.  0.
        -11    1    3    3    0    0 -0.65845098718E+01 -0.26148621565E+02  0.36847361821E+02  0.45659985251E+02  0.00000000000E+00 0. -1.
         11    1    3    3    0    0 -0.25388459593E+02  0.50498324848E+02  0.30898165398E+03  0.31410876649E+03  0.00000000000E+00 0.  1.
        -13    1    4    4    0    0  0.59036728125E+02  0.26669479251E+02  0.12022622007E+03  0.13656844578E+03  0.00000000000E+00 0.  1.
         13    1    4    4    0    0 -0.55309251727E+01 -0.32282995824E+02  0.14770177734E+03  0.15128978149E+03  0.00000000000E+00 0. -1.
         21    1    1    2  502  501 -0.21532833488E+02 -0.18736186710E+02  0.22722154710E+02  0.36482926488E+02  0.00000000000E+00 0. -1.
<scales pt_clust_5="13000.00000" pt_clust_6="13000.00000" pt_clust_7="13000.00000" pt_clust_8="13000.00000" pt_clust_9="28.54308"></scales>
<clustering>
<clus scale="   28.543">  2  9  1 -1</clus>
<clus scale="   90.458">  7  8 -1 -1</clus>
<clus scale="   90.668">  5  6 -1 -1</clus>
<clus scale="  100.633">  2  7  1 -1</clus>
<clus scale="   28.543">  2  5  1 -1</clus>
</clustering>
</event>
<event>
 9    1  0.9000149E-006  0.1438843E+03  0.7546771E-02  0.1210136E+00
          1   -1    0    0  502    0  0.00000000000E+00  0.00000000000E+00  0.56569606941E+03  0.56569606941E+03  0.00000000000E+00 0. -1.
         -1   -1    0    0    0  501 -0.00000000000E+00 -0.00000000000E+00 -0.33641543043E+03  0.33641543043E+03  0.00000000000E+00 0.  1.
         23    2    1    2    0    0  0.26037841206E+02  0.10481530984E+03 -0.20810370029E+03  0.24820902117E+03  0.81463794213E+02 0.  0.
         23    2    1    2    0    0  0.56816457379E+02 -0.13347985786E+03 -0.33858377363E+02  0.17457358418E+03  0.91019581918E+02 0.  0.
        -13    1    3    3    0    0 -0.11868119457E+02  0.64234456381E+02 -0.16640028112E+03  0.17876233161E+03  0.00000000000E+00 0.  1.
         13    1    3    3    0    0  0.37905960663E+02  0.40580853457E+02 -0.41703419168E+02  0.69446689564E+02  0.00000000000E+00 0. -1.
        -13    1    4    4    0    0 -0.23944531822E+02 -0.33578162735E+02 -0.18484476221E+02  0.45194131013E+02  0.00000000000E+00 0.  1.
         13    1    4    4    0    0  0.80760989201E+02 -0.99901695128E+02 -0.15373901142E+02  0.12937945317E+03  0.00000000000E+00 0. -1.
         21    1    1    2  502  501 -0.82854298585E+02  0.28664548025E+02  0.47124271663E+03  0.47932889448E+03  0.00000000000E+00 0. -1.
<scales pt_clust_5="13000.00000" pt_clust_6="13000.00000" pt_clust_7="13000.00000" pt_clust_8="13000.00000" pt_clust_9="87.67264"></scales>
<clustering>
<clus scale="   81.464">  5  6 -1 -1</clus>
<clus scale="   87.673">  1  9  2 -1</clus>
<clus scale="   91.020">  7  8 -1 -1</clus>
<clus scale="  138.038">  2  5  1 -1</clus>
<clus scale="   87.673">  1  5  2 -1</clus>
</clustering>
</event>
<event>
 9    1  0.9000149E-006  0.1000777E+03  0.7546771E-02  0.1280876E+00
         -2   -1    0    0    0  501 -0.00000000000E+00  0.00000000000E+00  0.13179860284E+03  0.13179860284E+03  0.00000000000E+00 0.  1.
          2   -1    0    0  502    0  0.00000000000E+00 -0.00000000000E+00 -0.34500062479E+03  0.34500062479E+03  0.00000000000E+00 0. -1.
         23    2    1    2    0    0  0.28354552554E+02  0.23349777641E+02  0.83982118180E+02  0.12921444855E+03  0.91072414996E+02 0.  0.
         23    2    1    2    0    0 -0.55066539358E+02  0.53511500852E+00 -0.99404125257E+02  0.14658489695E+03  0.92592341961E+02 0.  0.
        -11    1    4    4    0    0 -0.58475497111E+02  0.29044840103E+02 -0.30753773085E+02  0.72171885509E+02  0.00000000000E+00 0.  1.
         11    1    4    4    0    0  0.34089577528E+01 -0.28509725095E+02 -0.68650352172E+02  0.74413011438E+02  0.00000000000E+00 0. -1.
        -13    1    3    3    0    0 -0.26719701258E+01  0.32834595046E+02  0.90335040333E+02  0.96154404830E+02  0.00000000000E+00 0.  1.
         13    1    3    3    0    0  0.31026522680E+02 -0.94848174043E+01 -0.63529221530E+01  0.33060043719E+02  0.00000000000E+00 0. -1.
         21    1    1    2  502  501  0.26711986804E+02 -0.23884892650E+02 -0.19778001488E+03  0.20099988214E+03  0.00000000000E+00 0. -1.
<scales pt_clust_5="13000.00000" pt_clust_6="13000.00000" pt_clust_7="13000.00000" pt_clust_8="13000.00000" pt_clust_9="35.83320"></scales>
<clustering>
<clus scale="   35.833">  2  9  1 -1</clus>
<clus scale="   91.072">  7  8 -1 -1</clus>
<clus scale="   92.592">  5  6 -1 -1</clus>
<clus scale="   98.673">  1  7  2 -1</clus>
<clus scale="   35.833">  2  5  1 -1</clus>
</clustering>
</event>
<event>
 9    1  0.9000149E-006  0.1031898E+03  0.7546771E-02  0.1275961E+00
          1   -1    0    0  502    0  0.00000000000E+00  0.00000000000E+00  0.74706840729E+02  0.74706840729E+02  0.00000000000E+00 0. -1.
         -1   -1    0    0    0  501 -0.00000000000E+00 -0.00000000000E+00 -0.21320360721E+03  0.21320360721E+03  0.00000000000E+00 0.  1.
         23    2    1    2    0    0  0.20773026028E+02 -0.24539050877E+02 -0.11144987110E+03  0.14752001588E+03  0.91144926844E+02 0.  0.
         23    2    1    2    0    0 -0.20277718514E+02  0.51578434506E+02 -0.22716052555E+02  0.11300193454E+03  0.95822217631E+02 0.  0.
        -11    1    3    3    0    0  0.41300616929E+02  0.17476923948E+02 -0.78182492314E+02  0.90131492464E+02  0.00000000000E+00 0.  1.
         11    1    3    3    0    0 -0.20527590902E+02 -0.42015974825E+02 -0.33267378783E+02  0.57388523415E+02  0.00000000000E+00 0. -1.
        -11    1    4    4    0    0 -0.25524585888E+02 -0.20441927494E+02 -0.24351471508E+02  0.40772184747E+02  0.00000000000E+00 0. -1.
         11    1    4    4    0    0  0.52468673742E+01  0.72020362001E+02  0.16354189531E+01  0.72229749793E+02  0.00000000000E+00 0.  1.
         21    1    1    2  502  501 -0.49530751408E+00 -0.27039383630E+02 -0.43308428250E+01  0.27388497516E+02  0.00000000000E+00 0.  1.
<scales pt_clust_5="13000.00000" pt_clust_6="13000.00000" pt_clust_7="13000.00000" pt_clust_8="13000.00000" pt_clust_9="27.04392"></scales>
<clustering>
<clus scale="   27.044">  1  9  2 -1</clus>
<clus scale="   91.145">  5  6 -1 -1</clus>
<clus scale="   95.822">  7  8 -1 -1</clus>
<clus scale="   98.862">  2  5  1 -1</clus>
<clus scale="   27.044">  1  5  2 -1</clus>
</clustering>
</event>
<event>
 9    1  0.9000149E-006  0.1091173E+03  0.7546771E-02  0.1263590E+00
          2   -1    0    0  502    0  0.00000000000E+00  0.00000000000E+00  0.17265968160E+03  0.17265968160E+03  0.00000000000E+00 0. -1.
         -2   -1    0    0    0  501 -0.00000000000E+00 -0.00000000000E+00 -0.11892821693E+03  0.11892821693E+03  0.00000000000E+00 0.  1.
         23    2    1    2    0    0 -0.41843244000E+02  0.48700895639E+02 -0.18898420048E+02  0.11534635497E+03  0.93941455283E+02 0.  0.
         23    2    1    2    0    0  0.58230741164E+02 -0.13609458684E+01  0.64434462449E+02  0.12547949224E+03  0.90557338920E+02 0.  0.
        -11    1    3    3    0    0  0.23163166051E+02  0.20190026788E+02  0.17723362881E+02  0.35472341831E+02  0.00000000000E+00 0. -1.
         11    1    3    3    0    0 -0.65006410051E+02  0.28510868852E+02 -0.36621782930E+02  0.79874013142E+02  0.00000000000E+00 0.  1.
        -13    1    4    4    0    0 -0.23630698890E+02  0.64418554626E+01  0.80855588829E+01  0.25793093926E+02  0.00000000000E+00 0.  1.
         13    1    4    4    0    0  0.81861440054E+02 -0.78028013310E+01  0.56348903566E+02  0.99686398317E+02  0.00000000000E+00 0. -1.
         21    1    1    2  502  501 -0.16387497163E+02 -0.47339949771E+02  0.81954222654E+01  0.50762051315E+02  0.00000000000E+00 0.  1.
<scales pt_clust_5="13000.00000" pt_clust_6="13000.00000" pt_clust_7="13000.00000" pt_clust_8="13000.00000" pt_clust_9="50.09612"></scales>
<clustering>
<clus scale="   50.096">  2  9  1 -1</clus>
<clus scale="   90.557">  7  8 -1 -1</clus>
<clus scale="   93.941">  5  6 -1 -1</clus>
<clus scale="  106.218">  1  7  2 -1</clus>
<clus scale="  106.218">  1  5  2 -1</clus>
</clustering>
</event>
<event>
 9    1  0.9000149E-006  0.1866942E+03  0.7546771E-02  0.1162357E+00
          2   -1    0    0  502    0  0.00000000000E+00  0.00000000000E+00  0.80125149488E+03  0.80125149488E+03  0.00000000000E+00 0. -1.
         -2   -1    0    0    0  501 -0.00000000000E+00 -0.00000000000E+00 -0.69352308781E+02  0.69352308781E+02  0.00000000000E+00 0.  1.
         23    2    1    2    0    0  0.27624299998E+02  0.11250329749E+03  0.11874377683E+03  0.18866770721E+03  0.89862813841E+02 0.  0.
         23    2    1    2    0    0 -0.79693777410E+02 -0.17679122566E+03  0.49317552648E+03  0.53619886558E+03  0.81736698648E+02 0.  0.
        -11    1    4    4    0    0 -0.37091633560E+02 -0.82989888147E+02  0.33745432792E+03  0.34948323887E+03  0.00000000000E+00 0. -1.
         11    1    4    4    0    0 -0.42602143850E+02 -0.93801337518E+02  0.15572119856E+03  0.18671562672E+03  0.00000000000E+00 0.  1.
        -11    1    3    3    0    0 -0.25025204442E+02  0.75815265547E+02  0.83199236107E+02  0.11530970573E+03  0.00000000000E+00 0. -1.
         11    1    3    3    0    0  0.52649504440E+02  0.36688031944E+02  0.35544540728E+02  0.73358001481E+02  0.00000000000E+00 0.  1.
         21    1    1    2  502  501  0.52069477412E+02  0.64287928174E+02  0.11997988278E+03  0.14573723086E+03  0.00000000000E+00 0. -1.
<scales pt_clust_5="13000.00000" pt_clust_6="13000.00000" pt_clust_7="13000.00000" pt_clust_8="13000.00000" pt_clust_9="82.72949"></scales>
<clustering>
<clus scale="   81.737">  5  6 -1 -1</clus>
<clus scale="   82.729">  2  9  1 -1</clus>
<clus scale="   89.863">  7  8 -1 -1</clus>
<clus scale="  182.921">  1  5  2 -1</clus>
<clus scale="  182.921">  1  5  2 -1</clus>
</clustering>
</event>
<event>
 9    1  0.9000149E-006  0.1144290E+03  0.7546771E-02  0.1252999E+00
         -1   -1    0    0    0  501 -0.00000000000E+00  0.00000000000E+00  0.40635933181E+03  0.40635933181E+03  0.00000000000E+00 0.  1.
          1   -1    0    0  502    0  0.00000000000E+00 -0.00000000000E+00 -0.10679008284E+03  0.10679008284E+03  0.00000000000E+00 0. -1.
         23    2    1    2    0    0  0.10494505236E+02 -0.59884259953E+02  0.30549141638E+03  0.32526045699E+03  0.93664828885E+02 0.  0.
         23    2    1    2    0    0 -0.21942331893E+02  0.10325875299E+03 -0.17797113111E+02  0.14148406872E+03  0.92504964559E+02 0.  0.
        -11    1    4    4    0    0 -0.48583806646E+02  0.19306955437E+02 -0.61723389267E+01  0.52642592682E+02  0.00000000000E+00 0.  1.
         11    1    4    4    0    0  0.26641474753E+02  0.83951797556E+02 -0.11624774185E+02  0.88841476038E+02  0.00000000000E+00 0. -1.
        -13    1    3    3    0    0  0.21272103353E+02  0.18970460759E+02  0.12140987553E+03  0.12471061959E+03  0.00000000000E+00 0. -1.
         13    1    3    3    0    0 -0.10777598117E+02 -0.78854720712E+02  0.18408154085E+03  0.20054983740E+03  0.00000000000E+00 0.  1.
         21    1    1    2  502  501  0.11447826657E+02 -0.43374493040E+02  0.11874945697E+02  0.46404888934E+02  0.00000000000E+00 0. -1.
<scales pt_clust_5="13000.00000" pt_clust_6="13000.00000" pt_clust_7="13000.00000" pt_clust_8="13000.00000" pt_clust_9="44.85977"></scales>
<clustering>
<clus scale="   44.860">  2  9  1 -1</clus>
<clus scale="   92.505">  5  6 -1 -1</clus>
<clus scale="   93.665">  7  8 -1 -1</clus>
<clus scale="  113.482">  2  5  1 -1</clus>
<clus scale="   44.860">  2  5  1 -1</clus>
</clustering>
</event>
<event>
 9    1  0.9000149E-006  0.1486852E+03  0.7546771E-02  0.1202864E+00
          1   -1    0    0  502    0  0.00000000000E+00  0.00000000000E+00  0.21905361100E+03  0.21905361100E+03  0.00000000000E+00 0. -1.
         -1   -1    0    0    0  501 -0.00000000000E+00 -0.00000000000E+00 -0.19557713015E+03  0.19557713015E+03  0.00000000000E+00 0.  1.
         23    2    1    2    0    0  0.99521378457E+02  0.47344481023E+02 -0.81992753043E+02  0.16571433193E+03  0.92695326760E+02 0.  0.
         23    2    1    2    0    0 -0.11704160601E+03 -0.29088282234E+02  0.15242371002E+02  0.15520870433E+03  0.96501535349E+02 0.  0.
        -11    1    3    3    0    0 -0.64258118323E+01  0.23546535747E+02  0.69200617008E+01  0.25369620756E+02  0.00000000000E+00 0. -1.
         11    1    3    3    0    0  0.10594719029E+03  0.23797945276E+02 -0.88912814744E+02  0.14034471118E+03  0.00000000000E+00 0.  1.
        -13    1    4    4    0    0 -0.14318400708E+02  0.22945332409E+02  0.28508616036E+02  0.39296896398E+02  0.00000000000E+00 0.  1.
         13    1    4    4    0    0 -0.10272320530E+03 -0.52033614643E+02 -0.13266245034E+02  0.11591180793E+03  0.00000000000E+00 0. -1.
         21    1    1    2  502  501  0.17520227555E+02 -0.18256198789E+02  0.90226862894E+02  0.93707704889E+02  0.00000000000E+00 0.  1.
<scales pt_clust_5="13000.00000" pt_clust_6="13000.00000" pt_clust_7="13000.00000" pt_clust_8="13000.00000" pt_clust_9="25.30311"></scales>
<clustering>
<clus scale="   25.303">  1  9  2 -1</clus>
<clus scale="   92.695">  5  6 -1 -1</clus>
<clus scale="   96.502">  7  8 -1 -1</clus>
<clus scale="  146.243">  2  5  1 -1</clus>
<clus scale="   25.303">  1  5  2 -1</clus>
</clustering>
</event>
<event>
 9    1  0.9000149E-006  0.1325965E+03  0.7546771E-02  0.1239081E+00
         -1   -1    0    0    0  501 -0.00000000000E+00  0.00000000000E+00  0.61343262369E+03  0.61343262369E+03  0.00000000000E+00 0.  1.
          1   -1    0    0  502    0  0.00000000000E+00 -0.00000000000E+00 -0.29209605815E+02  0.29209605815E+02  0.00000000000E+00 0. -1.
         23    2    1    2    0    0 -0.83758296474E+01  0.25289256825E+02  0.33152655437E+03  0.35579670831E+03  0.12637935098E+03 0.  0.
         23    2    1    2    0    0  0.18698235391E+02 -0.48460849604E+02  0.23424322210E+03  0.25547679648E+03  0.87752085380E+02 0.  0.
        -11    1    3    3    0    0  0.38695923017E+02 -0.13363132368E+02  0.37466006731E+02  0.55494589152E+02  0.00000000000E+00 0. -1.
         11    1    3    3    0    0 -0.47071752665E+02  0.38652389193E+02  0.29406054764E+03  0.30030211915E+03  0.00000000000E+00 0.  1.
        -11    1    4    4    0    0 -0.94764919179E+01 -0.64265086571E+02  0.11654972157E+03  0.13343029210E+03  0.00000000000E+00 0. -1.
         11    1    4    4    0    0  0.28174727308E+02  0.15804236967E+02  0.11769350053E+03  0.12204650438E+03  0.00000000000E+00 0.  1.
         21    1    1    2  502  501 -0.10322405743E+02  0.23171592779E+02  0.18453241401E+02  0.31368724718E+02  0.00000000000E+00 0.  1.
<scales pt_clust_5="13000.00000" pt_clust_6="13000.00000" pt_clust_7="13000.00000" pt_clust_8="13000.00000" pt_clust_9="25.36680"></scales>
<clustering>
<clus scale="   25.367">  2  9  1 -1</clus>
<clus scale="   87.752">  7  8 -1 -1</clus>
<clus scale="   96.491">  2  7  1 -1</clus>
<clus scale="  126.379">  5  6 -1 -1</clus>
<clus scale="   25.367">  2  5  1 -1</clus>
</clustering>
</event>
<event>
 9    1  0.9047257E-006  0.1026775E+03  0.7546771E-02  0.1276035E+00
          2   -1    0    0  502    0  0.00000000000E+00  0.00000000000E+00  0.67104357584E+03  0.67104357584E+03  0.00000000000E+00 0. -1.
         -2   -1    0    0    0  501 -0.00000000000E+00 -0.00000000000E+00 -0.50070513007E+02  0.50070513007E+02  0.00000000000E+00 0.  1.
         23    2    1    2    0    0 -0.37366686100E+02  0.32364739649E+02  0.22742579842E+02  0.10623530514E+03  0.91241270917E+02 0.  0.
         23    2    1    2    0    0  0.12809469555E+00 -0.42067391743E+02  0.49746203140E+03  0.50701250082E+03  0.88450672386E+02 0.  0.
        -11    1    4    4    0    0  0.29823030648E+02 -0.57280961697E+02  0.32777647361E+03  0.33407774302E+03  0.00000000000E+00 0.  1.
         11    1    4    4    0    0 -0.29694935952E+02  0.15213569955E+02  0.16968555779E+03  0.17293475780E+03  0.00000000000E+00 0. -1.
        -11    1    3    3    0    0  0.11384122022E+02 -0.25422264286E+02  0.24915641821E+01  0.27966008791E+02  0.00000000000E+00 0.  1.
         11    1    3    3    0    0 -0.48750808122E+02  0.57787003935E+02  0.20251015660E+02  0.78269296353E+02  0.00000000000E+00 0. -1.
         21    1    1    2  502  501  0.37238591404E+02  0.97026520933E+01  0.10076845159E+03  0.10786628288E+03  0.00000000000E+00 0.  1.
<scales pt_clust_5="13000.00000" pt_clust_6="13000.00000" pt_clust_7="13000.00000" pt_clust_8="13000.00000" pt_clust_9="38.48187"></scales>
<clustering>
<clus scale="   38.482">  1  9  2 -1</clus>
<clus scale="   88.451">  5  6 -1 -1</clus>
<clus scale="   91.241">  7  8 -1 -1</clus>
<clus scale="  100.206">  1  5  2 -1</clus>
<clus scale="   38.482">  1  5  2 -1</clus>
</clustering>
</event>
<event>
 9    1  0.9000149E-006  0.1897889E+03  0.7546771E-02  0.1159059E+00
         -2   -1    0    0    0  501 -0.00000000000E+00  0.00000000000E+00  0.10736770290E+03  0.10736770290E+03  0.00000000000E+00 0.  1.
          2   -1    0    0  502    0  0.00000000000E+00 -0.00000000000E+00 -0.39557254261E+03  0.39557254261E+03  0.00000000000E+00 0. -1.
         23    2    1    2    0    0  0.16144264495E+03  0.54133330263E+02 -0.92242105212E+02  0.21360960479E+03  0.90146060539E+02 0.  0.
         23    2    1    2    0    0 -0.15558972627E+03 -0.32368969088E+02 -0.14882989295E+03  0.23708651352E+03  0.93828379389E+02 0.  0.
        -11    1    4    4    0    0 -0.50096178757E+02  0.24380323765E+02 -0.84230963456E+02  0.10098951687E+03  0.00000000000E+00 0.  1.
         11    1    4    4    0    0 -0.10549354751E+03 -0.56749292853E+02 -0.64598929491E+02  0.13609699665E+03  0.00000000000E+00 0. -1.
        -13    1    3    3    0    0  0.56484992062E+02 -0.20712830408E+01  0.91110322776E+01  0.57252558465E+02  0.00000000000E+00 0.  1.
         13    1    3    3    0    0  0.10495765289E+03  0.56204613304E+02 -0.10135313749E+03  0.15635704633E+03  0.00000000000E+00 0. -1.
         21    1    1    2  502  501 -0.58529186792E+01 -0.21764361175E+02 -0.47132841550E+02  0.52244127201E+02  0.00000000000E+00 0. -1.
<scales pt_clust_5="13000.00000" pt_clust_6="13000.00000" pt_clust_7="13000.00000" pt_clust_8="13000.00000" pt_clust_9="22.53761"></scales>
<clustering>
<clus scale="   22.538">  2  9  1 -1</clus>
<clus scale="   90.146">  7  8 -1 -1</clus>
<clus scale="   93.828">  5  6 -1 -1</clus>
<clus scale="  187.996">  1  7  2 -1</clus>
<clus scale="   22.538">  2  5  1 -1</clus>
</clustering>
</event>
<event>
 9    1  0.9000149E-006  0.1088760E+03  0.7546771E-02  0.1264307E+00
          3   -1    0    0  502    0  0.00000000000E+00  0.00000000000E+00  0.44926936768E+03  0.44926936768E+03  0.00000000000E+00 0. -1.
         -3   -1    0    0    0  501 -0.00000000000E+00 -0.00000000000E+00 -0.66598862821E+02  0.66598862821E+02  0.00000000000E+00 0.  1.
         23    2    1    2    0    0 -0.80308093749E+01  0.61011949410E+02 -0.93914421435E+00  0.10863853162E+03  0.89523721384E+02 0.  0.
         23    2    1    2    0    0  0.17019417800E+02 -0.25120195823E+02  0.25176528914E+03  0.27029194550E+03  0.93548330623E+02 0.  0.
        -13    1    3    3    0    0 -0.37604844878E+02  0.66415036346E+02 -0.10613676973E+02  0.77056677518E+02  0.00000000000E+00 0.  1.
         13    1    3    3    0    0  0.29574035504E+02 -0.54030869358E+01  0.96745327583E+01  0.31581854102E+02  0.00000000000E+00 0. -1.
        -13    1    4    4    0    0  0.20567350356E+02 -0.51781510545E+02  0.22697556254E+03  0.23371402766E+03  0.00000000000E+00 0. -1.
         13    1    4    4    0    0 -0.35479325557E+01  0.26661314721E+02  0.24789726600E+02  0.36577917833E+02  0.00000000000E+00 0.  1.
         21    1    1    2  502  501 -0.89886084254E+01 -0.35891753587E+02  0.13184435993E+03  0.13693775339E+03  0.00000000000E+00 0. -1.
<scales pt_clust_5="13000.00000" pt_clust_6="13000.00000" pt_clust_7="13000.00000" pt_clust_8="13000.00000" pt_clust_9="37.00018"></scales>
<clustering>
<clus scale="   37.000">  1  9  2 -1</clus>
<clus scale="   89.524">  5  6 -1 -1</clus>
<clus scale="   93.548">  7  8 -1 -1</clus>
<clus scale="  105.438">  2  5  1 -1</clus>
<clus scale="   37.000">  1  5  2 -1</clus>
</clustering>
</event>
<event>
 9    1  0.9000149E-006  0.1707554E+03  0.7546771E-02  0.1177975E+00
         -2   -1    0    0    0  501 -0.00000000000E+00  0.00000000000E+00  0.17792471187E+03  0.17792471187E+03  0.00000000000E+00 0.  1.
          2   -1    0    0  502    0  0.00000000000E+00 -0.00000000000E+00 -0.19584485858E+03  0.19584485858E+03  0.00000000000E+00 0. -1.
         23    2    1    2    0    0 -0.13957120548E+03 -0.31974237621E+02  0.20078476949E+02  0.17035797314E+03  0.90090068856E+02 0.  0.
         23    2    1    2    0    0  0.14783632077E+03  0.11153813147E+02 -0.14072784146E+02  0.17063587455E+03  0.83298098071E+02 0.  0.
        -11    1    4    4    0    0  0.22835371510E+02  0.41338022813E+01  0.29981275448E+02  0.37913314162E+02  0.00000000000E+00 0.  1.
         11    1    4    4    0    0  0.12500094926E+03  0.70200108660E+01 -0.44054059593E+02  0.13272256038E+03  0.00000000000E+00 0. -1.
        -13    1    3    3    0    0 -0.12808849862E+02 -0.26013846122E+02 -0.22285721008E+02  0.36571029323E+02  0.00000000000E+00 0. -1.
         13    1    3    3    0    0 -0.12676235561E+03 -0.59603914987E+01  0.42364197957E+02  0.13378694382E+03  0.00000000000E+00 0.  1.
         21    1    1    2  502  501 -0.82651152925E+01  0.20820424474E+02 -0.23925839520E+02  0.32775722765E+02  0.00000000000E+00 0. -1.
<scales pt_clust_5="13000.00000" pt_clust_6="13000.00000" pt_clust_7="13000.00000" pt_clust_8="13000.00000" pt_clust_9="22.40094"></scales>
<clustering>
<clus scale="   22.401">  2  9  1 -1</clus>
<clus scale="   83.298">  5  6 -1 -1</clus>
<clus scale="   90.090">  7  8 -1 -1</clus>
<clus scale="  167.271">  2  5  1 -1</clus>
<clus scale="   22.401">  2  5  1 -1</clus>
</clustering>
</event>
<event>
 9    1  0.9000149E-006  0.9874907E+02  0.7546771E-02  0.1283053E+00
          3   -1    0    0  502    0  0.00000000000E+00  0.00000000000E+00  0.11677670220E+03  0.11677670220E+03  0.00000000000E+00 0. -1.
         -3   -1    0    0    0  501 -0.00000000000E+00 -0.00000000000E+00 -0.18626727094E+03  0.18626727094E+03  0.00000000000E+00 0.  1.
         23    2    1    2    0    0  0.15514818410E+02 -0.55850355762E+02 -0.47402903295E+02  0.11707529698E+03  0.89997878265E+02 0.  0.
         23    2    1    2    0    0 -0.51166485983E+02 -0.12050950972E+02 -0.30612066208E+02  0.10880460249E+03  0.90211463893E+02 0.  0.
        -13    1    3    3    0    0 -0.18856300724E+02 -0.66546435821E+02 -0.20514223019E+02  0.72144449153E+02  0.00000000000E+00 0.  1.
         13    1    3    3    0    0  0.34371119134E+02  0.10696080059E+02 -0.26888680276E+02  0.44930847823E+02  0.00000000000E+00 0. -1.
        -13    1    4    4    0    0  0.23593152688E+02 -0.12071969132E+01  0.66924574834E+01  0.24553679262E+02  0.00000000000E+00 0. -1.
         13    1    4    4    0    0 -0.74759638671E+02 -0.10843754059E+02 -0.37304523691E+02  0.84250923225E+02  0.00000000000E+00 0.  1.
         21    1    1    2  502  501  0.35651667573E+02  0.67901306735E+02  0.85244007655E+01  0.77164073670E+02  0.00000000000E+00 0. -1.
<scales pt_clust_5="13000.00000" pt_clust_6="13000.00000" pt_clust_7="13000.00000" pt_clust_8="13000.00000" pt_clust_9="76.69178"></scales>
<clustering>
<clus scale="   76.692">  1  9  2 -1</clus>
<clus scale="   89.998">  5  6 -1 -1</clus>
<clus scale="   90.211">  7  8 -1 -1</clus>
<clus scale="   98.554">  2  5  1 -1</clus>
<clus scale="   76.692">  1  5  2 -1</clus>
</clustering>
</event>
<event>
 9    1  0.9000149E-006  0.1063619E+03  0.7546771E-02  0.1268391E+00
         -1   -1    0    0    0  501 -0.00000000000E+00  0.00000000000E+00  0.65422698997E+02  0.65422698997E+02  0.00000000000E+00 0.  1.
          1   -1    0    0  502    0  0.00000000000E+00 -0.00000000000E+00 -0.51866797583E+03  0.51866797583E+03  0.00000000000E+00 0. -1.
         23    2    1    2    0    0 -0.19730714860E+02  0.27956956556E+02 -0.49446975670E+02  0.11092279349E+03  0.93209281641E+02 0.  0.
         23    2    1    2    0    0  0.63050678304E+02 -0.41707066250E+02 -0.72510249002E+02  0.13877670583E+03  0.91029503251E+02 0.  0.
        -11    1    3    3    0    0 -0.27339885556E+02  0.55717713613E+02 -0.11219465641E+02  0.63069876817E+02  0.00000000000E+00 0.  1.
         11    1    3    3    0    0  0.76091706962E+01 -0.27760757057E+02 -0.38227510029E+02  0.47852916673E+02  0.00000000000E+00 0. -1.
        -11    1    4    4    0    0  0.80268683398E+02 -0.29817506350E+02 -0.28843153384E+02  0.90355258378E+02  0.00000000000E+00 0.  1.
         11    1    4    4    0    0 -0.17218005095E+02 -0.11889559901E+02 -0.43667095617E+02  0.48421447456E+02  0.00000000000E+00 0. -1.
         21    1    1    2  502  501 -0.43319963444E+02  0.13750109694E+02 -0.33128805216E+03  0.33439117550E+03  0.00000000000E+00 0. -1.
<scales pt_clust_5="13000.00000" pt_clust_6="13000.00000" pt_clust_7="13000.00000" pt_clust_8="13000.00000" pt_clust_9="45.44980"></scales>
<clustering>
<clus scale="   45.450">  2  9  1 -1</clus>
<clus scale="   91.030">  7  8 -1 -1</clus>
<clus scale="   93.209">  5  6 -1 -1</clus>
<clus scale="  104.457">  2  7  1 -1</clus>
<clus scale="   45.450">  2  5  1 -1</clus>
</clustering>
</event>
<event>
 9    1  0.9000149E-006  0.1366895E+03  0.7546771E-02  0.1218282E+00
         -3   -1    0    0    0  501 -0.00000000000E+00  0.00000000000E+00  0.12759653705E+03  0.12759653705E+03  0.00000000000E+00 0.  1.
          3   -1    0    0  502    0  0.00000000000E+00 -0.00000000000E+00 -0.42953275375E+03  0.42953275375E+03  0.00000000000E+00 0. -1.
         23    2    1    2    0    0 -0.10695897098E+03  0.30701009957E+01  0.45266953369E+02  0.14801104865E+03  0.91698017773E+02 0.  0.
         23    2    1    2    0    0  0.80764713785E+02  0.21260848502E+02 -0.10283279731E+03  0.16214655693E+03  0.93498444108E+02 0.  0.
        -11    1    4    4    0    0 -0.15441098836E+02  0.24091655629E+02 -0.17672906001E+02  0.33632826387E+02  0.00000000000E+00 0. -1.
         11    1    4    4    0    0  0.96205812621E+02 -0.28308071278E+01 -0.85159891306E+02  0.12851373054E+03  0.00000000000E+00 0.  1.
        -13    1    3    3    0    0 -0.40898251017E+02 -0.35542838629E+02 -0.80089234572E+01  0.54773197542E+02  0.00000000000E+00 0. -1.
         13    1    3    3    0    0 -0.66060719962E+02  0.38612939625E+02  0.53275876826E+02  0.93237851112E+02  0.00000000000E+00 0.  1.
         21    1    1    2  502  501  0.26194257194E+02 -0.24330949497E+02 -0.24437037276E+03  0.24697168521E+03  0.00000000000E+00 0. -1.
<scales pt_clust_5="13000.00000" pt_clust_6="13000.00000" pt_clust_7="13000.00000" pt_clust_8="13000.00000" pt_clust_9="35.75100"></scales>
<clustering>
<clus scale="   35.751">  2  9  1 -1</clus>
<clus scale="   91.698">  7  8 -1 -1</clus>
<clus scale="   93.498">  5  6 -1 -1</clus>
<clus scale="  135.464">  1  7  2 -1</clus>
<clus scale="   35.751">  2  5  1 -1</clus>
</clustering>
</event>
<event>
 9    1  0.9000149E-006  0.1112947E+03  0.7546771E-02  0.1260137E+00
          2   -1    0    0  502    0  0.00000000000E+00  0.00000000000E+00  0.83669210809E+03  0.83669210809E+03  0.00000000000E+00 0. -1.
         -2   -1    0    0    0  501 -0.00000000000E+00 -0.00000000000E+00 -0.22768115434E+02  0.22768115434E+02  0.00000000000E+00 0.  1.
         23    2    1    2    0    0  0.25202622168E+02  0.62070740290E+02  0.23638125998E+03  0.26151854831E+03  0.89598560693E+02 0.  0.
         23    2    1    2    0    0 -0.43438789350E+02 -0.30543704559E+02  0.32095257129E+03  0.33877952000E+03  0.94557727561E+02 0.  0.
        -13    1    3    3    0    0 -0.23515623587E+02  0.14815436331E+01  0.11488378246E+03  0.11727515934E+03  0.00000000000E+00 0. -1.
         13    1    3    3    0    0  0.48718245755E+02  0.60589196657E+02  0.12149747752E+03  0.14424338898E+03  0.00000000000E+00 0.  1.
        -13    1    4    4    0    0 -0.44355307332E+02 -0.60541334934E+02  0.18684100312E+03  0.20135095473E+03  0.00000000000E+00 0. -1.
         13    1    4    4    0    0  0.91651798210E+00  0.29997630375E+02  0.13411156818E+03  0.13742856527E+03  0.00000000000E+00 0.  1.
         21    1    1    2  502  501  0.18236167183E+02 -0.31527035731E+02  0.25659016138E+03  0.25916215521E+03  0.00000000000E+00 0. -1.
<scales pt_clust_5="13000.00000" pt_clust_6="13000.00000" pt_clust_7="13000.00000" pt_clust_8="13000.00000" pt_clust_9="36.42131"></scales>
<clustering>
<clus scale="   36.421">  1  9  2 -1</clus>
<clus scale="   89.599">  5  6 -1 -1</clus>
<clus scale="   94.558">  7  8 -1 -1</clus>
<clus scale="  107.113">  2  5  1 -1</clus>
<clus scale="   36.421">  1  5  2 -1</clus>
</clustering>
</event>
<event>
 9    1  0.9000149E-006  0.1272547E+03  0.7546771E-02  0.1234698E+00
         -1   -1    0    0    0  501 -0.00000000000E+00  0.00000000000E+00  0.10674870233E+03  0.10674870233E+03  0.00000000000E+00 0.  1.
          1   -1    0    0  502    0  0.00000000000E+00 -0.00000000000E+00 -0.24801000193E+03  0.24801000193E+03  0.00000000000E+00 0. -1.
         23    2    1    2    0    0  0.79834481931E+02  0.10354697074E+02  0.20626624185E+02  0.13021130124E+03  0.10024350897E+03 0.  0.
         23    2    1    2    0    0 -0.75099375882E+02  0.15380713390E+02 -0.91690932981E+02  0.14963178315E+03  0.90033109111E+02 0.  0.
        -11    1    4    4    0    0 -0.31406029981E+02  0.36094904399E+01 -0.98882325400E+02  0.10381272281E+03  0.00000000000E+00 0. -1.
         11    1    4    4    0    0 -0.43693345901E+02  0.11771222951E+02  0.71913924198E+01  0.45819060343E+02  0.00000000000E+00 0.  1.
        -11    1    3    3    0    0  0.57140179896E+02  0.54216630066E+02  0.75822541584E+01  0.79132380935E+02  0.00000000000E+00 0.  1.
         11    1    3    3    0    0  0.22694302035E+02 -0.43861932992E+02  0.13044370027E+02  0.51078920310E+02  0.00000000000E+00 0. -1.
         21    1    1    2  502  501 -0.47351060483E+01 -0.25735410465E+02 -0.70196990801E+02  0.74915619857E+02  0.00000000000E+00 0. -1.
<scales pt_clust_5="13000.00000" pt_clust_6="13000.00000" pt_clust_7="13000.00000" pt_clust_8="13000.00000" pt_clust_9="26.16740"></scales>
<clustering>
<clus scale="   26.167">  2  9  1 -1</clus>
<clus scale="   90.033">  5  6 -1 -1</clus>
<clus scale="  100.244">  7  8 -1 -1</clus>
<clus scale="  119.377">  2  5  1 -1</clus>
<clus scale="   26.167">  2  5  1 -1</clus>
</clustering>
</event>
<event>
 9    1  0.9000149E-006  0.9870778E+02  0.7546771E-02  0.1284471E+00
         -2   -1    0    0    0  501 -0.00000000000E+00  0.00000000000E+00  0.47932709135E+02  0.47932709135E+02  0.00000000000E+00 0.  1.
          2   -1    0    0  502    0  0.00000000000E+00 -0.00000000000E+00 -0.26528551566E+03  0.26528551566E+03  0.00000000000E+00 0. -1.
         23    2    1    2    0    0  0.33428050562E+02 -0.74509876532E+01 -0.75952198426E+02  0.12333089664E+03  0.90933062407E+02 0.  0.
         23    2    1    2    0    0 -0.30268631113E+02  0.31978956958E+02 -0.12883656950E+03  0.16214821722E+03  0.88058724668E+02 0.  0.
        -11    1    3    3    0    0 -0.28910445304E+01  0.38134255397E+02 -0.23278385180E+02  0.44771227253E+02  0.00000000000E+00 0.  1.
         11    1    3    3    0    0  0.36319095093E+02 -0.45585243050E+02 -0.52673813246E+02  0.78559669387E+02  0.00000000000E+00 0. -1.
        -13    1    4    4    0    0 -0.57414235612E+02  0.31597842172E+02 -0.62877864378E+02  0.90820944223E+02  0.00000000000E+00 0.  1.
         13    1    4    4    0    0  0.27145604499E+02  0.38111478570E+00 -0.65958705119E+02  0.71327272996E+02  0.00000000000E+00 0. -1.
         21    1    1    2  502  501 -0.31594194494E+01 -0.24527969305E+02 -0.12564038601E+02  0.27739110934E+02  0.00000000000E+00 0. -1.
<scales pt_clust_5="13000.00000" pt_clust_6="13000.00000" pt_clust_7="13000.00000" pt_clust_8="13000.00000" pt_clust_9="24.73061"></scales>
<clustering>
<clus scale="   24.731">  1  9  2 -1</clus>
<clus scale="   88.059">  7  8 -1 -1</clus>
<clus scale="   90.933">  5  6 -1 -1</clus>
<clus scale="   96.066">  2  7  1 -1</clus>
<clus scale="   96.066">  2  5  1 -1</clus>
</clustering>
</event>
<event>
 9    1  0.9000149E-006  0.9381008E+02  0.7546771E-02  0.1300820E+00
         -2   -1    0    0    0  501 -0.00000000000E+00  0.00000000000E+00  0.10476249598E+03  0.10476249598E+03  0.00000000000E+00 0.  1.
          2   -1    0    0  502    0  0.00000000000E+00 -0.00000000000E+00 -0.12282654629E+03  0.12282654629E+03  0.00000000000E+00 0. -1.
         23    2    1    2    0    0 -0.20954722795E+02  0.29344789190E+02  0.24080349078E+02  0.10090410469E+03  0.91112886418E+02 0.  0.
         23    2    1    2    0    0 -0.11739685330E+02 -0.85988589340E+01 -0.27728909148E+02  0.85367576774E+02  0.79416435170E+02 0.  0.
        -11    1    4    4    0    0 -0.65497858043E+01  0.35162190048E+02 -0.61195976333E+01  0.36286757616E+02  0.00000000000E+00 0.  1.
         11    1    4    4    0    0 -0.51898995259E+01 -0.43761048982E+02 -0.21609311515E+02  0.49080819158E+02  0.00000000000E+00 0. -1.
        -13    1    3    3    0    0 -0.44342839802E+02 -0.65022685672E+01  0.34844965592E+02  0.56769169144E+02  0.00000000000E+00 0.  1.
         13    1    3    3    0    0  0.23388117006E+02  0.35847057757E+02 -0.10764616514E+02  0.44134935546E+02  0.00000000000E+00 0. -1.
         21    1    1    2  502  501  0.32694408125E+02 -0.20745930256E+02 -0.14415490242E+02  0.41317360803E+02  0.00000000000E+00 0. -1.
<scales pt_clust_5="13000.00000" pt_clust_6="13000.00000" pt_clust_7="13000.00000" pt_clust_8="13000.00000" pt_clust_9="38.72103"></scales>
<clustering>
<clus scale="   38.721">  2  9  1 -1</clus>
<clus scale="   79.416">  5  6 -1 -1</clus>
<clus scale="   82.497">  2  5  1 -1</clus>
<clus scale="   91.113">  7  8 -1 -1</clus>
<clus scale="   38.721">  2  5  1 -1</clus>
</clustering>
</event>
<event>
 9    1  0.9000149E-006  0.1078706E+03  0.7546771E-02  0.1265139E+00
         -3   -1    0    0    0  501 -0.00000000000E+00  0.00000000000E+00  0.19525307151E+03  0.19525307151E+03  0.00000000000E+00 0.  1.
          3   -1    0    0  502    0  0.00000000000E+00 -0.00000000000E+00 -0.83624052407E+02  0.83624052407E+02  0.00000000000E+00 0. -1.
         23    2    1    2    0    0 -0.40539250967E+01 -0.68792101370E+02  0.86418032643E+02  0.14407777621E+03  0.92420461545E+02 0.  0.
         23    2    1    2    0    0  0.10100516363E+02  0.35387637835E+02  0.14736852579E+02  0.99272921902E+02  0.91014465096E+02 0.  0.
        -11    1    4    4    0    0 -0.40491453048E+02  0.15751174062E+02  0.18068956601E+01  0.43484734404E+02  0.00000000000E+00 0. -1.
         11    1    4    4    0    0  0.50591969411E+02  0.19636463773E+02  0.12929956919E+02  0.55788187498E+02  0.00000000000E+00 0.  1.
        -11    1    3    3    0    0 -0.40319715375E+02 -0.43971455536E+02  0.79800974692E+02  0.99636157652E+02  0.00000000000E+00 0. -1.
         11    1    3    3    0    0  0.36265790278E+02 -0.24820645834E+02  0.66170579504E+01  0.44441618558E+02  0.00000000000E+00 0.  1.
         21    1    1    2  502  501 -0.60465912665E+01  0.33404463535E+02  0.10474133883E+02  0.35526425807E+02  0.00000000000E+00 0.  1.
<scales pt_clust_5="13000.00000" pt_clust_6="13000.00000" pt_clust_7="13000.00000" pt_clust_8="13000.00000" pt_clust_9="33.94730"></scales>
<clustering>
<clus scale="   33.947">  2  9  1 -1</clus>
<clus scale="   91.014">  5  6 -1 -1</clus>
<clus scale="   92.420">  7  8 -1 -1</clus>
<clus scale="  106.668">  2  5  1 -1</clus>
<clus scale="   33.947">  2  5  1 -1</clus>
</clustering>
</event>
<event>
 9    1  0.9000149E-006  0.1090738E+03  0.7546771E-02  0.1262543E+00
         -1   -1    0    0    0  501 -0.00000000000E+00  0.00000000000E+00  0.78669830155E+02  0.78669830155E+02  0.00000000000E+00 0.  1.
          1   -1    0    0  502    0  0.00000000000E+00 -0.00000000000E+00 -0.40864335926E+03  0.40864335926E+03  0.00000000000E+00 0. -1.
         23    2    1    2    0    0  0.50293968146E+02 -0.40647275102E+02  0.16550622614E+02  0.11385813908E+03  0.92239191894E+02 0.  0.
         23    2    1    2    0    0 -0.16883501926E+02  0.12115701542E+02 -0.22876155534E+03  0.24776360651E+03  0.92860716405E+02 0.  0.
        -13    1    3    3    0    0  0.69312042022E+02 -0.78781446918E+01 -0.55784989453E+01  0.69981025882E+02  0.00000000000E+00 0.  1.
         13    1    3    3    0    0 -0.19018073876E+02 -0.32769130410E+02  0.22129121559E+02  0.43877113200E+02  0.00000000000E+00 0. -1.
        -13    1    4    4    0    0 -0.46550133598E+02  0.73598905656E+01 -0.20233133543E+03  0.20774756851E+03  0.00000000000E+00 0. -1.
         13    1    4    4    0    0  0.29666631672E+02  0.47558109763E+01 -0.26430219910E+02  0.40016038001E+02  0.00000000000E+00 0.  1.
         21    1    1    2  502  501 -0.33410466221E+02  0.28531573560E+02 -0.11776259639E+03  0.12569144382E+03  0.00000000000E+00 0. -1.
<scales pt_clust_5="13000.00000" pt_clust_6="13000.00000" pt_clust_7="13000.00000" pt_clust_8="13000.00000" pt_clust_9="43.93529"></scales>
<clustering>
<clus scale="   43.935">  2  9  1 -1</clus>
<clus scale="   92.239">  5  6 -1 -1</clus>
<clus scale="   92.861">  7  8 -1 -1</clus>
<clus scale="  108.545">  1  5  2 -1</clus>
<clus scale="   43.935">  2  5  1 -1</clus>
</clustering>
</event>
<event>
 9    1  0.9000149E-006  0.1078549E+03  0.7546771E-02  0.1265474E+00
         -1   -1    0    0    0  501 -0.00000000000E+00  0.00000000000E+00  0.79524676388E+02  0.79524676388E+02  0.00000000000E+00 0.  1.
          1   -1    0    0  502    0  0.00000000000E+00 -0.00000000000E+00 -0.21075769524E+03  0.21075769524E+03  0.00000000000E+00 0. -1.
         23    2    1    2    0    0 -0.38900237276E+02 -0.23912844467E+02 -0.87935908429E+01  0.10512066862E+03  0.94276058146E+02 0.  0.
         23    2    1    2    0    0  0.32848971448E+02  0.48350289361E+02 -0.10829803949E+03  0.15628636058E+03  0.96333564975E+02 0.  0.
        -11    1    4    4    0    0  0.12596916049E+02  0.21194675640E+02  0.14702310547E+02  0.28706349557E+02  0.00000000000E+00 0.  1.
         11    1    4    4    0    0  0.20252055400E+02  0.27155613721E+02 -0.12300035004E+03  0.12758001103E+03  0.00000000000E+00 0. -1.
        -13    1    3    3    0    0  0.21988661597E+02 -0.30548342016E+02 -0.20353709197E+02  0.42789904380E+02  0.00000000000E+00 0.  1.
         13    1    3    3    0    0 -0.60888898874E+02  0.66354975491E+01  0.11560118354E+02  0.62330764235E+02  0.00000000000E+00 0. -1.
         21    1    1    2  502  501  0.60512658283E+01 -0.24437444894E+02 -0.14141388518E+02  0.28875342427E+02  0.00000000000E+00 0.  1.
<scales pt_clust_5="13000.00000" pt_clust_6="13000.00000" pt_clust_7="13000.00000" pt_clust_8="13000.00000" pt_clust_9="25.17551"></scales>
<clustering>
<clus scale="   25.176">  2  9  1 -1</clus>
<clus scale="   94.276">  7  8 -1 -1</clus>
<clus scale="   96.334">  5  6 -1 -1</clus>
<clus scale="  106.021">  1  7  2 -1</clus>
<clus scale="   25.176">  2  5  1 -1</clus>
</clustering>
</event>
<event>
 9    1  0.9000149E-006  0.9106403E+02  0.7546771E-02  0.1300568E+00
         -2   -1    0    0    0  501 -0.00000000000E+00  0.00000000000E+00  0.89186848392E+02  0.89186848392E+02  0.00000000000E+00 0.  1.
          2   -1    0    0  502    0  0.00000000000E+00 -0.00000000000E+00 -0.41870716152E+03  0.41870716152E+03  0.00000000000E+00 0. -1.
         23    2    1    2    0    0 -0.20200705473E+01  0.80647208090E+01  0.50912077175E+02  0.10429194668E+03  0.90640223591E+02 0.  0.
         23    2    1    2    0    0  0.37204479090E+02  0.28144030363E+01 -0.26265065075E+03  0.28019689271E+03  0.90182261094E+02 0.  0.
        -11    1    4    4    0    0  0.16518983191E+02  0.42694876205E+02 -0.80686090470E+02  0.92768391466E+02  0.00000000000E+00 0.  1.
         11    1    4    4    0    0  0.20685495899E+02 -0.39880473168E+02 -0.18196456028E+03  0.18742850124E+03  0.00000000000E+00 0. -1.
        -13    1    3    3    0    0 -0.40984164695E+02  0.24475453927E+02  0.34680979744E+02  0.59004406248E+02  0.00000000000E+00 0.  1.
         13    1    3    3    0    0  0.38964094148E+02 -0.16410733118E+02  0.16231097431E+02  0.45287540428E+02  0.00000000000E+00 0. -1.
         21    1    1    2  502  501 -0.35184408543E+02 -0.10879123845E+02 -0.11778173956E+03  0.12340517053E+03  0.00000000000E+00 0. -1.
<scales pt_clust_5="13000.00000" pt_clust_6="13000.00000" pt_clust_7="13000.00000" pt_clust_8="13000.00000" pt_clust_9="36.82795"></scales>
<clustering>
<clus scale="   36.828">  2  9  1 -1</clus>
<clus scale="   90.182">  5  6 -1 -1</clus>
<clus scale="   90.608">  2  5  1 -1</clus>
<clus scale="   90.640">  7  8 -1 -1</clus>
<clus scale="   36.828">  2  5  1 -1</clus>
</clustering>
</event>
<event>
 9    1  0.9000149E-006  0.1430907E+03  0.7546771E-02  0.1209518E+00
          4   -1    0    0  502    0  0.00000000000E+00  0.00000000000E+00  0.23155447355E+03  0.23155447355E+03  0.00000000000E+00 0. -1.
         -4   -1    0    0    0  501 -0.00000000000E+00 -0.00000000000E+00 -0.18569557195E+03  0.18569557195E+03  0.00000000000E+00 0.  1.
         23    2    1    2    0    0  0.38320342929E+02  0.81523130742E+02 -0.38915425463E+02  0.13213846780E+03  0.88496863248E+02 0.  0.
         23    2    1    2    0    0 -0.36691908758E+02 -0.15006485464E+03  0.34927540099E+01  0.17877572377E+03  0.89904412089E+02 0.  0.
        -11    1    3    3    0    0  0.15601104993E+01  0.74544160009E+02 -0.53722082568E+02  0.91898465121E+02  0.00000000000E+00 0.  1.
         11    1    3    3    0    0  0.36760232429E+02  0.69789707331E+01  0.14806657105E+02  0.40240002676E+02  0.00000000000E+00 0. -1.
        -11    1    4    4    0    0 -0.12129136573E+02 -0.23933604814E+02  0.37257059875E+02  0.45913199670E+02  0.00000000000E+00 0.  1.
         11    1    4    4    0    0 -0.24562772185E+02 -0.12613124983E+03 -0.33764305865E+02  0.13286252410E+03  0.00000000000E+00 0. -1.
         21    1    1    2  502  501 -0.16284341710E+01  0.68541723901E+02  0.81281573052E+02  0.10633585393E+03  0.00000000000E+00 0.  1.
<scales pt_clust_5="13000.00000" pt_clust_6="13000.00000" pt_clust_7="13000.00000" pt_clust_8="13000.00000" pt_clust_9="68.56107"></scales>
<clustering>
<clus scale="   68.561">  1  9  2 -1</clus>
<clus scale="   88.497">  5  6 -1 -1</clus>
<clus scale="   89.904">  7  8 -1 -1</clus>
<clus scale="  142.211">  2  5  1 -1</clus>
<clus scale="   68.561">  1  5  2 -1</clus>
</clustering>
</event>
<event>
 9    1  0.9000149E-006  0.2108259E+03  0.7546771E-02  0.1141073E+00
         -1   -1    0    0    0  501 -0.00000000000E+00  0.00000000000E+00  0.31877605843E+03  0.31877605843E+03  0.00000000000E+00 0.  1.
          1   -1    0    0  502    0  0.00000000000E+00 -0.00000000000E+00 -0.28071667333E+03  0.28071667333E+03  0.00000000000E+00 0. -1.
         23    2    1    2    0    0  0.14025837655E+03 -0.14255712473E+03  0.21326956233E+03  0.30578886693E+03  0.89598989511E+02 0.  0.
         23    2    1    2    0    0 -0.11393709104E+03  0.11298788204E+03 -0.99262161291E+02  0.20805778313E+03  0.87676349468E+02 0.  0.
        -11    1    3    3    0    0  0.11441012735E+03 -0.15256655306E+03  0.19397784733E+03  0.27201771194E+03  0.00000000000E+00 0.  1.
         11    1    3    3    0    0  0.25848249196E+02  0.10009428333E+02  0.19291715000E+02  0.33771154995E+02  0.00000000000E+00 0. -1.
        -13    1    4    4    0    0 -0.47019053994E+02  0.10154180156E+03 -0.42972448341E+02  0.11986726083E+03  0.00000000000E+00 0.  1.
         13    1    4    4    0    0 -0.66918037043E+02  0.11446080480E+02 -0.56289712949E+02  0.88190522302E+02  0.00000000000E+00 0. -1.
         21    1    1    2  502  501 -0.26321285512E+02  0.29569242689E+02 -0.75948015937E+02  0.85646081691E+02  0.00000000000E+00 0. -1.
<scales pt_clust_5="13000.00000" pt_clust_6="13000.00000" pt_clust_7="13000.00000" pt_clust_8="13000.00000" pt_clust_9="39.58725"></scales>
<clustering>
<clus scale="   39.587">  2  9  1 -1</clus>
<clus scale="   87.676">  7  8 -1 -1</clus>
<clus scale="   89.599">  5  6 -1 -1</clus>
<clus scale="  210.016">  2  7  1 -1</clus>
<clus scale="   39.587">  2  5  1 -1</clus>
</clustering>
</event>
<event>
 9    1  0.9000149E-006  0.1337422E+03  0.7546771E-02  0.1222035E+00
          1   -1    0    0  502    0  0.00000000000E+00  0.00000000000E+00  0.17306045336E+03  0.17306045336E+03  0.00000000000E+00 0. -1.
         -1   -1    0    0    0  501 -0.00000000000E+00 -0.00000000000E+00 -0.23277648479E+03  0.23277648479E+03  0.00000000000E+00 0.  1.
         23    2    1    2    0    0  0.87300160086E+02  0.33814703203E+02 -0.14171055857E+03  0.19233656846E+03  0.90259188195E+02 0.  0.
         23    2    1    2    0    0 -0.10330050973E+03 -0.71398739724E+02  0.75443528315E+02  0.17213025275E+03  0.90378772963E+02 0.  0.
        -13    1    3    3    0    0  0.96525413121E+02  0.55156425598E+01 -0.12556606767E+03  0.15847528211E+03  0.00000000000E+00 0.  1.
         13    1    3    3    0    0 -0.92252530350E+01  0.28299060643E+02 -0.16144490908E+02  0.33861286354E+02  0.00000000000E+00 0. -1.
        -13    1    4    4    0    0 -0.14052300211E+02 -0.57471231762E+02  0.86598008697E+01  0.59794663412E+02  0.00000000000E+00 0.  1.
         13    1    4    4    0    0 -0.89248209517E+02 -0.13927507962E+02  0.66783727445E+02  0.11233558934E+03  0.00000000000E+00 0. -1.
         21    1    1    2  502  501  0.16000349642E+02  0.37584036521E+02  0.65509988349E+01  0.41370116940E+02  0.00000000000E+00 0.  1.
<scales pt_clust_5="13000.00000" pt_clust_6="13000.00000" pt_clust_7="13000.00000" pt_clust_8="13000.00000" pt_clust_9="40.84815"></scales>
<clustering>
<clus scale="   40.848">  1  9  2 -1</clus>
<clus scale="   90.259">  5  6 -1 -1</clus>
<clus scale="   90.379">  7  8 -1 -1</clus>
<clus scale="  133.661">  2  5  1 -1</clus>
<clus scale="   40.848">  1  5  2 -1</clus>
</clustering>
</event>
<event>
 9    1  0.9000149E-006  0.9944717E+02  0.7546771E-02  0.1281750E+00
         -2   -1    0    0    0  501 -0.00000000000E+00  0.00000000000E+00  0.34556673533E+03  0.34556673533E+03  0.00000000000E+00 0.  1.
          2   -1    0    0  502    0  0.00000000000E+00 -0.00000000000E+00 -0.18279329026E+03  0.18279329026E+03  0.00000000000E+00 0. -1.
         23    2    1    2    0    0 -0.15254980546E+02  0.35982329825E+02  0.20340397448E+03  0.22619502174E+03  0.90904172254E+02 0.  0.
         23    2    1    2    0    0 -0.58939133560E+02 -0.50129645665E+02  0.91444749631E+02  0.15001773162E+03  0.90312649860E+02 0.  0.
        -11    1    3    3    0    0 -0.38025346790E+02  0.45539964862E+02  0.75974259505E+02  0.96394520101E+02  0.00000000000E+00 0.  1.
         11    1    3    3    0    0  0.22770366244E+02 -0.95576350364E+01  0.12742971497E+03  0.12980050164E+03  0.00000000000E+00 0. -1.
        -11    1    4    4    0    0 -0.57511369370E+02 -0.19967130319E+01  0.83201133060E+02  0.10116310104E+03  0.00000000000E+00 0.  1.
         11    1    4    4    0    0 -0.14277641903E+01 -0.48132932633E+02  0.82436165705E+01  0.48854630575E+02  0.00000000000E+00 0. -1.
         21    1    1    2  502  501  0.74194114106E+02  0.14147315840E+02 -0.13207527905E+03  0.15214727223E+03  0.00000000000E+00 0. -1.
<scales pt_clust_5="13000.00000" pt_clust_6="13000.00000" pt_clust_7="13000.00000" pt_clust_8="13000.00000" pt_clust_9="75.53088"></scales>
<clustering>
<clus scale="   75.531">  2  9  1 -1</clus>
<clus scale="   90.313">  7  8 -1 -1</clus>
<clus scale="   90.904">  5  6 -1 -1</clus>
<clus scale="   98.907">  2  7  1 -1</clus>
<clus scale="   75.531">  2  5  1 -1</clus>
</clustering>
</event>
<event>
 9    1  0.9000149E-006  0.1263884E+03  0.7546771E-02  0.1233086E+00
         -2   -1    0    0    0  501 -0.00000000000E+00  0.00000000000E+00  0.53446788866E+02  0.53446788866E+02  0.00000000000E+00 0.  1.
          2   -1    0    0  502    0  0.00000000000E+00 -0.00000000000E+00 -0.64237180671E+03  0.64237180671E+03  0.00000000000E+00 0. -1.
         23    2    1    2    0    0  0.37959067530E+02 -0.73607414643E+02 -0.46747327259E+02  0.13139630376E+03  0.90668262020E+02 0.  0.
         23    2    1    2    0    0 -0.57799340794E+02  0.68121224904E+02 -0.51463643019E+03  0.53003834578E+03  0.90048473830E+02 0.  0.
        -11    1    4    4    0    0  0.19301171040E+02  0.36001423860E+02 -0.22148719715E+03  0.22522259262E+03  0.00000000000E+00 0. -1.
         11    1    4    4    0    0 -0.77100511835E+02  0.32119801045E+02 -0.29314923303E+03  0.30481575316E+03  0.00000000000E+00 0.  1.
        -13    1    3    3    0    0  0.79967872278E+01 -0.78863034171E+02 -0.45773250252E+01  0.79399487838E+02  0.00000000000E+00 0.  1.
         13    1    3    3    0    0  0.29962280302E+02  0.52556195284E+01 -0.42170002234E+02  0.51996815921E+02  0.00000000000E+00 0. -1.
         21    1    1    2  502  501  0.19840273265E+02  0.54861897382E+01 -0.27541260401E+02  0.34383946044E+02  0.00000000000E+00 0.  1.
<scales pt_clust_5="13000.00000" pt_clust_6="13000.00000" pt_clust_7="13000.00000" pt_clust_8="13000.00000" pt_clust_9="20.58482"></scales>
<clustering>
<clus scale="   20.585">  1  9  2 -1</clus>
<clus scale="   90.048">  5  6 -1 -1</clus>
<clus scale="   90.668">  7  8 -1 -1</clus>
<clus scale="  125.945">  2  5  1 -1</clus>
<clus scale="  125.945">  2  5  1 -1</clus>
</clustering>
</event>
<event>
 9    1  0.9000149E-006  0.1004526E+03  0.7546771E-02  0.1280058E+00
         -2   -1    0    0    0  501 -0.00000000000E+00  0.00000000000E+00  0.48080891225E+02  0.48080891225E+02  0.00000000000E+00 0.  1.
          2   -1    0    0  502    0  0.00000000000E+00 -0.00000000000E+00 -0.37754811168E+03  0.37754811168E+03  0.00000000000E+00 0. -1.
         23    2    1    2    0    0  0.12729545905E+02 -0.36792200354E+02 -0.39427454792E+02  0.10663405983E+03  0.91107580244E+02 0.  0.
         23    2    1    2    0    0  0.31767842317E+01  0.55027277194E+02 -0.20286872593E+03  0.22852771402E+03  0.89616421040E+02 0.  0.
        -13    1    3    3    0    0 -0.33474803696E+02  0.63895083723E+01 -0.23566236689E+02  0.41433752080E+02  0.00000000000E+00 0.  1.
         13    1    3    3    0    0  0.46204349601E+02 -0.43181708726E+02 -0.15861218103E+02  0.65200307747E+02  0.00000000000E+00 0. -1.
        -13    1    4    4    0    0 -0.29687974053E+02 -0.10300959867E+02 -0.49773615985E+02  0.58863387821E+02  0.00000000000E+00 0. -1.
         13    1    4    4    0    0  0.32864758284E+02  0.65328237061E+02 -0.15309510994E+03  0.16966432620E+03  0.00000000000E+00 0.  1.
         21    1    1    2  502  501 -0.15906330137E+02 -0.18235076840E+02 -0.87171039736E+02  0.90467229064E+02  0.00000000000E+00 0. -1.
<scales pt_clust_5="13000.00000" pt_clust_6="13000.00000" pt_clust_7="13000.00000" pt_clust_8="13000.00000" pt_clust_9="24.19771"></scales>
<clustering>
<clus scale="   24.198">  2  9  1 -1</clus>
<clus scale="   89.616">  7  8 -1 -1</clus>
<clus scale="   91.108">  5  6 -1 -1</clus>
<clus scale="   99.102">  2  7  1 -1</clus>
<clus scale="   24.198">  2  5  1 -1</clus>
</clustering>
</event>
<event>
 9    1  0.9000149E-006  0.1069224E+03  0.7546771E-02  0.1266389E+00
          3   -1    0    0  502    0  0.00000000000E+00  0.00000000000E+00  0.58347372933E+02  0.58347372933E+02  0.00000000000E+00 0. -1.
         -3   -1    0    0    0  501 -0.00000000000E+00 -0.00000000000E+00 -0.35725590831E+03  0.35725590831E+03  0.00000000000E+00 0.  1.
         23    2    1    2    0    0 -0.25235355834E+02  0.41775478079E+02 -0.21784640293E+03  0.24191948639E+03  0.93198545459E+02 0.  0.
         23    2    1    2    0    0  0.61318884600E+02 -0.33239003768E+02 -0.58255987335E+02  0.13015205130E+03  0.93171666383E+02 0.  0.
        -11    1    3    3    0    0 -0.23712111692E+02  0.65077308173E+02 -0.20239603126E+03  0.21391931598E+03  0.00000000000E+00 0.  1.
         11    1    3    3    0    0 -0.15232441417E+01 -0.23301830094E+02 -0.15450371665E+02  0.28000170410E+02  0.00000000000E+00 0. -1.
        -11    1    4    4    0    0  0.74511262272E+02 -0.17783906193E+02 -0.93250350606E+01  0.77169630061E+02  0.00000000000E+00 0. -1.
         11    1    4    4    0    0 -0.13192377672E+02 -0.15455097576E+02 -0.48930952275E+02  0.52982421238E+02  0.00000000000E+00 0.  1.
         21    1    1    2  502  501 -0.36083528766E+02 -0.85364743108E+01 -0.22806145120E+02  0.43531743557E+02  0.00000000000E+00 0.  1.
<scales pt_clust_5="13000.00000" pt_clust_6="13000.00000" pt_clust_7="13000.00000" pt_clust_8="13000.00000" pt_clust_9="37.07954"></scales>
<clustering>
<clus scale="   37.080">  1  9  2 -1</clus>
<clus scale="   93.172">  7  8 -1 -1</clus>
<clus scale="   93.199">  5  6 -1 -1</clus>
<clus scale="  106.899">  1  7  2 -1</clus>
<clus scale="   37.080">  1  5  2 -1</clus>
</clustering>
</event>
<event>
 9    1  0.9000149E-006  0.9762111E+02  0.7546771E-02  0.1291056E+00
          2   -1    0    0  502    0  0.00000000000E+00  0.00000000000E+00  0.90804027011E+02  0.90804027011E+02  0.00000000000E+00 0. -1.
         -2   -1    0    0    0  501 -0.00000000000E+00 -0.00000000000E+00 -0.17449489217E+03  0.17449489217E+03  0.00000000000E+00 0.  1.
         23    2    1    2    0    0 -0.22464950033E+02  0.22213773498E+02 -0.56566422371E+02  0.10886189817E+03  0.87481581041E+02 0.  0.
         23    2    1    2    0    0 -0.18242578450E+02  0.34110118172E+01  0.38792161567E+01  0.99209760322E+02  0.97381217671E+02 0.  0.
        -13    1    3    3    0    0  0.80260521535E+01  0.29114055405E+02  0.12781269993E+02  0.32793392596E+02  0.00000000000E+00 0. -1.
         13    1    3    3    0    0 -0.30491002186E+02 -0.69002819073E+01 -0.69347692365E+02  0.76068505579E+02  0.00000000000E+00 0.  1.
        -13    1    4    4    0    0 -0.50998493007E+02 -0.71561730022E+01 -0.22147681525E+02  0.56058691547E+02  0.00000000000E+00 0. -1.
         13    1    4    4    0    0  0.32755914557E+02  0.10567184819E+02  0.26026897681E+02  0.43151068775E+02  0.00000000000E+00 0.  1.
         21    1    1    2  502  501  0.40707528483E+02 -0.25624785315E+02 -0.31003658949E+02  0.57227260687E+02  0.00000000000E+00 0.  1.
<scales pt_clust_5="13000.00000" pt_clust_6="13000.00000" pt_clust_7="13000.00000" pt_clust_8="13000.00000" pt_clust_9="48.10127"></scales>
<clustering>
<clus scale="   48.101">  2  9  1 -1</clus>
<clus scale="   87.482">  5  6 -1 -1</clus>
<clus scale="   87.749">  2  5  1 -1</clus>
<clus scale="   97.381">  7  8 -1 -1</clus>
<clus scale="   97.621">  1  5  2 -1</clus>
</clustering>
</event>
<event>
 9    1  0.9000149E-006  0.1352303E+03  0.7546771E-02  0.1220642E+00
          1   -1    0    0  502    0  0.00000000000E+00  0.00000000000E+00  0.10720338079E+03  0.10720338079E+03  0.00000000000E+00 0. -1.
         -1   -1    0    0    0  501 -0.00000000000E+00 -0.00000000000E+00 -0.25589874052E+03  0.25589874052E+03  0.00000000000E+00 0.  1.
         23    2    1    2    0    0 -0.29661489773E+01  0.89546907337E+02 -0.10844783590E+03  0.16949990790E+03  0.94561297655E+02 0.  0.
         23    2    1    2    0    0  0.19707311489E+02 -0.10578021694E+03 -0.68477792798E+02  0.15698616570E+03  0.91529316036E+02 0.  0.
        -11    1    4    4    0    0 -0.22025625849E+02 -0.42016597984E+02 -0.65300318516E+02  0.80713408418E+02  0.00000000000E+00 0. -1.
         11    1    4    4    0    0  0.41732937338E+02 -0.63763618957E+02 -0.31774742820E+01  0.76272757287E+02  0.00000000000E+00 0.  1.
        -13    1    3    3    0    0 -0.33898642503E+01  0.44346841675E+02  0.74530588578E+01  0.45096359416E+02  0.00000000000E+00 0. -1.
         13    1    3    3    0    0  0.42371527301E+00  0.45200065662E+02 -0.11590089476E+03  0.12440354849E+03  0.00000000000E+00 0.  1.
         21    1    1    2  502  501 -0.16741162511E+02  0.16233309603E+02  0.28230268975E+02  0.36616047702E+02  0.00000000000E+00 0. -1.
<scales pt_clust_5="13000.00000" pt_clust_6="13000.00000" pt_clust_7="13000.00000" pt_clust_8="13000.00000" pt_clust_9="23.31924"></scales>
<clustering>
<clus scale="   23.319">  1  9  2 -1</clus>
<clus scale="   91.529">  5  6 -1 -1</clus>
<clus scale="   94.561">  7  8 -1 -1</clus>
<clus scale="  133.128">  1  5  2 -1</clus>
<clus scale="   23.319">  1  5  2 -1</clus>
</clustering>
</event>
<event>
 9    1  0.9000149E-006  0.1430243E+03  0.7546771E-02  0.1210239E+00
         -1   -1    0    0    0  501 -0.00000000000E+00  0.00000000000E+00  0.99294655270E+02  0.99294655270E+02  0.00000000000E+00 0.  1.
          1   -1    0    0  502    0  0.00000000000E+00 -0.00000000000E+00 -0.38814113728E+03  0.38814113728E+03  0.00000000000E+00 0. -1.
         23    2    1    2    0    0  0.50971781821E+02  0.85475876323E+02 -0.47578196147E+01  0.13594607100E+03  0.92490266501E+02 0.  0.
         23    2    1    2    0    0 -0.91704630773E+02 -0.93419723605E+02 -0.24724951166E+03  0.29599744533E+03  0.96670484438E+02 0.  0.
        -11    1    4    4    0    0  0.62722604665E+01 -0.51709373842E+02 -0.11469073975E+03  0.12596494107E+03  0.00000000000E+00 0. -1.
         11    1    4    4    0    0 -0.97976891240E+02 -0.41710349762E+02 -0.13255877192E+03  0.17003250427E+03  0.00000000000E+00 0.  1.
        -13    1    3    3    0    0  0.65636354732E+00  0.81715296707E+02  0.12398753856E+02  0.82653188845E+02  0.00000000000E+00 0.  1.
         13    1    3    3    0    0  0.50315418273E+02  0.37605796159E+01 -0.17156573471E+02  0.53292882154E+02  0.00000000000E+00 0. -1.
         21    1    1    2  502  501  0.40732848953E+02  0.79438472815E+01 -0.36839150735E+02  0.55492276222E+02  0.00000000000E+00 0.  1.
<scales pt_clust_5="13000.00000" pt_clust_6="13000.00000" pt_clust_7="13000.00000" pt_clust_8="13000.00000" pt_clust_9="41.50024"></scales>
<clustering>
<clus scale="   41.500">  2  9  1 -1</clus>
<clus scale="   92.490">  7  8 -1 -1</clus>
<clus scale="   96.670">  5  6 -1 -1</clus>
<clus scale="  140.233">  1  7  2 -1</clus>
<clus scale="   41.500">  2  5  1 -1</clus>
</clustering>
</event>
<event>
 9    1  0.9000149E-006  0.9171474E+02  0.7546771E-02  0.1300156E+00
         -2   -1    0    0    0  501 -0.00000000000E+00  0.00000000000E+00  0.32440090959E+02  0.32440090959E+02  0.00000000000E+00 0.  1.
          2   -1    0    0  502    0  0.00000000000E+00 -0.00000000000E+00 -0.66017907789E+03  0.66017907789E+03  0.00000000000E+00 0. -1.
         23    2    1    2    0    0 -0.42344567950E+01  0.10303507994E+02 -0.58675578457E+02  0.10737287985E+03  0.89230145801E+02 0.  0.
         23    2    1    2    0    0 -0.21155721383E+02  0.17874542036E+02 -0.34616083247E+03  0.35913962824E+03  0.91579947755E+02 0.  0.
        -11    1    3    3    0    0 -0.33530255076E+02 -0.26452381442E+02 -0.24261059125E+02  0.49118280500E+02  0.00000000000E+00 0.  1.
         11    1    3    3    0    0  0.29295798281E+02  0.36755889436E+02 -0.34414519332E+02  0.58254599355E+02  0.00000000000E+00 0. -1.
        -13    1    4    4    0    0  0.29347946629E+02  0.14378730175E+02 -0.58069979234E+02  0.66634618188E+02  0.00000000000E+00 0. -1.
         13    1    4    4    0    0 -0.50503668012E+02  0.34958118612E+01 -0.28809085324E+03  0.29250501005E+03  0.00000000000E+00 0.  1.
         21    1    1    2  502  501  0.25390178178E+02 -0.28178050030E+02 -0.22290257600E+03  0.22610666076E+03  0.00000000000E+00 0.  1.
<scales pt_clust_5="13000.00000" pt_clust_6="13000.00000" pt_clust_7="13000.00000" pt_clust_8="13000.00000" pt_clust_9="37.92972"></scales>
<clustering>
<clus scale="   37.930">  2  9  1 -1</clus>
<clus scale="   89.230">  5  6 -1 -1</clus>
<clus scale="   89.368">  1  5  2 -1</clus>
<clus scale="   91.580">  7  8 -1 -1</clus>
<clus scale="   37.930">  2  5  1 -1</clus>
</clustering>
</event>
<event>
 9    1  0.9000149E-006  0.1835461E+03  0.7546771E-02  0.1164600E+00
         -1   -1    0    0    0  501 -0.00000000000E+00  0.00000000000E+00  0.25475915052E+03  0.25475915052E+03  0.00000000000E+00 0.  1.
          1   -1    0    0  502    0  0.00000000000E+00 -0.00000000000E+00 -0.29586163376E+03  0.29586163376E+03  0.00000000000E+00 0. -1.
         23    2    1    2    0    0  0.96374396872E+02  0.65714613327E+02  0.15715273787E+03  0.21539095086E+03  0.89943559610E+02 0.  0.
         23    2    1    2    0    0 -0.12115061052E+03 -0.11648232992E+03 -0.20244968879E+03  0.27858342690E+03  0.91527294502E+02 0.  0.
        -11    1    4    4    0    0 -0.11951292778E+03 -0.85971087151E+02 -0.19942288889E+03  0.24787871297E+03  0.00000000000E+00 0. -1.
         11    1    4    4    0    0 -0.16376827463E+01 -0.30511242769E+02 -0.30267999082E+01  0.30704713934E+02  0.00000000000E+00 0.  1.
        -11    1    3    3    0    0  0.42507999732E+01  0.53994877209E+02  0.51695278482E+02  0.74872677811E+02  0.00000000000E+00 0.  1.
         11    1    3    3    0    0  0.92123596899E+02  0.11719736118E+02  0.10545745939E+03  0.14051827305E+03  0.00000000000E+00 0. -1.
         21    1    1    2  502  501  0.24776213651E+02  0.50767716593E+02  0.41944676842E+01  0.56646406507E+02  0.00000000000E+00 0.  1.
<scales pt_clust_5="13000.00000" pt_clust_6="13000.00000" pt_clust_7="13000.00000" pt_clust_8="13000.00000" pt_clust_9="56.49090"></scales>
<clustering>
<clus scale="   56.491">  1  9  2 -1</clus>
<clus scale="   89.944">  7  8 -1 -1</clus>
<clus scale="   91.527">  5  6 -1 -1</clus>
<clus scale="  182.762">  1  7  2 -1</clus>
<clus scale="  183.546">  2  5  1 -1</clus>
</clustering>
</event>
<event>
 9    1  0.9000149E-006  0.9966564E+02  0.7546771E-02  0.1281670E+00
         -2   -1    0    0    0  501 -0.00000000000E+00  0.00000000000E+00  0.33440096946E+02  0.33440096946E+02  0.00000000000E+00 0.  1.
          2   -1    0    0  502    0  0.00000000000E+00 -0.00000000000E+00 -0.43140312662E+03  0.43140312662E+03  0.00000000000E+00 0. -1.
         23    2    1    2    0    0  0.32547387648E+02 -0.14541360276E+01 -0.98982761423E+02  0.13855119597E+03  0.91309363655E+02 0.  0.
         23    2    1    2    0    0 -0.53329099864E+02  0.89101046995E+01 -0.21194071237E+03  0.23649583993E+03  0.89933497023E+02 0.  0.
        -13    1    4    4    0    0  0.12157823900E+02 -0.25042055764E+02 -0.87645804281E+02  0.91960340620E+02  0.00000000000E+00 0.  1.
         13    1    4    4    0    0 -0.65486923763E+02  0.33952160464E+02 -0.12429490809E+03  0.14453549931E+03  0.00000000000E+00 0. -1.
        -13    1    3    3    0    0  0.62593420159E+02  0.21898841794E+01 -0.84000213073E+02  0.10477961460E+03  0.00000000000E+00 0.  1.
         13    1    3    3    0    0 -0.30046032511E+02 -0.36440202071E+01 -0.14982548350E+02  0.33771581366E+02  0.00000000000E+00 0. -1.
         21    1    1    2  502  501  0.20781712215E+02 -0.74559686719E+01 -0.87039555885E+02  0.89796187670E+02  0.00000000000E+00 0.  1.
<scales pt_clust_5="13000.00000" pt_clust_6="13000.00000" pt_clust_7="13000.00000" pt_clust_8="13000.00000" pt_clust_9="22.07875"></scales>
<clustering>
<clus scale="   22.079">  2  9  1 -1</clus>
<clus scale="   89.933">  5  6 -1 -1</clus>
<clus scale="   91.309">  7  8 -1 -1</clus>
<clus scale="   98.407">  2  5  1 -1</clus>
<clus scale="   22.079">  2  5  1 -1</clus>
</clustering>
</event>
<event>
 9    1  0.9000149E-006  0.1253341E+03  0.7546771E-02  0.1234831E+00
         -1   -1    0    0    0  501 -0.00000000000E+00  0.00000000000E+00  0.34576580547E+02  0.34576580547E+02  0.00000000000E+00 0.  1.
          1   -1    0    0  502    0  0.00000000000E+00 -0.00000000000E+00 -0.88687564109E+03  0.88687564109E+03  0.00000000000E+00 0. -1.
         23    2    1    2    0    0  0.83452221214E+02 -0.60483631686E+01 -0.16977594415E+03  0.21081991004E+03  0.92845610204E+02 0.  0.
         23    2    1    2    0    0 -0.82846654809E+02 -0.54888366674E+02 -0.42651576290E+03  0.44747187233E+03  0.91864462734E+02 0.  0.
        -11    1    3    3    0    0  0.18178450964E+02  0.38382530338E+02 -0.84681009284E+02  0.94734091266E+02  0.00000000000E+00 0. -1.
         11    1    3    3    0    0  0.65273770250E+02 -0.44430893506E+02 -0.85094934870E+02  0.11608581878E+03  0.00000000000E+00 0.  1.
        -13    1    4    4    0    0 -0.74771742018E+02  0.18472286576E+01 -0.28835568373E+03  0.29789801275E+03  0.00000000000E+00 0. -1.
         13    1    4    4    0    0 -0.80749127902E+01 -0.56735595332E+02 -0.13816007917E+03  0.14957385958E+03  0.00000000000E+00 0.  1.
         21    1    1    2  502  501 -0.60556640572E+00  0.60936729843E+02 -0.25600735349E+03  0.26316043927E+03  0.00000000000E+00 0. -1.
<scales pt_clust_5="13000.00000" pt_clust_6="13000.00000" pt_clust_7="13000.00000" pt_clust_8="13000.00000" pt_clust_9="60.93974"></scales>
<clustering>
<clus scale="   60.940">  2  9  1 -1</clus>
<clus scale="   91.864">  7  8 -1 -1</clus>
<clus scale="   92.846">  5  6 -1 -1</clus>
<clus scale="  124.609">  2  7  1 -1</clus>
<clus scale="   60.940">  2  5  1 -1</clus>
</clustering>
</event>
<event>
 9    1  0.9000149E-006  0.9090982E+02  0.7546771E-02  0.1301588E+00
         -1   -1    0    0    0  501 -0.00000000000E+00  0.00000000000E+00  0.12765425960E+03  0.12765425960E+03  0.00000000000E+00 0.  1.
          1   -1    0    0  502    0  0.00000000000E+00 -0.00000000000E+00 -0.11039589356E+03  0.11039589356E+03  0.00000000000E+00 0. -1.
         23    2    1    2    0    0  0.94742419257E+00  0.16273804969E+02  0.14657095878E+02  0.92962121340E+02  0.90340418439E+02 0.  0.
         23    2    1    2    0    0  0.19469024026E+02  0.27803280011E+02  0.11327297703E+02  0.95734568568E+02  0.88796028457E+02 0.  0.
        -13    1    3    3    0    0  0.45128726666E+01 -0.35027322097E+02  0.21092672314E+02  0.41136117200E+02  0.00000000000E+00 0.  1.
         13    1    3    3    0    0 -0.35654484740E+01  0.51301127065E+02 -0.64355764369E+01  0.51826004140E+02  0.00000000000E+00 0. -1.
        -13    1    4    4    0    0  0.54428266860E+02  0.23670345332E+02  0.11869328762E+02  0.60527699831E+02  0.00000000000E+00 0. -1.
         13    1    4    4    0    0 -0.34959242834E+02  0.41329346787E+01 -0.54203105969E+00  0.35206868737E+02  0.00000000000E+00 0.  1.
         21    1    1    2  502  501 -0.20416448219E+02 -0.44077084980E+02 -0.87260275444E+01  0.49353463251E+02  0.00000000000E+00 0. -1.
<scales pt_clust_5="13000.00000" pt_clust_6="13000.00000" pt_clust_7="13000.00000" pt_clust_8="13000.00000" pt_clust_9="48.57593"></scales>
<clustering>
<clus scale="   48.576">  2  9  1 -1</clus>
<clus scale="   88.796">  7  8 -1 -1</clus>
<clus scale="   89.375">  2  7  1 -1</clus>
<clus scale="   90.340">  5  6 -1 -1</clus>
<clus scale="   48.576">  2  5  1 -1</clus>
</clustering>
</event>
<event>
 9    1  0.9000149E-006  0.1117819E+03  0.7546771E-02  0.1259486E+00
         -1   -1    0    0    0  501 -0.00000000000E+00  0.00000000000E+00  0.15699028626E+03  0.15699028626E+03  0.00000000000E+00 0.  1.
          1   -1    0    0  502    0  0.00000000000E+00 -0.00000000000E+00 -0.57133655532E+03  0.57133655532E+03  0.00000000000E+00 0. -1.
         23    2    1    2    0    0 -0.65870503615E+02 -0.27157799236E+02  0.91158375375E+02  0.14735535977E+03  0.91253949762E+02 0.  0.
         23    2    1    2    0    0 -0.35390810589E+02  0.79978450960E+02 -0.10248972420E+03  0.16208617419E+03  0.90103952225E+02 0.  0.
        -13    1    4    4    0    0  0.60866780968E+01  0.69893721943E+02 -0.96008686667E+02  0.11891109256E+03  0.00000000000E+00 0. -1.
         13    1    4    4    0    0 -0.41477488686E+02  0.10084729016E+02 -0.64810375328E+01  0.43175081639E+02  0.00000000000E+00 0.  1.
        -13    1    3    3    0    0 -0.40959095364E+02 -0.11241419878E+02 -0.85769900737E+01  0.43331071676E+02  0.00000000000E+00 0. -1.
         13    1    3    3    0    0 -0.24911408251E+02 -0.15916379357E+02  0.99735365449E+02  0.10402428810E+03  0.00000000000E+00 0.  1.
         21    1    1    2  502  501  0.10126131420E+03 -0.52820651724E+02 -0.40301492024E+03  0.41888530762E+03  0.00000000000E+00 0. -1.
<scales pt_clust_5="13000.00000" pt_clust_6="13000.00000" pt_clust_7="13000.00000" pt_clust_8="13000.00000" pt_clust_9="114.20979"></scales>
<clustering>
<clus scale="   90.104">  5  6 -1 -1</clus>
<clus scale="   91.254">  7  8 -1 -1</clus>
<clus scale="  114.210">  2  9  1 -1</clus>
<clus scale="  114.210">  2  5  1 -1</clus>
<clus scale="  111.782">  2  5  1 -1</clus>
</clustering>
</event>
<event>
 9    1  0.9000149E-006  0.1116550E+03  0.7546771E-02  0.1257945E+00
         -1   -1    0    0    0  501 -0.00000000000E+00  0.00000000000E+00  0.33431847401E+03  0.33431847401E+03  0.00000000000E+00 0.  1.
          1   -1    0    0  502    0  0.00000000000E+00 -0.00000000000E+00 -0.67448629417E+02  0.67448629417E+02  0.00000000000E+00 0. -1.
         23    2    1    2    0    0  0.52144206072E+02  0.13095039047E+02  0.11508222405E+03  0.15529749241E+03  0.89347045741E+02 0.  0.
         23    2    1    2    0    0 -0.69958112522E+02  0.40120594057E+02  0.51765809484E+02  0.13178045914E+03  0.90457674111E+02 0.  0.
        -11    1    4    4    0    0 -0.29386783410E+02  0.34800128649E+02 -0.19544485956E+02  0.49564290820E+02  0.00000000000E+00 0. -1.
         11    1    4    4    0    0 -0.40571329112E+02  0.53204654076E+01  0.71310295441E+02  0.82216168324E+02  0.00000000000E+00 0.  1.
        -11    1    3    3    0    0  0.21896819273E+02  0.47223773260E+02  0.33703147087E+02  0.62011753553E+02  0.00000000000E+00 0. -1.
         11    1    3    3    0    0  0.30247386799E+02 -0.34128734212E+02  0.81379076963E+02  0.93285738859E+02  0.00000000000E+00 0.  1.
         21    1    1    2  502  501  0.17813906450E+02 -0.53215633104E+02  0.10002181106E+03  0.11468915187E+03  0.00000000000E+00 0.  1.
<scales pt_clust_5="13000.00000" pt_clust_6="13000.00000" pt_clust_7="13000.00000" pt_clust_8="13000.00000" pt_clust_9="56.11808"></scales>
<clustering>
<clus scale="   56.118">  1  9  2 -1</clus>
<clus scale="   89.347">  7  8 -1 -1</clus>
<clus scale="   90.458">  5  6 -1 -1</clus>
<clus scale="  110.757">  1  7  2 -1</clus>
<clus scale="  111.655">  2  5  1 -1</clus>
</clustering>
</event>
<event>
 9    1  0.9000149E-006  0.1083953E+03  0.7546771E-02  0.1263613E+00
          1   -1    0    0  502    0  0.00000000000E+00  0.00000000000E+00  0.66440877791E+02  0.66440877791E+02  0.00000000000E+00 0. -1.
         -1   -1    0    0    0  501 -0.00000000000E+00 -0.00000000000E+00 -0.42066543990E+03  0.42066543990E+03  0.00000000000E+00 0.  1.
         23    2    1    2    0    0 -0.54024384944E+02 -0.24072852015E+02 -0.20577208868E+03  0.23256721461E+03  0.90814208471E+02 0.  0.
         23    2    1    2    0    0  0.67525288322E+02 -0.40826628750E+02 -0.14472176075E+03  0.18814531411E+03  0.90707182785E+02 0.  0.
        -11    1    3    3    0    0  0.23357407318E+02  0.64458341365E+01 -0.60396191935E+02  0.65075473525E+02  0.00000000000E+00 0.  1.
         11    1    3    3    0    0 -0.77381792262E+02 -0.30518686151E+02 -0.14537589675E+03  0.16749174109E+03  0.00000000000E+00 0. -1.
        -13    1    4    4    0    0  0.79951533172E+02 -0.11162253416E+02 -0.12940965275E+03  0.15252443012E+03  0.00000000000E+00 0.  1.
         13    1    4    4    0    0 -0.12426244850E+02 -0.29664375335E+02 -0.15312108004E+02  0.35620883995E+02  0.00000000000E+00 0. -1.
         21    1    1    2  502  501 -0.13500903378E+02  0.64899480765E+02 -0.37307126706E+01  0.66393788961E+02  0.00000000000E+00 0.  1.
<scales pt_clust_5="13000.00000" pt_clust_6="13000.00000" pt_clust_7="13000.00000" pt_clust_8="13000.00000" pt_clust_9="66.28889"></scales>
<clustering>
<clus scale="   66.289">  1  9  2 -1</clus>
<clus scale="   90.707">  7  8 -1 -1</clus>
<clus scale="   90.814">  5  6 -1 -1</clus>
<clus scale="  108.306">  1  7  2 -1</clus>
<clus scale="   66.289">  1  5  2 -1</clus>
</clustering>
</event>
<event>
 9    1  0.9161755E-006  0.1107377E+03  0.7546771E-02  0.1260061E+00
         -1   -1    0    0    0  501 -0.00000000000E+00  0.00000000000E+00  0.25434431819E+03  0.25434431819E+03  0.00000000000E+00 0.  1.
          1   -1    0    0  502    0  0.00000000000E+00 -0.00000000000E+00 -0.31715572595E+03  0.31715572595E+03  0.00000000000E+00 0. -1.
         23    2    1    2    0    0 -0.59692867926E+02 -0.88425187459E+01  0.22462755064E+03  0.25019768099E+03  0.92194980588E+02 0.  0.
         23    2    1    2    0    0  0.78424247298E+02  0.20065623424E+02 -0.23103213585E+03  0.26081639551E+03  0.89979734177E+02 0.  0.
        -11    1    3    3    0    0 -0.70541191952E+02  0.24012416757E+02  0.13637930039E+03  0.15540903930E+03  0.00000000000E+00 0.  1.
         11    1    3    3    0    0  0.10848324026E+02 -0.32854935503E+02  0.88248250251E+02  0.94788641690E+02  0.00000000000E+00 0. -1.
        -11    1    4    4    0    0  0.33533517989E+02 -0.19062570851E+02 -0.24092248043E+02  0.45478729666E+02  0.00000000000E+00 0.  1.
         11    1    4    4    0    0  0.44890729308E+02  0.39128194275E+02 -0.20693988780E+03  0.21533766584E+03  0.00000000000E+00 0. -1.
         21    1    1    2  502  501 -0.18731379372E+02 -0.11223104678E+02 -0.56406822558E+02  0.60485967652E+02  0.00000000000E+00 0. -1.
<scales pt_clust_5="13000.00000" pt_clust_6="13000.00000" pt_clust_7="13000.00000" pt_clust_8="13000.00000" pt_clust_9="21.83627"></scales>
<clustering>
<clus scale="   21.836">  2  9  1 -1</clus>
<clus scale="   89.980">  7  8 -1 -1</clus>
<clus scale="   92.195">  5  6 -1 -1</clus>
<clus scale="  108.900">  2  7  1 -1</clus>
<clus scale="   21.836">  2  5  1 -1</clus>
</clustering>
</event>
<event>
 9    1  0.9000149E-006  0.9685627E+02  0.7546771E-02  0.1288456E+00
          1   -1    0    0  502    0  0.00000000000E+00  0.00000000000E+00  0.11547749053E+03  0.11547749053E+03  0.00000000000E+00 0. -1.
         -1   -1    0    0    0  501 -0.00000000000E+00 -0.00000000000E+00 -0.30111105558E+03  0.30111105558E+03  0.00000000000E+00 0.  1.
         23    2    1    2    0    0  0.18080777879E+02  0.28476049379E+02 -0.14996800062E+03  0.17837433822E+03  0.90494217545E+02 0.  0.
         23    2    1    2    0    0  0.18400024525E+02 -0.24092719557E+02 -0.11483997514E+03  0.15092933042E+03  0.93125844167E+02 0.  0.
        -11    1    4    4    0    0  0.22354077390E+02 -0.54702888486E+02 -0.10118905285E+03  0.11718078000E+03  0.00000000000E+00 0.  1.
         11    1    4    4    0    0 -0.39540528646E+01  0.30610168929E+02 -0.13650922291E+02  0.33748550418E+02  0.00000000000E+00 0. -1.
        -13    1    3    3    0    0  0.24645012942E+02  0.55499706207E+02 -0.64916352764E+02  0.88891658260E+02  0.00000000000E+00 0.  1.
         13    1    3    3    0    0 -0.65642350628E+01 -0.27023656828E+02 -0.85051647853E+02  0.89482679960E+02  0.00000000000E+00 0. -1.
         21    1    1    2  502  501 -0.36480802404E+02 -0.43833298225E+01  0.79174410712E+02  0.87284877476E+02  0.00000000000E+00 0. -1.
<scales pt_clust_5="13000.00000" pt_clust_6="13000.00000" pt_clust_7="13000.00000" pt_clust_8="13000.00000" pt_clust_9="36.74320"></scales>
<clustering>
<clus scale="   36.743">  1  9  2 -1</clus>
<clus scale="   90.494">  7  8 -1 -1</clus>
<clus scale="   93.126">  5  6 -1 -1</clus>
<clus scale="   94.329">  2  7  1 -1</clus>
<clus scale="   36.743">  1  5  2 -1</clus>
</clustering>
</event>
<event>
 9    1  0.9000149E-006  0.9380390E+02  0.7546771E-02  0.1294784E+00
          1   -1    0    0  502    0  0.00000000000E+00  0.00000000000E+00  0.35697708631E+03  0.35697708631E+03  0.00000000000E+00 0. -1.
         -1   -1    0    0    0  501 -0.00000000000E+00 -0.00000000000E+00 -0.37453406245E+02  0.37453406245E+02  0.00000000000E+00 0.  1.
         23    2    1    2    0    0 -0.57168514703E+01  0.22072184433E+02  0.66781703431E+02  0.11512297860E+03  0.90959554601E+02 0.  0.
         23    2    1    2    0    0  0.27742563148E+02 -0.12749641333E+02  0.19040294810E+03  0.21253778830E+03  0.89369041881E+02 0.  0.
        -11    1    4    4    0    0 -0.14419957157E+02 -0.40968221989E+02  0.79790402146E+02  0.90845135544E+02  0.00000000000E+00 0. -1.
         11    1    4    4    0    0  0.42162520306E+02  0.28218580656E+02  0.11061254595E+03  0.12169265275E+03  0.00000000000E+00 0.  1.
        -13    1    3    3    0    0  0.12962140121E+02  0.54585906619E+02  0.36582860115E+02  0.66977189641E+02  0.00000000000E+00 0.  1.
         13    1    3    3    0    0 -0.18678991591E+02 -0.32513722187E+02  0.30198843316E+02  0.48145788964E+02  0.00000000000E+00 0. -1.
         21    1    1    2  502  501 -0.22025711678E+02 -0.93225430993E+01  0.62339028534E+02  0.66769725650E+02  0.00000000000E+00 0. -1.
<scales pt_clust_5="13000.00000" pt_clust_6="13000.00000" pt_clust_7="13000.00000" pt_clust_8="13000.00000" pt_clust_9="23.91740"></scales>
<clustering>
<clus scale="   23.917">  1  9  2 -1</clus>
<clus scale="   89.369">  5  6 -1 -1</clus>
<clus scale="   90.960">  7  8 -1 -1</clus>
<clus scale="   92.262">  1  5  2 -1</clus>
<clus scale="   23.917">  1  5  2 -1</clus>
</clustering>
</event>
<event>
 9    1  0.9000149E-006  0.1045440E+03  0.7546771E-02  0.1271527E+00
         -1   -1    0    0    0  501 -0.00000000000E+00  0.00000000000E+00  0.14867813846E+03  0.14867813846E+03  0.00000000000E+00 0.  1.
          1   -1    0    0  502    0  0.00000000000E+00 -0.00000000000E+00 -0.98009905977E+02  0.98009905977E+02  0.00000000000E+00 0. -1.
         23    2    1    2    0    0 -0.29431831969E+02 -0.29839244861E+02  0.56774130906E+02  0.11590669897E+03  0.91948070444E+02 0.  0.
         23    2    1    2    0    0  0.49420249588E+02  0.32498255241E+02 -0.26657115497E+01  0.11032548907E+03  0.93091943030E+02 0.  0.
        -11    1    3    3    0    0  0.28261822139E+02 -0.29267701836E+02  0.10695166361E+02  0.42067987174E+02  0.00000000000E+00 0. -1.
         11    1    3    3    0    0 -0.57693654108E+02 -0.57154302505E+00  0.46078964545E+02  0.73838711793E+02  0.00000000000E+00 0.  1.
        -13    1    4    4    0    0  0.40849633364E+02 -0.36397677638E+01  0.37534381716E+02  0.55594696385E+02  0.00000000000E+00 0. -1.
         13    1    4    4    0    0  0.85706162236E+01  0.36138023005E+02 -0.40200093266E+02  0.54730792684E+02  0.00000000000E+00 0.  1.
         21    1    1    2  502  501 -0.19988417619E+02 -0.26590103800E+01 -0.34401868775E+01  0.20455856396E+02  0.00000000000E+00 0.  1.
<scales pt_clust_5="13000.00000" pt_clust_6="13000.00000" pt_clust_7="13000.00000" pt_clust_8="13000.00000" pt_clust_9="20.16450"></scales>
<clustering>
<clus scale="   20.165">  2  9  1 -1</clus>
<clus scale="   91.948">  5  6 -1 -1</clus>
<clus scale="   93.092">  7  8 -1 -1</clus>
<clus scale="  103.527">  1  5  2 -1</clus>
<clus scale="   20.165">  2  5  1 -1</clus>
</clustering>
</event>
<event>
 9    1  0.9000149E-006  0.1843534E+03  0.7546771E-02  0.1163887E+00
          1   -1    0    0  502    0  0.00000000000E+00  0.00000000000E+00  0.93112380749E+02  0.93112380749E+02  0.00000000000E+00 0. -1.
         -1   -1    0    0    0  501 -0.00000000000E+00 -0.00000000000E+00 -0.85696165479E+03  0.85696165479E+03  0.00000000000E+00 0.  1.
         23    2    1    2    0    0 -0.14005992575E+03  0.79736161905E+02 -0.73441498939E+03  0.75778022263E+03  0.94291308501E+02 0.  0.
         23    2    1    2    0    0  0.12564376790E+03 -0.64393019093E+02 -0.22906052448E+02  0.17025168383E+03  0.92347881872E+02 0.  0.
        -11    1    4    4    0    0  0.81255877023E+02 -0.59994755506E+02  0.25758863113E+02  0.10423726430E+03  0.00000000000E+00 0. -1.
         11    1    4    4    0    0  0.44387890882E+02 -0.43982635867E+01 -0.48664915561E+02  0.66014419532E+02  0.00000000000E+00 0.  1.
        -13    1    3    3    0    0 -0.12499973441E+02 -0.16619112440E+02 -0.38683474828E+02  0.43918736993E+02  0.00000000000E+00 0. -1.
         13    1    3    3    0    0 -0.12755995231E+03  0.96355274345E+02 -0.69573151456E+03  0.71386148564E+03  0.00000000000E+00 0.  1.
         21    1    1    2  502  501  0.14416157846E+02 -0.15343142812E+02 -0.65282321983E+01  0.22042129072E+02  0.00000000000E+00 0.  1.
<scales pt_clust_5="13000.00000" pt_clust_6="13000.00000" pt_clust_7="13000.00000" pt_clust_8="13000.00000" pt_clust_9="21.05321"></scales>
<clustering>
<clus scale="   21.053">  1  9  2 -1</clus>
<clus scale="   92.348">  5  6 -1 -1</clus>
<clus scale="   94.291">  7  8 -1 -1</clus>
<clus scale="  183.367">  1  5  2 -1</clus>
<clus scale="   21.053">  1  5  2 -1</clus>
</clustering>
</event>
<event>
 9    1  0.9000149E-006  0.1192385E+03  0.7546771E-02  0.1244561E+00
          1   -1    0    0  502    0  0.00000000000E+00  0.00000000000E+00  0.76243718065E+03  0.76243718065E+03  0.00000000000E+00 0. -1.
         -1   -1    0    0    0  501 -0.00000000000E+00 -0.00000000000E+00 -0.27802731964E+02  0.27802731964E+02  0.00000000000E+00 0.  1.
         23    2    1    2    0    0  0.71304094800E+02  0.38291059127E+02  0.23056087071E+03  0.26082021850E+03  0.91205219872E+02 0.  0.
         23    2    1    2    0    0 -0.75472293870E+02  0.30830778180E+01  0.34139645082E+03  0.36151185989E+03  0.91835263937E+02 0.  0.
        -13    1    3    3    0    0  0.70232152698E+02 -0.11297626778E+02  0.11745493662E+03  0.13731661873E+03  0.00000000000E+00 0. -1.
         13    1    3    3    0    0  0.10719421025E+01  0.49588685906E+02  0.11310593409E+03  0.12350359977E+03  0.00000000000E+00 0.  1.
        -13    1    4    4    0    0 -0.37778693640E+02 -0.39033228741E+02  0.23318533572E+03  0.23942895279E+03  0.00000000000E+00 0. -1.
         13    1    4    4    0    0 -0.37693600231E+02  0.42116306559E+02  0.10821111510E+03  0.12208290711E+03  0.00000000000E+00 0.  1.
         21    1    1    2  502  501  0.41681990702E+01 -0.41374136945E+02  0.16267712716E+03  0.16790783422E+03  0.00000000000E+00 0. -1.
<scales pt_clust_5="13000.00000" pt_clust_6="13000.00000" pt_clust_7="13000.00000" pt_clust_8="13000.00000" pt_clust_9="41.58357"></scales>
<clustering>
<clus scale="   41.584">  1  9  2 -1</clus>
<clus scale="   91.205">  5  6 -1 -1</clus>
<clus scale="   91.835">  7  8 -1 -1</clus>
<clus scale="  118.754">  2  5  1 -1</clus>
<clus scale="   41.584">  1  5  2 -1</clus>
</clustering>
</event>
<event>
 9    1  0.9000149E-006  0.1069938E+03  0.7546771E-02  0.1267776E+00
         -1   -1    0    0    0  501 -0.00000000000E+00  0.00000000000E+00  0.34477103038E+03  0.34477103038E+03  0.00000000000E+00 0.  1.
          1   -1    0    0  502    0  0.00000000000E+00 -0.00000000000E+00 -0.88448515400E+02  0.88448515400E+02  0.00000000000E+00 0. -1.
         23    2    1    2    0    0 -0.52815969942E+02 -0.81757082756E+01  0.25368619656E+03  0.27580406679E+03  0.94100095884E+02 0.  0.
         23    2    1    2    0    0  0.44782076182E+02 -0.11514147030E+02  0.44120187184E+02  0.11079847330E+03  0.90508015331E+02 0.  0.
        -13    1    4    4    0    0  0.69488505133E+02 -0.23601952088E+02  0.37911958711E+02  0.82601580501E+02  0.00000000000E+00 0. -1.
         13    1    4    4    0    0 -0.24706428951E+02  0.12087805059E+02  0.62082284731E+01  0.28196892798E+02  0.00000000000E+00 0.  1.
        -13    1    3    3    0    0  0.85308103583E+01  0.32331877631E+02  0.99956681380E+02  0.10540143827E+03  0.00000000000E+00 0. -1.
         13    1    3    3    0    0 -0.61346780300E+02 -0.40507585907E+02  0.15372951518E+03  0.17040262852E+03  0.00000000000E+00 0.  1.
         21    1    1    2  502  501  0.80338937604E+01  0.19689855305E+02 -0.41483868771E+02  0.46617005685E+02  0.00000000000E+00 0. -1.
<scales pt_clust_5="13000.00000" pt_clust_6="13000.00000" pt_clust_7="13000.00000" pt_clust_8="13000.00000" pt_clust_9="21.26579"></scales>
<clustering>
<clus scale="   21.266">  2  9  1 -1</clus>
<clus scale="   90.508">  5  6 -1 -1</clus>
<clus scale="   94.100">  7  8 -1 -1</clus>
<clus scale="  103.849">  2  5  1 -1</clus>
<clus scale="   21.266">  2  5  1 -1</clus>
</clustering>
</event>
<event>
 9    1  0.9000149E-006  0.1520459E+03  0.7546771E-02  0.1198473E+00
         -1   -1    0    0    0  501 -0.00000000000E+00  0.00000000000E+00  0.35577886036E+02  0.35577886036E+02  0.00000000000E+00 0.  1.
          1   -1    0    0  502    0  0.00000000000E+00 -0.00000000000E+00 -0.82577387583E+03  0.82577387583E+03  0.00000000000E+00 0. -1.
         23    2    1    2    0    0 -0.66642747208E+02 -0.85606731120E+02 -0.22286844670E+03  0.26376860069E+03  0.90187371655E+02 0.  0.
         23    2    1    2    0    0  0.65129751630E+02  0.10944502994E+03 -0.53260408410E+03  0.55543731618E+03  0.92862278013E+02 0.  0.
        -11    1    3    3    0    0 -0.43970619857E-02 -0.69681255781E+02 -0.13886480460E+03  0.15536702155E+03  0.00000000000E+00 0. -1.
         11    1    3    3    0    0 -0.66638350146E+02 -0.15925475339E+02 -0.84003642094E+02  0.10840157914E+03  0.00000000000E+00 0.  1.
        -13    1    4    4    0    0  0.56111298087E+02  0.62787594560E+02 -0.46641716499E+03  0.47395752088E+03  0.00000000000E+00 0. -1.
         13    1    4    4    0    0  0.90184535432E+01  0.46657435377E+02 -0.66186919113E+02  0.81479795299E+02  0.00000000000E+00 0.  1.
         21    1    1    2  502  501  0.15129955778E+01 -0.23838298817E+02 -0.34723458992E+02  0.42145844997E+02  0.00000000000E+00 0. -1.
<scales pt_clust_5="13000.00000" pt_clust_6="13000.00000" pt_clust_7="13000.00000" pt_clust_8="13000.00000" pt_clust_9="23.88626"></scales>
<clustering>
<clus scale="   23.886">  1  9  2 -1</clus>
<clus scale="   90.187">  5  6 -1 -1</clus>
<clus scale="   92.862">  7  8 -1 -1</clus>
<clus scale="  150.427">  1  5  2 -1</clus>
<clus scale="  152.046">  2  5  1 -1</clus>
</clustering>
</event>
<event>
 9    1  0.9000149E-006  0.1197734E+03  0.7546771E-02  0.1244169E+00
         -2   -1    0    0    0  501 -0.00000000000E+00  0.00000000000E+00  0.23383963552E+03  0.23383963552E+03  0.00000000000E+00 0.  1.
          2   -1    0    0  502    0  0.00000000000E+00 -0.00000000000E+00 -0.19734513427E+03  0.19734513427E+03  0.00000000000E+00 0. -1.
         23    2    1    2    0    0  0.24913264171E+01  0.81215256782E+02  0.16231296283E+03  0.20326111491E+03  0.91473812040E+02 0.  0.
         23    2    1    2    0    0 -0.43657609247E+02 -0.59467135459E+02 -0.27335126151E+02  0.11898967954E+03  0.89269298594E+02 0.  0.
        -11    1    3    3    0    0  0.26049911176E+02  0.92592142810E+02  0.12803349758E+03  0.16013893744E+03  0.00000000000E+00 0.  1.
         11    1    3    3    0    0 -0.23558584759E+02 -0.11376886028E+02  0.34279465257E+02  0.43122177471E+02  0.00000000000E+00 0. -1.
        -13    1    4    4    0    0 -0.26367078551E+02 -0.30346819595E+02  0.31520911635E+02  0.51085420241E+02  0.00000000000E+00 0.  1.
         13    1    4    4    0    0 -0.17290530695E+02 -0.29120315864E+02 -0.58856037785E+02  0.67904259303E+02  0.00000000000E+00 0. -1.
         21    1    1    2  502  501  0.41166282829E+02 -0.21748121322E+02 -0.98483335434E+02  0.10893397533E+03  0.00000000000E+00 0. -1.
<scales pt_clust_5="13000.00000" pt_clust_6="13000.00000" pt_clust_7="13000.00000" pt_clust_8="13000.00000" pt_clust_9="46.55796"></scales>
<clustering>
<clus scale="   46.558">  2  9  1 -1</clus>
<clus scale="   89.269">  7  8 -1 -1</clus>
<clus scale="   91.474">  5  6 -1 -1</clus>
<clus scale="  118.098">  2  7  1 -1</clus>
<clus scale="   46.558">  2  5  1 -1</clus>
</clustering>
</event>
<event>
 9    1  0.9000149E-006  0.1105141E+03  0.7546771E-02  0.1268349E+00
          1   -1    0    0  502    0  0.00000000000E+00  0.00000000000E+00  0.20932059519E+03  0.20932059519E+03  0.00000000000E+00 0. -1.
         -1   -1    0    0    0  501 -0.00000000000E+00 -0.00000000000E+00 -0.14786977154E+03  0.14786977154E+03  0.00000000000E+00 0.  1.
         23    2    1    2    0    0 -0.60797194509E+02 -0.40236409153E+02 -0.53482338148E+02  0.11579607317E+03  0.72340186524E+02 0.  0.
         23    2    1    2    0    0 -0.32580500781E+02 -0.79270334639E+01  0.97525374332E+02  0.13489479945E+03  0.86954478832E+02 0.  0.
        -11    1    3    3    0    0 -0.57926697671E+02 -0.93463624191E+00 -0.13148928443E+02  0.59407660846E+02  0.00000000000E+00 0. -1.
         11    1    3    3    0    0 -0.28704968375E+01 -0.39301772911E+02 -0.40333409705E+02  0.56388412325E+02  0.00000000000E+00 0.  1.
        -13    1    4    4    0    0 -0.47097371637E+02 -0.35597090100E+02  0.46881056233E+02  0.75386661102E+02  0.00000000000E+00 0. -1.
         13    1    4    4    0    0  0.14516870855E+02  0.27670056636E+02  0.50644318099E+02  0.59508138346E+02  0.00000000000E+00 0.  1.
         21    1    1    2  502  501  0.93377695290E+02  0.48163442617E+02  0.17407787469E+02  0.10649949412E+03  0.00000000000E+00 0. -1.
<scales pt_clust_5="13000.00000" pt_clust_6="13000.00000" pt_clust_7="13000.00000" pt_clust_8="13000.00000" pt_clust_9="83.54797"></scales>
<clustering>
<clus scale="   72.340">  5  6 -1 -1</clus>
<clus scale="   86.954">  7  8 -1 -1</clus>
<clus scale="   93.196">  1  7  2 -1</clus>
<clus scale="   83.548">  1  9  2 -1</clus>
<clus scale="   93.196">  1  5  2 -1</clus>
</clustering>
</event>
<event>
 9    1  0.9000149E-006  0.9660709E+02  0.7546771E-02  0.1290182E+00
         -1   -1    0    0    0  501 -0.00000000000E+00  0.00000000000E+00  0.36508997346E+03  0.36508997346E+03  0.00000000000E+00 0.  1.
          1   -1    0    0  502    0  0.00000000000E+00 -0.00000000000E+00 -0.53287918350E+02  0.53287918350E+02  0.00000000000E+00 0. -1.
         23    2    1    2    0    0  0.52443472202E+01 -0.83511865431E+01  0.20122607420E+03  0.22292968160E+03  0.95438275910E+02 0.  0.
         23    2    1    2    0    0  0.99044098298E+01  0.24050663599E+02  0.13367206866E+03  0.16367734793E+03  0.90804848615E+02 0.  0.
        -13    1    3    3    0    0  0.17813483820E+01 -0.40614387266E+02  0.35238270216E+02  0.53799975306E+02  0.00000000000E+00 0. -1.
         13    1    3    3    0    0  0.34629988382E+01  0.32263200723E+02  0.16598780398E+03  0.16912970630E+03  0.00000000000E+00 0.  1.
        -13    1    4    4    0    0 -0.12204839340E+02  0.43657366357E+02  0.26506337886E+02  0.52511995665E+02  0.00000000000E+00 0.  1.
         13    1    4    4    0    0  0.22109249170E+02 -0.19606702759E+02  0.10716573077E+03  0.11116535227E+03  0.00000000000E+00 0. -1.
         21    1    1    2  502  501 -0.15148757050E+02 -0.15699477056E+02 -0.23096087752E+02  0.31770862271E+02  0.00000000000E+00 0. -1.
<scales pt_clust_5="13000.00000" pt_clust_6="13000.00000" pt_clust_7="13000.00000" pt_clust_8="13000.00000" pt_clust_9="21.81647"></scales>
<clustering>
<clus scale="   21.816">  2  9  1 -1</clus>
<clus scale="   90.805">  7  8 -1 -1</clus>
<clus scale="   92.033">  2  7  1 -1</clus>
<clus scale="   95.438">  5  6 -1 -1</clus>
<clus scale="   21.816">  2  5  1 -1</clus>
</clustering>
</event>
<event>
 9    1  0.9000149E-006  0.1226424E+03  0.7546771E-02  0.1239552E+00
          1   -1    0    0  502    0  0.00000000000E+00  0.00000000000E+00  0.39984597129E+03  0.39984597129E+03  0.00000000000E+00 0. -1.
         -1   -1    0    0    0  501 -0.00000000000E+00 -0.00000000000E+00 -0.53689524699E+02  0.53689524699E+02  0.00000000000E+00 0.  1.
         23    2    1    2    0    0  0.85054706360E+01  0.84290758199E+02  0.71018053759E+02  0.14468619529E+03  0.93344824167E+02 0.  0.
         23    2    1    2    0    0 -0.13607188885E+02 -0.58895970853E+02  0.20681319211E+03  0.23577908921E+03  0.95740229299E+02 0.  0.
        -13    1    3    3    0    0 -0.25244767643E+02  0.88392284693E+02  0.48863982135E+02  0.10410659459E+03  0.00000000000E+00 0.  1.
         13    1    3    3    0    0  0.33750238279E+02 -0.41015264942E+01  0.22154071624E+02  0.40579600700E+02  0.00000000000E+00 0. -1.
        -13    1    4    4    0    0 -0.10991223187E+01 -0.36702352081E+02  0.20707176624E+03  0.21030213288E+03  0.00000000000E+00 0. -1.
         13    1    4    4    0    0 -0.12508066567E+02 -0.22193618772E+02 -0.25857413197E+00  0.25476956334E+02  0.00000000000E+00 0.  1.
         21    1    1    2  502  501  0.51017182494E+01 -0.25394787346E+02  0.68325200718E+02  0.73070211486E+02  0.00000000000E+00 0.  1.
<scales pt_clust_5="13000.00000" pt_clust_6="13000.00000" pt_clust_7="13000.00000" pt_clust_8="13000.00000" pt_clust_9="25.90218"></scales>
<clustering>
<clus scale="   25.902">  1  9  2 -1</clus>
<clus scale="   93.345">  5  6 -1 -1</clus>
<clus scale="   95.740">  7  8 -1 -1</clus>
<clus scale="  120.782">  2  5  1 -1</clus>
<clus scale="   25.902">  1  5  2 -1</clus>
</clustering>
</event>
<event>
 9    1  0.9000149E-006  0.9453800E+02  0.7546771E-02  0.1292447E+00
         -2   -1    0    0    0  501 -0.00000000000E+00  0.00000000000E+00  0.36750802227E+02  0.36750802227E+02  0.00000000000E+00 0.  1.
          2   -1    0    0  502    0  0.00000000000E+00 -0.00000000000E+00 -0.63428125337E+03  0.63428125337E+03  0.00000000000E+00 0. -1.
         23    2    1    2    0    0 -0.18224663557E+02  0.33299506509E+00 -0.62315772727E+02  0.11331362998E+03  0.92868045967E+02 0.  0.
         23    2    1    2    0    0  0.50898104978E+01 -0.36072617411E+02 -0.23571237317E+03  0.25580539870E+03  0.92460473952E+02 0.  0.
        -13    1    4    4    0    0  0.14008029099E+02  0.15681450046E+02 -0.86294133490E+01  0.22728825960E+02  0.00000000000E+00 0.  1.
         13    1    4    4    0    0 -0.89182186012E+01 -0.51754067457E+02 -0.22708295982E+03  0.23307657274E+03  0.00000000000E+00 0. -1.
        -13    1    3    3    0    0 -0.51439419117E+02  0.25677543056E+01 -0.61223622108E+02  0.80005869193E+02  0.00000000000E+00 0. -1.
         13    1    3    3    0    0  0.33214755560E+02 -0.22347592405E+01 -0.10921506185E+01  0.33307760789E+02  0.00000000000E+00 0.  1.
         21    1    1    2  502  501  0.13134853059E+02  0.35739622346E+02 -0.29950230525E+03  0.30191302692E+03  0.00000000000E+00 0. -1.
<scales pt_clust_5="13000.00000" pt_clust_6="13000.00000" pt_clust_7="13000.00000" pt_clust_8="13000.00000" pt_clust_9="38.07683"></scales>
<clustering>
<clus scale="   38.077">  2  9  1 -1</clus>
<clus scale="   92.460">  5  6 -1 -1</clus>
<clus scale="   92.868">  7  8 -1 -1</clus>
<clus scale="   94.138">  2  5  1 -1</clus>
<clus scale="   38.077">  2  5  1 -1</clus>
</clustering>
</event>
<event>
 9    1  0.9000149E-006  0.1132625E+03  0.7546771E-02  0.1256867E+00
          1   -1    0    0  502    0  0.00000000000E+00  0.00000000000E+00  0.26328517661E+03  0.26328517661E+03  0.00000000000E+00 0. -1.
         -1   -1    0    0    0  501 -0.00000000000E+00 -0.00000000000E+00 -0.23033289532E+03  0.23033289532E+03  0.00000000000E+00 0.  1.
         23    2    1    2    0    0 -0.62002840323E+02  0.25627495973E+02 -0.10240928451E+03  0.15717511212E+03  0.98565884345E+02 0.  0.
         23    2    1    2    0    0  0.27988977562E+02 -0.40075773762E+02 -0.71031440184E+02  0.12676757140E+03  0.92925244985E+02 0.  0.
        -11    1    3    3    0    0 -0.57126807618E+02 -0.20428237082E+02 -0.91180521894E+02  0.10952019262E+03  0.00000000000E+00 0.  1.
         11    1    3    3    0    0 -0.48760327051E+01  0.46055733055E+02 -0.11228762616E+02  0.47654919494E+02  0.00000000000E+00 0. -1.
        -13    1    4    4    0    0 -0.17084019106E+01 -0.37090345001E+02 -0.85783278288E+02  0.93473970511E+02  0.00000000000E+00 0.  1.
         13    1    4    4    0    0  0.29697379472E+02 -0.29854287607E+01  0.14751838104E+02  0.33293600884E+02  0.00000000000E+00 0. -1.
         21    1    1    2  502  501  0.34013862762E+02  0.14448277789E+02  0.20639300599E+03  0.20967538842E+03  0.00000000000E+00 0. -1.
<scales pt_clust_5="13000.00000" pt_clust_6="13000.00000" pt_clust_7="13000.00000" pt_clust_8="13000.00000" pt_clust_9="36.95532"></scales>
<clustering>
<clus scale="   36.955">  1  9  2 -1</clus>
<clus scale="   92.925">  7  8 -1 -1</clus>
<clus scale="   98.566">  5  6 -1 -1</clus>
<clus scale="  108.389">  1  7  2 -1</clus>
<clus scale="   36.955">  1  5  2 -1</clus>
</clustering>
</event>
<event>
 9    1  0.9000149E-006  0.1083306E+03  0.7546771E-02  0.1264196E+00
         -2   -1    0    0    0  501 -0.00000000000E+00  0.00000000000E+00  0.40782388000E+03  0.40782388000E+03  0.00000000000E+00 0.  1.
          2   -1    0    0  502    0  0.00000000000E+00 -0.00000000000E+00 -0.38834938461E+02  0.38834938461E+02  0.00000000000E+00 0. -1.
         23    2    1    2    0    0 -0.56474754174E+01  0.61843747705E+02  0.19111495857E+03  0.22120214684E+03  0.92460365931E+02 0.  0.
         23    2    1    2    0    0 -0.17906084351E+02 -0.45864508150E+02  0.16003343275E+03  0.19186513241E+03  0.93687504351E+02 0.  0.
        -11    1    4    4    0    0  0.30822144358E+02  0.55713790070E+01  0.74373795202E+02  0.80700100741E+02  0.00000000000E+00 0.  1.
         11    1    4    4    0    0 -0.48728228709E+02 -0.51435887157E+02  0.85659637551E+02  0.11116503167E+03  0.00000000000E+00 0. -1.
        -13    1    3    3    0    0  0.39742023854E+02  0.37689259341E+02  0.64942195035E+02  0.84955267203E+02  0.00000000000E+00 0.  1.
         13    1    3    3    0    0 -0.45389499271E+02  0.24154488364E+02  0.12617276354E+03  0.13624687964E+03  0.00000000000E+00 0. -1.
         21    1    1    2  502  501  0.23553559769E+02 -0.15979239555E+02  0.17840550214E+02  0.33591539210E+02  0.00000000000E+00 0. -1.
<scales pt_clust_5="13000.00000" pt_clust_6="13000.00000" pt_clust_7="13000.00000" pt_clust_8="13000.00000" pt_clust_9="28.46237"></scales>
<clustering>
<clus scale="   28.462">  2  9  1 -1</clus>
<clus scale="   92.460">  7  8 -1 -1</clus>
<clus scale="   93.688">  5  6 -1 -1</clus>
<clus scale="  107.271">  1  7  2 -1</clus>
<clus scale="   28.462">  2  5  1 -1</clus>
</clustering>
</event>
<event>
 9    1  0.1066743E-005  0.9439739E+02  0.7546771E-02  0.1293258E+00
          2   -1    0    0  502    0  0.00000000000E+00  0.00000000000E+00  0.61452501715E+03  0.61452501715E+03  0.00000000000E+00 0. -1.
         -2   -1    0    0    0  501 -0.00000000000E+00 -0.00000000000E+00 -0.34638804946E+02  0.34638804946E+02  0.00000000000E+00 0.  1.
         23    2    1    2    0    0  0.11816388491E+02  0.22190421440E+02  0.48516938787E+02  0.10570097772E+03  0.90480724473E+02 0.  0.
         23    2    1    2    0    0 -0.12675246133E+01 -0.37956127074E+01  0.45638461714E+03  0.46553758406E+03  0.91773144882E+02 0.  0.
        -13    1    3    3    0    0  0.50932676881E+02  0.15519840219E+02  0.20179607516E+02  0.56940491517E+02  0.00000000000E+00 0.  1.
         13    1    3    3    0    0 -0.39116288390E+02  0.66705812208E+01  0.28337331271E+02  0.48760486203E+02  0.00000000000E+00 0. -1.
        -13    1    4    4    0    0 -0.94655939347E+01  0.43118976780E+02  0.22980172753E+03  0.23400358459E+03  0.00000000000E+00 0.  1.
         13    1    4    4    0    0  0.81980693213E+01 -0.46914589488E+02  0.22658288961E+03  0.23153399947E+03  0.00000000000E+00 0. -1.
         21    1    1    2  502  501 -0.10548863877E+02 -0.18394808733E+02  0.74984656277E+02  0.77925260311E+02  0.00000000000E+00 0. -1.
<scales pt_clust_5="13000.00000" pt_clust_6="13000.00000" pt_clust_7="13000.00000" pt_clust_8="13000.00000" pt_clust_9="21.20489"></scales>
<clustering>
<clus scale="   21.205">  1  9  2 -1</clus>
<clus scale="   90.481">  5  6 -1 -1</clus>
<clus scale="   91.773">  7  8 -1 -1</clus>
<clus scale="   93.141">  2  5  1 -1</clus>
<clus scale="   21.205">  1  5  2 -1</clus>
</clustering>
</event>
<event>
 9    1  0.9000149E-006  0.9278370E+02  0.7546771E-02  0.1297912E+00
         -1   -1    0    0    0  501 -0.00000000000E+00  0.00000000000E+00  0.18205921534E+02  0.18205921534E+02  0.00000000000E+00 0.  1.
          1   -1    0    0  502    0  0.00000000000E+00 -0.00000000000E+00 -0.64476414063E+03  0.64476414063E+03  0.00000000000E+00 0. -1.
         23    2    1    2    0    0 -0.88535763743E+01 -0.73500455540E+01 -0.22006937150E+03  0.23802033601E+03  0.89948558066E+02 0.  0.
         23    2    1    2    0    0 -0.11060570180E+02 -0.14053354318E+02 -0.30030957406E+03  0.31481927220E+03  0.92765839064E+02 0.  0.
        -11    1    4    4    0    0 -0.43980101252E+02  0.13884991696E+02 -0.10320779223E+03  0.11304375559E+03  0.00000000000E+00 0.  1.
         11    1    4    4    0    0  0.32919531072E+02 -0.27938346014E+02 -0.19710178183E+03  0.20177551661E+03  0.00000000000E+00 0. -1.
        -13    1    3    3    0    0 -0.38998604750E+02 -0.87001824693E+01 -0.44211144996E+02  0.59592027062E+02  0.00000000000E+00 0.  1.
         13    1    3    3    0    0  0.30145028376E+02  0.13501369153E+01 -0.17585822650E+03  0.17842830895E+03  0.00000000000E+00 0. -1.
         21    1    1    2  502  501  0.19914146554E+02  0.21403399872E+02 -0.10617927354E+03  0.11013045396E+03  0.00000000000E+00 0.  1.
<scales pt_clust_5="13000.00000" pt_clust_6="13000.00000" pt_clust_7="13000.00000" pt_clust_8="13000.00000" pt_clust_9="29.23489"></scales>
<clustering>
<clus scale="   29.235">  2  9  1 -1</clus>
<clus scale="   89.949">  7  8 -1 -1</clus>
<clus scale="   89.967">  1  7  2 -1</clus>
<clus scale="   92.766">  5  6 -1 -1</clus>
<clus scale="   29.235">  2  5  1 -1</clus>
</clustering>
</event>
<event>
 9    1  0.9000149E-006  0.9779438E+02  0.7546771E-02  0.1290666E+00
         -1   -1    0    0    0  501 -0.00000000000E+00  0.00000000000E+00  0.14982198356E+03  0.14982198356E+03  0.00000000000E+00 0.  1.
          1   -1    0    0  502    0  0.00000000000E+00 -0.00000000000E+00 -0.12796463446E+03  0.12796463446E+03  0.00000000000E+00 0. -1.
         23    2    1    2    0    0 -0.31224890866E+01  0.49206679663E+02  0.75857938779E+02  0.12706882021E+03  0.89224497382E+02 0.  0.
         23    2    1    2    0    0  0.17402066771E+02 -0.23656773536E+02  0.61417205582E+01  0.83831315451E+02  0.78278310257E+02 0.  0.
        -11    1    3    3    0    0 -0.43193237699E+02  0.81866417046E+01  0.40002797707E+02  0.59438209173E+02  0.00000000000E+00 0. -1.
         11    1    3    3    0    0  0.40070748612E+02  0.41020037959E+02  0.35855141072E+02  0.67630611041E+02  0.00000000000E+00 0.  1.
        -11    1    4    4    0    0  0.46952285965E+02 -0.10828511820E+02 -0.76505957750E+01  0.48788374038E+02  0.00000000000E+00 0.  1.
         11    1    4    4    0    0 -0.29550219193E+02 -0.12828261717E+02  0.13792316333E+02  0.35042941413E+02  0.00000000000E+00 0. -1.
         21    1    1    2  502  501 -0.14279577685E+02 -0.25549906127E+02 -0.60142310232E+02  0.66886482357E+02  0.00000000000E+00 0. -1.
<scales pt_clust_5="13000.00000" pt_clust_6="13000.00000" pt_clust_7="13000.00000" pt_clust_8="13000.00000" pt_clust_9="29.26951"></scales>
<clustering>
<clus scale="   29.270">  2  9  1 -1</clus>
<clus scale="   78.278">  7  8 -1 -1</clus>
<clus scale="   87.922">  2  7  1 -1</clus>
<clus scale="   89.224">  5  6 -1 -1</clus>
<clus scale="   29.270">  2  5  1 -1</clus>
</clustering>
</event>
<event>
 9    1  0.9000149E-006  0.9360231E+02  0.7546771E-02  0.1296794E+00
         -1   -1    0    0    0  501 -0.00000000000E+00  0.00000000000E+00  0.22650470294E+03  0.22650470294E+03  0.00000000000E+00 0.  1.
          1   -1    0    0  502    0  0.00000000000E+00 -0.00000000000E+00 -0.76823215722E+02  0.76823215722E+02  0.00000000000E+00 0. -1.
         23    2    1    2    0    0  0.21870089617E+02 -0.11657860292E+01  0.15207024776E+03  0.17704145549E+03  0.87969635850E+02 0.  0.
         23    2    1    2    0    0  0.81719189253E+01  0.13232858706E+02 -0.62037026813E+01  0.93687532150E+02  0.92179059146E+02 0.  0.
        -11    1    4    4    0    0  0.16955257237E+02 -0.26981223588E+02  0.26237557834E+02  0.41278040353E+02  0.00000000000E+00 0.  1.
         11    1    4    4    0    0 -0.87833383120E+01  0.40214082294E+02 -0.32441260515E+02  0.52409491797E+02  0.00000000000E+00 0. -1.
        -11    1    3    3    0    0  0.49519981779E+02 -0.12010165922E+02  0.52609620833E+02  0.73241005489E+02  0.00000000000E+00 0.  1.
         11    1    3    3    0    0 -0.27649892162E+02  0.10844379892E+02  0.99460626926E+02  0.10380045000E+03  0.00000000000E+00 0. -1.
         21    1    1    2  502  501 -0.30042008543E+02 -0.12067072677E+02  0.38149421404E+01  0.32598931022E+02  0.00000000000E+00 0.  1.
<scales pt_clust_5="13000.00000" pt_clust_6="13000.00000" pt_clust_7="13000.00000" pt_clust_8="13000.00000" pt_clust_9="32.37494"></scales>
<clustering>
<clus scale="   32.375">  2  9  1 -1</clus>
<clus scale="   87.970">  7  8 -1 -1</clus>
<clus scale="   89.460">  1  7  2 -1</clus>
<clus scale="   92.179">  5  6 -1 -1</clus>
<clus scale="   32.375">  2  5  1 -1</clus>
</clustering>
</event>
<event>
 9    1  0.9000149E-006  0.9809719E+02  0.7546771E-02  0.1285617E+00
         -4   -1    0    0    0  501 -0.00000000000E+00  0.00000000000E+00  0.51634026798E+03  0.51634026798E+03  0.00000000000E+00 0.  1.
          4   -1    0    0  502    0  0.00000000000E+00 -0.00000000000E+00 -0.54964850313E+02  0.54964850313E+02  0.00000000000E+00 0. -1.
         23    2    1    2    0    0 -0.19668105127E+02 -0.26300361520E+02  0.42316679073E+03  0.43372938956E+03  0.89288897476E+02 0.  0.
         23    2    1    2    0    0  0.43344782967E+02  0.29042429268E+02  0.19681096854E+02  0.10738676751E+03  0.91773304145E+02 0.  0.
        -11    1    4    4    0    0 -0.20106333399E+02  0.24388027739E+02 -0.14934055843E+02  0.34958068649E+02  0.00000000000E+00 0.  1.
         11    1    4    4    0    0  0.63451116366E+02  0.46544015296E+01  0.34615152698E+02  0.72428698856E+02  0.00000000000E+00 0. -1.
        -13    1    3    3    0    0  0.18297836550E+02 -0.46777362458E+02  0.26861036395E+03  0.27326628054E+03  0.00000000000E+00 0.  1.
         13    1    3    3    0    0 -0.37965941678E+02  0.20477000938E+02  0.15455642679E+03  0.16046310902E+03  0.00000000000E+00 0. -1.
         21    1    1    2  502  501 -0.23676677839E+02 -0.27420677488E+01  0.18527530074E+02  0.30188961223E+02  0.00000000000E+00 0.  1.
<scales pt_clust_5="13000.00000" pt_clust_6="13000.00000" pt_clust_7="13000.00000" pt_clust_8="13000.00000" pt_clust_9="23.83493"></scales>
<clustering>
<clus scale="   23.835">  2  9  1 -1</clus>
<clus scale="   89.289">  7  8 -1 -1</clus>
<clus scale="   91.773">  5  6 -1 -1</clus>
<clus scale="   95.777">  1  7  2 -1</clus>
<clus scale="   23.835">  2  5  1 -1</clus>
</clustering>
</event>
<event>
 9    1  0.9000149E-006  0.1709862E+03  0.7546771E-02  0.1177212E+00
          2   -1    0    0  502    0  0.00000000000E+00  0.00000000000E+00  0.36882012202E+03  0.36882012202E+03  0.00000000000E+00 0. -1.
         -2   -1    0    0    0  501 -0.00000000000E+00 -0.00000000000E+00 -0.91330168850E+02  0.91330168850E+02  0.00000000000E+00 0.  1.
         23    2    1    2    0    0  0.21301640200E+02  0.15065702642E+03  0.12200971472E+03  0.21639525928E+03  0.93750937419E+02 0.  0.
         23    2    1    2    0    0 -0.19122462905E+01 -0.13433709847E+03  0.13142550868E+03  0.20881338498E+03  0.90995893867E+02 0.  0.
        -11    1    3    3    0    0  0.54694996316E+02  0.61215849289E+02  0.44212242507E+02  0.93239719078E+02  0.00000000000E+00 0.  1.
         11    1    3    3    0    0 -0.33393356116E+02  0.89441177128E+02  0.77797472213E+02  0.12315554020E+03  0.00000000000E+00 0. -1.
        -13    1    4    4    0    0  0.80818221560E+01 -0.88325066331E+02  0.24555077040E+02  0.92030348257E+02  0.00000000000E+00 0.  1.
         13    1    4    4    0    0 -0.99940684465E+01 -0.46012032140E+02  0.10687043164E+03  0.11678303672E+03  0.00000000000E+00 0. -1.
         21    1    1    2  502  501 -0.19389393909E+02 -0.16319927945E+02  0.24054729769E+02  0.34941646621E+02  0.00000000000E+00 0. -1.
<scales pt_clust_5="13000.00000" pt_clust_6="13000.00000" pt_clust_7="13000.00000" pt_clust_8="13000.00000" pt_clust_9="25.34341"></scales>
<clustering>
<clus scale="   25.343">  1  9  2 -1</clus>
<clus scale="   90.996">  7  8 -1 -1</clus>
<clus scale="   93.751">  5  6 -1 -1</clus>
<clus scale="  169.491">  1  7  2 -1</clus>
<clus scale="   25.343">  1  5  2 -1</clus>
</clustering>
</event>
<event>
 9    1  0.9000149E-006  0.9906104E+02  0.7546771E-02  0.1294689E+00
          1   -1    0    0  502    0  0.00000000000E+00  0.00000000000E+00  0.16088184103E+03  0.16088184103E+03  0.00000000000E+00 0. -1.
         -1   -1    0    0    0  501 -0.00000000000E+00 -0.00000000000E+00 -0.25881417015E+03  0.25881417015E+03  0.00000000000E+00 0.  1.
         23    2    1    2    0    0 -0.35628143870E+02  0.42614736182E+01 -0.18026868868E+03  0.19576263525E+03  0.67369759168E+02 0.  0.
         23    2    1    2    0    0  0.10172578238E+03  0.19831994874E+02  0.60061035371E+02  0.15013918165E+03  0.90515209080E+02 0.  0.
        -13    1    3    3    0    0 -0.35197214588E+02 -0.24349225673E+02 -0.13976615543E+03  0.14617218241E+03  0.00000000000E+00 0.  1.
         13    1    3    3    0    0 -0.43092928181E+00  0.28610699291E+02 -0.40502533245E+02  0.49590452844E+02  0.00000000000E+00 0. -1.
        -13    1    4    4    0    0  0.68215997857E+02  0.19309480925E+02 -0.10836402074E+02  0.71719634878E+02  0.00000000000E+00 0.  1.
         13    1    4    4    0    0  0.33509784528E+02  0.52251394945E+00  0.70897437445E+02  0.78419546774E+02  0.00000000000E+00 0. -1.
         21    1    1    2  502  501 -0.66097638515E+02 -0.24093468492E+02  0.22275324191E+02  0.73794194277E+02  0.00000000000E+00 0.  1.
<scales pt_clust_5="13000.00000" pt_clust_6="13000.00000" pt_clust_7="13000.00000" pt_clust_8="13000.00000" pt_clust_9="70.35192"></scales>
<clustering>
<clus scale="   67.370">  5  6 -1 -1</clus>
<clus scale="   70.352">  1  9  2 -1</clus>
<clus scale="   78.478">  2  5  1 -1</clus>
<clus scale="   90.515">  7  8 -1 -1</clus>
<clus scale="   70.352">  1  5  2 -1</clus>
</clustering>
</event>
<event>
 9    1  0.9000149E-006  0.1236188E+03  0.7546771E-02  0.1245564E+00
          2   -1    0    0  502    0  0.00000000000E+00  0.00000000000E+00  0.83460876180E+03  0.83460876180E+03  0.00000000000E+00 0. -1.
         -2   -1    0    0    0  501 -0.00000000000E+00 -0.00000000000E+00 -0.33367323239E+02  0.33367323239E+02  0.00000000000E+00 0.  1.
         23    2    1    2    0    0  0.22945219066E+02 -0.33950686911E+02  0.13484057618E+03  0.16798954486E+03  0.91429612160E+02 0.  0.
         23    2    1    2    0    0  0.13189186064E+02  0.85760492949E+02  0.35954980075E+03  0.38670148586E+03  0.11284131851E+03 0.  0.
        -11    1    4    4    0    0 -0.38679066203E+02  0.18785965088E+02  0.50868676126E+02  0.66607843813E+02  0.00000000000E+00 0.  1.
         11    1    4    4    0    0  0.51868252267E+02  0.66974527861E+02  0.30868112463E+03  0.32009364204E+03  0.00000000000E+00 0. -1.
        -13    1    3    3    0    0  0.25035278502E+02 -0.63237957884E+02  0.11094541114E+03  0.13013334984E+03  0.00000000000E+00 0. -1.
         13    1    3    3    0    0 -0.20900594364E+01  0.29287270974E+02  0.23895165035E+02  0.37856195023E+02  0.00000000000E+00 0.  1.
         21    1    1    2  502  501 -0.36134405129E+02 -0.51809806039E+02  0.30685106163E+03  0.31328505431E+03  0.00000000000E+00 0. -1.
<scales pt_clust_5="13000.00000" pt_clust_6="13000.00000" pt_clust_7="13000.00000" pt_clust_8="13000.00000" pt_clust_9="63.16606"></scales>
<clustering>
<clus scale="   63.166">  1  9  2 -1</clus>
<clus scale="   91.430">  7  8 -1 -1</clus>
<clus scale="  104.440">  2  7  1 -1</clus>
<clus scale="  112.841">  5  6 -1 -1</clus>
<clus scale="   63.166">  1  5  2 -1</clus>
</clustering>
</event>
<event>
 9    1  0.9000149E-006  0.9449809E+02  0.7546771E-02  0.1293417E+00
         -2   -1    0    0    0  501 -0.00000000000E+00  0.00000000000E+00  0.17821474228E+03  0.17821474228E+03  0.00000000000E+00 0.  1.
          2   -1    0    0  502    0  0.00000000000E+00 -0.00000000000E+00 -0.26399481186E+03  0.26399481186E+03  0.00000000000E+00 0. -1.
         23    2    1    2    0    0  0.14117688962E+02 -0.25306252079E+02  0.13787139258E+03  0.16787288103E+03  0.91285638288E+02 0.  0.
         23    2    1    2    0    0  0.63584173628E+01  0.22529943280E+01 -0.59950750937E+02  0.10775742327E+03  0.89286417092E+02 0.  0.
        -11    1    3    3    0    0  0.52431496913E+02 -0.23335762603E+02  0.84313696444E+02  0.10199225016E+03  0.00000000000E+00 0.  1.
         11    1    3    3    0    0 -0.38313807950E+02 -0.19704894767E+01  0.53557696137E+02  0.65880630871E+02  0.00000000000E+00 0. -1.
        -13    1    4    4    0    0  0.20833469050E+02  0.26911141556E+02  0.71879486676E+01  0.34783754521E+02  0.00000000000E+00 0.  1.
         13    1    4    4    0    0 -0.14475051687E+02 -0.24658147228E+02 -0.67138699605E+02  0.72973668749E+02  0.00000000000E+00 0. -1.
         21    1    1    2  502  501 -0.20476106325E+02  0.23053257751E+02 -0.16370071122E+03  0.16657924984E+03  0.00000000000E+00 0. -1.
<scales pt_clust_5="13000.00000" pt_clust_6="13000.00000" pt_clust_7="13000.00000" pt_clust_8="13000.00000" pt_clust_9="30.83381"></scales>
<clustering>
<clus scale="   30.834">  2  9  1 -1</clus>
<clus scale="   89.286">  7  8 -1 -1</clus>
<clus scale="   91.286">  5  6 -1 -1</clus>
<clus scale="   92.568">  2  7  1 -1</clus>
<clus scale="   30.834">  2  5  1 -1</clus>
</clustering>
</event>
<event>
 9    1  0.9000149E-006  0.9584255E+02  0.7546771E-02  0.1296119E+00
          2   -1    0    0  502    0  0.00000000000E+00  0.00000000000E+00  0.12594757472E+03  0.12594757472E+03  0.00000000000E+00 0. -1.
         -2   -1    0    0    0  501 -0.00000000000E+00 -0.00000000000E+00 -0.20031508008E+03  0.20031508008E+03  0.00000000000E+00 0.  1.
         23    2    1    2    0    0  0.18493381064E+02  0.80899941486E+00 -0.94837304310E+02  0.13301756826E+03  0.91416079292E+02 0.  0.
         23    2    1    2    0    0 -0.24984770759E+02  0.55926851512E+02 -0.41951864517E+02  0.10864272847E+03  0.79317287041E+02 0.  0.
        -13    1    3    3    0    0 -0.19605042857E+01  0.35267322541E+02 -0.63611649858E+01  0.35889999111E+02  0.00000000000E+00 0. -1.
         13    1    3    3    0    0  0.20453885350E+02 -0.34458323126E+02 -0.88476139324E+02  0.97127569146E+02  0.00000000000E+00 0.  1.
        -13    1    4    4    0    0  0.27940589663E+02  0.25450484454E+02 -0.75290839812E+01  0.38536876045E+02  0.00000000000E+00 0. -1.
         13    1    4    4    0    0 -0.52925360422E+02  0.30476367058E+02 -0.34422780535E+02  0.70105852428E+02  0.00000000000E+00 0.  1.
         21    1    1    2  502  501  0.64913896944E+01 -0.56735850927E+02  0.62421663463E+02  0.84602358065E+02  0.00000000000E+00 0. -1.
<scales pt_clust_5="13000.00000" pt_clust_6="13000.00000" pt_clust_7="13000.00000" pt_clust_8="13000.00000" pt_clust_9="57.10600"></scales>
<clustering>
<clus scale="   57.106">  1  9  2 -1</clus>
<clus scale="   79.317">  7  8 -1 -1</clus>
<clus scale="   84.381">  1  7  2 -1</clus>
<clus scale="   91.416">  5  6 -1 -1</clus>
<clus scale="   57.106">  1  5  2 -1</clus>
</clustering>
</event>
<event>
 9    1  0.9000149E-006  0.1077612E+03  0.7546771E-02  0.1265220E+00
         -4   -1    0    0    0  501 -0.00000000000E+00  0.00000000000E+00  0.11601461263E+03  0.11601461263E+03  0.00000000000E+00 0.  1.
          4   -1    0    0  502    0  0.00000000000E+00 -0.00000000000E+00 -0.15888410934E+03  0.15888410934E+03  0.00000000000E+00 0. -1.
         23    2    1    2    0    0 -0.50153915447E+02 -0.38773375843E+02  0.40464070852E+02  0.11845020156E+03  0.91511307010E+02 0.  0.
         23    2    1    2    0    0  0.45257480941E+02  0.86909084744E+01 -0.58472780100E+02  0.11711674361E+03  0.90407378841E+02 0.  0.
        -11    1    4    4    0    0  0.25707103312E+02 -0.38774485300E+02 -0.12417209126E+02  0.48150835439E+02  0.00000000000E+00 0.  1.
         11    1    4    4    0    0  0.19550377629E+02  0.47465393774E+02 -0.46055570973E+02  0.68965908167E+02  0.00000000000E+00 0. -1.
        -13    1    3    3    0    0 -0.24436082346E+02 -0.67876256065E+02  0.30714785513E+02  0.78407310290E+02  0.00000000000E+00 0.  1.
         13    1    3    3    0    0 -0.25717833101E+02  0.29102880222E+02  0.97492853392E+01  0.40042891269E+02  0.00000000000E+00 0. -1.
         21    1    1    2  502  501  0.48964345056E+01  0.30082467369E+02 -0.24860787462E+02  0.39331776811E+02  0.00000000000E+00 0. -1.
<scales pt_clust_5="13000.00000" pt_clust_6="13000.00000" pt_clust_7="13000.00000" pt_clust_8="13000.00000" pt_clust_9="30.47835"></scales>
<clustering>
<clus scale="   30.478">  2  9  1 -1</clus>
<clus scale="   90.407">  5  6 -1 -1</clus>
<clus scale="   91.511">  7  8 -1 -1</clus>
<clus scale="  106.825">  2  5  1 -1</clus>
<clus scale="   30.478">  2  5  1 -1</clus>
</clustering>
</event>
<event>
 9    1  0.9000149E-006  0.9690295E+02  0.7546771E-02  0.1289210E+00
          2   -1    0    0  502    0  0.00000000000E+00  0.00000000000E+00  0.99105996110E+02  0.99105996110E+02  0.00000000000E+00 0. -1.
         -2   -1    0    0    0  501 -0.00000000000E+00 -0.00000000000E+00 -0.17975269556E+03  0.17975269556E+03  0.00000000000E+00 0.  1.
         23    2    1    2    0    0  0.16236729550E+02  0.27988198279E+02 -0.11241590708E+03  0.15005512650E+03  0.93979966984E+02 0.  0.
         23    2    1    2    0    0  0.73231302753E+01 -0.22401201625E+02  0.42740492557E+02  0.10222066428E+03  0.89815769391E+02 0.  0.
        -11    1    4    4    0    0  0.41776914299E+02  0.12470596672E+02  0.16486306282E+02  0.46611421824E+02  0.00000000000E+00 0.  1.
         11    1    4    4    0    0 -0.34453784023E+02 -0.34871798296E+02  0.26254186276E+02  0.55609242460E+02  0.00000000000E+00 0. -1.
        -11    1    3    3    0    0  0.46087184023E+02  0.44505627356E+02 -0.61811386067E+02  0.89024866442E+02  0.00000000000E+00 0.  1.
         11    1    3    3    0    0 -0.29850454473E+02 -0.16517429076E+02 -0.50604521015E+02  0.61030260057E+02  0.00000000000E+00 0. -1.
         21    1    1    2  502  501 -0.23559859826E+02 -0.55869966542E+01 -0.10971284925E+02  0.26582900886E+02  0.00000000000E+00 0.  1.
<scales pt_clust_5="13000.00000" pt_clust_6="13000.00000" pt_clust_7="13000.00000" pt_clust_8="13000.00000" pt_clust_9="24.21325"></scales>
<clustering>
<clus scale="   24.213">  2  9  1 -1</clus>
<clus scale="   89.816">  5  6 -1 -1</clus>
<clus scale="   92.870">  1  5  2 -1</clus>
<clus scale="   93.980">  7  8 -1 -1</clus>
<clus scale="   92.870">  1  5  2 -1</clus>
</clustering>
</event>
<event>
 9    1  0.9000149E-006  0.1005271E+03  0.7546771E-02  0.1279697E+00
         -1   -1    0    0    0  501 -0.00000000000E+00  0.00000000000E+00  0.81696353630E+02  0.81696353630E+02  0.00000000000E+00 0.  1.
          1   -1    0    0  502    0  0.00000000000E+00 -0.00000000000E+00 -0.77034421186E+03  0.77034421186E+03  0.00000000000E+00 0. -1.
         23    2    1    2    0    0  0.17643893695E+02 -0.25158856460E+02 -0.11864359644E+02  0.97658509051E+02  0.91935555240E+02 0.  0.
         23    2    1    2    0    0 -0.78090976955E+02 -0.32412703190E+02 -0.73990098669E+02  0.14583607022E+03  0.92977635305E+02 0.  0.
        -11    1    3    3    0    0 -0.29972294192E+02 -0.35046116505E+02 -0.16095424694E+02  0.48842925765E+02  0.00000000000E+00 0.  1.
         11    1    3    3    0    0  0.47616187887E+02  0.98872600451E+01  0.42310650508E+01  0.48815583286E+02  0.00000000000E+00 0. -1.
        -13    1    4    4    0    0 -0.96492553031E+02 -0.41272043013E+02 -0.65550099504E+02  0.12373766553E+03  0.00000000000E+00 0.  1.
         13    1    4    4    0    0  0.18401576076E+02  0.88593398229E+01 -0.84399991642E+01  0.22098404695E+02  0.00000000000E+00 0. -1.
         21    1    1    2  502  501  0.60447083260E+02  0.57571559650E+02 -0.60279339992E+03  0.60854598622E+03  0.00000000000E+00 0. -1.
<scales pt_clust_5="13000.00000" pt_clust_6="13000.00000" pt_clust_7="13000.00000" pt_clust_8="13000.00000" pt_clust_9="83.47655"></scales>
<clustering>
<clus scale="   83.477">  2  9  1 -1</clus>
<clus scale="   91.936">  5  6 -1 -1</clus>
<clus scale="   92.978">  7  8 -1 -1</clus>
<clus scale="   99.564">  1  5  2 -1</clus>
<clus scale="   83.477">  2  5  1 -1</clus>
</clustering>
</event>
<event>
 9    1  0.9000149E-006  0.1105297E+03  0.7546771E-02  0.1260097E+00
         -1   -1    0    0    0  501 -0.00000000000E+00  0.00000000000E+00  0.20790685841E+03  0.20790685841E+03  0.00000000000E+00 0.  1.
          1   -1    0    0  502    0  0.00000000000E+00 -0.00000000000E+00 -0.13899775869E+03  0.13899775869E+03  0.00000000000E+00 0. -1.
         23    2    1    2    0    0  0.66254062518E+02 -0.99146896736E+00  0.13723980088E+03  0.17779179813E+03  0.91567334394E+02 0.  0.
         23    2    1    2    0    0 -0.38520433355E+02  0.32538946777E+02 -0.73425356590E+02  0.12680025515E+03  0.90246411967E+02 0.  0.
        -11    1    4    4    0    0 -0.62380016250E+02  0.16314033370E+02 -0.73728090209E+02  0.97945114212E+02  0.00000000000E+00 0. -1.
         11    1    4    4    0    0  0.23859582895E+02  0.16224913407E+02  0.30273361863E+00  0.28855140939E+02  0.00000000000E+00 0.  1.
        -13    1    3    3    0    0  0.55018132349E+02  0.24367423698E+02  0.13746100677E+03  0.15005430553E+03  0.00000000000E+00 0.  1.
         13    1    3    3    0    0  0.11235930170E+02 -0.25358892665E+02 -0.22120589548E+00  0.27737492605E+02  0.00000000000E+00 0. -1.
         21    1    1    2  502  501 -0.27733629163E+02 -0.31547477809E+02  0.50946554268E+01  0.42312563815E+02  0.00000000000E+00 0.  1.
<scales pt_clust_5="13000.00000" pt_clust_6="13000.00000" pt_clust_7="13000.00000" pt_clust_8="13000.00000" pt_clust_9="42.00473"></scales>
<clustering>
<clus scale="   42.005">  2  9  1 -1</clus>
<clus scale="   90.246">  5  6 -1 -1</clus>
<clus scale="   91.567">  7  8 -1 -1</clus>
<clus scale="  109.438">  2  5  1 -1</clus>
<clus scale="   42.005">  2  5  1 -1</clus>
</clustering>
</event>
<event>
 9    1  0.9000149E-006  0.1113255E+03  0.7546771E-02  0.1258714E+00
         -2   -1    0    0    0  501 -0.00000000000E+00  0.00000000000E+00  0.72372716197E+02  0.72372716197E+02  0.00000000000E+00 0.  1.
          2   -1    0    0  502    0  0.00000000000E+00 -0.00000000000E+00 -0.30593054960E+03  0.30593054960E+03  0.00000000000E+00 0. -1.
         23    2    1    2    0    0 -0.62962962594E+02 -0.27933195569E+02 -0.17161571613E+02  0.11609016749E+03  0.91857549354E+02 0.  0.
         23    2    1    2    0    0  0.40857570388E+02  0.19515398501E+02 -0.10238635788E+03  0.14577527859E+03  0.93366341534E+02 0.  0.
        -11    1    3    3    0    0 -0.83750867275E+02 -0.31615549068E+02 -0.10376386665E+01  0.89525568449E+02  0.00000000000E+00 0. -1.
         11    1    3    3    0    0  0.20787904681E+02  0.36823534991E+01 -0.16123932947E+02  0.26564599036E+02  0.00000000000E+00 0.  1.
        -13    1    4    4    0    0  0.17726861505E+02  0.48504936463E+02 -0.19916438748E+02  0.55350113031E+02  0.00000000000E+00 0.  1.
         13    1    4    4    0    0  0.23130708882E+02 -0.28989537962E+02 -0.82469919135E+02  0.90425165561E+02  0.00000000000E+00 0. -1.
         21    1    1    2  502  501  0.22105392207E+02  0.84177970678E+01 -0.11400990391E+03  0.11643781972E+03  0.00000000000E+00 0. -1.
<scales pt_clust_5="13000.00000" pt_clust_6="13000.00000" pt_clust_7="13000.00000" pt_clust_8="13000.00000" pt_clust_9="23.65391"></scales>
<clustering>
<clus scale="   23.654">  2  9  1 -1</clus>
<clus scale="   91.858">  5  6 -1 -1</clus>
<clus scale="   93.366">  7  8 -1 -1</clus>
<clus scale="  110.063">  1  5  2 -1</clus>
<clus scale="   23.654">  2  5  1 -1</clus>
</clustering>
</event>
<event>
 9    1  0.9000149E-006  0.2997985E+03  0.7546771E-02  0.1085354E+00
         -1   -1    0    0    0  501 -0.00000000000E+00  0.00000000000E+00  0.21216802075E+03  0.21216802075E+03  0.00000000000E+00 0.  1.
          1   -1    0    0  502    0  0.00000000000E+00 -0.00000000000E+00 -0.52222459646E+03  0.52222459646E+03  0.00000000000E+00 0. -1.
         23    2    1    2    0    0  0.23002998268E+03 -0.15860198474E+03 -0.53516044550E+02  0.29898856966E+03  0.91988125706E+02 0.  0.
         23    2    1    2    0    0 -0.22275861464E+03  0.19531158461E+03 -0.20513705288E+03  0.37182114816E+03  0.91661007391E+02 0.  0.
        -11    1    4    4    0    0 -0.18328364021E+03  0.16015850751E+03 -0.20612541896E+03  0.31895348978E+03  0.00000000000E+00 0. -1.
         11    1    4    4    0    0 -0.39474974432E+02  0.35153077093E+02  0.98836608332E+00  0.52867658384E+02  0.00000000000E+00 0.  1.
        -11    1    3    3    0    0  0.81980274284E+02 -0.63827034939E+02 -0.65455250527E+02  0.12279676536E+03  0.00000000000E+00 0. -1.
         11    1    3    3    0    0  0.14804970839E+03 -0.94774949797E+02  0.11939205977E+02  0.17619180430E+03  0.00000000000E+00 0.  1.
         21    1    1    2  502  501 -0.72713680314E+01 -0.36709599872E+02 -0.51403478282E+02  0.63582899394E+02  0.00000000000E+00 0. -1.
<scales pt_clust_5="13000.00000" pt_clust_6="13000.00000" pt_clust_7="13000.00000" pt_clust_8="13000.00000" pt_clust_9="37.42282"></scales>
<clustering>
<clus scale="   37.423">  2  9  1 -1</clus>
<clus scale="   91.661">  5  6 -1 -1</clus>
<clus scale="   91.988">  7  8 -1 -1</clus>
<clus scale="  299.698">  2  5  1 -1</clus>
<clus scale="   37.423">  2  5  1 -1</clus>
</clustering>
</event>
<event>
 9    1  0.9000149E-006  0.9294092E+02  0.7546771E-02  0.1296318E+00
         -1   -1    0    0    0  501 -0.00000000000E+00  0.00000000000E+00  0.48745362050E+03  0.48745362050E+03  0.00000000000E+00 0.  1.
          1   -1    0    0  502    0  0.00000000000E+00 -0.00000000000E+00 -0.28621141400E+02  0.28621141400E+02  0.00000000000E+00 0. -1.
         23    2    1    2    0    0 -0.12880530896E+02  0.18767977919E+01  0.25041694046E+03  0.26655609406E+03  0.90410600960E+02 0.  0.
         23    2    1    2    0    0  0.72302167935E+01 -0.38682485051E+02  0.14026781959E+03  0.17186111008E+03  0.91173292491E+02 0.  0.
        -11    1    4    4    0    0  0.30010212403E+02  0.19914242027E+02  0.58831701128E+02  0.68980859241E+02  0.00000000000E+00 0. -1.
         11    1    4    4    0    0 -0.22779995609E+02 -0.58596727078E+02  0.81436118458E+02  0.10288025084E+03  0.00000000000E+00 0.  1.
        -13    1    3    3    0    0  0.81957042726E+01 -0.41736647760E+02  0.12910602795E+03  0.13593190865E+03  0.00000000000E+00 0.  1.
         13    1    3    3    0    0 -0.21076235169E+02  0.43613445552E+02  0.12131091250E+03  0.13062418541E+03  0.00000000000E+00 0. -1.
         21    1    1    2  502  501  0.56503141028E+01  0.36805687259E+02  0.68147719051E+02  0.77657557752E+02  0.00000000000E+00 0.  1.
<scales pt_clust_5="13000.00000" pt_clust_6="13000.00000" pt_clust_7="13000.00000" pt_clust_8="13000.00000" pt_clust_9="37.23687"></scales>
<clustering>
<clus scale="   37.237">  2  9  1 -1</clus>
<clus scale="   90.411">  7  8 -1 -1</clus>
<clus scale="   91.173">  5  6 -1 -1</clus>
<clus scale="   92.193">  1  7  2 -1</clus>
<clus scale="   37.237">  2  5  1 -1</clus>
</clustering>
</event>
<event>
 9    1  0.9000149E-006  0.1056002E+03  0.7546771E-02  0.1271751E+00
          1   -1    0    0  502    0  0.00000000000E+00  0.00000000000E+00  0.54354912369E+03  0.54354912369E+03  0.00000000000E+00 0. -1.
         -1   -1    0    0    0  501 -0.00000000000E+00 -0.00000000000E+00 -0.43177241418E+02  0.43177241418E+02  0.00000000000E+00 0.  1.
         23    2    1    2    0    0  0.20234152157E+02  0.38223810730E+02  0.48874026806E+02  0.11687251294E+03  0.96953768182E+02 0.  0.
         23    2    1    2    0    0  0.74780239964E+01 -0.42253656369E+02  0.38029614641E+03  0.39334314876E+03  0.90842618764E+02 0.  0.
        -13    1    3    3    0    0 -0.13616829270E+02  0.19913186544E+02  0.69245671687E+02  0.73327457920E+02  0.00000000000E+00 0. -1.
         13    1    3    3    0    0  0.33850981428E+02  0.18310624186E+02 -0.20371644880E+02  0.43545055022E+02  0.00000000000E+00 0.  1.
        -13    1    4    4    0    0 -0.37281275610E+02 -0.40814082411E+02  0.22751187752E+03  0.23413102581E+03  0.00000000000E+00 0. -1.
         13    1    4    4    0    0  0.44759299607E+02 -0.14395739576E+01  0.15278426889E+03  0.15921212295E+03  0.00000000000E+00 0.  1.
         21    1    1    2  502  501 -0.27712176154E+02  0.40298456388E+01  0.71201709055E+02  0.76510703404E+02  0.00000000000E+00 0. -1.
<scales pt_clust_5="13000.00000" pt_clust_6="13000.00000" pt_clust_7="13000.00000" pt_clust_8="13000.00000" pt_clust_9="28.00365"></scales>
<clustering>
<clus scale="   28.004">  1  9  2 -1</clus>
<clus scale="   90.843">  7  8 -1 -1</clus>
<clus scale="   96.954">  5  6 -1 -1</clus>
<clus scale="  100.019">  1  7  2 -1</clus>
<clus scale="   28.004">  1  5  2 -1</clus>
</clustering>
</event>
<event>
 9    1  0.9000149E-006  0.9558879E+02  0.7546771E-02  0.1291724E+00
          1   -1    0    0  502    0  0.00000000000E+00  0.00000000000E+00  0.45609600456E+02  0.45609600456E+02  0.00000000000E+00 0. -1.
         -1   -1    0    0    0  501 -0.00000000000E+00 -0.00000000000E+00 -0.28127583418E+03  0.28127583418E+03  0.00000000000E+00 0.  1.
         23    2    1    2    0    0  0.12262499469E+02  0.12441382297E+01 -0.14175076912E+03  0.16936201297E+03  0.91860187894E+02 0.  0.
         23    2    1    2    0    0 -0.30438035927E+02  0.16431217673E+02 -0.51290531402E+02  0.10792853017E+03  0.88438623163E+02 0.  0.
        -13    1    3    3    0    0 -0.19007468693E+02  0.37762866137E+02 -0.85379911827E+02  0.95273539184E+02  0.00000000000E+00 0.  1.
         13    1    3    3    0    0  0.31269968162E+02 -0.36518727908E+02 -0.56370857290E+02  0.74088473789E+02  0.00000000000E+00 0. -1.
        -13    1    4    4    0    0 -0.11783569731E+02 -0.30730465758E+02  0.37016789171E+01  0.33119729288E+02  0.00000000000E+00 0.  1.
         13    1    4    4    0    0 -0.18654466195E+02  0.47161683431E+02 -0.54992210319E+02  0.74808800878E+02  0.00000000000E+00 0. -1.
         21    1    1    2  502  501  0.18175536458E+02 -0.17675355903E+02 -0.42624933202E+02  0.49594891493E+02  0.00000000000E+00 0.  1.
<scales pt_clust_5="13000.00000" pt_clust_6="13000.00000" pt_clust_7="13000.00000" pt_clust_8="13000.00000" pt_clust_9="25.35288"></scales>
<clustering>
<clus scale="   25.353">  2  9  1 -1</clus>
<clus scale="   88.439">  7  8 -1 -1</clus>
<clus scale="   91.860">  5  6 -1 -1</clus>
<clus scale="   92.306">  1  7  2 -1</clus>
<clus scale="   92.306">  1  5  2 -1</clus>
</clustering>
</event>
<event>
 9    1  0.9000149E-006  0.1047875E+03  0.7546771E-02  0.1271034E+00
         -1   -1    0    0    0  501 -0.00000000000E+00  0.00000000000E+00  0.23885072038E+03  0.23885072038E+03  0.00000000000E+00 0.  1.
          1   -1    0    0  502    0  0.00000000000E+00 -0.00000000000E+00 -0.86197472712E+02  0.86197472712E+02  0.00000000000E+00 0. -1.
         23    2    1    2    0    0 -0.32715507750E+02 -0.72454769633E+02  0.93400240512E+02  0.15252209505E+03  0.90660832010E+02 0.  0.
         23    2    1    2    0    0  0.43902586037E+02  0.13919738699E+02  0.24731251822E+02  0.10365482567E+03  0.89506937617E+02 0.  0.
        -11    1    4    4    0    0  0.37896265513E+02 -0.26195186226E+02  0.39301610034E+02  0.60555191953E+02  0.00000000000E+00 0.  1.
         11    1    4    4    0    0  0.60063205241E+01  0.40114924925E+02 -0.14570358212E+02  0.43099633716E+02  0.00000000000E+00 0. -1.
        -13    1    3    3    0    0 -0.55810476609E+02 -0.30666860170E+02  0.23514087336E+02  0.67883561451E+02  0.00000000000E+00 0.  1.
         13    1    3    3    0    0  0.23094968860E+02 -0.41787909463E+02  0.69886153176E+02  0.84638533598E+02  0.00000000000E+00 0. -1.
         21    1    1    2  502  501 -0.11187078287E+02  0.58535030934E+02  0.34521755336E+02  0.68871272374E+02  0.00000000000E+00 0.  1.
<scales pt_clust_5="13000.00000" pt_clust_6="13000.00000" pt_clust_7="13000.00000" pt_clust_8="13000.00000" pt_clust_9="59.59447"></scales>
<clustering>
<clus scale="   59.594">  1  9  2 -1</clus>
<clus scale="   89.507">  5  6 -1 -1</clus>
<clus scale="   90.661">  7  8 -1 -1</clus>
<clus scale="  103.791">  2  5  1 -1</clus>
<clus scale="  103.791">  2  5  1 -1</clus>
</clustering>
</event>
<event>
 9    1  0.9000149E-006  0.9634625E+02  0.7546771E-02  0.1290108E+00
         -3   -1    0    0    0  501 -0.00000000000E+00  0.00000000000E+00  0.41988595498E+03  0.41988595498E+03  0.00000000000E+00 0.  1.
          3   -1    0    0  502    0  0.00000000000E+00 -0.00000000000E+00 -0.37103003838E+02  0.37103003838E+02  0.00000000000E+00 0. -1.
         23    2    1    2    0    0 -0.23345497702E+02  0.11996176072E+02  0.24028034463E+03  0.25862961395E+03  0.92009307627E+02 0.  0.
         23    2    1    2    0    0  0.15257570657E+02 -0.33005351667E+02  0.14705258013E+03  0.17539192702E+03  0.88406561061E+02 0.  0.
        -11    1    3    3    0    0 -0.91686766494E+01 -0.38811790535E+02  0.13659810041E+03  0.14230059997E+03  0.00000000000E+00 0.  1.
         11    1    3    3    0    0 -0.14176821052E+02  0.50807966607E+02  0.10368224423E+03  0.11632901398E+03  0.00000000000E+00 0. -1.
        -13    1    4    4    0    0  0.51339458217E+02 -0.17195699621E+02  0.66753195250E+02  0.85950108386E+02  0.00000000000E+00 0.  1.
         13    1    4    4    0    0 -0.36081887560E+02 -0.15809652045E+02  0.80299384885E+02  0.89441818634E+02  0.00000000000E+00 0. -1.
         21    1    1    2  502  501  0.80879270450E+01  0.21009175594E+02 -0.45499736202E+01  0.22967417856E+02  0.00000000000E+00 0. -1.
<scales pt_clust_5="13000.00000" pt_clust_6="13000.00000" pt_clust_7="13000.00000" pt_clust_8="13000.00000" pt_clust_9="22.51222"></scales>
<clustering>
<clus scale="   22.512">  2  9  1 -1</clus>
<clus scale="   88.407">  7  8 -1 -1</clus>
<clus scale="   92.009">  5  6 -1 -1</clus>
<clus scale="   92.912">  2  7  1 -1</clus>
<clus scale="   22.512">  2  5  1 -1</clus>
</clustering>
</event>
<event>
 9    1  0.9000149E-006  0.1250679E+03  0.7546771E-02  0.1235312E+00
         -1   -1    0    0    0  501 -0.00000000000E+00  0.00000000000E+00  0.76222096898E+02  0.76222096898E+02  0.00000000000E+00 0.  1.
          1   -1    0    0  502    0  0.00000000000E+00 -0.00000000000E+00 -0.34856832121E+03  0.34856832121E+03  0.00000000000E+00 0. -1.
         23    2    1    2    0    0 -0.60610195411E+02  0.57987359166E+02 -0.65001468432E+02  0.14114562037E+03  0.93063234631E+02 0.  0.
         23    2    1    2    0    0  0.73626771498E+02 -0.41544254730E+02 -0.66891395398E+02  0.14163439880E+03  0.91864125547E+02 0.  0.
        -13    1    3    3    0    0  0.19778234528E+02  0.36196710911E+02 -0.28923423055E+02  0.50378019443E+02  0.00000000000E+00 0. -1.
         13    1    3    3    0    0 -0.80388429939E+02  0.21790648255E+02 -0.36078045377E+02  0.90767600925E+02  0.00000000000E+00 0.  1.
        -13    1    4    4    0    0 -0.20262195494E+02 -0.19978626455E+02 -0.17019067267E+02  0.33156458374E+02  0.00000000000E+00 0.  1.
         13    1    4    4    0    0  0.93888966991E+02 -0.21565628275E+02 -0.49872328130E+02  0.10847794042E+03  0.00000000000E+00 0. -1.
         21    1    1    2  502  501 -0.13016576086E+02 -0.16443104437E+02 -0.14045336048E+03  0.14201039894E+03  0.00000000000E+00 0. -1.
<scales pt_clust_5="13000.00000" pt_clust_6="13000.00000" pt_clust_7="13000.00000" pt_clust_8="13000.00000" pt_clust_9="20.97157"></scales>
<clustering>
<clus scale="   20.972">  2  9  1 -1</clus>
<clus scale="   91.864">  7  8 -1 -1</clus>
<clus scale="   93.063">  5  6 -1 -1</clus>
<clus scale="  124.178">  2  7  1 -1</clus>
<clus scale="   20.972">  2  5  1 -1</clus>
</clustering>
</event>
<event>
 9    1  0.1560046E-005  0.2501317E+03  0.7546771E-02  0.1113489E+00
         -2   -1    0    0    0  501 -0.00000000000E+00  0.00000000000E+00  0.44856934450E+03  0.44856934450E+03  0.00000000000E+00 0.  1.
          2   -1    0    0  502    0  0.00000000000E+00 -0.00000000000E+00 -0.51754336151E+03  0.51754336151E+03  0.00000000000E+00 0. -1.
         23    2    1    2    0    0  0.17799036432E+02  0.23352878360E+03  0.36324576098E+03  0.44299795288E+03  0.97196733042E+02 0.  0.
         23    2    1    2    0    0 -0.44664643635E+02 -0.18626309961E+03 -0.41447604349E+03  0.46592519248E+03  0.92774035667E+02 0.  0.
        -11    1    4    4    0    0 -0.11289300086E+02 -0.16215901781E+03 -0.26499435789E+03  0.31087779764E+03  0.00000000000E+00 0.  1.
         11    1    4    4    0    0 -0.33375343549E+02 -0.24104081798E+02 -0.14948168560E+03  0.15504739484E+03  0.00000000000E+00 0. -1.
        -13    1    3    3    0    0  0.52573215234E+02  0.19366492505E+03  0.28772087187E+03  0.35078960399E+03  0.00000000000E+00 0.  1.
         13    1    3    3    0    0 -0.34774178803E+02  0.39863858551E+02  0.75524889111E+02  0.92208348891E+02  0.00000000000E+00 0. -1.
         21    1    1    2  502  501  0.26865607203E+02 -0.47265683999E+02 -0.17743734498E+02  0.57189560658E+02  0.00000000000E+00 0. -1.
<scales pt_clust_5="13000.00000" pt_clust_6="13000.00000" pt_clust_7="13000.00000" pt_clust_8="13000.00000" pt_clust_9="54.36732"></scales>
<clustering>
<clus scale="   54.367">  2  9  1 -1</clus>
<clus scale="   92.774">  5  6 -1 -1</clus>
<clus scale="   97.197">  7  8 -1 -1</clus>
<clus scale="  248.447">  2  5  1 -1</clus>
<clus scale="   54.367">  2  5  1 -1</clus>
</clustering>
</event>
<event>
 9    1  0.9000149E-006  0.1081819E+03  0.7546771E-02  0.1264654E+00
          1   -1    0    0  502    0  0.00000000000E+00  0.00000000000E+00  0.44176983656E+03  0.44176983656E+03  0.00000000000E+00 0. -1.
         -1   -1    0    0    0  501 -0.00000000000E+00 -0.00000000000E+00 -0.49434841055E+02  0.49434841055E+02  0.00000000000E+00 0.  1.
         23    2    1    2    0    0 -0.56166728183E+02  0.18784666370E+02  0.39889285512E+02  0.11727570198E+03  0.93031554489E+02 0.  0.
         23    2    1    2    0    0  0.33536937002E+02 -0.21914468093E+02  0.31091573683E+03  0.32653022271E+03  0.91369693447E+02 0.  0.
        -13    1    3    3    0    0 -0.80935793418E+02  0.53426506918E+01  0.22553590925E+02  0.84189138469E+02  0.00000000000E+00 0.  1.
         13    1    3    3    0    0  0.24769065235E+02  0.13442015679E+02  0.17335694587E+02  0.33086563510E+02  0.00000000000E+00 0. -1.
        -13    1    4    4    0    0  0.64298719543E+02 -0.22529465549E+02  0.23308929426E+03  0.24284258533E+03  0.00000000000E+00 0. -1.
         13    1    4    4    0    0 -0.30761782541E+02  0.61499745609E+00  0.77826442570E+02  0.83687637379E+02  0.00000000000E+00 0.  1.
         21    1    1    2  502  501  0.22629791181E+02  0.31298017228E+01  0.41529973163E+02  0.47398752923E+02  0.00000000000E+00 0. -1.
<scales pt_clust_5="13000.00000" pt_clust_6="13000.00000" pt_clust_7="13000.00000" pt_clust_8="13000.00000" pt_clust_9="22.84520"></scales>
<clustering>
<clus scale="   22.845">  1  9  2 -1</clus>
<clus scale="   91.370">  7  8 -1 -1</clus>
<clus scale="   93.032">  5  6 -1 -1</clus>
<clus scale="  106.756">  1  7  2 -1</clus>
<clus scale="   22.845">  1  5  2 -1</clus>
</clustering>
</event>
<event>
 9    1  0.9000149E-006  0.1128168E+03  0.7546771E-02  0.1255736E+00
         -4   -1    0    0    0  501 -0.00000000000E+00  0.00000000000E+00  0.30328000625E+02  0.30328000625E+02  0.00000000000E+00 0.  1.
          4   -1    0    0  502    0  0.00000000000E+00 -0.00000000000E+00 -0.90751366086E+03  0.90751366086E+03  0.00000000000E+00 0. -1.
         23    2    1    2    0    0  0.78861970001E+02 -0.97313822501E+01 -0.15247446103E+03  0.19443785177E+03  0.90794861197E+02 0.  0.
         23    2    1    2    0    0 -0.35338678620E+02 -0.31929276650E+02 -0.39737339266E+03  0.41056762330E+03  0.91607091427E+02 0.  0.
        -11    1    4    4    0    0 -0.31470784139E+02  0.25526508573E+02 -0.23057142917E+03  0.23410509786E+03  0.00000000000E+00 0.  1.
         11    1    4    4    0    0 -0.38678944819E+01 -0.57455785222E+02 -0.16680196349E+03  0.17646252545E+03  0.00000000000E+00 0. -1.
        -13    1    3    3    0    0 -0.88923671168E+00 -0.23067003035E+02 -0.14499122630E+01  0.23129626381E+02  0.00000000000E+00 0.  1.
         13    1    3    3    0    0  0.79751206713E+02  0.13335620785E+02 -0.15102454877E+03  0.17130822539E+03  0.00000000000E+00 0. -1.
         21    1    1    2  502  501 -0.43523291381E+02  0.41660658900E+02 -0.32733780655E+03  0.33283618642E+03  0.00000000000E+00 0.  1.
<scales pt_clust_5="13000.00000" pt_clust_6="13000.00000" pt_clust_7="13000.00000" pt_clust_8="13000.00000" pt_clust_9="60.24855"></scales>
<clustering>
<clus scale="   60.249">  2  9  1 -1</clus>
<clus scale="   90.795">  7  8 -1 -1</clus>
<clus scale="   91.607">  5  6 -1 -1</clus>
<clus scale="  112.158">  1  7  2 -1</clus>
<clus scale="   60.249">  2  5  1 -1</clus>
</clustering>
</event>
<event>
 9    1  0.9000149E-006  0.1003232E+03  0.7546771E-02  0.1282070E+00
         -2   -1    0    0    0  501 -0.00000000000E+00  0.00000000000E+00  0.22916044445E+03  0.22916044445E+03  0.00000000000E+00 0.  1.
          2   -1    0    0  502    0  0.00000000000E+00 -0.00000000000E+00 -0.12967837367E+03  0.12967837367E+03  0.00000000000E+00 0. -1.
         23    2    1    2    0    0 -0.74772915647E+01 -0.35768377457E+02  0.16890455060E+03  0.19762041812E+03  0.95863422279E+02 0.  0.
         23    2    1    2    0    0 -0.16426911077E+02  0.59061386126E+01 -0.13856182231E+02  0.93758948180E+02  0.91071514191E+02 0.  0.
        -11    1    3    3    0    0  0.30738698043E+02 -0.52317739446E+02  0.93082598072E+02  0.11111428118E+03  0.00000000000E+00 0.  1.
         11    1    3    3    0    0 -0.38215989608E+02  0.16549361990E+02  0.75821952525E+02  0.86506136943E+02  0.00000000000E+00 0. -1.
        -11    1    4    4    0    0  0.18737316051E+02  0.39245973977E+02 -0.12631020410E+02  0.45286600257E+02  0.00000000000E+00 0. -1.
         11    1    4    4    0    0 -0.35164227129E+02 -0.33339835365E+02 -0.12251618207E+01  0.48472347923E+02  0.00000000000E+00 0.  1.
         21    1    1    2  502  501  0.23904202642E+02  0.29862238844E+02 -0.55566297588E+02  0.67459451823E+02  0.00000000000E+00 0. -1.
<scales pt_clust_5="13000.00000" pt_clust_6="13000.00000" pt_clust_7="13000.00000" pt_clust_8="13000.00000" pt_clust_9="38.25133"></scales>
<clustering>
<clus scale="   38.251">  2  9  1 -1</clus>
<clus scale="   91.072">  7  8 -1 -1</clus>
<clus scale="   95.755">  2  7  1 -1</clus>
<clus scale="   95.863">  5  6 -1 -1</clus>
<clus scale="   38.251">  2  5  1 -1</clus>
</clustering>
</event>
<event>
 9    1  0.9000149E-006  0.1113299E+03  0.7546771E-02  0.1263628E+00
          1   -1    0    0  502    0  0.00000000000E+00  0.00000000000E+00  0.67483069674E+03  0.67483069674E+03  0.00000000000E+00 0. -1.
         -1   -1    0    0    0  501 -0.00000000000E+00 -0.00000000000E+00 -0.86269583874E+02  0.86269583874E+02  0.00000000000E+00 0.  1.
         23    2    1    2    0    0  0.39400753141E+02 -0.19380376930E+02 -0.36853191426E+02  0.11782266534E+03  0.10293689519E+03 0.  0.
         23    2    1    2    0    0 -0.23248825616E+01  0.48105460228E+02  0.46392314199E+03  0.47511357010E+03  0.90491339001E+02 0.  0.
        -11    1    4    4    0    0 -0.44826618010E+02  0.11227532492E+02  0.21470543933E+03  0.21962219571E+03  0.00000000000E+00 0.  1.
         11    1    4    4    0    0  0.42501735448E+02  0.36877927736E+02  0.24921770266E+03  0.25549137439E+03  0.00000000000E+00 0. -1.
        -13    1    3    3    0    0  0.68259393040E+02 -0.37436798142E+02 -0.24685814204E+02  0.81671586345E+02  0.00000000000E+00 0.  1.
         13    1    3    3    0    0 -0.28858639898E+02  0.18056421211E+02 -0.12167377222E+02  0.36151078991E+02  0.00000000000E+00 0. -1.
         21    1    1    2  502  501 -0.37075870580E+02 -0.28725083298E+02  0.16149116230E+03  0.16816404518E+03  0.00000000000E+00 0. -1.
<scales pt_clust_5="13000.00000" pt_clust_6="13000.00000" pt_clust_7="13000.00000" pt_clust_8="13000.00000" pt_clust_9="46.90150"></scales>
<clustering>
<clus scale="   46.901">  1  9  2 -1</clus>
<clus scale="   90.491">  5  6 -1 -1</clus>
<clus scale="   99.935">  1  5  2 -1</clus>
<clus scale="  102.937">  7  8 -1 -1</clus>
<clus scale="   46.901">  1  5  2 -1</clus>
</clustering>
</event>
<event>
 9    1  0.9000149E-006  0.1004013E+03  0.7546771E-02  0.1280572E+00
          1   -1    0    0  502    0  0.00000000000E+00  0.00000000000E+00  0.66363619076E+02  0.66363619076E+02  0.00000000000E+00 0. -1.
         -1   -1    0    0    0  501 -0.00000000000E+00 -0.00000000000E+00 -0.40565821542E+03  0.40565821542E+03  0.00000000000E+00 0.  1.
         23    2    1    2    0    0  0.62521760973E+02 -0.35677025417E+02 -0.23474155262E+03  0.26079581310E+03  0.87914952477E+02 0.  0.
         23    2    1    2    0    0 -0.10124389476E+02  0.33392686833E+01 -0.11724923445E+03  0.14835783938E+03  0.90271875731E+02 0.  0.
        -13    1    3    3    0    0 -0.99732981394E+00 -0.47396515194E+02 -0.78134609799E+02  0.91391693100E+02  0.00000000000E+00 0. -1.
         13    1    3    3    0    0  0.63519090787E+02  0.11719489776E+02 -0.15660694282E+03  0.16940412000E+03  0.00000000000E+00 0.  1.
        -13    1    4    4    0    0 -0.37191788127E+02 -0.26817938022E+02 -0.84961424197E+02  0.96544676215E+02  0.00000000000E+00 0. -1.
         13    1    4    4    0    0  0.27067398651E+02  0.30157206706E+02 -0.32287810256E+02  0.51813163165E+02  0.00000000000E+00 0.  1.
         21    1    1    2  502  501 -0.52397371497E+02  0.32337756734E+02  0.12696190728E+02  0.62868182011E+02  0.00000000000E+00 0. -1.
<scales pt_clust_5="13000.00000" pt_clust_6="13000.00000" pt_clust_7="13000.00000" pt_clust_8="13000.00000" pt_clust_9="61.57284"></scales>
<clustering>
<clus scale="   61.573">  1  9  2 -1</clus>
<clus scale="   87.915">  5  6 -1 -1</clus>
<clus scale="   90.272">  7  8 -1 -1</clus>
<clus scale="   98.288">  2  5  1 -1</clus>
<clus scale="   61.573">  1  5  2 -1</clus>
</clustering>
</event>
<event>
 9    1  0.9000149E-006  0.1344610E+03  0.7546771E-02  0.1222528E+00
          2   -1    0    0  502    0  0.00000000000E+00  0.00000000000E+00  0.10253332474E+03  0.10253332474E+03  0.00000000000E+00 0. -1.
         -2   -1    0    0    0  501 -0.00000000000E+00 -0.00000000000E+00 -0.29460423171E+03  0.29460423171E+03  0.00000000000E+00 0.  1.
         23    2    1    2    0    0  0.81268886239E+02  0.38855128639E+02 -0.19754007833E+03  0.23586155847E+03  0.92164197642E+02 0.  0.
         23    2    1    2    0    0 -0.96551374896E+02 -0.25889734124E+02 -0.14424974119E+01  0.14007630270E+03  0.98116479001E+02 0.  0.
        -11    1    4    4    0    0 -0.27486190092E+02 -0.57757514734E+02 -0.23639256572E+01  0.64007884659E+02  0.00000000000E+00 0.  1.
         11    1    4    4    0    0 -0.69065184804E+02  0.31867780610E+02  0.92142824529E+00  0.76068418039E+02  0.00000000000E+00 0. -1.
        -11    1    3    3    0    0  0.21045002078E+02  0.32040520945E+02 -0.11235668710E+02  0.39946556125E+02  0.00000000000E+00 0. -1.
         11    1    3    3    0    0  0.60223884161E+02  0.68146076938E+01 -0.18630440962E+03  0.19591500235E+03  0.00000000000E+00 0.  1.
         21    1    1    2  502  501  0.15282488657E+02 -0.12965394514E+02  0.69116687707E+01  0.21199695273E+02  0.00000000000E+00 0. -1.
<scales pt_clust_5="13000.00000" pt_clust_6="13000.00000" pt_clust_7="13000.00000" pt_clust_8="13000.00000" pt_clust_9="20.04136"></scales>
<clustering>
<clus scale="   20.041">  1  9  2 -1</clus>
<clus scale="   92.164">  7  8 -1 -1</clus>
<clus scale="   98.116">  5  6 -1 -1</clus>
<clus scale="  130.181">  2  7  1 -1</clus>
<clus scale="   20.041">  1  5  2 -1</clus>
</clustering>
</event>
<event>
 9    1  0.9000149E-006  0.1403140E+03  0.7546771E-02  0.1213174E+00
         -1   -1    0    0    0  501 -0.00000000000E+00  0.00000000000E+00  0.54851649083E+03  0.54851649083E+03  0.00000000000E+00 0.  1.
          1   -1    0    0  502    0  0.00000000000E+00 -0.00000000000E+00 -0.12071079309E+03  0.12071079309E+03  0.00000000000E+00 0. -1.
         23    2    1    2    0    0  0.87627814179E+02  0.50841220506E+02  0.43036356925E+03  0.45155436576E+03  0.91788234390E+02 0.  0.
         23    2    1    2    0    0 -0.11262165808E+03 -0.89028675976E+02  0.10895111441E+02  0.17009186376E+03  0.90569286454E+02 0.  0.
        -11    1    3    3    0    0  0.42980038451E+02  0.67016542921E+02  0.34300081764E+03  0.35211938548E+03  0.00000000000E+00 0.  1.
         11    1    3    3    0    0  0.44647775728E+02 -0.16175322415E+02  0.87362751618E+02  0.99434980278E+02  0.00000000000E+00 0. -1.
        -11    1    4    4    0    0 -0.47589735786E+02  0.80885337245E+01 -0.14663292116E+02  0.50450168143E+02  0.00000000000E+00 0.  1.
         11    1    4    4    0    0 -0.65031922291E+02 -0.97117209700E+02  0.25558403557E+02  0.11964169561E+03  0.00000000000E+00 0. -1.
         21    1    1    2  502  501  0.24993843898E+02  0.38187455470E+02 -0.13452982953E+02  0.47581054406E+02  0.00000000000E+00 0. -1.
<scales pt_clust_5="13000.00000" pt_clust_6="13000.00000" pt_clust_7="13000.00000" pt_clust_8="13000.00000" pt_clust_9="45.63961"></scales>
<clustering>
<clus scale="   45.640">  2  9  1 -1</clus>
<clus scale="   90.569">  7  8 -1 -1</clus>
<clus scale="   91.788">  5  6 -1 -1</clus>
<clus scale="  139.520">  2  7  1 -1</clus>
<clus scale="   45.640">  2  5  1 -1</clus>
</clustering>
</event>
<event>
 9    1  0.9000149E-006  0.1039585E+03  0.7546771E-02  0.1272363E+00
         -2   -1    0    0    0  501 -0.00000000000E+00  0.00000000000E+00  0.34087756752E+02  0.34087756752E+02  0.00000000000E+00 0.  1.
          2   -1    0    0  502    0  0.00000000000E+00 -0.00000000000E+00 -0.46508112102E+03  0.46508112102E+03  0.00000000000E+00 0. -1.
         23    2    1    2    0    0 -0.45244535978E+02 -0.34008603444E+02 -0.10963561478E+03  0.15354807974E+03  0.91396890652E+02 0.  0.
         23    2    1    2    0    0  0.34869789941E+02  0.16223755467E+02 -0.20626171022E+03  0.22869759918E+03  0.90992231959E+02 0.  0.
        -11    1    3    3    0    0  0.20838042832E+02  0.25250953275E+01 -0.59026322607E+02  0.62647481163E+02  0.00000000000E+00 0. -1.
         11    1    3    3    0    0 -0.66082578811E+02 -0.36533698772E+02 -0.50609292170E+02  0.90900598580E+02  0.00000000000E+00 0.  1.
        -11    1    4    4    0    0  0.25578177451E+01  0.51125628111E+02 -0.10991028341E+03  0.12124620687E+03  0.00000000000E+00 0.  1.
         11    1    4    4    0    0  0.32311972196E+02 -0.34901872644E+02 -0.96351426811E+02  0.10745139231E+03  0.00000000000E+00 0. -1.
         21    1    1    2  502  501  0.10374746037E+02  0.17784847977E+02 -0.11509603927E+03  0.11692319885E+03  0.00000000000E+00 0. -1.
<scales pt_clust_5="13000.00000" pt_clust_6="13000.00000" pt_clust_7="13000.00000" pt_clust_8="13000.00000" pt_clust_9="20.58971"></scales>
<clustering>
<clus scale="   20.590">  2  9  1 -1</clus>
<clus scale="   90.992">  7  8 -1 -1</clus>
<clus scale="   91.397">  5  6 -1 -1</clus>
<clus scale="  103.603">  2  7  1 -1</clus>
<clus scale="   20.590">  2  5  1 -1</clus>
</clustering>
</event>
<event>
 9    1  0.9000149E-006  0.1916590E+03  0.7546771E-02  0.1158532E+00
         -1   -1    0    0    0  501 -0.00000000000E+00  0.00000000000E+00  0.16584824594E+03  0.16584824594E+03  0.00000000000E+00 0.  1.
          1   -1    0    0  502    0  0.00000000000E+00 -0.00000000000E+00 -0.50747324330E+03  0.50747324330E+03  0.00000000000E+00 0. -1.
         23    2    1    2    0    0 -0.16056073363E+03 -0.38800223831E+02  0.77518676891E+02  0.20996061815E+03  0.10387063760E+03 0.  0.
         23    2    1    2    0    0  0.13050280008E+03  0.48150433935E+02 -0.34829772795E+03  0.38583633366E+03  0.90603112291E+02 0.  0.
        -11    1    3    3    0    0 -0.80566419326E+02  0.32790931740E+02  0.25339294596E+02  0.90599519745E+02  0.00000000000E+00 0.  1.
         11    1    3    3    0    0 -0.79994314302E+02 -0.71591155571E+02  0.52179382294E+02  0.11936109841E+03  0.00000000000E+00 0. -1.
        -13    1    4    4    0    0  0.73968105652E+02 -0.20803044112E+02 -0.16223608625E+03  0.17951210260E+03  0.00000000000E+00 0. -1.
         13    1    4    4    0    0  0.56534694432E+02  0.68953478046E+02 -0.18606164170E+03  0.20632423106E+03  0.00000000000E+00 0.  1.
         21    1    1    2  502  501  0.30057933543E+02 -0.93502101036E+01 -0.70845946296E+02  0.77524537434E+02  0.00000000000E+00 0. -1.
<scales pt_clust_5="13000.00000" pt_clust_6="13000.00000" pt_clust_7="13000.00000" pt_clust_8="13000.00000" pt_clust_9="31.47866"></scales>
<clustering>
<clus scale="   31.479">  2  9  1 -1</clus>
<clus scale="   90.603">  7  8 -1 -1</clus>
<clus scale="  103.871">  5  6 -1 -1</clus>
<clus scale="  184.805">  2  7  1 -1</clus>
<clus scale="   31.479">  2  5  1 -1</clus>
</clustering>
</event>
<event>
 9    1  0.9000149E-006  0.1222790E+03  0.7546771E-02  0.1239857E+00
         -2   -1    0    0    0  501 -0.00000000000E+00  0.00000000000E+00  0.97045429534E+02  0.97045429534E+02  0.00000000000E+00 0.  1.
          2   -1    0    0  502    0  0.00000000000E+00 -0.00000000000E+00 -0.48828266865E+03  0.48828266865E+03  0.00000000000E+00 0. -1.
         23    2    1    2    0    0 -0.79364260018E+02 -0.48565193027E+02  0.27651666727E+02  0.13410403453E+03  0.92531149692E+02 0.  0.
         23    2    1    2    0    0  0.29846720926E+02  0.16502098967E+02 -0.17359013088E+03  0.19893153963E+03  0.90978447450E+02 0.  0.
        -11    1    3    3    0    0 -0.62442391818E+02 -0.76196081563E+02  0.16809422247E+02  0.99937239394E+02  0.00000000000E+00 0.  1.
         11    1    3    3    0    0 -0.16921868200E+02  0.27630888536E+02  0.10842244481E+02  0.34166795139E+02  0.00000000000E+00 0. -1.
        -13    1    4    4    0    0  0.35451203780E+02  0.45552474241E+02 -0.67606272086E+02  0.88895577980E+02  0.00000000000E+00 0. -1.
         13    1    4    4    0    0 -0.56044828536E+01 -0.29050375275E+02 -0.10598385879E+03  0.11003596165E+03  0.00000000000E+00 0.  1.
         21    1    1    2  502  501  0.49517539091E+02  0.32063094060E+02 -0.24529877497E+03  0.25229252403E+03  0.00000000000E+00 0. -1.
<scales pt_clust_5="13000.00000" pt_clust_6="13000.00000" pt_clust_7="13000.00000" pt_clust_8="13000.00000" pt_clust_9="58.99177"></scales>
<clustering>
<clus scale="   58.992">  2  9  1 -1</clus>
<clus scale="   90.978">  7  8 -1 -1</clus>
<clus scale="   92.531">  5  6 -1 -1</clus>
<clus scale="  121.108">  2  7  1 -1</clus>
<clus scale="   58.992">  2  5  1 -1</clus>
</clustering>
</event>
<event>
 9    1  0.9000149E-006  0.1147457E+03  0.7546771E-02  0.1264473E+00
         -1   -1    0    0    0  501 -0.00000000000E+00  0.00000000000E+00  0.62579603328E+02  0.62579603328E+02  0.00000000000E+00 0.  1.
          1   -1    0    0  502    0  0.00000000000E+00 -0.00000000000E+00 -0.36571724223E+03  0.36571724223E+03  0.00000000000E+00 0. -1.
         23    2    1    2    0    0  0.73770193369E+02  0.16882377195E+02  0.21470203592E+01  0.94170147659E+02  0.56003133165E+02 0.  0.
         23    2    1    2    0    0 -0.44968697190E+02 -0.30533984839E+01 -0.20185659793E+03  0.22587638287E+03  0.90788475253E+02 0.  0.
        -11    1    3    3    0    0  0.13508674571E+02 -0.18871915251E+02  0.60738119779E+01  0.23990095161E+02  0.00000000000E+00 0. -1.
         11    1    3    3    0    0  0.60261518798E+02  0.35754292447E+02 -0.39267916187E+01  0.70180052498E+02  0.00000000000E+00 0.  1.
        -11    1    4    4    0    0  0.11602748801E+02 -0.33361545417E+02 -0.52073004627E+02  0.62922287810E+02  0.00000000000E+00 0.  1.
         11    1    4    4    0    0 -0.56571445992E+02  0.30308146934E+02 -0.14978359331E+03  0.16295409506E+03  0.00000000000E+00 0. -1.
         21    1    1    2  502  501 -0.28801496178E+02 -0.13828978711E+02 -0.10342806132E+03  0.10825031503E+03  0.00000000000E+00 0. -1.
<scales pt_clust_5="13000.00000" pt_clust_6="13000.00000" pt_clust_7="13000.00000" pt_clust_8="13000.00000" pt_clust_9="31.94944"></scales>
<clustering>
<clus scale="   31.949">  2  9  1 -1</clus>
<clus scale="   56.003">  5  6 -1 -1</clus>
<clus scale="   89.780">  1  5  2 -1</clus>
<clus scale="   90.788">  7  8 -1 -1</clus>
<clus scale="   31.949">  2  5  1 -1</clus>
</clustering>
</event>
<event>
 9    1  0.9000149E-006  0.1593127E+03  0.7546771E-02  0.1190173E+00
         -1   -1    0    0    0  501 -0.00000000000E+00  0.00000000000E+00  0.91300265755E+02  0.91300265755E+02  0.00000000000E+00 0.  1.
          1   -1    0    0  502    0  0.00000000000E+00 -0.00000000000E+00 -0.44509012278E+03  0.44509012278E+03  0.00000000000E+00 0. -1.
         23    2    1    2    0    0 -0.12988327556E+03 -0.14197719597E+02 -0.34650704228E+02  0.16302246924E+03  0.91128555685E+02 0.  0.
         23    2    1    2    0    0  0.13247877704E+03 -0.19475220525E+02 -0.25332049102E+03  0.29939022156E+03  0.86794717665E+02 0.  0.
        -11    1    4    4    0    0  0.25855060466E+02 -0.18285137388E+02 -0.14101568894E+03  0.14452769606E+03  0.00000000000E+00 0. -1.
         11    1    4    4    0    0  0.10662371657E+03 -0.11900831371E+01 -0.11230480208E+03  0.15486252550E+03  0.00000000000E+00 0.  1.
        -11    1    3    3    0    0 -0.19111774923E+02 -0.27674913719E+02 -0.38811552664E+02  0.51356571247E+02  0.00000000000E+00 0.  1.
         11    1    3    3    0    0 -0.11077150064E+03  0.13477194121E+02  0.41608484358E+01  0.11166589799E+03  0.00000000000E+00 0. -1.
         21    1    1    2  502  501 -0.25955014798E+01  0.33672940123E+02 -0.65818661782E+02  0.73977697742E+02  0.00000000000E+00 0.  1.
<scales pt_clust_5="13000.00000" pt_clust_6="13000.00000" pt_clust_7="13000.00000" pt_clust_8="13000.00000" pt_clust_9="33.77282"></scales>
<clustering>
<clus scale="   33.773">  2  9  1 -1</clus>
<clus scale="   86.795">  5  6 -1 -1</clus>
<clus scale="   91.129">  7  8 -1 -1</clus>
<clus scale="  156.874">  2  5  1 -1</clus>
<clus scale="   33.773">  2  5  1 -1</clus>
</clustering>
</event>
<event>
 9    1  0.9000149E-006  0.1785957E+03  0.7546771E-02  0.1170216E+00
          3   -1    0    0  502    0  0.00000000000E+00  0.00000000000E+00  0.70269787115E+03  0.70269787115E+03  0.00000000000E+00 0. -1.
         -3   -1    0    0    0  501 -0.00000000000E+00 -0.00000000000E+00 -0.54058976218E+02  0.54058976218E+02  0.00000000000E+00 0.  1.
         23    2    1    2    0    0 -0.15084872457E+03 -0.62850243998E+02  0.20789139884E+03  0.27649055229E+03  0.80763239903E+02 0.  0.
         23    2    1    2    0    0  0.12992659881E+03  0.53236474113E+02  0.36711616715E+03  0.40311882254E+03  0.89529110597E+02 0.  0.
        -11    1    3    3    0    0 -0.13377763477E+03 -0.34419021273E+02  0.12154710219E+03  0.18399680063E+03  0.00000000000E+00 0.  1.
         11    1    3    3    0    0 -0.17071089798E+02 -0.28431222725E+02  0.86344296653E+02  0.92493751665E+02  0.00000000000E+00 0. -1.
        -13    1    4    4    0    0  0.28906783609E+02 -0.25341674488E+02  0.90808533635E+02  0.98610305675E+02  0.00000000000E+00 0.  1.
         13    1    4    4    0    0  0.10101981521E+03  0.78578148601E+02  0.27630763352E+03  0.30450851686E+03  0.00000000000E+00 0. -1.
         21    1    1    2  502  501  0.20922125756E+02  0.96137698852E+01  0.73631328937E+02  0.77147472535E+02  0.00000000000E+00 0. -1.
<scales pt_clust_5="13000.00000" pt_clust_6="13000.00000" pt_clust_7="13000.00000" pt_clust_8="13000.00000" pt_clust_9="23.02520"></scales>
<clustering>
<clus scale="   23.025">  1  9  2 -1</clus>
<clus scale="   80.763">  5  6 -1 -1</clus>
<clus scale="   89.529">  7  8 -1 -1</clus>
<clus scale="  174.366">  2  5  1 -1</clus>
<clus scale="   23.025">  1  5  2 -1</clus>
</clustering>
</event>
<event>
 9    1  0.9000149E-006  0.1050613E+03  0.7546771E-02  0.1271608E+00
          2   -1    0    0  502    0  0.00000000000E+00  0.00000000000E+00  0.52050406914E+03  0.52050406914E+03  0.00000000000E+00 0. -1.
         -2   -1    0    0    0  501 -0.00000000000E+00 -0.00000000000E+00 -0.32457898498E+02  0.32457898498E+02  0.00000000000E+00 0.  1.
         23    2    1    2    0    0  0.17323971633E+02 -0.17606665741E+02  0.14703525890E+03  0.17500837767E+03  0.91643058782E+02 0.  0.
         23    2    1    2    0    0 -0.10015670910E+02  0.64061082966E+02  0.25805892048E+03  0.28259921412E+03  0.95203851645E+02 0.  0.
        -13    1    4    4    0    0  0.36019109577E+02  0.36832527761E+02  0.18510344963E+03  0.19213874784E+03  0.00000000000E+00 0. -1.
         13    1    4    4    0    0 -0.46034780487E+02  0.27228555206E+02  0.72955470846E+02  0.90460466280E+02  0.00000000000E+00 0.  1.
        -13    1    3    3    0    0  0.49189980355E+02  0.12256605642E+02  0.69567116338E+02  0.86078233164E+02  0.00000000000E+00 0. -1.
         13    1    3    3    0    0 -0.31866008722E+02 -0.29863271382E+02  0.77468142565E+02  0.88930144507E+02  0.00000000000E+00 0.  1.
         21    1    1    2  502  501 -0.73083007222E+01 -0.46454417225E+02  0.82951991262E+02  0.95354375849E+02  0.00000000000E+00 0.  1.
<scales pt_clust_5="13000.00000" pt_clust_6="13000.00000" pt_clust_7="13000.00000" pt_clust_8="13000.00000" pt_clust_9="47.02578"></scales>
<clustering>
<clus scale="   47.026">  2  9  1 -1</clus>
<clus scale="   91.643">  7  8 -1 -1</clus>
<clus scale="   95.204">  5  6 -1 -1</clus>
<clus scale="  101.846">  2  7  1 -1</clus>
<clus scale="  105.061">  1  5  2 -1</clus>
</clustering>
</event>
<event>
 9    1  0.9000149E-006  0.9671412E+02  0.7546771E-02  0.1288593E+00
         -2   -1    0    0    0  501 -0.00000000000E+00  0.00000000000E+00  0.27143004447E+02  0.27143004447E+02  0.00000000000E+00 0.  1.
          2   -1    0    0  502    0  0.00000000000E+00 -0.00000000000E+00 -0.58451669658E+03  0.58451669658E+03  0.00000000000E+00 0. -1.
         23    2    1    2    0    0 -0.44210624605E+02  0.34336642229E+02 -0.17171162785E+03  0.20267483311E+03  0.91970758978E+02 0.  0.
         23    2    1    2    0    0  0.12485536584E+02 -0.14997080580E+02 -0.32631937732E+03  0.33897019553E+03  0.89641822782E+02 0.  0.
        -11    1    4    4    0    0  0.23028340522E+01  0.30824326676E+02 -0.50678416249E+02  0.59361132344E+02  0.00000000000E+00 0.  1.
         11    1    4    4    0    0  0.10182702532E+02 -0.45821407256E+02 -0.27564096107E+03  0.27960906319E+03  0.00000000000E+00 0. -1.
        -13    1    3    3    0    0 -0.67990765142E+02  0.20434692727E+02 -0.80208252958E+02  0.10711528674E+03  0.00000000000E+00 0.  1.
         13    1    3    3    0    0  0.23780140537E+02  0.13901949503E+02 -0.91503374895E+02  0.95559546363E+02  0.00000000000E+00 0. -1.
         21    1    1    2  502  501  0.31725088021E+02 -0.19339561650E+02 -0.59342686957E+02  0.70014672391E+02  0.00000000000E+00 0. -1.
<scales pt_clust_5="13000.00000" pt_clust_6="13000.00000" pt_clust_7="13000.00000" pt_clust_8="13000.00000" pt_clust_9="37.15508"></scales>
<clustering>
<clus scale="   37.155">  1  9  2 -1</clus>
<clus scale="   89.642">  5  6 -1 -1</clus>
<clus scale="   91.971">  7  8 -1 -1</clus>
<clus scale="   94.502">  2  5  1 -1</clus>
<clus scale="   94.502">  2  5  1 -1</clus>
</clustering>
</event>
<event>
 9    1  0.9000149E-006  0.1004418E+03  0.7546771E-02  0.1279412E+00
         -1   -1    0    0    0  501 -0.00000000000E+00  0.00000000000E+00  0.16641212730E+03  0.16641212730E+03  0.00000000000E+00 0.  1.
          1   -1    0    0  502    0  0.00000000000E+00 -0.00000000000E+00 -0.58546075773E+03  0.58546075773E+03  0.00000000000E+00 0. -1.
         23    2    1    2    0    0 -0.19061740024E+02  0.33230943429E+02  0.12797200712E+03  0.16189779949E+03  0.91468121978E+02 0.  0.
         23    2    1    2    0    0  0.86228904716E+02 -0.67130191822E+02 -0.30700457027E+03  0.33844317980E+03  0.91378843959E+02 0.  0.
        -13    1    4    4    0    0  0.59031636829E+02 -0.31537957329E+02 -0.68499864095E+02  0.95768514033E+02  0.00000000000E+00 0.  1.
         13    1    4    4    0    0  0.27197267887E+02 -0.35592234493E+02 -0.23850470618E+03  0.24267466577E+03  0.00000000000E+00 0. -1.
        -13    1    3    3    0    0  0.24773662953E+02 -0.30450289271E+01  0.90231580288E+02  0.93620215010E+02  0.00000000000E+00 0. -1.
         13    1    3    3    0    0 -0.43835402977E+02  0.36275972356E+02  0.37740426835E+02  0.68277584479E+02  0.00000000000E+00 0.  1.
         21    1    1    2  502  501 -0.67167164691E+02  0.33899248393E+02 -0.24001606728E+03  0.25153190574E+03  0.00000000000E+00 0. -1.
<scales pt_clust_5="13000.00000" pt_clust_6="13000.00000" pt_clust_7="13000.00000" pt_clust_8="13000.00000" pt_clust_9="75.23687"></scales>
<clustering>
<clus scale="   75.237">  2  9  1 -1</clus>
<clus scale="   91.379">  5  6 -1 -1</clus>
<clus scale="   91.468">  7  8 -1 -1</clus>
<clus scale="  100.361">  2  5  1 -1</clus>
<clus scale="   75.237">  2  5  1 -1</clus>
</clustering>
</event>
<event>
 9    1  0.9000149E-006  0.1050688E+03  0.7546771E-02  0.1283407E+00
          1   -1    0    0  502    0  0.00000000000E+00  0.00000000000E+00  0.32463463669E+03  0.32463463669E+03  0.00000000000E+00 0. -1.
         -1   -1    0    0    0  501 -0.00000000000E+00 -0.00000000000E+00 -0.10675837405E+03  0.10675837405E+03  0.00000000000E+00 0.  1.
         23    2    1    2    0    0  0.19898865983E+02 -0.50778168092E+02 -0.60415259442E+02  0.12320475404E+03  0.92493354477E+02 0.  0.
         23    2    1    2    0    0  0.17716648026E+02  0.39443952058E+02  0.10467170099E+03  0.13017917373E+03  0.64193047235E+02 0.  0.
        -11    1    3    3    0    0  0.56671157645E+02 -0.36533885047E+02 -0.43855452730E+02  0.80434107191E+02  0.00000000000E+00 0.  1.
         11    1    3    3    0    0 -0.36772291662E+02 -0.14244283044E+02 -0.16559806712E+02  0.42770646849E+02  0.00000000000E+00 0. -1.
        -13    1    4    4    0    0 -0.24186332421E+02  0.15373911082E+02  0.32600217207E+02  0.43406335711E+02  0.00000000000E+00 0. -1.
         13    1    4    4    0    0  0.41902980447E+02  0.24070040977E+02  0.72071483783E+02  0.86772838018E+02  0.00000000000E+00 0.  1.
         21    1    1    2  502  501 -0.37615514009E+02  0.11334216034E+02  0.17361982108E+03  0.17800908297E+03  0.00000000000E+00 0. -1.
<scales pt_clust_5="13000.00000" pt_clust_6="13000.00000" pt_clust_7="13000.00000" pt_clust_8="13000.00000" pt_clust_9="39.28602"></scales>
<clustering>
<clus scale="   39.286">  1  9  2 -1</clus>
<clus scale="   64.193">  7  8 -1 -1</clus>
<clus scale="   81.272">  1  7  2 -1</clus>
<clus scale="   92.493">  5  6 -1 -1</clus>
<clus scale="   39.286">  1  5  2 -1</clus>
</clustering>
</event>
<event>
 9    1  0.9000149E-006  0.1362641E+03  0.7546771E-02  0.1218750E+00
          1   -1    0    0  502    0  0.00000000000E+00  0.00000000000E+00  0.53447942300E+03  0.53447942300E+03  0.00000000000E+00 0. -1.
         -1   -1    0    0    0  501 -0.00000000000E+00 -0.00000000000E+00 -0.50460816398E+02  0.50460816398E+02  0.00000000000E+00 0.  1.
         23    2    1    2    0    0  0.54696421626E+02  0.96664753966E+02  0.10583317735E+03  0.17763228007E+03  0.89536541692E+02 0.  0.
         23    2    1    2    0    0 -0.33506751128E+02 -0.78260436904E+02  0.29277530281E+03  0.31740461833E+03  0.88209497494E+02 0.  0.
        -11    1    4    4    0    0  0.14214434461E+02 -0.66369159383E+02  0.21430129709E+03  0.22479315247E+03  0.00000000000E+00 0.  1.
         11    1    4    4    0    0 -0.47721185589E+02 -0.11891277520E+02  0.78474005724E+02  0.92611465864E+02  0.00000000000E+00 0. -1.
        -13    1    3    3    0    0  0.28261452106E+02  0.33451496495E+02 -0.82427751302E+01  0.44560696075E+02  0.00000000000E+00 0.  1.
         13    1    3    3    0    0  0.26434969520E+02  0.63213257472E+02  0.11407595248E+03  0.13307158400E+03  0.00000000000E+00 0. -1.
         21    1    1    2  502  501 -0.21189670498E+02 -0.18404317063E+02  0.85410126447E+02  0.89903340995E+02  0.00000000000E+00 0.  1.
<scales pt_clust_5="13000.00000" pt_clust_6="13000.00000" pt_clust_7="13000.00000" pt_clust_8="13000.00000" pt_clust_9="28.06637"></scales>
<clustering>
<clus scale="   28.066">  1  9  2 -1</clus>
<clus scale="   88.209">  5  6 -1 -1</clus>
<clus scale="   89.537">  7  8 -1 -1</clus>
<clus scale="  135.396">  1  5  2 -1</clus>
<clus scale="   28.066">  1  5  2 -1</clus>
</clustering>
</event>
<event>
 9    1  0.9000149E-006  0.1028379E+03  0.7546771E-02  0.1275552E+00
         -2   -1    0    0    0  501 -0.00000000000E+00  0.00000000000E+00  0.41210226830E+02  0.41210226830E+02  0.00000000000E+00 0.  1.
          2   -1    0    0  502    0  0.00000000000E+00 -0.00000000000E+00 -0.43388528271E+03  0.43388528271E+03  0.00000000000E+00 0. -1.
         23    2    1    2    0    0 -0.12679026537E+02  0.40077099341E+02 -0.65139303136E+02  0.12085496503E+03  0.92713872494E+02 0.  0.
         23    2    1    2    0    0 -0.48870756926E+01 -0.52888072573E+02 -0.20965703282E+03  0.23437361166E+03  0.90298874297E+02 0.  0.
        -11    1    3    3    0    0 -0.48987943864E+02  0.61349388223E+01 -0.46351459238E+02  0.67719376044E+02  0.00000000000E+00 0.  1.
         11    1    3    3    0    0  0.36308917327E+02  0.33942160518E+02 -0.18787843898E+02  0.53135588981E+02  0.00000000000E+00 0. -1.
        -11    1    4    4    0    0  0.10635472566E+02 -0.73941285619E+02 -0.17967359555E+03  0.19458424380E+03  0.00000000000E+00 0. -1.
         11    1    4    4    0    0 -0.15522548259E+02  0.21053213046E+02 -0.29983437273E+02  0.39789367861E+02  0.00000000000E+00 0.  1.
         21    1    1    2  502  501  0.17566102230E+02  0.12810973232E+02 -0.11787871992E+03  0.11986693286E+03  0.00000000000E+00 0. -1.
<scales pt_clust_5="13000.00000" pt_clust_6="13000.00000" pt_clust_7="13000.00000" pt_clust_8="13000.00000" pt_clust_9="21.74141"></scales>
<clustering>
<clus scale="   21.741">  2  9  1 -1</clus>
<clus scale="   90.299">  7  8 -1 -1</clus>
<clus scale="   92.714">  5  6 -1 -1</clus>
<clus scale="  100.666">  2  7  1 -1</clus>
<clus scale="   21.741">  2  5  1 -1</clus>
</clustering>
</event>
<event>
 9    1  0.9000149E-006  0.1010703E+03  0.7546771E-02  0.1279561E+00
         -1   -1    0    0    0  501 -0.00000000000E+00  0.00000000000E+00  0.39611119812E+02  0.39611119812E+02  0.00000000000E+00 0.  1.
          1   -1    0    0  502    0  0.00000000000E+00 -0.00000000000E+00 -0.37985653150E+03  0.37985653150E+03  0.00000000000E+00 0. -1.
         23    2    1    2    0    0  0.47074841823E+02 -0.17045827022E+02 -0.90761939698E+02  0.13739927178E+03  0.90189961949E+02 0.  0.
         23    2    1    2    0    0 -0.24027429353E+02  0.58075569315E+00 -0.14706881058E+03  0.17580905210E+03  0.93284152540E+02 0.  0.
        -11    1    4    4    0    0 -0.30723115361E+02  0.41308944214E+02 -0.10462610073E+03  0.11660600174E+03  0.00000000000E+00 0.  1.
         11    1    4    4    0    0  0.66956860079E+01 -0.40728188521E+02 -0.42442709853E+02  0.59203050352E+02  0.00000000000E+00 0. -1.
        -13    1    3    3    0    0  0.70970015236E+02 -0.12678628285E+02 -0.86721426973E+02  0.11277453868E+03  0.00000000000E+00 0. -1.
         13    1    3    3    0    0 -0.23895173413E+02 -0.43671987364E+01 -0.40405127248E+01  0.24624733102E+02  0.00000000000E+00 0.  1.
         21    1    1    2  502  501 -0.23047412470E+02  0.16465071329E+02 -0.10241466142E+03  0.10625932744E+03  0.00000000000E+00 0.  1.
<scales pt_clust_5="13000.00000" pt_clust_6="13000.00000" pt_clust_7="13000.00000" pt_clust_8="13000.00000" pt_clust_9="28.32458"></scales>
<clustering>
<clus scale="   28.325">  2  9  1 -1</clus>
<clus scale="   90.190">  7  8 -1 -1</clus>
<clus scale="   93.284">  5  6 -1 -1</clus>
<clus scale="   98.222">  1  7  2 -1</clus>
<clus scale="   28.325">  2  5  1 -1</clus>
</clustering>
</event>
<event>
 9    1  0.9000149E-006  0.1170111E+03  0.7546771E-02  0.1255546E+00
          2   -1    0    0  502    0  0.00000000000E+00  0.00000000000E+00  0.28140605384E+03  0.28140605384E+03  0.00000000000E+00 0. -1.
         -2   -1    0    0    0  501 -0.00000000000E+00 -0.00000000000E+00 -0.55338797118E+02  0.55338797118E+02  0.00000000000E+00 0.  1.
         23    2    1    2    0    0 -0.20643828938E+01  0.49564912081E+02  0.69699391428E+02  0.13748100467E+03  0.10762006919E+03 0.  0.
         23    2    1    2    0    0  0.20961419675E+02 -0.38565371902E+02  0.11440112252E+03  0.15194265249E+03  0.89845889102E+02 0.  0.
        -11    1    3    3    0    0  0.30178089589E+02 -0.37891557909E+00  0.71916441322E+02  0.77992532980E+02  0.00000000000E+00 0.  1.
         11    1    3    3    0    0 -0.32242472483E+02  0.49943827660E+02 -0.22170498939E+01  0.59488471685E+02  0.00000000000E+00 0. -1.
        -11    1    4    4    0    0  0.55156076530E+02 -0.16158394647E+02  0.80042756643E+02  0.98539988770E+02  0.00000000000E+00 0.  1.
         11    1    4    4    0    0 -0.34194656855E+02 -0.22406977255E+02  0.34358365872E+02  0.53402663722E+02  0.00000000000E+00 0. -1.
         21    1    1    2  502  501 -0.18897036781E+02 -0.10999540180E+02  0.41966742776E+02  0.47321193798E+02  0.00000000000E+00 0. -1.
<scales pt_clust_5="13000.00000" pt_clust_6="13000.00000" pt_clust_7="13000.00000" pt_clust_8="13000.00000" pt_clust_9="21.86522"></scales>
<clustering>
<clus scale="   21.865">  1  9  2 -1</clus>
<clus scale="   89.846">  7  8 -1 -1</clus>
<clus scale="  100.905">  1  7  2 -1</clus>
<clus scale="  107.620">  5  6 -1 -1</clus>
<clus scale="   21.865">  1  5  2 -1</clus>
</clustering>
</event>
<event>
 9    1  0.9000149E-006  0.1480112E+03  0.7546771E-02  0.1203034E+00
          2   -1    0    0  502    0  0.00000000000E+00  0.00000000000E+00  0.17470294214E+03  0.17470294214E+03  0.00000000000E+00 0. -1.
         -2   -1    0    0    0  501 -0.00000000000E+00 -0.00000000000E+00 -0.32616926087E+03  0.32616926087E+03  0.00000000000E+00 0.  1.
         23    2    1    2    0    0  0.63096102615E+02 -0.76111046660E+02 -0.10111544138E+03  0.16817327250E+03  0.91015973927E+02 0.  0.
         23    2    1    2    0    0 -0.40235663018E+02  0.13735577053E+03 -0.14139467824E+03  0.22061641814E+03  0.90518686714E+02 0.  0.
        -11    1    4    4    0    0 -0.36878034029E+01  0.10650181213E+03 -0.13555991427E+03  0.17243180170E+03  0.00000000000E+00 0.  1.
         11    1    4    4    0    0 -0.36547859615E+02  0.30853958395E+02 -0.58347639696E+01  0.48184616441E+02  0.00000000000E+00 0. -1.
        -13    1    3    3    0    0  0.61417820698E+02 -0.51388270376E+01 -0.33568863907E+02  0.70181371222E+02  0.00000000000E+00 0.  1.
         13    1    3    3    0    0  0.16782819169E+01 -0.70972219622E+02 -0.67546577473E+02  0.97991901280E+02  0.00000000000E+00 0. -1.
         21    1    1    2  502  501 -0.22860439597E+02 -0.61244723867E+02  0.91043800877E+02  0.11208251237E+03  0.00000000000E+00 0. -1.
<scales pt_clust_5="13000.00000" pt_clust_6="13000.00000" pt_clust_7="13000.00000" pt_clust_8="13000.00000" pt_clust_9="65.37213"></scales>
<clustering>
<clus scale="   65.372">  1  9  2 -1</clus>
<clus scale="   90.519">  5  6 -1 -1</clus>
<clus scale="   91.016">  7  8 -1 -1</clus>
<clus scale="  147.706">  1  5  2 -1</clus>
<clus scale="   65.372">  1  5  2 -1</clus>
</clustering>
</event>
<event>
 9    1  0.9000149E-006  0.1365453E+03  0.7546771E-02  0.1218673E+00
          4   -1    0    0  502    0  0.00000000000E+00  0.00000000000E+00  0.38735928351E+03  0.38735928351E+03  0.00000000000E+00 0. -1.
         -4   -1    0    0    0  501 -0.00000000000E+00 -0.00000000000E+00 -0.57652185054E+02  0.57652185054E+02  0.00000000000E+00 0.  1.
         23    2    1    2    0    0  0.18117219269E+02  0.10715528900E+03  0.11781258532E+03  0.18416667221E+03  0.90703187909E+02 0.  0.
         23    2    1    2    0    0 -0.65834592735E+01 -0.88433915764E+02  0.16699707758E+03  0.21085182530E+03  0.93308996985E+02 0.  0.
        -11    1    4    4    0    0 -0.33277872345E+02 -0.92068547466E+02  0.10668090858E+03  0.14479243929E+03  0.00000000000E+00 0.  1.
         11    1    4    4    0    0  0.26694413072E+02  0.36346317027E+01  0.60316169002E+02  0.66059386009E+02  0.00000000000E+00 0. -1.
        -11    1    3    3    0    0 -0.25728105793E+02  0.53185718529E+02  0.16599780124E+02  0.61369445030E+02  0.00000000000E+00 0. -1.
         11    1    3    3    0    0  0.43845325062E+02  0.53969570476E+02  0.10121280519E+03  0.12279722718E+03  0.00000000000E+00 0.  1.
         21    1    1    2  502  501 -0.11533759995E+02 -0.18721373241E+02  0.44897435556E+02  0.49992971057E+02  0.00000000000E+00 0.  1.
<scales pt_clust_5="13000.00000" pt_clust_6="13000.00000" pt_clust_7="13000.00000" pt_clust_8="13000.00000" pt_clust_9="21.98903"></scales>
<clustering>
<clus scale="   21.989">  1  9  2 -1</clus>
<clus scale="   90.703">  7  8 -1 -1</clus>
<clus scale="   93.309">  5  6 -1 -1</clus>
<clus scale="  134.778">  2  7  1 -1</clus>
<clus scale="   21.989">  1  5  2 -1</clus>
</clustering>
</event>
<event>
 9    1  0.9000149E-006  0.1367903E+03  0.7546771E-02  0.1218448E+00
         -1   -1    0    0    0  501 -0.00000000000E+00  0.00000000000E+00  0.13860531848E+04  0.13860531848E+04  0.00000000000E+00 0.  1.
          1   -1    0    0  502    0  0.00000000000E+00 -0.00000000000E+00 -0.23818732706E+02  0.23818732706E+02  0.00000000000E+00 0. -1.
         23    2    1    2    0    0  0.84754438307E+02  0.92543793619E+02  0.84619167639E+03  0.86060244423E+03  0.94066706544E+02 0.  0.
         23    2    1    2    0    0 -0.75556391736E+02 -0.51572224680E+02  0.26503297712E+03  0.29477155087E+03  0.90990799263E+02 0.  0.
        -11    1    3    3    0    0  0.45690678568E+02  0.10520963474E+03  0.66456964224E+03  0.67439566631E+03  0.00000000000E+00 0.  1.
         11    1    3    3    0    0  0.39063759739E+02 -0.12665841121E+02  0.18162203415E+03  0.18620677792E+03  0.00000000000E+00 0. -1.
        -13    1    4    4    0    0 -0.18163001277E+02 -0.31760581841E+02  0.18744676890E+02  0.41109513327E+02  0.00000000000E+00 0. -1.
         13    1    4    4    0    0 -0.57393390459E+02 -0.19811642839E+02  0.24628830023E+03  0.25366203754E+03  0.00000000000E+00 0.  1.
         21    1    1    2  502  501 -0.91980465713E+01 -0.40971568939E+02  0.25100979856E+03  0.25449792238E+03  0.00000000000E+00 0. -1.
<scales pt_clust_5="13000.00000" pt_clust_6="13000.00000" pt_clust_7="13000.00000" pt_clust_8="13000.00000" pt_clust_9="41.99135"></scales>
<clustering>
<clus scale="   41.991">  1  9  2 -1</clus>
<clus scale="   90.991">  7  8 -1 -1</clus>
<clus scale="   94.067">  5  6 -1 -1</clus>
<clus scale="  134.694">  2  7  1 -1</clus>
<clus scale="  134.694">  2  5  1 -1</clus>
</clustering>
</event>
<event>
 9    1  0.9000149E-006  0.9832609E+02  0.7546771E-02  0.1288846E+00
         -1   -1    0    0    0  501 -0.00000000000E+00  0.00000000000E+00  0.25102790946E+03  0.25102790946E+03  0.00000000000E+00 0.  1.
          1   -1    0    0  502    0  0.00000000000E+00 -0.00000000000E+00 -0.37375098384E+03  0.37375098384E+03  0.00000000000E+00 0. -1.
         23    2    1    2    0    0 -0.98450473522E+01 -0.26932625962E+02  0.23030718340E+03  0.25044527288E+03  0.94123029496E+02 0.  0.
         23    2    1    2    0    0  0.29308113170E+02  0.11106427191E+02 -0.32180684094E+03  0.33428138880E+03  0.84865103539E+02 0.  0.
        -11    1    4    4    0    0  0.26799690707E+02  0.40655843529E+02 -0.27192005201E+03  0.27624560760E+03  0.00000000000E+00 0. -1.
         11    1    4    4    0    0  0.25084224639E+01 -0.29549416338E+02 -0.49886788930E+02  0.58035781195E+02  0.00000000000E+00 0.  1.
        -13    1    3    3    0    0  0.30877387209E+02 -0.27420274790E+02  0.18487928626E+03  0.18943504163E+03  0.00000000000E+00 0.  1.
         13    1    3    3    0    0 -0.40722434561E+02  0.48764882772E+00  0.45427897147E+02  0.61010231249E+02  0.00000000000E+00 0. -1.
         21    1    1    2  502  501 -0.19463065818E+02  0.15826198771E+02 -0.31223416843E+02  0.40052231623E+02  0.00000000000E+00 0. -1.
<scales pt_clust_5="13000.00000" pt_clust_6="13000.00000" pt_clust_7="13000.00000" pt_clust_8="13000.00000" pt_clust_9="25.08544"></scales>
<clustering>
<clus scale="   25.085">  2  9  1 -1</clus>
<clus scale="   84.865">  5  6 -1 -1</clus>
<clus scale="   89.504">  2  5  1 -1</clus>
<clus scale="   94.123">  7  8 -1 -1</clus>
<clus scale="   25.085">  2  5  1 -1</clus>
</clustering>
</event>
<event>
 9    1  0.9000149E-006  0.3883629E+03  0.7546771E-02  0.1047913E+00
          1   -1    0    0  502    0  0.00000000000E+00  0.00000000000E+00  0.20130403638E+03  0.20130403638E+03  0.00000000000E+00 0. -1.
         -1   -1    0    0    0  501 -0.00000000000E+00 -0.00000000000E+00 -0.11042690244E+04  0.11042690244E+04  0.00000000000E+00 0.  1.
         23    2    1    2    0    0  0.16273633079E+03 -0.33434253764E+03 -0.72925772001E+03  0.82385584715E+03  0.93024667928E+02 0.  0.
         23    2    1    2    0    0 -0.15419308415E+03  0.35819012762E+03 -0.19730306421E+03  0.44709848727E+03  0.94302086148E+02 0.  0.
        -13    1    4    4    0    0 -0.10181321226E+03  0.32154746255E+03 -0.16522454071E+03  0.37557668952E+03  0.00000000000E+00 0.  1.
         13    1    4    4    0    0 -0.52379871897E+02  0.36642665069E+02 -0.32078523503E+02  0.71521797750E+02  0.00000000000E+00 0. -1.
        -13    1    3    3    0    0  0.42106404546E+02 -0.33041664225E+02 -0.15827155688E+03  0.16707658901E+03  0.00000000000E+00 0.  1.
         13    1    3    3    0    0  0.12062992624E+03 -0.30130087342E+03 -0.57098616314E+03  0.65677925814E+03  0.00000000000E+00 0. -1.
         21    1    1    2  502  501 -0.85432466341E+01 -0.23847589974E+02  0.23595796258E+02  0.34618726316E+02  0.00000000000E+00 0. -1.
<scales pt_clust_5="13000.00000" pt_clust_6="13000.00000" pt_clust_7="13000.00000" pt_clust_8="13000.00000" pt_clust_9="25.33169"></scales>
<clustering>
<clus scale="   25.332">  1  9  2 -1</clus>
<clus scale="   93.025">  7  8 -1 -1</clus>
<clus scale="   94.302">  5  6 -1 -1</clus>
<clus scale="  388.055">  2  7  1 -1</clus>
<clus scale="   25.332">  1  5  2 -1</clus>
</clustering>
</event>
<event>
 9    1  0.9000149E-006  0.1151867E+03  0.7546771E-02  0.1251833E+00
          1   -1    0    0  502    0  0.00000000000E+00  0.00000000000E+00  0.25053460298E+03  0.25053460298E+03  0.00000000000E+00 0. -1.
         -1   -1    0    0    0  501 -0.00000000000E+00 -0.00000000000E+00 -0.14329307485E+03  0.14329307485E+03  0.00000000000E+00 0.  1.
         23    2    1    2    0    0  0.44123328896E+01  0.44565375161E+02 -0.98873850511E+01  0.10213529742E+03  0.91259614571E+02 0.  0.
         23    2    1    2    0    0  0.13252581971E+02 -0.14183330626E+03  0.73161198584E+02  0.18349691117E+03  0.89589272449E+02 0.  0.
        -11    1    4    4    0    0 -0.72481082930E+01 -0.12913000549E+03  0.28044903561E+02  0.13233899655E+03  0.00000000000E+00 0.  1.
         11    1    4    4    0    0  0.20500690264E+02 -0.12703300765E+02  0.45116295024E+02  0.51157914620E+02  0.00000000000E+00 0. -1.
        -11    1    3    3    0    0  0.28769714370E+02  0.62635998177E+02  0.34278401102E+01  0.69012425116E+02  0.00000000000E+00 0. -1.
         11    1    3    3    0    0 -0.24357381481E+02 -0.18070623016E+02 -0.13315225161E+02  0.33122872307E+02  0.00000000000E+00 0.  1.
         21    1    1    2  502  501 -0.17664914860E+02  0.97267931094E+02  0.43967714596E+02  0.10819546924E+03  0.00000000000E+00 0. -1.
<scales pt_clust_5="13000.00000" pt_clust_6="13000.00000" pt_clust_7="13000.00000" pt_clust_8="13000.00000" pt_clust_9="98.85899"></scales>
<clustering>
<clus scale="   89.589">  5  6 -1 -1</clus>
<clus scale="   91.260">  7  8 -1 -1</clus>
<clus scale="   98.859">  1  9  2 -1</clus>
<clus scale="  113.868">  1  5  2 -1</clus>
<clus scale="   98.859">  1  5  2 -1</clus>
</clustering>
</event>
<event>
 9    1  0.9000149E-006  0.1040739E+03  0.7546771E-02  0.1272086E+00
         -2   -1    0    0    0  501 -0.00000000000E+00  0.00000000000E+00  0.80427113893E+02  0.80427113893E+02  0.00000000000E+00 0.  1.
          2   -1    0    0  502    0  0.00000000000E+00 -0.00000000000E+00 -0.40028799794E+03  0.40028799794E+03  0.00000000000E+00 0. -1.
         23    2    1    2    0    0  0.43499492828E+02  0.23650436584E+02  0.28881911639E+02  0.10814229373E+03  0.91700827949E+02 0.  0.
         23    2    1    2    0    0 -0.26290877475E+02 -0.40427333927E+02 -0.24550789463E+03  0.26657732045E+03  0.91998705889E+02 0.  0.
        -11    1    3    3    0    0  0.13796895541E+02  0.57374647791E+02  0.20199472757E+02  0.62371654102E+02  0.00000000000E+00 0.  1.
         11    1    3    3    0    0  0.29702597286E+02 -0.33724211207E+02  0.86824388818E+01  0.45770639629E+02  0.00000000000E+00 0. -1.
        -13    1    4    4    0    0  0.26062901889E+02  0.12913658168E+02 -0.72319340260E+02  0.77949499022E+02  0.00000000000E+00 0.  1.
         13    1    4    4    0    0 -0.52353779364E+02 -0.53340992095E+02 -0.17318855437E+03  0.18862782143E+03  0.00000000000E+00 0. -1.
         21    1    1    2  502  501 -0.17208615352E+02  0.16776897344E+02 -0.10323490105E+03  0.10599549765E+03  0.00000000000E+00 0. -1.
<scales pt_clust_5="13000.00000" pt_clust_6="13000.00000" pt_clust_7="13000.00000" pt_clust_8="13000.00000" pt_clust_9="24.03333"></scales>
<clustering>
<clus scale="   24.033">  2  9  1 -1</clus>
<clus scale="   91.701">  5  6 -1 -1</clus>
<clus scale="   91.999">  7  8 -1 -1</clus>
<clus scale="  103.811">  1  5  2 -1</clus>
<clus scale="   24.033">  2  5  1 -1</clus>
</clustering>
</event>
<event>
 9    1  0.9000149E-006  0.1095948E+03  0.7546771E-02  0.1261425E+00
         -1   -1    0    0    0  501 -0.00000000000E+00  0.00000000000E+00  0.29887585760E+03  0.29887585760E+03  0.00000000000E+00 0.  1.
          1   -1    0    0  502    0  0.00000000000E+00 -0.00000000000E+00 -0.67175718545E+02  0.67175718545E+02  0.00000000000E+00 0. -1.
         23    2    1    2    0    0 -0.39171540197E+02  0.12432990799E+02  0.10054567264E+03  0.14167949968E+03  0.90965155530E+02 0.  0.
         23    2    1    2    0    0  0.82163731998E+02 -0.41824986356E+02  0.10180428620E+03  0.16459205441E+03  0.90698530007E+02 0.  0.
        -11    1    3    3    0    0  0.13682419303E+02 -0.21988836422E+02  0.63385995265E+02  0.68472636293E+02  0.00000000000E+00 0.  1.
         11    1    3    3    0    0 -0.52853959500E+02  0.34421827220E+02  0.37159677375E+02  0.73206863385E+02  0.00000000000E+00 0. -1.
        -13    1    4    4    0    0 -0.15212392475E+02 -0.15347618831E+02  0.51702332362E+00  0.21615587008E+02  0.00000000000E+00 0. -1.
         13    1    4    4    0    0  0.97376124473E+02 -0.26477367526E+02  0.10128726288E+03  0.14297646740E+03  0.00000000000E+00 0.  1.
         21    1    1    2  502  501 -0.42992191801E+02  0.29391995557E+02  0.29350180207E+02  0.59780022054E+02  0.00000000000E+00 0. -1.
<scales pt_clust_5="13000.00000" pt_clust_6="13000.00000" pt_clust_7="13000.00000" pt_clust_8="13000.00000" pt_clust_9="52.07896"></scales>
<clustering>
<clus scale="   52.079">  2  9  1 -1</clus>
<clus scale="   90.699">  7  8 -1 -1</clus>
<clus scale="   90.965">  5  6 -1 -1</clus>
<clus scale="  109.374">  2  7  1 -1</clus>
<clus scale="   52.079">  2  5  1 -1</clus>
</clustering>
</event>
<event>
 9    1  0.9000149E-006  0.1031776E+03  0.7546771E-02  0.1278664E+00
          2   -1    0    0  502    0  0.00000000000E+00  0.00000000000E+00  0.20575175623E+03  0.20575175623E+03  0.00000000000E+00 0. -1.
         -2   -1    0    0    0  501 -0.00000000000E+00 -0.00000000000E+00 -0.12199603375E+03  0.12199603375E+03  0.00000000000E+00 0.  1.
         23    2    1    2    0    0  0.62078994587E+02  0.43821141316E+02 -0.32642286554E+02  0.11539883723E+03  0.80481543027E+02 0.  0.
         23    2    1    2    0    0 -0.12297342989E+02  0.18136912612E+02  0.39311006216E+02  0.10162669082E+03  0.91117818425E+02 0.  0.
        -13    1    3    3    0    0  0.30017255804E+02 -0.22149492612E+02 -0.12324820500E+02  0.39287871784E+02  0.00000000000E+00 0. -1.
         13    1    3    3    0    0  0.32061738783E+02  0.65970633928E+02 -0.20317466054E+02  0.76110965448E+02  0.00000000000E+00 0.  1.
        -13    1    4    4    0    0  0.15202633729E+02 -0.30392676988E+02  0.10746367343E+01  0.33999848983E+02  0.00000000000E+00 0.  1.
         13    1    4    4    0    0 -0.27499976718E+02  0.48529589599E+02  0.38236369482E+02  0.67626841841E+02  0.00000000000E+00 0. -1.
         21    1    1    2  502  501 -0.49781651598E+02 -0.61958053927E+02  0.77087002816E+02  0.11072226192E+03  0.00000000000E+00 0. -1.
<scales pt_clust_5="13000.00000" pt_clust_6="13000.00000" pt_clust_7="13000.00000" pt_clust_8="13000.00000" pt_clust_9="79.47964"></scales>
<clustering>
<clus scale="   79.480">  1  9  2 -1</clus>
<clus scale="   80.482">  5  6 -1 -1</clus>
<clus scale="   91.118">  7  8 -1 -1</clus>
<clus scale="   93.917">  2  5  1 -1</clus>
<clus scale="   79.480">  1  5  2 -1</clus>
</clustering>
</event>
<event>
 9    1  0.9000149E-006  0.9451817E+02  0.7546771E-02  0.1292298E+00
          1   -1    0    0  502    0  0.00000000000E+00  0.00000000000E+00  0.31316667218E+03  0.31316667218E+03  0.00000000000E+00 0. -1.
         -1   -1    0    0    0  501 -0.00000000000E+00 -0.00000000000E+00 -0.38963255536E+02  0.38963255536E+02  0.00000000000E+00 0.  1.
         23    2    1    2    0    0 -0.60359328284E+01  0.10818196781E+02  0.95307601629E+02  0.13210397513E+03  0.90633633107E+02 0.  0.
         23    2    1    2    0    0  0.32869706204E+02 -0.21847671376E+02  0.14293972397E+03  0.17382485751E+03  0.90694972668E+02 0.  0.
        -11    1    3    3    0    0  0.20224605116E+02 -0.88893169675E+01 -0.81608688768E+01  0.23551101653E+02  0.00000000000E+00 0.  1.
         11    1    3    3    0    0 -0.26260537945E+02  0.19707513748E+02  0.10346847051E+03  0.10855287348E+03  0.00000000000E+00 0. -1.
        -11    1    4    4    0    0  0.52510245258E+02 -0.14630914060E+02  0.37103015751E+02  0.65939542621E+02  0.00000000000E+00 0.  1.
         11    1    4    4    0    0 -0.19640539054E+02 -0.72167573166E+01  0.10583670822E+03  0.10788531489E+03  0.00000000000E+00 0. -1.
         21    1    1    2  502  501 -0.26833773376E+02  0.11029474595E+02  0.35956091042E+02  0.46201095079E+02  0.00000000000E+00 0. -1.
<scales pt_clust_5="13000.00000" pt_clust_6="13000.00000" pt_clust_7="13000.00000" pt_clust_8="13000.00000" pt_clust_9="29.01208"></scales>
<clustering>
<clus scale="   29.012">  2  9  1 -1</clus>
<clus scale="   90.634">  5  6 -1 -1</clus>
<clus scale="   90.695">  7  8 -1 -1</clus>
<clus scale="   94.459">  2  5  1 -1</clus>
<clus scale="   94.518">  1  5  2 -1</clus>
</clustering>
</event>
<event>
 9    1  0.9000149E-006  0.9497108E+02  0.7546771E-02  0.1292887E+00
          3   -1    0    0  502    0  0.00000000000E+00  0.00000000000E+00  0.47380461897E+03  0.47380461897E+03  0.00000000000E+00 0. -1.
         -3   -1    0    0    0  501 -0.00000000000E+00 -0.00000000000E+00 -0.24783981723E+02  0.24783981723E+02  0.00000000000E+00 0.  1.
         23    2    1    2    0    0 -0.77573637467E+00  0.34978009307E+02  0.14053877450E+03  0.16947157336E+03  0.88007977689E+02 0.  0.
         23    2    1    2    0    0  0.71156565113E+01 -0.14327724622E+02  0.23463536639E+03  0.25217592083E+03  0.91011118155E+02 0.  0.
        -11    1    4    4    0    0  0.35501269458E+01  0.36592742167E+02  0.13889005456E+03  0.14367351682E+03  0.00000000000E+00 0.  1.
         11    1    4    4    0    0  0.35655295654E+01 -0.50920466788E+02  0.95745311829E+02  0.10850240401E+03  0.00000000000E+00 0. -1.
        -11    1    3    3    0    0 -0.30396864530E+02 -0.38369093393E+01  0.10418874902E+03  0.10860012278E+03  0.00000000000E+00 0. -1.
         11    1    3    3    0    0  0.29621128155E+02  0.38814918646E+02  0.36350025481E+02  0.60871450576E+02  0.00000000000E+00 0.  1.
         21    1    1    2  502  501 -0.63399201366E+01 -0.20650284685E+02  0.73846496355E+02  0.76941106496E+02  0.00000000000E+00 0.  1.
<scales pt_clust_5="13000.00000" pt_clust_6="13000.00000" pt_clust_7="13000.00000" pt_clust_8="13000.00000" pt_clust_9="21.60159"></scales>
<clustering>
<clus scale="   21.602">  1  9  2 -1</clus>
<clus scale="   88.008">  7  8 -1 -1</clus>
<clus scale="   91.011">  5  6 -1 -1</clus>
<clus scale="   92.097">  2  7  1 -1</clus>
<clus scale="   21.602">  1  5  2 -1</clus>
</clustering>
</event>
<event>
 9    1  0.9000149E-006  0.1299203E+03  0.7546771E-02  0.1242867E+00
         -1   -1    0    0    0  501 -0.00000000000E+00  0.00000000000E+00  0.15350212651E+03  0.15350212651E+03  0.00000000000E+00 0.  1.
          1   -1    0    0  502    0  0.00000000000E+00 -0.00000000000E+00 -0.22072606592E+03  0.22072606592E+03  0.00000000000E+00 0. -1.
         23    2    1    2    0    0  0.47495317692E+01  0.31419688938E+02  0.52214421367E+02  0.14102100142E+03  0.12708588489E+03 0.  0.
         23    2    1    2    0    0 -0.21086380451E+02 -0.16275229404E+02  0.15750047318E+02  0.96195684338E+02  0.91082529401E+02 0.  0.
        -11    1    4    4    0    0  0.34236343961E+02 -0.14547960185E+02  0.16844629929E+02  0.40835180308E+02  0.00000000000E+00 0.  1.
         11    1    4    4    0    0 -0.55322724412E+02 -0.17272692192E+01 -0.10945826104E+01  0.55360504030E+02  0.00000000000E+00 0. -1.
        -13    1    3    3    0    0  0.41734828427E+02  0.63085415841E+02  0.94705859590E+01  0.76231604955E+02  0.00000000000E+00 0.  1.
         13    1    3    3    0    0 -0.36985296658E+02 -0.31665726902E+02  0.42743835408E+02  0.64789396467E+02  0.00000000000E+00 0. -1.
         21    1    1    2  502  501  0.16336848682E+02 -0.15144459534E+02 -0.13518840809E+03  0.13701150668E+03  0.00000000000E+00 0. -1.
<scales pt_clust_5="13000.00000" pt_clust_6="13000.00000" pt_clust_7="13000.00000" pt_clust_8="13000.00000" pt_clust_9="22.27661"></scales>
<clustering>
<clus scale="   22.277">  2  9  1 -1</clus>
<clus scale="   91.083">  5  6 -1 -1</clus>
<clus scale="   94.997">  2  5  1 -1</clus>
<clus scale="  127.086">  7  8 -1 -1</clus>
<clus scale="   22.277">  2  5  1 -1</clus>
</clustering>
</event>
<event>
 9    1  0.9000149E-006  0.1382733E+03  0.7546771E-02  0.1216959E+00
          3   -1    0    0  502    0  0.00000000000E+00  0.00000000000E+00  0.15979360298E+03  0.15979360298E+03  0.00000000000E+00 0. -1.
         -3   -1    0    0    0  501 -0.00000000000E+00 -0.00000000000E+00 -0.14334984358E+03  0.14334984358E+03  0.00000000000E+00 0.  1.
         23    2    1    2    0    0 -0.87847054034E+02 -0.28755014658E+02 -0.99035941062E+01  0.13216910445E+03  0.93950174159E+02 0.  0.
         23    2    1    2    0    0  0.10364862818E+03  0.46282017127E+02  0.14590374011E+02  0.14460936292E+03  0.88396411684E+02 0.  0.
        -11    1    4    4    0    0  0.65472218071E+02  0.39257431908E+02 -0.33024529749E+02  0.83176780800E+02  0.00000000000E+00 0.  1.
         11    1    4    4    0    0  0.38176410107E+02  0.70245852191E+01  0.47614903760E+02  0.61432582123E+02  0.00000000000E+00 0. -1.
        -13    1    3    3    0    0 -0.65927847017E+02 -0.62749838478E+02 -0.25167062099E+01  0.91051397856E+02  0.00000000000E+00 0.  1.
         13    1    3    3    0    0 -0.21919207017E+02  0.33994823820E+02 -0.73868878963E+01  0.41117706594E+02  0.00000000000E+00 0. -1.
         21    1    1    2  502  501 -0.15801574144E+02 -0.17527002469E+02  0.11756979494E+02  0.26364979192E+02  0.00000000000E+00 0. -1.
<scales pt_clust_5="13000.00000" pt_clust_6="13000.00000" pt_clust_7="13000.00000" pt_clust_8="13000.00000" pt_clust_9="23.59842"></scales>
<clustering>
<clus scale="   23.598">  1  9  2 -1</clus>
<clus scale="   88.396">  5  6 -1 -1</clus>
<clus scale="   93.950">  7  8 -1 -1</clus>
<clus scale="  134.561">  1  5  2 -1</clus>
<clus scale="   23.598">  1  5  2 -1</clus>
</clustering>
</event>
<event>
 9    1  0.9000149E-006  0.1129875E+03  0.7546771E-02  0.1255208E+00
         -2   -1    0    0    0  501 -0.00000000000E+00  0.00000000000E+00  0.23736886514E+03  0.23736886514E+03  0.00000000000E+00 0.  1.
          2   -1    0    0  502    0  0.00000000000E+00 -0.00000000000E+00 -0.77884997137E+02  0.77884997137E+02  0.00000000000E+00 0. -1.
         23    2    1    2    0    0 -0.25674711466E+02 -0.72057995377E+02  0.10581306077E+03  0.15905878351E+03  0.90839128550E+02 0.  0.
         23    2    1    2    0    0  0.25845433846E+02  0.51259949923E+02  0.71392203092E+02  0.12887044314E+03  0.90637605529E+02 0.  0.
        -11    1    3    3    0    0 -0.42160051259E+02 -0.41978958649E+02  0.10944069357E+03  0.12456712368E+03  0.00000000000E+00 0. -1.
         11    1    3    3    0    0  0.16485339793E+02 -0.30079036728E+02 -0.36276327985E+01  0.34491659837E+02  0.00000000000E+00 0.  1.
        -13    1    4    4    0    0 -0.11247156838E+01  0.55671195010E+02  0.36251149491E+01  0.55800433668E+02  0.00000000000E+00 0. -1.
         13    1    4    4    0    0  0.26970149530E+02 -0.44112450863E+01  0.67767088143E+02  0.73070009472E+02  0.00000000000E+00 0.  1.
         21    1    1    2  502  501 -0.17072238035E+00  0.20798045454E+02 -0.17721395860E+02  0.27324635625E+02  0.00000000000E+00 0.  1.
<scales pt_clust_5="13000.00000" pt_clust_6="13000.00000" pt_clust_7="13000.00000" pt_clust_8="13000.00000" pt_clust_9="20.79875"></scales>
<clustering>
<clus scale="   20.799">  2  9  1 -1</clus>
<clus scale="   90.638">  7  8 -1 -1</clus>
<clus scale="   90.839">  5  6 -1 -1</clus>
<clus scale="  112.826">  2  7  1 -1</clus>
<clus scale="   20.799">  2  5  1 -1</clus>
</clustering>
</event>
<event>
 9    1  0.9000149E-006  0.9609459E+02  0.7546771E-02  0.1291321E+00
          1   -1    0    0  502    0  0.00000000000E+00  0.00000000000E+00  0.43626011832E+03  0.43626011832E+03  0.00000000000E+00 0. -1.
         -1   -1    0    0    0  501 -0.00000000000E+00 -0.00000000000E+00 -0.30294777857E+02  0.30294777857E+02  0.00000000000E+00 0.  1.
         23    2    1    2    0    0  0.69039234423E+01  0.14568514249E+02  0.11840950296E+03  0.14850436650E+03  0.88163658685E+02 0.  0.
         23    2    1    2    0    0 -0.77536442940E+00 -0.37094748229E+02  0.16234465094E+03  0.19068164928E+03  0.92882098094E+02 0.  0.
        -11    1    4    4    0    0  0.23814060705E+02  0.10934121368E+02  0.11789844910E+03  0.12077544783E+03  0.00000000000E+00 0. -1.
         11    1    4    4    0    0 -0.24589425135E+02 -0.48028869597E+02  0.44446201838E+02  0.69906201449E+02  0.00000000000E+00 0.  1.
        -13    1    3    3    0    0 -0.12945250431E+02 -0.34216246036E+02  0.55290783871E+02  0.66297826379E+02  0.00000000000E+00 0.  1.
         13    1    3    3    0    0  0.19849173874E+02  0.48784760285E+02  0.63118719087E+02  0.82206540121E+02  0.00000000000E+00 0. -1.
         21    1    1    2  502  501 -0.61285590129E+01  0.22526233980E+02  0.12521118656E+03  0.12736888039E+03  0.00000000000E+00 0.  1.
<scales pt_clust_5="13000.00000" pt_clust_6="13000.00000" pt_clust_7="13000.00000" pt_clust_8="13000.00000" pt_clust_9="23.34503"></scales>
<clustering>
<clus scale="   23.345">  1  9  2 -1</clus>
<clus scale="   88.164">  7  8 -1 -1</clus>
<clus scale="   91.542">  2  7  1 -1</clus>
<clus scale="   92.882">  5  6 -1 -1</clus>
<clus scale="   23.345">  1  5  2 -1</clus>
</clustering>
</event>
<event>
 9    1  0.9000149E-006  0.1309333E+03  0.7546771E-02  0.1226426E+00
         -2   -1    0    0    0  501 -0.00000000000E+00  0.00000000000E+00  0.50950514527E+02  0.50950514527E+02  0.00000000000E+00 0.  1.
          2   -1    0    0  502    0  0.00000000000E+00 -0.00000000000E+00 -0.89396582083E+03  0.89396582083E+03  0.00000000000E+00 0. -1.
         23    2    1    2    0    0 -0.23778196087E+02  0.88611992163E+02 -0.11293441227E+03  0.17188606569E+03  0.91504919751E+02 0.  0.
         23    2    1    2    0    0 -0.41581153212E+02 -0.10308758089E+03 -0.24807752487E+03  0.28640039482E+03  0.90148134604E+02 0.  0.
        -11    1    3    3    0    0  0.24057419612E+02 -0.30146503230E+01 -0.34341663873E+02  0.42038047439E+02  0.00000000000E+00 0. -1.
         11    1    3    3    0    0 -0.47835615699E+02  0.91626642486E+02 -0.78592748399E+02  0.12984801825E+03  0.00000000000E+00 0.  1.
        -11    1    4    4    0    0  0.28844042173E+02 -0.30010242224E+02 -0.73188471243E+02  0.84197064854E+02  0.00000000000E+00 0.  1.
         11    1    4    4    0    0 -0.70425195385E+02 -0.73077338665E+02 -0.17488905362E+03  0.20220332996E+03  0.00000000000E+00 0. -1.
         21    1    1    2  502  501  0.65359349299E+02  0.14475588726E+02 -0.48200336916E+03  0.48662987484E+03  0.00000000000E+00 0. -1.
<scales pt_clust_5="13000.00000" pt_clust_6="13000.00000" pt_clust_7="13000.00000" pt_clust_8="13000.00000" pt_clust_9="66.94316"></scales>
<clustering>
<clus scale="   66.943">  2  9  1 -1</clus>
<clus scale="   90.148">  7  8 -1 -1</clus>
<clus scale="   91.505">  5  6 -1 -1</clus>
<clus scale="  129.989">  2  7  1 -1</clus>
<clus scale="   66.943">  2  5  1 -1</clus>
</clustering>
</event>
<event>
 9    1  0.9000149E-006  0.9547868E+02  0.7546771E-02  0.1290530E+00
          1   -1    0    0  502    0  0.00000000000E+00  0.00000000000E+00  0.17232490433E+03  0.17232490433E+03  0.00000000000E+00 0. -1.
         -1   -1    0    0    0  501 -0.00000000000E+00 -0.00000000000E+00 -0.11038971522E+03  0.11038971522E+03  0.00000000000E+00 0.  1.
         23    2    1    2    0    0 -0.19594968541E+02 -0.20376876343E+02 -0.49616841950E+02  0.10572139530E+03  0.88971919941E+02 0.  0.
         23    2    1    2    0    0  0.14420336340E+02  0.52200434749E+02  0.90311627191E+02  0.13838402270E+03  0.89783719267E+02 0.  0.
        -11    1    3    3    0    0 -0.34241895622E+02 -0.21758165511E+01  0.14674113460E+02  0.37317170301E+02  0.00000000000E+00 0.  1.
         11    1    3    3    0    0  0.14646927082E+02 -0.18201059792E+02 -0.64290955410E+02  0.68404225001E+02  0.00000000000E+00 0. -1.
        -13    1    4    4    0    0  0.10226611284E+02  0.77310607933E+02  0.77260329476E+02  0.10977555369E+03  0.00000000000E+00 0.  1.
         13    1    4    4    0    0  0.41937250562E+01 -0.25110173184E+02  0.13051297715E+02  0.28608469013E+02  0.00000000000E+00 0. -1.
         21    1    1    2  502  501  0.51746322002E+01 -0.31823558406E+02  0.21240403867E+02  0.38609201552E+02  0.00000000000E+00 0. -1.
<scales pt_clust_5="13000.00000" pt_clust_6="13000.00000" pt_clust_7="13000.00000" pt_clust_8="13000.00000" pt_clust_9="32.24152"></scales>
<clustering>
<clus scale="   32.242">  1  9  2 -1</clus>
<clus scale="   88.972">  5  6 -1 -1</clus>
<clus scale="   89.784">  7  8 -1 -1</clus>
<clus scale="   94.716">  2  5  1 -1</clus>
<clus scale="   32.242">  1  5  2 -1</clus>
</clustering>
</event>
<event>
 9    1  0.9000149E-006  0.1579129E+03  0.7546771E-02  0.1191496E+00
          1   -1    0    0  502    0  0.00000000000E+00  0.00000000000E+00  0.11702571595E+04  0.11702571595E+04  0.00000000000E+00 0. -1.
         -1   -1    0    0    0  501 -0.00000000000E+00 -0.00000000000E+00 -0.26562700403E+02  0.26562700403E+02  0.00000000000E+00 0.  1.
         23    2    1    2    0    0  0.12289854743E+03 -0.66715008113E+01  0.36829649988E+03  0.39923025377E+03  0.92703407772E+02 0.  0.
         23    2    1    2    0    0 -0.13664369505E+03 -0.11340283123E+02  0.67433712534E+03  0.69402008558E+03  0.90184362110E+02 0.  0.
        -13    1    4    4    0    0 -0.93089295015E+02  0.35979622646E+02  0.40953185782E+03  0.42151689487E+03  0.00000000000E+00 0.  1.
         13    1    4    4    0    0 -0.43554400033E+02 -0.47319905769E+02  0.26480526751E+03  0.27250319071E+03  0.00000000000E+00 0. -1.
        -13    1    3    3    0    0  0.11786508016E+03  0.18821122844E+02  0.23668060164E+03  0.26507379912E+03  0.00000000000E+00 0.  1.
         13    1    3    3    0    0  0.50334672706E+01 -0.25492623656E+02  0.13161589824E+03  0.13415645465E+03  0.00000000000E+00 0. -1.
         21    1    1    2  502  501  0.13745147621E+02  0.18011783935E+02  0.10106083384E+03  0.10356952052E+03  0.00000000000E+00 0.  1.
<scales pt_clust_5="13000.00000" pt_clust_6="13000.00000" pt_clust_7="13000.00000" pt_clust_8="13000.00000" pt_clust_9="22.65730"></scales>
<clustering>
<clus scale="   22.657">  1  9  2 -1</clus>
<clus scale="   90.184">  5  6 -1 -1</clus>
<clus scale="   92.703">  7  8 -1 -1</clus>
<clus scale="  156.447">  1  5  2 -1</clus>
<clus scale="   22.657">  1  5  2 -1</clus>
</clustering>
</event>
<event>
 9    1  0.9000149E-006  0.1785698E+03  0.7546771E-02  0.1169316E+00
         -3   -1    0    0    0  501 -0.00000000000E+00  0.00000000000E+00  0.15510109465E+03  0.15510109465E+03  0.00000000000E+00 0.  1.
          3   -1    0    0  502    0  0.00000000000E+00 -0.00000000000E+00 -0.30020602200E+03  0.30020602200E+03  0.00000000000E+00 0. -1.
         23    2    1    2    0    0  0.11546561790E+03 -0.12812146850E+03  0.79198817831E+01  0.19456095441E+03  0.89687350549E+02 0.  0.
         23    2    1    2    0    0 -0.83726940982E+02  0.12074004131E+03 -0.14872737543E+03  0.22787829014E+03  0.90666006275E+02 0.  0.
        -13    1    3    3    0    0  0.16094125415E+02 -0.68524621449E+02 -0.24006481574E+02  0.74370395825E+02  0.00000000000E+00 0.  1.
         13    1    3    3    0    0  0.99371492485E+02 -0.59596847047E+02  0.31926363358E+02  0.12019055859E+03  0.00000000000E+00 0. -1.
        -13    1    4    4    0    0 -0.34412186538E+02  0.84342534277E+02 -0.32933415726E+02  0.96863158848E+02  0.00000000000E+00 0.  1.
         13    1    4    4    0    0 -0.49314754444E+02  0.36397507031E+02 -0.11579395970E+03  0.13101513129E+03  0.00000000000E+00 0. -1.
         21    1    1    2  502  501 -0.31738676918E+02  0.73814271878E+01 -0.42974337055E+01  0.32867872099E+02  0.00000000000E+00 0. -1.
<scales pt_clust_5="13000.00000" pt_clust_6="13000.00000" pt_clust_7="13000.00000" pt_clust_8="13000.00000" pt_clust_9="32.58572"></scales>
<clustering>
<clus scale="   32.586">  1  9  2 -1</clus>
<clus scale="   89.687">  5  6 -1 -1</clus>
<clus scale="   90.666">  7  8 -1 -1</clus>
<clus scale="  178.075">  1  5  2 -1</clus>
<clus scale="  178.570">  2  5  1 -1</clus>
</clustering>
</event>
<event>
 9    1  0.9000149E-006  0.9596139E+02  0.7546771E-02  0.1290045E+00
         -1   -1    0    0    0  501 -0.00000000000E+00  0.00000000000E+00  0.10478195155E+03  0.10478195155E+03  0.00000000000E+00 0.  1.
          1   -1    0    0  502    0  0.00000000000E+00 -0.00000000000E+00 -0.15009229280E+03  0.15009229280E+03  0.00000000000E+00 0. -1.
         23    2    1    2    0    0  0.19923805458E+02  0.57600078482E+01  0.41203675798E+02  0.10314719073E+03  0.92257597751E+02 0.  0.
         23    2    1    2    0    0 -0.39011255252E+02 -0.20179614966E+02 -0.65992736767E+02  0.12020914198E+03  0.90366485009E+02 0.  0.
        -11    1    3    3    0    0 -0.27658697462E+02  0.42370671188E+01  0.47496741283E+02  0.55126189018E+02  0.00000000000E+00 0.  1.
         11    1    3    3    0    0  0.47582502920E+02  0.15229407294E+01 -0.62930654858E+01  0.48021001716E+02  0.00000000000E+00 0. -1.
        -13    1    4    4    0    0 -0.29187845679E+02  0.31259064944E+02 -0.10767333710E+02  0.44102096909E+02  0.00000000000E+00 0.  1.
         13    1    4    4    0    0 -0.98234095724E+01 -0.51438679910E+02 -0.55225403056E+02  0.76107045070E+02  0.00000000000E+00 0. -1.
         21    1    1    2  502  501  0.19087449794E+02  0.14419607118E+02 -0.20521280281E+02  0.31517911628E+02  0.00000000000E+00 0.  1.
<scales pt_clust_5="13000.00000" pt_clust_6="13000.00000" pt_clust_7="13000.00000" pt_clust_8="13000.00000" pt_clust_9="23.92187"></scales>
<clustering>
<clus scale="   23.922">  2  9  1 -1</clus>
<clus scale="   90.366">  7  8 -1 -1</clus>
<clus scale="   92.258">  5  6 -1 -1</clus>
<clus scale="   94.145">  2  7  1 -1</clus>
<clus scale="   23.922">  2  5  1 -1</clus>
</clustering>
</event>
<event>
 9    1  0.9000149E-006  0.1291423E+03  0.7546771E-02  0.1229754E+00
         -1   -1    0    0    0  501 -0.00000000000E+00  0.00000000000E+00  0.21081626157E+02  0.21081626157E+02  0.00000000000E+00 0.  1.
          1   -1    0    0  502    0  0.00000000000E+00 -0.00000000000E+00 -0.11455965545E+04  0.11455965545E+04  0.00000000000E+00 0. -1.
         23    2    1    2    0    0  0.62417795949E+02 -0.79616635343E+02 -0.38058250165E+03  0.40351727482E+03  0.88024772877E+02 0.  0.
         23    2    1    2    0    0 -0.77774521698E+02  0.40885076358E+02 -0.60013321865E+03  0.61344726277E+03  0.91854223508E+02 0.  0.
        -11    1    3    3    0    0 -0.20862298748E+02 -0.20520697513E+02 -0.12295732953E+03  0.12639161135E+03  0.00000000000E+00 0.  1.
         11    1    3    3    0    0  0.83280094697E+02 -0.59095937830E+02 -0.25762517212E+03  0.27712566347E+03  0.00000000000E+00 0. -1.
        -13    1    4    4    0    0 -0.25860577510E+01 -0.26143724281E+02 -0.11396373415E+03  0.11695261739E+03  0.00000000000E+00 0.  1.
         13    1    4    4    0    0 -0.75188463947E+02  0.67028800639E+02 -0.48616948451E+03  0.49649464538E+03  0.00000000000E+00 0. -1.
         21    1    1    2  502  501  0.15356725749E+02  0.38731558986E+02 -0.14379920799E+03  0.14971364302E+03  0.00000000000E+00 0. -1.
<scales pt_clust_5="13000.00000" pt_clust_6="13000.00000" pt_clust_7="13000.00000" pt_clust_8="13000.00000" pt_clust_9="41.66489"></scales>
<clustering>
<clus scale="   41.665">  1  9  2 -1</clus>
<clus scale="   88.025">  5  6 -1 -1</clus>
<clus scale="   91.854">  7  8 -1 -1</clus>
<clus scale="  126.447">  1  5  2 -1</clus>
<clus scale="  129.142">  2  5  1 -1</clus>
</clustering>
</event>
<event>
 9    1  0.9000149E-006  0.9948566E+02  0.7546771E-02  0.1284595E+00
          1   -1    0    0  502    0  0.00000000000E+00  0.00000000000E+00  0.18001331157E+03  0.18001331157E+03  0.00000000000E+00 0. -1.
         -1   -1    0    0    0  501 -0.00000000000E+00 -0.00000000000E+00 -0.10685448885E+03  0.10685448885E+03  0.00000000000E+00 0.  1.
         23    2    1    2    0    0 -0.27919579743E+02 -0.17255490427E+02 -0.47652512336E+02  0.11219763192E+03  0.96126436498E+02 0.  0.
         23    2    1    2    0    0 -0.45989157061E+01  0.13929672936E+02  0.73407874723E+02  0.11708890713E+03  0.90032828950E+02 0.  0.
        -13    1    3    3    0    0 -0.13422465052E+02 -0.56637920183E+02 -0.36754417857E+02  0.68839696417E+02  0.00000000000E+00 0.  1.
         13    1    3    3    0    0 -0.14497114691E+02  0.39382429756E+02 -0.10898094479E+02  0.43357935504E+02  0.00000000000E+00 0. -1.
        -13    1    4    4    0    0 -0.16418732881E+02  0.43173470220E+02  0.11486750211E+02  0.47596940559E+02  0.00000000000E+00 0.  1.
         13    1    4    4    0    0  0.11819817175E+02 -0.29243797284E+02  0.61921124512E+02  0.69491966575E+02  0.00000000000E+00 0. -1.
         21    1    1    2  502  501  0.32518495449E+02  0.33258174913E+01  0.47403460341E+02  0.57581261367E+02  0.00000000000E+00 0. -1.
<scales pt_clust_5="13000.00000" pt_clust_6="13000.00000" pt_clust_7="13000.00000" pt_clust_8="13000.00000" pt_clust_9="32.68813"></scales>
<clustering>
<clus scale="   32.688">  1  9  2 -1</clus>
<clus scale="   90.033">  7  8 -1 -1</clus>
<clus scale="   93.611">  1  7  2 -1</clus>
<clus scale="   96.126">  5  6 -1 -1</clus>
<clus scale="   32.688">  1  5  2 -1</clus>
</clustering>
</event>
<event>
 9    1  0.9000149E-006  0.1169684E+03  0.7546771E-02  0.1249201E+00
         -2   -1    0    0    0  501 -0.00000000000E+00  0.00000000000E+00  0.72968716251E+02  0.72968716251E+02  0.00000000000E+00 0.  1.
          2   -1    0    0  502    0  0.00000000000E+00 -0.00000000000E+00 -0.46653110934E+03  0.46653110934E+03  0.00000000000E+00 0. -1.
         23    2    1    2    0    0 -0.78265823499E+02  0.17187817829E+02 -0.16880963348E+02  0.12426304189E+03  0.93463235799E+02 0.  0.
         23    2    1    2    0    0  0.42507327383E+02 -0.30430496186E+02 -0.13581718747E+03  0.17137284258E+03  0.90495606430E+02 0.  0.
        -11    1    3    3    0    0 -0.91252789578E+02  0.35243714515E+02 -0.24338887020E+02  0.10080462509E+03  0.00000000000E+00 0.  1.
         11    1    3    3    0    0  0.12986966079E+02 -0.18055896686E+02  0.74579236715E+01  0.23458416796E+02  0.00000000000E+00 0. -1.
        -13    1    4    4    0    0 -0.25179429975E+02 -0.20251358250E+02 -0.23928654915E+02  0.40208229641E+02  0.00000000000E+00 0.  1.
         13    1    4    4    0    0  0.67686757358E+02 -0.10179137936E+02 -0.11188853255E+03  0.13116461294E+03  0.00000000000E+00 0. -1.
         21    1    1    2  502  501  0.35758496116E+02  0.13242678357E+02 -0.24086424227E+03  0.24386394112E+03  0.00000000000E+00 0. -1.
<scales pt_clust_5="13000.00000" pt_clust_6="13000.00000" pt_clust_7="13000.00000" pt_clust_8="13000.00000" pt_clust_9="38.13186"></scales>
<clustering>
<clus scale="   38.132">  2  9  1 -1</clus>
<clus scale="   90.496">  7  8 -1 -1</clus>
<clus scale="   93.463">  5  6 -1 -1</clus>
<clus scale="  114.611">  2  7  1 -1</clus>
<clus scale="   38.132">  2  5  1 -1</clus>
</clustering>
</event>
<event>
 9    1  0.9000149E-006  0.9528438E+02  0.7546771E-02  0.1291245E+00
         -1   -1    0    0    0  501 -0.00000000000E+00  0.00000000000E+00  0.17013692370E+03  0.17013692370E+03  0.00000000000E+00 0.  1.
          1   -1    0    0  502    0  0.00000000000E+00 -0.00000000000E+00 -0.88844185447E+02  0.88844185447E+02  0.00000000000E+00 0. -1.
         23    2    1    2    0    0 -0.55373723328E+01  0.25005764653E+02  0.98821495865E+02  0.13785171618E+03  0.92636153039E+02 0.  0.
         23    2    1    2    0    0 -0.17777763834E+02 -0.14577711567E+02 -0.15986887877E+02  0.95541950190E+02  0.91346182737E+02 0.  0.
        -11    1    3    3    0    0 -0.42114639403E+02 -0.97579034565E+01  0.30462986360E+02  0.52885282166E+02  0.00000000000E+00 0. -1.
         11    1    3    3    0    0  0.36577267070E+02  0.34763668109E+02  0.68358509505E+02  0.84966434011E+02  0.00000000000E+00 0.  1.
        -11    1    4    4    0    0  0.25972832666E+02 -0.27442951624E+02 -0.29546691471E+02  0.47965723256E+02  0.00000000000E+00 0.  1.
         11    1    4    4    0    0 -0.43750596500E+02  0.12865240057E+02  0.13559803594E+02  0.47576226934E+02  0.00000000000E+00 0. -1.
         21    1    1    2  502  501  0.23315136167E+02 -0.10428053085E+02 -0.15418697362E+01  0.25587442778E+02  0.00000000000E+00 0.  1.
<scales pt_clust_5="13000.00000" pt_clust_6="13000.00000" pt_clust_7="13000.00000" pt_clust_8="13000.00000" pt_clust_9="25.54094"></scales>
<clustering>
<clus scale="   25.541">  2  9  1 -1</clus>
<clus scale="   91.346">  7  8 -1 -1</clus>
<clus scale="   92.636">  5  6 -1 -1</clus>
<clus scale="   94.031">  2  7  1 -1</clus>
<clus scale="   25.541">  2  5  1 -1</clus>
</clustering>
</event>
<event>
 9    1  0.9000149E-006  0.1705086E+03  0.7546771E-02  0.1178141E+00
         -2   -1    0    0    0  501 -0.00000000000E+00  0.00000000000E+00  0.12845957872E+03  0.12845957872E+03  0.00000000000E+00 0. -1.
          2   -1    0    0  502    0  0.00000000000E+00 -0.00000000000E+00 -0.87586873174E+03  0.87586873174E+03  0.00000000000E+00 0.  1.
         23    2    1    2    0    0 -0.13905720067E+03  0.98333582795E+01  0.53555109843E+02  0.17765274833E+03  0.96222394518E+02 0.  0.
         23    2    1    2    0    0  0.15564344638E+03 -0.24605957836E+02 -0.73192491774E+03  0.75415132881E+03  0.90552780047E+02 0.  0.
        -11    1    3    3    0    0 -0.59773864190E+02 -0.11141033881E+02  0.71339693203E+02  0.93735741862E+02  0.00000000000E+00 0.  1.
         11    1    3    3    0    0 -0.79283336477E+02  0.20974392160E+02 -0.17784583360E+02  0.83917006468E+02  0.00000000000E+00 0. -1.
        -13    1    4    4    0    0  0.44178064615E+02 -0.22535972526E+02 -0.91319018683E+02  0.10391696023E+03  0.00000000000E+00 0. -1.
         13    1    4    4    0    0  0.11146538176E+03 -0.20699853106E+01 -0.64060589906E+03  0.65023436858E+03  0.00000000000E+00 0.  1.
         21    1    1    2  502  501 -0.16586245709E+02  0.14772599557E+02 -0.69039345117E+02  0.72524233319E+02  0.00000000000E+00 0. -1.
<scales pt_clust_5="13000.00000" pt_clust_6="13000.00000" pt_clust_7="13000.00000" pt_clust_8="13000.00000" pt_clust_9="22.21111"></scales>
<clustering>
<clus scale="   22.211">  2  9  1 -1</clus>
<clus scale="   90.553">  7  8 -1 -1</clus>
<clus scale="   96.222">  5  6 -1 -1</clus>
<clus scale="  167.375">  2  7  1 -1</clus>
<clus scale="   22.211">  2  5  1 -1</clus>
</clustering>
</event>
<event>
 9    1  0.9000149E-006  0.1773304E+03  0.7546771E-02  0.1170846E+00
          3   -1    0    0  502    0  0.00000000000E+00  0.00000000000E+00  0.62904151321E+02  0.62904151321E+02  0.00000000000E+00 0. -1.
         -3   -1    0    0    0  501 -0.00000000000E+00 -0.00000000000E+00 -0.65273414003E+03  0.65273414003E+03  0.00000000000E+00 0.  1.
         23    2    1    2    0    0  0.14183613724E+03  0.71650122918E+02 -0.43662565767E+03  0.47318623623E+03  0.89509883677E+02 0.  0.
         23    2    1    2    0    0 -0.12038160764E+03 -0.59952259754E+02 -0.13466455422E+03  0.21177861111E+03  0.92895818287E+02 0.  0.
        -11    1    4    4    0    0 -0.65624702888E+02 -0.58476472419E+02 -0.12983356530E+03  0.15678920286E+03  0.00000000000E+00 0.  1.
         11    1    4    4    0    0 -0.54756904747E+02 -0.14757873358E+01 -0.48309889181E+01  0.54989408250E+02  0.00000000000E+00 0. -1.
        -11    1    3    3    0    0  0.70907924756E+02 -0.89380499654E+01 -0.22178566179E+03  0.23301652797E+03  0.00000000000E+00 0. -1.
         11    1    3    3    0    0  0.70928212482E+02  0.80588172884E+02 -0.21483999588E+03  0.24016970826E+03  0.00000000000E+00 0.  1.
         21    1    1    2  502  501 -0.21454529603E+02 -0.11697863164E+02 -0.18539776819E+02  0.30673444012E+02  0.00000000000E+00 0. -1.
<scales pt_clust_5="13000.00000" pt_clust_6="13000.00000" pt_clust_7="13000.00000" pt_clust_8="13000.00000" pt_clust_9="24.43638"></scales>
<clustering>
<clus scale="   24.436">  1  9  2 -1</clus>
<clus scale="   89.510">  7  8 -1 -1</clus>
<clus scale="   92.896">  5  6 -1 -1</clus>
<clus scale="  175.580">  2  7  1 -1</clus>
<clus scale="   24.436">  1  5  2 -1</clus>
</clustering>
</event>
<event>
 9    1  0.9000149E-006  0.1540235E+03  0.7546771E-02  0.1197388E+00
         -3   -1    0    0    0  501 -0.00000000000E+00  0.00000000000E+00  0.95282016063E+03  0.95282016063E+03  0.00000000000E+00 0.  1.
          3   -1    0    0  502    0  0.00000000000E+00 -0.00000000000E+00 -0.31947179775E+02  0.31947179775E+02  0.00000000000E+00 0. -1.
         23    2    1    2    0    0  0.11376841469E+03  0.89664712312E+02  0.60133599763E+03  0.62387486677E+03  0.81436199123E+02 0.  0.
         23    2    1    2    0    0 -0.78939249581E+02 -0.77460577968E+02  0.24398712083E+03  0.27681041047E+03  0.69733363277E+02 0.  0.
        -11    1    3    3    0    0  0.66996668376E+02  0.54398439985E+02  0.49504906929E+03  0.50251499963E+03  0.00000000000E+00 0.  1.
         11    1    3    3    0    0  0.46771746311E+02  0.35266272327E+02  0.10628692834E+03  0.12135986714E+03  0.00000000000E+00 0. -1.
        -11    1    4    4    0    0 -0.15871140836E+02 -0.47713476000E+02  0.51037663770E+02  0.71647135508E+02  0.00000000000E+00 0.  1.
         11    1    4    4    0    0 -0.63068108745E+02 -0.29747101968E+02  0.19294945706E+03  0.20516327497E+03  0.00000000000E+00 0. -1.
         21    1    1    2  502  501 -0.34829165106E+02 -0.12204134344E+02  0.75549862399E+02  0.84082063162E+02  0.00000000000E+00 0.  1.
<scales pt_clust_5="13000.00000" pt_clust_6="13000.00000" pt_clust_7="13000.00000" pt_clust_8="13000.00000" pt_clust_9="36.90544"></scales>
<clustering>
<clus scale="   36.905">  2  9  1 -1</clus>
<clus scale="   69.733">  7  8 -1 -1</clus>
<clus scale="   81.436">  5  6 -1 -1</clus>
<clus scale="  148.169">  2  7  1 -1</clus>
<clus scale="   36.905">  2  5  1 -1</clus>
</clustering>
</event>
<event>
 9    1  0.9000149E-006  0.1316298E+03  0.7546771E-02  0.1225899E+00
         -1   -1    0    0    0  501 -0.00000000000E+00  0.00000000000E+00  0.65573970268E+03  0.65573970268E+03  0.00000000000E+00 0.  1.
          1   -1    0    0  502    0  0.00000000000E+00 -0.00000000000E+00 -0.43867588133E+02  0.43867588133E+02  0.00000000000E+00 0. -1.
         23    2    1    2    0    0  0.88944369562E+02 -0.44754873537E+02  0.32611008559E+03  0.35219573695E+03  0.88204022701E+02 0.  0.
         23    2    1    2    0    0 -0.51486922753E+02  0.81326534645E+02  0.25274469822E+03  0.28551897881E+03  0.91522108423E+02 0.  0.
        -13    1    3    3    0    0  0.11242276317E+02 -0.40478197387E+02  0.19713944424E+03  0.20156595376E+03  0.00000000000E+00 0.  1.
         13    1    3    3    0    0  0.77702093244E+02 -0.42766761498E+01  0.12897064135E+03  0.15062978319E+03  0.00000000000E+00 0. -1.
        -13    1    4    4    0    0 -0.18948750513E+02 -0.10920943746E+02  0.11203257233E+03  0.11414735836E+03  0.00000000000E+00 0.  1.
         13    1    4    4    0    0 -0.32538172240E+02  0.92247478391E+02  0.14071212589E+03  0.17137162045E+03  0.00000000000E+00 0. -1.
         21    1    1    2  502  501 -0.37457446809E+02 -0.36571661108E+02  0.33017330735E+02  0.61892575051E+02  0.00000000000E+00 0. -1.
<scales pt_clust_5="13000.00000" pt_clust_6="13000.00000" pt_clust_7="13000.00000" pt_clust_8="13000.00000" pt_clust_9="52.35023"></scales>
<clustering>
<clus scale="   52.350">  2  9  1 -1</clus>
<clus scale="   88.204">  5  6 -1 -1</clus>
<clus scale="   91.522">  7  8 -1 -1</clus>
<clus scale="  129.345">  1  5  2 -1</clus>
<clus scale="   52.350">  2  5  1 -1</clus>
</clustering>
</event>
<event>
 9    1  0.9000149E-006  0.1498769E+03  0.7546771E-02  0.1200726E+00
          2   -1    0    0  502    0  0.00000000000E+00  0.00000000000E+00  0.32946210251E+03  0.32946210251E+03  0.00000000000E+00 0. -1.
         -2   -1    0    0    0  501 -0.00000000000E+00 -0.00000000000E+00 -0.88919072935E+02  0.88919072935E+02  0.00000000000E+00 0.  1.
         23    2    1    2    0    0  0.73189542976E+02  0.10635083743E+03  0.71646780645E+02  0.17393069514E+03  0.91931581696E+02 0.  0.
         23    2    1    2    0    0 -0.48891212391E+02 -0.94692513122E+02  0.10565461508E+03  0.17570581035E+03  0.91392622304E+02 0.  0.
        -11    1    3    3    0    0  0.51420171212E+02  0.63831171415E+02  0.90927010685E+02  0.12241802859E+03  0.00000000000E+00 0. -1.
         11    1    3    3    0    0  0.21769371764E+02  0.42519666017E+02 -0.19280230040E+02  0.51512666555E+02  0.00000000000E+00 0.  1.
        -13    1    4    4    0    0 -0.19629273507E+02  0.84985745473E+01 -0.46067350703E+01  0.21880497156E+02  0.00000000000E+00 0.  1.
         13    1    4    4    0    0 -0.29261938883E+02 -0.10319108767E+03  0.11026135015E+03  0.15382531319E+03  0.00000000000E+00 0. -1.
         21    1    1    2  502  501 -0.24298330586E+02 -0.11658324310E+02  0.63241633851E+02  0.68744669954E+02  0.00000000000E+00 0.  1.
<scales pt_clust_5="13000.00000" pt_clust_6="13000.00000" pt_clust_7="13000.00000" pt_clust_8="13000.00000" pt_clust_9="26.95042"></scales>
<clustering>
<clus scale="   26.950">  1  9  2 -1</clus>
<clus scale="   91.393">  7  8 -1 -1</clus>
<clus scale="   91.932">  5  6 -1 -1</clus>
<clus scale="  149.547">  1  7  2 -1</clus>
<clus scale="   26.950">  1  5  2 -1</clus>
</clustering>
</event>
<event>
 9    1  0.9000149E-006  0.1064354E+03  0.7546771E-02  0.1267780E+00
          4   -1    0    0  502    0  0.00000000000E+00  0.00000000000E+00  0.17934337351E+03  0.17934337351E+03  0.00000000000E+00 0. -1.
         -4   -1    0    0    0  501 -0.00000000000E+00 -0.00000000000E+00 -0.97073405138E+02  0.97073405138E+02  0.00000000000E+00 0.  1.
         23    2    1    2    0    0 -0.15054440963E+02 -0.66311668276E+02 -0.83352138636E+00  0.11396984536E+03  0.91457954013E+02 0.  0.
         23    2    1    2    0    0  0.23275787540E+02  0.31625083024E+02  0.39523924036E+02  0.10614481712E+03  0.90347515010E+02 0.  0.
        -11    1    4    4    0    0 -0.74859710148E+01  0.19842276951E+02 -0.25552109551E+02  0.33206415331E+02  0.00000000000E+00 0. -1.
         11    1    4    4    0    0  0.30761758555E+02  0.11782806074E+02  0.65076033587E+02  0.72938401790E+02  0.00000000000E+00 0.  1.
        -13    1    3    3    0    0 -0.13688120281E+02  0.21201073057E+02 -0.71196838169E+01  0.26220984597E+02  0.00000000000E+00 0.  1.
         13    1    3    3    0    0 -0.13663206827E+01 -0.87512741333E+02  0.62861624306E+01  0.87748860767E+02  0.00000000000E+00 0. -1.
         21    1    1    2  502  501 -0.82213465766E+01  0.34686585252E+02  0.43579565727E+02  0.56302116167E+02  0.00000000000E+00 0.  1.
<scales pt_clust_5="13000.00000" pt_clust_6="13000.00000" pt_clust_7="13000.00000" pt_clust_8="13000.00000" pt_clust_9="35.64758"></scales>
<clustering>
<clus scale="   35.648">  1  9  2 -1</clus>
<clus scale="   90.348">  5  6 -1 -1</clus>
<clus scale="   91.458">  7  8 -1 -1</clus>
<clus scale="  105.483">  1  5  2 -1</clus>
<clus scale="   35.648">  1  5  2 -1</clus>
</clustering>
</event>
<event>
 9    1  0.9000149E-006  0.1344755E+03  0.7546771E-02  0.1221755E+00
          3   -1    0    0  502    0  0.00000000000E+00  0.00000000000E+00  0.40201766559E+03  0.40201766559E+03  0.00000000000E+00 0. -1.
         -3   -1    0    0    0  501 -0.00000000000E+00 -0.00000000000E+00 -0.61359924011E+02  0.61359924011E+02  0.00000000000E+00 0.  1.
         23    2    1    2    0    0 -0.88114307713E+02  0.33462102973E+02  0.11840047400E+03  0.17635590316E+03  0.90547715470E+02 0.  0.
         23    2    1    2    0    0  0.88826996830E+02 -0.57658800891E+02  0.12106420400E+03  0.18297350417E+03  0.87223787201E+02 0.  0.
        -11    1    3    3    0    0 -0.42489000702E+02  0.56291407168E+02  0.35358375035E+02  0.78893931242E+02  0.00000000000E+00 0. -1.
         11    1    3    3    0    0 -0.45625307011E+02 -0.22829304195E+02  0.83042098962E+02  0.97461971916E+02  0.00000000000E+00 0.  1.
        -13    1    4    4    0    0  0.34752975375E+01  0.19882275721E+02  0.87411073162E+01  0.21995216251E+02  0.00000000000E+00 0.  1.
         13    1    4    4    0    0  0.85351699292E+02 -0.77541076612E+02  0.11232309668E+03  0.16097828792E+03  0.00000000000E+00 0. -1.
         21    1    1    2  502  501 -0.71268911681E+00  0.24196697918E+02  0.10119306358E+03  0.10404818227E+03  0.00000000000E+00 0. -1.
<scales pt_clust_5="13000.00000" pt_clust_6="13000.00000" pt_clust_7="13000.00000" pt_clust_8="13000.00000" pt_clust_9="24.20719"></scales>
<clustering>
<clus scale="   24.207">  1  9  2 -1</clus>
<clus scale="   87.224">  7  8 -1 -1</clus>
<clus scale="   90.548">  5  6 -1 -1</clus>
<clus scale="  132.260">  1  7  2 -1</clus>
<clus scale="   24.207">  1  5  2 -1</clus>
</clustering>
</event>
<event>
 9    1  0.9000149E-006  0.1080930E+03  0.7546771E-02  0.1265011E+00
          1   -1    0    0  502    0  0.00000000000E+00  0.00000000000E+00  0.44113686268E+03  0.44113686268E+03  0.00000000000E+00 0. -1.
         -1   -1    0    0    0  501 -0.00000000000E+00 -0.00000000000E+00 -0.36962434206E+02  0.36962434206E+02  0.00000000000E+00 0.  1.
         23    2    1    2    0    0 -0.41503345716E+02  0.21568541855E+02  0.14656915873E+03  0.17826803000E+03  0.90051332724E+02 0.  0.
         23    2    1    2    0    0  0.67233181843E+02 -0.10514910987E+02  0.15067214055E+03  0.18929212748E+03  0.92187588605E+02 0.  0.
        -11    1    3    3    0    0 -0.43885110093E+02 -0.27807973650E+02  0.78778637772E+02  0.94367685442E+02  0.00000000000E+00 0. -1.
         11    1    3    3    0    0  0.23817643775E+01  0.49376515505E+02  0.67790520959E+02  0.83900344557E+02  0.00000000000E+00 0.  1.
        -11    1    4    4    0    0  0.89471204676E+02 -0.12835391367E+02  0.10576041234E+03  0.13912263855E+03  0.00000000000E+00 0.  1.
         11    1    4    4    0    0 -0.22238022833E+02  0.23204803803E+01  0.44911728208E+02  0.50169488929E+02  0.00000000000E+00 0. -1.
         21    1    1    2  502  501 -0.25729836127E+02 -0.11053630868E+02  0.10693312920E+03  0.11053913941E+03  0.00000000000E+00 0.  1.
<scales pt_clust_5="13000.00000" pt_clust_6="13000.00000" pt_clust_7="13000.00000" pt_clust_8="13000.00000" pt_clust_9="28.00370"></scales>
<clustering>
<clus scale="   28.004">  1  9  2 -1</clus>
<clus scale="   90.051">  5  6 -1 -1</clus>
<clus scale="   92.188">  7  8 -1 -1</clus>
<clus scale="  106.277">  2  5  1 -1</clus>
<clus scale="   28.004">  1  5  2 -1</clus>
</clustering>
</event>
<event>
 9    1  0.9000149E-006  0.1026593E+03  0.7546771E-02  0.1274879E+00
         -3   -1    0    0    0  501 -0.00000000000E+00  0.00000000000E+00  0.10515522788E+03  0.10515522788E+03  0.00000000000E+00 0.  1.
          3   -1    0    0  502    0  0.00000000000E+00 -0.00000000000E+00 -0.33487282731E+03  0.33487282731E+03  0.00000000000E+00 0. -1.
         23    2    1    2    0    0 -0.49866107435E+02 -0.19693346067E+02  0.61425277955E+02  0.12090171294E+03  0.89273192343E+02 0.  0.
         23    2    1    2    0    0  0.32228227560E+02 -0.10425284936E+02 -0.20688620949E+03  0.22792649124E+03  0.89449631146E+02 0.  0.
        -11    1    4    4    0    0  0.40069389106E+02 -0.31756427353E+02 -0.19631137644E+03  0.20286000873E+03  0.00000000000E+00 0. -1.
         11    1    4    4    0    0 -0.78411615463E+01  0.21331142417E+02 -0.10574833050E+02  0.25066482507E+02  0.00000000000E+00 0.  1.
        -13    1    3    3    0    0 -0.29987322503E+02 -0.45723750722E+02  0.40420823127E+01  0.54829183109E+02  0.00000000000E+00 0. -1.
         13    1    3    3    0    0 -0.19878784932E+02  0.26030404655E+02  0.57383195642E+02  0.66072529836E+02  0.00000000000E+00 0.  1.
         21    1    1    2  502  501  0.17637879875E+02  0.30118631003E+02 -0.84256667894E+02  0.91199851012E+02  0.00000000000E+00 0. -1.
<scales pt_clust_5="13000.00000" pt_clust_6="13000.00000" pt_clust_7="13000.00000" pt_clust_8="13000.00000" pt_clust_9="34.90311"></scales>
<clustering>
<clus scale="   34.903">  2  9  1 -1</clus>
<clus scale="   89.273">  7  8 -1 -1</clus>
<clus scale="   89.450">  5  6 -1 -1</clus>
<clus scale="  102.506">  1  7  2 -1</clus>
<clus scale="   34.903">  2  5  1 -1</clus>
</clustering>
</event>
<event>
 9    1  0.9000149E-006  0.1091774E+03  0.7546771E-02  0.1267028E+00
         -1   -1    0    0    0  501 -0.00000000000E+00  0.00000000000E+00  0.74202213929E+02  0.74202213929E+02  0.00000000000E+00 0.  1.
          1   -1    0    0  502    0  0.00000000000E+00 -0.00000000000E+00 -0.33664699637E+03  0.33664699637E+03  0.00000000000E+00 0. -1.
         23    2    1    2    0    0 -0.23651755163E+02 -0.22685828766E+02  0.18436539417E+02  0.10166213567E+03  0.94452270981E+02 0.  0.
         23    2    1    2    0    0  0.20198217748E+02  0.56788234226E+00 -0.23046959057E+03  0.25402845676E+03  0.10490917106E+03 0.  0.
        -11    1    4    4    0    0  0.59113964583E+02  0.15726374615E+02 -0.16885524470E+03  0.17959363388E+03  0.00000000000E+00 0.  1.
         11    1    4    4    0    0 -0.38915746835E+02 -0.15158492273E+02 -0.61614345878E+02  0.74434822883E+02  0.00000000000E+00 0. -1.
        -11    1    3    3    0    0  0.16016108283E+02  0.15504413861E+02  0.37302905487E+02  0.43455831962E+02  0.00000000000E+00 0.  1.
         11    1    3    3    0    0 -0.39667863446E+02 -0.38190242627E+02 -0.18866366070E+02  0.58206303704E+02  0.00000000000E+00 0. -1.
         21    1    1    2  502  501  0.34535374146E+01  0.22117946423E+02 -0.50411731279E+02  0.55158617869E+02  0.00000000000E+00 0. -1.
<scales pt_clust_5="13000.00000" pt_clust_6="13000.00000" pt_clust_7="13000.00000" pt_clust_8="13000.00000" pt_clust_9="22.38594"></scales>
<clustering>
<clus scale="   22.386">  2  9  1 -1</clus>
<clus scale="   94.452">  7  8 -1 -1</clus>
<clus scale="   99.172">  1  7  2 -1</clus>
<clus scale="  104.909">  5  6 -1 -1</clus>
<clus scale="   22.386">  2  5  1 -1</clus>
</clustering>
</event>
<event>
 9    1  0.9000149E-006  0.1002558E+03  0.7546771E-02  0.1280676E+00
          2   -1    0    0  502    0  0.00000000000E+00  0.00000000000E+00  0.31295191929E+03  0.31295191929E+03  0.00000000000E+00 0. -1.
         -2   -1    0    0    0  501 -0.00000000000E+00 -0.00000000000E+00 -0.57124044758E+02  0.57124044758E+02  0.00000000000E+00 0.  1.
         23    2    1    2    0    0  0.56387922534E+02  0.34278389084E+01  0.84117109929E+02  0.13652915404E+03  0.91505048122E+02 0.  0.
         23    2    1    2    0    0 -0.59664937707E+01 -0.32803232841E+02  0.96505354875E+02  0.13835706319E+03  0.93368850712E+02 0.  0.
        -11    1    4    4    0    0  0.43584446057E+02 -0.18045512954E+02  0.40967866888E+02  0.62478881178E+02  0.00000000000E+00 0. -1.
         11    1    4    4    0    0 -0.49550939828E+02 -0.14757719886E+02  0.55537487987E+02  0.75878182015E+02  0.00000000000E+00 0.  1.
        -13    1    3    3    0    0  0.66956732373E+02  0.33064682104E+02  0.68784583406E+02  0.10152731715E+03  0.00000000000E+00 0. -1.
         13    1    3    3    0    0 -0.10568809839E+02 -0.29636843196E+02  0.15332526523E+02  0.35001836889E+02  0.00000000000E+00 0.  1.
         21    1    1    2  502  501 -0.50421428763E+02  0.29375393932E+02  0.75205409731E+02  0.95189746822E+02  0.00000000000E+00 0.  1.
<scales pt_clust_5="13000.00000" pt_clust_6="13000.00000" pt_clust_7="13000.00000" pt_clust_8="13000.00000" pt_clust_9="58.35438"></scales>
<clustering>
<clus scale="   58.354">  1  9  2 -1</clus>
<clus scale="   91.505">  7  8 -1 -1</clus>
<clus scale="   93.369">  5  6 -1 -1</clus>
<clus scale="   98.522">  2  7  1 -1</clus>
<clus scale="   58.354">  1  5  2 -1</clus>
</clustering>
</event>
<event>
 9    1  0.9000149E-006  0.9829497E+02  0.7546771E-02  0.1283962E+00
          1   -1    0    0  502    0  0.00000000000E+00  0.00000000000E+00  0.68701385100E+02  0.68701385100E+02  0.00000000000E+00 0. -1.
         -1   -1    0    0    0  501 -0.00000000000E+00 -0.00000000000E+00 -0.23452167856E+03  0.23452167856E+03  0.00000000000E+00 0.  1.
         23    2    1    2    0    0 -0.84387165845E+01  0.26338707122E+02 -0.90597548994E+02  0.13181781868E+03  0.91668326083E+02 0.  0.
         23    2    1    2    0    0  0.48899697010E+02 -0.20842378361E+02 -0.76179364625E+02  0.13056144877E+03  0.91746450653E+02 0.  0.
        -11    1    3    3    0    0  0.30309823644E+02  0.42032908143E+02 -0.63655886523E+02  0.82082413862E+02  0.00000000000E+00 0.  1.
         11    1    3    3    0    0 -0.38748540229E+02 -0.15694201021E+02 -0.26941662470E+02  0.49735404816E+02  0.00000000000E+00 0. -1.
        -13    1    4    4    0    0  0.11360261834E+02 -0.36970348382E+02 -0.80665787530E+02  0.89458546189E+02  0.00000000000E+00 0. -1.
         13    1    4    4    0    0  0.37539435176E+02  0.16127970020E+02  0.44864229051E+01  0.41102902584E+02  0.00000000000E+00 0.  1.
         21    1    1    2  502  501 -0.40460980426E+02 -0.54963287606E+01  0.95662015713E+00  0.40843796212E+02  0.00000000000E+00 0. -1.
<scales pt_clust_5="13000.00000" pt_clust_6="13000.00000" pt_clust_7="13000.00000" pt_clust_8="13000.00000" pt_clust_9="40.83259"></scales>
<clustering>
<clus scale="   40.833">  1  9  2 -1</clus>
<clus scale="   91.668">  5  6 -1 -1</clus>
<clus scale="   91.746">  7  8 -1 -1</clus>
<clus scale="   98.222">  2  5  1 -1</clus>
<clus scale="   40.833">  1  5  2 -1</clus>
</clustering>
</event>
<event>
 9    1  0.9000149E-006  0.3680145E+03  0.7546771E-02  0.1055640E+00
          1   -1    0    0  502    0  0.00000000000E+00  0.00000000000E+00  0.56964609170E+03  0.56964609170E+03  0.00000000000E+00 0. -1.
         -1   -1    0    0    0  501 -0.00000000000E+00 -0.00000000000E+00 -0.83352199462E+03  0.83352199462E+03  0.00000000000E+00 0.  1.
         23    2    1    2    0    0  0.31617177965E+03  0.17496752831E+03 -0.70165347970E+03  0.79567082946E+03  0.10097639854E+03 0.  0.
         23    2    1    2    0    0 -0.24320985663E+03 -0.18377484019E+03  0.24804207972E+03  0.40402595717E+03  0.93743663838E+02 0.  0.
        -13    1    4    4    0    0 -0.85914361641E+02 -0.13426608834E+02  0.72268893076E+02  0.11306787460E+03  0.00000000000E+00 0.  1.
         13    1    4    4    0    0 -0.15729549499E+03 -0.17034823135E+03  0.17577318664E+03  0.29095808257E+03  0.00000000000E+00 0. -1.
        -13    1    3    3    0    0  0.18392478321E+03  0.53952561275E+02 -0.42208734018E+03  0.46356976550E+03  0.00000000000E+00 0. -1.
         13    1    3    3    0    0  0.13224699645E+03  0.12101496703E+03 -0.27956613952E+03  0.33210106396E+03  0.00000000000E+00 0.  1.
         21    1    1    2  502  501 -0.72961923026E+02  0.88073118799E+01  0.18973549706E+03  0.20347129969E+03  0.00000000000E+00 0. -1.
<scales pt_clust_5="13000.00000" pt_clust_6="13000.00000" pt_clust_7="13000.00000" pt_clust_8="13000.00000" pt_clust_9="73.49157"></scales>
<clustering>
<clus scale="   73.492">  1  9  2 -1</clus>
<clus scale="   93.744">  5  6 -1 -1</clus>
<clus scale="  100.976">  7  8 -1 -1</clus>
<clus scale="  366.096">  1  5  2 -1</clus>
<clus scale="   73.492">  1  5  2 -1</clus>
</clustering>
</event>
<event>
 9    1  0.9000149E-006  0.1296715E+03  0.7546771E-02  0.1230250E+00
          1   -1    0    0  502    0  0.00000000000E+00  0.00000000000E+00  0.36203456063E+03  0.36203456063E+03  0.00000000000E+00 0. -1.
         -1   -1    0    0    0  501 -0.00000000000E+00 -0.00000000000E+00 -0.64448366077E+02  0.64448366077E+02  0.00000000000E+00 0.  1.
         23    2    1    2    0    0  0.82026657551E+02  0.34438363468E+02  0.84792124668E+02  0.15367900340E+03  0.92266777630E+02 0.  0.
         23    2    1    2    0    0 -0.81548422049E+02  0.57466719948E+01  0.17528142690E+03  0.21782880013E+03  0.10021296409E+03 0.  0.
        -11    1    3    3    0    0  0.87350004232E+02 -0.14980957318E+01  0.77157038194E+02  0.11655675044E+03  0.00000000000E+00 0.  1.
         11    1    3    3    0    0 -0.53233466810E+01  0.35936459200E+02  0.76350864739E+01  0.37122252965E+02  0.00000000000E+00 0. -1.
        -13    1    4    4    0    0  0.23446546242E+02  0.51998387926E+01  0.38827336331E+02  0.45654582472E+02  0.00000000000E+00 0.  1.
         13    1    4    4    0    0 -0.10499496829E+03  0.54683320217E+00  0.13645409057E+03  0.17217421766E+03  0.00000000000E+00 0. -1.
         21    1    1    2  502  501 -0.47823550214E+00 -0.40185035463E+02  0.37512642989E+02  0.54975123177E+02  0.00000000000E+00 0.  1.
<scales pt_clust_5="13000.00000" pt_clust_6="13000.00000" pt_clust_7="13000.00000" pt_clust_8="13000.00000" pt_clust_9="40.18788"></scales>
<clustering>
<clus scale="   40.188">  2  9  1 -1</clus>
<clus scale="   92.267">  5  6 -1 -1</clus>
<clus scale="  100.213">  7  8 -1 -1</clus>
<clus scale="  123.633">  2  5  1 -1</clus>
<clus scale="  129.671">  1  5  2 -1</clus>
</clustering>
</event>
<event>
 9    1  0.9000149E-006  0.9602262E+02  0.7546771E-02  0.1293805E+00
         -1   -1    0    0    0  501 -0.00000000000E+00  0.00000000000E+00  0.99943687570E+02  0.99943687570E+02  0.00000000000E+00 0.  1.
          1   -1    0    0  502    0  0.00000000000E+00 -0.00000000000E+00 -0.37212049051E+03  0.37212049051E+03  0.00000000000E+00 0. -1.
         23    2    1    2    0    0 -0.55498137063E+01  0.13123044049E+01  0.60094981362E+02  0.11308856432E+03  0.95629984948E+02 0.  0.
         23    2    1    2    0    0  0.27967818875E+02  0.23443538468E+01 -0.15328609495E+03  0.17855439799E+03  0.87162785919E+02 0.  0.
        -13    1    4    4    0    0  0.14777132805E+02  0.42553490811E+02 -0.52086775650E+02  0.68863600194E+02  0.00000000000E+00 0.  1.
         13    1    4    4    0    0  0.13190686070E+02 -0.40209136964E+02 -0.10119931930E+03  0.10969079779E+03  0.00000000000E+00 0. -1.
        -13    1    3    3    0    0 -0.48475861854E+02  0.13817400549E+02  0.38548392148E+02  0.63457137326E+02  0.00000000000E+00 0.  1.
         13    1    3    3    0    0  0.42926048148E+02 -0.12505096144E+02  0.21546589214E+02  0.49631426999E+02  0.00000000000E+00 0. -1.
         21    1    1    2  502  501 -0.22418005168E+02 -0.36566582517E+01 -0.17898568936E+03  0.18042121577E+03  0.00000000000E+00 0.  1.
<scales pt_clust_5="13000.00000" pt_clust_6="13000.00000" pt_clust_7="13000.00000" pt_clust_8="13000.00000" pt_clust_9="22.71427"></scales>
<clustering>
<clus scale="   22.714">  2  9  1 -1</clus>
<clus scale="   87.163">  5  6 -1 -1</clus>
<clus scale="   87.593">  2  5  1 -1</clus>
<clus scale="   95.630">  7  8 -1 -1</clus>
<clus scale="   22.714">  2  5  1 -1</clus>
</clustering>
</event>
<event>
 9    1  0.9000149E-006  0.2276119E+03  0.7546771E-02  0.1137522E+00
         -3   -1    0    0    0  501 -0.00000000000E+00  0.00000000000E+00  0.11500888060E+03  0.11500888060E+03  0.00000000000E+00 0.  1.
          3   -1    0    0  502    0  0.00000000000E+00 -0.00000000000E+00 -0.10289706485E+04  0.10289706485E+04  0.00000000000E+00 0. -1.
         23    2    1    2    0    0  0.12072760730E+03 -0.95105051375E+02 -0.10537728731E+03  0.21016585652E+03  0.97186360191E+02 0.  0.
         23    2    1    2    0    0 -0.18011679270E+03 -0.12665390954E+03 -0.44728371346E+03  0.50574550461E+03  0.85044243157E+02 0.  0.
        -13    1    3    3    0    0  0.10653274491E+03 -0.37301978094E+02 -0.35392306263E+02  0.11829318937E+03  0.00000000000E+00 0.  1.
         13    1    3    3    0    0  0.14194862387E+02 -0.57803073282E+02 -0.69984981042E+02  0.91872667156E+02  0.00000000000E+00 0. -1.
        -13    1    4    4    0    0 -0.25660905408E+02 -0.60147031156E+02 -0.16022890258E+03  0.17305909004E+03  0.00000000000E+00 0.  1.
         13    1    4    4    0    0 -0.15445588729E+03 -0.66506878381E+02 -0.28705481088E+03  0.33268641457E+03  0.00000000000E+00 0. -1.
         21    1    1    2  502  501  0.59389185402E+02  0.22175896091E+03 -0.36130076714E+03  0.42806816797E+03  0.00000000000E+00 0.  1.
<scales pt_clust_5="13000.00000" pt_clust_6="13000.00000" pt_clust_7="13000.00000" pt_clust_8="13000.00000" pt_clust_9="211.12713"></scales>
<clustering>
<clus scale="   85.044">  7  8 -1 -1</clus>
<clus scale="   97.186">  5  6 -1 -1</clus>
<clus scale="  181.839">  1  5  2 -1</clus>
<clus scale="  211.127">  1  9  2 -1</clus>
<clus scale="  227.612">  2  5  1 -1</clus>
</clustering>
</event>
<event>
 9    1  0.9000149E-006  0.1438354E+03  0.7546771E-02  0.1208349E+00
         -1   -1    0    0    0  501 -0.00000000000E+00  0.00000000000E+00  0.68287671962E+03  0.68287671962E+03  0.00000000000E+00 0.  1.
          1   -1    0    0  502    0  0.00000000000E+00 -0.00000000000E+00 -0.96725978380E+02  0.96725978380E+02  0.00000000000E+00 0. -1.
         23    2    1    2    0    0 -0.52609276478E+02  0.97292408595E+02  0.57610189527E+03  0.59361214637E+03  0.90820910824E+02 0.  0.
         23    2    1    2    0    0  0.27091383917E+02 -0.11698678269E+03 -0.38869437204E+01  0.15087307100E+03  0.91256368620E+02 0.  0.
        -13    1    4    4    0    0 -0.18542225722E+02 -0.22668106760E+02  0.28840548481E+02  0.41102730268E+02  0.00000000000E+00 0.  1.
         13    1    4    4    0    0  0.45633609639E+02 -0.94318675930E+02 -0.32727492201E+02  0.10977034073E+03  0.00000000000E+00 0. -1.
        -13    1    3    3    0    0 -0.31643935480E+01  0.80101733044E+02  0.44986615195E+03  0.45695279372E+03  0.00000000000E+00 0.  1.
         13    1    3    3    0    0 -0.49444882930E+02  0.17190675551E+02  0.12623574333E+03  0.13665935265E+03  0.00000000000E+00 0. -1.
         21    1    1    2  502  501  0.25517892561E+02  0.19694374095E+02  0.13935789691E+02  0.35117480634E+02  0.00000000000E+00 0.  1.
<scales pt_clust_5="13000.00000" pt_clust_6="13000.00000" pt_clust_7="13000.00000" pt_clust_8="13000.00000" pt_clust_9="32.23401"></scales>
<clustering>
<clus scale="   32.234">  2  9  1 -1</clus>
<clus scale="   90.821">  7  8 -1 -1</clus>
<clus scale="   91.256">  5  6 -1 -1</clus>
<clus scale="  143.560">  1  7  2 -1</clus>
<clus scale="   32.234">  2  5  1 -1</clus>
</clustering>
</event>
<event>
 9    1  0.9000149E-006  0.1137627E+03  0.7546771E-02  0.1254964E+00
          1   -1    0    0  502    0  0.00000000000E+00  0.00000000000E+00  0.53001056832E+03  0.53001056832E+03  0.00000000000E+00 0. -1.
         -1   -1    0    0    0  501 -0.00000000000E+00 -0.00000000000E+00 -0.37382985214E+02  0.37382985214E+02  0.00000000000E+00 0.  1.
         23    2    1    2    0    0  0.68522621777E+02 -0.14688520319E+02  0.10425728244E+03  0.15668714679E+03  0.93649232260E+02 0.  0.
         23    2    1    2    0    0 -0.44742197769E+02  0.29618369196E+02  0.31919646842E+03  0.33605101162E+03  0.90359199338E+02 0.  0.
        -11    1    3    3    0    0  0.78223060290E+02  0.19549953606E+02  0.63889461410E+02  0.10287327703E+03  0.00000000000E+00 0.  1.
         11    1    3    3    0    0 -0.97004385126E+01 -0.34238473925E+02  0.40367821030E+02  0.53813869762E+02  0.00000000000E+00 0. -1.
        -11    1    4    4    0    0  0.13818459539E+02  0.42097947161E+02  0.15793809704E+03  0.16403545189E+03  0.00000000000E+00 0.  1.
         11    1    4    4    0    0 -0.58560657308E+02 -0.12479577965E+02  0.16125837138E+03  0.17201555973E+03  0.00000000000E+00 0. -1.
         21    1    1    2  502  501 -0.23780424008E+02 -0.14929848877E+02  0.69173832251E+02  0.74655395129E+02  0.00000000000E+00 0. -1.
<scales pt_clust_5="13000.00000" pt_clust_6="13000.00000" pt_clust_7="13000.00000" pt_clust_8="13000.00000" pt_clust_9="28.07862"></scales>
<clustering>
<clus scale="   28.079">  1  9  2 -1</clus>
<clus scale="   90.359">  7  8 -1 -1</clus>
<clus scale="   93.649">  5  6 -1 -1</clus>
<clus scale="  111.070">  1  7  2 -1</clus>
<clus scale="   28.079">  1  5  2 -1</clus>
</clustering>
</event>
<event>
 9    1  0.9000149E-006  0.1891145E+03  0.7546771E-02  0.1159318E+00
          1   -1    0    0  502    0  0.00000000000E+00  0.00000000000E+00  0.10456797464E+04  0.10456797464E+04  0.00000000000E+00 0. -1.
         -1   -1    0    0    0  501 -0.00000000000E+00 -0.00000000000E+00 -0.18180619480E+03  0.18180619480E+03  0.00000000000E+00 0.  1.
         23    2    1    2    0    0 -0.11656873041E+03 -0.21121725431E+02  0.34706598442E+02  0.15330052562E+03  0.90896132950E+02 0.  0.
         23    2    1    2    0    0  0.24585045750E+03 -0.52359761976E+02  0.39177275076E+02  0.27032163020E+03  0.91405321211E+02 0.  0.
        -11    1    3    3    0    0 -0.24480976341E+02 -0.46655204486E+02  0.21180547906E+02  0.56785930633E+02  0.00000000000E+00 0.  1.
         11    1    3    3    0    0 -0.92087754072E+02  0.25533479056E+02  0.13526050536E+02  0.96514594988E+02  0.00000000000E+00 0. -1.
        -13    1    4    4    0    0  0.20002460326E+03 -0.62082326695E+02  0.28873472310E+00  0.20943767705E+03  0.00000000000E+00 0.  1.
         13    1    4    4    0    0  0.45825854238E+02  0.97225647191E+01  0.38888540353E+02  0.60883953158E+02  0.00000000000E+00 0. -1.
         21    1    1    2  502  501 -0.12928172709E+03  0.73481487407E+02  0.78998967808E+03  0.80386378537E+03  0.00000000000E+00 0. -1.
<scales pt_clust_5="13000.00000" pt_clust_6="13000.00000" pt_clust_7="13000.00000" pt_clust_8="13000.00000" pt_clust_9="148.70539"></scales>
<clustering>
<clus scale="   90.896">  5  6 -1 -1</clus>
<clus scale="   91.405">  7  8 -1 -1</clus>
<clus scale="  148.705">  1  9  2 -1</clus>
<clus scale="  188.869">  2  5  1 -1</clus>
<clus scale="  148.705">  1  5  2 -1</clus>
</clustering>
</event>
<event>
 9    1  0.9000149E-006  0.1734821E+03  0.7546771E-02  0.1175786E+00
         -1   -1    0    0    0  501 -0.00000000000E+00  0.00000000000E+00  0.20215286151E+03  0.20215286151E+03  0.00000000000E+00 0.  1.
          1   -1    0    0  502    0  0.00000000000E+00 -0.00000000000E+00 -0.21064032482E+03  0.21064032482E+03  0.00000000000E+00 0. -1.
         23    2    1    2    0    0  0.12385968101E+03 -0.88266342617E+02  0.68883000734E+02  0.19004120561E+03  0.90766867416E+02 0.  0.
         23    2    1    2    0    0 -0.10581157668E+03  0.64469640342E+02 -0.24260706805E+02  0.16182035163E+03  0.10121669834E+03 0.  0.
        -11    1    4    4    0    0 -0.14129497474E+02 -0.16215967306E+02  0.22424134767E+02  0.31071564405E+02  0.00000000000E+00 0.  1.
         11    1    4    4    0    0 -0.91682079204E+02  0.80685607648E+02 -0.46684841572E+02  0.13074878723E+03  0.00000000000E+00 0. -1.
        -13    1    3    3    0    0  0.92190868631E+02 -0.43252866860E+02  0.85050294875E+02  0.13267825522E+03  0.00000000000E+00 0.  1.
         13    1    3    3    0    0  0.31668812378E+02 -0.45013475757E+02 -0.16167294141E+02  0.57362950387E+02  0.00000000000E+00 0. -1.
         21    1    1    2  502  501 -0.18048104331E+02  0.23796702276E+02 -0.53109757245E+02  0.60931629091E+02  0.00000000000E+00 0. -1.
<scales pt_clust_5="13000.00000" pt_clust_6="13000.00000" pt_clust_7="13000.00000" pt_clust_8="13000.00000" pt_clust_9="29.86666"></scales>
<clustering>
<clus scale="   29.867">  2  9  1 -1</clus>
<clus scale="   90.767">  7  8 -1 -1</clus>
<clus scale="  101.217">  5  6 -1 -1</clus>
<clus scale="  167.600">  1  7  2 -1</clus>
<clus scale="   29.867">  2  5  1 -1</clus>
</clustering>
</event>
<event>
 9    1  0.9000149E-006  0.3126906E+03  0.7546771E-02  0.1079083E+00
          1   -1    0    0  502    0  0.00000000000E+00  0.00000000000E+00  0.53464007697E+03  0.53464007697E+03  0.00000000000E+00 0. -1.
         -1   -1    0    0    0  501 -0.00000000000E+00 -0.00000000000E+00 -0.33549673290E+03  0.33549673290E+03  0.00000000000E+00 0.  1.
         23    2    1    2    0    0  0.16858836089E+03  0.24870034439E+03 -0.16938975258E+03  0.35681193475E+03  0.91367235790E+02 0.  0.
         23    2    1    2    0    0 -0.12580818112E+03 -0.26828580435E+03  0.31189449742E+03  0.43969291911E+03  0.90811421902E+02 0.  0.
        -13    1    4    4    0    0 -0.97857440649E+02 -0.15959710919E+03  0.13737823149E+03  0.23220700773E+03  0.00000000000E+00 0. -1.
         13    1    4    4    0    0 -0.27950740471E+02 -0.10868869515E+03  0.17451626593E+03  0.20748591138E+03  0.00000000000E+00 0.  1.
        -13    1    3    3    0    0  0.58049772882E+02  0.46942211516E+02 -0.81542234786E+02  0.11055534093E+03  0.00000000000E+00 0. -1.
         13    1    3    3    0    0  0.11053858801E+03  0.20175813288E+03 -0.87847517791E+02  0.24625659383E+03  0.00000000000E+00 0.  1.
         21    1    1    2  502  501 -0.42780179770E+02  0.19585459951E+02  0.56638599226E+02  0.73631956004E+02  0.00000000000E+00 0.  1.
<scales pt_clust_5="13000.00000" pt_clust_6="13000.00000" pt_clust_7="13000.00000" pt_clust_8="13000.00000" pt_clust_9="47.05033"></scales>
<clustering>
<clus scale="   47.050">  1  9  2 -1</clus>
<clus scale="   90.811">  5  6 -1 -1</clus>
<clus scale="   91.367">  7  8 -1 -1</clus>
<clus scale="  312.529">  1  5  2 -1</clus>
<clus scale="   47.050">  1  5  2 -1</clus>
</clustering>
</event>
<event>
 9    1  0.9000149E-006  0.1352290E+03  0.7546771E-02  0.1223808E+00
         -2   -1    0    0    0  501 -0.00000000000E+00  0.00000000000E+00  0.95081630936E+02  0.95081630936E+02  0.00000000000E+00 0.  1.
          2   -1    0    0  502    0  0.00000000000E+00 -0.00000000000E+00 -0.44154726457E+03  0.44154726457E+03  0.00000000000E+00 0. -1.
         23    2    1    2    0    0  0.54510818104E+02  0.52028891106E+02 -0.24575729552E+01  0.11817558016E+03  0.90999963086E+02 0.  0.
         23    2    1    2    0    0 -0.81165516601E+02 -0.10904412108E+03 -0.28120116553E+03  0.32953810023E+03  0.10508473999E+03 0.  0.
        -11    1    3    3    0    0 -0.11338691593E+02  0.47994505980E+02 -0.13855780281E+02  0.51225200619E+02  0.00000000000E+00 0. -1.
         11    1    3    3    0    0  0.65849509697E+02  0.40343851261E+01  0.11398207326E+02  0.66950379543E+02  0.00000000000E+00 0.  1.
        -13    1    4    4    0    0 -0.70671908507E+02 -0.35023557106E+02 -0.69862019854E+02  0.10536541189E+03  0.00000000000E+00 0.  1.
         13    1    4    4    0    0 -0.10493608094E+02 -0.74020563975E+02 -0.21133914568E+03  0.22417268834E+03  0.00000000000E+00 0. -1.
         21    1    1    2  502  501  0.26654698497E+02  0.57015229976E+02 -0.62806895151E+02  0.88915215119E+02  0.00000000000E+00 0.  1.
<scales pt_clust_5="13000.00000" pt_clust_6="13000.00000" pt_clust_7="13000.00000" pt_clust_8="13000.00000" pt_clust_9="62.93814"></scales>
<clustering>
<clus scale="   62.938">  2  9  1 -1</clus>
<clus scale="   91.000">  5  6 -1 -1</clus>
<clus scale="  105.085">  7  8 -1 -1</clus>
<clus scale="  124.600">  1  5  2 -1</clus>
<clus scale="   62.938">  2  5  1 -1</clus>
</clustering>
</event>
<event>
 9    1  0.9000149E-006  0.9461087E+02  0.7546771E-02  0.1293732E+00
         -2   -1    0    0    0  501 -0.00000000000E+00  0.00000000000E+00  0.55572480627E+02  0.55572480627E+02  0.00000000000E+00 0.  1.
          2   -1    0    0  502    0  0.00000000000E+00 -0.00000000000E+00 -0.33718587910E+03  0.33718587910E+03  0.00000000000E+00 0. -1.
         23    2    1    2    0    0 -0.29167735496E+02 -0.28060567373E+01 -0.66820922011E+02  0.11923194572E+03  0.94300532942E+02 0.  0.
         23    2    1    2    0    0 -0.23582848208E+02 -0.17029642966E+02 -0.71704404141E+02  0.11973995328E+03  0.91378199632E+02 0.  0.
        -13    1    3    3    0    0 -0.47925521827E+02 -0.34071215078E+02 -0.25410427176E+02  0.64057732933E+02  0.00000000000E+00 0. -1.
         13    1    3    3    0    0  0.18757786330E+02  0.31265158341E+02 -0.41410494835E+02  0.55174212786E+02  0.00000000000E+00 0.  1.
        -13    1    4    4    0    0 -0.47121801562E+02 -0.28569846361E+02 -0.75266805546E+02  0.93283397884E+02  0.00000000000E+00 0. -1.
         13    1    4    4    0    0  0.23538953354E+02  0.11540203396E+02  0.35624014053E+01  0.26456555391E+02  0.00000000000E+00 0.  1.
         21    1    1    2  502  501  0.52750583705E+02  0.19835699703E+02 -0.14308807232E+03  0.15378646073E+03  0.00000000000E+00 0.  1.
<scales pt_clust_5="13000.00000" pt_clust_6="13000.00000" pt_clust_7="13000.00000" pt_clust_8="13000.00000" pt_clust_9="56.35671"></scales>
<clustering>
<clus scale="   56.357">  2  9  1 -1</clus>
<clus scale="   91.378">  7  8 -1 -1</clus>
<clus scale="   91.698">  2  7  1 -1</clus>
<clus scale="   94.301">  5  6 -1 -1</clus>
<clus scale="   56.357">  2  5  1 -1</clus>
</clustering>
</event>
<event>
 9    1  0.9000149E-006  0.1929496E+03  0.7546771E-02  0.1155844E+00
         -1   -1    0    0    0  501 -0.00000000000E+00  0.00000000000E+00  0.37473086180E+03  0.37473086180E+03  0.00000000000E+00 0.  1.
          1   -1    0    0  502    0  0.00000000000E+00 -0.00000000000E+00 -0.19941162846E+03  0.19941162846E+03  0.00000000000E+00 0. -1.
         23    2    1    2    0    0 -0.60085809783E+02  0.17160096440E+03  0.25160826059E+03  0.32362250663E+03  0.91474665784E+02 0.  0.
         23    2    1    2    0    0  0.49439046169E+02 -0.13230860523E+03 -0.48099763544E+01  0.16826125896E+03  0.91317737008E+02 0.  0.
        -11    1    3    3    0    0 -0.56531392541E+02  0.13770809433E+03  0.24814207694E+03  0.28936794559E+03  0.00000000000E+00 0.  1.
         11    1    3    3    0    0 -0.35544172418E+01  0.33892870067E+02  0.34661836585E+01  0.34254561046E+02  0.00000000000E+00 0. -1.
        -13    1    4    4    0    0 -0.12946237101E+02 -0.20358575820E+02  0.27004784246E+02  0.36212360274E+02  0.00000000000E+00 0.  1.
         13    1    4    4    0    0  0.62385283271E+02 -0.11195002941E+03 -0.31814760600E+02  0.13204889869E+03  0.00000000000E+00 0. -1.
         21    1    1    2  502  501  0.10646763614E+02 -0.39292359168E+02 -0.71479050901E+02  0.82258724657E+02  0.00000000000E+00 0. -1.
<scales pt_clust_5="13000.00000" pt_clust_6="13000.00000" pt_clust_7="13000.00000" pt_clust_8="13000.00000" pt_clust_9="40.70925"></scales>
<clustering>
<clus scale="   40.709">  2  9  1 -1</clus>
<clus scale="   91.318">  7  8 -1 -1</clus>
<clus scale="   91.475">  5  6 -1 -1</clus>
<clus scale="  192.875">  2  7  1 -1</clus>
<clus scale="   40.709">  2  5  1 -1</clus>
</clustering>
</event>
<event>
 9    1  0.9000149E-006  0.1025323E+03  0.7546771E-02  0.1277051E+00
         -1   -1    0    0    0  501 -0.00000000000E+00  0.00000000000E+00  0.14290632703E+03  0.14290632703E+03  0.00000000000E+00 0.  1.
          1   -1    0    0  502    0  0.00000000000E+00 -0.00000000000E+00 -0.14004867918E+03  0.14004867918E+03  0.00000000000E+00 0. -1.
         23    2    1    2    0    0  0.51213385251E+02 -0.51778174541E+01  0.38801420849E+02  0.11266762947E+03  0.92405756579E+02 0.  0.
         23    2    1    2    0    0 -0.15453162644E+02 -0.16971442645E+02  0.19102854307E+02  0.10100884888E+03  0.96493722116E+02 0.  0.
        -11    1    4    4    0    0 -0.25593520685E+02 -0.46077311005E+02 -0.15236246635E+02  0.54866110688E+02  0.00000000000E+00 0.  1.
         11    1    4    4    0    0  0.10140358041E+02  0.29105868360E+02  0.34339100942E+02  0.46142738190E+02  0.00000000000E+00 0. -1.
        -13    1    3    3    0    0  0.26938446153E+02  0.14630990534E+02 -0.26318049346E+02  0.40402790579E+02  0.00000000000E+00 0. -1.
         13    1    3    3    0    0  0.24274939097E+02 -0.19808807988E+02  0.65119470195E+02  0.72264838895E+02  0.00000000000E+00 0.  1.
         21    1    1    2  502  501 -0.35760222607E+02  0.22149260099E+02 -0.55046627304E+02  0.69278527852E+02  0.00000000000E+00 0. -1.
<scales pt_clust_5="13000.00000" pt_clust_6="13000.00000" pt_clust_7="13000.00000" pt_clust_8="13000.00000" pt_clust_9="42.06404"></scales>
<clustering>
<clus scale="   42.064">  2  9  1 -1</clus>
<clus scale="   92.406">  7  8 -1 -1</clus>
<clus scale="   96.494">  5  6 -1 -1</clus>
<clus scale="   98.695">  1  7  2 -1</clus>
<clus scale="   42.064">  2  5  1 -1</clus>
</clustering>
</event>
<event>
 9    1  0.9000149E-006  0.9974369E+02  0.7546771E-02  0.1281750E+00
          2   -1    0    0  502    0  0.00000000000E+00  0.00000000000E+00  0.80272238882E+02  0.80272238882E+02  0.00000000000E+00 0. -1.
         -2   -1    0    0    0  501 -0.00000000000E+00 -0.00000000000E+00 -0.27344810811E+03  0.27344810811E+03  0.00000000000E+00 0.  1.
         23    2    1    2    0    0 -0.22575188751E+02  0.23832097750E+02 -0.16243692470E+03  0.18919604449E+03  0.91278588486E+02 0.  0.
         23    2    1    2    0    0  0.44376354609E+02 -0.12381029145E+02 -0.64836406965E+02  0.12246416995E+03  0.93119077118E+02 0.  0.
        -11    1    4    4    0    0  0.40099682532E+01  0.37100608097E+02 -0.10900571020E+02  0.38876180562E+02  0.00000000000E+00 0. -1.
         11    1    4    4    0    0  0.40366386355E+02 -0.49481637241E+02 -0.53935835944E+02  0.83587989391E+02  0.00000000000E+00 0.  1.
        -13    1    3    3    0    0 -0.28096135043E+02 -0.27614867906E+02 -0.10363536561E+03  0.11087047731E+03  0.00000000000E+00 0.  1.
         13    1    3    3    0    0  0.55209462916E+01  0.51446965656E+02 -0.58801559082E+02  0.78325567177E+02  0.00000000000E+00 0. -1.
         21    1    1    2  502  501 -0.21801165858E+02 -0.11451068606E+02  0.34097462437E+02  0.42060132544E+02  0.00000000000E+00 0. -1.
<scales pt_clust_5="13000.00000" pt_clust_6="13000.00000" pt_clust_7="13000.00000" pt_clust_8="13000.00000" pt_clust_9="24.62555"></scales>
<clustering>
<clus scale="   24.626">  1  9  2 -1</clus>
<clus scale="   91.279">  7  8 -1 -1</clus>
<clus scale="   93.119">  5  6 -1 -1</clus>
<clus scale="   98.028">  2  7  1 -1</clus>
<clus scale="   24.626">  1  5  2 -1</clus>
</clustering>
</event>
<event>
 9    1  0.9000149E-006  0.9346694E+02  0.7546771E-02  0.1296127E+00
         -2   -1    0    0    0  501 -0.00000000000E+00  0.00000000000E+00  0.25656763650E+02  0.25656763650E+02  0.00000000000E+00 0.  1.
          2   -1    0    0  502    0  0.00000000000E+00 -0.00000000000E+00 -0.48669190636E+03  0.48669190636E+03  0.00000000000E+00 0. -1.
         23    2    1    2    0    0 -0.15648845258E+02  0.45834155525E+01 -0.12861475231E+03  0.15893941265E+03  0.91946116415E+02 0.  0.
         23    2    1    2    0    0  0.26152027760E+01 -0.27535564064E+02 -0.25932667336E+03  0.27569588382E+03  0.89402741928E+02 0.  0.
        -11    1    4    4    0    0 -0.34606999114E+02  0.10024436621E+02 -0.65164542185E+02  0.74461743704E+02  0.00000000000E+00 0.  1.
         11    1    4    4    0    0  0.37222201890E+02 -0.37560000685E+02 -0.19416213118E+03  0.20123414012E+03  0.00000000000E+00 0. -1.
        -13    1    3    3    0    0  0.25794254309E+02  0.33671339770E+02 -0.65344859072E+02  0.77904128802E+02  0.00000000000E+00 0.  1.
         13    1    3    3    0    0 -0.41443099567E+02 -0.29087924218E+02 -0.63269893241E+02  0.81035283844E+02  0.00000000000E+00 0. -1.
         21    1    1    2  502  501  0.13033642482E+02  0.22952148512E+02 -0.73093717031E+02  0.77713373541E+02  0.00000000000E+00 0.  1.
<scales pt_clust_5="13000.00000" pt_clust_6="13000.00000" pt_clust_7="13000.00000" pt_clust_8="13000.00000" pt_clust_9="26.39464"></scales>
<clustering>
<clus scale="   26.395">  2  9  1 -1</clus>
<clus scale="   89.403">  5  6 -1 -1</clus>
<clus scale="   90.966">  2  5  1 -1</clus>
<clus scale="   91.946">  7  8 -1 -1</clus>
<clus scale="   26.395">  2  5  1 -1</clus>
</clustering>
</event>
<event>
 9    1  0.9000149E-006  0.1245101E+03  0.7546771E-02  0.1236293E+00
          1   -1    0    0  502    0  0.00000000000E+00  0.00000000000E+00  0.27036537936E+03  0.27036537936E+03  0.00000000000E+00 0. -1.
         -1   -1    0    0    0  501 -0.00000000000E+00 -0.00000000000E+00 -0.95251879516E+02  0.95251879516E+02  0.00000000000E+00 0.  1.
         23    2    1    2    0    0 -0.27111903383E+02  0.75581928417E+02 -0.20943581332E-01  0.12173444236E+03  0.91496397798E+02 0.  0.
         23    2    1    2    0    0  0.48985172348E+02 -0.80829348954E+02  0.96969522646E+02  0.16254567765E+03  0.89917063117E+02 0.  0.
        -11    1    4    4    0    0 -0.19690246349E+02  0.46453667514E+01  0.98426245171E+01  0.22498055270E+02  0.00000000000E+00 0.  1.
         11    1    4    4    0    0  0.68675418697E+02 -0.85474715705E+02  0.87126898128E+02  0.14004762238E+03  0.00000000000E+00 0. -1.
        -13    1    3    3    0    0 -0.30412082812E+02 -0.12835575676E+02 -0.34454522927E+01  0.33189123601E+02  0.00000000000E+00 0. -1.
         13    1    3    3    0    0  0.33001794294E+01  0.88417504094E+02  0.34245087113E+01  0.88545318760E+02  0.00000000000E+00 0.  1.
         21    1    1    2  502  501 -0.21873268966E+02  0.52474205364E+01  0.78164920782E+02  0.81337138862E+02  0.00000000000E+00 0.  1.
<scales pt_clust_5="13000.00000" pt_clust_6="13000.00000" pt_clust_7="13000.00000" pt_clust_8="13000.00000" pt_clust_9="22.49390"></scales>
<clustering>
<clus scale="   22.494">  1  9  2 -1</clus>
<clus scale="   89.917">  5  6 -1 -1</clus>
<clus scale="   91.496">  7  8 -1 -1</clus>
<clus scale="  123.354">  1  5  2 -1</clus>
<clus scale="   22.494">  1  5  2 -1</clus>
</clustering>
</event>
<event>
 9    1  0.9000149E-006  0.9415458E+02  0.7546771E-02  0.1294681E+00
         -2   -1    0    0    0  501 -0.00000000000E+00  0.00000000000E+00  0.40707624246E+02  0.40707624246E+02  0.00000000000E+00 0. -1.
          2   -1    0    0  502    0  0.00000000000E+00 -0.00000000000E+00 -0.29678771271E+03  0.29678771271E+03  0.00000000000E+00 0.  1.
         23    2    1    2    0    0  0.70237195731E+01  0.17598331620E+02 -0.87928275901E+02  0.12774749853E+03  0.90713878567E+02 0.  0.
         23    2    1    2    0    0 -0.11998321674E+02  0.29531602966E+01 -0.16247488635E+03  0.18785404987E+03  0.93479273005E+02 0.  0.
        -13    1    3    3    0    0  0.46815690360E+02 -0.40547469902E+01 -0.38993128087E+02  0.61062376919E+02  0.00000000000E+00 0. -1.
         13    1    3    3    0    0 -0.39791970786E+02  0.21653078610E+02 -0.48935147814E+02  0.66685121608E+02  0.00000000000E+00 0.  1.
        -13    1    4    4    0    0  0.23131104866E+02 -0.35358816360E+02 -0.69530137553E+02  0.81361747369E+02  0.00000000000E+00 0. -1.
         13    1    4    4    0    0 -0.35129426540E+02  0.38311976657E+02 -0.92944748795E+02  0.10649230251E+03  0.00000000000E+00 0.  1.
         21    1    1    2  502  501  0.49746021012E+01 -0.20551491916E+02 -0.56769262152E+01  0.21893788555E+02  0.00000000000E+00 0.  1.
<scales pt_clust_5="13000.00000" pt_clust_6="13000.00000" pt_clust_7="13000.00000" pt_clust_8="13000.00000" pt_clust_9="21.14499"></scales>
<clustering>
<clus scale="   21.145">  1  9  2 -1</clus>
<clus scale="   90.714">  5  6 -1 -1</clus>
<clus scale="   91.410">  1  5  2 -1</clus>
<clus scale="   93.479">  7  8 -1 -1</clus>
<clus scale="   94.155">  2  5  1 -1</clus>
</clustering>
</event>
<event>
 9    1  0.9000149E-006  0.1124448E+03  0.7546771E-02  0.1257265E+00
         -1   -1    0    0    0  501 -0.00000000000E+00  0.00000000000E+00  0.93668610774E+02  0.93668610774E+02  0.00000000000E+00 0.  1.
          1   -1    0    0  502    0  0.00000000000E+00 -0.00000000000E+00 -0.25301854948E+03  0.25301854948E+03  0.00000000000E+00 0. -1.
         23    2    1    2    0    0 -0.60269085490E+02  0.24022220296E+02  0.32301022948E+02  0.11630350586E+03  0.90959989323E+02 0.  0.
         23    2    1    2    0    0  0.39613818294E+02 -0.29848592606E+02 -0.16271167478E+03  0.19435492972E+03  0.94013597499E+02 0.  0.
        -11    1    3    3    0    0 -0.25585603520E+02  0.52212261796E+02  0.40505272801E+02  0.70861982149E+02  0.00000000000E+00 0.  1.
         11    1    3    3    0    0 -0.34683481971E+02 -0.28190041500E+02 -0.82042498529E+01  0.45441523710E+02  0.00000000000E+00 0. -1.
        -13    1    4    4    0    0  0.30128826263E+02 -0.53513910274E+02 -0.15649362695E+03  0.16811228402E+03  0.00000000000E+00 0. -1.
         13    1    4    4    0    0  0.94849920316E+01  0.23665317668E+02 -0.62180478378E+01  0.26242645695E+02  0.00000000000E+00 0.  1.
         21    1    1    2  502  501  0.20655267196E+02  0.58263723101E+01 -0.28939286870E+02  0.36028724676E+02  0.00000000000E+00 0. -1.
<scales pt_clust_5="13000.00000" pt_clust_6="13000.00000" pt_clust_7="13000.00000" pt_clust_8="13000.00000" pt_clust_9="21.46128"></scales>
<clustering>
<clus scale="   21.461">  2  9  1 -1</clus>
<clus scale="   90.960">  5  6 -1 -1</clus>
<clus scale="   94.014">  7  8 -1 -1</clus>
<clus scale="  109.904">  1  5  2 -1</clus>
<clus scale="   21.461">  2  5  1 -1</clus>
</clustering>
</event>
<event>
 9    1  0.9000149E-006  0.1531390E+03  0.7546771E-02  0.1197292E+00
         -1   -1    0    0    0  501 -0.00000000000E+00  0.00000000000E+00  0.78033132830E+03  0.78033132830E+03  0.00000000000E+00 0.  1.
          1   -1    0    0  502    0  0.00000000000E+00 -0.00000000000E+00 -0.70568910312E+02  0.70568910312E+02  0.00000000000E+00 0. -1.
         23    2    1    2    0    0 -0.12649092950E+03  0.36709472785E+01  0.63479164088E+03  0.65371933431E+03  0.91515625057E+02 0.  0.
         23    2    1    2    0    0  0.10763734348E+03 -0.13135200059E+02  0.94347147153E+02  0.16853699565E+03  0.88005701716E+02 0.  0.
        -11    1    4    4    0    0  0.22771297793E+02 -0.43671035271E+02  0.28942576873E+02  0.57125861752E+02  0.00000000000E+00 0.  1.
         11    1    4    4    0    0  0.84866045690E+02  0.30535835213E+02  0.65404570280E+02  0.11141113390E+03  0.00000000000E+00 0. -1.
        -13    1    3    3    0    0 -0.10448936532E+03 -0.63673149082E+01  0.61061584680E+03  0.61952423886E+03  0.00000000000E+00 0.  1.
         13    1    3    3    0    0 -0.22001564185E+02  0.10038262187E+02  0.24175794074E+02  0.34195095459E+02  0.00000000000E+00 0. -1.
         21    1    1    2  502  501  0.18853586021E+02  0.94642527803E+01 -0.19376370043E+02  0.28643908647E+02  0.00000000000E+00 0. -1.
<scales pt_clust_5="13000.00000" pt_clust_6="13000.00000" pt_clust_7="13000.00000" pt_clust_8="13000.00000" pt_clust_9="21.09573"></scales>
<clustering>
<clus scale="   21.096">  2  9  1 -1</clus>
<clus scale="   88.006">  5  6 -1 -1</clus>
<clus scale="   91.516">  7  8 -1 -1</clus>
<clus scale="  151.068">  2  5  1 -1</clus>
<clus scale="   21.096">  2  5  1 -1</clus>
</clustering>
</event>
<event>
 9    1  0.9000149E-006  0.1190014E+03  0.7546771E-02  0.1251410E+00
          1   -1    0    0  502    0  0.00000000000E+00  0.00000000000E+00  0.47088768709E+03  0.47088768709E+03  0.00000000000E+00 0. -1.
         -1   -1    0    0    0  501 -0.00000000000E+00 -0.00000000000E+00 -0.20679404790E+03  0.20679404790E+03  0.00000000000E+00 0.  1.
         23    2    1    2    0    0 -0.12795605662E+02 -0.49264740679E+02 -0.18064599551E+03  0.20868878083E+03  0.91253982649E+02 0.  0.
         23    2    1    2    0    0 -0.15293434516E+02  0.34859198544E+02  0.38185068617E+03  0.39862581929E+03  0.10790525667E+03 0.  0.
        -11    1    3    3    0    0 -0.28854538651E+02 -0.65566663316E+02 -0.89098154269E+02  0.11432433176E+03  0.00000000000E+00 0.  1.
         11    1    3    3    0    0  0.16058932989E+02  0.16301922637E+02 -0.91547841243E+02  0.94364449061E+02  0.00000000000E+00 0. -1.
        -11    1    4    4    0    0 -0.16436029765E+02  0.70297396942E+02  0.31257454672E+03  0.32080323307E+03  0.00000000000E+00 0. -1.
         11    1    4    4    0    0  0.11425952494E+01 -0.35438198398E+02  0.69276139454E+02  0.77822586228E+02  0.00000000000E+00 0.  1.
         21    1    1    2  502  501  0.28089040177E+02  0.14405542136E+02  0.62888948528E+02  0.70367134866E+02  0.00000000000E+00 0. -1.
<scales pt_clust_5="13000.00000" pt_clust_6="13000.00000" pt_clust_7="13000.00000" pt_clust_8="13000.00000" pt_clust_9="31.56761"></scales>
<clustering>
<clus scale="   31.568">  1  9  2 -1</clus>
<clus scale="   91.254">  5  6 -1 -1</clus>
<clus scale="  104.140">  2  5  1 -1</clus>
<clus scale="  107.905">  7  8 -1 -1</clus>
<clus scale="   31.568">  1  5  2 -1</clus>
</clustering>
</event>
<event>
 9    1  0.9000149E-006  0.1467011E+03  0.7546771E-02  0.1222141E+00
          1   -1    0    0  502    0  0.00000000000E+00  0.00000000000E+00  0.10839513577E+03  0.10839513577E+03  0.00000000000E+00 0. -1.
         -1   -1    0    0    0  501 -0.00000000000E+00 -0.00000000000E+00 -0.34049483499E+03  0.34049483499E+03  0.00000000000E+00 0.  1.
         23    2    1    2    0    0 -0.15235008717E+02 -0.38208541286E+02 -0.12699846354E+03  0.16229751527E+03  0.92303172229E+02 0.  0.
         23    2    1    2    0    0 -0.10607325012E+03  0.85951383717E+01 -0.44259248945E+02  0.14768819118E+03  0.92344517454E+02 0.  0.
        -13    1    3    3    0    0  0.15578107372E+02  0.14582572340E+02  0.17717284704E-01  0.21338443224E+02  0.00000000000E+00 0.  1.
         13    1    3    3    0    0 -0.30813116089E+02 -0.52791113626E+02 -0.12701618082E+03  0.14095907204E+03  0.00000000000E+00 0. -1.
        -13    1    4    4    0    0 -0.32141775750E+02  0.33127056646E+02 -0.51856497828E+02  0.69423281378E+02  0.00000000000E+00 0.  1.
         13    1    4    4    0    0 -0.73931474365E+02 -0.24531918274E+02  0.75972488831E+01  0.78264909804E+02  0.00000000000E+00 0. -1.
         21    1    1    2  502  501  0.12130825883E+03  0.29613402914E+02 -0.60841986740E+02  0.13890426431E+03  0.00000000000E+00 0.  1.
<scales pt_clust_5="13000.00000" pt_clust_6="13000.00000" pt_clust_7="13000.00000" pt_clust_8="13000.00000" pt_clust_9="113.98998"></scales>
<clustering>
<clus scale="   92.303">  5  6 -1 -1</clus>
<clus scale="   92.345">  7  8 -1 -1</clus>
<clus scale="  101.054">  2  5  1 -1</clus>
<clus scale="  113.990">  2  9  1 -1</clus>
<clus scale="  146.701">  1  5  2 -1</clus>
</clustering>
</event>
<event>
 9    1  0.9000149E-006  0.1202570E+03  0.7546771E-02  0.1243023E+00
         -1   -1    0    0    0  501 -0.00000000000E+00  0.00000000000E+00  0.39972788106E+03  0.39972788106E+03  0.00000000000E+00 0.  1.
          1   -1    0    0  502    0  0.00000000000E+00 -0.00000000000E+00 -0.10787296606E+03  0.10787296606E+03  0.00000000000E+00 0. -1.
         23    2    1    2    0    0 -0.74405175409E+02 -0.34000481148E+02  0.32617950895E+03  0.34847935554E+03  0.91392703934E+02 0.  0.
         23    2    1    2    0    0  0.65277170304E+02 -0.64859326137E+01 -0.12669305873E+02  0.11230886852E+03  0.90275103723E+02 0.  0.
        -13    1    4    4    0    0  0.67574797707E+02  0.30747953499E+02 -0.99492681276E+01  0.74905125765E+02  0.00000000000E+00 0. -1.
         13    1    4    4    0    0 -0.22976274032E+01 -0.37233886113E+02 -0.27200377455E+01  0.37403742755E+02  0.00000000000E+00 0.  1.
        -13    1    3    3    0    0 -0.74647287826E+02 -0.45485671297E+01  0.29964481723E+03  0.30883640254E+03  0.00000000000E+00 0.  1.
         13    1    3    3    0    0  0.24211241647E+00 -0.29451914018E+02  0.26534691725E+02  0.39642953002E+02  0.00000000000E+00 0. -1.
         21    1    1    2  502  501  0.91280051050E+01  0.40486413762E+02 -0.21655288078E+02  0.46812623065E+02  0.00000000000E+00 0. -1.
<scales pt_clust_5="13000.00000" pt_clust_6="13000.00000" pt_clust_7="13000.00000" pt_clust_8="13000.00000" pt_clust_9="41.50265"></scales>
<clustering>
<clus scale="   41.503">  2  9  1 -1</clus>
<clus scale="   90.275">  5  6 -1 -1</clus>
<clus scale="   91.393">  7  8 -1 -1</clus>
<clus scale="  119.410">  2  5  1 -1</clus>
<clus scale="   41.503">  2  5  1 -1</clus>
</clustering>
</event>
<event>
 9    1  0.9000149E-006  0.1608597E+03  0.7546771E-02  0.1187975E+00
          1   -1    0    0  502    0  0.00000000000E+00  0.00000000000E+00  0.66755717345E+03  0.66755717345E+03  0.00000000000E+00 0. -1.
         -1   -1    0    0    0  501 -0.00000000000E+00 -0.00000000000E+00 -0.46972949491E+02  0.46972949491E+02  0.00000000000E+00 0.  1.
         23    2    1    2    0    0 -0.78383193772E+02 -0.92478504208E+02  0.25689536980E+03  0.29854719477E+03  0.91864017309E+02 0.  0.
         23    2    1    2    0    0  0.10602852477E+03  0.98068971855E+02  0.28085648774E+03  0.32848025060E+03  0.90329048621E+02 0.  0.
        -11    1    3    3    0    0 -0.64417045492E+02 -0.25326955105E+02  0.65746453519E+02  0.95465211230E+02  0.00000000000E+00 0.  1.
         11    1    3    3    0    0 -0.13966148279E+02 -0.67151549103E+02  0.19114891628E+03  0.20308198354E+03  0.00000000000E+00 0. -1.
        -13    1    4    4    0    0 -0.88484898389E+01  0.38745258770E+02  0.49845739588E+02  0.63750204742E+02  0.00000000000E+00 0. -1.
         13    1    4    4    0    0  0.11487701461E+03  0.59323713084E+02  0.23101074815E+03  0.26473004586E+03  0.00000000000E+00 0.  1.
         21    1    1    2  502  501 -0.27645330996E+02 -0.55904676463E+01  0.82832366429E+02  0.87502677574E+02  0.00000000000E+00 0. -1.
<scales pt_clust_5="13000.00000" pt_clust_6="13000.00000" pt_clust_7="13000.00000" pt_clust_8="13000.00000" pt_clust_9="28.20492"></scales>
<clustering>
<clus scale="   28.205">  1  9  2 -1</clus>
<clus scale="   90.329">  7  8 -1 -1</clus>
<clus scale="   91.864">  5  6 -1 -1</clus>
<clus scale="  159.988">  1  7  2 -1</clus>
<clus scale="   28.205">  1  5  2 -1</clus>
</clustering>
</event>
<event>
 9    1  0.9000149E-006  0.1236437E+03  0.7546771E-02  0.1239985E+00
          1   -1    0    0  502    0  0.00000000000E+00  0.00000000000E+00  0.29488650673E+03  0.29488650673E+03  0.00000000000E+00 0. -1.
         -1   -1    0    0    0  501 -0.00000000000E+00 -0.00000000000E+00 -0.15211729249E+03  0.15211729249E+03  0.00000000000E+00 0.  1.
         23    2    1    2    0    0 -0.40719178208E+02 -0.62644305719E+02 -0.89552804583E+02  0.14860544131E+03  0.92095124007E+02 0.  0.
         23    2    1    2    0    0  0.74355023565E+02  0.12238450840E+02  0.17063769135E+03  0.21192826738E+03  0.10058787004E+03 0.  0.
        -11    1    3    3    0    0  0.15207862567E+02 -0.60163034714E+02 -0.54221524296E+02  0.82406574537E+02  0.00000000000E+00 0.  1.
         11    1    3    3    0    0 -0.55927040775E+02 -0.24812710048E+01 -0.35331280287E+02  0.66198866775E+02  0.00000000000E+00 0. -1.
        -11    1    4    4    0    0  0.11433308852E+02 -0.29591637888E+02  0.11165713662E+03  0.11607627553E+03  0.00000000000E+00 0. -1.
         11    1    4    4    0    0  0.62921714713E+02  0.41830088728E+02  0.58980554733E+02  0.95851991852E+02  0.00000000000E+00 0.  1.
         21    1    1    2  502  501 -0.33635845358E+02  0.50405854879E+02  0.61684327472E+02  0.86470090521E+02  0.00000000000E+00 0.  1.
<scales pt_clust_5="13000.00000" pt_clust_6="13000.00000" pt_clust_7="13000.00000" pt_clust_8="13000.00000" pt_clust_9="60.59802"></scales>
<clustering>
<clus scale="   60.598">  1  9  2 -1</clus>
<clus scale="   92.095">  5  6 -1 -1</clus>
<clus scale="  100.588">  7  8 -1 -1</clus>
<clus scale="  116.839">  2  5  1 -1</clus>
<clus scale="   60.598">  1  5  2 -1</clus>
</clustering>
</event>
<event>
 9    1  0.9000149E-006  0.1652947E+03  0.7546771E-02  0.1189502E+00
         -2   -1    0    0    0  501 -0.00000000000E+00  0.00000000000E+00  0.74054055442E+03  0.74054055442E+03  0.00000000000E+00 0.  1.
          2   -1    0    0  502    0  0.00000000000E+00 -0.00000000000E+00 -0.14245455218E+03  0.14245455218E+03  0.00000000000E+00 0. -1.
         23    2    1    2    0    0 -0.14317382276E+03  0.73537794029E+01  0.31942327465E+03  0.36190494863E+03  0.91603176049E+02 0.  0.
         23    2    1    2    0    0  0.36070003767E+02  0.96475148830E+02 -0.57194670644E+02  0.15359612218E+03  0.98549677250E+02 0.  0.
        -11    1    3    3    0    0 -0.67043688926E+02 -0.42054982010E+02  0.13945652483E+03  0.16034837092E+03  0.00000000000E+00 0.  1.
         11    1    3    3    0    0 -0.76130133838E+02  0.49408761413E+02  0.17996674981E+03  0.20155657772E+03  0.00000000000E+00 0. -1.
        -13    1    4    4    0    0 -0.12916572881E+02  0.56297418550E+02 -0.68113288950E+02  0.89306535718E+02  0.00000000000E+00 0. -1.
         13    1    4    4    0    0  0.48986576648E+02  0.40177730281E+02  0.10918618306E+02  0.64289586465E+02  0.00000000000E+00 0.  1.
         21    1    1    2  502  501  0.10710381900E+03 -0.10382892823E+03  0.33585739824E+03  0.36749403578E+03  0.00000000000E+00 0.  1.
<scales pt_clust_5="13000.00000" pt_clust_6="13000.00000" pt_clust_7="13000.00000" pt_clust_8="13000.00000" pt_clust_9="137.59067"></scales>
<clustering>
<clus scale="   91.603">  5  6 -1 -1</clus>
<clus scale="   98.550">  7  8 -1 -1</clus>
<clus scale="  142.550">  2  7  1 -1</clus>
<clus scale="  137.591">  1  9  2 -1</clus>
<clus scale="  142.550">  2  5  1 -1</clus>
</clustering>
</event>
<event>
 9    1  0.9000149E-006  0.9857890E+02  0.7546771E-02  0.1283452E+00
          2   -1    0    0  502    0  0.00000000000E+00  0.00000000000E+00  0.14855183028E+03  0.14855183028E+03  0.00000000000E+00 0. -1.
         -2   -1    0    0    0  501 -0.00000000000E+00 -0.00000000000E+00 -0.33513252357E+03  0.33513252357E+03  0.00000000000E+00 0.  1.
         23    2    1    2    0    0  0.27789566615E+02 -0.68626547354E+01 -0.22163855933E+03  0.24137519872E+03  0.91208440044E+02 0.  0.
         23    2    1    2    0    0 -0.61830822215E+02  0.47290851766E+01 -0.70690468083E+02  0.13119628742E+03  0.91487205296E+02 0.  0.
        -11    1    4    4    0    0 -0.11872141684E+02  0.20805745591E+02 -0.74811453689E+02  0.78553041958E+02  0.00000000000E+00 0.  1.
         11    1    4    4    0    0 -0.49958680531E+02 -0.16076660415E+02  0.41209856062E+01  0.52643245463E+02  0.00000000000E+00 0. -1.
        -13    1    3    3    0    0 -0.31437366346E+02 -0.16683544561E+00 -0.44554905218E+02  0.54529582942E+02  0.00000000000E+00 0.  1.
         13    1    3    3    0    0  0.59226932961E+02 -0.66958192898E+01 -0.17708365411E+03  0.18684561578E+03  0.00000000000E+00 0. -1.
         21    1    1    2  502  501  0.34041255600E+02  0.21335695588E+01  0.10574833411E+03  0.11111286771E+03  0.00000000000E+00 0. -1.
<scales pt_clust_5="13000.00000" pt_clust_6="13000.00000" pt_clust_7="13000.00000" pt_clust_8="13000.00000" pt_clust_9="34.10805"></scales>
<clustering>
<clus scale="   34.108">  1  9  2 -1</clus>
<clus scale="   91.208">  7  8 -1 -1</clus>
<clus scale="   91.487">  5  6 -1 -1</clus>
<clus scale="   98.320">  2  7  1 -1</clus>
<clus scale="   34.108">  1  5  2 -1</clus>
</clustering>
</event>
<event>
 9    1  0.9000149E-006  0.1059539E+03  0.7546771E-02  0.1276737E+00
         -2   -1    0    0    0  501 -0.00000000000E+00  0.00000000000E+00  0.22474114843E+03  0.22474114843E+03  0.00000000000E+00 0.  1.
          2   -1    0    0  502    0  0.00000000000E+00 -0.00000000000E+00 -0.87494197622E+02  0.87494197622E+02  0.00000000000E+00 0. -1.
         23    2    1    2    0    0  0.21546102815E+02 -0.27962187761E+02  0.15113408338E+03  0.18466534261E+03  0.10006827225E+03 0.  0.
         23    2    1    2    0    0 -0.14535200517E+01  0.38672756452E+02  0.12855916187E+02  0.92447093241E+02  0.82966834673E+02 0.  0.
        -11    1    4    4    0    0  0.25740502457E+01  0.58748659046E+02 -0.12232237312E+02  0.60063785296E+02  0.00000000000E+00 0. -1.
         11    1    4    4    0    0 -0.40275702974E+01 -0.20075902594E+02  0.25088153499E+02  0.32383307945E+02  0.00000000000E+00 0.  1.
        -13    1    3    3    0    0 -0.33642674848E+02 -0.60067126080E+01  0.10202619968E+03  0.10759765606E+03  0.00000000000E+00 0.  1.
         13    1    3    3    0    0  0.55188777664E+02 -0.21955475153E+02  0.49107883698E+02  0.77067686552E+02  0.00000000000E+00 0. -1.
         21    1    1    2  502  501 -0.20092582764E+02 -0.10710568691E+02 -0.26743048762E+02  0.35122910199E+02  0.00000000000E+00 0. -1.
<scales pt_clust_5="13000.00000" pt_clust_6="13000.00000" pt_clust_7="13000.00000" pt_clust_8="13000.00000" pt_clust_9="22.76902"></scales>
<clustering>
<clus scale="   22.769">  2  9  1 -1</clus>
<clus scale="   82.967">  5  6 -1 -1</clus>
<clus scale="   89.978">  2  5  1 -1</clus>
<clus scale="  100.068">  7  8 -1 -1</clus>
<clus scale="   22.769">  2  5  1 -1</clus>
</clustering>
</event>
<event>
 9    1  0.9000149E-006  0.1144900E+03  0.7546771E-02  0.1253084E+00
         -1   -1    0    0    0  501 -0.00000000000E+00  0.00000000000E+00  0.28414562350E+03  0.28414562350E+03  0.00000000000E+00 0.  1.
          1   -1    0    0  502    0  0.00000000000E+00 -0.00000000000E+00 -0.74475786834E+02  0.74475786834E+02  0.00000000000E+00 0. -1.
         23    2    1    2    0    0  0.22292264046E+02 -0.58202121557E+02  0.17219857521E+03  0.20448296227E+03  0.90975274482E+02 0.  0.
         23    2    1    2    0    0 -0.40582978411E+02  0.72888357410E+02  0.23687952977E+02  0.12693154915E+03  0.92686613229E+02 0.  0.
        -11    1    3    3    0    0  0.56014952395E+02 -0.33258942200E+02  0.79833246396E+02  0.10303969797E+03  0.00000000000E+00 0. -1.
         11    1    3    3    0    0 -0.33722688349E+02 -0.24943179357E+02  0.92365328810E+02  0.10144326430E+03  0.00000000000E+00 0.  1.
        -13    1    4    4    0    0 -0.19040669179E+02  0.78139167138E+01  0.49560287455E+02  0.53664014664E+02  0.00000000000E+00 0.  1.
         13    1    4    4    0    0 -0.21542309232E+02  0.65074440696E+02 -0.25872334478E+02  0.73267534490E+02  0.00000000000E+00 0. -1.
         21    1    1    2  502  501  0.18290714365E+02 -0.14686235853E+02  0.13783308488E+02  0.27206898911E+02  0.00000000000E+00 0.  1.
<scales pt_clust_5="13000.00000" pt_clust_6="13000.00000" pt_clust_7="13000.00000" pt_clust_8="13000.00000" pt_clust_9="23.45710"></scales>
<clustering>
<clus scale="   23.457">  2  9  1 -1</clus>
<clus scale="   90.975">  5  6 -1 -1</clus>
<clus scale="   92.687">  7  8 -1 -1</clus>
<clus scale="  113.109">  1  5  2 -1</clus>
<clus scale="   23.457">  2  5  1 -1</clus>
</clustering>
</event>
<event>
 9    1  0.9000149E-006  0.1066796E+03  0.7546771E-02  0.1267157E+00
          3   -1    0    0  502    0  0.00000000000E+00  0.00000000000E+00  0.82480187061E+02  0.82480187061E+02  0.00000000000E+00 0. -1.
         -3   -1    0    0    0  501 -0.00000000000E+00 -0.00000000000E+00 -0.32755507208E+03  0.32755507208E+03  0.00000000000E+00 0.  1.
         23    2    1    2    0    0  0.26397390332E+02  0.26144582085E+02 -0.11967622116E+03  0.15392892787E+03  0.89394382009E+02 0.  0.
         23    2    1    2    0    0 -0.80401480905E+02 -0.29564555286E+02 -0.15151624954E+03  0.19602083970E+03  0.90158386529E+02 0.  0.
        -11    1    3    3    0    0 -0.23862733717E+02  0.21512196973E+02 -0.10752870165E+02  0.33879623608E+02  0.00000000000E+00 0.  1.
         11    1    3    3    0    0  0.50260124049E+02  0.46323851121E+01 -0.10892335100E+03  0.12004930426E+03  0.00000000000E+00 0. -1.
        -13    1    4    4    0    0 -0.35108149957E+02  0.15327791746E+02 -0.11782590351E+03  0.12389700130E+03  0.00000000000E+00 0.  1.
         13    1    4    4    0    0 -0.45293330948E+02 -0.44892347032E+02 -0.33690346035E+02  0.72123838406E+02  0.00000000000E+00 0. -1.
         21    1    1    2  502  501  0.54004090573E+02  0.34199732011E+01  0.26117585683E+02  0.60085491571E+02  0.00000000000E+00 0. -1.
<scales pt_clust_5="13000.00000" pt_clust_6="13000.00000" pt_clust_7="13000.00000" pt_clust_8="13000.00000" pt_clust_9="54.11227"></scales>
<clustering>
<clus scale="   54.112">  1  9  2 -1</clus>
<clus scale="   89.394">  5  6 -1 -1</clus>
<clus scale="   90.158">  7  8 -1 -1</clus>
<clus scale="  106.035">  2  5  1 -1</clus>
<clus scale="   54.112">  1  5  2 -1</clus>
</clustering>
</event>
<event>
 9    1  0.9000149E-006  0.1123318E+03  0.7546771E-02  0.1257457E+00
         -1   -1    0    0    0  501 -0.00000000000E+00  0.00000000000E+00  0.29622128787E+03  0.29622128787E+03  0.00000000000E+00 0.  1.
          1   -1    0    0  502    0  0.00000000000E+00 -0.00000000000E+00 -0.57050334547E+02  0.57050334547E+02  0.00000000000E+00 0. -1.
         23    2    1    2    0    0 -0.46266257158E+02 -0.50576073163E+02  0.16851178716E+03  0.20269356282E+03  0.89386532918E+02 0.  0.
         23    2    1    2    0    0  0.23669704447E+02  0.52150596602E+02  0.66705735799E+02  0.12758430110E+03  0.92456254862E+02 0.  0.
        -13    1    4    4    0    0 -0.24865291649E+01  0.71214379368E+02  0.26630940114E+02  0.76071529677E+02  0.00000000000E+00 0.  1.
         13    1    4    4    0    0  0.26156233612E+02 -0.19063782766E+02  0.40074795685E+02  0.51512771420E+02  0.00000000000E+00 0. -1.
        -13    1    3    3    0    0 -0.69831440712E+02 -0.36168735360E+02  0.90280621066E+02  0.11972968750E+03  0.00000000000E+00 0.  1.
         13    1    3    3    0    0  0.23565183554E+02 -0.14407337803E+02  0.78231166096E+02  0.82963875315E+02  0.00000000000E+00 0. -1.
         21    1    1    2  502  501  0.22596552710E+02 -0.15745234388E+01  0.39534303616E+01  0.22993758503E+02  0.00000000000E+00 0. -1.
<scales pt_clust_5="13000.00000" pt_clust_6="13000.00000" pt_clust_7="13000.00000" pt_clust_8="13000.00000" pt_clust_9="22.65134"></scales>
<clustering>
<clus scale="   22.651">  2  9  1 -1</clus>
<clus scale="   89.387">  7  8 -1 -1</clus>
<clus scale="   92.456">  5  6 -1 -1</clus>
<clus scale="  109.819">  1  7  2 -1</clus>
<clus scale="   22.651">  2  5  1 -1</clus>
</clustering>
</event>
<event>
 9    1  0.9000149E-006  0.9665953E+02  0.7546771E-02  0.1288479E+00
         -4   -1    0    0    0  501 -0.00000000000E+00  0.00000000000E+00  0.47202027366E+03  0.47202027366E+03  0.00000000000E+00 0.  1.
          4   -1    0    0  502    0  0.00000000000E+00 -0.00000000000E+00 -0.35411092374E+02  0.35411092374E+02  0.00000000000E+00 0. -1.
         23    2    1    2    0    0 -0.21996023629E+02 -0.23733728321E+02  0.28598673852E+03  0.30190402720E+03  0.91162010257E+02 0.  0.
         23    2    1    2    0    0  0.25282765256E+02 -0.16351696821E+02  0.90772797306E+02  0.13341892018E+03  0.93028551117E+02 0.  0.
        -11    1    4    4    0    0 -0.69697182832E+01  0.35536302085E+02  0.40221758328E+02  0.54122043401E+02  0.00000000000E+00 0.  1.
         11    1    4    4    0    0  0.32252483539E+02 -0.51887998907E+02  0.50551038977E+02  0.79296876778E+02  0.00000000000E+00 0. -1.
        -13    1    3    3    0    0  0.15132082817E+01  0.30435243418E+02  0.15853729053E+03  0.16143935806E+03  0.00000000000E+00 0.  1.
         13    1    3    3    0    0 -0.23509231910E+02 -0.54168971739E+02  0.12744944799E+03  0.14046466914E+03  0.00000000000E+00 0. -1.
         21    1    1    2  502  501 -0.32867416274E+01  0.40085425142E+02  0.59849645458E+02  0.72108418654E+02  0.00000000000E+00 0.  1.
<scales pt_clust_5="13000.00000" pt_clust_6="13000.00000" pt_clust_7="13000.00000" pt_clust_8="13000.00000" pt_clust_9="40.21995"></scales>
<clustering>
<clus scale="   40.220">  2  9  1 -1</clus>
<clus scale="   91.162">  7  8 -1 -1</clus>
<clus scale="   93.029">  5  6 -1 -1</clus>
<clus scale="   94.864">  1  7  2 -1</clus>
<clus scale="   40.220">  2  5  1 -1</clus>
</clustering>
</event>
<event>
 9    1  0.9000149E-006  0.1649962E+03  0.7546771E-02  0.1186201E+00
          1   -1    0    0  502    0  0.00000000000E+00  0.00000000000E+00  0.37391644136E+03  0.37391644136E+03  0.00000000000E+00 0. -1.
         -1   -1    0    0    0  501 -0.00000000000E+00 -0.00000000000E+00 -0.14439845605E+03  0.14439845605E+03  0.00000000000E+00 0.  1.
         23    2    1    2    0    0 -0.59813688428E+02 -0.94984574753E+02 -0.62073410301E+02  0.16477950003E+03  0.10343804233E+03 0.  0.
         23    2    1    2    0    0  0.48469308879E+02  0.11784889797E+03  0.25090896849E+03  0.30550902858E+03  0.11892358646E+03 0.  0.
        -11    1    3    3    0    0 -0.25942420251E+02  0.18660652212E+02 -0.24545672806E+01  0.32050803578E+02  0.00000000000E+00 0. -1.
         11    1    3    3    0    0 -0.33871268177E+02 -0.11364522696E+03 -0.59618843021E+02  0.13272869646E+03  0.00000000000E+00 0.  1.
        -11    1    4    4    0    0 -0.16360531637E+02  0.90561858752E+02  0.19511509060E+03  0.21572903336E+03  0.00000000000E+00 0. -1.
         11    1    4    4    0    0  0.64829840516E+02  0.27287039217E+02  0.55793877898E+02  0.89779995219E+02  0.00000000000E+00 0.  1.
         21    1    1    2  502  501  0.11344379548E+02 -0.22864323215E+02  0.40682427118E+02  0.48026368795E+02  0.00000000000E+00 0. -1.
<scales pt_clust_5="13000.00000" pt_clust_6="13000.00000" pt_clust_7="13000.00000" pt_clust_8="13000.00000" pt_clust_9="25.52395"></scales>
<clustering>
<clus scale="   25.524">  1  9  2 -1</clus>
<clus scale="  103.438">  5  6 -1 -1</clus>
<clus scale="  118.924">  7  8 -1 -1</clus>
<clus scale="  154.209">  2  5  1 -1</clus>
<clus scale="   25.524">  1  5  2 -1</clus>
</clustering>
</event>
<event>
 9    1  0.9000149E-006  0.1714037E+03  0.7546771E-02  0.1176428E+00
         -1   -1    0    0    0  501 -0.00000000000E+00  0.00000000000E+00  0.25234844943E+03  0.25234844943E+03  0.00000000000E+00 0.  1.
          1   -1    0    0  502    0  0.00000000000E+00 -0.00000000000E+00 -0.70891970304E+03  0.70891970304E+03  0.00000000000E+00 0. -1.
         23    2    1    2    0    0  0.10384170121E+03 -0.10875800974E+03  0.19659717669E+03  0.26418589316E+03  0.92370626640E+02 0.  0.
         23    2    1    2    0    0 -0.57686719930E+01  0.10802226491E+03 -0.32811627996E+03  0.35755647116E+03  0.92109986440E+02 0.  0.
        -11    1    3    3    0    0  0.44847577468E+02 -0.83055112857E+02  0.17022118797E+03  0.19463994917E+03  0.00000000000E+00 0.  1.
         11    1    3    3    0    0  0.58994123743E+02 -0.25702896887E+02  0.26375988719E+02  0.69545943990E+02  0.00000000000E+00 0. -1.
        -11    1    4    4    0    0  0.31386870927E+02  0.26136238173E+02 -0.17750717229E+03  0.18214564180E+03  0.00000000000E+00 0.  1.
         11    1    4    4    0    0 -0.37155542920E+02  0.81886026732E+02 -0.15060910767E+03  0.17541082936E+03  0.00000000000E+00 0. -1.
         21    1    1    2  502  501 -0.98073029219E+02  0.73574483841E+00 -0.32505215033E+03  0.33952578815E+03  0.00000000000E+00 0. -1.
<scales pt_clust_5="13000.00000" pt_clust_6="13000.00000" pt_clust_7="13000.00000" pt_clust_8="13000.00000" pt_clust_9="98.07579"></scales>
<clustering>
<clus scale="   92.110">  7  8 -1 -1</clus>
<clus scale="   92.371">  5  6 -1 -1</clus>
<clus scale="   98.076">  2  9  1 -1</clus>
<clus scale="  171.263">  2  7  1 -1</clus>
<clus scale="   98.076">  2  5  1 -1</clus>
</clustering>
</event>
<event>
 9    1  0.9000149E-006  0.1192906E+03  0.7546771E-02  0.1244660E+00
          4   -1    0    0  502    0  0.00000000000E+00  0.00000000000E+00  0.34058078676E+03  0.34058078676E+03  0.00000000000E+00 0. -1.
         -4   -1    0    0    0  501 -0.00000000000E+00 -0.00000000000E+00 -0.98140082555E+02  0.98140082555E+02  0.00000000000E+00 0.  1.
         23    2    1    2    0    0  0.82168240511E+02  0.79279524694E+00 -0.34852259549E+02  0.12765228739E+03  0.91258852764E+02 0.  0.
         23    2    1    2    0    0 -0.43527222595E+02 -0.25923579814E+01  0.20513928669E+03  0.22919966349E+03  0.92460907270E+02 0.  0.
        -11    1    3    3    0    0  0.18345982340E+02  0.17008741078E+02  0.27351941126E+02  0.37067519804E+02  0.00000000000E+00 0. -1.
         11    1    3    3    0    0  0.63822258172E+02 -0.16215945831E+02 -0.62204200675E+02  0.90584767588E+02  0.00000000000E+00 0.  1.
        -11    1    4    4    0    0  0.12776767079E+02 -0.30135584595E+02  0.11386155451E+03  0.11847300465E+03  0.00000000000E+00 0.  1.
         11    1    4    4    0    0 -0.56303989673E+02  0.27543226613E+02  0.91277732186E+02  0.11072665884E+03  0.00000000000E+00 0. -1.
         21    1    1    2  502  501 -0.38641017917E+02  0.17995627345E+01  0.72153677065E+02  0.81868918434E+02  0.00000000000E+00 0. -1.
<scales pt_clust_5="13000.00000" pt_clust_6="13000.00000" pt_clust_7="13000.00000" pt_clust_8="13000.00000" pt_clust_9="38.68290"></scales>
<clustering>
<clus scale="   38.683">  1  9  2 -1</clus>
<clus scale="   91.259">  5  6 -1 -1</clus>
<clus scale="   92.461">  7  8 -1 -1</clus>
<clus scale="  118.361">  2  5  1 -1</clus>
<clus scale="   38.683">  1  5  2 -1</clus>
</clustering>
</event>
<event>
 9    1  0.9000149E-006  0.9290437E+02  0.7546771E-02  0.1297152E+00
          2   -1    0    0  502    0  0.00000000000E+00  0.00000000000E+00  0.48839286301E+02  0.48839286301E+02  0.00000000000E+00 0. -1.
         -2   -1    0    0    0  501 -0.00000000000E+00 -0.00000000000E+00 -0.34517821988E+03  0.34517821988E+03  0.00000000000E+00 0.  1.
         23    2    1    2    0    0  0.30490895258E+01 -0.13959418065E+02 -0.22321590588E+03  0.24163285490E+03  0.91416265678E+02 0.  0.
         23    2    1    2    0    0 -0.34336075164E+02  0.57510285384E+01 -0.72165557132E+02  0.12002464698E+03  0.89364466421E+02 0.  0.
        -13    1    4    4    0    0 -0.45338002871E+02 -0.18158021825E+02 -0.78959347860E+02  0.92843022761E+02  0.00000000000E+00 0.  1.
         13    1    4    4    0    0  0.11001927707E+02  0.23909050363E+02  0.67937907279E+01  0.27181624216E+02  0.00000000000E+00 0. -1.
        -13    1    3    3    0    0  0.11564008444E+00  0.38072201041E+02 -0.12178268712E+03  0.12759517525E+03  0.00000000000E+00 0. -1.
         13    1    3    3    0    0  0.29334494414E+01 -0.52031619106E+02 -0.10143321875E+03  0.11403767965E+03  0.00000000000E+00 0.  1.
         21    1    1    2  502  501  0.31286985639E+02  0.82083895262E+01 -0.95747057284E+00  0.32360004309E+02  0.00000000000E+00 0. -1.
<scales pt_clust_5="13000.00000" pt_clust_6="13000.00000" pt_clust_7="13000.00000" pt_clust_8="13000.00000" pt_clust_9="32.34584"></scales>
<clustering>
<clus scale="   32.346">  1  9  2 -1</clus>
<clus scale="   89.364">  5  6 -1 -1</clus>
<clus scale="   90.886">  1  5  2 -1</clus>
<clus scale="   91.416">  7  8 -1 -1</clus>
<clus scale="   32.346">  1  5  2 -1</clus>
</clustering>
</event>
<event>
 9    1  0.9000149E-006  0.2060673E+03  0.7546771E-02  0.1166387E+00
         -2   -1    0    0    0  501 -0.00000000000E+00  0.00000000000E+00  0.15347827265E+03  0.15347827265E+03  0.00000000000E+00 0.  1.
          2   -1    0    0  502    0  0.00000000000E+00 -0.00000000000E+00 -0.49396584742E+03  0.49396584742E+03  0.00000000000E+00 0. -1.
         23    2    1    2    0    0  0.12684964765E+03  0.18586525201E+03 -0.86877149213E+02  0.25837759028E+03  0.92599217546E+02 0.  0.
         23    2    1    2    0    0 -0.89530775814E+01 -0.83066659163E+02 -0.17379327766E+03  0.21345921494E+03  0.91545101570E+02 0.  0.
        -11    1    3    3    0    0  0.14044965857E+03  0.15311691487E+03 -0.71602553582E+02  0.21976765433E+03  0.00000000000E+00 0. -1.
         11    1    3    3    0    0 -0.13600010915E+02  0.32748337141E+02 -0.15274595630E+02  0.38609935950E+02  0.00000000000E+00 0.  1.
        -13    1    4    4    0    0  0.28174553548E+02  0.62744077559E+00 -0.67632656693E+02  0.73269198173E+02  0.00000000000E+00 0. -1.
         13    1    4    4    0    0 -0.37127631129E+02 -0.83694099939E+02 -0.10616062097E+03  0.14019001677E+03  0.00000000000E+00 0.  1.
         21    1    1    2  502  501 -0.11789657007E+03 -0.10279859285E+03 -0.79817147895E+02  0.17560731484E+03  0.00000000000E+00 0.  1.
<scales pt_clust_5="13000.00000" pt_clust_6="13000.00000" pt_clust_7="13000.00000" pt_clust_8="13000.00000" pt_clust_9="184.08994"></scales>
<clustering>
<clus scale="   91.545">  7  8 -1 -1</clus>
<clus scale="   92.599">  5  6 -1 -1</clus>
<clus scale="  123.938">  2  7  1 -1</clus>
<clus scale="  184.090">  1  9  2 -1</clus>
<clus scale="  123.938">  2  5  1 -1</clus>
</clustering>
</event>
<event>
 9    1  0.9000149E-006  0.1004125E+03  0.7546771E-02  0.1280430E+00
         -1   -1    0    0    0  501 -0.00000000000E+00  0.00000000000E+00  0.46209038720E+02  0.46209038720E+02  0.00000000000E+00 0.  1.
          1   -1    0    0  502    0  0.00000000000E+00 -0.00000000000E+00 -0.34157418233E+03  0.34157418233E+03  0.00000000000E+00 0. -1.
         23    2    1    2    0    0 -0.32522563906E+02  0.34132920840E+02 -0.53601458662E+02  0.11523628955E+03  0.90462769195E+02 0.  0.
         23    2    1    2    0    0  0.23484321230E+02 -0.64016369765E+01 -0.16977676915E+03  0.19487563705E+03  0.92519556167E+02 0.  0.
        -11    1    4    4    0    0 -0.12257405363E+02  0.30909067575E+02 -0.11441752517E+03  0.11915109950E+03  0.00000000000E+00 0.  1.
         11    1    4    4    0    0  0.35741726594E+02 -0.37310704551E+02 -0.55359243977E+02  0.75724537554E+02  0.00000000000E+00 0. -1.
        -13    1    3    3    0    0  0.70205151429E+00  0.43404298320E+02  0.84660084917E+01  0.44227811259E+02  0.00000000000E+00 0.  1.
         13    1    3    3    0    0 -0.33224615420E+02 -0.92713774805E+01 -0.62067467153E+02  0.71008478290E+02  0.00000000000E+00 0. -1.
         21    1    1    2  502  501  0.90382426757E+01 -0.27731283863E+02 -0.71986915797E+02  0.77671294448E+02  0.00000000000E+00 0.  1.
<scales pt_clust_5="13000.00000" pt_clust_6="13000.00000" pt_clust_7="13000.00000" pt_clust_8="13000.00000" pt_clust_9="29.16700"></scales>
<clustering>
<clus scale="   29.167">  2  9  1 -1</clus>
<clus scale="   90.463">  7  8 -1 -1</clus>
<clus scale="   92.520">  5  6 -1 -1</clus>
<clus scale="   98.521">  1  7  2 -1</clus>
<clus scale="   29.167">  2  5  1 -1</clus>
</clustering>
</event>
<event>
 9    1  0.9000149E-006  0.9767354E+02  0.7546771E-02  0.1295659E+00
         -3   -1    0    0    0  501 -0.00000000000E+00  0.00000000000E+00  0.48947974429E+02  0.48947974429E+02  0.00000000000E+00 0.  1.
          3   -1    0    0  502    0  0.00000000000E+00 -0.00000000000E+00 -0.40194997437E+03  0.40194997437E+03  0.00000000000E+00 0. -1.
         23    2    1    2    0    0  0.19029555113E+02  0.15438338013E+02 -0.20613681022E+02  0.10105253609E+03  0.95844796190E+02 0.  0.
         23    2    1    2    0    0 -0.81798027010E+00  0.67071209685E+00 -0.19100774679E+03  0.20638939460E+03  0.78176108412E+02 0.  0.
        -11    1    4    4    0    0  0.37444799868E+01  0.38930094943E+02 -0.84065300378E+02  0.92717571960E+02  0.00000000000E+00 0.  1.
         11    1    4    4    0    0 -0.45624602569E+01 -0.38259382846E+02 -0.10694244641E+03  0.11367182264E+03  0.00000000000E+00 0. -1.
        -11    1    3    3    0    0  0.40497956664E+02  0.69934483277E+01 -0.49337135726E+02  0.64211726150E+02  0.00000000000E+00 0. -1.
         11    1    3    3    0    0 -0.21468401552E+02  0.84448896851E+01  0.28723454704E+02  0.36840809941E+02  0.00000000000E+00 0.  1.
         21    1    1    2  502  501 -0.18211574843E+02 -0.16109050110E+02 -0.14138057213E+03  0.14345601810E+03  0.00000000000E+00 0.  1.
<scales pt_clust_5="13000.00000" pt_clust_6="13000.00000" pt_clust_7="13000.00000" pt_clust_8="13000.00000" pt_clust_9="24.31384"></scales>
<clustering>
<clus scale="   24.314">  2  9  1 -1</clus>
<clus scale="   78.176">  5  6 -1 -1</clus>
<clus scale="   80.408">  2  5  1 -1</clus>
<clus scale="   95.845">  7  8 -1 -1</clus>
<clus scale="   24.314">  2  5  1 -1</clus>
</clustering>
</event>
<event>
 9    1  0.9000149E-006  0.1000410E+03  0.7546771E-02  0.1281450E+00
         -2   -1    0    0    0  501 -0.00000000000E+00  0.00000000000E+00  0.58461970835E+02  0.58461970835E+02  0.00000000000E+00 0.  1.
          2   -1    0    0  502    0  0.00000000000E+00 -0.00000000000E+00 -0.30993433317E+03  0.30993433317E+03  0.00000000000E+00 0. -1.
         23    2    1    2    0    0  0.17130154856E+02 -0.41738580161E+02 -0.34488696665E+02  0.10821417857E+03  0.92115617387E+02 0.  0.
         23    2    1    2    0    0 -0.40480753042E+02  0.65805008229E+01 -0.12650310369E+03  0.16034188769E+03  0.89579525253E+02 0.  0.
        -13    1    3    3    0    0  0.11005102542E+02  0.28607978131E+02 -0.18540509138E+02  0.35822886173E+02  0.00000000000E+00 0.  1.
         13    1    3    3    0    0  0.61250523135E+01 -0.70346558292E+02 -0.15948187527E+02  0.72391292396E+02  0.00000000000E+00 0. -1.
        -13    1    4    4    0    0 -0.22693385386E+02  0.45683683500E+02 -0.92191318723E+02  0.10536236485E+03  0.00000000000E+00 0.  1.
         13    1    4    4    0    0 -0.17787367656E+02 -0.39103182677E+02 -0.34311784972E+02  0.54979522839E+02  0.00000000000E+00 0. -1.
         21    1    1    2  502  501  0.23350598186E+02  0.35158079338E+02 -0.90480561975E+02  0.99840237749E+02  0.00000000000E+00 0.  1.
<scales pt_clust_5="13000.00000" pt_clust_6="13000.00000" pt_clust_7="13000.00000" pt_clust_8="13000.00000" pt_clust_9="42.20594"></scales>
<clustering>
<clus scale="   42.206">  2  9  1 -1</clus>
<clus scale="   89.580">  7  8 -1 -1</clus>
<clus scale="   92.116">  5  6 -1 -1</clus>
<clus scale="   97.711">  2  7  1 -1</clus>
<clus scale="   42.206">  2  5  1 -1</clus>
</clustering>
</event>
<event>
 9    1  0.9000149E-006  0.9638365E+02  0.7546771E-02  0.1289953E+00
          1   -1    0    0  502    0  0.00000000000E+00  0.00000000000E+00  0.21812370111E+03  0.21812370111E+03  0.00000000000E+00 0. -1.
         -1   -1    0    0    0  501 -0.00000000000E+00 -0.00000000000E+00 -0.77527793661E+02  0.77527793661E+02  0.00000000000E+00 0.  1.
         23    2    1    2    0    0  0.75974631588E+00  0.25299553356E+02 -0.66715658380E+01  0.98426617543E+02  0.94882267236E+02 0.  0.
         23    2    1    2    0    0  0.15647640158E+02  0.82174548775E+01  0.11378925827E+03  0.14709122533E+03  0.91517528727E+02 0.  0.
        -11    1    4    4    0    0 -0.37459707809E+02 -0.66554508228E+01  0.45317251437E+02  0.59170753017E+02  0.00000000000E+00 0.  1.
         11    1    4    4    0    0  0.53107347967E+02  0.14872905700E+02  0.68472006833E+02  0.87920472313E+02  0.00000000000E+00 0. -1.
        -11    1    3    3    0    0  0.20633730778E+02 -0.94000441648E+01  0.34337694871E+02  0.41148377431E+02  0.00000000000E+00 0. -1.
         11    1    3    3    0    0 -0.19873984462E+02  0.34699597521E+02 -0.41009260709E+02  0.57278240112E+02  0.00000000000E+00 0.  1.
         21    1    1    2  502  501 -0.16407386473E+02 -0.33517008233E+02  0.33478215013E+02  0.50133651894E+02  0.00000000000E+00 0.  1.
<scales pt_clust_5="13000.00000" pt_clust_6="13000.00000" pt_clust_7="13000.00000" pt_clust_8="13000.00000" pt_clust_9="37.31745"></scales>
<clustering>
<clus scale="   37.317">  1  9  2 -1</clus>
<clus scale="   91.518">  5  6 -1 -1</clus>
<clus scale="   93.073">  1  5  2 -1</clus>
<clus scale="   94.882">  7  8 -1 -1</clus>
<clus scale="   37.317">  1  5  2 -1</clus>
</clustering>
</event>
<event>
 9    1  0.9000149E-006  0.3102946E+03  0.7546771E-02  0.1123733E+00
          1   -1    0    0  502    0  0.00000000000E+00  0.00000000000E+00  0.55810030330E+03  0.55810030330E+03  0.00000000000E+00 0. -1.
         -1   -1    0    0    0  501 -0.00000000000E+00 -0.00000000000E+00 -0.40040432339E+03  0.40040432339E+03  0.00000000000E+00 0.  1.
         23    2    1    2    0    0  0.28282509079E+03  0.10652205242E+03 -0.25145746888E+03  0.40372129212E+03  0.91777139973E+02 0.  0.
         23    2    1    2    0    0 -0.27866042901E+02 -0.26450785529E+02  0.68243064224E+02  0.12161429805E+03  0.93041717925E+02 0.  0.
        -11    1    4    4    0    0  0.20444990558E+02 -0.32712490806E+02  0.10121486056E+01  0.38589236044E+02  0.00000000000E+00 0.  1.
         11    1    4    4    0    0 -0.48311033460E+02  0.62617052769E+01  0.67230915618E+02  0.83025062010E+02  0.00000000000E+00 0. -1.
        -13    1    3    3    0    0  0.18544813619E+03  0.10391657013E+03 -0.13469057970E+03  0.25165694313E+03  0.00000000000E+00 0.  1.
         13    1    3    3    0    0  0.97376954602E+02  0.26054822895E+01 -0.11676688918E+03  0.15206434899E+03  0.00000000000E+00 0. -1.
         21    1    1    2  502  501 -0.25495904789E+03 -0.80071266892E+02  0.34091038457E+03  0.43316903651E+03  0.00000000000E+00 0. -1.
<scales pt_clust_5="13000.00000" pt_clust_6="13000.00000" pt_clust_7="13000.00000" pt_clust_8="13000.00000" pt_clust_9="296.41140"></scales>
<clustering>
<clus scale="   91.777">  7  8 -1 -1</clus>
<clus scale="   93.042">  5  6 -1 -1</clus>
<clus scale="  100.662">  1  5  2 -1</clus>
<clus scale="  296.411">  1  9  2 -1</clus>
<clus scale="  100.662">  1  5  2 -1</clus>
</clustering>
</event>
<event>
 9    1  0.9000149E-006  0.1163270E+03  0.7546771E-02  0.1249684E+00
         -1   -1    0    0    0  501 -0.00000000000E+00  0.00000000000E+00  0.24063165264E+03  0.24063165264E+03  0.00000000000E+00 0.  1.
          1   -1    0    0  502    0  0.00000000000E+00 -0.00000000000E+00 -0.14210602113E+03  0.14210602113E+03  0.00000000000E+00 0. -1.
         23    2    1    2    0    0 -0.16688563934E+02 -0.75708832442E+02  0.15596233444E+03  0.19636798277E+03  0.90696192953E+02 0.  0.
         23    2    1    2    0    0 -0.12058343633E+02  0.58907391948E+02  0.10909296321E+02  0.11034437475E+03  0.91877003731E+02 0.  0.
        -11    1    3    3    0    0  0.30014674913E+01 -0.92525525973E+02  0.13093697511E+03  0.16035732979E+03  0.00000000000E+00 0.  1.
         11    1    3    3    0    0 -0.19690031425E+02  0.16816693531E+02  0.25025359330E+02  0.36010652986E+02  0.00000000000E+00 0. -1.
        -11    1    4    4    0    0 -0.22243893045E+02 -0.15502911786E+02 -0.14889553814E+02  0.30932666623E+02  0.00000000000E+00 0.  1.
         11    1    4    4    0    0  0.10185549412E+02  0.74410303734E+02  0.25798850135E+02  0.79411708122E+02  0.00000000000E+00 0. -1.
         21    1    1    2  502  501  0.28746907567E+02  0.16801440494E+02 -0.68345999253E+02  0.76025316252E+02  0.00000000000E+00 0. -1.
<scales pt_clust_5="13000.00000" pt_clust_6="13000.00000" pt_clust_7="13000.00000" pt_clust_8="13000.00000" pt_clust_9="33.29674"></scales>
<clustering>
<clus scale="   33.297">  2  9  1 -1</clus>
<clus scale="   90.696">  5  6 -1 -1</clus>
<clus scale="   91.877">  7  8 -1 -1</clus>
<clus scale="  115.397">  1  5  2 -1</clus>
<clus scale="   33.297">  2  5  1 -1</clus>
</clustering>
</event>
<event>
 9    1  0.9000149E-006  0.1314963E+03  0.7546771E-02  0.1225305E+00
         -2   -1    0    0    0  501 -0.00000000000E+00  0.00000000000E+00  0.10227769209E+03  0.10227769209E+03  0.00000000000E+00 0.  1.
          2   -1    0    0  502    0  0.00000000000E+00 -0.00000000000E+00 -0.42048529473E+03  0.42048529473E+03  0.00000000000E+00 0. -1.
         23    2    1    2    0    0  0.54149182246E+02 -0.51823999625E+02 -0.19545318879E+02  0.11983678185E+03  0.91438361312E+02 0.  0.
         23    2    1    2    0    0 -0.13227957484E+03  0.88482271850E+02 -0.19138519843E+03  0.26524338030E+03  0.91644739420E+02 0.  0.
        -11    1    4    4    0    0 -0.66217082996E+02  0.91088102630E+02 -0.14876796088E+03  0.18658416521E+03  0.00000000000E+00 0. -1.
         11    1    4    4    0    0 -0.66062491843E+02 -0.26058307802E+01 -0.42617237546E+02  0.78659215091E+02  0.00000000000E+00 0.  1.
        -13    1    3    3    0    0  0.38882845497E+02  0.20372645030E+02 -0.17665677707E+01  0.43932233054E+02  0.00000000000E+00 0.  1.
         13    1    3    3    0    0  0.15266336749E+02 -0.72196644655E+02 -0.17778751109E+02  0.75904548798E+02  0.00000000000E+00 0. -1.
         21    1    1    2  502  501  0.78130392594E+02 -0.36658272224E+02 -0.10727708534E+03  0.13768282467E+03  0.00000000000E+00 0.  1.
<scales pt_clust_5="13000.00000" pt_clust_6="13000.00000" pt_clust_7="13000.00000" pt_clust_8="13000.00000" pt_clust_9="86.30288"></scales>
<clustering>
<clus scale="   86.303">  2  9  1 -1</clus>
<clus scale="   91.438">  7  8 -1 -1</clus>
<clus scale="   91.645">  5  6 -1 -1</clus>
<clus scale="  131.353">  1  7  2 -1</clus>
<clus scale="   86.303">  2  5  1 -1</clus>
</clustering>
</event>
<event>
 9    1  0.9000149E-006  0.9247827E+02  0.7546771E-02  0.1297074E+00
          3   -1    0    0  502    0  0.00000000000E+00  0.00000000000E+00  0.29883278561E+03  0.29883278561E+03  0.00000000000E+00 0. -1.
         -3   -1    0    0    0  501 -0.00000000000E+00 -0.00000000000E+00 -0.51371144944E+02  0.51371144944E+02  0.00000000000E+00 0.  1.
         23    2    1    2    0    0  0.17647942602E+02  0.82170810011E+01  0.48033832565E+02  0.10494832669E+03  0.91257503280E+02 0.  0.
         23    2    1    2    0    0 -0.69199027629E+01  0.29774145284E+02  0.10186290497E+03  0.14000668731E+03  0.91057324260E+02 0.  0.
        -13    1    3    3    0    0  0.35714729149E+02 -0.32567600727E+02  0.20311125988E+02  0.52428354296E+02  0.00000000000E+00 0.  1.
         13    1    3    3    0    0 -0.18066786546E+02  0.40784681728E+02  0.27722706578E+02  0.52519972390E+02  0.00000000000E+00 0. -1.
        -13    1    4    4    0    0 -0.29316910834E+02 -0.14650818146E+02  0.78451543486E+02  0.85022187742E+02  0.00000000000E+00 0.  1.
         13    1    4    4    0    0  0.22397008071E+02  0.44424963429E+02  0.23411361481E+02  0.54984499567E+02  0.00000000000E+00 0. -1.
         21    1    1    2  502  501 -0.10728039839E+02 -0.37991226285E+02  0.97564903132E+02  0.10524891656E+03  0.00000000000E+00 0.  1.
<scales pt_clust_5="13000.00000" pt_clust_6="13000.00000" pt_clust_7="13000.00000" pt_clust_8="13000.00000" pt_clust_9="39.47688"></scales>
<clustering>
<clus scale="   39.477">  1  9  2 -1</clus>
<clus scale="   91.057">  7  8 -1 -1</clus>
<clus scale="   91.258">  5  6 -1 -1</clus>
<clus scale="   92.281">  1  7  2 -1</clus>
<clus scale="   39.477">  1  5  2 -1</clus>
</clustering>
</event>
<event>
 9    1  0.9000149E-006  0.9786282E+02  0.7546771E-02  0.1285816E+00
          2   -1    0    0  502    0  0.00000000000E+00  0.00000000000E+00  0.65563195680E+03  0.65563195680E+03  0.00000000000E+00 0. -1.
         -2   -1    0    0    0  501 -0.00000000000E+00 -0.00000000000E+00 -0.19372443229E+02  0.19372443229E+02  0.00000000000E+00 0.  1.
         23    2    1    2    0    0  0.21937102138E+02  0.10830842696E+02  0.23834478256E+03  0.25634598629E+03  0.91139923800E+02 0.  0.
         23    2    1    2    0    0 -0.38268361574E+02 -0.30892922164E+02  0.28074390338E+03  0.29866591433E+03  0.89248803679E+02 0.  0.
        -11    1    3    3    0    0  0.21278888800E+02  0.50441853773E+02  0.13937654220E+03  0.14974308744E+03  0.00000000000E+00 0. -1.
         11    1    3    3    0    0  0.65821333809E+00 -0.39611011077E+02  0.98968240357E+02  0.10660289885E+03  0.00000000000E+00 0.  1.
        -11    1    4    4    0    0  0.26458949564E+02 -0.61470644013E+01  0.12927720963E+03  0.13210018676E+03  0.00000000000E+00 0. -1.
         11    1    4    4    0    0 -0.64727311138E+02 -0.24745857763E+02  0.15146669375E+03  0.16656572756E+03  0.00000000000E+00 0.  1.
         21    1    1    2  502  501  0.16331259437E+02  0.20062079468E+02  0.11717082763E+03  0.11999249941E+03  0.00000000000E+00 0. -1.
<scales pt_clust_5="13000.00000" pt_clust_6="13000.00000" pt_clust_7="13000.00000" pt_clust_8="13000.00000" pt_clust_9="25.86884"></scales>
<clustering>
<clus scale="   25.869">  1  9  2 -1</clus>
<clus scale="   89.249">  7  8 -1 -1</clus>
<clus scale="   91.140">  5  6 -1 -1</clus>
<clus scale="   96.104">  1  7  2 -1</clus>
<clus scale="   25.869">  1  5  2 -1</clus>
</clustering>
</event>
<event>
 9    1  0.9000149E-006  0.1828636E+03  0.7546771E-02  0.1165201E+00
          3   -1    0    0  502    0  0.00000000000E+00  0.00000000000E+00  0.13121086512E+03  0.13121086512E+03  0.00000000000E+00 0. -1.
         -3   -1    0    0    0  501 -0.00000000000E+00 -0.00000000000E+00 -0.43885295917E+03  0.43885295917E+03  0.00000000000E+00 0.  1.
         23    2    1    2    0    0  0.17184062644E+03 -0.13660932987E+02 -0.30587922815E+03  0.36276671502E+03  0.91223710338E+02 0.  0.
         23    2    1    2    0    0 -0.11607990923E+03  0.22706553278E+02  0.63519970749E+01  0.15022757421E+03  0.92400450746E+02 0.  0.
        -11    1    3    3    0    0  0.55469472151E+02  0.48583129643E+01 -0.18807396342E+03  0.19614352210E+03  0.00000000000E+00 0.  1.
         11    1    3    3    0    0  0.11637115429E+03 -0.18519245951E+02 -0.11780526474E+03  0.16662319293E+03  0.00000000000E+00 0. -1.
        -13    1    4    4    0    0  0.49744876964E+01  0.21280765375E+02  0.18397247545E+02  0.28567030298E+02  0.00000000000E+00 0.  1.
         13    1    4    4    0    0 -0.12105439693E+03  0.14257879025E+01 -0.12045250470E+02  0.12166054392E+03  0.00000000000E+00 0. -1.
         21    1    1    2  502  501 -0.55760717206E+02 -0.90456202907E+01 -0.81148629632E+01  0.57069535048E+02  0.00000000000E+00 0. -1.
<scales pt_clust_5="13000.00000" pt_clust_6="13000.00000" pt_clust_7="13000.00000" pt_clust_8="13000.00000" pt_clust_9="56.48965"></scales>
<clustering>
<clus scale="   56.490">  1  9  2 -1</clus>
<clus scale="   91.224">  5  6 -1 -1</clus>
<clus scale="   92.400">  7  8 -1 -1</clus>
<clus scale="  182.272">  2  5  1 -1</clus>
<clus scale="   56.490">  1  5  2 -1</clus>
</clustering>
</event>
<event>
 9    1  0.9000149E-006  0.1317270E+03  0.7546771E-02  0.1225209E+00
         -2   -1    0    0    0  501 -0.00000000000E+00  0.00000000000E+00  0.26980251458E+02  0.26980251458E+02  0.00000000000E+00 0.  1.
          2   -1    0    0  502    0  0.00000000000E+00 -0.00000000000E+00 -0.10088890934E+04  0.10088890934E+04  0.00000000000E+00 0. -1.
         23    2    1    2    0    0  0.53828801487E+02 -0.85221563755E+02 -0.23425314642E+03  0.27164861016E+03  0.93585127004E+02 0.  0.
         23    2    1    2    0    0 -0.61670661928E+02  0.64253382532E+02 -0.69417973127E+03  0.70624799841E+03  0.94704636883E+02 0.  0.
        -11    1    3    3    0    0  0.32857024164E+02 -0.10256073777E+03 -0.20581509896E+03  0.23228892339E+03  0.00000000000E+00 0.  1.
         11    1    3    3    0    0  0.20971777324E+02  0.17339174013E+02 -0.28438047457E+02  0.39359686771E+02  0.00000000000E+00 0. -1.
        -11    1    4    4    0    0 -0.85214183199E+02  0.34317910077E+02 -0.48140963158E+03  0.49009632660E+03  0.00000000000E+00 0. -1.
         11    1    4    4    0    0  0.23543521270E+02  0.29935472455E+02 -0.21277009970E+03  0.21615167182E+03  0.00000000000E+00 0.  1.
         21    1    1    2  502  501  0.78418604407E+01  0.20968181224E+02 -0.53475964206E+02  0.57972736236E+02  0.00000000000E+00 0.  1.
<scales pt_clust_5="13000.00000" pt_clust_6="13000.00000" pt_clust_7="13000.00000" pt_clust_8="13000.00000" pt_clust_9="22.38659"></scales>
<clustering>
<clus scale="   22.387">  1  9  2 -1</clus>
<clus scale="   93.585">  5  6 -1 -1</clus>
<clus scale="   94.705">  7  8 -1 -1</clus>
<clus scale="  130.924">  1  5  2 -1</clus>
<clus scale="  131.727">  2  5  1 -1</clus>
</clustering>
</event>
<event>
 9    1  0.9000149E-006  0.9614217E+02  0.7546771E-02  0.1289882E+00
         -1   -1    0    0    0  501 -0.00000000000E+00  0.00000000000E+00  0.75973197682E+02  0.75973197682E+02  0.00000000000E+00 0.  1.
          1   -1    0    0  502    0  0.00000000000E+00 -0.00000000000E+00 -0.22992458898E+03  0.22992458898E+03  0.00000000000E+00 0. -1.
         23    2    1    2    0    0 -0.22929575078E+02 -0.24353111088E+02  0.10766075191E+01  0.97077229240E+02  0.91126230692E+02 0.  0.
         23    2    1    2    0    0 -0.11617988422E+02  0.93079250694E+01 -0.76320234478E+02  0.12155771348E+03  0.93433850350E+02 0.  0.
        -11    1    4    4    0    0 -0.34371731543E+02 -0.20383729966E+02 -0.40321954307E+01  0.40164299777E+02  0.00000000000E+00 0.  1.
         11    1    4    4    0    0  0.22753743121E+02  0.29691655035E+02 -0.72288039047E+02  0.81393413702E+02  0.00000000000E+00 0. -1.
        -13    1    3    3    0    0 -0.32534983258E+02  0.28172635595E+02  0.60010961830E+01  0.43453833977E+02  0.00000000000E+00 0. -1.
         13    1    3    3    0    0  0.96054081801E+01 -0.52525746682E+02 -0.49244886639E+01  0.53623395262E+02  0.00000000000E+00 0.  1.
         21    1    1    2  502  501  0.34547563500E+02  0.15045186019E+02 -0.78707764341E+02  0.87262843947E+02  0.00000000000E+00 0. -1.
<scales pt_clust_5="13000.00000" pt_clust_6="13000.00000" pt_clust_7="13000.00000" pt_clust_8="13000.00000" pt_clust_9="37.68145"></scales>
<clustering>
<clus scale="   37.681">  2  9  1 -1</clus>
<clus scale="   91.126">  7  8 -1 -1</clus>
<clus scale="   93.434">  5  6 -1 -1</clus>
<clus scale="   93.901">  1  7  2 -1</clus>
<clus scale="   37.681">  2  5  1 -1</clus>
</clustering>
</event>
<event>
 9    1  0.9000149E-006  0.1328575E+03  0.7546771E-02  0.1223290E+00
          1   -1    0    0  502    0  0.00000000000E+00  0.00000000000E+00  0.23280077127E+03  0.23280077127E+03  0.00000000000E+00 0. -1.
         -1   -1    0    0    0  501 -0.00000000000E+00 -0.00000000000E+00 -0.10905416912E+03  0.10905416912E+03  0.00000000000E+00 0.  1.
         23    2    1    2    0    0 -0.60814282619E+02 -0.58261459951E+02  0.30102377664E+02  0.12710752437E+03  0.90318297839E+02 0.  0.
         23    2    1    2    0    0  0.76452469094E+02  0.83103083824E+02  0.34354874408E+02  0.14858937656E+03  0.90263186621E+02 0.  0.
        -11    1    4    4    0    0  0.94658677263E+02  0.51366076749E+02  0.29617010538E+02  0.11169559676E+03  0.00000000000E+00 0.  1.
         11    1    4    4    0    0 -0.18206208169E+02  0.31737007075E+02  0.47378638697E+01  0.36893779802E+02  0.00000000000E+00 0. -1.
        -13    1    3    3    0    0 -0.36442205825E+02  0.19783131719E+02  0.62223620920E+01  0.41929994705E+02  0.00000000000E+00 0. -1.
         13    1    3    3    0    0 -0.24372076794E+02 -0.78044591670E+02  0.23880015572E+02  0.85177529665E+02  0.00000000000E+00 0.  1.
         21    1    1    2  502  501 -0.15638186476E+02 -0.24841623873E+02  0.59289350074E+02  0.66158039459E+02  0.00000000000E+00 0.  1.
<scales pt_clust_5="13000.00000" pt_clust_6="13000.00000" pt_clust_7="13000.00000" pt_clust_8="13000.00000" pt_clust_9="29.35403"></scales>
<clustering>
<clus scale="   29.354">  1  9  2 -1</clus>
<clus scale="   90.263">  5  6 -1 -1</clus>
<clus scale="   90.318">  7  8 -1 -1</clus>
<clus scale="  132.820">  1  5  2 -1</clus>
<clus scale="   29.354">  1  5  2 -1</clus>
</clustering>
</event>
<event>
 9    1  0.9000149E-006  0.1121013E+03  0.7546771E-02  0.1257144E+00
          1   -1    0    0  502    0  0.00000000000E+00  0.00000000000E+00  0.53277002558E+03  0.53277002558E+03  0.00000000000E+00 0. -1.
         -1   -1    0    0    0  501 -0.00000000000E+00 -0.00000000000E+00 -0.78382882041E+02  0.78382882041E+02  0.00000000000E+00 0.  1.
         23    2    1    2    0    0  0.29286416454E+02  0.56583036252E+02 -0.18132860054E+02  0.11252524478E+03  0.90960408528E+02 0.  0.
         23    2    1    2    0    0 -0.64141300521E+02 -0.39454891554E+02  0.38299039156E+03  0.40103776728E+03  0.92080702959E+02 0.  0.
        -11    1    3    3    0    0  0.54916953640E+02  0.25966143046E+02  0.12721741648E+02  0.62064120813E+02  0.00000000000E+00 0.  1.
         11    1    3    3    0    0 -0.25630537187E+02  0.30616893206E+02 -0.30854601702E+02  0.50461123970E+02  0.00000000000E+00 0. -1.
        -11    1    4    4    0    0 -0.36824963221E+02 -0.68457208275E+02  0.22294300509E+03  0.23610601602E+03  0.00000000000E+00 0. -1.
         11    1    4    4    0    0 -0.27316337299E+02  0.29002316721E+02  0.16004738647E+03  0.16493175126E+03  0.00000000000E+00 0.  1.
         21    1    1    2  502  501  0.34854884067E+02 -0.17128144698E+02  0.89529612029E+02  0.97589895554E+02  0.00000000000E+00 0.  1.
<scales pt_clust_5="13000.00000" pt_clust_6="13000.00000" pt_clust_7="13000.00000" pt_clust_8="13000.00000" pt_clust_9="38.83602"></scales>
<clustering>
<clus scale="   38.836">  1  9  2 -1</clus>
<clus scale="   90.960">  5  6 -1 -1</clus>
<clus scale="   92.081">  7  8 -1 -1</clus>
<clus scale="  111.183">  2  5  1 -1</clus>
<clus scale="   38.836">  1  5  2 -1</clus>
</clustering>
</event>
<event>
 9    1  0.9000149E-006  0.1063077E+03  0.7546771E-02  0.1268084E+00
         -1   -1    0    0    0  501 -0.00000000000E+00  0.00000000000E+00  0.12532614838E+03  0.12532614838E+03  0.00000000000E+00 0.  1.
          1   -1    0    0  502    0  0.00000000000E+00 -0.00000000000E+00 -0.15077129782E+03  0.15077129782E+03  0.00000000000E+00 0. -1.
         23    2    1    2    0    0 -0.47262560400E+02  0.20938506142E+01  0.57610057743E+02  0.11918426908E+03  0.92993749338E+02 0.  0.
         23    2    1    2    0    0  0.64555700409E+02 -0.12514178798E+02 -0.69038476101E+02  0.13233463605E+03  0.91772008753E+02 0.  0.
        -11    1    4    4    0    0  0.53188192066E+01  0.35879198237E+02 -0.25272395709E+02  0.44207473223E+02  0.00000000000E+00 0.  1.
         11    1    4    4    0    0  0.59236881203E+02 -0.48393377036E+02 -0.43766080392E+02  0.88127162830E+02  0.00000000000E+00 0. -1.
        -13    1    3    3    0    0  0.20679046412E+02  0.22050591562E+02  0.31640645981E+02  0.43760507616E+02  0.00000000000E+00 0.  1.
         13    1    3    3    0    0 -0.67941606812E+02 -0.19956740948E+02  0.25969411762E+02  0.75423761459E+02  0.00000000000E+00 0. -1.
         21    1    1    2  502  501 -0.17293140010E+02  0.10420328184E+02 -0.14016731081E+02  0.24578541069E+02  0.00000000000E+00 0.  1.
<scales pt_clust_5="13000.00000" pt_clust_6="13000.00000" pt_clust_7="13000.00000" pt_clust_8="13000.00000" pt_clust_9="20.19000"></scales>
<clustering>
<clus scale="   20.190">  2  9  1 -1</clus>
<clus scale="   91.772">  5  6 -1 -1</clus>
<clus scale="   92.994">  7  8 -1 -1</clus>
<clus scale="  105.241">  2  5  1 -1</clus>
<clus scale="   20.190">  2  5  1 -1</clus>
</clustering>
</event>
<event>
 9    1  0.9000149E-006  0.1361284E+03  0.7546771E-02  0.1219575E+00
          1   -1    0    0  502    0  0.00000000000E+00  0.00000000000E+00  0.64844335866E+03  0.64844335866E+03  0.00000000000E+00 0. -1.
         -1   -1    0    0    0  501 -0.00000000000E+00 -0.00000000000E+00 -0.47348341609E+02  0.47348341609E+02  0.00000000000E+00 0.  1.
         23    2    1    2    0    0  0.10668284958E+03 -0.39350797370E+02  0.13059310274E+03  0.19770246165E+03  0.95404345866E+02 0.  0.
         23    2    1    2    0    0 -0.55618940316E+02  0.28790574106E+02  0.33562274370E+03  0.35348138333E+03  0.91564723533E+02 0.  0.
        -13    1    4    4    0    0  0.21957203485E+02  0.11301844889E+00  0.32096161444E+02  0.38888239064E+02  0.00000000000E+00 0.  1.
         13    1    4    4    0    0 -0.77576143801E+02  0.28677555657E+02  0.30352658225E+03  0.31459314427E+03  0.00000000000E+00 0. -1.
        -13    1    3    3    0    0  0.11331737186E+03 -0.58580461463E+02  0.10655304658E+03  0.16621085694E+03  0.00000000000E+00 0.  1.
         13    1    3    3    0    0 -0.66345222728E+01  0.19229664094E+02  0.24040056155E+02  0.31491604704E+02  0.00000000000E+00 0. -1.
         21    1    1    2  502  501 -0.51063909268E+02  0.10560223264E+02  0.13487917062E+03  0.14460785529E+03  0.00000000000E+00 0.  1.
<scales pt_clust_5="13000.00000" pt_clust_6="13000.00000" pt_clust_7="13000.00000" pt_clust_8="13000.00000" pt_clust_9="52.14443"></scales>
<clustering>
<clus scale="   52.144">  1  9  2 -1</clus>
<clus scale="   91.565">  5  6 -1 -1</clus>
<clus scale="   95.404">  7  8 -1 -1</clus>
<clus scale="  133.466">  1  5  2 -1</clus>
<clus scale="   52.144">  1  5  2 -1</clus>
</clustering>
</event>
<event>
 9    1  0.9000149E-006  0.2405805E+03  0.7546771E-02  0.1120012E+00
          1   -1    0    0  502    0  0.00000000000E+00  0.00000000000E+00  0.72223103814E+03  0.72223103814E+03  0.00000000000E+00 0. -1.
         -1   -1    0    0    0  501 -0.00000000000E+00 -0.00000000000E+00 -0.99266728267E+02  0.99266728267E+02  0.00000000000E+00 0.  1.
         23    2    1    2    0    0  0.37879119578E+02 -0.21153068499E+03  0.15645362813E+03  0.27840845965E+03  0.82785712873E+02 0.  0.
         23    2    1    2    0    0 -0.47242055206E+02  0.23203739458E+03  0.41263792605E+03  0.48469013290E+03  0.92635320757E+02 0.  0.
        -11    1    4    4    0    0  0.25021568372E+02  0.28532899200E+02  0.52781517710E+02  0.65008413550E+02  0.00000000000E+00 0.  1.
         11    1    4    4    0    0 -0.72263623578E+02  0.20350449538E+03  0.35985640834E+03  0.41968171935E+03  0.00000000000E+00 0. -1.
        -13    1    3    3    0    0 -0.16113836326E+02 -0.12342840071E+03  0.65029519263E+02  0.14043882725E+03  0.00000000000E+00 0.  1.
         13    1    3    3    0    0  0.53992955905E+02 -0.88102284282E+02  0.91424108864E+02  0.13796963240E+03  0.00000000000E+00 0. -1.
         21    1    1    2  502  501  0.93629356273E+01 -0.20506709581E+02  0.53872755697E+02  0.58399173863E+02  0.00000000000E+00 0.  1.
<scales pt_clust_5="13000.00000" pt_clust_6="13000.00000" pt_clust_7="13000.00000" pt_clust_8="13000.00000" pt_clust_9="22.54306"></scales>
<clustering>
<clus scale="   22.543">  1  9  2 -1</clus>
<clus scale="   82.786">  7  8 -1 -1</clus>
<clus scale="   92.635">  5  6 -1 -1</clus>
<clus scale="  236.962">  2  7  1 -1</clus>
<clus scale="   22.543">  1  5  2 -1</clus>
</clustering>
</event>
<event>
 9    1  0.2852119E-005  0.1222504E+03  0.7546771E-02  0.1239661E+00
          2   -1    0    0  502    0  0.00000000000E+00  0.00000000000E+00  0.36376210984E+03  0.36376210984E+03  0.00000000000E+00 0. -1.
         -2   -1    0    0    0  501 -0.00000000000E+00 -0.00000000000E+00 -0.20796580092E+03  0.20796580092E+03  0.00000000000E+00 0.  1.
         23    2    1    2    0    0 -0.42646965164E+02 -0.71457526977E+02 -0.16645230120E+03  0.20733202020E+03  0.91407090685E+02 0.  0.
         23    2    1    2    0    0  0.25182492132E+02  0.42269036509E+02  0.31240062415E+03  0.32898461238E+03  0.90641579080E+02 0.  0.
        -11    1    3    3    0    0 -0.67552969357E+02 -0.29598074214E+02 -0.11375728228E+03  0.13557348169E+03  0.00000000000E+00 0.  1.
         11    1    3    3    0    0  0.24906004193E+02 -0.41859452764E+02 -0.52695018920E+02  0.71758538513E+02  0.00000000000E+00 0. -1.
        -13    1    4    4    0    0  0.55731781210E+02  0.38456566461E+02  0.25514285006E+03  0.26397502321E+03  0.00000000000E+00 0. -1.
         13    1    4    4    0    0 -0.30549289078E+02  0.38124700484E+01  0.57257774091E+02  0.65009589177E+02  0.00000000000E+00 0.  1.
         21    1    1    2  502  501  0.17464473032E+02  0.29188490469E+02  0.98479859721E+01  0.35411278173E+02  0.00000000000E+00 0.  1.
<scales pt_clust_5="13000.00000" pt_clust_6="13000.00000" pt_clust_7="13000.00000" pt_clust_8="13000.00000" pt_clust_9="34.01435"></scales>
<clustering>
<clus scale="   34.014">  1  9  2 -1</clus>
<clus scale="   90.642">  7  8 -1 -1</clus>
<clus scale="   91.407">  5  6 -1 -1</clus>
<clus scale="  121.679">  1  7  2 -1</clus>
<clus scale="   34.014">  1  5  2 -1</clus>
</clustering>
</event>
<event>
 9    1  0.9000149E-006  0.1555987E+03  0.7546771E-02  0.1195055E+00
         -1   -1    0    0    0  501 -0.00000000000E+00  0.00000000000E+00  0.46617536040E+02  0.46617536040E+02  0.00000000000E+00 0.  1.
          1   -1    0    0  502    0  0.00000000000E+00 -0.00000000000E+00 -0.65738659697E+03  0.65738659697E+03  0.00000000000E+00 0. -1.
         23    2    1    2    0    0 -0.11783609239E+03 -0.17045980224E+02 -0.21074519114E+03  0.25970826625E+03  0.94121930824E+02 0.  0.
         23    2    1    2    0    0  0.11909347083E+03 -0.18754148314E+02 -0.31671463250E+03  0.35361147327E+03  0.10098486379E+03 0.  0.
        -11    1    3    3    0    0 -0.12335971739E+03  0.72776923443E+01 -0.15205041046E+03  0.19593343768E+03  0.00000000000E+00 0.  1.
         11    1    3    3    0    0  0.55236250068E+01 -0.24323672568E+02 -0.58694780677E+02  0.63774828570E+02  0.00000000000E+00 0. -1.
        -13    1    4    4    0    0  0.64155797367E+02 -0.57664353227E+02 -0.21474891152E+03  0.23142653039E+03  0.00000000000E+00 0. -1.
         13    1    4    4    0    0  0.54937673463E+02  0.38910204913E+02 -0.10196572099E+03  0.12218494289E+03  0.00000000000E+00 0.  1.
         21    1    1    2  502  501 -0.12573784429E+01  0.35800128538E+02 -0.83309237290E+02  0.90684393485E+02  0.00000000000E+00 0.  1.
<scales pt_clust_5="13000.00000" pt_clust_6="13000.00000" pt_clust_7="13000.00000" pt_clust_8="13000.00000" pt_clust_9="35.82220"></scales>
<clustering>
<clus scale="   35.822">  2  9  1 -1</clus>
<clus scale="   94.122">  5  6 -1 -1</clus>
<clus scale="  100.985">  7  8 -1 -1</clus>
<clus scale="  151.235">  1  5  2 -1</clus>
<clus scale="   35.822">  2  5  1 -1</clus>
</clustering>
</event>
<event>
 9    1  0.9000149E-006  0.2043361E+03  0.7546771E-02  0.1146530E+00
         -2   -1    0    0    0  501 -0.00000000000E+00  0.00000000000E+00  0.45113488605E+02  0.45113488605E+02  0.00000000000E+00 0.  1.
          2   -1    0    0  502    0  0.00000000000E+00 -0.00000000000E+00 -0.12364178465E+04  0.12364178465E+04  0.00000000000E+00 0. -1.
         23    2    1    2    0    0 -0.12416832302E+03  0.12296983197E+03 -0.31269822626E+03  0.36986404015E+03  0.92086239328E+02 0.  0.
         23    2    1    2    0    0  0.14908220827E+03 -0.12239150257E+03 -0.73683539066E+03  0.76772293369E+03  0.96264870324E+02 0.  0.
        -11    1    3    3    0    0 -0.71586023400E+02  0.89410967211E+02 -0.27266293356E+03  0.29574305595E+03  0.00000000000E+00 0. -1.
         11    1    3    3    0    0 -0.52582299618E+02  0.33558864762E+02 -0.40035292694E+02  0.74120984196E+02  0.00000000000E+00 0.  1.
        -13    1    4    4    0    0  0.11865006054E+03 -0.11275172796E+03 -0.70044649667E+03  0.71931640029E+03  0.00000000000E+00 0. -1.
         13    1    4    4    0    0  0.30432147733E+02 -0.96397746095E+01 -0.36388893987E+02  0.48406533400E+02  0.00000000000E+00 0.  1.
         21    1    1    2  502  501 -0.24913885257E+02 -0.57832940651E+00 -0.14177074097E+03  0.14394436126E+03  0.00000000000E+00 0. -1.
<scales pt_clust_5="13000.00000" pt_clust_6="13000.00000" pt_clust_7="13000.00000" pt_clust_8="13000.00000" pt_clust_9="24.92060"></scales>
<clustering>
<clus scale="   24.921">  2  9  1 -1</clus>
<clus scale="   92.086">  5  6 -1 -1</clus>
<clus scale="   96.265">  7  8 -1 -1</clus>
<clus scale="  202.401">  1  5  2 -1</clus>
<clus scale="   24.921">  2  5  1 -1</clus>
</clustering>
</event>
<event>
 9    1  0.9000149E-006  0.1119182E+03  0.7546771E-02  0.1257304E+00
          1   -1    0    0  502    0  0.00000000000E+00  0.00000000000E+00  0.41705748510E+03  0.41705748510E+03  0.00000000000E+00 0. -1.
         -1   -1    0    0    0  501 -0.00000000000E+00 -0.00000000000E+00 -0.37954867678E+02  0.37954867678E+02  0.00000000000E+00 0.  1.
         23    2    1    2    0    0 -0.32470403562E+02 -0.63915675777E+02  0.14484701635E+03  0.18556071242E+03  0.91173346594E+02 0.  0.
         23    2    1    2    0    0  0.38895306486E+02  0.43778665208E+02  0.16543793585E+03  0.19746101862E+03  0.90508159090E+02 0.  0.
        -11    1    4    4    0    0 -0.28097917776E+02  0.14731669861E+01  0.35893107683E+02  0.45606780017E+02  0.00000000000E+00 0.  1.
         11    1    4    4    0    0  0.66993224262E+02  0.42305498222E+02  0.12954482816E+03  0.15185423860E+03  0.00000000000E+00 0. -1.
        -13    1    3    3    0    0 -0.20585396052E+02 -0.21457963445E+02 -0.42896183019E+01  0.30043361180E+02  0.00000000000E+00 0.  1.
         13    1    3    3    0    0 -0.11885007510E+02 -0.42457712332E+02  0.14913663465E+03  0.15551735124E+03  0.00000000000E+00 0. -1.
         21    1    1    2  502  501 -0.64249029240E+01  0.20137010569E+02  0.68817665224E+02  0.71990621745E+02  0.00000000000E+00 0. -1.
<scales pt_clust_5="13000.00000" pt_clust_6="13000.00000" pt_clust_7="13000.00000" pt_clust_8="13000.00000" pt_clust_9="21.13714"></scales>
<clustering>
<clus scale="   21.137">  1  9  2 -1</clus>
<clus scale="   90.508">  5  6 -1 -1</clus>
<clus scale="   91.173">  7  8 -1 -1</clus>
<clus scale="  111.377">  1  5  2 -1</clus>
<clus scale="   21.137">  1  5  2 -1</clus>
</clustering>
</event>
<event>
 9    1  0.9000149E-006  0.3709855E+03  0.7546771E-02  0.1085309E+00
          1   -1    0    0  502    0  0.00000000000E+00  0.00000000000E+00  0.35738231240E+03  0.35738231240E+03  0.00000000000E+00 0. -1.
         -1   -1    0    0    0  501 -0.00000000000E+00 -0.00000000000E+00 -0.58670379577E+03  0.58670379577E+03  0.00000000000E+00 0.  1.
         23    2    1    2    0    0 -0.24066202511E+02  0.12616552533E+03 -0.90215152835E+02  0.18224819265E+03  0.92621315250E+02 0.  0.
         23    2    1    2    0    0  0.23033313936E+03  0.22958320157E+03 -0.52941537052E+02  0.34168606493E+03  0.90469658376E+02 0.  0.
        -13    1    3    3    0    0  0.13689337048E+02  0.11365513837E+03 -0.47666214787E+02  0.12400385663E+03  0.00000000000E+00 0.  1.
         13    1    3    3    0    0 -0.37755539559E+02  0.12510386954E+02 -0.42548938048E+02  0.58244336018E+02  0.00000000000E+00 0. -1.
        -13    1    4    4    0    0  0.17353948749E+03  0.16155661675E+03  0.25755500908E+01  0.23711416574E+03  0.00000000000E+00 0. -1.
         13    1    4    4    0    0  0.56793651871E+02  0.68026584819E+02 -0.55517087142E+02  0.10457189919E+03  0.00000000000E+00 0.  1.
         21    1    1    2  502  501 -0.20626693685E+03 -0.35574872690E+03 -0.86164793484E+02  0.42015185060E+03  0.00000000000E+00 0.  1.
<scales pt_clust_5="13000.00000" pt_clust_6="13000.00000" pt_clust_7="13000.00000" pt_clust_8="13000.00000" pt_clust_9="359.78532"></scales>
<clustering>
<clus scale="   90.470">  7  8 -1 -1</clus>
<clus scale="   92.621">  5  6 -1 -1</clus>
<clus scale="  158.353">  2  5  1 -1</clus>
<clus scale="  359.785">  2  9  1 -1</clus>
<clus scale="  370.985">  1  5  2 -1</clus>
</clustering>
</event>
<event>
 9    1  0.9000149E-006  0.1081217E+03  0.7546771E-02  0.1270745E+00
         -2   -1    0    0    0  501 -0.00000000000E+00  0.00000000000E+00  0.89597745252E+02  0.89597745252E+02  0.00000000000E+00 0.  1.
          2   -1    0    0  502    0  0.00000000000E+00 -0.00000000000E+00 -0.24479669245E+03  0.24479669245E+03  0.00000000000E+00 0. -1.
         23    2    1    2    0    0  0.33681273740E+02  0.95532854227E+01  0.12218286160E+02  0.10570716398E+03  0.98990022406E+02 0.  0.
         23    2    1    2    0    0 -0.70932653172E+02  0.13801261717E+02 -0.11022236104E+03  0.15654606801E+03  0.84473584198E+02 0.  0.
        -11    1    3    3    0    0  0.39273607590E+02 -0.39415352925E+02  0.84065995248E+01  0.56273059406E+02  0.00000000000E+00 0.  1.
         11    1    3    3    0    0 -0.55923338496E+01  0.48968638348E+02  0.38116866355E+01  0.49434104569E+02  0.00000000000E+00 0. -1.
        -13    1    4    4    0    0 -0.22260949106E+02 -0.22977463915E+02 -0.16820403816E+01  0.32036587879E+02  0.00000000000E+00 0.  1.
         13    1    4    4    0    0 -0.48671704065E+02  0.36778725632E+02 -0.10854032065E+03  0.12450948013E+03  0.00000000000E+00 0. -1.
         21    1    1    2  502  501  0.37251379431E+02 -0.23354547140E+02 -0.57194872322E+02  0.72141205712E+02  0.00000000000E+00 0. -1.
<scales pt_clust_5="13000.00000" pt_clust_6="13000.00000" pt_clust_7="13000.00000" pt_clust_8="13000.00000" pt_clust_9="43.96703"></scales>
<clustering>
<clus scale="   43.967">  2  9  1 -1</clus>
<clus scale="   84.474">  7  8 -1 -1</clus>
<clus scale="   95.011">  2  7  1 -1</clus>
<clus scale="   98.990">  5  6 -1 -1</clus>
<clus scale="   43.967">  2  5  1 -1</clus>
</clustering>
</event>
<event>
 9    1  0.9000149E-006  0.1008289E+03  0.7546771E-02  0.1278659E+00
         -1   -1    0    0    0  501 -0.00000000000E+00  0.00000000000E+00  0.92616253701E+02  0.92616253701E+02  0.00000000000E+00 0.  1.
          1   -1    0    0  502    0  0.00000000000E+00 -0.00000000000E+00 -0.16654010043E+03  0.16654010043E+03  0.00000000000E+00 0. -1.
         23    2    1    2    0    0  0.10390454620E+02  0.37017106758E+02 -0.22418477591E+02  0.10139211763E+03  0.91101842132E+02 0.  0.
         23    2    1    2    0    0 -0.50546507690E+02 -0.26406923228E+02 -0.32744363906E+02  0.11218946377E+03  0.90895585033E+02 0.  0.
        -11    1    3    3    0    0 -0.65352798524E+01  0.48108204303E+02  0.21452953539E+02  0.53078606044E+02  0.00000000000E+00 0.  1.
         11    1    3    3    0    0  0.16925734473E+02 -0.11091097545E+02 -0.43871431130E+02  0.48313511584E+02  0.00000000000E+00 0. -1.
        -13    1    4    4    0    0 -0.48027721815E+02  0.15064287612E+02  0.11356374109E+02  0.51600019931E+02  0.00000000000E+00 0. -1.
         13    1    4    4    0    0 -0.25187858753E+01 -0.41471210840E+02 -0.44100738014E+02  0.60589443835E+02  0.00000000000E+00 0.  1.
         21    1    1    2  502  501  0.40156053070E+02 -0.10610183530E+02 -0.18761005233E+02  0.45574772738E+02  0.00000000000E+00 0. -1.
<scales pt_clust_5="13000.00000" pt_clust_6="13000.00000" pt_clust_7="13000.00000" pt_clust_8="13000.00000" pt_clust_9="41.53414"></scales>
<clustering>
<clus scale="   41.534">  2  9  1 -1</clus>
<clus scale="   90.896">  7  8 -1 -1</clus>
<clus scale="   91.102">  5  6 -1 -1</clus>
<clus scale="  100.643">  2  7  1 -1</clus>
<clus scale="   41.534">  2  5  1 -1</clus>
</clustering>
</event>
<event>
 9    1  0.9000149E-006  0.1007610E+03  0.7546771E-02  0.1278736E+00
         -4   -1    0    0    0  501 -0.00000000000E+00  0.00000000000E+00  0.24858927573E+03  0.24858927573E+03  0.00000000000E+00 0.  1.
          4   -1    0    0  502    0  0.00000000000E+00 -0.00000000000E+00 -0.36518731140E+03  0.36518731140E+03  0.00000000000E+00 0. -1.
         23    2    1    2    0    0 -0.18800193208E+02  0.42208881439E+02  0.21188966832E+03  0.23514745908E+03  0.90895869174E+02 0.  0.
         23    2    1    2    0    0  0.49283206717E+02  0.31817700530E+02 -0.18958228106E+03  0.21830487700E+03  0.90963605359E+02 0.  0.
        -11    1    4    4    0    0  0.51772204033E+02 -0.16124799548E+02 -0.64138726734E+02  0.83988966764E+02  0.00000000000E+00 0. -1.
         11    1    4    4    0    0 -0.24889973169E+01  0.47942500078E+02 -0.12544355433E+03  0.13431591024E+03  0.00000000000E+00 0.  1.
        -13    1    3    3    0    0 -0.33775895922E+02 -0.15631901174E+02  0.11915129529E+03  0.12482867719E+03  0.00000000000E+00 0. -1.
         13    1    3    3    0    0  0.14975702714E+02  0.57840782613E+02  0.92738373034E+02  0.11031878189E+03  0.00000000000E+00 0.  1.
         21    1    1    2  502  501 -0.30483013509E+02 -0.74026581968E+02 -0.13890542294E+03  0.16032425104E+03  0.00000000000E+00 0.  1.
<scales pt_clust_5="13000.00000" pt_clust_6="13000.00000" pt_clust_7="13000.00000" pt_clust_8="13000.00000" pt_clust_9="80.05716"></scales>
<clustering>
<clus scale="   80.057">  2  9  1 -1</clus>
<clus scale="   90.896">  7  8 -1 -1</clus>
<clus scale="   90.964">  5  6 -1 -1</clus>
<clus scale="  100.700">  1  7  2 -1</clus>
<clus scale="   80.057">  2  5  1 -1</clus>
</clustering>
</event>
<event>
 9    1  0.9000149E-006  0.1152626E+03  0.7546771E-02  0.1252293E+00
          1   -1    0    0  502    0  0.00000000000E+00  0.00000000000E+00  0.39012462091E+03  0.39012462091E+03  0.00000000000E+00 0. -1.
         -1   -1    0    0    0  501 -0.00000000000E+00 -0.00000000000E+00 -0.84166058295E+02  0.84166058295E+02  0.00000000000E+00 0.  1.
         23    2    1    2    0    0  0.18293485126E+01  0.84716045527E+02  0.13365354085E+02  0.12782530940E+03  0.94765616908E+02 0.  0.
         23    2    1    2    0    0  0.12585151305E+02 -0.37433374787E+02  0.78886635820E+02  0.12711649705E+03  0.91519718810E+02 0.  0.
        -11    1    4    4    0    0  0.52199575732E+02 -0.15832589737E+02  0.42359640856E+02  0.69063780507E+02  0.00000000000E+00 0. -1.
         11    1    4    4    0    0 -0.39614424427E+02 -0.21600785050E+02  0.36526994964E+02  0.58052716548E+02  0.00000000000E+00 0.  1.
        -11    1    3    3    0    0 -0.30091758318E+02  0.76716118806E+02 -0.15735472915E+02  0.83895660860E+02  0.00000000000E+00 0.  1.
         11    1    3    3    0    0  0.31921106830E+02  0.79999267207E+01  0.29100827000E+02  0.43929648541E+02  0.00000000000E+00 0. -1.
         21    1    1    2  502  501 -0.14414499817E+02 -0.47282670740E+02  0.21370657271E+03  0.21934887275E+03  0.00000000000E+00 0.  1.
<scales pt_clust_5="13000.00000" pt_clust_6="13000.00000" pt_clust_7="13000.00000" pt_clust_8="13000.00000" pt_clust_9="49.43105"></scales>
<clustering>
<clus scale="   49.431">  1  9  2 -1</clus>
<clus scale="   91.520">  5  6 -1 -1</clus>
<clus scale="   94.766">  7  8 -1 -1</clus>
<clus scale="  112.609">  1  5  2 -1</clus>
<clus scale="   49.431">  1  5  2 -1</clus>
</clustering>
</event>
<event>
 9    1  0.9000149E-006  0.1076918E+03  0.7546771E-02  0.1266768E+00
          2   -1    0    0  502    0  0.00000000000E+00  0.00000000000E+00  0.27024751317E+03  0.27024751317E+03  0.00000000000E+00 0. -1.
         -2   -1    0    0    0  501 -0.00000000000E+00 -0.00000000000E+00 -0.52023665253E+02  0.52023665253E+02  0.00000000000E+00 0.  1.
         23    2    1    2    0    0 -0.22837843801E+02 -0.58399899245E+02  0.91548903253E+02  0.14257551770E+03  0.89523523280E+02 0.  0.
         23    2    1    2    0    0  0.53057432646E+01  0.45055347699E+02  0.11284168268E+03  0.15368007419E+03  0.93947775842E+02 0.  0.
        -11    1    3    3    0    0 -0.27652441829E+02  0.85553885428E+01  0.63570227883E+02  0.69850025665E+02  0.00000000000E+00 0.  1.
         11    1    3    3    0    0  0.48145980283E+01 -0.66955287788E+02  0.27978675369E+02  0.72725492039E+02  0.00000000000E+00 0. -1.
        -13    1    4    4    0    0  0.19544891151E+02  0.26032235320E+02 -0.54670956800E+01  0.33008622828E+02  0.00000000000E+00 0.  1.
         13    1    4    4    0    0 -0.14239147886E+02  0.19023112379E+02  0.11830877836E+03  0.12067145136E+03  0.00000000000E+00 0. -1.
         21    1    1    2  502  501  0.17532100536E+02  0.13344551546E+02  0.13833261982E+02  0.26015586525E+02  0.00000000000E+00 0.  1.
<scales pt_clust_5="13000.00000" pt_clust_6="13000.00000" pt_clust_7="13000.00000" pt_clust_8="13000.00000" pt_clust_9="22.03297"></scales>
<clustering>
<clus scale="   22.033">  2  9  1 -1</clus>
<clus scale="   89.524">  5  6 -1 -1</clus>
<clus scale="   93.948">  7  8 -1 -1</clus>
<clus scale="  103.855">  2  5  1 -1</clus>
<clus scale="  107.692">  1  5  2 -1</clus>
</clustering>
</event>
<event>
 9    1  0.9000149E-006  0.1151421E+03  0.7546771E-02  0.1252017E+00
         -1   -1    0    0    0  501 -0.00000000000E+00  0.00000000000E+00  0.11392245129E+03  0.11392245129E+03  0.00000000000E+00 0.  1.
          1   -1    0    0  502    0  0.00000000000E+00 -0.00000000000E+00 -0.18858678901E+03  0.18858678901E+03  0.00000000000E+00 0. -1.
         23    2    1    2    0    0  0.47073350013E+02  0.48243381822E+02  0.15284221355E+02  0.11678646971E+03  0.94138981902E+02 0.  0.
         23    2    1    2    0    0 -0.10496586081E+02 -0.72698947744E+02 -0.72369863949E+02  0.13834192123E+03  0.92226756634E+02 0.  0.
        -11    1    4    4    0    0  0.35773697791E+01 -0.92013715200E+02 -0.66915748025E+02  0.11382898881E+03  0.00000000000E+00 0. -1.
         11    1    4    4    0    0 -0.14073955860E+02  0.19314767456E+02 -0.54541159239E+01  0.24512932422E+02  0.00000000000E+00 0.  1.
        -13    1    3    3    0    0 -0.17011168130E+02 -0.17170996804E+02  0.19956750730E+01  0.24252952220E+02  0.00000000000E+00 0. -1.
         13    1    3    3    0    0  0.64084518143E+02  0.65414378626E+02  0.13288546282E+02  0.92533517489E+02  0.00000000000E+00 0.  1.
         21    1    1    2  502  501 -0.36576763932E+02  0.24455565922E+02 -0.17578695119E+02  0.47380849363E+02  0.00000000000E+00 0. -1.
<scales pt_clust_5="13000.00000" pt_clust_6="13000.00000" pt_clust_7="13000.00000" pt_clust_8="13000.00000" pt_clust_9="43.99925"></scales>
<clustering>
<clus scale="   43.999">  2  9  1 -1</clus>
<clus scale="   92.227">  5  6 -1 -1</clus>
<clus scale="   94.139">  7  8 -1 -1</clus>
<clus scale="  113.584">  2  5  1 -1</clus>
<clus scale="   43.999">  2  5  1 -1</clus>
</clustering>
</event>
<event>
 9    1  0.9000149E-006  0.9390999E+02  0.7546771E-02  0.1294150E+00
          1   -1    0    0  502    0  0.00000000000E+00  0.00000000000E+00  0.91667492365E+02  0.91667492365E+02  0.00000000000E+00 0. -1.
         -1   -1    0    0    0  501 -0.00000000000E+00 -0.00000000000E+00 -0.12136385314E+03  0.12136385314E+03  0.00000000000E+00 0.  1.
         23    2    1    2    0    0  0.25968377963E+02  0.11450700203E+02 -0.19604991103E+02  0.97554995789E+02  0.91253199057E+02 0.  0.
         23    2    1    2    0    0 -0.11189931007E+02  0.47697526504E+01 -0.58150701100E+01  0.93120314220E+02  0.92139094763E+02 0.  0.
        -13    1    3    3    0    0 -0.30875995987E+02  0.21338628487E+02 -0.37547599729E+01  0.37719523013E+02  0.00000000000E+00 0.  1.
         13    1    3    3    0    0  0.56844373950E+02 -0.98879282840E+01 -0.15850231130E+02  0.59835472776E+02  0.00000000000E+00 0. -1.
        -13    1    4    4    0    0  0.32095934533E+02  0.28644489268E+02 -0.74511295420E+01  0.43659765350E+02  0.00000000000E+00 0. -1.
         13    1    4    4    0    0 -0.43285865539E+02 -0.23874736618E+02  0.16360594321E+01  0.49460548870E+02  0.00000000000E+00 0.  1.
         21    1    1    2  502  501 -0.14778446956E+02 -0.16220452854E+02 -0.42762995641E+01  0.22356035498E+02  0.00000000000E+00 0.  1.
<scales pt_clust_5="13000.00000" pt_clust_6="13000.00000" pt_clust_7="13000.00000" pt_clust_8="13000.00000" pt_clust_9="21.94324"></scales>
<clustering>
<clus scale="   21.943">  2  9  1 -1</clus>
<clus scale="   91.253">  5  6 -1 -1</clus>
<clus scale="   92.139">  7  8 -1 -1</clus>
<clus scale="   93.041">  2  5  1 -1</clus>
<clus scale="   93.910">  1  5  2 -1</clus>
</clustering>
</event>
<event>
 9    1  0.9000149E-006  0.1079457E+03  0.7546771E-02  0.1266175E+00
         -1   -1    0    0    0  501 -0.00000000000E+00  0.00000000000E+00  0.20324094720E+03  0.20324094720E+03  0.00000000000E+00 0.  1.
          1   -1    0    0  502    0  0.00000000000E+00 -0.00000000000E+00 -0.22753161543E+03  0.22753161543E+03  0.00000000000E+00 0. -1.
         23    2    1    2    0    0 -0.12868789005E+02 -0.45894374162E+02  0.10815179465E+03  0.14752563874E+03  0.88289886671E+02 0.  0.
         23    2    1    2    0    0 -0.17397517465E+02  0.81231779600E+02  0.18106025761E+02  0.12567272244E+03  0.92544742500E+02 0.  0.
        -13    1    4    4    0    0 -0.19880480786E+02  0.11575251182E+02  0.45338464707E+02  0.50840892382E+02  0.00000000000E+00 0.  1.
         13    1    4    4    0    0  0.24829633209E+01  0.69656528418E+02 -0.27232438946E+02  0.74831830053E+02  0.00000000000E+00 0. -1.
        -13    1    3    3    0    0 -0.40908991039E+02 -0.14132571217E+01  0.74773761193E+02  0.85244696060E+02  0.00000000000E+00 0. -1.
         13    1    3    3    0    0  0.28040202034E+02 -0.44481117040E+02  0.33378033460E+02  0.62280942678E+02  0.00000000000E+00 0.  1.
         21    1    1    2  502  501  0.30266306470E+02 -0.35337405439E+02 -0.15054848865E+03  0.15757420146E+03  0.00000000000E+00 0. -1.
<scales pt_clust_5="13000.00000" pt_clust_6="13000.00000" pt_clust_7="13000.00000" pt_clust_8="13000.00000" pt_clust_9="46.52721"></scales>
<clustering>
<clus scale="   46.527">  2  9  1 -1</clus>
<clus scale="   88.290">  7  8 -1 -1</clus>
<clus scale="   92.545">  5  6 -1 -1</clus>
<clus scale="  104.321">  1  7  2 -1</clus>
<clus scale="   46.527">  2  5  1 -1</clus>
</clustering>
</event>
<event>
 9    1  0.9000149E-006  0.9583499E+02  0.7546771E-02  0.1289612E+00
         -3   -1    0    0    0  501 -0.00000000000E+00  0.00000000000E+00  0.24503575982E+03  0.24503575982E+03  0.00000000000E+00 0.  1.
          3   -1    0    0  502    0  0.00000000000E+00 -0.00000000000E+00 -0.65311170097E+02  0.65311170097E+02  0.00000000000E+00 0. -1.
         23    2    1    2    0    0  0.23099849084E+02 -0.33294119655E+01  0.15894032447E+03  0.18471213974E+03  0.91169401746E+02 0.  0.
         23    2    1    2    0    0 -0.42708541730E+02  0.86948246174E+01  0.85962801781E+01  0.10193172159E+03  0.91741813375E+02 0.  0.
        -11    1    4    4    0    0 -0.40836453018E+02 -0.36903606521E+02  0.11399357029E+02  0.56208873053E+02  0.00000000000E+00 0.  1.
         11    1    4    4    0    0 -0.18720887129E+01  0.45598431138E+02 -0.28030768505E+01  0.45722848536E+02  0.00000000000E+00 0. -1.
        -11    1    3    3    0    0  0.22840812517E+02 -0.32772698690E+02  0.14800749568E+03  0.15330352662E+03  0.00000000000E+00 0.  1.
         11    1    3    3    0    0  0.25903656715E+00  0.29443286725E+02  0.10932828786E+02  0.31408613124E+02  0.00000000000E+00 0. -1.
         21    1    1    2  502  501  0.19608692646E+02 -0.53654126519E+01  0.12187985082E+02  0.23703068590E+02  0.00000000000E+00 0.  1.
<scales pt_clust_5="13000.00000" pt_clust_6="13000.00000" pt_clust_7="13000.00000" pt_clust_8="13000.00000" pt_clust_9="20.32950"></scales>
<clustering>
<clus scale="   20.329">  2  9  1 -1</clus>
<clus scale="   91.169">  7  8 -1 -1</clus>
<clus scale="   91.742">  5  6 -1 -1</clus>
<clus scale="   95.287">  1  7  2 -1</clus>
<clus scale="   20.329">  2  5  1 -1</clus>
</clustering>
</event>
<event>
 9    1  0.9000149E-006  0.1634719E+03  0.7546771E-02  0.1185209E+00
         -2   -1    0    0    0  501 -0.00000000000E+00  0.00000000000E+00  0.15881528647E+03  0.15881528647E+03  0.00000000000E+00 0.  1.
          2   -1    0    0  502    0  0.00000000000E+00 -0.00000000000E+00 -0.21979691277E+03  0.21979691277E+03  0.00000000000E+00 0. -1.
         23    2    1    2    0    0  0.17960064944E+02 -0.13704269135E+03  0.10666511032E+02  0.16554246105E+03  0.90483527598E+02 0.  0.
         23    2    1    2    0    0 -0.49595767537E+02  0.12235679023E+03 -0.40826041892E+02  0.16652411608E+03  0.92911739127E+02 0.  0.
        -11    1    3    3    0    0 -0.37411135619E+01 -0.10592508645E+03  0.44267844334E+02  0.11486410193E+03  0.00000000000E+00 0.  1.
         11    1    3    3    0    0  0.21701178506E+02 -0.31117604905E+02 -0.33601333302E+02  0.50678359121E+02  0.00000000000E+00 0. -1.
        -13    1    4    4    0    0  0.13663022745E+02  0.58118484385E+02  0.13573866825E+02  0.61226516137E+02  0.00000000000E+00 0. -1.
         13    1    4    4    0    0 -0.63258790282E+02  0.64238305841E+02 -0.54399908717E+02  0.10529759994E+03  0.00000000000E+00 0.  1.
         21    1    1    2  502  501  0.31635702593E+02  0.14685901125E+02 -0.30822095447E+02  0.46545622116E+02  0.00000000000E+00 0. -1.
<scales pt_clust_5="13000.00000" pt_clust_6="13000.00000" pt_clust_7="13000.00000" pt_clust_8="13000.00000" pt_clust_9="34.87827"></scales>
<clustering>
<clus scale="   34.878">  2  9  1 -1</clus>
<clus scale="   90.484">  5  6 -1 -1</clus>
<clus scale="   92.912">  7  8 -1 -1</clus>
<clus scale="  162.104">  1  5  2 -1</clus>
<clus scale="   34.878">  2  5  1 -1</clus>
</clustering>
</event>
<event>
 9    1  0.9000149E-006  0.1473361E+03  0.7546771E-02  0.1205432E+00
         -1   -1    0    0    0  501 -0.00000000000E+00  0.00000000000E+00  0.49177979497E+03  0.49177979497E+03  0.00000000000E+00 0.  1.
          1   -1    0    0  502    0  0.00000000000E+00 -0.00000000000E+00 -0.97103081242E+02  0.97103081242E+02  0.00000000000E+00 0. -1.
         23    2    1    2    0    0 -0.77044490100E+02 -0.10785375529E+03  0.28801950526E+03  0.33182489906E+03  0.97899143189E+02 0.  0.
         23    2    1    2    0    0  0.19314995178E+02  0.87272155376E+02  0.13865901728E+03  0.18791744919E+03  0.89984145788E+02 0.  0.
        -13    1    3    3    0    0 -0.96190742926E+02 -0.62346407646E+02  0.18596067578E+03  0.21845161137E+03  0.00000000000E+00 0.  1.
         13    1    3    3    0    0  0.19146252826E+02 -0.45507347642E+02  0.10205882948E+03  0.11337328769E+03  0.00000000000E+00 0. -1.
        -13    1    4    4    0    0  0.25117755285E+02  0.47644948605E+02  0.13769705542E+03  0.14785608486E+03  0.00000000000E+00 0.  1.
         13    1    4    4    0    0 -0.58027601063E+01  0.39627206770E+02  0.96196186048E+00  0.40061364329E+02  0.00000000000E+00 0. -1.
         21    1    1    2  502  501  0.57729494922E+02  0.20581599913E+02 -0.32001808823E+02  0.69140527962E+02  0.00000000000E+00 0.  1.
<scales pt_clust_5="13000.00000" pt_clust_6="13000.00000" pt_clust_7="13000.00000" pt_clust_8="13000.00000" pt_clust_9="61.28864"></scales>
<clustering>
<clus scale="   61.289">  2  9  1 -1</clus>
<clus scale="   89.984">  7  8 -1 -1</clus>
<clus scale="   97.899">  5  6 -1 -1</clus>
<clus scale="  142.200">  2  7  1 -1</clus>
<clus scale="   61.289">  2  5  1 -1</clus>
</clustering>
</event>
<event>
 9    1  0.9000149E-006  0.9575922E+02  0.7546771E-02  0.1290695E+00
          1   -1    0    0  502    0  0.00000000000E+00  0.00000000000E+00  0.35881965615E+03  0.35881965615E+03  0.00000000000E+00 0. -1.
         -1   -1    0    0    0  501 -0.00000000000E+00 -0.00000000000E+00 -0.41302596205E+02  0.41302596205E+02  0.00000000000E+00 0.  1.
         23    2    1    2    0    0 -0.22391546907E+02 -0.20290673374E+02  0.85545462033E+02  0.13035247207E+03  0.93598333858E+02 0.  0.
         23    2    1    2    0    0  0.16346379242E+02 -0.19221912752E+02  0.13576755641E+03  0.16559201819E+03  0.91384906140E+02 0.  0.
        -11    1    4    4    0    0  0.35081531186E+02  0.22666959505E+02  0.33642837429E+02  0.53631570868E+02  0.00000000000E+00 0. -1.
         11    1    4    4    0    0 -0.18735151944E+02 -0.41888872257E+02  0.10212471898E+03  0.11196044732E+03  0.00000000000E+00 0.  1.
        -11    1    3    3    0    0 -0.59033011079E+02 -0.85999663676E+01  0.47545009061E+02  0.76284885169E+02  0.00000000000E+00 0.  1.
         11    1    3    3    0    0  0.36641464172E+02 -0.11690707006E+02  0.38000452972E+02  0.54067586899E+02  0.00000000000E+00 0. -1.
         21    1    1    2  502  501  0.60451676646E+01  0.39512586126E+02  0.96204041504E+02  0.10417776210E+03  0.00000000000E+00 0. -1.
<scales pt_clust_5="13000.00000" pt_clust_6="13000.00000" pt_clust_7="13000.00000" pt_clust_8="13000.00000" pt_clust_9="39.97235"></scales>
<clustering>
<clus scale="   39.972">  1  9  2 -1</clus>
<clus scale="   91.385">  5  6 -1 -1</clus>
<clus scale="   93.597">  1  5  2 -1</clus>
<clus scale="   93.598">  7  8 -1 -1</clus>
<clus scale="   39.972">  1  5  2 -1</clus>
</clustering>
</event>
<event>
 9    1  0.9000149E-006  0.1488185E+03  0.7546771E-02  0.1202708E+00
          1   -1    0    0  502    0  0.00000000000E+00  0.00000000000E+00  0.13749491886E+03  0.13749491886E+03  0.00000000000E+00 0. -1.
         -1   -1    0    0    0  501 -0.00000000000E+00 -0.00000000000E+00 -0.24104303623E+03  0.24104303623E+03  0.00000000000E+00 0.  1.
         23    2    1    2    0    0 -0.97511071358E+02  0.53049526787E+02 -0.13511844867E+03  0.19731871473E+03  0.91405791306E+02 0.  0.
         23    2    1    2    0    0  0.11655746159E+03 -0.44298275805E+02  0.23235575279E+02  0.15866225624E+03  0.95319675329E+02 0.  0.
        -13    1    3    3    0    0 -0.64954896924E+02  0.78894265936E+02 -0.94013830783E+02  0.13885980056E+03  0.00000000000E+00 0.  1.
         13    1    3    3    0    0 -0.32556174434E+02 -0.25844739149E+02 -0.41104617886E+02  0.58458914179E+02  0.00000000000E+00 0. -1.
        -13    1    4    4    0    0  0.67750453823E+02 -0.71741735083E+02  0.27701889516E+02  0.10249095194E+03  0.00000000000E+00 0. -1.
         13    1    4    4    0    0  0.48807007762E+02  0.27443459278E+02 -0.44663142376E+01  0.56171304300E+02  0.00000000000E+00 0.  1.
         21    1    1    2  502  501 -0.19046390228E+02 -0.87512509815E+01  0.83347560227E+01  0.22556984116E+02  0.00000000000E+00 0.  1.
<scales pt_clust_5="13000.00000" pt_clust_6="13000.00000" pt_clust_7="13000.00000" pt_clust_8="13000.00000" pt_clust_9="20.96066"></scales>
<clustering>
<clus scale="   20.961">  1  9  2 -1</clus>
<clus scale="   91.406">  5  6 -1 -1</clus>
<clus scale="   95.320">  7  8 -1 -1</clus>
<clus scale="  146.342">  2  5  1 -1</clus>
<clus scale="   20.961">  1  5  2 -1</clus>
</clustering>
</event>
<event>
 9    1  0.9000149E-006  0.1064612E+03  0.7546771E-02  0.1267675E+00
          1   -1    0    0  502    0  0.00000000000E+00  0.00000000000E+00  0.24282663349E+02  0.24282663349E+02  0.00000000000E+00 0. -1.
         -1   -1    0    0    0  501 -0.00000000000E+00 -0.00000000000E+00 -0.74808806593E+03  0.74808806593E+03  0.00000000000E+00 0.  1.
         23    2    1    2    0    0  0.15222964654E+02  0.44177812976E+02 -0.48306533931E+03  0.49408903813E+03  0.92673824516E+02 0.  0.
         23    2    1    2    0    0 -0.33596316086E+02 -0.60539479033E+02 -0.19469021032E+03  0.22607179634E+03  0.91708440878E+02 0.  0.
        -11    1    4    4    0    0  0.27406594545E+02  0.10196394635E+01 -0.35977578144E+02  0.45238780027E+02  0.00000000000E+00 0.  1.
         11    1    4    4    0    0 -0.61002910631E+02 -0.61559118496E+02 -0.15871263217E+03  0.18083301631E+03  0.00000000000E+00 0. -1.
        -11    1    3    3    0    0 -0.34686732931E+02  0.39109305723E+02 -0.20672955030E+03  0.21323652173E+03  0.00000000000E+00 0. -1.
         11    1    3    3    0    0  0.49909697586E+02  0.50685072523E+01 -0.27633578901E+03  0.28085251640E+03  0.00000000000E+00 0.  1.
         21    1    1    2  502  501  0.18373351432E+02  0.16361666057E+02 -0.46049852957E+02  0.52209894812E+02  0.00000000000E+00 0. -1.
<scales pt_clust_5="13000.00000" pt_clust_6="13000.00000" pt_clust_7="13000.00000" pt_clust_8="13000.00000" pt_clust_9="24.60252"></scales>
<clustering>
<clus scale="   24.603">  1  9  2 -1</clus>
<clus scale="   91.708">  5  6 -1 -1</clus>
<clus scale="   92.674">  7  8 -1 -1</clus>
<clus scale="  105.622">  1  5  2 -1</clus>
<clus scale="   24.603">  1  5  2 -1</clus>
</clustering>
</event>
<event>
 9    1  0.9000149E-006  0.9341545E+02  0.7546771E-02  0.1295547E+00
         -1   -1    0    0    0  501 -0.00000000000E+00  0.00000000000E+00  0.11693617169E+03  0.11693617169E+03  0.00000000000E+00 0.  1.
          1   -1    0    0  502    0  0.00000000000E+00 -0.00000000000E+00 -0.16081172508E+03  0.16081172508E+03  0.00000000000E+00 0. -1.
         23    2    1    2    0    0 -0.17063331822E+02 -0.31592166181E+02  0.63802311440E+02  0.11731856186E+03  0.91671630047E+02 0.  0.
         23    2    1    2    0    0  0.76199957367E+01  0.12409324890E+02 -0.10436076111E+03  0.13879230246E+03  0.90333156055E+02 0.  0.
        -11    1    3    3    0    0 -0.51604285471E+02 -0.33223937037E+02  0.52998816349E+02  0.81090731934E+02  0.00000000000E+00 0.  1.
         11    1    3    3    0    0  0.34540953649E+02  0.16317708563E+01  0.10803495091E+02  0.36227829928E+02  0.00000000000E+00 0. -1.
        -13    1    4    4    0    0 -0.28049056874E+02  0.30053920352E+02 -0.20431695003E+02  0.45906882716E+02  0.00000000000E+00 0.  1.
         13    1    4    4    0    0  0.35669052610E+02 -0.17644595461E+02 -0.83929066107E+02  0.92885419742E+02  0.00000000000E+00 0. -1.
         21    1    1    2  502  501  0.94433360853E+01  0.19182841290E+02 -0.33171037206E+01  0.21637032456E+02  0.00000000000E+00 0.  1.
<scales pt_clust_5="13000.00000" pt_clust_6="13000.00000" pt_clust_7="13000.00000" pt_clust_8="13000.00000" pt_clust_9="21.38125"></scales>
<clustering>
<clus scale="   21.381">  1  9  2 -1</clus>
<clus scale="   90.333">  7  8 -1 -1</clus>
<clus scale="   91.672">  5  6 -1 -1</clus>
<clus scale="   92.102">  2  7  1 -1</clus>
<clus scale="   92.102">  2  5  1 -1</clus>
</clustering>
</event>
<event>
 9    1  0.9000149E-006  0.9622162E+02  0.7546771E-02  0.1291676E+00
          1   -1    0    0  502    0  0.00000000000E+00  0.00000000000E+00  0.53315854162E+03  0.53315854162E+03  0.00000000000E+00 0. -1.
         -1   -1    0    0    0  501 -0.00000000000E+00 -0.00000000000E+00 -0.22601213015E+02  0.22601213015E+02  0.00000000000E+00 0.  1.
         23    2    1    2    0    0 -0.19231068658E+02  0.13321819589E+02  0.15178623005E+03  0.17876686511E+03  0.91494412679E+02 0.  0.
         23    2    1    2    0    0  0.29023847118E+02 -0.30855501525E+02  0.30533192148E+03  0.31990458810E+03  0.85538982569E+02 0.  0.
        -11    1    4    4    0    0 -0.15450926522E+02  0.19928908470E+02  0.52911366931E+02  0.58613183446E+02  0.00000000000E+00 0.  1.
         11    1    4    4    0    0  0.44474773640E+02 -0.50784409995E+02  0.25242055455E+03  0.26129140466E+03  0.00000000000E+00 0. -1.
        -13    1    3    3    0    0 -0.12718088292E+02  0.49700545400E+02  0.55235596175E+02  0.75384780080E+02  0.00000000000E+00 0.  1.
         13    1    3    3    0    0 -0.65129803658E+01 -0.36378725810E+02  0.96550633871E+02  0.10338208503E+03  0.00000000000E+00 0. -1.
         21    1    1    2  502  501 -0.97927784600E+01  0.17533681936E+02  0.53439177080E+02  0.57088301421E+02  0.00000000000E+00 0.  1.
<scales pt_clust_5="13000.00000" pt_clust_6="13000.00000" pt_clust_7="13000.00000" pt_clust_8="13000.00000" pt_clust_9="20.08304"></scales>
<clustering>
<clus scale="   20.083">  1  9  2 -1</clus>
<clus scale="   85.539">  5  6 -1 -1</clus>
<clus scale="   90.578">  1  5  2 -1</clus>
<clus scale="   91.494">  7  8 -1 -1</clus>
<clus scale="   20.083">  1  5  2 -1</clus>
</clustering>
</event>
<event>
 9    1  0.9000149E-006  0.1208690E+03  0.7546771E-02  0.1243156E+00
          2   -1    0    0  502    0  0.00000000000E+00  0.00000000000E+00  0.93119631102E+02  0.93119631102E+02  0.00000000000E+00 0. -1.
         -2   -1    0    0    0  501 -0.00000000000E+00 -0.00000000000E+00 -0.33690959910E+03  0.33690959910E+03  0.00000000000E+00 0.  1.
         23    2    1    2    0    0  0.30141839527E+02  0.67300817289E+02 -0.21908544655E+03  0.24962184496E+03  0.94205637275E+02 0.  0.
         23    2    1    2    0    0  0.12082783221E+02 -0.92668976238E+02 -0.18444837824E+02  0.13075211469E+03  0.89567687507E+02 0.  0.
        -11    1    3    3    0    0  0.26659792737E+02  0.83943692254E+01 -0.60933477929E+01  0.28606622848E+02  0.00000000000E+00 0. -1.
         11    1    3    3    0    0  0.34820467901E+01  0.58906448063E+02 -0.21299209875E+03  0.22101522211E+03  0.00000000000E+00 0.  1.
        -11    1    4    4    0    0  0.34282747453E+02 -0.32320140072E+02  0.24816065772E+02  0.53251622957E+02  0.00000000000E+00 0.  1.
         11    1    4    4    0    0 -0.22199964231E+02 -0.60348836166E+02 -0.43260903595E+02  0.77500491730E+02  0.00000000000E+00 0. -1.
         21    1    1    2  502  501 -0.42224622748E+02  0.25368158949E+02 -0.62596836245E+01  0.49655270554E+02  0.00000000000E+00 0. -1.
<scales pt_clust_5="13000.00000" pt_clust_6="13000.00000" pt_clust_7="13000.00000" pt_clust_8="13000.00000" pt_clust_9="49.25913"></scales>
<clustering>
<clus scale="   49.259">  1  9  2 -1</clus>
<clus scale="   89.568">  7  8 -1 -1</clus>
<clus scale="   94.206">  5  6 -1 -1</clus>
<clus scale="  117.290">  1  7  2 -1</clus>
<clus scale="   49.259">  1  5  2 -1</clus>
</clustering>
</event>
<event>
 9    1  0.9000149E-006  0.1276652E+03  0.7546771E-02  0.1231361E+00
         -1   -1    0    0    0  501 -0.00000000000E+00  0.00000000000E+00  0.19401664177E+03  0.19401664177E+03  0.00000000000E+00 0.  1.
          1   -1    0    0  502    0  0.00000000000E+00 -0.00000000000E+00 -0.13410539301E+03  0.13410539301E+03  0.00000000000E+00 0. -1.
         23    2    1    2    0    0  0.26811971781E+02  0.87870545136E+02  0.85429236332E+02  0.15549067114E+03  0.91864464617E+02 0.  0.
         23    2    1    2    0    0 -0.42407934967E+02 -0.69504183551E+02  0.15766005828E+02  0.12483047017E+03  0.93299597335E+02 0.  0.
        -11    1    4    4    0    0 -0.13741220199E+02  0.23040528994E+02  0.11537129324E+01  0.26851781364E+02  0.00000000000E+00 0.  1.
         11    1    4    4    0    0 -0.28666714768E+02 -0.92544712545E+02  0.14612292895E+02  0.97978688802E+02  0.00000000000E+00 0. -1.
        -13    1    3    3    0    0  0.51809735993E+02  0.90743881693E+02  0.72673824381E+02  0.12727994955E+03  0.00000000000E+00 0.  1.
         13    1    3    3    0    0 -0.24997764212E+02 -0.28733365576E+01  0.12755411951E+02  0.28210721590E+02  0.00000000000E+00 0. -1.
         21    1    1    2  502  501  0.15595963186E+02 -0.18366361585E+02 -0.41283993397E+02  0.47800893469E+02  0.00000000000E+00 0. -1.
<scales pt_clust_5="13000.00000" pt_clust_6="13000.00000" pt_clust_7="13000.00000" pt_clust_8="13000.00000" pt_clust_9="24.09476"></scales>
<clustering>
<clus scale="   24.095">  2  9  1 -1</clus>
<clus scale="   91.864">  7  8 -1 -1</clus>
<clus scale="   93.300">  5  6 -1 -1</clus>
<clus scale="  126.620">  1  7  2 -1</clus>
<clus scale="   24.095">  2  5  1 -1</clus>
</clustering>
</event>
<event>
 9    1  0.9000149E-006  0.1300879E+03  0.7546771E-02  0.1228019E+00
          1   -1    0    0  502    0  0.00000000000E+00  0.00000000000E+00  0.75196611505E+02  0.75196611505E+02  0.00000000000E+00 0. -1.
         -1   -1    0    0    0  501 -0.00000000000E+00 -0.00000000000E+00 -0.33971408299E+03  0.33971408299E+03  0.00000000000E+00 0.  1.
         23    2    1    2    0    0  0.72382071336E+02 -0.46656638458E+02 -0.21353809818E+03  0.24876954182E+03  0.94190017521E+02 0.  0.
         23    2    1    2    0    0 -0.92323441549E+02  0.41452284983E+02 -0.37672120492E+02  0.14160899992E+03  0.91607916729E+02 0.  0.
        -11    1    3    3    0    0  0.18258422831E+02  0.23156125758E+02 -0.18904214676E+02  0.35027781786E+02  0.00000000000E+00 0. -1.
         11    1    3    3    0    0  0.54123648505E+02 -0.69812764215E+02 -0.19463388351E+03  0.21374176004E+03  0.00000000000E+00 0.  1.
        -13    1    4    4    0    0 -0.63969224206E+02 -0.14240507157E+02  0.53251768080E+01  0.65751130770E+02  0.00000000000E+00 0. -1.
         13    1    4    4    0    0 -0.28354217344E+02  0.55692792140E+02 -0.42997297300E+02  0.75857869154E+02  0.00000000000E+00 0.  1.
         21    1    1    2  502  501  0.19941370213E+02  0.52043534743E+01 -0.13307252813E+02  0.24532152749E+02  0.00000000000E+00 0.  1.
<scales pt_clust_5="13000.00000" pt_clust_6="13000.00000" pt_clust_7="13000.00000" pt_clust_8="13000.00000" pt_clust_9="20.60931"></scales>
<clustering>
<clus scale="   20.609">  1  9  2 -1</clus>
<clus scale="   91.608">  7  8 -1 -1</clus>
<clus scale="   94.190">  5  6 -1 -1</clus>
<clus scale="  128.231">  1  7  2 -1</clus>
<clus scale="   20.609">  1  5  2 -1</clus>
</clustering>
</event>
<event>
 9    1  0.9000149E-006  0.1103332E+03  0.7546771E-02  0.1262514E+00
          1   -1    0    0  502    0  0.00000000000E+00  0.00000000000E+00  0.30980466077E+03  0.30980466077E+03  0.00000000000E+00 0. -1.
         -1   -1    0    0    0  501 -0.00000000000E+00 -0.00000000000E+00 -0.71663760248E+02  0.71663760248E+02  0.00000000000E+00 0.  1.
         23    2    1    2    0    0  0.69167377093E+02  0.46811437474E+01  0.16595593783E+02  0.11469068308E+03  0.89847091726E+02 0.  0.
         23    2    1    2    0    0 -0.20831357361E+02 -0.17896088376E+01  0.12777511512E+03  0.16124300141E+03  0.96102431345E+02 0.  0.
        -11    1    3    3    0    0  0.63821261732E+02 -0.34349389146E+02  0.14727754038E+01  0.72492779304E+02  0.00000000000E+00 0.  1.
         11    1    3    3    0    0  0.53461153610E+01  0.39030532893E+02  0.15122818379E+02  0.42197903776E+02  0.00000000000E+00 0. -1.
        -13    1    4    4    0    0  0.28283934706E+01 -0.22675472210E+02 -0.61380867898E+01  0.23661212121E+02  0.00000000000E+00 0.  1.
         13    1    4    4    0    0 -0.23659750832E+02  0.20885863373E+02  0.13391320191E+03  0.13758178929E+03  0.00000000000E+00 0. -1.
         21    1    1    2  502  501 -0.48336019732E+02 -0.28915349098E+01  0.93770191617E+02  0.10553473653E+03  0.00000000000E+00 0. -1.
<scales pt_clust_5="13000.00000" pt_clust_6="13000.00000" pt_clust_7="13000.00000" pt_clust_8="13000.00000" pt_clust_9="48.42243"></scales>
<clustering>
<clus scale="   48.422">  1  9  2 -1</clus>
<clus scale="   89.847">  5  6 -1 -1</clus>
<clus scale="   96.102">  7  8 -1 -1</clus>
<clus scale="  104.930">  2  5  1 -1</clus>
<clus scale="   48.422">  1  5  2 -1</clus>
</clustering>
</event>
<event>
 9    1  0.9000149E-006  0.1264639E+03  0.7546771E-02  0.1233050E+00
          1   -1    0    0  502    0  0.00000000000E+00  0.00000000000E+00  0.29883951072E+02  0.29883951072E+02  0.00000000000E+00 0. -1.
         -1   -1    0    0    0  501 -0.00000000000E+00 -0.00000000000E+00 -0.76425787481E+03  0.76425787481E+03  0.00000000000E+00 0.  1.
         23    2    1    2    0    0  0.67390059384E+02  0.41637968644E+02 -0.40089015241E+03  0.41877017138E+03  0.91544533448E+02 0.  0.
         23    2    1    2    0    0 -0.91201646022E+02 -0.40849218867E+02 -0.32158612264E+03  0.34874144930E+03  0.90645271628E+02 0.  0.
        -13    1    4    4    0    0 -0.66594729216E+02  0.43731005203E+01 -0.26020736930E+03  0.26862959071E+03  0.00000000000E+00 0.  1.
         13    1    4    4    0    0 -0.24606916806E+02 -0.45222319387E+02 -0.61378753335E+02  0.80111858588E+02  0.00000000000E+00 0. -1.
        -13    1    3    3    0    0  0.53502745022E+02  0.70723473228E+02 -0.28463927418E+03  0.29813397960E+03  0.00000000000E+00 0. -1.
         13    1    3    3    0    0  0.13887314363E+02 -0.29085504584E+02 -0.11625087823E+03  0.12063619178E+03  0.00000000000E+00 0.  1.
         21    1    1    2  502  501  0.23811586638E+02 -0.78874977754E+00 -0.11897648686E+02  0.26630205194E+02  0.00000000000E+00 0. -1.
<scales pt_clust_5="13000.00000" pt_clust_6="13000.00000" pt_clust_7="13000.00000" pt_clust_8="13000.00000" pt_clust_9="23.82465"></scales>
<clustering>
<clus scale="   23.825">  1  9  2 -1</clus>
<clus scale="   90.645">  5  6 -1 -1</clus>
<clus scale="   91.545">  7  8 -1 -1</clus>
<clus scale="  125.814">  1  5  2 -1</clus>
<clus scale="   23.825">  1  5  2 -1</clus>
</clustering>
</event>
<event>
 9    1  0.9000149E-006  0.2000534E+03  0.7546771E-02  0.1150573E+00
          1   -1    0    0  502    0  0.00000000000E+00  0.00000000000E+00  0.42233169248E+03  0.42233169248E+03  0.00000000000E+00 0. -1.
         -1   -1    0    0    0  501 -0.00000000000E+00 -0.00000000000E+00 -0.39120130924E+03  0.39120130924E+03  0.00000000000E+00 0.  1.
         23    2    1    2    0    0  0.13008129901E+03 -0.11384064811E+03 -0.31330230869E+03  0.37053156942E+03  0.96200154833E+02 0.  0.
         23    2    1    2    0    0 -0.13826041431E+03  0.14109672127E+03  0.19532165835E+03  0.29119928545E+03  0.87305479249E+02 0.  0.
        -11    1    4    4    0    0 -0.42747812500E+02  0.12882038334E+02  0.87519206575E+01  0.45496357001E+02  0.00000000000E+00 0.  1.
         11    1    4    4    0    0 -0.95512601809E+02  0.12821468294E+03  0.18656973769E+03  0.24570292845E+03  0.00000000000E+00 0. -1.
        -13    1    3    3    0    0  0.13508970960E+03 -0.78389192759E+02 -0.21371651948E+03  0.26470520561E+03  0.00000000000E+00 0.  1.
         13    1    3    3    0    0 -0.50084105878E+01 -0.35451455354E+02 -0.99585789214E+02  0.10582636381E+03  0.00000000000E+00 0. -1.
         21    1    1    2  502  501  0.81791153015E+01 -0.27256073158E+02  0.14911103358E+03  0.15180214685E+03  0.00000000000E+00 0.  1.
<scales pt_clust_5="13000.00000" pt_clust_6="13000.00000" pt_clust_7="13000.00000" pt_clust_8="13000.00000" pt_clust_9="28.45683"></scales>
<clustering>
<clus scale="   28.457">  1  9  2 -1</clus>
<clus scale="   87.305">  5  6 -1 -1</clus>
<clus scale="   96.200">  7  8 -1 -1</clus>
<clus scale="  195.932">  1  5  2 -1</clus>
<clus scale="   28.457">  1  5  2 -1</clus>
</clustering>
</event>
<event>
 9    1  0.9000149E-006  0.2201681E+03  0.7546771E-02  0.1134603E+00
         -4   -1    0    0    0  501 -0.00000000000E+00  0.00000000000E+00  0.36986687381E+03  0.36986687381E+03  0.00000000000E+00 0.  1.
          4   -1    0    0  502    0  0.00000000000E+00 -0.00000000000E+00 -0.17112813462E+03  0.17112813462E+03  0.00000000000E+00 0. -1.
         23    2    1    2    0    0  0.17884410907E+03 -0.65359384693E+02  0.17381674060E+03  0.27736310731E+03  0.10227888084E+03 0.  0.
         23    2    1    2    0    0 -0.18103979389E+03  0.94277880915E+02  0.44866508104E+02  0.22843411831E+03  0.92224818010E+02 0.  0.
        -11    1    3    3    0    0  0.94321434166E+02 -0.75214993567E+02  0.14245109409E+03  0.18667121473E+03  0.00000000000E+00 0.  1.
         11    1    3    3    0    0  0.84522674902E+02  0.98556088744E+01  0.31365646512E+02  0.90691892582E+02  0.00000000000E+00 0. -1.
        -13    1    4    4    0    0 -0.76002925604E+02  0.85860412348E+02  0.44669773209E+02  0.12306032564E+03  0.00000000000E+00 0.  1.
         13    1    4    4    0    0 -0.10503686828E+03  0.84174685663E+01  0.19673489488E+00  0.10537379266E+03  0.00000000000E+00 0. -1.
         21    1    1    2  502  501  0.21956848174E+01 -0.28918496222E+02 -0.19944509513E+02  0.35197782818E+02  0.00000000000E+00 0. -1.
<scales pt_clust_5="13000.00000" pt_clust_6="13000.00000" pt_clust_7="13000.00000" pt_clust_8="13000.00000" pt_clust_9="29.00173"></scales>
<clustering>
<clus scale="   29.002">  2  9  1 -1</clus>
<clus scale="   92.225">  7  8 -1 -1</clus>
<clus scale="  102.279">  5  6 -1 -1</clus>
<clus scale="  215.681">  2  7  1 -1</clus>
<clus scale="   29.002">  2  5  1 -1</clus>
</clustering>
</event>
<event>
 9    1  0.9000149E-006  0.1620321E+03  0.7546771E-02  0.1186643E+00
         -1   -1    0    0    0  501 -0.00000000000E+00  0.00000000000E+00  0.48877494233E+03  0.48877494233E+03  0.00000000000E+00 0.  1.
          1   -1    0    0  502    0  0.00000000000E+00 -0.00000000000E+00 -0.14423940063E+03  0.14423940063E+03  0.00000000000E+00 0. -1.
         23    2    1    2    0    0  0.12587751395E+03  0.29888864000E+02  0.18275863448E+03  0.24184726930E+03  0.91383206773E+02 0.  0.
         23    2    1    2    0    0 -0.14055638528E+03  0.96003789002E+02  0.17945792060E+03  0.26319423444E+03  0.89962407900E+02 0.  0.
        -11    1    4    4    0    0 -0.10904793907E+03  0.10385896469E+03  0.17424944321E+03  0.23030633083E+03  0.00000000000E+00 0. -1.
         11    1    4    4    0    0 -0.31508446202E+02 -0.78551756908E+01  0.52084773874E+01  0.32887903610E+02  0.00000000000E+00 0.  1.
        -11    1    3    3    0    0  0.11018214362E+03 -0.14163961013E+02  0.13749571530E+03  0.17676479935E+03  0.00000000000E+00 0.  1.
         11    1    3    3    0    0  0.15695370331E+02  0.44052825013E+02  0.45262919183E+02  0.65082469947E+02  0.00000000000E+00 0. -1.
         21    1    1    2  502  501  0.14678871326E+02 -0.12589265300E+03 -0.17681013377E+02  0.12797283922E+03  0.00000000000E+00 0.  1.
<scales pt_clust_5="13000.00000" pt_clust_6="13000.00000" pt_clust_7="13000.00000" pt_clust_8="13000.00000" pt_clust_9="126.74553"></scales>
<clustering>
<clus scale="   89.962">  5  6 -1 -1</clus>
<clus scale="   91.383">  7  8 -1 -1</clus>
<clus scale="  126.746">  2  9  1 -1</clus>
<clus scale="  161.235">  2  5  1 -1</clus>
<clus scale="  126.746">  2  5  1 -1</clus>
</clustering>
</event>
<event>
 9    1  0.9000149E-006  0.1020481E+03  0.7546771E-02  0.1281199E+00
         -4   -1    0    0    0  501 -0.00000000000E+00  0.00000000000E+00  0.17163453890E+03  0.17163453890E+03  0.00000000000E+00 0.  1.
          4   -1    0    0  502    0  0.00000000000E+00 -0.00000000000E+00 -0.75966277770E+02  0.75966277770E+02  0.00000000000E+00 0. -1.
         23    2    1    2    0    0 -0.29957510792E+02  0.90886782014E+01  0.56259504535E+02  0.10624984274E+03  0.84521244116E+02 0.  0.
         23    2    1    2    0    0  0.47769017248E+02  0.55127594640E+01  0.48095962910E+02  0.11673554589E+03  0.94877270723E+02 0.  0.
        -11    1    3    3    0    0 -0.28564811716E+02 -0.14254623562E+02  0.71523210638E+02  0.78324405016E+02  0.00000000000E+00 0.  1.
         11    1    3    3    0    0 -0.13926990763E+01  0.23343301763E+02 -0.15263706103E+02  0.27925437721E+02  0.00000000000E+00 0. -1.
        -11    1    4    4    0    0  0.29027032631E+02  0.46318399418E+02  0.56638397825E+01  0.54954907234E+02  0.00000000000E+00 0. -1.
         11    1    4    4    0    0  0.18741984616E+02 -0.40805639954E+02  0.42432123128E+02  0.61780638654E+02  0.00000000000E+00 0.  1.
         21    1    1    2  502  501 -0.17811506455E+02 -0.14601437665E+02 -0.86872063180E+01  0.24615428043E+02  0.00000000000E+00 0. -1.
<scales pt_clust_5="13000.00000" pt_clust_6="13000.00000" pt_clust_7="13000.00000" pt_clust_8="13000.00000" pt_clust_9="23.03154"></scales>
<clustering>
<clus scale="   23.032">  2  9  1 -1</clus>
<clus scale="   84.521">  5  6 -1 -1</clus>
<clus scale="   92.498">  1  5  2 -1</clus>
<clus scale="   94.877">  7  8 -1 -1</clus>
<clus scale="   23.032">  2  5  1 -1</clus>
</clustering>
</event>
<event>
 9    1  0.9000149E-006  0.2039048E+03  0.7546771E-02  0.1146560E+00
          1   -1    0    0  502    0  0.00000000000E+00  0.00000000000E+00  0.40048771537E+03  0.40048771537E+03  0.00000000000E+00 0. -1.
         -1   -1    0    0    0  501 -0.00000000000E+00 -0.00000000000E+00 -0.15547223057E+03  0.15547223057E+03  0.00000000000E+00 0.  1.
         23    2    1    2    0    0 -0.16996478125E+03 -0.68632026045E+02 -0.31872673880E+01  0.20384026551E+03  0.89119657232E+02 0.  0.
         23    2    1    2    0    0  0.17984422026E+03  0.39450643651E+02  0.16400558619E+03  0.26246300664E+03  0.89937204232E+02 0.  0.
        -11    1    3    3    0    0 -0.85709628224E+02 -0.21322060522E+02 -0.44323245464E+02  0.98819637338E+02  0.00000000000E+00 0. -1.
         11    1    3    3    0    0 -0.84255153024E+02 -0.47309965524E+02  0.41135978076E+02  0.10502062817E+03  0.00000000000E+00 0.  1.
        -13    1    4    4    0    0  0.10448900692E+03 -0.13350529661E+02  0.12238311760E+03  0.16147388854E+03  0.00000000000E+00 0. -1.
         13    1    4    4    0    0  0.75355213343E+02  0.52801173313E+02  0.41622468595E+02  0.10098911809E+03  0.00000000000E+00 0.  1.
         21    1    1    2  502  501 -0.98794390107E+01  0.29181382394E+02  0.84197165994E+02  0.89656673790E+02  0.00000000000E+00 0.  1.
<scales pt_clust_5="13000.00000" pt_clust_6="13000.00000" pt_clust_7="13000.00000" pt_clust_8="13000.00000" pt_clust_9="30.80838"></scales>
<clustering>
<clus scale="   30.808">  1  9  2 -1</clus>
<clus scale="   89.120">  5  6 -1 -1</clus>
<clus scale="   89.937">  7  8 -1 -1</clus>
<clus scale="  203.546">  2  5  1 -1</clus>
<clus scale="   30.808">  1  5  2 -1</clus>
</clustering>
</event>
<event>
 9    1  0.9000149E-006  0.2667975E+03  0.7546771E-02  0.1103309E+00
          1   -1    0    0  502    0  0.00000000000E+00  0.00000000000E+00  0.45074367264E+03  0.45074367264E+03  0.00000000000E+00 0. -1.
         -1   -1    0    0    0  501 -0.00000000000E+00 -0.00000000000E+00 -0.29800590979E+03  0.29800590979E+03  0.00000000000E+00 0.  1.
         23    2    1    2    0    0 -0.11795534313E+03 -0.22066703072E+03 -0.16147488076E+03  0.31176242610E+03  0.92272811769E+02 0.  0.
         23    2    1    2    0    0  0.14543408607E+03  0.20636194420E+03  0.30256144898E+03  0.40388931425E+03  0.88582291392E+02 0.  0.
        -13    1    4    4    0    0  0.11117918019E+03  0.82513551233E+02  0.17038987450E+03  0.21954955153E+03  0.00000000000E+00 0. -1.
         13    1    4    4    0    0  0.34254905880E+02  0.12384839297E+03  0.13217157448E+03  0.18433976272E+03  0.00000000000E+00 0.  1.
        -13    1    3    3    0    0 -0.82163326962E+02 -0.19532988223E+03 -0.16382169443E+03  0.26784720039E+03  0.00000000000E+00 0.  1.
         13    1    3    3    0    0 -0.35792016168E+02 -0.25337148493E+02  0.23468136710E+01  0.43915225714E+02  0.00000000000E+00 0. -1.
         21    1    1    2  502  501 -0.27478742943E+02  0.14305086515E+02  0.11651194627E+02  0.33097842077E+02  0.00000000000E+00 0. -1.
<scales pt_clust_5="13000.00000" pt_clust_6="13000.00000" pt_clust_7="13000.00000" pt_clust_8="13000.00000" pt_clust_9="30.97930"></scales>
<clustering>
<clus scale="   30.979">  1  9  2 -1</clus>
<clus scale="   88.582">  5  6 -1 -1</clus>
<clus scale="   92.273">  7  8 -1 -1</clus>
<clus scale="  265.544">  1  5  2 -1</clus>
<clus scale="   30.979">  1  5  2 -1</clus>
</clustering>
</event>
<event>
 9    1  0.9000149E-006  0.1016835E+03  0.7546771E-02  0.1278645E+00
         -1   -1    0    0    0  501 -0.00000000000E+00  0.00000000000E+00  0.30689177266E+03  0.30689177266E+03  0.00000000000E+00 0.  1.
          1   -1    0    0  502    0  0.00000000000E+00 -0.00000000000E+00 -0.76415704694E+02  0.76415704694E+02  0.00000000000E+00 0. -1.
         23    2    1    2    0    0  0.12439447492E+02 -0.30606764198E+02  0.15919506287E+03  0.18425957379E+03  0.86700684088E+02 0.  0.
         23    2    1    2    0    0 -0.22454582898E+02  0.72305078524E+02  0.93587043598E+02  0.15070939192E+03  0.90678296238E+02 0.  0.
        -11    1    3    3    0    0  0.31109526500E+01 -0.60083073288E+02  0.87560854094E+02  0.10623820825E+03  0.00000000000E+00 0. -1.
         11    1    3    3    0    0  0.93284948420E+01  0.29476309090E+02  0.71634208776E+02  0.78021365539E+02  0.00000000000E+00 0.  1.
        -13    1    4    4    0    0  0.26176635144E+00  0.86897736116E+02  0.86900400135E+02  0.12289411950E+03  0.00000000000E+00 0.  1.
         13    1    4    4    0    0 -0.22716349250E+02 -0.14592657592E+02  0.66866434629E+01  0.27815272417E+02  0.00000000000E+00 0. -1.
         21    1    1    2  502  501  0.10015135406E+02 -0.41698314326E+02 -0.22306038503E+02  0.48338511650E+02  0.00000000000E+00 0. -1.
<scales pt_clust_5="13000.00000" pt_clust_6="13000.00000" pt_clust_7="13000.00000" pt_clust_8="13000.00000" pt_clust_9="42.88417"></scales>
<clustering>
<clus scale="   42.884">  2  9  1 -1</clus>
<clus scale="   86.701">  5  6 -1 -1</clus>
<clus scale="   90.678">  7  8 -1 -1</clus>
<clus scale="   98.153">  1  5  2 -1</clus>
<clus scale="   42.884">  2  5  1 -1</clus>
</clustering>
</event>
<event>
 9    1  0.9000149E-006  0.1047881E+03  0.7546771E-02  0.1272507E+00
         -1   -1    0    0    0  501 -0.00000000000E+00  0.00000000000E+00  0.20807618991E+03  0.20807618991E+03  0.00000000000E+00 0.  1.
          1   -1    0    0  502    0  0.00000000000E+00 -0.00000000000E+00 -0.37054352043E+03  0.37054352043E+03  0.00000000000E+00 0. -1.
         23    2    1    2    0    0 -0.46524306937E+02 -0.95988671844E+01  0.16440873044E+03  0.19451848331E+03  0.92469239846E+02 0.  0.
         23    2    1    2    0    0  0.66334215907E+02 -0.16278977593E+02 -0.85243021744E+02  0.14028034812E+03  0.88016873393E+02 0.  0.
        -11    1    4    4    0    0  0.81328903673E+01 -0.26297127355E+02  0.90880041093E+01  0.28987490949E+02  0.00000000000E+00 0.  1.
         11    1    4    4    0    0  0.58201325540E+02  0.10018149762E+02 -0.94331025853E+02  0.11129285717E+03  0.00000000000E+00 0. -1.
        -13    1    3    3    0    0  0.16052850485E+02  0.27000581376E+02  0.52540317474E+02  0.61214462046E+02  0.00000000000E+00 0. -1.
         13    1    3    3    0    0 -0.62577157422E+02 -0.36599448560E+02  0.11186841297E+03  0.13330402127E+03  0.00000000000E+00 0.  1.
         21    1    1    2  502  501 -0.19809908971E+02  0.25877844777E+02 -0.24163303922E+03  0.24382087890E+03  0.00000000000E+00 0. -1.
<scales pt_clust_5="13000.00000" pt_clust_6="13000.00000" pt_clust_7="13000.00000" pt_clust_8="13000.00000" pt_clust_9="32.58980"></scales>
<clustering>
<clus scale="   32.590">  2  9  1 -1</clus>
<clus scale="   88.017">  5  6 -1 -1</clus>
<clus scale="   92.469">  7  8 -1 -1</clus>
<clus scale="  100.881">  2  5  1 -1</clus>
<clus scale="   32.590">  2  5  1 -1</clus>
</clustering>
</event>
<event>
 9    1  0.9000149E-006  0.1144636E+03  0.7546771E-02  0.1256802E+00
         -2   -1    0    0    0  501 -0.00000000000E+00  0.00000000000E+00  0.33309234726E+03  0.33309234726E+03  0.00000000000E+00 0.  1.
          2   -1    0    0  502    0  0.00000000000E+00 -0.00000000000E+00 -0.46714039924E+02  0.46714039924E+02  0.00000000000E+00 0. -1.
         23    2    1    2    0    0  0.43164472706E+02 -0.11118116265E+02  0.17024601257E+03  0.20346982347E+03  0.10212482585E+03 0.  0.
         23    2    1    2    0    0 -0.62880358275E+02  0.28132423671E+01  0.10074641292E+03  0.14998485723E+03  0.91562895826E+02 0.  0.
        -11    1    4    4    0    0 -0.56589912327E+01  0.27233017447E+02 -0.40542962335E+01  0.28108695078E+02  0.00000000000E+00 0. -1.
         11    1    4    4    0    0 -0.57221367043E+02 -0.24419775080E+02  0.10480070916E+03  0.12187616215E+03  0.00000000000E+00 0.  1.
        -11    1    3    3    0    0  0.60486998989E+02  0.15033901795E+02  0.15790522696E+03  0.16976087874E+03  0.00000000000E+00 0. -1.
         11    1    3    3    0    0 -0.17322526283E+02 -0.26152018060E+02  0.12340785608E+02  0.33708944731E+02  0.00000000000E+00 0.  1.
         21    1    1    2  502  501  0.19715885569E+02  0.83048738981E+01  0.15385881843E+02  0.26351706479E+02  0.00000000000E+00 0. -1.
<scales pt_clust_5="13000.00000" pt_clust_6="13000.00000" pt_clust_7="13000.00000" pt_clust_8="13000.00000" pt_clust_9="21.39362"></scales>
<clustering>
<clus scale="   21.394">  2  9  1 -1</clus>
<clus scale="   91.563">  5  6 -1 -1</clus>
<clus scale="  102.125">  7  8 -1 -1</clus>
<clus scale="  105.148">  2  5  1 -1</clus>
<clus scale="   21.394">  2  5  1 -1</clus>
</clustering>
</event>
<event>
 9    1  0.1919640E-005  0.9929954E+02  0.7546771E-02  0.1282184E+00
         -2   -1    0    0    0  501 -0.00000000000E+00  0.00000000000E+00  0.21301512425E+03  0.21301512425E+03  0.00000000000E+00 0.  1.
          2   -1    0    0  502    0  0.00000000000E+00 -0.00000000000E+00 -0.24980298357E+03  0.24980298357E+03  0.00000000000E+00 0. -1.
         23    2    1    2    0    0  0.25474908159E+02  0.21481041918E+02  0.18323562733E+03  0.20805372182E+03  0.92739689079E+02 0.  0.
         23    2    1    2    0    0 -0.38973663880E+02 -0.40004020199E+01 -0.20282963876E+03  0.22677478824E+03  0.93552084579E+02 0.  0.
        -11    1    3    3    0    0  0.48564664783E+02 -0.16050057993E+02  0.71229222666E+02  0.87691123774E+02  0.00000000000E+00 0. -1.
         11    1    3    3    0    0 -0.23089756624E+02  0.37531099911E+02  0.11200640467E+03  0.12036259804E+03  0.00000000000E+00 0.  1.
        -13    1    4    4    0    0 -0.32159090529E+00 -0.35777861607E+02 -0.14918626297E+03  0.15341675222E+03  0.00000000000E+00 0. -1.
         13    1    4    4    0    0 -0.38652072975E+02  0.31777459587E+02 -0.53643375793E+02  0.73358036026E+02  0.00000000000E+00 0.  1.
         21    1    1    2  502  501  0.13498755721E+02 -0.17480639898E+02 -0.17193847889E+02  0.27989597755E+02  0.00000000000E+00 0.  1.
<scales pt_clust_5="13000.00000" pt_clust_6="13000.00000" pt_clust_7="13000.00000" pt_clust_8="13000.00000" pt_clust_9="22.08595"></scales>
<clustering>
<clus scale="   22.086">  2  9  1 -1</clus>
<clus scale="   92.740">  5  6 -1 -1</clus>
<clus scale="   93.552">  7  8 -1 -1</clus>
<clus scale="   98.535">  1  5  2 -1</clus>
<clus scale="   22.086">  2  5  1 -1</clus>
</clustering>
</event>
<event>
 9    1  0.9000149E-006  0.9700073E+02  0.7546771E-02  0.1289919E+00
         -1   -1    0    0    0  501 -0.00000000000E+00  0.00000000000E+00  0.15416149339E+03  0.15416149339E+03  0.00000000000E+00 0.  1.
          1   -1    0    0  502    0  0.00000000000E+00 -0.00000000000E+00 -0.39930653408E+03  0.39930653408E+03  0.00000000000E+00 0. -1.
         23    2    1    2    0    0  0.21246431633E+02  0.12997285981E+02  0.12784259432E+03  0.16061210271E+03  0.93979669689E+02 0.  0.
         23    2    1    2    0    0 -0.19541256185E+02  0.10664887590E+02 -0.22011402179E+03  0.23815250624E+03  0.88152329064E+02 0.  0.
        -11    1    3    3    0    0  0.35261511388E+02  0.28056881781E+02  0.13212589190E+03  0.13959876114E+03  0.00000000000E+00 0.  1.
         11    1    3    3    0    0 -0.14015079755E+02 -0.15059595800E+02 -0.42832975744E+01  0.21013341579E+02  0.00000000000E+00 0. -1.
        -13    1    4    4    0    0 -0.14368356011E+01 -0.27188663534E+02 -0.20250587527E+02  0.33931905583E+02  0.00000000000E+00 0.  1.
         13    1    4    4    0    0 -0.18104420584E+02  0.37853551124E+02 -0.19986343426E+03  0.20422060066E+03  0.00000000000E+00 0. -1.
         21    1    1    2  502  501 -0.17051754482E+01 -0.23662173571E+02 -0.15287361322E+03  0.15470341851E+03  0.00000000000E+00 0. -1.
<scales pt_clust_5="13000.00000" pt_clust_6="13000.00000" pt_clust_7="13000.00000" pt_clust_8="13000.00000" pt_clust_9="23.72353"></scales>
<clustering>
<clus scale="   23.724">  2  9  1 -1</clus>
<clus scale="   88.152">  7  8 -1 -1</clus>
<clus scale="   91.366">  2  7  1 -1</clus>
<clus scale="   93.980">  5  6 -1 -1</clus>
<clus scale="   23.724">  2  5  1 -1</clus>
</clustering>
</event>
<event>
 9    1  0.9000149E-006  0.1086403E+03  0.7546771E-02  0.1264493E+00
          1   -1    0    0  502    0  0.00000000000E+00  0.00000000000E+00  0.11010232793E+03  0.11010232793E+03  0.00000000000E+00 0. -1.
         -1   -1    0    0    0  501 -0.00000000000E+00 -0.00000000000E+00 -0.14439339686E+03  0.14439339686E+03  0.00000000000E+00 0.  1.
         23    2    1    2    0    0 -0.54078503850E+01  0.43177459380E+02 -0.38232229152E+02  0.10448344971E+03  0.86957173783E+02 0.  0.
         23    2    1    2    0    0 -0.65150595264E+01 -0.72365378878E+02  0.14117603155E+02  0.11688146742E+03  0.90458701330E+02 0.  0.
        -11    1    3    3    0    0 -0.44770931778E+02  0.14939329424E+02 -0.28298791453E+02  0.55031277412E+02  0.00000000000E+00 0.  1.
         11    1    3    3    0    0  0.39363081393E+02  0.28238129955E+02 -0.99334376999E+01  0.49452172295E+02  0.00000000000E+00 0. -1.
        -11    1    4    4    0    0 -0.34850268110E+02 -0.18574155802E+02  0.34826116967E+02  0.52653574181E+02  0.00000000000E+00 0.  1.
         11    1    4    4    0    0  0.28335208583E+02 -0.53791223075E+02 -0.20708513812E+02  0.64227893237E+02  0.00000000000E+00 0. -1.
         21    1    1    2  502  501  0.11922909911E+02  0.29187919498E+02 -0.10176442938E+02  0.33130807661E+02  0.00000000000E+00 0.  1.
<scales pt_clust_5="13000.00000" pt_clust_6="13000.00000" pt_clust_7="13000.00000" pt_clust_8="13000.00000" pt_clust_9="31.52920"></scales>
<clustering>
<clus scale="   31.529">  2  9  1 -1</clus>
<clus scale="   86.957">  5  6 -1 -1</clus>
<clus scale="   90.459">  7  8 -1 -1</clus>
<clus scale="  105.743">  2  5  1 -1</clus>
<clus scale="  108.640">  1  5  2 -1</clus>
</clustering>
</event>
<event>
 9    1  0.9000149E-006  0.1960569E+03  0.7546771E-02  0.1176283E+00
         -1   -1    0    0    0  501 -0.00000000000E+00  0.00000000000E+00  0.10904140622E+03  0.10904140622E+03  0.00000000000E+00 0.  1.
          1   -1    0    0  502    0  0.00000000000E+00 -0.00000000000E+00 -0.10141747311E+04  0.10141747311E+04  0.00000000000E+00 0. -1.
         23    2    1    2    0    0 -0.16242682597E+03  0.83892037573E+02 -0.22798107904E+02  0.20606348805E+03  0.92315002125E+02 0.  0.
         23    2    1    2    0    0  0.65007659574E+02 -0.97497903179E+01 -0.28229691197E+03  0.30475283356E+03  0.94136543597E+02 0.  0.
        -11    1    4    4    0    0 -0.18213427303E+02 -0.24147806596E+02 -0.68629881690E+02  0.74999374386E+02  0.00000000000E+00 0.  1.
         11    1    4    4    0    0  0.83221086877E+02  0.14398016278E+02 -0.21366703027E+03  0.22975345917E+03  0.00000000000E+00 0. -1.
        -11    1    3    3    0    0 -0.14263562515E+02  0.50720871015E+02 -0.11833812631E+01  0.52701578376E+02  0.00000000000E+00 0. -1.
         11    1    3    3    0    0 -0.14816326346E+03  0.33171166558E+02 -0.21614726641E+02  0.15336190967E+03  0.00000000000E+00 0.  1.
         21    1    1    2  502  501  0.97419166400E+02 -0.74142247255E+02 -0.60003830498E+03  0.61239981569E+03  0.00000000000E+00 0. -1.
<scales pt_clust_5="13000.00000" pt_clust_6="13000.00000" pt_clust_7="13000.00000" pt_clust_8="13000.00000" pt_clust_9="172.96316"></scales>
<clustering>
<clus scale="   92.315">  7  8 -1 -1</clus>
<clus scale="   94.137">  5  6 -1 -1</clus>
<clus scale="  114.816">  2  5  1 -1</clus>
<clus scale="  172.963">  2  9  1 -1</clus>
<clus scale="  114.816">  2  5  1 -1</clus>
</clustering>
</event>
<event>
 9    1  0.9000149E-006  0.9413125E+02  0.7546771E-02  0.1293724E+00
         -1   -1    0    0    0  501 -0.00000000000E+00  0.00000000000E+00  0.15087886550E+03  0.15087886550E+03  0.00000000000E+00 0.  1.
          1   -1    0    0  502    0  0.00000000000E+00 -0.00000000000E+00 -0.11008515497E+03  0.11008515497E+03  0.00000000000E+00 0. -1.
         23    2    1    2    0    0  0.32882860355E+02  0.15739598744E+02  0.62369437402E+02  0.11562859062E+03  0.90282926251E+02 0.  0.
         23    2    1    2    0    0 -0.16324830322E+02  0.53964130871E+01  0.22601576653E+02  0.93638877733E+02  0.89228845093E+02 0.  0.
        -11    1    4    4    0    0 -0.41481704976E+02  0.33325188115E+02  0.15077151267E+02  0.55304796365E+02  0.00000000000E+00 0. -1.
         11    1    4    4    0    0  0.25156874654E+02 -0.27928775028E+02  0.75244253858E+01  0.38334081368E+02  0.00000000000E+00 0.  1.
        -13    1    3    3    0    0 -0.17382552982E+02 -0.16146056705E+02  0.49261568692E+02  0.54676781592E+02  0.00000000000E+00 0.  1.
         13    1    3    3    0    0  0.50265413337E+02  0.31885655449E+02  0.13107868711E+02  0.60951809025E+02  0.00000000000E+00 0. -1.
         21    1    1    2  502  501 -0.16558030033E+02 -0.21136011831E+02 -0.44177303526E+02  0.51696552124E+02  0.00000000000E+00 0.  1.
<scales pt_clust_5="13000.00000" pt_clust_6="13000.00000" pt_clust_7="13000.00000" pt_clust_8="13000.00000" pt_clust_9="26.84957"></scales>
<clustering>
<clus scale="   26.850">  2  9  1 -1</clus>
<clus scale="   89.229">  5  6 -1 -1</clus>
<clus scale="   90.283">  7  8 -1 -1</clus>
<clus scale="   93.121">  2  5  1 -1</clus>
<clus scale="   26.850">  2  5  1 -1</clus>
</clustering>
</event>
<event>
 9    1  0.9000149E-006  0.1064551E+03  0.7546771E-02  0.1267576E+00
          1   -1    0    0  502    0  0.00000000000E+00  0.00000000000E+00  0.61603424203E+03  0.61603424203E+03  0.00000000000E+00 0. -1.
         -1   -1    0    0    0  501 -0.00000000000E+00 -0.00000000000E+00 -0.43523395819E+02  0.43523395819E+02  0.00000000000E+00 0.  1.
         23    2    1    2    0    0  0.37012289498E+02  0.34789312612E+02  0.51183289625E+02  0.11652560530E+03  0.91532954222E+02 0.  0.
         23    2    1    2    0    0 -0.31947460614E+02 -0.67967670075E+02  0.38495268089E+03  0.40258787063E+03  0.90819505822E+02 0.  0.
        -11    1    4    4    0    0 -0.58146623412E+02 -0.29122730146E+02  0.28312489369E+03  0.29049762246E+03  0.00000000000E+00 0. -1.
         11    1    4    4    0    0  0.26199162798E+02 -0.38844939929E+02  0.10182778720E+03  0.11209024817E+03  0.00000000000E+00 0.  1.
        -13    1    3    3    0    0 -0.28627627583E+02  0.21553105808E+01  0.26795226188E+02  0.39270479641E+02  0.00000000000E+00 0. -1.
         13    1    3    3    0    0  0.65639917081E+02  0.32634002031E+02  0.24388063437E+02  0.77255125663E+02  0.00000000000E+00 0.  1.
         21    1    1    2  502  501 -0.50648288845E+01  0.33178357464E+02  0.13637487569E+03  0.14044416192E+03  0.00000000000E+00 0. -1.
<scales pt_clust_5="13000.00000" pt_clust_6="13000.00000" pt_clust_7="13000.00000" pt_clust_8="13000.00000" pt_clust_9="33.56272"></scales>
<clustering>
<clus scale="   33.563">  1  9  2 -1</clus>
<clus scale="   90.820">  5  6 -1 -1</clus>
<clus scale="   91.533">  7  8 -1 -1</clus>
<clus scale="  105.842">  1  5  2 -1</clus>
<clus scale="   33.563">  1  5  2 -1</clus>
</clustering>
</event>
<event>
 9    1  0.9000149E-006  0.9813895E+02  0.7546771E-02  0.1284454E+00
         -1   -1    0    0    0  501 -0.00000000000E+00  0.00000000000E+00  0.23652890373E+03  0.23652890373E+03  0.00000000000E+00 0.  1.
          1   -1    0    0  502    0  0.00000000000E+00 -0.00000000000E+00 -0.12236588955E+03  0.12236588955E+03  0.00000000000E+00 0. -1.
         23    2    1    2    0    0  0.18601957656E+02  0.52724198203E+02  0.14503026276E+03  0.18024960446E+03  0.91270306698E+02 0.  0.
         23    2    1    2    0    0 -0.67957102417E+01  0.12813088872E+02  0.19900845768E+02  0.94907963649E+02  0.91657629130E+02 0.  0.
        -13    1    3    3    0    0  0.11929828229E+02 -0.23551688688E+02  0.18085085101E+02  0.32001142866E+02  0.00000000000E+00 0. -1.
         13    1    3    3    0    0  0.66721294273E+01  0.76275886892E+02  0.12694517766E+03  0.14824846159E+03  0.00000000000E+00 0.  1.
        -13    1    4    4    0    0  0.23205632018E+02 -0.24878789614E+02 -0.13162662009E+02  0.36478914473E+02  0.00000000000E+00 0. -1.
         13    1    4    4    0    0 -0.30001342259E+02  0.37691878486E+02  0.33063507777E+02  0.58429049176E+02  0.00000000000E+00 0.  1.
         21    1    1    2  502  501 -0.11806247414E+02 -0.65537287075E+02 -0.50768094356E+02  0.83737225173E+02  0.00000000000E+00 0. -1.
<scales pt_clust_5="13000.00000" pt_clust_6="13000.00000" pt_clust_7="13000.00000" pt_clust_8="13000.00000" pt_clust_9="66.59222"></scales>
<clustering>
<clus scale="   66.592">  2  9  1 -1</clus>
<clus scale="   91.270">  5  6 -1 -1</clus>
<clus scale="   91.658">  7  8 -1 -1</clus>
<clus scale="   97.777">  1  5  2 -1</clus>
<clus scale="   66.592">  2  5  1 -1</clus>
</clustering>
</event>
<event>
 9    1  0.9000149E-006  0.1405591E+03  0.7546771E-02  0.1222667E+00
         -1   -1    0    0    0  501 -0.00000000000E+00  0.00000000000E+00  0.63156629051E+02  0.63156629051E+02  0.00000000000E+00 0.  1.
          1   -1    0    0  502    0  0.00000000000E+00 -0.00000000000E+00 -0.49937285746E+03  0.49937285746E+03  0.00000000000E+00 0. -1.
         23    2    1    2    0    0  0.53807580196E+02  0.49804418322E+02 -0.99775286139E+02  0.15229227683E+03  0.88668450343E+02 0.  0.
         23    2    1    2    0    0 -0.65574370093E+01 -0.79592000976E+02 -0.12517558763E+03  0.19171278042E+03  0.12127232100E+03 0.  0.
        -11    1    4    4    0    0 -0.18823106190E+01 -0.57788837891E+02  0.64806237011E+01  0.58181537979E+02  0.00000000000E+00 0.  1.
         11    1    4    4    0    0 -0.46751263903E+01 -0.21803163084E+02 -0.13165621133E+03  0.13353124245E+03  0.00000000000E+00 0. -1.
        -13    1    3    3    0    0  0.35049126042E+02 -0.30762693312E+01  0.28821249894E+01  0.35301718283E+02  0.00000000000E+00 0.  1.
         13    1    3    3    0    0  0.18758454154E+02  0.52880687653E+02 -0.10265741113E+03  0.11699055854E+03  0.00000000000E+00 0. -1.
         21    1    1    2  502  501 -0.47250143187E+02  0.29787582653E+02 -0.21126535464E+03  0.21852442926E+03  0.00000000000E+00 0. -1.
<scales pt_clust_5="13000.00000" pt_clust_6="13000.00000" pt_clust_7="13000.00000" pt_clust_8="13000.00000" pt_clust_9="55.85585"></scales>
<clustering>
<clus scale="   55.856">  2  9  1 -1</clus>
<clus scale="   88.668">  7  8 -1 -1</clus>
<clus scale="  113.631">  1  7  2 -1</clus>
<clus scale="  121.272">  5  6 -1 -1</clus>
<clus scale="   55.856">  2  5  1 -1</clus>
</clustering>
</event>
<event>
 9    1  0.9000149E-006  0.2668099E+03  0.7546771E-02  0.1103800E+00
          2   -1    0    0  502    0  0.00000000000E+00  0.00000000000E+00  0.31826292416E+03  0.31826292416E+03  0.00000000000E+00 0. -1.
         -2   -1    0    0    0  501 -0.00000000000E+00 -0.00000000000E+00 -0.32088699039E+03  0.32088699039E+03  0.00000000000E+00 0.  1.
         23    2    1    2    0    0 -0.20927735323E+03 -0.12613080365E+03 -0.16260271096E+03  0.31085119162E+03  0.10238569977E+03 0.  0.
         23    2    1    2    0    0  0.19034477608E+03  0.13514217327E+03  0.12663019519E+03  0.28890625732E+03  0.11374127838E+03 0.  0.
        -13    1    4    4    0    0  0.15742224664E+03  0.11947424379E+03  0.49708994326E+02  0.20378136025E+03  0.00000000000E+00 0.  1.
         13    1    4    4    0    0  0.32922529432E+02  0.15667929480E+02  0.76921200868E+02  0.85124897071E+02  0.00000000000E+00 0. -1.
        -13    1    3    3    0    0 -0.12864898040E+03 -0.60209596341E+02 -0.14893894922E+03  0.20581196818E+03  0.00000000000E+00 0.  1.
         13    1    3    3    0    0 -0.80628372824E+02 -0.65921207304E+02 -0.13663761740E+02  0.10503922344E+03  0.00000000000E+00 0. -1.
         21    1    1    2  502  501  0.18932577152E+02 -0.90113696292E+01  0.33348449536E+02  0.39392465608E+02  0.00000000000E+00 0. -1.
<scales pt_clust_5="13000.00000" pt_clust_6="13000.00000" pt_clust_7="13000.00000" pt_clust_8="13000.00000" pt_clust_9="20.96777"></scales>
<clustering>
<clus scale="   20.968">  1  9  2 -1</clus>
<clus scale="  102.386">  7  8 -1 -1</clus>
<clus scale="  113.741">  5  6 -1 -1</clus>
<clus scale="  262.170">  2  7  1 -1</clus>
<clus scale="   20.968">  1  5  2 -1</clus>
</clustering>
</event>
<event>
 9    1  0.9000149E-006  0.4481108E+03  0.7546771E-02  0.1080845E+00
         -1   -1    0    0    0  501 -0.00000000000E+00  0.00000000000E+00  0.24533223722E+03  0.24533223722E+03  0.00000000000E+00 0.  1.
          1   -1    0    0  502    0  0.00000000000E+00 -0.00000000000E+00 -0.25630428035E+04  0.25630428035E+04  0.00000000000E+00 0. -1.
         23    2    1    2    0    0  0.51083782463E+02  0.22143371798E+02  0.89656518946E+02  0.13525110437E+03  0.84585389396E+02 0.  0.
         23    2    1    2    0    0  0.65424757884E+02  0.42821735277E+03 -0.20194286300E+04  0.20674051342E+04  0.91768716083E+02 0.  0.
        -11    1    4    4    0    0 -0.58513998257E+01  0.13568900604E+03 -0.48185813957E+03  0.50063261171E+03  0.00000000000E+00 0.  1.
         11    1    4    4    0    0  0.71276157710E+02  0.29252834672E+03 -0.15375704904E+04  0.15667725225E+04  0.00000000000E+00 0. -1.
        -13    1    3    3    0    0  0.38892641068E+01  0.43582849187E+02  0.19206442461E+02  0.47785756775E+02  0.00000000000E+00 0. -1.
         13    1    3    3    0    0  0.47194518356E+02 -0.21439477390E+02  0.70450076485E+02  0.87465347598E+02  0.00000000000E+00 0.  1.
         21    1    1    2  502  501 -0.11650854035E+03 -0.45036072456E+03 -0.38793845527E+03  0.60571880215E+03  0.00000000000E+00 0.  1.
<scales pt_clust_5="13000.00000" pt_clust_6="13000.00000" pt_clust_7="13000.00000" pt_clust_8="13000.00000" pt_clust_9="438.61352"></scales>
<clustering>
<clus scale="   84.585">  7  8 -1 -1</clus>
<clus scale="   91.769">  5  6 -1 -1</clus>
<clus scale="  101.265">  1  7  2 -1</clus>
<clus scale="  438.614">  1  9  2 -1</clus>
<clus scale="  448.111">  2  5  1 -1</clus>
</clustering>
</event>
<event>
 9    1  0.9000149E-006  0.1226067E+03  0.7546771E-02  0.1239644E+00
         -1   -1    0    0    0  501 -0.00000000000E+00  0.00000000000E+00  0.41228079471E+02  0.41228079471E+02  0.00000000000E+00 0.  1.
          1   -1    0    0  502    0  0.00000000000E+00 -0.00000000000E+00 -0.57159160113E+03  0.57159160113E+03  0.00000000000E+00 0. -1.
         23    2    1    2    0    0 -0.50394263934E+02  0.57547862135E+02 -0.12241336280E+03  0.17057407734E+03  0.90879844819E+02 0.  0.
         23    2    1    2    0    0  0.84965070794E+02 -0.47638246614E+02 -0.27957064520E+03  0.30892403451E+03  0.88237450361E+02 0.  0.
        -13    1    4    4    0    0  0.90602626820E+02 -0.81216576452E+01 -0.18085429525E+03  0.20244276579E+03  0.00000000000E+00 0. -1.
         13    1    4    4    0    0 -0.56375560253E+01 -0.39516588969E+02 -0.98716349944E+02  0.10648126872E+03  0.00000000000E+00 0.  1.
        -13    1    3    3    0    0 -0.22985043855E+02  0.65232662646E+02 -0.12408510820E+03  0.14205888425E+03  0.00000000000E+00 0. -1.
         13    1    3    3    0    0 -0.27409220079E+02 -0.76848005108E+01  0.16717454013E+01  0.28515193089E+02  0.00000000000E+00 0.  1.
         21    1    1    2  502  501 -0.34570806861E+02 -0.99096155205E+01 -0.12837951366E+03  0.13332156875E+03  0.00000000000E+00 0.  1.
<scales pt_clust_5="13000.00000" pt_clust_6="13000.00000" pt_clust_7="13000.00000" pt_clust_8="13000.00000" pt_clust_9="35.96305"></scales>
<clustering>
<clus scale="   35.963">  2  9  1 -1</clus>
<clus scale="   88.237">  5  6 -1 -1</clus>
<clus scale="   90.880">  7  8 -1 -1</clus>
<clus scale="  120.661">  2  5  1 -1</clus>
<clus scale="   35.963">  2  5  1 -1</clus>
</clustering>
</event>
<event>
 9    1  0.9000149E-006  0.1349846E+03  0.7546771E-02  0.1220471E+00
         -2   -1    0    0    0  501 -0.00000000000E+00  0.00000000000E+00  0.50219244991E+02  0.50219244991E+02  0.00000000000E+00 0.  1.
          2   -1    0    0  502    0  0.00000000000E+00 -0.00000000000E+00 -0.59431000394E+03  0.59431000394E+03  0.00000000000E+00 0. -1.
         23    2    1    2    0    0  0.35082657045E+02 -0.89919863259E+02 -0.98165986458E+02  0.16529714247E+03  0.91488850573E+02 0.  0.
         23    2    1    2    0    0 -0.61473049777E+02  0.88726754653E+02 -0.30649409571E+03  0.33732090195E+03  0.90528378684E+02 0.  0.
        -11    1    4    4    0    0 -0.23770093215E+02  0.36630992760E+02 -0.28874664047E+02  0.52350675123E+02  0.00000000000E+00 0.  1.
         11    1    4    4    0    0 -0.37702956562E+02  0.52095761893E+02 -0.27761943167E+03  0.28497022683E+03  0.00000000000E+00 0. -1.
        -11    1    3    3    0    0  0.31408632700E+02 -0.11332697667E+02 -0.76845450575E+02  0.83786368334E+02  0.00000000000E+00 0. -1.
         11    1    3    3    0    0  0.36740243454E+01 -0.78587165592E+02 -0.21320535883E+02  0.81510774141E+02  0.00000000000E+00 0.  1.
         21    1    1    2  502  501  0.26390392732E+02  0.11931086063E+01 -0.13943067678E+03  0.14191120450E+03  0.00000000000E+00 0. -1.
<scales pt_clust_5="13000.00000" pt_clust_6="13000.00000" pt_clust_7="13000.00000" pt_clust_8="13000.00000" pt_clust_9="26.41735"></scales>
<clustering>
<clus scale="   26.417">  2  9  1 -1</clus>
<clus scale="   90.528">  5  6 -1 -1</clus>
<clus scale="   91.489">  7  8 -1 -1</clus>
<clus scale="  134.335">  2  5  1 -1</clus>
<clus scale="   26.417">  2  5  1 -1</clus>
</clustering>
</event>
<event>
 9    1  0.9000149E-006  0.1983311E+03  0.7546771E-02  0.1174512E+00
          2   -1    0    0  502    0  0.00000000000E+00  0.00000000000E+00  0.22782539274E+03  0.22782539274E+03  0.00000000000E+00 0. -1.
         -2   -1    0    0    0  501 -0.00000000000E+00 -0.00000000000E+00 -0.76842008756E+03  0.76842008756E+03  0.00000000000E+00 0.  1.
         23    2    1    2    0    0 -0.98572926138E+02 -0.13438968354E+03 -0.46416451773E+03  0.50158743680E+03  0.91455171677E+02 0.  0.
         23    2    1    2    0    0  0.40332584491E+02 -0.59665161063E+02  0.15099377027E+03  0.19007493178E+03  0.90236978078E+02 0.  0.
        -13    1    4    4    0    0 -0.13029824594E+01 -0.72012356499E+02  0.94562042345E+02  0.11886739294E+03  0.00000000000E+00 0.  1.
         13    1    4    4    0    0  0.41635566950E+02  0.12347195436E+02  0.56431727927E+02  0.71207538837E+02  0.00000000000E+00 0. -1.
        -13    1    3    3    0    0 -0.49470202579E+02 -0.35791640949E+02 -0.72794444666E+02  0.95012492228E+02  0.00000000000E+00 0. -1.
         13    1    3    3    0    0 -0.49102723559E+02 -0.98598042590E+02 -0.39137007307E+03  0.40657494457E+03  0.00000000000E+00 0.  1.
         21    1    1    2  502  501  0.58240341647E+02  0.19405484460E+03 -0.22742394736E+03  0.30458311172E+03  0.00000000000E+00 0. -1.
<scales pt_clust_5="13000.00000" pt_clust_6="13000.00000" pt_clust_7="13000.00000" pt_clust_8="13000.00000" pt_clust_9="175.98630"></scales>
<clustering>
<clus scale="   90.237">  5  6 -1 -1</clus>
<clus scale="   91.455">  7  8 -1 -1</clus>
<clus scale="  115.453">  1  5  2 -1</clus>
<clus scale="  175.986">  1  9  2 -1</clus>
<clus scale="  115.453">  1  5  2 -1</clus>
</clustering>
</event>
<event>
 9    1  0.9000149E-006  0.1044795E+03  0.7546771E-02  0.1271228E+00
          1   -1    0    0  502    0  0.00000000000E+00  0.00000000000E+00  0.38981305674E+03  0.38981305674E+03  0.00000000000E+00 0. -1.
         -1   -1    0    0    0  501 -0.00000000000E+00 -0.00000000000E+00 -0.12046597738E+03  0.12046597738E+03  0.00000000000E+00 0.  1.
         23    2    1    2    0    0  0.16768934147E+00  0.49582247163E+02 -0.80041812182E+02  0.13066187761E+03  0.90594741625E+02 0.  0.
         23    2    1    2    0    0 -0.11436852070E+02 -0.72681601053E+02  0.23590137570E+03  0.26325569196E+03  0.90778210898E+02 0.  0.
        -11    1    4    4    0    0 -0.49209812404E+02 -0.22747968002E+02  0.11226106057E+03  0.12466603951E+03  0.00000000000E+00 0.  1.
         11    1    4    4    0    0  0.37772960334E+02 -0.49933633051E+02  0.12364031513E+03  0.13858965245E+03  0.00000000000E+00 0. -1.
        -11    1    3    3    0    0 -0.32303801886E+02  0.18452591540E+02  0.18287455098E+01  0.37247524226E+02  0.00000000000E+00 0. -1.
         11    1    3    3    0    0  0.32471491227E+02  0.31129655623E+02 -0.81870557692E+02  0.93414353386E+02  0.00000000000E+00 0.  1.
         21    1    1    2  502  501  0.11269162729E+02  0.23099353890E+02  0.11348751585E+03  0.11636146455E+03  0.00000000000E+00 0.  1.
<scales pt_clust_5="13000.00000" pt_clust_6="13000.00000" pt_clust_7="13000.00000" pt_clust_8="13000.00000" pt_clust_9="25.70164"></scales>
<clustering>
<clus scale="   25.702">  1  9  2 -1</clus>
<clus scale="   90.595">  7  8 -1 -1</clus>
<clus scale="   90.778">  5  6 -1 -1</clus>
<clus scale="  104.320">  2  7  1 -1</clus>
<clus scale="   25.702">  1  5  2 -1</clus>
</clustering>
</event>
<event>
 9    1  0.9000149E-006  0.9097653E+02  0.7546771E-02  0.1301429E+00
         -2   -1    0    0    0  501 -0.00000000000E+00  0.00000000000E+00  0.80043199342E+02  0.80043199342E+02  0.00000000000E+00 0.  1.
          2   -1    0    0  502    0  0.00000000000E+00 -0.00000000000E+00 -0.35603952723E+03  0.35603952723E+03  0.00000000000E+00 0. -1.
         23    2    1    2    0    0  0.38029676673E+01 -0.85396467082E+01  0.31352174406E+02  0.96180397681E+02  0.90445132147E+02 0.  0.
         23    2    1    2    0    0 -0.30403994841E+02 -0.11721668834E+02 -0.13848075212E+03  0.16775572683E+03  0.88900307944E+02 0.  0.
        -11    1    3    3    0    0  0.29303317688E+02  0.29158737826E+02  0.29208848728E+02  0.50616926647E+02  0.00000000000E+00 0.  1.
         11    1    3    3    0    0 -0.25500350021E+02 -0.37698384534E+02  0.21433256777E+01  0.45563471034E+02  0.00000000000E+00 0. -1.
        -11    1    4    4    0    0  0.59720189615E+01 -0.34877799856E+02 -0.17815714458E+02  0.39617238861E+02  0.00000000000E+00 0.  1.
         11    1    4    4    0    0 -0.36376013803E+02  0.23156131022E+02 -0.12066503766E+03  0.12813848797E+03  0.00000000000E+00 0. -1.
         21    1    1    2  502  501  0.26601027174E+02  0.20261315542E+02 -0.16886775017E+03  0.17214660206E+03  0.00000000000E+00 0. -1.
<scales pt_clust_5="13000.00000" pt_clust_6="13000.00000" pt_clust_7="13000.00000" pt_clust_8="13000.00000" pt_clust_9="33.43853"></scales>
<clustering>
<clus scale="   33.439">  2  9  1 -1</clus>
<clus scale="   88.900">  7  8 -1 -1</clus>
<clus scale="   89.441">  2  7  1 -1</clus>
<clus scale="   90.445">  5  6 -1 -1</clus>
<clus scale="   33.439">  2  5  1 -1</clus>
</clustering>
</event>
<event>
 9    1  0.9000149E-006  0.1320100E+03  0.7546771E-02  0.1224754E+00
          1   -1    0    0  502    0  0.00000000000E+00  0.00000000000E+00  0.78054986724E+03  0.78054986724E+03  0.00000000000E+00 0. -1.
         -1   -1    0    0    0  501 -0.00000000000E+00 -0.00000000000E+00 -0.39099360684E+02  0.39099360684E+02  0.00000000000E+00 0.  1.
         23    2    1    2    0    0  0.55855064428E+02 -0.88098491139E+02  0.13744586201E+03  0.19582377210E+03  0.92598338924E+02 0.  0.
         23    2    1    2    0    0 -0.43629134086E+02  0.55215431797E+02  0.38265536804E+03  0.39971327148E+03  0.91615083126E+02 0.  0.
        -11    1    4    4    0    0 -0.64194520499E+01 -0.23423377262E+02  0.46231132102E+02  0.52222423751E+02  0.00000000000E+00 0.  1.
         11    1    4    4    0    0 -0.37209682037E+02  0.78638809060E+02  0.33642423594E+03  0.34749084773E+03  0.00000000000E+00 0. -1.
        -13    1    3    3    0    0 -0.22483785631E+02 -0.44340710834E+02  0.51158732050E+02  0.71336071651E+02  0.00000000000E+00 0. -1.
         13    1    3    3    0    0  0.78338850059E+02 -0.43757780305E+02  0.86287129961E+02  0.12448770045E+03  0.00000000000E+00 0.  1.
         21    1    1    2  502  501 -0.12225930342E+02  0.32883059342E+02  0.22134927650E+03  0.22411218434E+03  0.00000000000E+00 0. -1.
<scales pt_clust_5="13000.00000" pt_clust_6="13000.00000" pt_clust_7="13000.00000" pt_clust_8="13000.00000" pt_clust_9="35.08232"></scales>
<clustering>
<clus scale="   35.082">  1  9  2 -1</clus>
<clus scale="   91.615">  5  6 -1 -1</clus>
<clus scale="   92.598">  7  8 -1 -1</clus>
<clus scale="  131.322">  1  5  2 -1</clus>
<clus scale="   35.082">  1  5  2 -1</clus>
</clustering>
</event>
<event>
 9    1  0.9000149E-006  0.1664429E+03  0.7546771E-02  0.1181937E+00
          3   -1    0    0  502    0  0.00000000000E+00  0.00000000000E+00  0.38410583729E+03  0.38410583729E+03  0.00000000000E+00 0. -1.
         -3   -1    0    0    0  501 -0.00000000000E+00 -0.00000000000E+00 -0.14616906856E+03  0.14616906856E+03  0.00000000000E+00 0.  1.
         23    2    1    2    0    0  0.13288152666E+03  0.52421481490E+02 -0.62395596034E+02  0.17810958984E+03  0.86164399505E+02 0.  0.
         23    2    1    2    0    0 -0.13016367505E+03 -0.28733034917E+02  0.25802461144E+03  0.30360118099E+03  0.88480548104E+02 0.  0.
        -11    1    4    4    0    0 -0.73334310440E+02 -0.17479819810E+01  0.21556073004E+03  0.22770025223E+03  0.00000000000E+00 0. -1.
         11    1    4    4    0    0 -0.56829364608E+02 -0.26985052936E+02  0.42463881401E+02  0.75900928765E+02  0.00000000000E+00 0.  1.
        -11    1    3    3    0    0  0.12065675381E+03  0.14798580277E+02 -0.66112859298E+02  0.13837615540E+03  0.00000000000E+00 0.  1.
         11    1    3    3    0    0  0.12224772849E+02  0.37622901213E+02  0.37172632640E+01  0.39733434448E+02  0.00000000000E+00 0. -1.
         21    1    1    2  502  501 -0.27178516081E+01 -0.23688446573E+02  0.42307753320E+02  0.48564135011E+02  0.00000000000E+00 0.  1.
<scales pt_clust_5="13000.00000" pt_clust_6="13000.00000" pt_clust_7="13000.00000" pt_clust_8="13000.00000" pt_clust_9="23.84385"></scales>
<clustering>
<clus scale="   23.844">  1  9  2 -1</clus>
<clus scale="   86.164">  7  8 -1 -1</clus>
<clus scale="   88.481">  5  6 -1 -1</clus>
<clus scale="  165.223">  2  7  1 -1</clus>
<clus scale="   23.844">  1  5  2 -1</clus>
</clustering>
</event>
<event>
 9    1  0.9000149E-006  0.1941502E+03  0.7546771E-02  0.1155197E+00
         -2   -1    0    0    0  501 -0.00000000000E+00  0.00000000000E+00  0.10017948979E+03  0.10017948979E+03  0.00000000000E+00 0.  1.
          2   -1    0    0  502    0  0.00000000000E+00 -0.00000000000E+00 -0.71601998540E+03  0.71601998540E+03  0.00000000000E+00 0. -1.
         23    2    1    2    0    0 -0.82574528035E+02 -0.14706267543E+03 -0.36075640622E+02  0.19636535811E+03  0.93871821316E+02 0.  0.
         23    2    1    2    0    0  0.10263945589E+03  0.14376469079E+03 -0.50921949627E+03  0.54641664184E+03  0.89797031557E+02 0.  0.
        -11    1    4    4    0    0  0.80854285887E+02  0.50466591202E+02 -0.32616540199E+03  0.33980606502E+03  0.00000000000E+00 0.  1.
         11    1    4    4    0    0  0.21785170001E+02  0.93298099590E+02 -0.18305409428E+03  0.20661057682E+03  0.00000000000E+00 0. -1.
        -11    1    3    3    0    0  0.80718227400E+01 -0.18780563564E+02  0.20937776702E+02  0.29261824676E+02  0.00000000000E+00 0. -1.
         11    1    3    3    0    0 -0.90646350775E+02 -0.12828211186E+03 -0.57013417323E+02  0.16710353344E+03  0.00000000000E+00 0.  1.
         21    1    1    2  502  501 -0.20064927853E+02  0.32979846331E+01 -0.70545358719E+02  0.73417475230E+02  0.00000000000E+00 0.  1.
<scales pt_clust_5="13000.00000" pt_clust_6="13000.00000" pt_clust_7="13000.00000" pt_clust_8="13000.00000" pt_clust_9="20.33416"></scales>
<clustering>
<clus scale="   20.334">  2  9  1 -1</clus>
<clus scale="   89.797">  5  6 -1 -1</clus>
<clus scale="   93.872">  7  8 -1 -1</clus>
<clus scale="  192.213">  2  5  1 -1</clus>
<clus scale="   20.334">  2  5  1 -1</clus>
</clustering>
</event>
<event>
 9    1  0.9000149E-006  0.1428086E+03  0.7546771E-02  0.1228511E+00
         -1   -1    0    0    0  501 -0.00000000000E+00  0.00000000000E+00  0.31346463321E+02  0.31346463321E+02  0.00000000000E+00 0.  1.
          1   -1    0    0  502    0  0.00000000000E+00 -0.00000000000E+00 -0.10676936104E+04  0.10676936104E+04  0.00000000000E+00 0. -1.
         23    2    1    2    0    0  0.12542511061E+03 -0.29485733490E+02 -0.54192862049E+03  0.56480664492E+03  0.93375851218E+02 0.  0.
         23    2    1    2    0    0 -0.31115874980E+02 -0.58451146303E+01 -0.30460357644E+03  0.31935621722E+03  0.90568712365E+02 0.  0.
        -13    1    4    4    0    0 -0.49069967509E+02  0.28620827327E+02 -0.16885514611E+03  0.17815463462E+03  0.00000000000E+00 0.  1.
         13    1    4    4    0    0  0.17954092529E+02 -0.34465941957E+02 -0.13574843032E+03  0.14120158260E+03  0.00000000000E+00 0. -1.
        -13    1    3    3    0    0  0.13592066951E+03 -0.10453835449E+02 -0.44214044509E+03  0.46267902942E+03  0.00000000000E+00 0.  1.
         13    1    3    3    0    0 -0.10495558898E+02 -0.19031898042E+02 -0.99788175397E+02  0.10212761551E+03  0.00000000000E+00 0. -1.
         21    1    1    2  502  501 -0.94309235631E+02  0.35330848121E+02 -0.18981495015E+03  0.21487721158E+03  0.00000000000E+00 0.  1.
<scales pt_clust_5="13000.00000" pt_clust_6="13000.00000" pt_clust_7="13000.00000" pt_clust_8="13000.00000" pt_clust_9="108.05200"></scales>
<clustering>
<clus scale="   90.569">  5  6 -1 -1</clus>
<clus scale="   93.376">  7  8 -1 -1</clus>
<clus scale="   95.943">  2  5  1 -1</clus>
<clus scale="  108.052">  1  9  2 -1</clus>
<clus scale="   95.943">  2  5  1 -1</clus>
</clustering>
</event>
<event>
 9    1  0.9000149E-006  0.9953173E+02  0.7546771E-02  0.1282266E+00
         -1   -1    0    0    0  501 -0.00000000000E+00  0.00000000000E+00  0.41642618397E+02  0.41642618397E+02  0.00000000000E+00 0. -1.
          1   -1    0    0  502    0  0.00000000000E+00 -0.00000000000E+00 -0.43450586242E+03  0.43450586242E+03  0.00000000000E+00 0.  1.
         23    2    1    2    0    0  0.66862456843E+00 -0.24309681082E+02 -0.81727316544E+02  0.12367523860E+03  0.89581263220E+02 0.  0.
         23    2    1    2    0    0 -0.22917842579E+02  0.62969023940E+02 -0.16950012884E+03  0.20397990248E+03  0.91581556287E+02 0.  0.
        -11    1    3    3    0    0 -0.33262774909E+02 -0.15786498784E+02 -0.23074870296E+01  0.36891059010E+02  0.00000000000E+00 0. -1.
         11    1    3    3    0    0  0.33931399478E+02 -0.85231822986E+01 -0.79419829514E+02  0.86784179590E+02  0.00000000000E+00 0.  1.
        -13    1    4    4    0    0  0.18657166717E+01  0.57136631016E+02 -0.34868240878E+02  0.66961703417E+02  0.00000000000E+00 0. -1.
         13    1    4    4    0    0 -0.24783559250E+02  0.58323929238E+01 -0.13463188797E+03  0.13701819906E+03  0.00000000000E+00 0.  1.
         21    1    1    2  502  501  0.22249218010E+02 -0.38659342857E+02 -0.14163579863E+03  0.14849333974E+03  0.00000000000E+00 0.  1.
<scales pt_clust_5="13000.00000" pt_clust_6="13000.00000" pt_clust_7="13000.00000" pt_clust_8="13000.00000" pt_clust_9="44.60462"></scales>
<clustering>
<clus scale="   44.605">  2  9  1 -1</clus>
<clus scale="   89.581">  5  6 -1 -1</clus>
<clus scale="   91.582">  7  8 -1 -1</clus>
<clus scale="   97.694">  1  5  2 -1</clus>
<clus scale="   44.605">  2  5  1 -1</clus>
</clustering>
</event>
<event>
 9    1  0.9000149E-006  0.1139677E+03  0.7546771E-02  0.1255405E+00
          1   -1    0    0  502    0  0.00000000000E+00  0.00000000000E+00  0.42751820237E+02  0.42751820237E+02  0.00000000000E+00 0. -1.
         -1   -1    0    0    0  501 -0.00000000000E+00 -0.00000000000E+00 -0.69658382336E+03  0.69658382336E+03  0.00000000000E+00 0.  1.
         23    2    1    2    0    0  0.30832196322E+02 -0.40689128035E+02 -0.33709892362E+03  0.35453107785E+03  0.97213020665E+02 0.  0.
         23    2    1    2    0    0 -0.85266003301E+02  0.82399213177E+01 -0.28993768546E+03  0.31600061600E+03  0.91947486308E+02 0.  0.
        -11    1    3    3    0    0  0.59149006323E+02 -0.47745849978E+02 -0.19147840078E+03  0.20601516717E+03  0.00000000000E+00 0. -1.
         11    1    3    3    0    0 -0.28316810001E+02  0.70567219436E+01 -0.14562052284E+03  0.14851591069E+03  0.00000000000E+00 0.  1.
        -13    1    4    4    0    0 -0.33608468032E+02 -0.37948825386E+02 -0.78026818594E+02  0.93047444304E+02  0.00000000000E+00 0.  1.
         13    1    4    4    0    0 -0.51657535269E+02  0.46188746704E+02 -0.21191086687E+03  0.22295317169E+03  0.00000000000E+00 0. -1.
         21    1    1    2  502  501  0.54433806979E+02  0.32449206717E+02 -0.26795394040E+02  0.68803949745E+02  0.00000000000E+00 0. -1.
<scales pt_clust_5="13000.00000" pt_clust_6="13000.00000" pt_clust_7="13000.00000" pt_clust_8="13000.00000" pt_clust_9="63.37184"></scales>
<clustering>
<clus scale="   63.372">  1  9  2 -1</clus>
<clus scale="   91.947">  7  8 -1 -1</clus>
<clus scale="   97.213">  5  6 -1 -1</clus>
<clus scale="  109.511">  1  7  2 -1</clus>
<clus scale="   63.372">  1  5  2 -1</clus>
</clustering>
</event>
<event>
 9    1  0.9000149E-006  0.1061639E+03  0.7546771E-02  0.1268247E+00
         -2   -1    0    0    0  501 -0.00000000000E+00  0.00000000000E+00  0.20677575226E+03  0.20677575226E+03  0.00000000000E+00 0.  1.
          2   -1    0    0  502    0  0.00000000000E+00 -0.00000000000E+00 -0.10573207400E+03  0.10573207400E+03  0.00000000000E+00 0. -1.
         23    2    1    2    0    0  0.28152368603E+02  0.24803251056E+02  0.59321520886E+02  0.11463338856E+03  0.90631196674E+02 0.  0.
         23    2    1    2    0    0 -0.62758371557E+02 -0.17540737756E+02 -0.32630207841E+02  0.11554222195E+03  0.89660380922E+02 0.  0.
        -11    1    3    3    0    0  0.49829846101E+02  0.45041209628E+02  0.49335936041E+02  0.83341218567E+02  0.00000000000E+00 0.  1.
         11    1    3    3    0    0 -0.21677477498E+02 -0.20237958572E+02  0.99855848457E+01  0.31292169988E+02  0.00000000000E+00 0. -1.
        -13    1    4    4    0    0  0.25798853573E+01  0.29930448494E+02 -0.10140489303E+02  0.31706735544E+02  0.00000000000E+00 0.  1.
         13    1    4    4    0    0 -0.65338256914E+02 -0.47471186250E+02 -0.22489718537E+02  0.83835486403E+02  0.00000000000E+00 0. -1.
         21    1    1    2  502  501  0.34606002954E+02 -0.72625133003E+01  0.74352365206E+02  0.82332215757E+02  0.00000000000E+00 0.  1.
<scales pt_clust_5="13000.00000" pt_clust_6="13000.00000" pt_clust_7="13000.00000" pt_clust_8="13000.00000" pt_clust_9="35.35986"></scales>
<clustering>
<clus scale="   35.360">  1  9  2 -1</clus>
<clus scale="   89.660">  7  8 -1 -1</clus>
<clus scale="   90.631">  5  6 -1 -1</clus>
<clus scale="  105.336">  2  7  1 -1</clus>
<clus scale="  105.336">  2  5  1 -1</clus>
</clustering>
</event>
<event>
 9    1  0.9000149E-006  0.1305296E+03  0.7546771E-02  0.1226799E+00
          1   -1    0    0  502    0  0.00000000000E+00  0.00000000000E+00  0.94605770326E+02  0.94605770326E+02  0.00000000000E+00 0. -1.
         -1   -1    0    0    0  501 -0.00000000000E+00 -0.00000000000E+00 -0.48663622069E+03  0.48663622069E+03  0.00000000000E+00 0.  1.
         23    2    1    2    0    0  0.91117797281E+02 -0.40397258566E+02 -0.27221399811E+03  0.30393627530E+03  0.91336778982E+02 0.  0.
         23    2    1    2    0    0 -0.85143331284E+02  0.11734526295E+02 -0.17460251207E+03  0.21518680704E+03  0.91827222172E+02 0.  0.
        -11    1    3    3    0    0  0.76455452415E+02  0.41973759612E+01 -0.10307466274E+03  0.12840342779E+03  0.00000000000E+00 0. -1.
         11    1    3    3    0    0  0.14662344866E+02 -0.44594634528E+02 -0.16913933538E+03  0.17553284752E+03  0.00000000000E+00 0.  1.
        -13    1    4    4    0    0 -0.90620646010E+02  0.31796693019E+02 -0.16774077685E+03  0.19328760795E+03  0.00000000000E+00 0. -1.
         13    1    4    4    0    0  0.54773147260E+01 -0.20062166724E+02 -0.68617352218E+01  0.21899199084E+02  0.00000000000E+00 0.  1.
         21    1    1    2  502  501 -0.59744659967E+01  0.28662732271E+02  0.54786059817E+02  0.62118908679E+02  0.00000000000E+00 0. -1.
<scales pt_clust_5="13000.00000" pt_clust_6="13000.00000" pt_clust_7="13000.00000" pt_clust_8="13000.00000" pt_clust_9="29.27877"></scales>
<clustering>
<clus scale="   29.279">  1  9  2 -1</clus>
<clus scale="   91.337">  5  6 -1 -1</clus>
<clus scale="   91.827">  7  8 -1 -1</clus>
<clus scale="  130.185">  2  5  1 -1</clus>
<clus scale="   29.279">  1  5  2 -1</clus>
</clustering>
</event>
<event>
 9    1  0.9000149E-006  0.9589993E+02  0.7546771E-02  0.1293557E+00
         -1   -1    0    0    0  501 -0.00000000000E+00  0.00000000000E+00  0.32243965747E+02  0.32243965747E+02  0.00000000000E+00 0.  1.
          1   -1    0    0  502    0  0.00000000000E+00 -0.00000000000E+00 -0.69732748613E+03  0.69732748613E+03  0.00000000000E+00 0. -1.
         23    2    1    2    0    0 -0.83891919333E+00  0.17579169011E+02 -0.73174402542E+02  0.11379543658E+03  0.85353249676E+02 0.  0.
         23    2    1    2    0    0  0.45615671154E+02 -0.23817827584E+02 -0.26210925435E+03  0.28289190884E+03  0.93158426899E+02 0.  0.
        -11    1    3    3    0    0 -0.39816385108E+02 -0.78125863417E+01 -0.32086374972E+02  0.51729261422E+02  0.00000000000E+00 0.  1.
         11    1    3    3    0    0  0.38977465915E+02  0.25391755353E+02 -0.41088027570E+02  0.62066175157E+02  0.00000000000E+00 0. -1.
        -13    1    4    4    0    0  0.20578628400E+02  0.30494802110E+02 -0.47356275246E+02  0.59966905103E+02  0.00000000000E+00 0.  1.
         13    1    4    4    0    0  0.25037042754E+02 -0.54312629694E+02 -0.21475297911E+03  0.22292500373E+03  0.00000000000E+00 0. -1.
         21    1    1    2  502  501 -0.44776751961E+02  0.62386585724E+01 -0.32979986349E+03  0.33288410646E+03  0.00000000000E+00 0. -1.
<scales pt_clust_5="13000.00000" pt_clust_6="13000.00000" pt_clust_7="13000.00000" pt_clust_8="13000.00000" pt_clust_9="45.20927"></scales>
<clustering>
<clus scale="   45.209">  2  9  1 -1</clus>
<clus scale="   85.353">  5  6 -1 -1</clus>
<clus scale="   88.337">  1  5  2 -1</clus>
<clus scale="   93.158">  7  8 -1 -1</clus>
<clus scale="   45.209">  2  5  1 -1</clus>
</clustering>
</event>
<event>
 9    1  0.9000149E-006  0.1155394E+03  0.7546771E-02  0.1251372E+00
         -1   -1    0    0    0  501 -0.00000000000E+00  0.00000000000E+00  0.10869750759E+03  0.10869750759E+03  0.00000000000E+00 0.  1.
          1   -1    0    0  502    0  0.00000000000E+00 -0.00000000000E+00 -0.25983556019E+03  0.25983556019E+03  0.00000000000E+00 0. -1.
         23    2    1    2    0    0 -0.45973701570E+02 -0.30133912044E+02 -0.25536304919E+01  0.10738024889E+03  0.92208258480E+02 0.  0.
         23    2    1    2    0    0  0.72960645198E+02  0.51985085734E+02 -0.20825886672E+02  0.12875941916E+03  0.90108632101E+02 0.  0.
        -11    1    4    4    0    0  0.10865249040E+02 -0.20305815730E+02  0.14397130296E+02  0.27159844438E+02  0.00000000000E+00 0.  1.
         11    1    4    4    0    0  0.62095396158E+02  0.72290901463E+02 -0.35223016968E+02  0.10159957472E+03  0.00000000000E+00 0. -1.
        -11    1    3    3    0    0 -0.30379328302E+02  0.88514218858E+01 -0.40080686849E+02  0.51065768532E+02  0.00000000000E+00 0. -1.
         11    1    3    3    0    0 -0.15594373268E+02 -0.38985333930E+02  0.37527056357E+02  0.56314480358E+02  0.00000000000E+00 0.  1.
         21    1    1    2  502  501 -0.26986943628E+02 -0.21851173690E+02 -0.12775853544E+03  0.13239339974E+03  0.00000000000E+00 0. -1.
<scales pt_clust_5="13000.00000" pt_clust_6="13000.00000" pt_clust_7="13000.00000" pt_clust_8="13000.00000" pt_clust_9="34.72418"></scales>
<clustering>
<clus scale="   34.724">  2  9  1 -1</clus>
<clus scale="   90.109">  5  6 -1 -1</clus>
<clus scale="   92.208">  7  8 -1 -1</clus>
<clus scale="  113.871">  2  5  1 -1</clus>
<clus scale="   34.724">  2  5  1 -1</clus>
</clustering>
</event>
<event>
 9    1  0.9000149E-006  0.2728034E+03  0.7546771E-02  0.1099742E+00
         -1   -1    0    0    0  501 -0.00000000000E+00  0.00000000000E+00  0.78116821354E+03  0.78116821354E+03  0.00000000000E+00 0.  1.
          1   -1    0    0  502    0  0.00000000000E+00 -0.00000000000E+00 -0.15483851577E+03  0.15483851577E+03  0.00000000000E+00 0. -1.
         23    2    1    2    0    0  0.19484030932E+03 -0.17310611224E+03  0.57756663019E+03  0.64017655640E+03  0.91182996333E+02 0.  0.
         23    2    1    2    0    0 -0.19558579069E+03  0.14915488527E+03  0.61002479760E+02  0.26892254897E+03  0.89983629014E+02 0.  0.
        -11    1    4    4    0    0 -0.15724466208E+03  0.67618768942E+02  0.30956535722E+02  0.17394392421E+03  0.00000000000E+00 0. -1.
         11    1    4    4    0    0 -0.38341128606E+02  0.81536116325E+02  0.30045944038E+02  0.94978624760E+02  0.00000000000E+00 0.  1.
        -13    1    3    3    0    0  0.84563307283E+02 -0.19227560730E+02  0.18892573631E+03  0.20787877686E+03  0.00000000000E+00 0.  1.
         13    1    3    3    0    0  0.11027700204E+03 -0.15387855151E+03  0.38864089388E+03  0.43229777954E+03  0.00000000000E+00 0. -1.
         21    1    1    2  502  501  0.74548136557E+00  0.23951226971E+02 -0.12239412183E+02  0.26907623947E+02  0.00000000000E+00 0. -1.
<scales pt_clust_5="13000.00000" pt_clust_6="13000.00000" pt_clust_7="13000.00000" pt_clust_8="13000.00000" pt_clust_9="23.96283"></scales>
<clustering>
<clus scale="   23.963">  2  9  1 -1</clus>
<clus scale="   89.984">  5  6 -1 -1</clus>
<clus scale="   91.183">  7  8 -1 -1</clus>
<clus scale="  272.405">  2  5  1 -1</clus>
<clus scale="   23.963">  2  5  1 -1</clus>
</clustering>
</event>
<event>
 9    1  0.9000149E-006  0.1254504E+03  0.7546771E-02  0.1235713E+00
         -1   -1    0    0    0  501 -0.00000000000E+00  0.00000000000E+00  0.45695925452E+02  0.45695925452E+02  0.00000000000E+00 0.  1.
          1   -1    0    0  502    0  0.00000000000E+00 -0.00000000000E+00 -0.84073570623E+03  0.84073570623E+03  0.00000000000E+00 0. -1.
         23    2    1    2    0    0  0.60668035590E+02 -0.66887887679E+02 -0.69260012833E+02  0.14586435065E+03  0.91240667210E+02 0.  0.
         23    2    1    2    0    0 -0.27537609981E+02  0.64309319763E+02 -0.49076324735E+03  0.50321303298E+03  0.86491520063E+02 0.  0.
        -11    1    3    3    0    0 -0.16249064176E+02 -0.28492258097E+02 -0.46554256720E+02  0.56948570454E+02  0.00000000000E+00 0. -1.
         11    1    3    3    0    0  0.76917099766E+02 -0.38395629582E+02 -0.22705756114E+02  0.88915780198E+02  0.00000000000E+00 0.  1.
        -13    1    4    4    0    0 -0.17401305129E+02 -0.19703201188E+02 -0.10052728439E+03  0.10390744181E+03  0.00000000000E+00 0.  1.
         13    1    4    4    0    0 -0.10136304852E+02  0.84012520952E+02 -0.39023596296E+03  0.39930559117E+03  0.00000000000E+00 0. -1.
         21    1    1    2  502  501 -0.33130425609E+02  0.25785679154E+01 -0.23501652060E+03  0.23735424805E+03  0.00000000000E+00 0. -1.
<scales pt_clust_5="13000.00000" pt_clust_6="13000.00000" pt_clust_7="13000.00000" pt_clust_8="13000.00000" pt_clust_9="33.23062"></scales>
<clustering>
<clus scale="   33.231">  2  9  1 -1</clus>
<clus scale="   86.492">  7  8 -1 -1</clus>
<clus scale="   91.241">  5  6 -1 -1</clus>
<clus scale="  122.040">  2  7  1 -1</clus>
<clus scale="   33.231">  2  5  1 -1</clus>
</clustering>
</event>
<event>
 9    1  0.9000149E-006  0.1516610E+03  0.7546771E-02  0.1198888E+00
         -1   -1    0    0    0  501 -0.00000000000E+00  0.00000000000E+00  0.11055379788E+03  0.11055379788E+03  0.00000000000E+00 0.  1.
          1   -1    0    0  502    0  0.00000000000E+00 -0.00000000000E+00 -0.28287107187E+03  0.28287107187E+03  0.00000000000E+00 0. -1.
         23    2    1    2    0    0 -0.55433806311E+02  0.99363058300E+02 -0.60214025930E+02  0.15770030068E+03  0.91091885910E+02 0.  0.
         23    2    1    2    0    0  0.17573888056E+02 -0.12735806270E+03 -0.97303821234E+02  0.18636753597E+03  0.93466074913E+02 0.  0.
        -11    1    3    3    0    0  0.89634060308E+01  0.76919698744E+02 -0.28879232370E+02  0.82649820114E+02  0.00000000000E+00 0. -1.
         11    1    3    3    0    0 -0.64397212342E+02  0.22443359556E+02 -0.31334793560E+02  0.75050480565E+02  0.00000000000E+00 0.  1.
        -11    1    4    4    0    0 -0.35999374264E+02 -0.37591366042E+02 -0.47933424643E+02  0.70757889640E+02  0.00000000000E+00 0. -1.
         11    1    4    4    0    0  0.53573262319E+02 -0.89766696659E+02 -0.49370396591E+02  0.11560964633E+03  0.00000000000E+00 0.  1.
         21    1    1    2  502  501  0.37859918255E+02  0.27995004401E+02 -0.14799426826E+02  0.49357033097E+02  0.00000000000E+00 0.  1.
<scales pt_clust_5="13000.00000" pt_clust_6="13000.00000" pt_clust_7="13000.00000" pt_clust_8="13000.00000" pt_clust_9="47.08602"></scales>
<clustering>
<clus scale="   47.086">  1  9  2 -1</clus>
<clus scale="   91.092">  5  6 -1 -1</clus>
<clus scale="   93.466">  7  8 -1 -1</clus>
<clus scale="  150.209">  1  5  2 -1</clus>
<clus scale="  151.661">  2  5  1 -1</clus>
</clustering>
</event>
<event>
 9    1  0.9000149E-006  0.1095912E+03  0.7546771E-02  0.1264478E+00
          2   -1    0    0  502    0  0.00000000000E+00  0.00000000000E+00  0.39530910754E+03  0.39530910754E+03  0.00000000000E+00 0.  1.
         -2   -1    0    0    0  501 -0.00000000000E+00 -0.00000000000E+00 -0.36520880601E+02  0.36520880601E+02  0.00000000000E+00 0. -1.
         23    2    1    2    0    0  0.42772427165E+02  0.36075682852E+02  0.14012502175E+03  0.18083627208E+03  0.99678483951E+02 0.  0.
         23    2    1    2    0    0 -0.26323089894E+02 -0.22473872345E+02  0.15413670117E+03  0.18302858039E+03  0.92430290436E+02 0.  0.
        -13    1    3    3    0    0  0.56879998390E+02  0.62274673822E+02  0.98613942850E+02  0.12976200885E+03  0.00000000000E+00 0.  1.
         13    1    3    3    0    0 -0.14107571225E+02 -0.26198990969E+02  0.41511078898E+02  0.51074263235E+02  0.00000000000E+00 0. -1.
        -13    1    4    4    0    0 -0.35219817976E+02  0.19446708474E+02  0.12472268965E+03  0.13105098001E+03  0.00000000000E+00 0.  1.
         13    1    4    4    0    0  0.88967280814E+01 -0.41920580820E+02  0.29414011524E+02  0.51977600375E+02  0.00000000000E+00 0. -1.
         21    1    1    2  502  501 -0.16449337271E+02 -0.13601810507E+02  0.64526504022E+02  0.67965135673E+02  0.00000000000E+00 0. -1.
<scales pt_clust_5="13000.00000" pt_clust_6="13000.00000" pt_clust_7="13000.00000" pt_clust_8="13000.00000" pt_clust_9="21.34455"></scales>
<clustering>
<clus scale="   21.345">  1  9  2 -1</clus>
<clus scale="   92.430">  7  8 -1 -1</clus>
<clus scale="   99.678">  5  6 -1 -1</clus>
<clus scale="  103.043">  1  7  2 -1</clus>
<clus scale="   21.345">  1  5  2 -1</clus>
</clustering>
</event>
<event>
 9    1  0.9000149E-006  0.1077966E+03  0.7546771E-02  0.1264745E+00
          3   -1    0    0  502    0  0.00000000000E+00  0.00000000000E+00  0.80563988160E+03  0.80563988160E+03  0.00000000000E+00 0. -1.
         -3   -1    0    0    0  501 -0.00000000000E+00 -0.00000000000E+00 -0.23110138816E+02  0.23110138816E+02  0.00000000000E+00 0.  1.
         23    2    1    2    0    0 -0.29108078444E+02  0.37570724972E+02  0.20058817418E+03  0.22493666093E+03  0.90011367087E+02 0.  0.
         23    2    1    2    0    0  0.53253370181E+02 -0.59821118904E+02  0.36365232836E+03  0.38306855762E+03  0.89911157335E+02 0.  0.
        -11    1    4    4    0    0  0.35510564898E+02  0.17128119690E+02  0.90148364325E+02  0.98392582515E+02  0.00000000000E+00 0. -1.
         11    1    4    4    0    0  0.17742805283E+02 -0.76949238594E+02  0.27350396404E+03  0.28467597511E+03  0.00000000000E+00 0.  1.
        -11    1    3    3    0    0 -0.49236463815E+02  0.55245571831E+02  0.13243233858E+03  0.15170572461E+03  0.00000000000E+00 0. -1.
         11    1    3    3    0    0  0.20128385372E+02 -0.17674846859E+02  0.68155835591E+02  0.73230936320E+02  0.00000000000E+00 0.  1.
         21    1    1    2  502  501 -0.24145291737E+02  0.22250393932E+02  0.21828924024E+03  0.22074480186E+03  0.00000000000E+00 0. -1.
<scales pt_clust_5="13000.00000" pt_clust_6="13000.00000" pt_clust_7="13000.00000" pt_clust_8="13000.00000" pt_clust_9="32.83405"></scales>
<clustering>
<clus scale="   32.834">  1  9  2 -1</clus>
<clus scale="   89.911">  5  6 -1 -1</clus>
<clus scale="   90.011">  7  8 -1 -1</clus>
<clus scale="  107.713">  1  5  2 -1</clus>
<clus scale="   32.834">  1  5  2 -1</clus>
</clustering>
</event>
<event>
 9    1  0.9000149E-006  0.1498491E+03  0.7546771E-02  0.1201200E+00
          2   -1    0    0  502    0  0.00000000000E+00  0.00000000000E+00  0.30482239469E+03  0.30482239469E+03  0.00000000000E+00 0. -1.
         -2   -1    0    0    0  501 -0.00000000000E+00 -0.00000000000E+00 -0.13261838267E+03  0.13261838267E+03  0.00000000000E+00 0.  1.
         23    2    1    2    0    0 -0.10532127751E+03 -0.54186371613E+02 -0.38647951979E+02  0.15303788500E+03  0.88871793542E+02 0.  0.
         23    2    1    2    0    0  0.93644663434E+02  0.75698483447E+02  0.12876299800E+03  0.19874244285E+03  0.91755466037E+02 0.  0.
        -11    1    3    3    0    0 -0.12425496900E+02 -0.52925505842E+02 -0.22032406907E+02  0.58659433137E+02  0.00000000000E+00 0.  1.
         11    1    3    3    0    0 -0.92895780609E+02 -0.12608657708E+01 -0.16615545071E+02  0.94378451859E+02  0.00000000000E+00 0. -1.
        -11    1    4    4    0    0  0.29513942955E+00  0.38163457696E+02  0.76207773612E+02  0.85230049686E+02  0.00000000000E+00 0. -1.
         11    1    4    4    0    0  0.93349524005E+02  0.37535025750E+02  0.52555224392E+02  0.11351239316E+03  0.00000000000E+00 0.  1.
         21    1    1    2  502  501  0.11676614074E+02 -0.21512111834E+02  0.82088965997E+02  0.85660449510E+02  0.00000000000E+00 0. -1.
<scales pt_clust_5="13000.00000" pt_clust_6="13000.00000" pt_clust_7="13000.00000" pt_clust_8="13000.00000" pt_clust_9="24.47681"></scales>
<clustering>
<clus scale="   24.477">  1  9  2 -1</clus>
<clus scale="   88.872">  5  6 -1 -1</clus>
<clus scale="   91.755">  7  8 -1 -1</clus>
<clus scale="  148.101">  2  5  1 -1</clus>
<clus scale="   24.477">  1  5  2 -1</clus>
</clustering>
</event>
<event>
 9    1  0.9000149E-006  0.1077364E+03  0.7546771E-02  0.1264952E+00
         -1   -1    0    0    0  501 -0.00000000000E+00  0.00000000000E+00  0.24481408644E+03  0.24481408644E+03  0.00000000000E+00 0.  1.
          1   -1    0    0  502    0  0.00000000000E+00 -0.00000000000E+00 -0.96072840876E+02  0.96072840876E+02  0.00000000000E+00 0. -1.
         23    2    1    2    0    0  0.80437618423E+02 -0.51481607673E+01  0.12172230077E+03  0.17152298048E+03  0.90039437538E+02 0.  0.
         23    2    1    2    0    0 -0.31169004799E+02  0.18744935384E+02  0.54198493819E+02  0.11147615491E+03  0.90369114844E+02 0.  0.
        -11    1    3    3    0    0  0.16024747692E+02  0.29521561219E+02  0.81256660396E+02  0.87925877727E+02  0.00000000000E+00 0.  1.
         11    1    3    3    0    0  0.64412870730E+02 -0.34669721986E+02  0.40465640377E+02  0.83597102757E+02  0.00000000000E+00 0. -1.
        -11    1    4    4    0    0  0.28064185051E+02 -0.52522269256E+01  0.14132836837E+01  0.28586390836E+02  0.00000000000E+00 0.  1.
         11    1    4    4    0    0 -0.59233189849E+02  0.23997162310E+02  0.52785210136E+02  0.82889764071E+02  0.00000000000E+00 0. -1.
         21    1    1    2  502  501 -0.49268613624E+02 -0.13596774617E+02 -0.27179549029E+02  0.57887791924E+02  0.00000000000E+00 0. -1.
<scales pt_clust_5="13000.00000" pt_clust_6="13000.00000" pt_clust_7="13000.00000" pt_clust_8="13000.00000" pt_clust_9="51.11036"></scales>
<clustering>
<clus scale="   51.110">  2  9  1 -1</clus>
<clus scale="   90.039">  5  6 -1 -1</clus>
<clus scale="   90.369">  7  8 -1 -1</clus>
<clus scale="  107.460">  1  5  2 -1</clus>
<clus scale="   51.110">  2  5  1 -1</clus>
</clustering>
</event>
<event>
 9    1  0.9000149E-006  0.1407741E+03  0.7546771E-02  0.1215887E+00
         -1   -1    0    0    0  501 -0.00000000000E+00  0.00000000000E+00  0.66116904105E+02  0.66116904105E+02  0.00000000000E+00 0.  1.
          1   -1    0    0  502    0  0.00000000000E+00 -0.00000000000E+00 -0.37765106421E+03  0.37765106421E+03  0.00000000000E+00 0. -1.
         23    2    1    2    0    0  0.10355657831E+03  0.63406010331E+01 -0.81842184139E+02  0.16828196928E+03  0.10419457734E+03 0.  0.
         23    2    1    2    0    0 -0.81806385661E+02  0.83981155117E+01 -0.16023309163E+03  0.20122404876E+03  0.89742192234E+02 0.  0.
        -11    1    3    3    0    0  0.87402088792E+02  0.27136176931E+02 -0.10358239582E+02  0.92102064857E+02  0.00000000000E+00 0.  1.
         11    1    3    3    0    0  0.16154489516E+02 -0.20795575898E+02 -0.71483944557E+02  0.76179904423E+02  0.00000000000E+00 0. -1.
        -11    1    4    4    0    0 -0.13736413284E+02 -0.18798181685E+02 -0.10981747993E+03  0.11225836086E+03  0.00000000000E+00 0.  1.
         11    1    4    4    0    0 -0.68069972377E+02  0.27196297196E+02 -0.50415611700E+02  0.88965687901E+02  0.00000000000E+00 0. -1.
         21    1    1    2  502  501 -0.21750192647E+02 -0.14738716545E+02 -0.69458884342E+02  0.74261950281E+02  0.00000000000E+00 0.  1.
<scales pt_clust_5="13000.00000" pt_clust_6="13000.00000" pt_clust_7="13000.00000" pt_clust_8="13000.00000" pt_clust_9="26.27357"></scales>
<clustering>
<clus scale="   26.274">  2  9  1 -1</clus>
<clus scale="   89.742">  7  8 -1 -1</clus>
<clus scale="  104.195">  5  6 -1 -1</clus>
<clus scale="  130.440">  2  7  1 -1</clus>
<clus scale="   26.274">  2  5  1 -1</clus>
</clustering>
</event>
<event>
 9    1  0.9000149E-006  0.1284866E+03  0.7546771E-02  0.1229853E+00
          2   -1    0    0  502    0  0.00000000000E+00  0.00000000000E+00  0.14510256298E+03  0.14510256298E+03  0.00000000000E+00 0.  1.
         -2   -1    0    0    0  501 -0.00000000000E+00 -0.00000000000E+00 -0.21795869892E+03  0.21795869892E+03  0.00000000000E+00 0. -1.
         23    2    1    2    0    0 -0.10482679964E+03 -0.47614642339E+02 -0.11140798622E+03  0.18459994899E+03  0.91703815013E+02 0.  0.
         23    2    1    2    0    0  0.42245661472E+02  0.11273590826E+02  0.30521721692E+02  0.10564954295E+03  0.91205595593E+02 0.  0.
        -11    1    3    3    0    0 -0.43193346160E+02  0.25879055776E+02 -0.48378766707E+02  0.69827614512E+02  0.00000000000E+00 0. -1.
         11    1    3    3    0    0 -0.61633453475E+02 -0.73493698115E+02 -0.63029219515E+02  0.11477233448E+03  0.00000000000E+00 0.  1.
        -13    1    4    4    0    0  0.55650345497E+02 -0.94630986342E+01  0.49047226890E+02  0.74780623528E+02  0.00000000000E+00 0.  1.
         13    1    4    4    0    0 -0.13404684024E+02  0.20736689460E+02 -0.18525505198E+02  0.30868919424E+02  0.00000000000E+00 0. -1.
         21    1    1    2  502  501  0.62581138163E+02  0.36341051513E+02  0.80301285881E+01  0.72811769955E+02  0.00000000000E+00 0.  1.
<scales pt_clust_5="13000.00000" pt_clust_6="13000.00000" pt_clust_7="13000.00000" pt_clust_8="13000.00000" pt_clust_9="72.36761"></scales>
<clustering>
<clus scale="   72.368">  1  9  2 -1</clus>
<clus scale="   91.206">  7  8 -1 -1</clus>
<clus scale="   91.704">  5  6 -1 -1</clus>
<clus scale="  128.132">  1  7  2 -1</clus>
<clus scale="   72.368">  1  5  2 -1</clus>
</clustering>
</event>
<event>
 9    1  0.9000149E-006  0.1006170E+03  0.7546771E-02  0.1279215E+00
          2   -1    0    0  502    0  0.00000000000E+00  0.00000000000E+00  0.32242734278E+02  0.32242734278E+02  0.00000000000E+00 0. -1.
         -2   -1    0    0    0  501 -0.00000000000E+00 -0.00000000000E+00 -0.44119994643E+03  0.44119994643E+03  0.00000000000E+00 0.  1.
         23    2    1    2    0    0  0.13024494222E+02  0.27221450664E+02 -0.19198418590E+03  0.21471613186E+03  0.91293180564E+02 0.  0.
         23    2    1    2    0    0 -0.11878444969E+02 -0.53665260185E+02 -0.20135951881E+03  0.22799594349E+03  0.91735690058E+02 0.  0.
        -11    1    4    4    0    0  0.16305295637E+02 -0.55801781791E+02 -0.58894705522E+02  0.82754382696E+02  0.00000000000E+00 0. -1.
         11    1    4    4    0    0 -0.28183740606E+02  0.21365216059E+01 -0.14246481328E+03  0.14524156080E+03  0.00000000000E+00 0.  1.
        -11    1    3    3    0    0  0.39481234247E+02  0.12725714325E+02 -0.17550591542E+03  0.18034144840E+03  0.00000000000E+00 0.  1.
         11    1    3    3    0    0 -0.26456740025E+02  0.14495736338E+02 -0.16478270477E+02  0.34374683455E+02  0.00000000000E+00 0. -1.
         21    1    1    2  502  501 -0.11460492535E+01  0.26443809521E+02 -0.15613507446E+02  0.30730605358E+02  0.00000000000E+00 0.  1.
<scales pt_clust_5="13000.00000" pt_clust_6="13000.00000" pt_clust_7="13000.00000" pt_clust_8="13000.00000" pt_clust_9="26.46863"></scales>
<clustering>
<clus scale="   26.469">  1  9  2 -1</clus>
<clus scale="   91.293">  7  8 -1 -1</clus>
<clus scale="   91.736">  5  6 -1 -1</clus>
<clus scale="  100.214">  2  7  1 -1</clus>
<clus scale="   26.469">  1  5  2 -1</clus>
</clustering>
</event>
<event>
 9    1  0.9000149E-006  0.9141085E+02  0.7546771E-02  0.1299561E+00
         -1   -1    0    0    0  501 -0.00000000000E+00  0.00000000000E+00  0.51280098611E+03  0.51280098611E+03  0.00000000000E+00 0.  1.
          1   -1    0    0  502    0  0.00000000000E+00 -0.00000000000E+00 -0.35651075689E+02  0.35651075689E+02  0.00000000000E+00 0. -1.
         23    2    1    2    0    0  0.11169079914E+02  0.31563410209E+01  0.33602495407E+03  0.34842199227E+03  0.91380545546E+02 0.  0.
         23    2    1    2    0    0  0.27339897854E+02  0.16785477668E+02  0.11105813832E+03  0.14726046608E+03  0.91227805569E+02 0.  0.
        -11    1    4    4    0    0  0.24460982058E+02 -0.35256491678E+02  0.63901444131E+02  0.76972426302E+02  0.00000000000E+00 0. -1.
         11    1    4    4    0    0  0.28789157963E+01  0.52041969347E+02  0.47156694188E+02  0.70288039782E+02  0.00000000000E+00 0.  1.
        -11    1    3    3    0    0  0.38090458446E+02 -0.30165722760E+02  0.19962967061E+03  0.20545768237E+03  0.00000000000E+00 0. -1.
         11    1    3    3    0    0 -0.26921378531E+02  0.33322063781E+02  0.13639528346E+03  0.14296430990E+03  0.00000000000E+00 0.  1.
         21    1    1    2  502  501 -0.38508977769E+02 -0.19941818689E+02  0.30066818035E+02  0.52769603449E+02  0.00000000000E+00 0.  1.
<scales pt_clust_5="13000.00000" pt_clust_6="13000.00000" pt_clust_7="13000.00000" pt_clust_8="13000.00000" pt_clust_9="43.36609"></scales>
<clustering>
<clus scale="   43.366">  2  9  1 -1</clus>
<clus scale="   91.228">  5  6 -1 -1</clus>
<clus scale="   91.258">  2  5  1 -1</clus>
<clus scale="   91.381">  7  8 -1 -1</clus>
<clus scale="   43.366">  2  5  1 -1</clus>
</clustering>
</event>
<event>
 9    1  0.9000149E-006  0.9125134E+02  0.7546771E-02  0.1302688E+00
         -2   -1    0    0    0  501 -0.00000000000E+00  0.00000000000E+00  0.21128753694E+02  0.21128753694E+02  0.00000000000E+00 0.  1.
          2   -1    0    0  502    0  0.00000000000E+00 -0.00000000000E+00 -0.72843891367E+03  0.72843891367E+03  0.00000000000E+00 0. -1.
         23    2    1    2    0    0  0.20284452628E+02 -0.17025910746E+02 -0.18417757260E+03  0.20710700774E+03  0.90942804839E+02 0.  0.
         23    2    1    2    0    0  0.22485993905E+02 -0.65491853651E+01 -0.26292537509E+03  0.27771004191E+03  0.86282111474E+02 0.  0.
        -13    1    3    3    0    0  0.79416076325E+01 -0.42340808953E+02 -0.35604762619E+02  0.55888391959E+02  0.00000000000E+00 0.  1.
         13    1    3    3    0    0  0.12342844996E+02  0.25314898208E+02 -0.14857280998E+03  0.15121861578E+03  0.00000000000E+00 0. -1.
        -13    1    4    4    0    0  0.50474963952E+02 -0.24077071984E+02 -0.15141655728E+03  0.16141375778E+03  0.00000000000E+00 0.  1.
         13    1    4    4    0    0 -0.27988970047E+02  0.17527886619E+02 -0.11150881781E+03  0.11629628413E+03  0.00000000000E+00 0. -1.
         21    1    1    2  502  501 -0.42770446533E+02  0.23575096111E+02 -0.26020721229E+03  0.26475061772E+03  0.00000000000E+00 0. -1.
<scales pt_clust_5="13000.00000" pt_clust_6="13000.00000" pt_clust_7="13000.00000" pt_clust_8="13000.00000" pt_clust_9="48.83745"></scales>
<clustering>
<clus scale="   48.837">  2  9  1 -1</clus>
<clus scale="   86.282">  7  8 -1 -1</clus>
<clus scale="   86.607">  2  7  1 -1</clus>
<clus scale="   90.943">  5  6 -1 -1</clus>
<clus scale="   48.837">  2  5  1 -1</clus>
</clustering>
</event>
<event>
 9    1  0.9000149E-006  0.1000858E+03  0.7546771E-02  0.1283003E+00
         -1   -1    0    0    0  501 -0.00000000000E+00  0.00000000000E+00  0.57453818369E+02  0.57453818369E+02  0.00000000000E+00 0.  1.
          1   -1    0    0  502    0  0.00000000000E+00 -0.00000000000E+00 -0.41284391750E+03  0.41284391750E+03  0.00000000000E+00 0. -1.
         23    2    1    2    0    0  0.50442510678E+01 -0.34514269464E+02 -0.26218897584E+02  0.10379688181E+03  0.94178993503E+02 0.  0.
         23    2    1    2    0    0 -0.33856862607E+02  0.22650296877E+02 -0.11785999101E+03  0.15290462720E+03  0.88484600043E+02 0.  0.
        -11    1    4    4    0    0  0.25965128020E+02 -0.11589749905E+02 -0.36639693061E+02  0.46378629600E+02  0.00000000000E+00 0.  1.
         11    1    4    4    0    0 -0.59821990627E+02  0.34240046782E+02 -0.81220297945E+02  0.10652599760E+03  0.00000000000E+00 0. -1.
        -13    1    3    3    0    0 -0.18241750425E+02 -0.53998431273E+02 -0.40820095763E+02  0.70106149920E+02  0.00000000000E+00 0. -1.
         13    1    3    3    0    0  0.23286001493E+02  0.19484161809E+02  0.14601198179E+02  0.33690731889E+02  0.00000000000E+00 0.  1.
         21    1    1    2  502  501  0.28812611539E+02  0.11863972587E+02 -0.21131121054E+03  0.21359622687E+03  0.00000000000E+00 0. -1.
<scales pt_clust_5="13000.00000" pt_clust_6="13000.00000" pt_clust_7="13000.00000" pt_clust_8="13000.00000" pt_clust_9="31.15960"></scales>
<clustering>
<clus scale="   31.160">  2  9  1 -1</clus>
<clus scale="   88.485">  5  6 -1 -1</clus>
<clus scale="   94.179">  7  8 -1 -1</clus>
<clus scale="   94.747">  2  5  1 -1</clus>
<clus scale="   31.160">  2  5  1 -1</clus>
</clustering>
</event>
<event>
 9    1  0.9000149E-006  0.1091790E+03  0.7546771E-02  0.1262415E+00
         -1   -1    0    0    0  501 -0.00000000000E+00  0.00000000000E+00  0.76586469267E+02  0.76586469267E+02  0.00000000000E+00 0.  1.
          1   -1    0    0  502    0  0.00000000000E+00 -0.00000000000E+00 -0.32527524315E+03  0.32527524315E+03  0.00000000000E+00 0. -1.
         23    2    1    2    0    0 -0.17799273344E+01  0.46131849597E+02 -0.14356716179E+02  0.10495825008E+03  0.93160094847E+02 0.  0.
         23    2    1    2    0    0 -0.26705335461E+02 -0.88308142070E+02 -0.15504433281E+03  0.20268672729E+03  0.92366992950E+02 0.  0.
        -11    1    3    3    0    0 -0.35603145130E+02 -0.11190655083E+02 -0.73020630958E+01  0.38028079492E+02  0.00000000000E+00 0.  1.
         11    1    3    3    0    0  0.33823217796E+02  0.57322504680E+02 -0.70546530834E+01  0.66930170588E+02  0.00000000000E+00 0. -1.
        -13    1    4    4    0    0 -0.34379940445E+02  0.10221623992E+01 -0.74937722631E+02  0.82454153286E+02  0.00000000000E+00 0. -1.
         13    1    4    4    0    0  0.76746049840E+01 -0.89330304469E+02 -0.80106610179E+02  0.12023257401E+03  0.00000000000E+00 0.  1.
         21    1    1    2  502  501  0.28485262795E+02  0.42176292473E+02 -0.79287724894E+02  0.94216735043E+02  0.00000000000E+00 0.  1.
<scales pt_clust_5="13000.00000" pt_clust_6="13000.00000" pt_clust_7="13000.00000" pt_clust_8="13000.00000" pt_clust_9="50.89450"></scales>
<clustering>
<clus scale="   50.894">  2  9  1 -1</clus>
<clus scale="   92.367">  7  8 -1 -1</clus>
<clus scale="   93.160">  5  6 -1 -1</clus>
<clus scale="  108.503">  2  7  1 -1</clus>
<clus scale="   50.894">  2  5  1 -1</clus>
</clustering>
</event>
<event>
 9    1  0.9000149E-006  0.1136718E+03  0.7546771E-02  0.1254633E+00
         -2   -1    0    0    0  501 -0.00000000000E+00  0.00000000000E+00  0.29611028578E+02  0.29611028578E+02  0.00000000000E+00 0. -1.
          2   -1    0    0  502    0  0.00000000000E+00 -0.00000000000E+00 -0.56523695272E+03  0.56523695272E+03  0.00000000000E+00 0.  1.
         23    2    1    2    0    0  0.39707258911E+02 -0.44564747736E+02 -0.18402008727E+03  0.21438131861E+03  0.92375722463E+02 0.  0.
         23    2    1    2    0    0 -0.29363587311E+02  0.65403214923E+02 -0.32627576777E+03  0.34607413940E+03  0.90397082638E+02 0.  0.
        -11    1    4    4    0    0  0.24368848534E+02  0.32574585984E+02 -0.20940524285E+03  0.21332018227E+03  0.00000000000E+00 0.  1.
         11    1    4    4    0    0 -0.53732435845E+02  0.32828628939E+02 -0.11687052492E+03  0.13275395713E+03  0.00000000000E+00 0. -1.
        -11    1    3    3    0    0  0.24792156803E+02  0.21403622290E+02 -0.10690216153E+03  0.11180714747E+03  0.00000000000E+00 0.  1.
         11    1    3    3    0    0  0.14915102108E+02 -0.65968370026E+02 -0.77117925738E+02  0.10257417114E+03  0.00000000000E+00 0. -1.
         21    1    1    2  502  501 -0.10343671600E+02 -0.20838467187E+02 -0.25330069107E+02  0.34392523284E+02  0.00000000000E+00 0.  1.
<scales pt_clust_5="13000.00000" pt_clust_6="13000.00000" pt_clust_7="13000.00000" pt_clust_8="13000.00000" pt_clust_9="23.26442"></scales>
<clustering>
<clus scale="   23.264">  1  9  2 -1</clus>
<clus scale="   90.397">  5  6 -1 -1</clus>
<clus scale="   92.376">  7  8 -1 -1</clus>
<clus scale="  112.070">  2  5  1 -1</clus>
<clus scale="  112.070">  2  5  1 -1</clus>
</clustering>
</event>
<event>
 9    1  0.9000149E-006  0.1015035E+03  0.7546771E-02  0.1277559E+00
         -1   -1    0    0    0  501 -0.00000000000E+00  0.00000000000E+00  0.61493897493E+02  0.61493897493E+02  0.00000000000E+00 0.  1.
          1   -1    0    0  502    0  0.00000000000E+00 -0.00000000000E+00 -0.39394627229E+03  0.39394627229E+03  0.00000000000E+00 0. -1.
         23    2    1    2    0    0 -0.46754505952E+02 -0.16714716227E+02 -0.12070407805E+02  0.10501913449E+03  0.91749432144E+02 0.  0.
         23    2    1    2    0    0  0.71870471310E+01  0.34646782205E+02 -0.20205039169E+03  0.22436745740E+03  0.90908426409E+02 0.  0.
        -11    1    3    3    0    0 -0.42838284336E+02 -0.47125259021E+02 -0.29018085650E+02  0.69985412318E+02  0.00000000000E+00 0. -1.
         11    1    3    3    0    0 -0.39162216158E+01  0.30410542794E+02  0.16947677844E+02  0.35033722170E+02  0.00000000000E+00 0.  1.
        -13    1    4    4    0    0  0.15130781136E+02  0.61721410482E+02 -0.99965635973E+02  0.11845506078E+03  0.00000000000E+00 0.  1.
         13    1    4    4    0    0 -0.79437340051E+01 -0.27074628277E+02 -0.10208475572E+03  0.10591239661E+03  0.00000000000E+00 0. -1.
         21    1    1    2  502  501  0.39567458821E+02 -0.17932065978E+02 -0.11833157530E+03  0.12605357789E+03  0.00000000000E+00 0.  1.
<scales pt_clust_5="13000.00000" pt_clust_6="13000.00000" pt_clust_7="13000.00000" pt_clust_8="13000.00000" pt_clust_9="43.44126"></scales>
<clustering>
<clus scale="   43.441">  2  9  1 -1</clus>
<clus scale="   90.908">  7  8 -1 -1</clus>
<clus scale="   91.749">  5  6 -1 -1</clus>
<clus scale="  100.744">  2  7  1 -1</clus>
<clus scale="   43.441">  2  5  1 -1</clus>
</clustering>
</event>
<event>
 9    1  0.9000149E-006  0.1099487E+03  0.7546771E-02  0.1261283E+00
          1   -1    0    0  502    0  0.00000000000E+00  0.00000000000E+00  0.66409415579E+03  0.66409415579E+03  0.00000000000E+00 0. -1.
         -1   -1    0    0    0  501 -0.00000000000E+00 -0.00000000000E+00 -0.55762133841E+02  0.55762133841E+02  0.00000000000E+00 0.  1.
         23    2    1    2    0    0  0.50091036284E+02 -0.21935912061E+02  0.31289951442E+02  0.10993246047E+03  0.90087672019E+02 0.  0.
         23    2    1    2    0    0 -0.91000198984E+02  0.34653522072E+02  0.27489079121E+03  0.30475061150E+03  0.88465164389E+02 0.  0.
        -11    1    3    3    0    0 -0.15809413045E+02 -0.26759456420E+02 -0.92287094092E+01  0.32421831011E+02  0.00000000000E+00 0.  1.
         11    1    3    3    0    0  0.65900449330E+02  0.48235443597E+01  0.40518660851E+02  0.77510629459E+02  0.00000000000E+00 0. -1.
        -13    1    4    4    0    0 -0.46652919032E+02 -0.24440522870E+02  0.15722439394E+03  0.16581116990E+03  0.00000000000E+00 0.  1.
         13    1    4    4    0    0 -0.44347279952E+02  0.59094044943E+02  0.11766639727E+03  0.13893944161E+03  0.00000000000E+00 0. -1.
         21    1    1    2  502  501  0.40909162700E+02 -0.12717610012E+02  0.30215127929E+03  0.30517321766E+03  0.00000000000E+00 0. -1.
<scales pt_clust_5="13000.00000" pt_clust_6="13000.00000" pt_clust_7="13000.00000" pt_clust_8="13000.00000" pt_clust_9="42.84037"></scales>
<clustering>
<clus scale="   42.840">  1  9  2 -1</clus>
<clus scale="   88.465">  7  8 -1 -1</clus>
<clus scale="   90.088">  5  6 -1 -1</clus>
<clus scale="  108.623">  1  7  2 -1</clus>
<clus scale="   42.840">  1  5  2 -1</clus>
</clustering>
</event>
<event>
 9    1  0.9000149E-006  0.1010168E+03  0.7546771E-02  0.1283752E+00
         -2   -1    0    0    0  501 -0.00000000000E+00  0.00000000000E+00  0.80243850210E+02  0.80243850210E+02  0.00000000000E+00 0.  1.
          2   -1    0    0  502    0  0.00000000000E+00 -0.00000000000E+00 -0.14557545921E+03  0.14557545921E+03  0.00000000000E+00 0. -1.
         23    2    1    2    0    0  0.10861591218E+02 -0.54265281707E+01 -0.22633553316E+02  0.94385746319E+02  0.90823840486E+02 0.  0.
         23    2    1    2    0    0  0.71858820647E+01 -0.83272678765E+01 -0.35952512117E+02  0.10776120463E+03  0.10098967177E+03 0.  0.
        -11    1    3    3    0    0  0.33186541326E+02 -0.31631878144E+02 -0.35133932521E+02  0.57760847072E+02  0.00000000000E+00 0.  1.
         11    1    3    3    0    0 -0.22324950108E+02  0.26205349973E+02  0.12500379206E+02  0.36624899246E+02  0.00000000000E+00 0. -1.
        -13    1    4    4    0    0 -0.24613778524E+02  0.33608585711E+02 -0.36112799449E+02  0.55131745944E+02  0.00000000000E+00 0. -1.
         13    1    4    4    0    0  0.31799660589E+02 -0.41935853588E+02  0.16028733218E+00  0.52629458687E+02  0.00000000000E+00 0.  1.
         21    1    1    2  502  501 -0.18047473283E+02  0.13753796047E+02 -0.67455435699E+01  0.23672358473E+02  0.00000000000E+00 0. -1.
<scales pt_clust_5="13000.00000" pt_clust_6="13000.00000" pt_clust_7="13000.00000" pt_clust_8="13000.00000" pt_clust_9="22.69093"></scales>
<clustering>
<clus scale="   22.691">  1  9  2 -1</clus>
<clus scale="   90.824">  5  6 -1 -1</clus>
<clus scale="   90.854">  1  5  2 -1</clus>
<clus scale="  100.990">  7  8 -1 -1</clus>
<clus scale="  101.017">  2  5  1 -1</clus>
</clustering>
</event>
<event>
 9    1  0.9000149E-006  0.1136375E+03  0.7546771E-02  0.1254564E+00
          2   -1    0    0  502    0  0.00000000000E+00  0.00000000000E+00  0.29743621138E+03  0.29743621138E+03  0.00000000000E+00 0. -1.
         -2   -1    0    0    0  501 -0.00000000000E+00 -0.00000000000E+00 -0.12225571736E+03  0.12225571736E+03  0.00000000000E+00 0.  1.
         23    2    1    2    0    0  0.33422590570E+02 -0.54202494847E+02 -0.72333085551E+02  0.13262171774E+03  0.91112374259E+02 0.  0.
         23    2    1    2    0    0 -0.52117300674E+02  0.63502691684E+02  0.22062857053E+03  0.25302921280E+03  0.92725463163E+02 0.  0.
        -11    1    4    4    0    0 -0.61720793800E+02  0.26265536236E+02  0.67557986343E+02  0.95201976344E+02  0.00000000000E+00 0.  1.
         11    1    4    4    0    0  0.96034931269E+01  0.37237155448E+02  0.15307058418E+03  0.15782723646E+03  0.00000000000E+00 0. -1.
        -11    1    3    3    0    0  0.28689675068E+02 -0.88019228784E+01  0.15395526523E+02  0.33728230591E+02  0.00000000000E+00 0. -1.
         11    1    3    3    0    0  0.47329155018E+01 -0.45400571968E+02 -0.87728612074E+02  0.98893487149E+02  0.00000000000E+00 0.  1.
         21    1    1    2  502  501  0.18694710104E+02 -0.93001968373E+01  0.26885009043E+02  0.34040998198E+02  0.00000000000E+00 0. -1.
<scales pt_clust_5="13000.00000" pt_clust_6="13000.00000" pt_clust_7="13000.00000" pt_clust_8="13000.00000" pt_clust_9="20.88027"></scales>
<clustering>
<clus scale="   20.880">  1  9  2 -1</clus>
<clus scale="   91.112">  7  8 -1 -1</clus>
<clus scale="   92.725">  5  6 -1 -1</clus>
<clus scale="  112.325">  2  7  1 -1</clus>
<clus scale="   20.880">  1  5  2 -1</clus>
</clustering>
</event>
<event>
 9    1  0.9000149E-006  0.9713887E+02  0.7546771E-02  0.1286777E+00
          1   -1    0    0  502    0  0.00000000000E+00  0.00000000000E+00  0.30825171184E+03  0.30825171184E+03  0.00000000000E+00 0. -1.
         -1   -1    0    0    0  501 -0.00000000000E+00 -0.00000000000E+00 -0.52557849774E+02  0.52557849774E+02  0.00000000000E+00 0.  1.
         23    2    1    2    0    0 -0.21525587008E+02 -0.18501760661E+02  0.27536699376E+02  0.99467249536E+02  0.91267726356E+02 0.  0.
         23    2    1    2    0    0  0.26355269423E+02  0.42070015430E+02  0.18110884547E+03  0.20849978547E+03  0.90593930313E+02 0.  0.
        -11    1    3    3    0    0  0.20496422955E+02  0.24152497324E+02 -0.37685256416E+01  0.31900599782E+02  0.00000000000E+00 0.  1.
         11    1    3    3    0    0 -0.42022009963E+02 -0.42654257985E+02  0.31305225018E+02  0.67566649754E+02  0.00000000000E+00 0. -1.
        -13    1    4    4    0    0  0.39314191300E+02  0.62745801168E+02  0.10431847343E+03  0.12792570148E+03  0.00000000000E+00 0.  1.
         13    1    4    4    0    0 -0.12958921878E+02 -0.20675785738E+02  0.76790372039E+02  0.80574083985E+02  0.00000000000E+00 0. -1.
         21    1    1    2  502  501 -0.48296824147E+01 -0.23568254769E+02  0.47048317226E+02  0.52842526613E+02  0.00000000000E+00 0. -1.
<scales pt_clust_5="13000.00000" pt_clust_6="13000.00000" pt_clust_7="13000.00000" pt_clust_8="13000.00000" pt_clust_9="24.05802"></scales>
<clustering>
<clus scale="   24.058">  1  9  2 -1</clus>
<clus scale="   90.594">  7  8 -1 -1</clus>
<clus scale="   91.268">  5  6 -1 -1</clus>
<clus scale="   96.506">  1  7  2 -1</clus>
<clus scale="   24.058">  1  5  2 -1</clus>
</clustering>
</event>
<event>
 9    1  0.9000149E-006  0.9886390E+02  0.7546771E-02  0.1282987E+00
          1   -1    0    0  502    0  0.00000000000E+00  0.00000000000E+00  0.39617480161E+02  0.39617480161E+02  0.00000000000E+00 0. -1.
         -1   -1    0    0    0  501 -0.00000000000E+00 -0.00000000000E+00 -0.32371850840E+03  0.32371850840E+03  0.00000000000E+00 0.  1.
         23    2    1    2    0    0 -0.67811159528E+00 -0.34482606310E+02 -0.14342936851E+03  0.17337370044E+03  0.91087574781E+02 0.  0.
         23    2    1    2    0    0  0.23441929503E+02  0.39507763636E+02 -0.12821973544E+03  0.16353325049E+03  0.90512076604E+02 0.  0.
        -11    1    3    3    0    0  0.45877838780E+01  0.23381284030E+02 -0.66082292253E+01  0.24726522143E+02  0.00000000000E+00 0. -1.
         11    1    3    3    0    0 -0.52658954732E+01 -0.57863890339E+02 -0.13682113928E+03  0.14864717830E+03  0.00000000000E+00 0.  1.
        -13    1    4    4    0    0 -0.29304471451E+02  0.37333523008E+02 -0.73563240875E+02  0.87544813640E+02  0.00000000000E+00 0.  1.
         13    1    4    4    0    0  0.52746400953E+02  0.21742406278E+01 -0.54656494568E+02  0.75988436846E+02  0.00000000000E+00 0. -1.
         21    1    1    2  502  501 -0.22763817907E+02 -0.50251573267E+01 -0.12451924284E+02  0.26429037634E+02  0.00000000000E+00 0.  1.
<scales pt_clust_5="13000.00000" pt_clust_6="13000.00000" pt_clust_7="13000.00000" pt_clust_8="13000.00000" pt_clust_9="23.31188"></scales>
<clustering>
<clus scale="   23.312">  1  9  2 -1</clus>
<clus scale="   90.512">  7  8 -1 -1</clus>
<clus scale="   91.088">  5  6 -1 -1</clus>
<clus scale="   98.334">  1  7  2 -1</clus>
<clus scale="   23.312">  1  5  2 -1</clus>
</clustering>
</event>
<event>
 9    1  0.9000149E-006  0.9329680E+02  0.7546771E-02  0.1317353E+00
         -3   -1    0    0    0  501 -0.00000000000E+00  0.00000000000E+00  0.15242314210E+03  0.15242314210E+03  0.00000000000E+00 0.  1.
          3   -1    0    0  502    0  0.00000000000E+00 -0.00000000000E+00 -0.98529068078E+02  0.98529068078E+02  0.00000000000E+00 0. -1.
         23    2    1    2    0    0  0.35836337054E+01 -0.14743150881E+02  0.60638733696E+02  0.10978823473E+03  0.90256288048E+02 0.  0.
         23    2    1    2    0    0  0.21887991216E+02  0.24850563430E+02  0.46708349464E+02  0.81095783783E+02  0.57430145181E+02 0.  0.
        -11    1    4    4    0    0  0.19562688239E+02 -0.10887748151E+02  0.19143579489E+00  0.22389249174E+02  0.00000000000E+00 0.  1.
         11    1    4    4    0    0  0.23253029778E+01  0.35738311580E+02  0.46516913669E+02  0.58706534609E+02  0.00000000000E+00 0. -1.
        -11    1    3    3    0    0  0.46916206157E+01 -0.45957990835E+02  0.63384760192E+02  0.78433258571E+02  0.00000000000E+00 0.  1.
         11    1    3    3    0    0 -0.11079869104E+01  0.31214839953E+02 -0.27460264957E+01  0.31354976157E+02  0.00000000000E+00 0. -1.
         21    1    1    2  502  501 -0.25471624922E+02 -0.10107412548E+02 -0.53453009136E+02  0.60068191668E+02  0.00000000000E+00 0.  1.
<scales pt_clust_5="13000.00000" pt_clust_6="13000.00000" pt_clust_7="13000.00000" pt_clust_8="13000.00000" pt_clust_9="27.40371"></scales>
<clustering>
<clus scale="   27.404">  2  9  1 -1</clus>
<clus scale="   57.430">  5  6 -1 -1</clus>
<clus scale="   62.099">  2  5  1 -1</clus>
<clus scale="   90.256">  7  8 -1 -1</clus>
<clus scale="   27.404">  2  5  1 -1</clus>
</clustering>
</event>
<event>
 9    1  0.9000149E-006  0.9756188E+02  0.7546771E-02  0.1287336E+00
         -1   -1    0    0    0  501 -0.00000000000E+00  0.00000000000E+00  0.11081068412E+03  0.11081068412E+03  0.00000000000E+00 0.  1.
          1   -1    0    0  502    0  0.00000000000E+00 -0.00000000000E+00 -0.29893981135E+03  0.29893981135E+03  0.00000000000E+00 0. -1.
         23    2    1    2    0    0  0.17386717534E+02  0.28533651874E+02  0.68151456086E+02  0.12028816005E+03  0.93317486277E+02 0.  0.
         23    2    1    2    0    0 -0.82878648094E+01  0.31176310330E+01 -0.12555530099E+03  0.15465249799E+03  0.89860186957E+02 0.  0.
        -13    1    4    4    0    0 -0.37826570399E+02 -0.19826258967E+02 -0.30434326862E+02  0.52442141683E+02  0.00000000000E+00 0.  1.
         13    1    4    4    0    0  0.29538705589E+02  0.22943890000E+02 -0.95120974129E+02  0.10221035630E+03  0.00000000000E+00 0. -1.
        -13    1    3    3    0    0  0.28984895359E+02  0.57640153483E+02  0.59543894137E+02  0.87795140990E+02  0.00000000000E+00 0.  1.
         13    1    3    3    0    0 -0.11598177825E+02 -0.29106501608E+02  0.86075619489E+01  0.32493019057E+02  0.00000000000E+00 0. -1.
         21    1    1    2  502  501 -0.90988527242E+01 -0.31651282907E+02 -0.13072528233E+03  0.13480983744E+03  0.00000000000E+00 0. -1.
<scales pt_clust_5="13000.00000" pt_clust_6="13000.00000" pt_clust_7="13000.00000" pt_clust_8="13000.00000" pt_clust_9="32.93316"></scales>
<clustering>
<clus scale="   32.933">  2  9  1 -1</clus>
<clus scale="   89.860">  5  6 -1 -1</clus>
<clus scale="   93.317">  7  8 -1 -1</clus>
<clus scale="   94.260">  2  5  1 -1</clus>
<clus scale="   32.933">  2  5  1 -1</clus>
</clustering>
</event>
<event>
 9    1  0.9000149E-006  0.1444199E+03  0.7546771E-02  0.1208806E+00
         -1   -1    0    0    0  501 -0.00000000000E+00  0.00000000000E+00  0.22635146186E+03  0.22635146186E+03  0.00000000000E+00 0.  1.
          1   -1    0    0  502    0  0.00000000000E+00 -0.00000000000E+00 -0.25147980692E+03  0.25147980692E+03  0.00000000000E+00 0. -1.
         23    2    1    2    0    0  0.28022509419E+02  0.10487276745E+03  0.16325015565E+03  0.21563364737E+03  0.89798096709E+02 0.  0.
         23    2    1    2    0    0 -0.58533152480E+02 -0.91791965041E+02 -0.12884513521E+03  0.19403437369E+03  0.95897729475E+02 0.  0.
        -11    1    3    3    0    0  0.37585898446E+02  0.50795120179E+02  0.14431765647E+03  0.15754500933E+03  0.00000000000E+00 0.  1.
         11    1    3    3    0    0 -0.95633890266E+01  0.54077647272E+02  0.18932499177E+02  0.58088638039E+02  0.00000000000E+00 0. -1.
        -13    1    4    4    0    0 -0.48429388300E+02 -0.64998849769E+01 -0.83911924025E+02  0.97102343686E+02  0.00000000000E+00 0. -1.
         13    1    4    4    0    0 -0.10103764180E+02 -0.85292080064E+02 -0.44933211188E+02  0.96932030001E+02  0.00000000000E+00 0.  1.
         21    1    1    2  502  501  0.30510643061E+02 -0.13080802410E+02 -0.59533365504E+02  0.68163247721E+02  0.00000000000E+00 0. -1.
<scales pt_clust_5="13000.00000" pt_clust_6="13000.00000" pt_clust_7="13000.00000" pt_clust_8="13000.00000" pt_clust_9="33.19649"></scales>
<clustering>
<clus scale="   33.196">  2  9  1 -1</clus>
<clus scale="   89.798">  5  6 -1 -1</clus>
<clus scale="   95.898">  7  8 -1 -1</clus>
<clus scale="  140.444">  1  5  2 -1</clus>
<clus scale="   33.196">  2  5  1 -1</clus>
</clustering>
</event>
<event>
 9    1  0.9000149E-006  0.1606834E+03  0.7546771E-02  0.1187992E+00
         -1   -1    0    0    0  501 -0.00000000000E+00  0.00000000000E+00  0.66535314923E+02  0.66535314923E+02  0.00000000000E+00 0.  1.
          1   -1    0    0  502    0  0.00000000000E+00 -0.00000000000E+00 -0.45803391767E+03  0.45803391767E+03  0.00000000000E+00 0. -1.
         23    2    1    2    0    0  0.10692342413E+03  0.56043703583E+02 -0.14666890385E+03  0.21051233208E+03  0.90720225204E+02 0.  0.
         23    2    1    2    0    0 -0.12166890983E+03 -0.75403422481E+02 -0.22998851319E+03  0.28555271034E+03  0.90314087721E+02 0.  0.
        -11    1    4    4    0    0 -0.13452884279E+03 -0.55986562745E+02 -0.20337760455E+03  0.25018983749E+03  0.00000000000E+00 0. -1.
         11    1    4    4    0    0  0.12859932955E+02 -0.19416859737E+02 -0.26610908636E+02  0.35362872848E+02  0.00000000000E+00 0.  1.
        -11    1    3    3    0    0  0.84968903787E+02  0.28161489522E+02 -0.15019784793E+03  0.17484901380E+03  0.00000000000E+00 0. -1.
         11    1    3    3    0    0  0.21954520346E+02  0.27882214061E+02  0.35289440803E+01  0.35663318282E+02  0.00000000000E+00 0.  1.
         21    1    1    2  502  501  0.14745485697E+02  0.19359718899E+02 -0.14841185704E+02  0.28504190173E+02  0.00000000000E+00 0.  1.
<scales pt_clust_5="13000.00000" pt_clust_6="13000.00000" pt_clust_7="13000.00000" pt_clust_8="13000.00000" pt_clust_9="24.33574"></scales>
<clustering>
<clus scale="   24.336">  1  9  2 -1</clus>
<clus scale="   90.314">  5  6 -1 -1</clus>
<clus scale="   90.720">  7  8 -1 -1</clus>
<clus scale="  160.454">  2  5  1 -1</clus>
<clus scale="  160.454">  2  5  1 -1</clus>
</clustering>
</event>
<event>
 9    1  0.9000149E-006  0.9425164E+02  0.7546771E-02  0.1293381E+00
         -2   -1    0    0    0  501 -0.00000000000E+00  0.00000000000E+00  0.68605035101E+02  0.68605035101E+02  0.00000000000E+00 0.  1.
          2   -1    0    0  502    0  0.00000000000E+00 -0.00000000000E+00 -0.59693677917E+03  0.59693677917E+03  0.00000000000E+00 0. -1.
         23    2    1    2    0    0  0.15732827517E+02  0.26704782493E+02  0.14823733876E+02  0.96667901329E+02  0.90356365529E+02 0.  0.
         23    2    1    2    0    0 -0.17880921989E+00  0.40461985654E+02 -0.30376237018E+03  0.31975072600E+03  0.91278392745E+02 0.  0.
        -13    1    4    4    0    0 -0.12417471095E+02  0.67616926019E+02 -0.18659122281E+03  0.19885302789E+03  0.00000000000E+00 0.  1.
         13    1    4    4    0    0  0.12238661875E+02 -0.27154940364E+02 -0.11717114737E+03  0.12089769810E+03  0.00000000000E+00 0. -1.
        -13    1    3    3    0    0  0.23158732707E+02 -0.17033519979E+02  0.37172738763E+02  0.46992342042E+02  0.00000000000E+00 0.  1.
         13    1    3    3    0    0 -0.74259051898E+01  0.43738302472E+02 -0.22349004887E+02  0.49675559287E+02  0.00000000000E+00 0. -1.
         21    1    1    2  502  501 -0.15554018297E+02 -0.67166768148E+02 -0.23939310777E+03  0.24912318695E+03  0.00000000000E+00 0. -1.
<scales pt_clust_5="13000.00000" pt_clust_6="13000.00000" pt_clust_7="13000.00000" pt_clust_8="13000.00000" pt_clust_9="68.94420"></scales>
<clustering>
<clus scale="   68.944">  2  9  1 -1</clus>
<clus scale="   90.356">  7  8 -1 -1</clus>
<clus scale="   91.278">  5  6 -1 -1</clus>
<clus scale="   93.359">  1  7  2 -1</clus>
<clus scale="   68.944">  2  5  1 -1</clus>
</clustering>
</event>
<event>
 9    1  0.9000149E-006  0.1227052E+03  0.7546771E-02  0.1238789E+00
          1   -1    0    0  502    0  0.00000000000E+00  0.00000000000E+00  0.33142264178E+03  0.33142264178E+03  0.00000000000E+00 0. -1.
         -1   -1    0    0    0  501 -0.00000000000E+00 -0.00000000000E+00 -0.10081541897E+03  0.10081541897E+03  0.00000000000E+00 0.  1.
         23    2    1    2    0    0 -0.67530260797E+02  0.41472923079E+02 -0.17462687169E+02  0.12178502238E+03  0.90809177739E+02 0.  0.
         23    2    1    2    0    0  0.52586185543E+02 -0.88393396288E+02  0.18431244021E+03  0.22989330189E+03  0.91110675652E+02 0.  0.
        -11    1    3    3    0    0 -0.41593721250E+02 -0.19942431457E+02 -0.28483196421E+02  0.54212827801E+02  0.00000000000E+00 0.  1.
         11    1    3    3    0    0 -0.25936539548E+02  0.61415354536E+02  0.11020509252E+02  0.67572194582E+02  0.00000000000E+00 0. -1.
        -13    1    4    4    0    0  0.30425637894E+02  0.13173992221E+02  0.51188126365E+02  0.60987685585E+02  0.00000000000E+00 0. -1.
         13    1    4    4    0    0  0.22160547650E+02 -0.10156738851E+03  0.13312431385E+03  0.16890561630E+03  0.00000000000E+00 0.  1.
         21    1    1    2  502  501  0.14944075254E+02  0.46920473210E+02  0.63757469759E+02  0.80559736478E+02  0.00000000000E+00 0. -1.
<scales pt_clust_5="13000.00000" pt_clust_6="13000.00000" pt_clust_7="13000.00000" pt_clust_8="13000.00000" pt_clust_9="49.24283"></scales>
<clustering>
<clus scale="   49.243">  1  9  2 -1</clus>
<clus scale="   90.809">  5  6 -1 -1</clus>
<clus scale="   91.111">  7  8 -1 -1</clus>
<clus scale="  122.482">  2  5  1 -1</clus>
<clus scale="   49.243">  1  5  2 -1</clus>
</clustering>
</event>
<event>
 9    1  0.9000149E-006  0.1185853E+03  0.7546771E-02  0.1246410E+00
          1   -1    0    0  502    0  0.00000000000E+00  0.00000000000E+00  0.38954245264E+03  0.38954245264E+03  0.00000000000E+00 0. -1.
         -1   -1    0    0    0  501 -0.00000000000E+00 -0.00000000000E+00 -0.53193291718E+02  0.53193291718E+02  0.00000000000E+00 0.  1.
         23    2    1    2    0    0  0.47250222573E+02 -0.65816212011E+02  0.90069513870E+02  0.15346133435E+03  0.94199291475E+02 0.  0.
         23    2    1    2    0    0 -0.24691938175E+02  0.56655331049E+02  0.12998714699E+03  0.17046050718E+03  0.91326928005E+02 0.  0.
        -11    1    3    3    0    0  0.14525388339E+02  0.24328420137E+02  0.21500625121E+02  0.35568747706E+02  0.00000000000E+00 0.  1.
         11    1    3    3    0    0  0.32724834234E+02 -0.90144632148E+02  0.68568888749E+02  0.11789258664E+03  0.00000000000E+00 0. -1.
        -11    1    4    4    0    0 -0.40997630843E+02  0.68397547014E+02  0.66383595338E+02  0.10375843051E+03  0.00000000000E+00 0.  1.
         11    1    4    4    0    0  0.16305692668E+02 -0.11742215966E+02  0.63603551654E+02  0.66702076671E+02  0.00000000000E+00 0. -1.
         21    1    1    2  502  501 -0.22558284398E+02  0.91608809621E+01  0.11629250006E+03  0.11881390283E+03  0.00000000000E+00 0. -1.
<scales pt_clust_5="13000.00000" pt_clust_6="13000.00000" pt_clust_7="13000.00000" pt_clust_8="13000.00000" pt_clust_9="24.34744"></scales>
<clustering>
<clus scale="   24.347">  1  9  2 -1</clus>
<clus scale="   91.327">  7  8 -1 -1</clus>
<clus scale="   94.199">  5  6 -1 -1</clus>
<clus scale="  116.317">  1  7  2 -1</clus>
<clus scale="   24.347">  1  5  2 -1</clus>
</clustering>
</event>
<event>
 9    1  0.9000149E-006  0.9523892E+02  0.7546771E-02  0.1292406E+00
          1   -1    0    0  502    0  0.00000000000E+00  0.00000000000E+00  0.35082251599E+03  0.35082251599E+03  0.00000000000E+00 0. -1.
         -1   -1    0    0    0  501 -0.00000000000E+00 -0.00000000000E+00 -0.81325603682E+02  0.81325603682E+02  0.00000000000E+00 0.  1.
         23    2    1    2    0    0 -0.14060361310E+02 -0.31947436304E+02  0.47796269411E+01  0.99920352570E+02  0.93503473612E+02 0.  0.
         23    2    1    2    0    0  0.19516181648E+02 -0.28040592554E+02  0.49103918709E+02  0.10835848948E+03  0.90350491049E+02 0.  0.
        -11    1    3    3    0    0  0.34619180462E+02  0.31776054676E+01 -0.13309239587E+02  0.37225269519E+02  0.00000000000E+00 0.  1.
         11    1    3    3    0    0 -0.48679541772E+02 -0.35125041771E+02  0.18088866528E+02  0.62695083052E+02  0.00000000000E+00 0. -1.
        -13    1    4    4    0    0 -0.28532329837E+02 -0.30921422002E+02  0.42446207058E+02  0.59765447193E+02  0.00000000000E+00 0. -1.
         13    1    4    4    0    0  0.48048511485E+02  0.28808294485E+01  0.66577116510E+01  0.48593042286E+02  0.00000000000E+00 0.  1.
         21    1    1    2  502  501 -0.54558203381E+01  0.59988028858E+02  0.21561336666E+03  0.22386927762E+03  0.00000000000E+00 0. -1.
<scales pt_clust_5="13000.00000" pt_clust_6="13000.00000" pt_clust_7="13000.00000" pt_clust_8="13000.00000" pt_clust_9="60.23562"></scales>
<clustering>
<clus scale="   60.236">  1  9  2 -1</clus>
<clus scale="   90.350">  7  8 -1 -1</clus>
<clus scale="   92.145">  1  7  2 -1</clus>
<clus scale="   93.503">  5  6 -1 -1</clus>
<clus scale="   60.236">  1  5  2 -1</clus>
</clustering>
</event>
<event>
 9    1  0.9000149E-006  0.9766039E+02  0.7546771E-02  0.1289506E+00
         -1   -1    0    0    0  501 -0.00000000000E+00  0.00000000000E+00  0.29558294256E+03  0.29558294256E+03  0.00000000000E+00 0.  1.
          1   -1    0    0  502    0  0.00000000000E+00 -0.00000000000E+00 -0.47826849621E+03  0.47826849621E+03  0.00000000000E+00 0. -1.
         23    2    1    2    0    0  0.32456330047E+02  0.83168101603E+01  0.27660584342E+03  0.29092882295E+03  0.83703074715E+02 0.  0.
         23    2    1    2    0    0 -0.47445693821E+02  0.25008820536E+02 -0.27003652370E+03  0.29017229603E+03  0.91671709293E+02 0.  0.
        -11    1    4    4    0    0 -0.60505257476E+02 -0.27948428910E+01 -0.23880191904E+03  0.24636366183E+03  0.00000000000E+00 0. -1.
         11    1    4    4    0    0  0.13059563655E+02  0.27803663427E+02 -0.31234604653E+02  0.43808634202E+02  0.00000000000E+00 0.  1.
        -13    1    3    3    0    0  0.96833389991E+01 -0.36889824073E+02  0.94154567898E+02  0.10158596768E+03  0.00000000000E+00 0. -1.
         13    1    3    3    0    0  0.22772991047E+02  0.45206634233E+02  0.18245127552E+03  0.18934285526E+03  0.00000000000E+00 0.  1.
         21    1    1    2  502  501  0.14989363775E+02 -0.33325630696E+02 -0.18925487337E+03  0.19275031980E+03  0.00000000000E+00 0. -1.
<scales pt_clust_5="13000.00000" pt_clust_6="13000.00000" pt_clust_7="13000.00000" pt_clust_8="13000.00000" pt_clust_9="36.54147"></scales>
<clustering>
<clus scale="   36.541">  2  9  1 -1</clus>
<clus scale="   83.703">  7  8 -1 -1</clus>
<clus scale="   90.222">  1  7  2 -1</clus>
<clus scale="   91.672">  5  6 -1 -1</clus>
<clus scale="   36.541">  2  5  1 -1</clus>
</clustering>
</event>
<event>
 9    1  0.9000149E-006  0.1007875E+03  0.7546771E-02  0.1279212E+00
         -2   -1    0    0    0  501 -0.00000000000E+00  0.00000000000E+00  0.18849876837E+03  0.18849876837E+03  0.00000000000E+00 0. -1.
          2   -1    0    0  502    0  0.00000000000E+00 -0.00000000000E+00 -0.82720831736E+02  0.82720831736E+02  0.00000000000E+00 0.  1.
         23    2    1    2    0    0 -0.51238921847E+02 -0.18939841571E+02  0.87269300645E+02  0.13857471594E+03  0.92751691908E+02 0.  0.
         23    2    1    2    0    0  0.32600493639E+02  0.78128140761E+01 -0.86165011318E+01  0.97903341157E+02  0.91580499390E+02 0.  0.
        -11    1    4    4    0    0  0.51535605416E+02  0.35595744388E+02  0.19384092785E+01  0.62663650346E+02  0.00000000000E+00 0.  1.
         11    1    4    4    0    0 -0.18935111777E+02 -0.27782930312E+02 -0.10554910410E+02  0.35239690811E+02  0.00000000000E+00 0. -1.
        -13    1    3    3    0    0  0.22762218535E+02  0.30201748203E+01  0.12451343391E+01  0.22995443203E+02  0.00000000000E+00 0.  1.
         13    1    3    3    0    0 -0.74001140382E+02 -0.21960016392E+02  0.86024166306E+02  0.11557927274E+03  0.00000000000E+00 0. -1.
         21    1    1    2  502  501  0.18638428208E+02  0.11127027495E+02  0.27125137125E+02  0.34741543014E+02  0.00000000000E+00 0.  1.
<scales pt_clust_5="13000.00000" pt_clust_6="13000.00000" pt_clust_7="13000.00000" pt_clust_8="13000.00000" pt_clust_9="21.70718"></scales>
<clustering>
<clus scale="   21.707">  1  9  2 -1</clus>
<clus scale="   91.580">  5  6 -1 -1</clus>
<clus scale="   92.752">  7  8 -1 -1</clus>
<clus scale="   99.711">  2  5  1 -1</clus>
<clus scale="   99.711">  2  5  1 -1</clus>
</clustering>
</event>
<event>
 9    1  0.9000149E-006  0.9480795E+02  0.7546771E-02  0.1292461E+00
         -1   -1    0    0    0  501 -0.00000000000E+00  0.00000000000E+00  0.17499596786E+03  0.17499596786E+03  0.00000000000E+00 0.  1.
          1   -1    0    0  502    0  0.00000000000E+00 -0.00000000000E+00 -0.27830915592E+03  0.27830915592E+03  0.00000000000E+00 0. -1.
         23    2    1    2    0    0 -0.69755545934E+01 -0.26054793240E+02  0.13257727774E+03  0.16327245628E+03  0.91398303021E+02 0.  0.
         23    2    1    2    0    0  0.33792666478E+02  0.30810805290E+01 -0.66051741470E+02  0.11656180180E+03  0.89846445247E+02 0.  0.
        -11    1    3    3    0    0  0.32192915196E+01 -0.51918738237E+02  0.12353149997E+03  0.13403712434E+03  0.00000000000E+00 0.  1.
         11    1    3    3    0    0 -0.10194846113E+02  0.25863944997E+02  0.90457777713E+01  0.29235331939E+02  0.00000000000E+00 0. -1.
        -13    1    4    4    0    0 -0.28200077813E+02 -0.13911504621E+02 -0.17329435651E+02  0.35903811628E+02  0.00000000000E+00 0.  1.
         13    1    4    4    0    0  0.61992744291E+02  0.16992585150E+02 -0.48722305820E+02  0.80657990175E+02  0.00000000000E+00 0. -1.
         21    1    1    2  502  501 -0.26817111885E+02  0.22973712711E+02 -0.16983872432E+03  0.17347086570E+03  0.00000000000E+00 0. -1.
<scales pt_clust_5="13000.00000" pt_clust_6="13000.00000" pt_clust_7="13000.00000" pt_clust_8="13000.00000" pt_clust_9="35.31216"></scales>
<clustering>
<clus scale="   35.312">  2  9  1 -1</clus>
<clus scale="   89.846">  7  8 -1 -1</clus>
<clus scale="   91.398">  5  6 -1 -1</clus>
<clus scale="   93.313">  2  7  1 -1</clus>
<clus scale="   35.312">  2  5  1 -1</clus>
</clustering>
</event>
<event>
 9    1  0.9000149E-006  0.9382216E+02  0.7546771E-02  0.1296378E+00
          1   -1    0    0  502    0  0.00000000000E+00  0.00000000000E+00  0.47631274676E+02  0.47631274676E+02  0.00000000000E+00 0. -1.
         -1   -1    0    0    0  501 -0.00000000000E+00 -0.00000000000E+00 -0.27564341997E+03  0.27564341997E+03  0.00000000000E+00 0.  1.
         23    2    1    2    0    0 -0.85436895659E+01  0.19990851479E+02 -0.13950424801E+03  0.16692013442E+03  0.89040818089E+02 0.  0.
         23    2    1    2    0    0 -0.48679964670E+01  0.98663756330E+01 -0.77449622047E+02  0.12180585860E+03  0.93365842131E+02 0.  0.
        -11    1    3    3    0    0  0.20497898533E+02  0.98386524847E+01  0.13194644098E+01  0.22775072191E+02  0.00000000000E+00 0. -1.
         11    1    3    3    0    0 -0.29041588099E+02  0.10152198994E+02 -0.14082371242E+03  0.14414506222E+03  0.00000000000E+00 0.  1.
        -13    1    4    4    0    0 -0.21637690369E+02  0.30115195219E+02  0.29664500501E+01  0.37201000705E+02  0.00000000000E+00 0.  1.
         13    1    4    4    0    0  0.16769693902E+02 -0.20248819586E+02 -0.80416072097E+02  0.84604857897E+02  0.00000000000E+00 0. -1.
         21    1    1    2  502  501  0.13411686033E+02 -0.29857227112E+02 -0.11058275237E+02  0.34548701629E+02  0.00000000000E+00 0. -1.
<scales pt_clust_5="13000.00000" pt_clust_6="13000.00000" pt_clust_7="13000.00000" pt_clust_8="13000.00000" pt_clust_9="32.73114"></scales>
<clustering>
<clus scale="   32.731">  1  9  2 -1</clus>
<clus scale="   89.041">  5  6 -1 -1</clus>
<clus scale="   89.519">  2  5  1 -1</clus>
<clus scale="   93.366">  7  8 -1 -1</clus>
<clus scale="   32.731">  1  5  2 -1</clus>
</clustering>
</event>
<event>
 9    1  0.9000149E-006  0.9537038E+02  0.7546771E-02  0.1291274E+00
         -3   -1    0    0    0  501 -0.00000000000E+00  0.00000000000E+00  0.15088524995E+03  0.15088524995E+03  0.00000000000E+00 0.  1.
          3   -1    0    0  502    0  0.00000000000E+00 -0.00000000000E+00 -0.86497525653E+02  0.86497525653E+02  0.00000000000E+00 0. -1.
         23    2    1    2    0    0  0.65095067260E+01  0.31838511089E+02  0.77661989067E+02  0.12316711919E+03  0.89903783216E+02 0.  0.
         23    2    1    2    0    0  0.21994684729E+01 -0.13019260703E+02 -0.13045909846E+02  0.93477706179E+02  0.91616303014E+02 0.  0.
        -11    1    4    4    0    0  0.31948103273E+02 -0.28507499858E+02  0.19223834556E+02  0.46935217758E+02  0.00000000000E+00 0.  1.
         11    1    4    4    0    0 -0.29748634800E+02  0.15488239156E+02 -0.32269744403E+02  0.46542488421E+02  0.00000000000E+00 0. -1.
        -13    1    3    3    0    0 -0.33108135773E+02  0.39367380301E+02  0.26020604131E+02  0.57645564665E+02  0.00000000000E+00 0.  1.
         13    1    3    3    0    0  0.39617642499E+02 -0.75288692125E+01  0.51641384936E+02  0.65521554522E+02  0.00000000000E+00 0. -1.
         21    1    1    2  502  501 -0.87089751989E+01 -0.18819250386E+02 -0.22835492352E+00  0.20737950238E+02  0.00000000000E+00 0.  1.
<scales pt_clust_5="13000.00000" pt_clust_6="13000.00000" pt_clust_7="13000.00000" pt_clust_8="13000.00000" pt_clust_9="20.73669"></scales>
<clustering>
<clus scale="   20.737">  2  9  1 -1</clus>
<clus scale="   89.904">  7  8 -1 -1</clus>
<clus scale="   91.616">  5  6 -1 -1</clus>
<clus scale="   93.726">  1  7  2 -1</clus>
<clus scale="   20.737">  2  5  1 -1</clus>
</clustering>
</event>
<event>
 9    1  0.9000149E-006  0.1735352E+03  0.7546771E-02  0.1174459E+00
          1   -1    0    0  502    0  0.00000000000E+00  0.00000000000E+00  0.18630926268E+03  0.18630926268E+03  0.00000000000E+00 0. -1.
         -1   -1    0    0    0  501 -0.00000000000E+00 -0.00000000000E+00 -0.46261374232E+03  0.46261374232E+03  0.00000000000E+00 0.  1.
         23    2    1    2    0    0  0.11823108325E+03  0.73051806067E+02 -0.37049199006E+03  0.40624587611E+03  0.91957825885E+02 0.  0.
         23    2    1    2    0    0 -0.10807177929E+03 -0.10180386144E+03  0.11266958020E+03  0.20701932402E+03  0.90105663155E+02 0.  0.
        -11    1    4    4    0    0 -0.98914118472E+01 -0.67418128842E+02  0.58103676664E+02  0.89549323653E+02  0.00000000000E+00 0.  1.
         11    1    4    4    0    0 -0.98180367442E+02 -0.34385732594E+02  0.54565903534E+02  0.11747000036E+03  0.00000000000E+00 0. -1.
        -13    1    3    3    0    0  0.81915429294E+01  0.21689214845E+02 -0.89459852314E+01  0.24850635161E+02  0.00000000000E+00 0. -1.
         13    1    3    3    0    0  0.11003954032E+03  0.51362591222E+02 -0.36154600482E+03  0.38139524095E+03  0.00000000000E+00 0.  1.
         21    1    1    2  502  501 -0.10159303961E+02  0.28752055369E+02 -0.18482069783E+02  0.35657804874E+02  0.00000000000E+00 0.  1.
<scales pt_clust_5="13000.00000" pt_clust_6="13000.00000" pt_clust_7="13000.00000" pt_clust_8="13000.00000" pt_clust_9="30.49413"></scales>
<clustering>
<clus scale="   30.494">  2  9  1 -1</clus>
<clus scale="   90.106">  5  6 -1 -1</clus>
<clus scale="   91.958">  7  8 -1 -1</clus>
<clus scale="  172.561">  1  5  2 -1</clus>
<clus scale="  172.561">  1  5  2 -1</clus>
</clustering>
</event>
<event>
 9    1  0.9000149E-006  0.1079632E+03  0.7546771E-02  0.1265458E+00
         -1   -1    0    0    0  501 -0.00000000000E+00  0.00000000000E+00  0.10884258992E+03  0.10884258992E+03  0.00000000000E+00 0.  1.
          1   -1    0    0  502    0  0.00000000000E+00 -0.00000000000E+00 -0.17270722476E+03  0.17270722476E+03  0.00000000000E+00 0. -1.
         23    2    1    2    0    0 -0.55756168486E+02 -0.12159569660E+02  0.31022548662E+02  0.11406004993E+03  0.93758684964E+02 0.  0.
         23    2    1    2    0    0  0.35597340508E+02  0.37951409066E+02 -0.67542791614E+02  0.12483635818E+03  0.91184469743E+02 0.  0.
        -13    1    3    3    0    0  0.18384378485E+01 -0.32490977967E+02 -0.16673254009E+02  0.36565569902E+02  0.00000000000E+00 0.  1.
         13    1    3    3    0    0 -0.57594606335E+02  0.20331408307E+02  0.47695802672E+02  0.77494480030E+02  0.00000000000E+00 0. -1.
        -13    1    4    4    0    0  0.46240150634E+02  0.20315324025E+02  0.37329308360E+01  0.50643841614E+02  0.00000000000E+00 0.  1.
         13    1    4    4    0    0 -0.10642810125E+02  0.17636085041E+02 -0.71275722450E+02  0.74192516562E+02  0.00000000000E+00 0. -1.
         21    1    1    2  502  501  0.20158827978E+02 -0.25791839405E+02 -0.27344391887E+02  0.42653406582E+02  0.00000000000E+00 0.  1.
<scales pt_clust_5="13000.00000" pt_clust_6="13000.00000" pt_clust_7="13000.00000" pt_clust_8="13000.00000" pt_clust_9="32.73526"></scales>
<clustering>
<clus scale="   32.735">  2  9  1 -1</clus>
<clus scale="   91.184">  7  8 -1 -1</clus>
<clus scale="   93.759">  5  6 -1 -1</clus>
<clus scale="  105.735">  2  7  1 -1</clus>
<clus scale="   32.735">  2  5  1 -1</clus>
</clustering>
</event>
<event>
 9    1  0.9000149E-006  0.1033829E+03  0.7546771E-02  0.1274516E+00
          4   -1    0    0  502    0  0.00000000000E+00  0.00000000000E+00  0.33985318903E+02  0.33985318903E+02  0.00000000000E+00 0. -1.
         -4   -1    0    0    0  501 -0.00000000000E+00 -0.00000000000E+00 -0.64569535854E+03  0.64569535854E+03  0.00000000000E+00 0.  1.
         23    2    1    2    0    0 -0.29710946380E+02 -0.38781975131E+02 -0.43234777390E+03  0.44422004562E+03  0.89554840174E+02 0.  0.
         23    2    1    2    0    0 -0.30536956553E+01  0.50710952207E+02 -0.16899939661E+03  0.19908466011E+03  0.92157365988E+02 0.  0.
        -11    1    4    4    0    0 -0.47433041510E+02  0.21691378591E+02 -0.80736031250E+02  0.96118240070E+02  0.00000000000E+00 0. -1.
         11    1    4    4    0    0  0.44379345855E+02  0.29019573615E+02 -0.88263365360E+02  0.10296642004E+03  0.00000000000E+00 0.  1.
        -13    1    3    3    0    0 -0.60203289199E+02 -0.37343091969E+02 -0.27819690637E+03  0.28707570650E+03  0.00000000000E+00 0.  1.
         13    1    3    3    0    0  0.30492342819E+02 -0.14388831619E+01 -0.15415086754E+03  0.15714433912E+03  0.00000000000E+00 0. -1.
         21    1    1    2  502  501  0.32764642036E+02 -0.11928977076E+02 -0.10362869124E+02  0.36375971716E+02  0.00000000000E+00 0.  1.
<scales pt_clust_5="13000.00000" pt_clust_6="13000.00000" pt_clust_7="13000.00000" pt_clust_8="13000.00000" pt_clust_9="34.86864"></scales>
<clustering>
<clus scale="   34.869">  1  9  2 -1</clus>
<clus scale="   89.555">  7  8 -1 -1</clus>
<clus scale="   92.157">  5  6 -1 -1</clus>
<clus scale="  101.070">  2  7  1 -1</clus>
<clus scale="   34.869">  1  5  2 -1</clus>
</clustering>
</event>
<event>
 9    1  0.9000149E-006  0.1392410E+03  0.7546771E-02  0.1216282E+00
          1   -1    0    0  502    0  0.00000000000E+00  0.00000000000E+00  0.37879858873E+03  0.37879858873E+03  0.00000000000E+00 0. -1.
         -1   -1    0    0    0  501 -0.00000000000E+00 -0.00000000000E+00 -0.82186601927E+02  0.82186601927E+02  0.00000000000E+00 0.  1.
         23    2    1    2    0    0 -0.72336883847E+02 -0.12463871111E+02  0.17216027021E+02  0.11908816462E+03  0.92182571661E+02 0.  0.
         23    2    1    2    0    0  0.94047537193E+02  0.52106049696E+02  0.24264314917E+03  0.28364220753E+03  0.10008608488E+03 0.  0.
        -11    1    3    3    0    0 -0.49833243028E+02 -0.49053125402E+02 -0.61382618155E+01  0.70194298063E+02  0.00000000000E+00 0.  1.
         11    1    3    3    0    0 -0.22503640818E+02  0.36589254291E+02  0.23354288836E+02  0.48893866555E+02  0.00000000000E+00 0. -1.
        -11    1    4    4    0    0  0.15012948308E+00  0.52940946794E+02  0.91039732671E+02  0.10531381349E+03  0.00000000000E+00 0.  1.
         11    1    4    4    0    0  0.93897407710E+02 -0.83489709811E+00  0.15160341649E+03  0.17832839404E+03  0.00000000000E+00 0. -1.
         21    1    1    2  502  501 -0.21710653347E+02 -0.39642178585E+02  0.36752810615E+02  0.58254818512E+02  0.00000000000E+00 0.  1.
<scales pt_clust_5="13000.00000" pt_clust_6="13000.00000" pt_clust_7="13000.00000" pt_clust_8="13000.00000" pt_clust_9="45.19795"></scales>
<clustering>
<clus scale="   45.198">  2  9  1 -1</clus>
<clus scale="   92.183">  5  6 -1 -1</clus>
<clus scale="  100.086">  7  8 -1 -1</clus>
<clus scale="  133.673">  2  5  1 -1</clus>
<clus scale="  139.241">  1  5  2 -1</clus>
</clustering>
</event>
<event>
 9    1  0.9000149E-006  0.1670616E+03  0.7546771E-02  0.1181348E+00
          1   -1    0    0  502    0  0.00000000000E+00  0.00000000000E+00  0.19246530982E+03  0.19246530982E+03  0.00000000000E+00 0. -1.
         -1   -1    0    0    0  501 -0.00000000000E+00 -0.00000000000E+00 -0.35651305752E+03  0.35651305752E+03  0.00000000000E+00 0.  1.
         23    2    1    2    0    0  0.76062787499E+02 -0.11916272800E+03 -0.28471050346E+03  0.33014380391E+03  0.89160288767E+02 0.  0.
         23    2    1    2    0    0 -0.85192563131E+02  0.96631072396E+02  0.10414848468E+03  0.18944494866E+03  0.91908349702E+02 0.  0.
        -11    1    4    4    0    0 -0.32058666828E+02  0.98804333352E+02  0.57626116033E+02  0.11878898794E+03  0.00000000000E+00 0.  1.
         11    1    4    4    0    0 -0.53133896302E+02 -0.21732609559E+01  0.46522368650E+02  0.70655960713E+02  0.00000000000E+00 0. -1.
        -13    1    3    3    0    0  0.48123787992E+02 -0.64810148499E+02 -0.24324949848E+03  0.25629391883E+03  0.00000000000E+00 0.  1.
         13    1    3    3    0    0  0.27938999507E+02 -0.54352579505E+02 -0.41461004978E+02  0.73849885078E+02  0.00000000000E+00 0. -1.
         21    1    1    2  502  501  0.91297756316E+01  0.22531655608E+02  0.16514271079E+02  0.29389614777E+02  0.00000000000E+00 0.  1.
<scales pt_clust_5="13000.00000" pt_clust_6="13000.00000" pt_clust_7="13000.00000" pt_clust_8="13000.00000" pt_clust_9="24.31107"></scales>
<clustering>
<clus scale="   24.311">  1  9  2 -1</clus>
<clus scale="   89.160">  7  8 -1 -1</clus>
<clus scale="   91.908">  5  6 -1 -1</clus>
<clus scale="  165.566">  2  7  1 -1</clus>
<clus scale="   24.311">  1  5  2 -1</clus>
</clustering>
</event>
<event>
 9    1  0.9000149E-006  0.1143987E+03  0.7546771E-02  0.1254335E+00
         -2   -1    0    0    0  501 -0.00000000000E+00  0.00000000000E+00  0.15575765269E+03  0.15575765269E+03  0.00000000000E+00 0. -1.
          2   -1    0    0  502    0  0.00000000000E+00 -0.00000000000E+00 -0.13175892422E+03  0.13175892422E+03  0.00000000000E+00 0.  1.
         23    2    1    2    0    0  0.42757780336E+02  0.49766960582E+02  0.81520062022E+02  0.14106574950E+03  0.94599402885E+02 0.  0.
         23    2    1    2    0    0 -0.21432874638E+02 -0.60339832218E+02 -0.42607316248E+02  0.11836230431E+03  0.89966594997E+02 0.  0.
        -11    1    4    4    0    0 -0.87133628541E+01  0.23698698646E+02 -0.12654129955E+02  0.28243194130E+02  0.00000000000E+00 0. -1.
         11    1    4    4    0    0 -0.12719511784E+02 -0.84038530864E+02 -0.29953186293E+02  0.90119110176E+02  0.00000000000E+00 0.  1.
        -13    1    3    3    0    0  0.61118282615E+02  0.25551366197E+02  0.14983387901E+02  0.67917734778E+02  0.00000000000E+00 0.  1.
         13    1    3    3    0    0 -0.18360502279E+02  0.24215594385E+02  0.66536674121E+02  0.73148014727E+02  0.00000000000E+00 0. -1.
         21    1    1    2  502  501 -0.21324905699E+02  0.10572871636E+02 -0.14914017304E+02  0.28088523098E+02  0.00000000000E+00 0. -1.
<scales pt_clust_5="13000.00000" pt_clust_6="13000.00000" pt_clust_7="13000.00000" pt_clust_8="13000.00000" pt_clust_9="23.80204"></scales>
<clustering>
<clus scale="   23.802">  2  9  1 -1</clus>
<clus scale="   89.967">  5  6 -1 -1</clus>
<clus scale="   94.599">  7  8 -1 -1</clus>
<clus scale="  110.598">  2  5  1 -1</clus>
<clus scale="   23.802">  2  5  1 -1</clus>
</clustering>
</event>
<event>
 9    1  0.9000149E-006  0.2774759E+03  0.7546771E-02  0.1097289E+00
          1   -1    0    0  502    0  0.00000000000E+00  0.00000000000E+00  0.32713657928E+03  0.32713657928E+03  0.00000000000E+00 0. -1.
         -1   -1    0    0    0  501 -0.00000000000E+00 -0.00000000000E+00 -0.52989701033E+03  0.52989701033E+03  0.00000000000E+00 0.  1.
         23    2    1    2    0    0 -0.35818265381E+02 -0.25685299031E+03 -0.22581746950E+03  0.35626580472E+03  0.93141759230E+02 0.  0.
         23    2    1    2    0    0  0.13890938707E+02  0.26410077408E+03 -0.15647055371E+03  0.31976089449E+03  0.88441044892E+02 0.  0.
        -11    1    3    3    0    0  0.42324518400E+00 -0.12396595821E+03 -0.16324299805E+03  0.20497808259E+03  0.00000000000E+00 0.  1.
         11    1    3    3    0    0 -0.36241510565E+02 -0.13288703210E+03 -0.62574471454E+02  0.15128772212E+03  0.00000000000E+00 0. -1.
        -11    1    4    4    0    0 -0.31417674235E+02  0.48728593430E+02 -0.23059151950E+02  0.62396078088E+02  0.00000000000E+00 0.  1.
         11    1    4    4    0    0  0.45308612943E+02  0.21537218065E+03 -0.13341140176E+03  0.25736481640E+03  0.00000000000E+00 0. -1.
         21    1    1    2  502  501  0.21927326673E+02 -0.72477837655E+01  0.17952759216E+03  0.18100689040E+03  0.00000000000E+00 0.  1.
<scales pt_clust_5="13000.00000" pt_clust_6="13000.00000" pt_clust_7="13000.00000" pt_clust_8="13000.00000" pt_clust_9="23.09411"></scales>
<clustering>
<clus scale="   23.094">  1  9  2 -1</clus>
<clus scale="   88.441">  7  8 -1 -1</clus>
<clus scale="   93.142">  5  6 -1 -1</clus>
<clus scale="  275.934">  1  7  2 -1</clus>
<clus scale="   23.094">  1  5  2 -1</clus>
</clustering>
</event>
<event>
 9    1  0.9000149E-006  0.1308468E+03  0.7546771E-02  0.1228852E+00
          2   -1    0    0  502    0  0.00000000000E+00  0.00000000000E+00  0.51136393750E+03  0.51136393750E+03  0.00000000000E+00 0. -1.
         -2   -1    0    0    0  501 -0.00000000000E+00 -0.00000000000E+00 -0.66240237284E+02  0.66240237284E+02  0.00000000000E+00 0.  1.
         23    2    1    2    0    0 -0.38891237457E+02 -0.46238707286E+02  0.17328370971E+02  0.10156900997E+03  0.79783738592E+02 0.  0.
         23    2    1    2    0    0  0.73166327504E+02  0.74114631285E+02  0.40179726431E+03  0.42477359717E+03  0.90251189446E+02 0.  0.
        -11    1    3    3    0    0 -0.36690201396E+01  0.21139170332E+02 -0.55705774916E+01  0.22166586673E+02  0.00000000000E+00 0.  1.
         11    1    3    3    0    0 -0.35222217317E+02 -0.67377877619E+02  0.22898948463E+02  0.79402423300E+02  0.00000000000E+00 0. -1.
        -13    1    4    4    0    0  0.84906078674E+02  0.27597520117E+02  0.27904441801E+03  0.29297858716E+03  0.00000000000E+00 0.  1.
         13    1    4    4    0    0 -0.11739751171E+02  0.46517111168E+02  0.12275284630E+03  0.13179501001E+03  0.00000000000E+00 0. -1.
         21    1    1    2  502  501 -0.34275090047E+02 -0.27875923999E+02  0.25998064936E+02  0.51261567640E+02  0.00000000000E+00 0. -1.
<scales pt_clust_5="13000.00000" pt_clust_6="13000.00000" pt_clust_7="13000.00000" pt_clust_8="13000.00000" pt_clust_9="44.17973"></scales>
<clustering>
<clus scale="   44.180">  2  9  1 -1</clus>
<clus scale="   79.784">  5  6 -1 -1</clus>
<clus scale="   90.251">  7  8 -1 -1</clus>
<clus scale="  123.859">  2  5  1 -1</clus>
<clus scale="  130.847">  1  5  2 -1</clus>
</clustering>
</event>
<event>
 9    1  0.9000149E-006  0.1206998E+03  0.7546771E-02  0.1242509E+00
         -1   -1    0    0    0  501 -0.00000000000E+00  0.00000000000E+00  0.21928425665E+03  0.21928425665E+03  0.00000000000E+00 0.  1.
          1   -1    0    0  502    0  0.00000000000E+00 -0.00000000000E+00 -0.13417354641E+03  0.13417354641E+03  0.00000000000E+00 0. -1.
         23    2    1    2    0    0 -0.68584584457E+02  0.10393837165E+01  0.12701197173E+03  0.17229686861E+03  0.94070422707E+02 0.  0.
         23    2    1    2    0    0  0.97138936892E+02 -0.10758665601E+01 -0.44747417398E+01  0.13408549759E+03  0.92313416149E+02 0.  0.
        -11    1    4    4    0    0  0.69099278417E+01 -0.33873192279E+02  0.12166114131E+02  0.36649073535E+02  0.00000000000E+00 0.  1.
         11    1    4    4    0    0  0.90229009050E+02  0.32797325719E+02 -0.16640855871E+02  0.97436424055E+02  0.00000000000E+00 0. -1.
        -13    1    3    3    0    0 -0.32758185589E+02 -0.80020505468E+01 -0.59974446966E+01  0.34250560271E+02  0.00000000000E+00 0.  1.
         13    1    3    3    0    0 -0.35826398869E+02  0.90414342633E+01  0.13300941643E+03  0.13804630834E+03  0.00000000000E+00 0. -1.
         21    1    1    2  502  501 -0.28554352435E+02  0.36482843627E-01 -0.37426519753E+02  0.47075436852E+02  0.00000000000E+00 0. -1.
<scales pt_clust_5="13000.00000" pt_clust_6="13000.00000" pt_clust_7="13000.00000" pt_clust_8="13000.00000" pt_clust_9="28.55438"></scales>
<clustering>
<clus scale="   28.554">  2  9  1 -1</clus>
<clus scale="   92.313">  5  6 -1 -1</clus>
<clus scale="   94.070">  7  8 -1 -1</clus>
<clus scale="  119.336">  2  5  1 -1</clus>
<clus scale="   28.554">  2  5  1 -1</clus>
</clustering>
</event>
<event>
 9    1  0.9000149E-006  0.1055281E+03  0.7546771E-02  0.1271370E+00
          1   -1    0    0  502    0  0.00000000000E+00  0.00000000000E+00  0.64572433237E+02  0.64572433237E+02  0.00000000000E+00 0. -1.
         -1   -1    0    0    0  501 -0.00000000000E+00 -0.00000000000E+00 -0.33763128388E+03  0.33763128388E+03  0.00000000000E+00 0.  1.
         23    2    1    2    0    0  0.12720437471E+02 -0.69320571075E+02 -0.17461323814E+03  0.20885683468E+03  0.90356202634E+02 0.  0.
         23    2    1    2    0    0  0.60551819574E+01  0.16100505405E+02 -0.96612929791E+02  0.13688222092E+03  0.95429516912E+02 0.  0.
        -11    1    3    3    0    0 -0.30208769720E+02 -0.11312292474E+01 -0.26303311479E+02  0.40071356882E+02  0.00000000000E+00 0. -1.
         11    1    3    3    0    0  0.42929207190E+02 -0.68189341828E+02 -0.14830992666E+03  0.16878547779E+03  0.00000000000E+00 0.  1.
        -13    1    4    4    0    0  0.44307037140E+02  0.11775388959E+02 -0.85164991034E+02  0.96720468480E+02  0.00000000000E+00 0.  1.
         13    1    4    4    0    0 -0.38251855182E+02  0.43251164463E+01 -0.11447938757E+02  0.40161752438E+02  0.00000000000E+00 0. -1.
         21    1    1    2  502  501 -0.18775619428E+02  0.53220065670E+02 -0.18326827138E+01  0.56464661522E+02  0.00000000000E+00 0.  1.
<scales pt_clust_5="13000.00000" pt_clust_6="13000.00000" pt_clust_7="13000.00000" pt_clust_8="13000.00000" pt_clust_9="56.43491"></scales>
<clustering>
<clus scale="   56.435">  1  9  2 -1</clus>
<clus scale="   90.356">  5  6 -1 -1</clus>
<clus scale="   95.430">  7  8 -1 -1</clus>
<clus scale="  100.963">  2  5  1 -1</clus>
<clus scale="   56.435">  1  5  2 -1</clus>
</clustering>
</event>
<event>
 9    1  0.9000149E-006  0.1047958E+03  0.7546771E-02  0.1270889E+00
          1   -1    0    0  502    0  0.00000000000E+00  0.00000000000E+00  0.30120257863E+03  0.30120257863E+03  0.00000000000E+00 0. -1.
         -1   -1    0    0    0  501 -0.00000000000E+00 -0.00000000000E+00 -0.73223590370E+02  0.73223590370E+02  0.00000000000E+00 0.  1.
         23    2    1    2    0    0 -0.36542583379E+02 -0.70518118393E+01  0.40883048040E+02  0.10726361836E+03  0.91918288472E+02 0.  0.
         23    2    1    2    0    0  0.66065259585E+02 -0.21740044724E+02  0.51867058814E+02  0.12578571456E+03  0.91074728266E+02 0.  0.
        -11    1    3    3    0    0  0.20272969036E+02  0.25835591944E+02  0.78113729303E+01  0.33756312472E+02  0.00000000000E+00 0. -1.
         11    1    3    3    0    0 -0.56815552415E+02 -0.32887403784E+02  0.33071675110E+02  0.73507305885E+02  0.00000000000E+00 0.  1.
        -11    1    4    4    0    0  0.65638014458E+01 -0.31182338462E+02  0.57019738162E+02  0.65319769300E+02  0.00000000000E+00 0. -1.
         11    1    4    4    0    0  0.59501458139E+02  0.94422937379E+01 -0.51526793478E+01  0.60465945260E+02  0.00000000000E+00 0.  1.
         21    1    1    2  502  501 -0.29522676206E+02  0.28791856564E+02  0.13522888141E+03  0.14137683609E+03  0.00000000000E+00 0.  1.
<scales pt_clust_5="13000.00000" pt_clust_6="13000.00000" pt_clust_7="13000.00000" pt_clust_8="13000.00000" pt_clust_9="41.23784"></scales>
<clustering>
<clus scale="   41.238">  1  9  2 -1</clus>
<clus scale="   91.075">  7  8 -1 -1</clus>
<clus scale="   91.918">  5  6 -1 -1</clus>
<clus scale="  104.057">  1  7  2 -1</clus>
<clus scale="   41.238">  1  5  2 -1</clus>
</clustering>
</event>
<event>
 9    1  0.9000149E-006  0.1004230E+03  0.7546771E-02  0.1280373E+00
         -1   -1    0    0    0  501 -0.00000000000E+00  0.00000000000E+00  0.28656889822E+03  0.28656889822E+03  0.00000000000E+00 0.  1.
          1   -1    0    0  502    0  0.00000000000E+00 -0.00000000000E+00 -0.48459992657E+02  0.48459992657E+02  0.00000000000E+00 0. -1.
         23    2    1    2    0    0  0.37872948275E+02 -0.26803337206E+02  0.16269408904E+03  0.19161085214E+03  0.89958729170E+02 0.  0.
         23    2    1    2    0    0 -0.16376414512E+02  0.27717139656E+02  0.73048684223E+02  0.12177237910E+03  0.91956376956E+02 0.  0.
        -13    1    4    4    0    0 -0.13141417095E+02 -0.32928206300E+02  0.36534495778E+02  0.50909065943E+02  0.00000000000E+00 0.  1.
         13    1    4    4    0    0 -0.32349974173E+01  0.60645345956E+02  0.36514188445E+02  0.70863313161E+02  0.00000000000E+00 0. -1.
        -13    1    3    3    0    0  0.60626952828E+02  0.59009634133E+01  0.89235225844E+02  0.10804339087E+03  0.00000000000E+00 0.  1.
         13    1    3    3    0    0 -0.22754004553E+02 -0.32704300620E+02  0.73458863197E+02  0.83567461278E+02  0.00000000000E+00 0. -1.
         21    1    1    2  502  501 -0.21496533763E+02 -0.91380244992E+00  0.23661322982E+01  0.21645659629E+02  0.00000000000E+00 0. -1.
<scales pt_clust_5="13000.00000" pt_clust_6="13000.00000" pt_clust_7="13000.00000" pt_clust_8="13000.00000" pt_clust_9="21.51595"></scales>
<clustering>
<clus scale="   21.516">  2  9  1 -1</clus>
<clus scale="   89.959">  7  8 -1 -1</clus>
<clus scale="   91.956">  5  6 -1 -1</clus>
<clus scale="   98.597">  1  7  2 -1</clus>
<clus scale="   21.516">  2  5  1 -1</clus>
</clustering>
</event>
<event>
 9    1  0.9000149E-006  0.9440338E+02  0.7546771E-02  0.1293133E+00
          3   -1    0    0  502    0  0.00000000000E+00  0.00000000000E+00  0.41731558359E+03  0.41731558359E+03  0.00000000000E+00 0. -1.
         -3   -1    0    0    0  501 -0.00000000000E+00 -0.00000000000E+00 -0.43188790637E+02  0.43188790637E+02  0.00000000000E+00 0.  1.
         23    2    1    2    0    0  0.10859976167E+02  0.19633222146E+02  0.36830487407E+02  0.10194857972E+03  0.92377625056E+02 0.  0.
         23    2    1    2    0    0 -0.21496785634E+02  0.48894978985E+01  0.24209163203E+03  0.25966982294E+03  0.91290961550E+02 0.  0.
        -11    1    3    3    0    0  0.43286371869E+02  0.33788271663E+02  0.64053007809E+01  0.55284583472E+02  0.00000000000E+00 0. -1.
         11    1    3    3    0    0 -0.32426395702E+02 -0.14155049517E+02  0.30425186627E+02  0.46663996253E+02  0.00000000000E+00 0.  1.
        -13    1    4    4    0    0  0.13706225425E+02 -0.36840777172E+02  0.10338090700E+03  0.11060160672E+03  0.00000000000E+00 0. -1.
         13    1    4    4    0    0 -0.35203011059E+02  0.41730275070E+02  0.13871072504E+03  0.14906821621E+03  0.00000000000E+00 0.  1.
         21    1    1    2  502  501  0.10636809468E+02 -0.24522720045E+02  0.95204673513E+02  0.98885971567E+02  0.00000000000E+00 0.  1.
<scales pt_clust_5="13000.00000" pt_clust_6="13000.00000" pt_clust_7="13000.00000" pt_clust_8="13000.00000" pt_clust_9="26.73024"></scales>
<clustering>
<clus scale="   26.730">  1  9  2 -1</clus>
<clus scale="   91.291">  7  8 -1 -1</clus>
<clus scale="   92.378">  5  6 -1 -1</clus>
<clus scale="   93.340">  1  7  2 -1</clus>
<clus scale="   26.730">  1  5  2 -1</clus>
</clustering>
</event>
<event>
 9    1  0.9000149E-006  0.1165510E+03  0.7546771E-02  0.1249201E+00
         -1   -1    0    0    0  501 -0.00000000000E+00  0.00000000000E+00  0.12753701147E+03  0.12753701147E+03  0.00000000000E+00 0.  1.
          1   -1    0    0  502    0  0.00000000000E+00 -0.00000000000E+00 -0.17674195753E+03  0.17674195753E+03  0.00000000000E+00 0. -1.
         23    2    1    2    0    0  0.57061184149E+02 -0.31512072038E+02  0.40142526880E+02  0.12009497740E+03  0.92533192488E+02 0.  0.
         23    2    1    2    0    0 -0.64031702916E+02  0.54984622926E+02 -0.43057597421E+02  0.13181700435E+03  0.91642774973E+02 0.  0.
        -11    1    4    4    0    0 -0.22551135902E+02  0.15611291453E+02 -0.65008366277E+02  0.70557450615E+02  0.00000000000E+00 0. -1.
         11    1    4    4    0    0 -0.41480567014E+02  0.39373331473E+02  0.21950768855E+02  0.61259553740E+02  0.00000000000E+00 0.  1.
        -13    1    3    3    0    0  0.61084431051E+02  0.13977638645E+02  0.40159679247E+02  0.74427696029E+02  0.00000000000E+00 0.  1.
         13    1    3    3    0    0 -0.40232469018E+01 -0.45489710684E+02 -0.17152367251E-01  0.45667281372E+02  0.00000000000E+00 0. -1.
         21    1    1    2  502  501  0.69705187669E+01 -0.23472550887E+02 -0.46289875526E+02  0.52366987246E+02  0.00000000000E+00 0. -1.
<scales pt_clust_5="13000.00000" pt_clust_6="13000.00000" pt_clust_7="13000.00000" pt_clust_8="13000.00000" pt_clust_9="24.48569"></scales>
<clustering>
<clus scale="   24.486">  2  9  1 -1</clus>
<clus scale="   91.643">  5  6 -1 -1</clus>
<clus scale="   92.533">  7  8 -1 -1</clus>
<clus scale="  115.845">  2  5  1 -1</clus>
<clus scale="   24.486">  2  5  1 -1</clus>
</clustering>
</event>
<event>
 9    1  0.9000149E-006  0.9609744E+02  0.7546771E-02  0.1289839E+00
         -1   -1    0    0    0  501 -0.00000000000E+00  0.00000000000E+00  0.16207949846E+03  0.16207949846E+03  0.00000000000E+00 0.  1.
          1   -1    0    0  502    0  0.00000000000E+00 -0.00000000000E+00 -0.12865456629E+03  0.12865456629E+03  0.00000000000E+00 0. -1.
         23    2    1    2    0    0  0.64661460620E+01 -0.17657870561E+02  0.63691282721E+02  0.11239233086E+03  0.90674390559E+02 0.  0.
         23    2    1    2    0    0 -0.10673210015E+02  0.51205368443E+02  0.31804139612E+02  0.10766019635E+03  0.88562449223E+02 0.  0.
        -11    1    3    3    0    0 -0.14441224146E+02 -0.50731242696E+02  0.43455809073E+02  0.68341899904E+02  0.00000000000E+00 0. -1.
         11    1    3    3    0    0  0.20907370208E+02  0.33073372135E+02  0.20235473648E+02  0.44050430953E+02  0.00000000000E+00 0.  1.
        -13    1    4    4    0    0 -0.34192766511E+02  0.54385571853E+02 -0.43761972531E+01  0.64390114225E+02  0.00000000000E+00 0. -1.
         13    1    4    4    0    0  0.23519556496E+02 -0.31802034099E+01  0.36180336865E+02  0.43270082126E+02  0.00000000000E+00 0.  1.
         21    1    1    2  502  501  0.42070639532E+01 -0.33547497883E+02 -0.62070490159E+02  0.70681537547E+02  0.00000000000E+00 0. -1.
<scales pt_clust_5="13000.00000" pt_clust_6="13000.00000" pt_clust_7="13000.00000" pt_clust_8="13000.00000" pt_clust_9="33.81026"></scales>
<clustering>
<clus scale="   33.810">  2  9  1 -1</clus>
<clus scale="   88.562">  7  8 -1 -1</clus>
<clus scale="   90.674">  5  6 -1 -1</clus>
<clus scale="   94.107">  2  7  1 -1</clus>
<clus scale="   33.810">  2  5  1 -1</clus>
</clustering>
</event>
<event>
 9    1  0.9000149E-006  0.1032757E+03  0.7546771E-02  0.1274459E+00
         -2   -1    0    0    0  501 -0.00000000000E+00  0.00000000000E+00  0.16909963084E+03  0.16909963084E+03  0.00000000000E+00 0.  1.
          2   -1    0    0  502    0  0.00000000000E+00 -0.00000000000E+00 -0.45486436357E+03  0.45486436357E+03  0.00000000000E+00 0. -1.
         23    2    1    2    0    0 -0.43257360466E+02 -0.20745163659E+02  0.14094070035E+03  0.17343941615E+03  0.88968471996E+02 0.  0.
         23    2    1    2    0    0  0.49825668836E+02  0.48163575013E+02 -0.30899103773E+03  0.32948082240E+03  0.90993536586E+02 0.  0.
        -11    1    3    3    0    0 -0.41351059297E+02  0.64219885487E+01  0.14791569351E+02  0.44384035032E+02  0.00000000000E+00 0. -1.
         11    1    3    3    0    0 -0.19063011689E+01 -0.27167152208E+02  0.12614913100E+03  0.12905538112E+03  0.00000000000E+00 0.  1.
        -13    1    4    4    0    0  0.25990644635E+02 -0.25800641036E+02 -0.10334060490E+03  0.10963789175E+03  0.00000000000E+00 0.  1.
         13    1    4    4    0    0  0.23835024201E+02  0.73964216049E+02 -0.20565043283E+03  0.21984293065E+03  0.00000000000E+00 0. -1.
         21    1    1    2  502  501 -0.65683083699E+01 -0.27418411353E+02 -0.11771439536E+03  0.12104375585E+03  0.00000000000E+00 0.  1.
<scales pt_clust_5="13000.00000" pt_clust_6="13000.00000" pt_clust_7="13000.00000" pt_clust_8="13000.00000" pt_clust_9="28.19418"></scales>
<clustering>
<clus scale="   28.194">  2  9  1 -1</clus>
<clus scale="   88.968">  5  6 -1 -1</clus>
<clus scale="   90.994">  7  8 -1 -1</clus>
<clus scale="  101.496">  1  5  2 -1</clus>
<clus scale="   28.194">  2  5  1 -1</clus>
</clustering>
</event>
<event>
 9    1  0.9000149E-006  0.1063137E+03  0.7546771E-02  0.1270609E+00
          1   -1    0    0  502    0  0.00000000000E+00  0.00000000000E+00  0.50082241164E+03  0.50082241164E+03  0.00000000000E+00 0. -1.
         -1   -1    0    0    0  501 -0.00000000000E+00 -0.00000000000E+00 -0.33143567433E+02  0.33143567433E+02  0.00000000000E+00 0.  1.
         23    2    1    2    0    0  0.21396530979E+02  0.33573813475E+02  0.14363726526E+03  0.17595372683E+03  0.93504211264E+02 0.  0.
         23    2    1    2    0    0 -0.41055665012E+02 -0.24338374746E+01  0.18613964760E+03  0.21527780537E+03  0.10002536619E+03 0.  0.
        -11    1    4    4    0    0 -0.55935316083E+02 -0.27559245037E+02  0.62688596603E+02  0.88420199708E+02  0.00000000000E+00 0.  1.
         11    1    4    4    0    0  0.14879651072E+02  0.25125407563E+02  0.12345105100E+03  0.12685760566E+03  0.00000000000E+00 0. -1.
        -13    1    3    3    0    0 -0.24339261557E+02  0.36389917467E+02  0.29041011925E+02  0.52535760392E+02  0.00000000000E+00 0.  1.
         13    1    3    3    0    0  0.45735792536E+02 -0.28161039912E+01  0.11459625334E+03  0.12341796644E+03  0.00000000000E+00 0. -1.
         21    1    1    2  502  501  0.19659134032E+02 -0.31139976001E+02  0.13790193134E+03  0.14273444687E+03  0.00000000000E+00 0. -1.
<scales pt_clust_5="13000.00000" pt_clust_6="13000.00000" pt_clust_7="13000.00000" pt_clust_8="13000.00000" pt_clust_9="36.82634"></scales>
<clustering>
<clus scale="   36.826">  1  9  2 -1</clus>
<clus scale="   93.504">  7  8 -1 -1</clus>
<clus scale="  100.025">  5  6 -1 -1</clus>
<clus scale="  100.203">  2  7  1 -1</clus>
<clus scale="   36.826">  1  5  2 -1</clus>
</clustering>
</event>
<event>
 9    1  0.9000149E-006  0.2614748E+03  0.7546771E-02  0.1106503E+00
         -1   -1    0    0    0  501 -0.00000000000E+00  0.00000000000E+00  0.37009494849E+03  0.37009494849E+03  0.00000000000E+00 0.  1.
          1   -1    0    0  502    0  0.00000000000E+00 -0.00000000000E+00 -0.63335686563E+03  0.63335686563E+03  0.00000000000E+00 0. -1.
         23    2    1    2    0    0 -0.83693183756E+02  0.22824370578E+03  0.26736522939E+03  0.37241433973E+03  0.90047411475E+02 0.  0.
         23    2    1    2    0    0  0.11079250771E+03 -0.22352031719E+03 -0.31132682747E+03  0.41001866590E+03  0.94628753192E+02 0.  0.
        -11    1    4    4    0    0  0.73189920955E+01 -0.21714595611E+02  0.22518490329E+01  0.23025249877E+02  0.00000000000E+00 0.  1.
         11    1    4    4    0    0  0.10347351561E+03 -0.20180572158E+03 -0.31357867650E+03  0.38699341603E+03  0.00000000000E+00 0. -1.
        -13    1    3    3    0    0 -0.31817123014E+02  0.14910146206E+03  0.21704037059E+03  0.26523592851E+03  0.00000000000E+00 0.  1.
         13    1    3    3    0    0 -0.51876060741E+02  0.79142243717E+02  0.50324858804E+02  0.10717841122E+03  0.00000000000E+00 0. -1.
         21    1    1    2  502  501 -0.27099323950E+02 -0.47233885927E+01 -0.21930031907E+03  0.22101880848E+03  0.00000000000E+00 0. -1.
<scales pt_clust_5="13000.00000" pt_clust_6="13000.00000" pt_clust_7="13000.00000" pt_clust_8="13000.00000" pt_clust_9="27.50789"></scales>
<clustering>
<clus scale="   27.508">  2  9  1 -1</clus>
<clus scale="   90.047">  7  8 -1 -1</clus>
<clus scale="   94.629">  5  6 -1 -1</clus>
<clus scale="  259.852">  1  7  2 -1</clus>
<clus scale="   27.508">  2  5  1 -1</clus>
</clustering>
</event>
<event>
 9    1  0.9000149E-006  0.1081982E+03  0.7546771E-02  0.1265706E+00
          1   -1    0    0  502    0  0.00000000000E+00  0.00000000000E+00  0.65522859378E+03  0.65522859378E+03  0.00000000000E+00 0. -1.
         -1   -1    0    0    0  501 -0.00000000000E+00 -0.00000000000E+00 -0.13692325816E+03  0.13692325816E+03  0.00000000000E+00 0.  1.
         23    2    1    2    0    0 -0.32106652563E+01  0.58647922571E+02 -0.10636076200E+03  0.14997781648E+03  0.87925232711E+02 0.  0.
         23    2    1    2    0    0  0.24987446698E+02 -0.21613321987E+02  0.32514643082E+03  0.33958880673E+03  0.92243417121E+02 0.  0.
        -11    1    4    4    0    0 -0.90546113121E+01  0.32254497044E+02  0.92774981591E+02  0.98638409227E+02  0.00000000000E+00 0.  1.
         11    1    4    4    0    0  0.34042058010E+02 -0.53867819031E+02  0.23237144923E+03  0.24095039750E+03  0.00000000000E+00 0. -1.
        -11    1    3    3    0    0 -0.17463071756E+02 -0.15460686363E+02 -0.54200712275E+01  0.23945122052E+02  0.00000000000E+00 0. -1.
         11    1    3    3    0    0  0.14252406499E+02  0.74108608934E+02 -0.10094069078E+03  0.12603269442E+03  0.00000000000E+00 0.  1.
         21    1    1    2  502  501 -0.21776781442E+02 -0.37034600584E+02  0.29951966680E+03  0.30258522874E+03  0.00000000000E+00 0. -1.
<scales pt_clust_5="13000.00000" pt_clust_6="13000.00000" pt_clust_7="13000.00000" pt_clust_8="13000.00000" pt_clust_9="42.96266"></scales>
<clustering>
<clus scale="   42.963">  1  9  2 -1</clus>
<clus scale="   87.925">  7  8 -1 -1</clus>
<clus scale="   92.243">  5  6 -1 -1</clus>
<clus scale="  104.541">  2  7  1 -1</clus>
<clus scale="   42.963">  1  5  2 -1</clus>
</clustering>
</event>
<event>
 9    1  0.9000149E-006  0.1376161E+03  0.7546771E-02  0.1233663E+00
         -1   -1    0    0    0  501 -0.00000000000E+00  0.00000000000E+00  0.11119371085E+03  0.11119371085E+03  0.00000000000E+00 0.  1.
          1   -1    0    0  502    0  0.00000000000E+00 -0.00000000000E+00 -0.34496050162E+03  0.34496050162E+03  0.00000000000E+00 0. -1.
         23    2    1    2    0    0 -0.15974433961E+02  0.17161873986E+02  0.26260666655E+02  0.99929770628E+02  0.93523387372E+02 0.  0.
         23    2    1    2    0    0  0.13076313293E+02  0.91964536232E+02 -0.10916908783E+03  0.17001160612E+03  0.91419858803E+02 0.  0.
        -11    1    3    3    0    0 -0.45334308130E+02  0.31291898757E+02 -0.43061265180E+01  0.55253281776E+02  0.00000000000E+00 0. -1.
         11    1    3    3    0    0  0.29359874169E+02 -0.14130024771E+02  0.30566793173E+02  0.44676488852E+02  0.00000000000E+00 0.  1.
        -11    1    4    4    0    0  0.18295225509E+02  0.65189551961E+02 -0.11592141241E+02  0.68693308989E+02  0.00000000000E+00 0.  1.
         11    1    4    4    0    0 -0.52189122161E+01  0.26774984270E+02 -0.97576946590E+02  0.10131829713E+03  0.00000000000E+00 0. -1.
         21    1    1    2  502  501  0.28981206679E+01 -0.10912641022E+03 -0.15085836959E+03  0.18621283572E+03  0.00000000000E+00 0. -1.
<scales pt_clust_5="13000.00000" pt_clust_6="13000.00000" pt_clust_7="13000.00000" pt_clust_8="13000.00000" pt_clust_9="102.86202"></scales>
<clustering>
<clus scale="   91.420">  7  8 -1 -1</clus>
<clus scale="   93.523">  5  6 -1 -1</clus>
<clus scale="   96.418">  1  5  2 -1</clus>
<clus scale="  102.862">  2  9  1 -1</clus>
<clus scale="  102.862">  2  5  1 -1</clus>
</clustering>
</event>
<event>
 9    1  0.9000149E-006  0.1250254E+03  0.7546771E-02  0.1235229E+00
         -2   -1    0    0    0  501 -0.00000000000E+00  0.00000000000E+00  0.15349346414E+03  0.15349346414E+03  0.00000000000E+00 0.  1.
          2   -1    0    0  502    0  0.00000000000E+00 -0.00000000000E+00 -0.25219167894E+03  0.25219167894E+03  0.00000000000E+00 0. -1.
         23    2    1    2    0    0 -0.27424537455E+02 -0.86621110390E+02  0.36438021437E+02  0.13526889374E+03  0.93352140773E+02 0.  0.
         23    2    1    2    0    0 -0.26506453984E+02  0.78661636294E+02  0.30976242764E+00  0.12441103156E+03  0.92670187726E+02 0.  0.
        -11    1    4    4    0    0  0.31334655087E+02  0.72274183896E+01 -0.39376114950E+01  0.32397545744E+02  0.00000000000E+00 0. -1.
         11    1    4    4    0    0 -0.57841109071E+02  0.71434217905E+02  0.42473739226E+01  0.92013485813E+02  0.00000000000E+00 0.  1.
        -13    1    3    3    0    0  0.49730738651E+01 -0.95786274570E+02  0.32961094304E+02  0.10142078484E+03  0.00000000000E+00 0.  1.
         13    1    3    3    0    0 -0.32397611320E+02  0.91651641803E+01  0.34769271326E+01  0.33848108898E+02  0.00000000000E+00 0. -1.
         21    1    1    2  502  501  0.53930991439E+02  0.79594740958E+01 -0.13544599866E+03  0.14600521778E+03  0.00000000000E+00 0. -1.
<scales pt_clust_5="13000.00000" pt_clust_6="13000.00000" pt_clust_7="13000.00000" pt_clust_8="13000.00000" pt_clust_9="54.51518"></scales>
<clustering>
<clus scale="   54.515">  2  9  1 -1</clus>
<clus scale="   92.670">  5  6 -1 -1</clus>
<clus scale="   93.352">  7  8 -1 -1</clus>
<clus scale="  124.517">  2  5  1 -1</clus>
<clus scale="   54.515">  2  5  1 -1</clus>
</clustering>
</event>
<event>
 9    1  0.9000149E-006  0.1886048E+03  0.7546771E-02  0.1159789E+00
         -2   -1    0    0    0  501 -0.00000000000E+00  0.00000000000E+00  0.19670905204E+03  0.19670905204E+03  0.00000000000E+00 0.  1.
          2   -1    0    0  502    0  0.00000000000E+00 -0.00000000000E+00 -0.33096984916E+03  0.33096984916E+03  0.00000000000E+00 0. -1.
         23    2    1    2    0    0  0.15273978864E+03  0.68181065118E+02  0.10303505943E+03  0.21688911726E+03  0.91905195941E+02 0.  0.
         23    2    1    2    0    0 -0.14682896969E+03 -0.48129138555E+02 -0.20702671831E+03  0.27400339694E+03  0.91338048579E+02 0.  0.
        -11    1    3    3    0    0  0.89272352046E+02 -0.97143964425E+01  0.40243957740E+02  0.98404768547E+02  0.00000000000E+00 0.  1.
         11    1    3    3    0    0  0.63467436597E+02  0.77895461560E+02  0.62791101685E+02  0.11848434872E+03  0.00000000000E+00 0. -1.
        -13    1    4    4    0    0 -0.10593841841E+03 -0.55064285168E+02 -0.19853213238E+03  0.23166793387E+03  0.00000000000E+00 0. -1.
         13    1    4    4    0    0 -0.40890551281E+02  0.69351466133E+01 -0.84945859300E+01  0.42335463063E+02  0.00000000000E+00 0.  1.
         21    1    1    2  502  501 -0.59108189500E+01 -0.20051926563E+02 -0.30269138236E+02  0.36786387008E+02  0.00000000000E+00 0.  1.
<scales pt_clust_5="13000.00000" pt_clust_6="13000.00000" pt_clust_7="13000.00000" pt_clust_8="13000.00000" pt_clust_9="20.90496"></scales>
<clustering>
<clus scale="   20.905">  2  9  1 -1</clus>
<clus scale="   91.338">  7  8 -1 -1</clus>
<clus scale="   91.905">  5  6 -1 -1</clus>
<clus scale="  188.329">  2  7  1 -1</clus>
<clus scale="   20.905">  2  5  1 -1</clus>
</clustering>
</event>
<event>
 9    1  0.9000149E-006  0.9280907E+02  0.7546771E-02  0.1297011E+00
          2   -1    0    0  502    0  0.00000000000E+00  0.00000000000E+00  0.26848549493E+03  0.26848549493E+03  0.00000000000E+00 0. -1.
         -2   -1    0    0    0  501 -0.00000000000E+00 -0.00000000000E+00 -0.95436992064E+02  0.95436992064E+02  0.00000000000E+00 0.  1.
         23    2    1    2    0    0 -0.10372293558E+01 -0.43316904733E+00 -0.35072989153E+02  0.98857894601E+02  0.92420264427E+02 0.  0.
         23    2    1    2    0    0 -0.28706345114E+02 -0.48091624475E+02  0.14413594483E+03  0.17942881682E+03  0.91009181511E+02 0.  0.
        -11    1    3    3    0    0 -0.24447768554E+02 -0.22481450483E+02 -0.52618741958E+02  0.62224119185E+02  0.00000000000E+00 0.  1.
         11    1    3    3    0    0  0.23410539198E+02  0.22048281435E+02  0.17545752805E+02  0.36633775417E+02  0.00000000000E+00 0. -1.
        -13    1    4    4    0    0  0.23499616331E+02 -0.29406030925E+02  0.10504407877E+03  0.11158496810E+03  0.00000000000E+00 0. -1.
         13    1    4    4    0    0 -0.52205961445E+02 -0.18685593550E+02  0.39091866068E+02  0.67843848722E+02  0.00000000000E+00 0.  1.
         21    1    1    2  502  501  0.29743574469E+02  0.48524793522E+02  0.63985547181E+02  0.85635775565E+02  0.00000000000E+00 0.  1.
<scales pt_clust_5="13000.00000" pt_clust_6="13000.00000" pt_clust_7="13000.00000" pt_clust_8="13000.00000" pt_clust_9="56.91516"></scales>
<clustering>
<clus scale="   56.915">  1  9  2 -1</clus>
<clus scale="   91.009">  7  8 -1 -1</clus>
<clus scale="   91.404">  1  7  2 -1</clus>
<clus scale="   92.420">  5  6 -1 -1</clus>
<clus scale="   56.915">  1  5  2 -1</clus>
</clustering>
</event>
<event>
 9    1  0.9000149E-006  0.1876388E+03  0.7546771E-02  0.1172540E+00
          1   -1    0    0  502    0  0.00000000000E+00  0.00000000000E+00  0.73799175576E+03  0.73799175576E+03  0.00000000000E+00 0. -1.
         -1   -1    0    0    0  501 -0.00000000000E+00 -0.00000000000E+00 -0.32542343471E+03  0.32542343471E+03  0.00000000000E+00 0.  1.
         23    2    1    2    0    0 -0.12621877300E+02  0.15746123892E+03 -0.23106534498E+03  0.29442892466E+03  0.91344646684E+02 0.  0.
         23    2    1    2    0    0 -0.35325107902E+02  0.10369248684E+03  0.14098302496E+03  0.20051652270E+03  0.91272490229E+02 0.  0.
        -11    1    4    4    0    0  0.22140844376E+01  0.10499735676E+03  0.10442069078E+03  0.14809803429E+03  0.00000000000E+00 0.  1.
         11    1    4    4    0    0 -0.37539192339E+02 -0.13048699144E+01  0.36562334176E+02  0.52418488412E+02  0.00000000000E+00 0. -1.
        -13    1    3    3    0    0 -0.20228609528E+02  0.31153173193E+02 -0.80356147635E+01  0.38003788601E+02  0.00000000000E+00 0. -1.
         13    1    3    3    0    0  0.76067322278E+01  0.12630806572E+03 -0.22302973022E+03  0.25642513606E+03  0.00000000000E+00 0.  1.
         21    1    1    2  502  501  0.47946985202E+02 -0.26115372576E+03  0.50265064107E+03  0.56846974311E+03  0.00000000000E+00 0. -1.
<scales pt_clust_5="13000.00000" pt_clust_6="13000.00000" pt_clust_7="13000.00000" pt_clust_8="13000.00000" pt_clust_9="163.90380"></scales>
<clustering>
<clus scale="   91.272">  5  6 -1 -1</clus>
<clus scale="   91.345">  7  8 -1 -1</clus>
<clus scale="  142.586">  1  5  2 -1</clus>
<clus scale="  163.904">  1  9  2 -1</clus>
<clus scale="  142.586">  1  5  2 -1</clus>
</clustering>
</event>
<event>
 9    1  0.9000149E-006  0.9875018E+02  0.7546771E-02  0.1283541E+00
          2   -1    0    0  502    0  0.00000000000E+00  0.00000000000E+00  0.80392746843E+02  0.80392746843E+02  0.00000000000E+00 0. -1.
         -2   -1    0    0    0  501 -0.00000000000E+00 -0.00000000000E+00 -0.22703830996E+03  0.22703830996E+03  0.00000000000E+00 0.  1.
         23    2    1    2    0    0 -0.38140127755E+02  0.12900429095E+02 -0.13536655886E+03  0.16544552930E+03  0.86180203607E+02 0.  0.
         23    2    1    2    0    0  0.56347949830E+02 -0.22191478222E+02 -0.33774614023E+02  0.11158979034E+03  0.87429992564E+02 0.  0.
        -11    1    4    4    0    0 -0.23571307953E+02 -0.93169970144E+01 -0.64618198328E+01  0.26156607340E+02  0.00000000000E+00 0.  1.
         11    1    4    4    0    0  0.79919257783E+02 -0.12874481208E+02 -0.27312794190E+02  0.85433182999E+02  0.00000000000E+00 0. -1.
        -11    1    3    3    0    0 -0.57193009992E+02 -0.73802379237E+01 -0.52332890620E+02  0.77873228676E+02  0.00000000000E+00 0.  1.
         11    1    3    3    0    0  0.19052882238E+02  0.20280667019E+02 -0.83033668239E+02  0.87572300629E+02  0.00000000000E+00 0. -1.
         21    1    1    2  502  501 -0.18207822075E+02  0.92910491272E+01  0.22495609767E+02  0.30395737158E+02  0.00000000000E+00 0.  1.
<scales pt_clust_5="13000.00000" pt_clust_6="13000.00000" pt_clust_7="13000.00000" pt_clust_8="13000.00000" pt_clust_9="20.44134"></scales>
<clustering>
<clus scale="   20.441">  1  9  2 -1</clus>
<clus scale="   86.180">  7  8 -1 -1</clus>
<clus scale="   87.430">  5  6 -1 -1</clus>
<clus scale="   97.645">  2  7  1 -1</clus>
<clus scale="   20.441">  1  5  2 -1</clus>
</clustering>
</event>
<event>
 9    1  0.9000149E-006  0.1026818E+03  0.7546771E-02  0.1275067E+00
         -1   -1    0    0    0  501 -0.00000000000E+00  0.00000000000E+00  0.66338334726E+02  0.66338334726E+02  0.00000000000E+00 0.  1.
          1   -1    0    0  502    0  0.00000000000E+00 -0.00000000000E+00 -0.35341567611E+03  0.35341567611E+03  0.00000000000E+00 0. -1.
         23    2    1    2    0    0  0.43880023581E+02 -0.12528960127E+02  0.22048492913E+01  0.10042364419E+03  0.89429389133E+02 0.  0.
         23    2    1    2    0    0 -0.66102280035E+02  0.11416885502E+02 -0.22907162545E+03  0.25514019951E+03  0.90126883451E+02 0.  0.
        -11    1    4    4    0    0 -0.29805428612E+02 -0.38713969784E+02 -0.12275285747E+03  0.13211888226E+03  0.00000000000E+00 0.  1.
         11    1    4    4    0    0 -0.36296851423E+02  0.50130855286E+02 -0.10631876798E+03  0.12302131725E+03  0.00000000000E+00 0. -1.
        -13    1    3    3    0    0  0.64752318265E+02 -0.24042589934E+02  0.18551685357E+02  0.71519744693E+02  0.00000000000E+00 0.  1.
         13    1    3    3    0    0 -0.20872294684E+02  0.11513629807E+02 -0.16346836066E+02  0.28903899496E+02  0.00000000000E+00 0. -1.
         21    1    1    2  502  501  0.22222256454E+02  0.11120746248E+01 -0.60210565222E+02  0.64190167131E+02  0.00000000000E+00 0. -1.
<scales pt_clust_5="13000.00000" pt_clust_6="13000.00000" pt_clust_7="13000.00000" pt_clust_8="13000.00000" pt_clust_9="22.25006"></scales>
<clustering>
<clus scale="   22.250">  2  9  1 -1</clus>
<clus scale="   89.429">  7  8 -1 -1</clus>
<clus scale="   90.127">  5  6 -1 -1</clus>
<clus scale="  102.070">  1  7  2 -1</clus>
<clus scale="   22.250">  2  5  1 -1</clus>
</clustering>
</event>
<event>
 9    1  0.9000149E-006  0.1760770E+03  0.7546771E-02  0.1174909E+00
          3   -1    0    0  502    0  0.00000000000E+00  0.00000000000E+00  0.35070393893E+03  0.35070393893E+03  0.00000000000E+00 0. -1.
         -3   -1    0    0    0  501 -0.00000000000E+00 -0.00000000000E+00 -0.18391357461E+03  0.18391357461E+03  0.00000000000E+00 0.  1.
         23    2    1    2    0    0  0.12217270646E+03  0.69121451074E+02 -0.10702185226E+03  0.20909991356E+03  0.11209438785E+03 0.  0.
         23    2    1    2    0    0 -0.93907479793E+02 -0.61450290503E+02  0.24481469335E+03  0.28430320811E+03  0.91100642682E+02 0.  0.
        -11    1    3    3    0    0  0.71661370746E+02  0.59219215477E+02 -0.12392901534E+03  0.15492149103E+03  0.00000000000E+00 0.  1.
         11    1    3    3    0    0  0.50511335717E+02  0.99022355967E+01  0.16907163073E+02  0.54178422540E+02  0.00000000000E+00 0. -1.
        -13    1    4    4    0    0 -0.20857776277E+02 -0.25328437135E+02  0.78779804278E+01  0.33743727336E+02  0.00000000000E+00 0.  1.
         13    1    4    4    0    0 -0.73049703516E+02 -0.36121853368E+02  0.23693671293E+03  0.25055948078E+03  0.00000000000E+00 0. -1.
         21    1    1    2  502  501 -0.28265226670E+02 -0.76711605701E+01  0.28997523227E+02  0.41214391861E+02  0.00000000000E+00 0.  1.
<scales pt_clust_5="13000.00000" pt_clust_6="13000.00000" pt_clust_7="13000.00000" pt_clust_8="13000.00000" pt_clust_9="29.28771"></scales>
<clustering>
<clus scale="   29.288">  1  9  2 -1</clus>
<clus scale="   91.101">  7  8 -1 -1</clus>
<clus scale="  112.094">  5  6 -1 -1</clus>
<clus scale="  163.515">  1  7  2 -1</clus>
<clus scale="   29.288">  1  5  2 -1</clus>
</clustering>
</event>
<event>
 9    1  0.9000149E-006  0.9301809E+02  0.7546771E-02  0.1299037E+00
          1   -1    0    0  502    0  0.00000000000E+00  0.00000000000E+00  0.18945504935E+03  0.18945504935E+03  0.00000000000E+00 0. -1.
         -1   -1    0    0    0  501 -0.00000000000E+00 -0.00000000000E+00 -0.74596602478E+02  0.74596602478E+02  0.00000000000E+00 0.  1.
         23    2    1    2    0    0  0.61204440255E+01  0.64296711728E+01 -0.16852415526E+02  0.89344623465E+02  0.87290648563E+02 0.  0.
         23    2    1    2    0    0  0.13761480051E+02 -0.37075059144E+00  0.10474435917E+03  0.14066009429E+03  0.92867462322E+02 0.  0.
        -13    1    4    4    0    0  0.38263363844E+02  0.33502159953E+02  0.46111451218E+02  0.68649440403E+02  0.00000000000E+00 0.  1.
         13    1    4    4    0    0 -0.24501883793E+02 -0.33872910544E+02  0.58632907951E+02  0.72010653885E+02  0.00000000000E+00 0. -1.
        -13    1    3    3    0    0  0.30880085276E+02  0.29094782880E+02 -0.31377570895E+02  0.52769669439E+02  0.00000000000E+00 0.  1.
         13    1    3    3    0    0 -0.24759641250E+02 -0.22665111707E+02  0.14525155369E+02  0.36574954026E+02  0.00000000000E+00 0. -1.
         21    1    1    2  502  501 -0.19881924077E+02 -0.60589205814E+01  0.26966503229E+02  0.34046934077E+02  0.00000000000E+00 0.  1.
<scales pt_clust_5="13000.00000" pt_clust_6="13000.00000" pt_clust_7="13000.00000" pt_clust_8="13000.00000" pt_clust_9="20.78464"></scales>
<clustering>
<clus scale="   20.785">  1  9  2 -1</clus>
<clus scale="   87.291">  7  8 -1 -1</clus>
<clus scale="   87.451">  2  7  1 -1</clus>
<clus scale="   92.867">  5  6 -1 -1</clus>
<clus scale="   20.785">  1  5  2 -1</clus>
</clustering>
</event>
<event>
 9    1  0.9000149E-006  0.9417819E+02  0.7546771E-02  0.1293590E+00
         -2   -1    0    0    0  501 -0.00000000000E+00  0.00000000000E+00  0.72975926866E+02  0.72975926866E+02  0.00000000000E+00 0.  1.
          2   -1    0    0  502    0  0.00000000000E+00 -0.00000000000E+00 -0.17793070806E+03  0.17793070806E+03  0.00000000000E+00 0. -1.
         23    2    1    2    0    0 -0.58288651407E+01 -0.11757368990E+02 -0.20153522678E+02  0.93370118806E+02  0.90219749585E+02 0.  0.
         23    2    1    2    0    0  0.22971858741E+02  0.28852010222E+02 -0.39206418450E+02  0.10591289334E+03  0.91215420515E+02 0.  0.
        -11    1    3    3    0    0  0.27725754590E+02 -0.25186289125E+02  0.17354661993E+02  0.41282574052E+02  0.00000000000E+00 0.  1.
         11    1    3    3    0    0 -0.33554619730E+02  0.13428920135E+02 -0.37508184671E+02  0.52087544754E+02  0.00000000000E+00 0. -1.
        -13    1    4    4    0    0  0.57434738307E+02  0.25418413428E+02 -0.32187339565E+02  0.70575277073E+02  0.00000000000E+00 0.  1.
         13    1    4    4    0    0 -0.34462879566E+02  0.34335967941E+01 -0.70190788843E+01  0.35337616266E+02  0.00000000000E+00 0. -1.
         21    1    1    2  502  501 -0.17142993600E+02 -0.17094641232E+02 -0.45594840062E+02  0.51623622778E+02  0.00000000000E+00 0. -1.
<scales pt_clust_5="13000.00000" pt_clust_6="13000.00000" pt_clust_7="13000.00000" pt_clust_8="13000.00000" pt_clust_9="24.20969"></scales>
<clustering>
<clus scale="   24.210">  2  9  1 -1</clus>
<clus scale="   90.220">  5  6 -1 -1</clus>
<clus scale="   91.215">  7  8 -1 -1</clus>
<clus scale="   93.214">  1  5  2 -1</clus>
<clus scale="   24.210">  2  5  1 -1</clus>
</clustering>
</event>
<event>
 9    1  0.9000149E-006  0.1013651E+03  0.7546771E-02  0.1278167E+00
          2   -1    0    0  502    0  0.00000000000E+00  0.00000000000E+00  0.73544020433E+03  0.73544020433E+03  0.00000000000E+00 0. -1.
         -2   -1    0    0    0  501 -0.00000000000E+00 -0.00000000000E+00 -0.27397781773E+02  0.27397781773E+02  0.00000000000E+00 0.  1.
         23    2    1    2    0    0 -0.19452338311E+02 -0.27004059176E+02  0.15126183872E+03  0.18099887003E+03  0.93663410251E+02 0.  0.
         23    2    1    2    0    0  0.57734050573E+02  0.50156463780E+01  0.26124944784E+03  0.28302875459E+03  0.92171712696E+02 0.  0.
        -11    1    4    4    0    0  0.61828260168E+02  0.38338143090E+02  0.20495100869E+03  0.21747979891E+03  0.00000000000E+00 0.  1.
         11    1    4    4    0    0 -0.40942095955E+01 -0.33322496712E+02  0.56298439149E+02  0.65548955675E+02  0.00000000000E+00 0. -1.
        -11    1    3    3    0    0  0.45679967666E+01 -0.32085818469E+02  0.51227594338E+01  0.32811720551E+02  0.00000000000E+00 0.  1.
         11    1    3    3    0    0 -0.24020335078E+02  0.50817592928E+01  0.14613907929E+03  0.14818714948E+03  0.00000000000E+00 0. -1.
         21    1    1    2  502  501 -0.38281712262E+02  0.21988412798E+02  0.29553113599E+03  0.29881036149E+03  0.00000000000E+00 0. -1.
<scales pt_clust_5="13000.00000" pt_clust_6="13000.00000" pt_clust_7="13000.00000" pt_clust_8="13000.00000" pt_clust_9="44.14725"></scales>
<clustering>
<clus scale="   44.147">  1  9  2 -1</clus>
<clus scale="   92.172">  5  6 -1 -1</clus>
<clus scale="   93.663">  7  8 -1 -1</clus>
<clus scale="   99.988">  1  5  2 -1</clus>
<clus scale="   44.147">  1  5  2 -1</clus>
</clustering>
</event>
<event>
 9    1  0.9000149E-006  0.2843938E+03  0.7546771E-02  0.1093458E+00
         -2   -1    0    0    0  501 -0.00000000000E+00  0.00000000000E+00  0.62300245529E+03  0.62300245529E+03  0.00000000000E+00 0.  1.
          2   -1    0    0  502    0  0.00000000000E+00 -0.00000000000E+00 -0.20366804358E+03  0.20366804358E+03  0.00000000000E+00 0. -1.
         23    2    1    2    0    0  0.17163580516E+03 -0.18825486277E+03  0.33143437241E+03  0.42773647535E+03  0.90614602358E+02 0.  0.
         23    2    1    2    0    0 -0.20667850243E+03  0.21492022724E+03  0.12947798908E+03  0.33837200405E+03  0.93938043571E+02 0.  0.
        -11    1    4    4    0    0 -0.10928816652E+03  0.16885980069E+03  0.10876996597E+03  0.22866665941E+03  0.00000000000E+00 0. -1.
         11    1    4    4    0    0 -0.97390335910E+02  0.46060426552E+02  0.20708023116E+02  0.10970534465E+03  0.00000000000E+00 0.  1.
        -13    1    3    3    0    0  0.12735065450E+03 -0.86242224493E+02  0.23319772448E+03  0.27935119328E+03  0.00000000000E+00 0.  1.
         13    1    3    3    0    0  0.44285150665E+02 -0.10201263828E+03  0.98236647935E+02  0.14838528207E+03  0.00000000000E+00 0. -1.
         21    1    1    2  502  501  0.35042697263E+02 -0.26665364466E+02 -0.41577949782E+02  0.60562019465E+02  0.00000000000E+00 0.  1.
<scales pt_clust_5="13000.00000" pt_clust_6="13000.00000" pt_clust_7="13000.00000" pt_clust_8="13000.00000" pt_clust_9="44.03444"></scales>
<clustering>
<clus scale="   44.034">  2  9  1 -1</clus>
<clus scale="   90.615">  7  8 -1 -1</clus>
<clus scale="   93.938">  5  6 -1 -1</clus>
<clus scale="  283.313">  1  7  2 -1</clus>
<clus scale="   44.034">  2  5  1 -1</clus>
</clustering>
</event>
<event>
 9    1  0.9000149E-006  0.1025433E+03  0.7546771E-02  0.1275691E+00
         -3   -1    0    0    0  501 -0.00000000000E+00  0.00000000000E+00  0.63561395214E+02  0.63561395214E+02  0.00000000000E+00 0.  1.
          3   -1    0    0  502    0  0.00000000000E+00 -0.00000000000E+00 -0.51455961354E+03  0.51455961354E+03  0.00000000000E+00 0. -1.
         23    2    1    2    0    0  0.38123190876E+02  0.11810564684E+02 -0.42141540320E+01  0.99836269990E+02  0.91414739460E+02 0.  0.
         23    2    1    2    0    0 -0.75838571065E+02  0.88685716888E+01 -0.38247926734E+03  0.40092077109E+03  0.92827443762E+02 0.  0.
        -11    1    4    4    0    0 -0.29883013776E+02 -0.33789688861E+02 -0.25380147520E+03  0.25777883233E+03  0.00000000000E+00 0.  1.
         11    1    4    4    0    0 -0.45955557288E+02  0.42658260550E+02 -0.12867779215E+03  0.14314193876E+03  0.00000000000E+00 0. -1.
        -13    1    3    3    0    0 -0.28433987222E+02 -0.93100027454E+01 -0.12288159304E+01  0.29944578292E+02  0.00000000000E+00 0. -1.
         13    1    3    3    0    0  0.66557178098E+02  0.21120567429E+02 -0.29853381016E+01  0.69891691698E+02  0.00000000000E+00 0.  1.
         21    1    1    2  502  501  0.37715380189E+02 -0.20679136373E+02 -0.64304796948E+02  0.77363967675E+02  0.00000000000E+00 0.  1.
<scales pt_clust_5="13000.00000" pt_clust_6="13000.00000" pt_clust_7="13000.00000" pt_clust_8="13000.00000" pt_clust_9="43.01252"></scales>
<clustering>
<clus scale="   43.013">  2  9  1 -1</clus>
<clus scale="   91.415">  7  8 -1 -1</clus>
<clus scale="   92.827">  5  6 -1 -1</clus>
<clus scale="  101.266">  1  7  2 -1</clus>
<clus scale="   43.013">  2  5  1 -1</clus>
</clustering>
</event>
<event>
 9    1  0.9000149E-006  0.1609838E+03  0.7546771E-02  0.1187621E+00
          1   -1    0    0  502    0  0.00000000000E+00  0.00000000000E+00  0.24786241901E+03  0.24786241901E+03  0.00000000000E+00 0. -1.
         -1   -1    0    0    0  501 -0.00000000000E+00 -0.00000000000E+00 -0.33612170310E+03  0.33612170310E+03  0.00000000000E+00 0.  1.
         23    2    1    2    0    0  0.51008726917E+02 -0.12726791293E+03 -0.26748872859E+03  0.31486329978E+03  0.93753217257E+02 0.  0.
         23    2    1    2    0    0 -0.28252475856E+02  0.74135379523E+02  0.17117752622E+03  0.21076204872E+03  0.93939548698E+02 0.  0.
        -11    1    3    3    0    0  0.16961533291E+02 -0.12488323856E+03 -0.17034616280E+03  0.21189934418E+03  0.00000000000E+00 0.  1.
         11    1    3    3    0    0  0.34047193626E+02 -0.23846743752E+01 -0.97142565782E+02  0.10296395560E+03  0.00000000000E+00 0. -1.
        -13    1    4    4    0    0 -0.76429593371E+01 -0.19965707210E+02  0.59790035348E+02  0.63497185912E+02  0.00000000000E+00 0.  1.
         13    1    4    4    0    0 -0.20609516519E+02  0.94101086733E+02  0.11138749087E+03  0.14726486281E+03  0.00000000000E+00 0. -1.
         21    1    1    2  502  501 -0.22756251061E+02  0.53132533409E+02  0.80519182826E+01  0.58358773606E+02  0.00000000000E+00 0. -1.
<scales pt_clust_5="13000.00000" pt_clust_6="13000.00000" pt_clust_7="13000.00000" pt_clust_8="13000.00000" pt_clust_9="57.80063"></scales>
<clustering>
<clus scale="   57.801">  1  9  2 -1</clus>
<clus scale="   93.753">  5  6 -1 -1</clus>
<clus scale="   93.940">  7  8 -1 -1</clus>
<clus scale="  160.875">  2  5  1 -1</clus>
<clus scale="   57.801">  1  5  2 -1</clus>
</clustering>
</event>
<event>
 9    1  0.9000149E-006  0.9511512E+02  0.7546771E-02  0.1299277E+00
         -1   -1    0    0    0  501 -0.00000000000E+00  0.00000000000E+00  0.29623337052E+03  0.29623337052E+03  0.00000000000E+00 0.  1.
          1   -1    0    0  502    0  0.00000000000E+00 -0.00000000000E+00 -0.44548942430E+02  0.44548942430E+02  0.00000000000E+00 0. -1.
         23    2    1    2    0    0  0.79223215432E+01  0.90649749562E+00  0.12318801104E+03  0.14649493870E+03  0.78878996475E+02 0.  0.
         23    2    1    2    0    0 -0.43018387432E+02  0.20523700942E+02  0.88080179711E+02  0.13662924831E+03  0.92938848059E+02 0.  0.
        -11    1    3    3    0    0 -0.11652243040E+02 -0.27264757684E+02  0.15463761635E+02  0.33440539818E+02  0.00000000000E+00 0.  1.
         11    1    3    3    0    0  0.19574564583E+02  0.28171255180E+02  0.10772424941E+03  0.11305439888E+03  0.00000000000E+00 0. -1.
        -13    1    4    4    0    0 -0.38710106967E+02 -0.28552714763E+02  0.68307512197E+02  0.83544276431E+02  0.00000000000E+00 0.  1.
         13    1    4    4    0    0 -0.43082804648E+01  0.49076415705E+02  0.19772667514E+02  0.53084971881E+02  0.00000000000E+00 0. -1.
         21    1    1    2  502  501  0.35096065888E+02 -0.21430198438E+02  0.40416237336E+02  0.57658125935E+02  0.00000000000E+00 0.  1.
<scales pt_clust_5="13000.00000" pt_clust_6="13000.00000" pt_clust_7="13000.00000" pt_clust_8="13000.00000" pt_clust_9="41.12162"></scales>
<clustering>
<clus scale="   41.122">  2  9  1 -1</clus>
<clus scale="   78.879">  5  6 -1 -1</clus>
<clus scale="   81.432">  1  5  2 -1</clus>
<clus scale="   92.939">  7  8 -1 -1</clus>
<clus scale="   41.122">  2  5  1 -1</clus>
</clustering>
</event>
<event>
 9    1  0.9000149E-006  0.1600649E+03  0.7546771E-02  0.1204788E+00
         -1   -1    0    0    0  501 -0.00000000000E+00  0.00000000000E+00  0.20510301025E+03  0.20510301025E+03  0.00000000000E+00 0.  1.
          1   -1    0    0  502    0  0.00000000000E+00 -0.00000000000E+00 -0.32998067219E+03  0.32998067219E+03  0.00000000000E+00 0. -1.
         23    2    1    2    0    0 -0.45997274885E+02 -0.11131134730E+03  0.86765768622E+02  0.17393339052E+03  0.90656276112E+02 0.  0.
         23    2    1    2    0    0  0.11581426110E+02 -0.65482254239E+02 -0.85347763907E+02  0.14117069375E+03  0.90680035942E+02 0.  0.
        -11    1    4    4    0    0 -0.24767444532E+02 -0.56648392537E+02 -0.18442281642E+02  0.64518093879E+02  0.00000000000E+00 0.  1.
         11    1    4    4    0    0  0.36348870642E+02 -0.88338617024E+01 -0.66905482265E+02  0.76652599868E+02  0.00000000000E+00 0. -1.
        -13    1    3    3    0    0 -0.33437097895E+02  0.20083919870E+00  0.23693070894E+01  0.33521537376E+02  0.00000000000E+00 0. -1.
         13    1    3    3    0    0 -0.12560176991E+02 -0.11151218650E+03  0.84396461532E+02  0.14041185315E+03  0.00000000000E+00 0.  1.
         21    1    1    2  502  501  0.34415848776E+02  0.17679360154E+03 -0.12629566666E+03  0.21997959817E+03  0.00000000000E+00 0. -1.
<scales pt_clust_5="13000.00000" pt_clust_6="13000.00000" pt_clust_7="13000.00000" pt_clust_8="13000.00000" pt_clust_9="131.91749"></scales>
<clustering>
<clus scale="   90.656">  7  8 -1 -1</clus>
<clus scale="   90.680">  5  6 -1 -1</clus>
<clus scale="  112.450">  2  5  1 -1</clus>
<clus scale="  131.917">  2  9  1 -1</clus>
<clus scale="  112.450">  2  5  1 -1</clus>
</clustering>
</event>
<event>
 9    1  0.9000149E-006  0.1012366E+03  0.7546771E-02  0.1277923E+00
         -1   -1    0    0    0  501 -0.00000000000E+00  0.00000000000E+00  0.44606067535E+02  0.44606067535E+02  0.00000000000E+00 0.  1.
          1   -1    0    0  502    0  0.00000000000E+00 -0.00000000000E+00 -0.85976071553E+03  0.85976071553E+03  0.00000000000E+00 0. -1.
         23    2    1    2    0    0 -0.32308634964E+02 -0.30262783995E+02 -0.48552289206E+02  0.11059775174E+03  0.88965464728E+02 0.  0.
         23    2    1    2    0    0 -0.43644970747E+01  0.80616222869E+02 -0.30414932067E+03  0.32713941387E+03  0.89416791599E+02 0.  0.
        -11    1    3    3    0    0  0.28909349320E+02 -0.50249420746E+01 -0.15276259179E+01  0.29382548594E+02  0.00000000000E+00 0.  1.
         11    1    3    3    0    0 -0.61217984283E+02 -0.25237841920E+02 -0.47024663288E+02  0.81215203145E+02  0.00000000000E+00 0. -1.
        -13    1    4    4    0    0  0.22183067545E+02  0.19269456770E+02 -0.20770515923E+02  0.35983534869E+02  0.00000000000E+00 0.  1.
         13    1    4    4    0    0 -0.26547564620E+02  0.61346766099E+02 -0.28337880474E+03  0.29115587900E+03  0.00000000000E+00 0. -1.
         21    1    1    2  502  501  0.36673132039E+02 -0.50353438874E+02 -0.46245303813E+03  0.46662961746E+03  0.00000000000E+00 0. -1.
<scales pt_clust_5="13000.00000" pt_clust_6="13000.00000" pt_clust_7="13000.00000" pt_clust_8="13000.00000" pt_clust_9="62.29276"></scales>
<clustering>
<clus scale="   62.293">  2  9  1 -1</clus>
<clus scale="   88.965">  5  6 -1 -1</clus>
<clus scale="   89.417">  7  8 -1 -1</clus>
<clus scale="  100.838">  1  5  2 -1</clus>
<clus scale="   62.293">  2  5  1 -1</clus>
</clustering>
</event>
<event>
 9    1  0.9000149E-006  0.8977760E+02  0.7546771E-02  0.1303669E+00
         -1   -1    0    0    0  501 -0.00000000000E+00  0.00000000000E+00  0.73013355768E+02  0.73013355768E+02  0.00000000000E+00 0.  1.
          1   -1    0    0  502    0  0.00000000000E+00 -0.00000000000E+00 -0.16044241488E+03  0.16044241488E+03  0.00000000000E+00 0. -1.
         23    2    1    2    0    0  0.55345935751E+01 -0.40320207075E+01 -0.23736112520E+02  0.92740834552E+02  0.89389990708E+02 0.  0.
         23    2    1    2    0    0  0.18123421570E+02  0.70339686988E+01 -0.23561267476E+02  0.94032337186E+02  0.88932626109E+02 0.  0.
        -13    1    3    3    0    0 -0.15572917714E+01  0.21160633844E+02  0.27781056483E+02  0.34956897483E+02  0.00000000000E+00 0.  1.
         13    1    3    3    0    0  0.70918853465E+01 -0.25192654552E+02 -0.51517169003E+02  0.57783937069E+02  0.00000000000E+00 0. -1.
        -13    1    4    4    0    0  0.51461990458E+02  0.40436108286E+01 -0.30345464105E+02  0.59879332346E+02  0.00000000000E+00 0.  1.
         13    1    4    4    0    0 -0.33338568889E+02  0.29903578702E+01  0.67841966293E+01  0.34153004840E+02  0.00000000000E+00 0. -1.
         21    1    1    2  502  501 -0.23658015145E+02 -0.30019479913E+01 -0.40131679116E+02  0.46682598910E+02  0.00000000000E+00 0. -1.
<scales pt_clust_5="13000.00000" pt_clust_6="13000.00000" pt_clust_7="13000.00000" pt_clust_8="13000.00000" pt_clust_9="23.84771"></scales>
<clustering>
<clus scale="   23.848">  2  9  1 -1</clus>
<clus scale="   88.933">  7  8 -1 -1</clus>
<clus scale="   89.322">  2  7  1 -1</clus>
<clus scale="   89.390">  5  6 -1 -1</clus>
<clus scale="   23.848">  2  5  1 -1</clus>
</clustering>
</event>
<event>
 9    1  0.9000149E-006  0.9465570E+02  0.7546771E-02  0.1293958E+00
          1   -1    0    0  502    0  0.00000000000E+00  0.00000000000E+00  0.46705619251E+03  0.46705619251E+03  0.00000000000E+00 0. -1.
         -1   -1    0    0    0  501 -0.00000000000E+00 -0.00000000000E+00 -0.39984273708E+02  0.39984273708E+02  0.00000000000E+00 0.  1.
         23    2    1    2    0    0 -0.10595203904E+02  0.32459120499E+02  0.13201758574E+03  0.16473615713E+03  0.92431086071E+02 0.  0.
         23    2    1    2    0    0  0.30424647050E+02  0.33940974928E+02  0.13534560376E+03  0.16820934161E+03  0.88872387264E+02 0.  0.
        -11    1    4    4    0    0  0.12123756387E+02 -0.19668108718E+02  0.97219334455E+02  0.99927068212E+02  0.00000000000E+00 0. -1.
         11    1    4    4    0    0  0.18300890663E+02  0.53609083646E+02  0.38126269309E+02  0.68282273394E+02  0.00000000000E+00 0.  1.
        -13    1    3    3    0    0  0.18146020434E+02  0.27223576774E+02  0.13150894398E+03  0.13551753959E+03  0.00000000000E+00 0. -1.
         13    1    3    3    0    0 -0.28741224338E+02  0.52355437247E+01  0.50864175991E+00  0.29218617541E+02  0.00000000000E+00 0.  1.
         21    1    1    2  502  501 -0.19829443146E+02 -0.66400095427E+02  0.15970872930E+03  0.17409496748E+03  0.00000000000E+00 0. -1.
<scales pt_clust_5="13000.00000" pt_clust_6="13000.00000" pt_clust_7="13000.00000" pt_clust_8="13000.00000" pt_clust_9="69.29776"></scales>
<clustering>
<clus scale="   69.298">  1  9  2 -1</clus>
<clus scale="   88.872">  5  6 -1 -1</clus>
<clus scale="   91.184">  1  5  2 -1</clus>
<clus scale="   92.431">  7  8 -1 -1</clus>
<clus scale="   69.298">  1  5  2 -1</clus>
</clustering>
</event>
<event>
 9    1  0.9000149E-006  0.1798057E+03  0.7546771E-02  0.1169209E+00
          2   -1    0    0  502    0  0.00000000000E+00  0.00000000000E+00  0.29039064495E+03  0.29039064495E+03  0.00000000000E+00 0. -1.
         -2   -1    0    0    0  501 -0.00000000000E+00 -0.00000000000E+00 -0.39191157612E+03  0.39191157612E+03  0.00000000000E+00 0.  1.
         23    2    1    2    0    0 -0.80009370086E+02 -0.13127081076E+03 -0.32609379487E+03  0.36937681936E+03  0.80427275014E+02 0.  0.
         23    2    1    2    0    0  0.10097849405E+03  0.14019167523E+03  0.20179703508E+03  0.28070701640E+03  0.90686402636E+02 0.  0.
        -11    1    3    3    0    0 -0.58347575683E+02 -0.13581014144E+03 -0.25309977868E+03  0.29310123178E+03  0.00000000000E+00 0.  1.
         11    1    3    3    0    0 -0.21661794403E+02  0.45393306797E+01 -0.72994016191E+02  0.76275587572E+02  0.00000000000E+00 0. -1.
        -11    1    4    4    0    0  0.58238832536E+02  0.14075883382E+02  0.82228489343E+02  0.10174191156E+03  0.00000000000E+00 0. -1.
         11    1    4    4    0    0  0.42739661518E+02  0.12611579185E+03  0.11956854573E+03  0.17896510484E+03  0.00000000000E+00 0.  1.
         21    1    1    2  502  501 -0.20969123968E+02 -0.89208644689E+01  0.22775828625E+02  0.32218385317E+02  0.00000000000E+00 0.  1.
<scales pt_clust_5="13000.00000" pt_clust_6="13000.00000" pt_clust_7="13000.00000" pt_clust_8="13000.00000" pt_clust_9="22.78785"></scales>
<clustering>
<clus scale="   22.788">  1  9  2 -1</clus>
<clus scale="   80.427">  5  6 -1 -1</clus>
<clus scale="   90.686">  7  8 -1 -1</clus>
<clus scale="  174.856">  2  5  1 -1</clus>
<clus scale="   22.788">  1  5  2 -1</clus>
</clustering>
</event>
<event>
 9    1  0.9000149E-006  0.1371142E+03  0.7546771E-02  0.1217991E+00
          1   -1    0    0  502    0  0.00000000000E+00  0.00000000000E+00  0.16557217873E+03  0.16557217873E+03  0.00000000000E+00 0. -1.
         -1   -1    0    0    0  501 -0.00000000000E+00 -0.00000000000E+00 -0.14615492243E+03  0.14615492243E+03  0.00000000000E+00 0.  1.
         23    2    1    2    0    0 -0.15177782905E+02 -0.94626844607E+02 -0.14713584525E+00  0.13384467385E+03  0.93433239567E+02 0.  0.
         23    2    1    2    0    0  0.46116084893E+02  0.96687453473E+02 -0.19328208975E+01  0.14015240203E+03  0.90353766120E+02 0.  0.
        -11    1    3    3    0    0  0.31076252221E+02 -0.60577540576E+01  0.10506153840E+02  0.33358793516E+02  0.00000000000E+00 0.  1.
         11    1    3    3    0    0 -0.46254035127E+02 -0.88569090549E+02 -0.10653289685E+02  0.10048588034E+03  0.00000000000E+00 0. -1.
        -13    1    4    4    0    0  0.35764689576E+02 -0.18157891500E+01 -0.17555210176E+02  0.39882270685E+02  0.00000000000E+00 0.  1.
         13    1    4    4    0    0  0.10351395317E+02  0.98503242623E+02  0.15622389278E+02  0.10027013134E+03  0.00000000000E+00 0. -1.
         21    1    1    2  502  501 -0.30938301987E+02 -0.20606088661E+01  0.21497213049E+02  0.37730025280E+02  0.00000000000E+00 0.  1.
<scales pt_clust_5="13000.00000" pt_clust_6="13000.00000" pt_clust_7="13000.00000" pt_clust_8="13000.00000" pt_clust_9="31.00685"></scales>
<clustering>
<clus scale="   31.007">  1  9  2 -1</clus>
<clus scale="   90.354">  7  8 -1 -1</clus>
<clus scale="   93.433">  5  6 -1 -1</clus>
<clus scale="  135.035">  1  7  2 -1</clus>
<clus scale="   31.007">  1  5  2 -1</clus>
</clustering>
</event>
<event>
 9    1  0.9000149E-006  0.1390227E+03  0.7546771E-02  0.1217297E+00
          2   -1    0    0  502    0  0.00000000000E+00  0.00000000000E+00  0.52701970580E+03  0.52701970580E+03  0.00000000000E+00 0. -1.
         -2   -1    0    0    0  501 -0.00000000000E+00 -0.00000000000E+00 -0.33507243369E+03  0.33507243369E+03  0.00000000000E+00 0.  1.
         23    2    1    2    0    0 -0.88613360126E+02  0.28550799441E+02 -0.82500481764E+02  0.15520177349E+03  0.92810480342E+02 0.  0.
         23    2    1    2    0    0 -0.96991307792E+02  0.26594595458E+02  0.43480404429E+03  0.45548581711E+03  0.91094381635E+02 0.  0.
        -13    1    3    3    0    0 -0.67800056341E+02  0.49376210258E+02 -0.20167086416E+02  0.86264530102E+02  0.00000000000E+00 0. -1.
         13    1    3    3    0    0 -0.20813303786E+02 -0.20825410817E+02 -0.62333395348E+02  0.68937243387E+02  0.00000000000E+00 0.  1.
        -13    1    4    4    0    0 -0.81802481960E+02  0.13475933923E+02  0.42525337719E+03  0.43325936997E+03  0.00000000000E+00 0. -1.
         13    1    4    4    0    0 -0.15188825832E+02  0.13118661535E+02  0.95506670916E+01  0.22226447141E+02  0.00000000000E+00 0.  1.
         21    1    1    2  502  501  0.18560466792E+03 -0.55145394899E+02 -0.16035629040E+03  0.25140454889E+03  0.00000000000E+00 0.  1.
<scales pt_clust_5="13000.00000" pt_clust_6="13000.00000" pt_clust_7="13000.00000" pt_clust_8="13000.00000" pt_clust_9="105.01968"></scales>
<clustering>
<clus scale="   91.094">  7  8 -1 -1</clus>
<clus scale="   92.810">  5  6 -1 -1</clus>
<clus scale="  131.458">  2  5  1 -1</clus>
<clus scale="  105.020">  2  9  1 -1</clus>
<clus scale="  139.023">  1  5  2 -1</clus>
</clustering>
</event>
<event>
 9    1  0.9000149E-006  0.1930621E+03  0.7546771E-02  0.1183480E+00
         -1   -1    0    0    0  501 -0.00000000000E+00  0.00000000000E+00  0.23996297654E+03  0.23996297654E+03  0.00000000000E+00 0.  1.
          1   -1    0    0  502    0  0.00000000000E+00 -0.00000000000E+00 -0.32480021456E+03  0.32480021456E+03  0.00000000000E+00 0. -1.
         23    2    1    2    0    0 -0.15472854698E+03 -0.48604966566E+02  0.94136388378E+02  0.20606952947E+03  0.85437844847E+02 0.  0.
         23    2    1    2    0    0 -0.33499752528E+02 -0.32629269077E+02 -0.85815676516E+02  0.13351085278E+03  0.90961062295E+02 0.  0.
        -11    1    3    3    0    0 -0.60444743191E+02 -0.20748260673E+00  0.78294202682E+02  0.98912042756E+02  0.00000000000E+00 0.  1.
         11    1    3    3    0    0 -0.94283803788E+02 -0.48397483959E+02  0.15842185696E+02  0.10715748671E+03  0.00000000000E+00 0. -1.
        -13    1    4    4    0    0  0.16069005766E+02 -0.29129379526E+02  0.12183757661E+01  0.33289910445E+02  0.00000000000E+00 0. -1.
         13    1    4    4    0    0 -0.49568758294E+02 -0.34998895505E+01 -0.87034052282E+02  0.10022094233E+03  0.00000000000E+00 0.  1.
         21    1    1    2  502  501  0.18822829951E+03  0.81234235643E+02 -0.93157949882E+02  0.22518280885E+03  0.00000000000E+00 0. -1.
<scales pt_clust_5="13000.00000" pt_clust_6="13000.00000" pt_clust_7="13000.00000" pt_clust_8="13000.00000" pt_clust_9="173.12815"></scales>
<clustering>
<clus scale="   85.438">  5  6 -1 -1</clus>
<clus scale="   90.961">  7  8 -1 -1</clus>
<clus scale="  102.278">  2  7  1 -1</clus>
<clus scale="  173.128">  2  9  1 -1</clus>
<clus scale="  102.278">  2  5  1 -1</clus>
</clustering>
</event>
<event>
 9    1  0.9000149E-006  0.9610169E+02  0.7546771E-02  0.1290330E+00
         -1   -1    0    0    0  501 -0.00000000000E+00  0.00000000000E+00  0.50203954502E+02  0.50203954502E+02  0.00000000000E+00 0.  1.
          1   -1    0    0  502    0  0.00000000000E+00 -0.00000000000E+00 -0.41130481218E+03  0.41130481218E+03  0.00000000000E+00 0. -1.
         23    2    1    2    0    0 -0.95013392217E+01  0.30373050258E+02 -0.21154119855E+02  0.99738942604E+02  0.92127966742E+02 0.  0.
         23    2    1    2    0    0  0.42190657683E+01 -0.33873728875E+01 -0.30187845693E+03  0.31480895520E+03  0.89133611518E+02 0.  0.
        -11    1    3    3    0    0 -0.47441526328E+02  0.35328460353E+02 -0.14503881313E+02  0.60902882562E+02  0.00000000000E+00 0. -1.
         11    1    3    3    0    0  0.37940187107E+02 -0.49554100945E+01 -0.66502385419E+01  0.38836060042E+02  0.00000000000E+00 0.  1.
        -11    1    4    4    0    0  0.21461407113E+01 -0.46246541993E+02 -0.14951657076E+03  0.15652013767E+03  0.00000000000E+00 0.  1.
         11    1    4    4    0    0  0.20729250570E+01  0.42859169105E+02 -0.15236188618E+03  0.15828881753E+03  0.00000000000E+00 0. -1.
         21    1    1    2  502  501  0.52822734535E+01 -0.26985677371E+02 -0.38068280888E+02  0.46960868878E+02  0.00000000000E+00 0. -1.
<scales pt_clust_5="13000.00000" pt_clust_6="13000.00000" pt_clust_7="13000.00000" pt_clust_8="13000.00000" pt_clust_9="27.49780"></scales>
<clustering>
<clus scale="   27.498">  2  9  1 -1</clus>
<clus scale="   89.134">  7  8 -1 -1</clus>
<clus scale="   92.128">  5  6 -1 -1</clus>
<clus scale="   93.235">  2  7  1 -1</clus>
<clus scale="   27.498">  2  5  1 -1</clus>
</clustering>
</event>
<event>
 9    1  0.9000149E-006  0.2093413E+03  0.7546771E-02  0.1143434E+00
          3   -1    0    0  502    0  0.00000000000E+00  0.00000000000E+00  0.13194493991E+03  0.13194493991E+03  0.00000000000E+00 0. -1.
         -3   -1    0    0    0  501 -0.00000000000E+00 -0.00000000000E+00 -0.45088713891E+03  0.45088713891E+03  0.00000000000E+00 0.  1.
         23    2    1    2    0    0  0.15452577684E+03 -0.96893877473E+02 -0.24926370918E+03  0.32261156563E+03  0.93162150912E+02 0.  0.
         23    2    1    2    0    0 -0.14655582249E+03  0.12081261177E+03 -0.21821241518E+02  0.20612853378E+03  0.77061725828E+02 0.  0.
        -11    1    4    4    0    0 -0.73208269555E+01  0.40285535183E+02  0.10040788544E+02  0.42158466373E+02  0.00000000000E+00 0.  1.
         11    1    4    4    0    0 -0.13923499553E+03  0.80527076586E+02 -0.31862030062E+02  0.16397006740E+03  0.00000000000E+00 0. -1.
        -11    1    3    3    0    0  0.73152160524E+02 -0.95499900666E+02 -0.12039551771E+03  0.17019562363E+03  0.00000000000E+00 0. -1.
         11    1    3    3    0    0  0.81373616317E+02 -0.13939768062E+01 -0.12886819146E+03  0.15241594200E+03  0.00000000000E+00 0.  1.
         21    1    1    2  502  501 -0.79699543522E+01 -0.23918734297E+02 -0.47857248302E+02  0.54091979422E+02  0.00000000000E+00 0.  1.
<scales pt_clust_5="13000.00000" pt_clust_6="13000.00000" pt_clust_7="13000.00000" pt_clust_8="13000.00000" pt_clust_9="25.21162"></scales>
<clustering>
<clus scale="   25.212">  2  9  1 -1</clus>
<clus scale="   77.062">  5  6 -1 -1</clus>
<clus scale="   93.162">  7  8 -1 -1</clus>
<clus scale="  202.690">  1  5  2 -1</clus>
<clus scale="  202.690">  1  5  2 -1</clus>
</clustering>
</event>
<event>
 9    1  0.9000149E-006  0.1330382E+03  0.7546771E-02  0.1223152E+00
          1   -1    0    0  502    0  0.00000000000E+00  0.00000000000E+00  0.77811344223E+03  0.77811344223E+03  0.00000000000E+00 0. -1.
         -1   -1    0    0    0  501 -0.00000000000E+00 -0.00000000000E+00 -0.37945087359E+02  0.37945087359E+02  0.00000000000E+00 0.  1.
         23    2    1    2    0    0  0.71723145501E+02  0.24727897175E+02  0.11949532807E+03  0.16871211072E+03  0.91809391532E+02 0.  0.
         23    2    1    2    0    0 -0.83963275107E+02 -0.60832723122E+02  0.54756015567E+03  0.56489115128E+03  0.92354950813E+02 0.  0.
        -11    1    4    4    0    0 -0.26066412624E+02  0.22366234283E+02  0.19697892841E+03  0.19995100535E+03  0.00000000000E+00 0.  1.
         11    1    4    4    0    0 -0.57896862483E+02 -0.83198957405E+02  0.35058122727E+03  0.36494014593E+03  0.00000000000E+00 0. -1.
        -13    1    3    3    0    0  0.63416148050E+02  0.55861381816E+02  0.10048884239E+03  0.13130159655E+03  0.00000000000E+00 0.  1.
         13    1    3    3    0    0  0.83069974509E+01 -0.31133484641E+02  0.19006485686E+02  0.37410514173E+02  0.00000000000E+00 0. -1.
         21    1    1    2  502  501  0.12240129606E+02  0.36104825947E+02  0.73112871124E+02  0.82455267590E+02  0.00000000000E+00 0.  1.
<scales pt_clust_5="13000.00000" pt_clust_6="13000.00000" pt_clust_7="13000.00000" pt_clust_8="13000.00000" pt_clust_9="38.12321"></scales>
<clustering>
<clus scale="   38.123">  2  9  1 -1</clus>
<clus scale="   91.809">  7  8 -1 -1</clus>
<clus scale="   92.355">  5  6 -1 -1</clus>
<clus scale="  132.660">  2  7  1 -1</clus>
<clus scale="  133.038">  1  5  2 -1</clus>
</clustering>
</event>
<event>
 9    1  0.9000149E-006  0.1126153E+03  0.7546771E-02  0.1261037E+00
          1   -1    0    0  502    0  0.00000000000E+00  0.00000000000E+00  0.73999346169E+02  0.73999346169E+02  0.00000000000E+00 0. -1.
         -1   -1    0    0    0  501 -0.00000000000E+00 -0.00000000000E+00 -0.21690327435E+03  0.21690327435E+03  0.00000000000E+00 0.  1.
         23    2    1    2    0    0  0.45383582938E+02  0.11226610526E+02 -0.98366675648E+02  0.15032377921E+03  0.10361239952E+03 0.  0.
         23    2    1    2    0    0 -0.32979630505E+02 -0.28858450028E+02 -0.56298059393E+02  0.11602163507E+03  0.91493618069E+02 0.  0.
        -11    1    3    3    0    0 -0.11709840089E+02  0.44230456294E+02 -0.26883586197E+02  0.53067700400E+02  0.00000000000E+00 0.  1.
         11    1    3    3    0    0  0.57093423026E+02 -0.33003845769E+02 -0.71483089451E+02  0.97256078811E+02  0.00000000000E+00 0. -1.
        -13    1    4    4    0    0 -0.22134842629E+02 -0.54712615901E+02 -0.71672350577E+01  0.59454107135E+02  0.00000000000E+00 0. -1.
         13    1    4    4    0    0 -0.10844787876E+02  0.25854165873E+02 -0.49130824336E+02  0.56567527938E+02  0.00000000000E+00 0.  1.
         21    1    1    2  502  501 -0.12403952433E+02  0.17631839502E+02  0.11760806858E+02  0.24557206236E+02  0.00000000000E+00 0. -1.
<scales pt_clust_5="13000.00000" pt_clust_6="13000.00000" pt_clust_7="13000.00000" pt_clust_8="13000.00000" pt_clust_9="21.55782"></scales>
<clustering>
<clus scale="   21.558">  1  9  2 -1</clus>
<clus scale="   91.494">  7  8 -1 -1</clus>
<clus scale="  101.576">  1  7  2 -1</clus>
<clus scale="  103.612">  5  6 -1 -1</clus>
<clus scale="   21.558">  1  5  2 -1</clus>
</clustering>
</event>
<event>
 9    1  0.9000149E-006  0.9610043E+02  0.7546771E-02  0.1291987E+00
          1   -1    0    0  502    0  0.00000000000E+00  0.00000000000E+00  0.36495952114E+03  0.36495952114E+03  0.00000000000E+00 0. -1.
         -1   -1    0    0    0  501 -0.00000000000E+00 -0.00000000000E+00 -0.32134522312E+02  0.32134522312E+02  0.00000000000E+00 0.  1.
         23    2    1    2    0    0 -0.72292813361E+01 -0.68760354038E+01  0.10602926736E+03  0.13959364086E+03  0.90247640746E+02 0.  0.
         23    2    1    2    0    0 -0.12593229790E+02  0.24919714465E+01  0.15381619441E+03  0.18174972739E+03  0.95962192481E+02 0.  0.
        -13    1    4    4    0    0  0.19547118606E+02  0.17261866741E+02  0.23222402463E+01  0.26181189601E+02  0.00000000000E+00 0.  1.
         13    1    4    4    0    0 -0.32140348396E+02 -0.14769895294E+02  0.15149395416E+03  0.15556853779E+03  0.00000000000E+00 0. -1.
        -13    1    3    3    0    0  0.10452958691E+02 -0.43947278487E+02  0.33489403652E+02  0.56233155600E+02  0.00000000000E+00 0.  1.
         13    1    3    3    0    0 -0.17682240027E+02  0.37071243083E+02  0.72539863705E+02  0.83360485258E+02  0.00000000000E+00 0. -1.
         21    1    1    2  502  501  0.19822511126E+02  0.43840639573E+01  0.72979537066E+02  0.75750675208E+02  0.00000000000E+00 0.  1.
<scales pt_clust_5="13000.00000" pt_clust_6="13000.00000" pt_clust_7="13000.00000" pt_clust_8="13000.00000" pt_clust_9="20.30153"></scales>
<clustering>
<clus scale="   20.302">  1  9  2 -1</clus>
<clus scale="   90.248">  7  8 -1 -1</clus>
<clus scale="   90.395">  2  7  1 -1</clus>
<clus scale="   95.962">  5  6 -1 -1</clus>
<clus scale="   20.302">  1  5  2 -1</clus>
</clustering>
</event>
<event>
 9    1  0.9000149E-006  0.1014310E+03  0.7546771E-02  0.1277578E+00
          1   -1    0    0  502    0  0.00000000000E+00  0.00000000000E+00  0.84595245075E+02  0.84595245075E+02  0.00000000000E+00 0. -1.
         -1   -1    0    0    0  501 -0.00000000000E+00 -0.00000000000E+00 -0.16917061461E+03  0.16917061461E+03  0.00000000000E+00 0.  1.
         23    2    1    2    0    0  0.29134665070E+02 -0.25429655248E+02 -0.71324879724E+02  0.12210104909E+03  0.91246543199E+02 0.  0.
         23    2    1    2    0    0 -0.49593868631E+02  0.17795627648E+02 -0.22041549983E+02  0.10812462949E+03  0.91808874341E+02 0.  0.
        -13    1    4    4    0    0  0.10957140687E+02  0.28890096510E+02 -0.33428849798E+02  0.45521254456E+02  0.00000000000E+00 0.  1.
         13    1    4    4    0    0 -0.60551009318E+02 -0.11094468862E+02  0.11387299815E+02  0.62603375035E+02  0.00000000000E+00 0. -1.
        -13    1    3    3    0    0 -0.26056872305E+02 -0.29923075237E+02 -0.47303311793E+02  0.61741026333E+02  0.00000000000E+00 0. -1.
         13    1    3    3    0    0  0.55191537375E+02  0.44934199891E+01 -0.24021567931E+02  0.60360022754E+02  0.00000000000E+00 0.  1.
         21    1    1    2  502  501  0.20459203561E+02  0.76340276002E+01  0.87910601697E+01  0.23540181109E+02  0.00000000000E+00 0.  1.
<scales pt_clust_5="13000.00000" pt_clust_6="13000.00000" pt_clust_7="13000.00000" pt_clust_8="13000.00000" pt_clust_9="21.83706"></scales>
<clustering>
<clus scale="   21.837">  1  9  2 -1</clus>
<clus scale="   91.247">  7  8 -1 -1</clus>
<clus scale="   91.809">  5  6 -1 -1</clus>
<clus scale="  100.922">  2  7  1 -1</clus>
<clus scale="   21.837">  1  5  2 -1</clus>
</clustering>
</event>
<event>
 9    1  0.9000149E-006  0.9669454E+02  0.7546771E-02  0.1292736E+00
          1   -1    0    0  502    0  0.00000000000E+00  0.00000000000E+00  0.48040395966E+03  0.48040395966E+03  0.00000000000E+00 0. -1.
         -1   -1    0    0    0  501 -0.00000000000E+00 -0.00000000000E+00 -0.32650111340E+02  0.32650111340E+02  0.00000000000E+00 0.  1.
         23    2    1    2    0    0  0.23100319266E+02 -0.27122516638E+02  0.11469718935E+03  0.14640881569E+03  0.83730761427E+02 0.  0.
         23    2    1    2    0    0 -0.26334760277E+02 -0.22083289497E+02  0.17734359821E+03  0.20331053683E+03  0.93291110450E+02 0.  0.
        -11    1    4    4    0    0  0.40253062687E+01 -0.20970809810E+02 -0.19674060322E+01  0.21444081728E+02  0.00000000000E+00 0. -1.
         11    1    4    4    0    0 -0.30360066546E+02 -0.11124796864E+01  0.17931100424E+03  0.18186645511E+03  0.00000000000E+00 0.  1.
        -13    1    3    3    0    0 -0.34477193455E+01 -0.51826034850E+02  0.84647135770E+02  0.99312447614E+02  0.00000000000E+00 0. -1.
         13    1    3    3    0    0  0.26548038612E+02  0.24703518212E+02  0.30050053576E+02  0.47096368078E+02  0.00000000000E+00 0.  1.
         21    1    1    2  502  501  0.32344410105E+01  0.49205806135E+02  0.15571306077E+03  0.16333471848E+03  0.00000000000E+00 0.  1.
<scales pt_clust_5="13000.00000" pt_clust_6="13000.00000" pt_clust_7="13000.00000" pt_clust_8="13000.00000" pt_clust_9="49.31200"></scales>
<clustering>
<clus scale="   49.312">  1  9  2 -1</clus>
<clus scale="   83.731">  7  8 -1 -1</clus>
<clus scale="   87.507">  2  7  1 -1</clus>
<clus scale="   93.291">  5  6 -1 -1</clus>
<clus scale="   49.312">  1  5  2 -1</clus>
</clustering>
</event>
<event>
 9    1  0.9000149E-006  0.1041346E+03  0.7546771E-02  0.1272261E+00
         -3   -1    0    0    0  501 -0.00000000000E+00  0.00000000000E+00  0.30258051411E+03  0.30258051411E+03  0.00000000000E+00 0.  1.
          3   -1    0    0  502    0  0.00000000000E+00 -0.00000000000E+00 -0.71444650832E+02  0.71444650832E+02  0.00000000000E+00 0. -1.
         23    2    1    2    0    0  0.41402987546E+02  0.13984001375E+02  0.17386150848E+03  0.20119787586E+03  0.91340032019E+02 0.  0.
         23    2    1    2    0    0 -0.61534023424E+02  0.10671750816E+02  0.76926998653E+02  0.13541885244E+03  0.92304822027E+02 0.  0.
        -11    1    4    4    0    0 -0.63212356179E+02 -0.20536494071E+02  0.18229156311E+02  0.68919167887E+02  0.00000000000E+00 0. -1.
         11    1    4    4    0    0  0.16783327551E+01  0.31208244886E+02  0.58697842341E+02  0.66499684550E+02  0.00000000000E+00 0.  1.
        -13    1    3    3    0    0 -0.27710889275E+02  0.10915852976E+02  0.73471214202E+02  0.79278424221E+02  0.00000000000E+00 0. -1.
         13    1    3    3    0    0  0.69113876821E+02  0.30681483993E+01  0.10039029428E+03  0.12191945164E+03  0.00000000000E+00 0.  1.
         21    1    1    2  502  501  0.20131035879E+02 -0.24655752191E+02 -0.19652643853E+02  0.37408436643E+02  0.00000000000E+00 0. -1.
<scales pt_clust_5="13000.00000" pt_clust_6="13000.00000" pt_clust_7="13000.00000" pt_clust_8="13000.00000" pt_clust_9="31.83025"></scales>
<clustering>
<clus scale="   31.830">  2  9  1 -1</clus>
<clus scale="   91.340">  7  8 -1 -1</clus>
<clus scale="   92.305">  5  6 -1 -1</clus>
<clus scale="  103.280">  1  7  2 -1</clus>
<clus scale="   31.830">  2  5  1 -1</clus>
</clustering>
</event>
<event>
 9    1  0.9000149E-006  0.2476700E+03  0.7546771E-02  0.1114801E+00
          1   -1    0    0  502    0  0.00000000000E+00  0.00000000000E+00  0.34345979512E+03  0.34345979512E+03  0.00000000000E+00 0. -1.
         -1   -1    0    0    0  501 -0.00000000000E+00 -0.00000000000E+00 -0.52118982568E+03  0.52118982568E+03  0.00000000000E+00 0.  1.
         23    2    1    2    0    0 -0.12859654653E+03  0.20280041006E+03 -0.41083314658E+03  0.48462698615E+03  0.91729838508E+02 0.  0.
         23    2    1    2    0    0  0.10166741119E+03 -0.20511718815E+03  0.24744314436E+03  0.34942553997E+03  0.91982470715E+02 0.  0.
        -13    1    3    3    0    0 -0.10577492434E+03  0.19143424638E+03 -0.40199865154E+03  0.45764431729E+03  0.00000000000E+00 0.  1.
         13    1    3    3    0    0 -0.22821622190E+02  0.11366163679E+02 -0.88344950429E+01  0.26982668861E+02  0.00000000000E+00 0. -1.
        -13    1    4    4    0    0  0.56913728701E+02 -0.14284311814E+03  0.21909228296E+03  0.26766538321E+03  0.00000000000E+00 0. -1.
         13    1    4    4    0    0  0.44753682490E+02 -0.62274070004E+02  0.28350861403E+02  0.81760156761E+02  0.00000000000E+00 0.  1.
         21    1    1    2  502  501  0.26929135335E+02  0.23167780845E+01 -0.14340028338E+02  0.30597094688E+02  0.00000000000E+00 0.  1.
<scales pt_clust_5="13000.00000" pt_clust_6="13000.00000" pt_clust_7="13000.00000" pt_clust_8="13000.00000" pt_clust_9="27.02861"></scales>
<clustering>
<clus scale="   27.029">  2  9  1 -1</clus>
<clus scale="   91.730">  5  6 -1 -1</clus>
<clus scale="   91.982">  7  8 -1 -1</clus>
<clus scale="  247.576">  2  5  1 -1</clus>
<clus scale="  247.670">  1  5  2 -1</clus>
</clustering>
</event>
<event>
 9    1  0.9000149E-006  0.1163423E+03  0.7546771E-02  0.1249696E+00
         -3   -1    0    0    0  501 -0.00000000000E+00  0.00000000000E+00  0.90365410976E+02  0.90365410976E+02  0.00000000000E+00 0.  1.
          3   -1    0    0  502    0  0.00000000000E+00 -0.00000000000E+00 -0.20421242800E+03  0.20421242800E+03  0.00000000000E+00 0. -1.
         23    2    1    2    0    0  0.71468504972E+02 -0.43518691569E+01 -0.23475440469E+02  0.11854056008E+03  0.91510010992E+02 0.  0.
         23    2    1    2    0    0 -0.67413449096E+02  0.34476601769E+02 -0.56829026909E+02  0.13077089368E+03  0.90212411266E+02 0.  0.
        -11    1    4    4    0    0 -0.82183342969E+01 -0.28670620569E+02 -0.23692654451E+02  0.38090515583E+02  0.00000000000E+00 0. -1.
         11    1    4    4    0    0 -0.59195114799E+02  0.63147222337E+02 -0.33136372458E+02  0.92680378100E+02  0.00000000000E+00 0.  1.
        -13    1    3    3    0    0 -0.20868550004E+02 -0.39221950710E+01 -0.14616900068E+02  0.25778552346E+02  0.00000000000E+00 0.  1.
         13    1    3    3    0    0  0.92337054976E+02 -0.42967408582E+00 -0.88585404008E+01  0.92762007738E+02  0.00000000000E+00 0. -1.
         21    1    1    2  502  501 -0.40550558758E+01 -0.30124732612E+02 -0.33542549644E+02  0.45266385207E+02  0.00000000000E+00 0.  1.
<scales pt_clust_5="13000.00000" pt_clust_6="13000.00000" pt_clust_7="13000.00000" pt_clust_8="13000.00000" pt_clust_9="30.39643"></scales>
<clustering>
<clus scale="   30.396">  2  9  1 -1</clus>
<clus scale="   90.212">  5  6 -1 -1</clus>
<clus scale="   91.510">  7  8 -1 -1</clus>
<clus scale="  115.324">  2  5  1 -1</clus>
<clus scale="   30.396">  2  5  1 -1</clus>
</clustering>
</event>
<event>
 9    1  0.9000149E-006  0.2889623E+03  0.7546771E-02  0.1091101E+00
         -2   -1    0    0    0  501 -0.00000000000E+00  0.00000000000E+00  0.98220350545E+03  0.98220350545E+03  0.00000000000E+00 0.  1.
          2   -1    0    0  502    0  0.00000000000E+00 -0.00000000000E+00 -0.72281226897E+03  0.72281226897E+03  0.00000000000E+00 0. -1.
         23    2    1    2    0    0  0.71821633825E+02 -0.28646800576E+03  0.88321588009E+03  0.93538583268E+03  0.87487711870E+02 0.  0.
         23    2    1    2    0    0 -0.10838261227E+03  0.12593264229E+03 -0.88907021743E+02  0.20994684369E+03  0.92560237808E+02 0.  0.
        -11    1    3    3    0    0  0.40405171180E+02 -0.49676452913E+02  0.26502951204E+03  0.27265540538E+03  0.00000000000E+00 0. -1.
         11    1    3    3    0    0  0.31416462645E+02 -0.23679155285E+03  0.61818636805E+03  0.66273042730E+03  0.00000000000E+00 0.  1.
        -13    1    4    4    0    0 -0.64072135527E+02  0.92688678700E+02 -0.10313692734E+03  0.15275357767E+03  0.00000000000E+00 0. -1.
         13    1    4    4    0    0 -0.44310476741E+02  0.33243963591E+02  0.14229905599E+02  0.57193266016E+02  0.00000000000E+00 0.  1.
         21    1    1    2  502  501  0.36560978443E+02  0.16053536347E+03 -0.53491762186E+03  0.55968309805E+03  0.00000000000E+00 0. -1.
<scales pt_clust_5="13000.00000" pt_clust_6="13000.00000" pt_clust_7="13000.00000" pt_clust_8="13000.00000" pt_clust_9="164.64601"></scales>
<clustering>
<clus scale="   87.488">  5  6 -1 -1</clus>
<clus scale="   92.560">  7  8 -1 -1</clus>
<clus scale="  164.646">  2  9  1 -1</clus>
<clus scale="  287.378">  1  5  2 -1</clus>
<clus scale="  164.646">  2  5  1 -1</clus>
</clustering>
</event>
<event>
 9    1  0.9000149E-006  0.9426289E+02  0.7546771E-02  0.1295084E+00
         -1   -1    0    0    0  501 -0.00000000000E+00  0.00000000000E+00  0.80814428939E+02  0.80814428939E+02  0.00000000000E+00 0.  1.
          1   -1    0    0  502    0  0.00000000000E+00 -0.00000000000E+00 -0.25799717256E+03  0.25799717256E+03  0.00000000000E+00 0. -1.
         23    2    1    2    0    0 -0.69883312375E+01 -0.22905221549E+01 -0.10596943364E+02  0.87896258616E+02  0.86944659438E+02 0.  0.
         23    2    1    2    0    0  0.70581700967E+02 -0.26008986369E+02 -0.10622368312E+03  0.15878193937E+03  0.90939482805E+02 0.  0.
        -11    1    3    3    0    0 -0.31143142479E+02  0.18379871111E+02 -0.33038080990E+02  0.48981933210E+02  0.00000000000E+00 0. -1.
         11    1    3    3    0    0  0.24154811241E+02 -0.20670393266E+02  0.22441137626E+02  0.38914325406E+02  0.00000000000E+00 0.  1.
        -13    1    4    4    0    0  0.33873222330E+02 -0.41360135021E+02 -0.96393764930E+01  0.54322863871E+02  0.00000000000E+00 0.  1.
         13    1    4    4    0    0  0.36708478637E+02  0.15351148652E+02 -0.96584306624E+02  0.10445907550E+03  0.00000000000E+00 0. -1.
         21    1    1    2  502  501 -0.63593369729E+02  0.28299508524E+02 -0.60362117136E+02  0.92133403504E+02  0.00000000000E+00 0. -1.
<scales pt_clust_5="13000.00000" pt_clust_6="13000.00000" pt_clust_7="13000.00000" pt_clust_8="13000.00000" pt_clust_9="69.60588"></scales>
<clustering>
<clus scale="   69.606">  2  9  1 -1</clus>
<clus scale="   86.945">  5  6 -1 -1</clus>
<clus scale="   90.415">  1  5  2 -1</clus>
<clus scale="   90.939">  7  8 -1 -1</clus>
<clus scale="   69.606">  2  5  1 -1</clus>
</clustering>
</event>
<event>
 9    1  0.9000149E-006  0.1023577E+03  0.7546771E-02  0.1277203E+00
         -1   -1    0    0    0  501 -0.00000000000E+00  0.00000000000E+00  0.19198717114E+03  0.19198717114E+03  0.00000000000E+00 0.  1.
          1   -1    0    0  502    0  0.00000000000E+00 -0.00000000000E+00 -0.72383370352E+02  0.72383370352E+02  0.00000000000E+00 0. -1.
         23    2    1    2    0    0 -0.79683016303E+01  0.38313125241E+02  0.76978314255E+02  0.12543242083E+03  0.90973853022E+02 0.  0.
         23    2    1    2    0    0 -0.53070962540E+01 -0.60611163315E+02  0.32626613407E+02  0.11112776009E+03  0.87080449998E+02 0.  0.
        -11    1    4    4    0    0  0.38369564233E+02 -0.39593046231E+02  0.50599759512E+01  0.55366380827E+02  0.00000000000E+00 0.  1.
         11    1    4    4    0    0 -0.43676660487E+02 -0.21018117084E+02  0.27566637455E+02  0.55761379266E+02  0.00000000000E+00 0. -1.
        -13    1    3    3    0    0 -0.39994814412E+02 -0.44472575273E+01  0.53829778302E+02  0.67208692231E+02  0.00000000000E+00 0.  1.
         13    1    3    3    0    0  0.32026512782E+02  0.42760382768E+02  0.23148535953E+02  0.58223728601E+02  0.00000000000E+00 0. -1.
         21    1    1    2  502  501  0.13275397884E+02  0.22298038075E+02  0.99988731216E+01  0.27810360563E+02  0.00000000000E+00 0. -1.
<scales pt_clust_5="13000.00000" pt_clust_6="13000.00000" pt_clust_7="13000.00000" pt_clust_8="13000.00000" pt_clust_9="25.95070"></scales>
<clustering>
<clus scale="   25.951">  2  9  1 -1</clus>
<clus scale="   87.080">  5  6 -1 -1</clus>
<clus scale="   90.974">  7  8 -1 -1</clus>
<clus scale="   98.913">  2  5  1 -1</clus>
<clus scale="   25.951">  2  5  1 -1</clus>
</clustering>
</event>
<event>
 9    1  0.9000149E-006  0.1112380E+03  0.7546771E-02  0.1258658E+00
          2   -1    0    0  502    0  0.00000000000E+00  0.00000000000E+00  0.14633089256E+03  0.14633089256E+03  0.00000000000E+00 0. -1.
         -2   -1    0    0    0  501 -0.00000000000E+00 -0.00000000000E+00 -0.20625560664E+03  0.20625560664E+03  0.00000000000E+00 0.  1.
         23    2    1    2    0    0  0.48459953842E+02  0.44881428607E+02 -0.91052226962E+02  0.14285214497E+03  0.88054060257E+02 0.  0.
         23    2    1    2    0    0 -0.63624647963E+02 -0.28357978736E+02 -0.51414587475E+02  0.12419962049E+03  0.89049509474E+02 0.  0.
        -11    1    3    3    0    0  0.70452153179E+02  0.44558213013E+02 -0.52642972926E+02  0.98591190443E+02  0.00000000000E+00 0.  1.
         11    1    3    3    0    0 -0.21992199338E+02  0.32321559376E+00 -0.38409254036E+02  0.44260954527E+02  0.00000000000E+00 0. -1.
        -11    1    4    4    0    0 -0.76447261514E+02 -0.47504114052E+02 -0.41597233962E+02  0.99152178586E+02  0.00000000000E+00 0. -1.
         11    1    4    4    0    0  0.12822613552E+02  0.19146135316E+02 -0.98173535131E+01  0.25047441902E+02  0.00000000000E+00 0.  1.
         21    1    1    2  502  501  0.15164694121E+02 -0.16523449870E+02  0.82542100360E+02  0.85534733736E+02  0.00000000000E+00 0. -1.
<scales pt_clust_5="13000.00000" pt_clust_6="13000.00000" pt_clust_7="13000.00000" pt_clust_8="13000.00000" pt_clust_9="22.42749"></scales>
<clustering>
<clus scale="   22.427">  1  9  2 -1</clus>
<clus scale="   88.054">  5  6 -1 -1</clus>
<clus scale="   89.050">  7  8 -1 -1</clus>
<clus scale="  110.443">  2  5  1 -1</clus>
<clus scale="   22.427">  1  5  2 -1</clus>
</clustering>
</event>
<event>
 9    1  0.9000149E-006  0.9535209E+02  0.7546771E-02  0.1291583E+00
          2   -1    0    0  502    0  0.00000000000E+00  0.00000000000E+00  0.38632715101E+03  0.38632715101E+03  0.00000000000E+00 0. -1.
         -2   -1    0    0    0  501 -0.00000000000E+00 -0.00000000000E+00 -0.68933183273E+02  0.68933183273E+02  0.00000000000E+00 0.  1.
         23    2    1    2    0    0 -0.36723263558E+01 -0.14576609448E+02 -0.89111844760E+01  0.94376114974E+02  0.92744155314E+02 0.  0.
         23    2    1    2    0    0  0.19610538962E+02  0.56313444405E+02  0.21117859203E+03  0.23739286385E+03  0.90571501130E+02 0.  0.
        -11    1    3    3    0    0 -0.28182252894E+02  0.29816239129E+02  0.61300408943E+01  0.41482826511E+02  0.00000000000E+00 0.  1.
         11    1    3    3    0    0  0.24509926538E+02 -0.44392848577E+02 -0.15041225370E+02  0.52893288462E+02  0.00000000000E+00 0. -1.
        -11    1    4    4    0    0  0.41273052762E+02  0.40687872936E+02  0.58327844309E+02  0.82225940616E+02  0.00000000000E+00 0.  1.
         11    1    4    4    0    0 -0.21662513800E+02  0.15625571469E+02  0.15285074772E+03  0.15516692324E+03  0.00000000000E+00 0. -1.
         21    1    1    2  502  501 -0.15938212606E+02 -0.41736834957E+02  0.11512656018E+03  0.12349135546E+03  0.00000000000E+00 0. -1.
<scales pt_clust_5="13000.00000" pt_clust_6="13000.00000" pt_clust_7="13000.00000" pt_clust_8="13000.00000" pt_clust_9="44.67650"></scales>
<clustering>
<clus scale="   44.677">  1  9  2 -1</clus>
<clus scale="   90.572">  7  8 -1 -1</clus>
<clus scale="   92.744">  5  6 -1 -1</clus>
<clus scale="   93.240">  1  7  2 -1</clus>
<clus scale="   44.677">  1  5  2 -1</clus>
</clustering>
</event>
<event>
 9    1  0.9000149E-006  0.1019935E+03  0.7546771E-02  0.1278255E+00
         -1   -1    0    0    0  501 -0.00000000000E+00  0.00000000000E+00  0.13091712731E+03  0.13091712731E+03  0.00000000000E+00 0.  1.
          1   -1    0    0  502    0  0.00000000000E+00 -0.00000000000E+00 -0.13328916083E+03  0.13328916083E+03  0.00000000000E+00 0. -1.
         23    2    1    2    0    0 -0.18429175978E+02  0.12674877364E+02  0.53944089374E+02  0.11661679913E+03  0.10094169613E+03 0.  0.
         23    2    1    2    0    0 -0.11320488111E+02 -0.11014550685E+02 -0.19263005311E+02  0.10004232590E+03  0.96891329949E+02 0.  0.
        -11    1    3    3    0    0 -0.50192780101E+02  0.35647242004E+02  0.45408189576E+02  0.76498004662E+02  0.00000000000E+00 0.  1.
         11    1    3    3    0    0  0.31763604123E+02 -0.22972364640E+02  0.85358997974E+01  0.40118794465E+02  0.00000000000E+00 0. -1.
        -13    1    4    4    0    0  0.54727660805E+01  0.20945307106E+02 -0.48806266975E+02  0.53392028940E+02  0.00000000000E+00 0. -1.
         13    1    4    4    0    0 -0.16793254192E+02 -0.31959857790E+02  0.29543261664E+02  0.46650296956E+02  0.00000000000E+00 0.  1.
         21    1    1    2  502  501  0.29749664089E+02 -0.16603266796E+01 -0.37053117585E+02  0.47547163121E+02  0.00000000000E+00 0. -1.
<scales pt_clust_5="13000.00000" pt_clust_6="13000.00000" pt_clust_7="13000.00000" pt_clust_8="13000.00000" pt_clust_9="29.79596"></scales>
<clustering>
<clus scale="   29.796">  2  9  1 -1</clus>
<clus scale="   96.891">  7  8 -1 -1</clus>
<clus scale="   97.987">  2  7  1 -1</clus>
<clus scale="  100.942">  5  6 -1 -1</clus>
<clus scale="   29.796">  2  5  1 -1</clus>
</clustering>
</event>
<event>
 9    1  0.9000149E-006  0.1207889E+03  0.7546771E-02  0.1242170E+00
         -1   -1    0    0    0  501 -0.00000000000E+00  0.00000000000E+00  0.11909592614E+03  0.11909592614E+03  0.00000000000E+00 0.  1.
          1   -1    0    0  502    0  0.00000000000E+00 -0.00000000000E+00 -0.14926889680E+03  0.14926889680E+03  0.00000000000E+00 0. -1.
         23    2    1    2    0    0  0.40779920437E+02  0.77850217064E+02  0.54164250534E+01  0.12680770789E+03  0.91253487122E+02 0.  0.
         23    2    1    2    0    0 -0.35320959654E+02 -0.55995182798E+02 -0.23904400451E+02  0.11618031679E+03  0.92430595379E+02 0.  0.
        -11    1    4    4    0    0 -0.10573441199E+02 -0.67918912567E+02  0.13220936887E+02  0.69996925042E+02  0.00000000000E+00 0. -1.
         11    1    4    4    0    0 -0.24747518454E+02  0.11923729770E+02 -0.37125337339E+02  0.46183391753E+02  0.00000000000E+00 0.  1.
        -13    1    3    3    0    0  0.66723315965E+02  0.70023255964E+02 -0.70502978495E+01  0.96979193485E+02  0.00000000000E+00 0. -1.
         13    1    3    3    0    0 -0.25943395529E+02  0.78269611000E+01  0.12466722903E+02  0.29828514404E+02  0.00000000000E+00 0.  1.
         21    1    1    2  502  501 -0.54589607830E+01 -0.21855034267E+02 -0.11684995257E+02  0.25376798257E+02  0.00000000000E+00 0.  1.
<scales pt_clust_5="13000.00000" pt_clust_6="13000.00000" pt_clust_7="13000.00000" pt_clust_8="13000.00000" pt_clust_9="22.52649"></scales>
<clustering>
<clus scale="   22.526">  2  9  1 -1</clus>
<clus scale="   91.253">  7  8 -1 -1</clus>
<clus scale="   92.431">  5  6 -1 -1</clus>
<clus scale="  119.891">  1  7  2 -1</clus>
<clus scale="   22.526">  2  5  1 -1</clus>
</clustering>
</event>
<event>
 9    1  0.9000149E-006  0.9352362E+02  0.7546771E-02  0.1294876E+00
          1   -1    0    0  502    0  0.00000000000E+00  0.00000000000E+00  0.17285339161E+03  0.17285339161E+03  0.00000000000E+00 0. -1.
         -1   -1    0    0    0  501 -0.00000000000E+00 -0.00000000000E+00 -0.26075917061E+03  0.26075917061E+03  0.00000000000E+00 0.  1.
         23    2    1    2    0    0 -0.87733159802E+01 -0.14527075891E+02 -0.14084152384E+03  0.16807854060E+03  0.90144628045E+02 0.  0.
         23    2    1    2    0    0 -0.12998727010E+02  0.43329783530E+02 -0.79669098815E+02  0.12810162959E+03  0.89534491411E+02 0.  0.
        -11    1    4    4    0    0 -0.46358634607E+02  0.18531205417E+02 -0.69034075589E+02  0.85195259078E+02  0.00000000000E+00 0. -1.
         11    1    4    4    0    0  0.33359907597E+02  0.24798578113E+02 -0.10635023225E+02  0.42906370510E+02  0.00000000000E+00 0.  1.
        -13    1    3    3    0    0  0.16151005674E+02  0.29875264344E+02 -0.27063196427E+02  0.43425833380E+02  0.00000000000E+00 0.  1.
         13    1    3    3    0    0 -0.24924321654E+02 -0.44402340236E+02 -0.11377832741E+03  0.12465270722E+03  0.00000000000E+00 0. -1.
         21    1    1    2  502  501  0.21772042990E+02 -0.28802707639E+02  0.13260484365E+03  0.13743239204E+03  0.00000000000E+00 0. -1.
<scales pt_clust_5="13000.00000" pt_clust_6="13000.00000" pt_clust_7="13000.00000" pt_clust_8="13000.00000" pt_clust_9="36.10565"></scales>
<clustering>
<clus scale="   36.106">  1  9  2 -1</clus>
<clus scale="   89.534">  5  6 -1 -1</clus>
<clus scale="   90.145">  7  8 -1 -1</clus>
<clus scale="   92.936">  1  5  2 -1</clus>
<clus scale="   36.106">  1  5  2 -1</clus>
</clustering>
</event>
<event>
 9    1  0.9000149E-006  0.1056755E+03  0.7546771E-02  0.1270422E+00
         -1   -1    0    0    0  501 -0.00000000000E+00  0.00000000000E+00  0.66731938188E+03  0.66731938188E+03  0.00000000000E+00 0.  1.
          1   -1    0    0  502    0  0.00000000000E+00 -0.00000000000E+00 -0.92288696802E+02  0.92288696802E+02  0.00000000000E+00 0. -1.
         23    2    1    2    0    0 -0.68375963631E+02 -0.31178014483E+02  0.48626651749E+03  0.49992023648E+03  0.88418187155E+02 0.  0.
         23    2    1    2    0    0  0.84768921105E+01 -0.21222859293E+02  0.13694046001E+03  0.16665717257E+03  0.92193579627E+02 0.  0.
        -13    1    4    4    0    0 -0.48464102340E+01 -0.55671748757E+02  0.99154817541E+02  0.11381787708E+03  0.00000000000E+00 0.  1.
         13    1    4    4    0    0  0.13323302344E+02  0.34448889465E+02  0.37785642466E+02  0.52839295484E+02  0.00000000000E+00 0. -1.
        -13    1    3    3    0    0 -0.72628970068E+02 -0.54953604061E+02  0.40646381072E+03  0.41654254922E+03  0.00000000000E+00 0.  1.
         13    1    3    3    0    0  0.42530064366E+01  0.23775589578E+02  0.79802706775E+02  0.83377687256E+02  0.00000000000E+00 0. -1.
         21    1    1    2  502  501  0.59899071521E+02  0.52400873776E+02 -0.48176292421E+02  0.93030669636E+02  0.00000000000E+00 0. -1.
<scales pt_clust_5="13000.00000" pt_clust_6="13000.00000" pt_clust_7="13000.00000" pt_clust_8="13000.00000" pt_clust_9="79.58486"></scales>
<clustering>
<clus scale="   79.585">  2  9  1 -1</clus>
<clus scale="   88.418">  7  8 -1 -1</clus>
<clus scale="   92.194">  5  6 -1 -1</clus>
<clus scale="  102.398">  1  7  2 -1</clus>
<clus scale="   79.585">  2  5  1 -1</clus>
</clustering>
</event>
<event>
 9    1  0.9000149E-006  0.1138150E+03  0.7546771E-02  0.1254791E+00
         -2   -1    0    0    0  501 -0.00000000000E+00  0.00000000000E+00  0.58958967032E+02  0.58958967032E+02  0.00000000000E+00 0.  1.
          2   -1    0    0  502    0  0.00000000000E+00 -0.00000000000E+00 -0.30672079370E+03  0.30672079370E+03  0.00000000000E+00 0. -1.
         23    2    1    2    0    0  0.64954173324E+02 -0.42025342369E+02 -0.52663776770E+02  0.13110410560E+03  0.91813065993E+02 0.  0.
         23    2    1    2    0    0 -0.43995655031E+02  0.22611247061E+02 -0.14774900195E+03  0.17927557442E+03  0.88673997603E+02 0.  0.
        -13    1    3    3    0    0  0.30793974108E+02  0.14088543636E+00  0.22684755957E+02  0.38247703760E+02  0.00000000000E+00 0. -1.
         13    1    3    3    0    0  0.34160199216E+02 -0.42166227805E+02 -0.75348532727E+02  0.92856401836E+02  0.00000000000E+00 0.  1.
        -13    1    4    4    0    0  0.13368853562E+02  0.32690502644E+02 -0.92431378236E+02  0.98949254122E+02  0.00000000000E+00 0. -1.
         13    1    4    4    0    0 -0.57364508593E+02 -0.10079255582E+02 -0.55317623716E+02  0.80326320299E+02  0.00000000000E+00 0.  1.
         21    1    1    2  502  501 -0.20958518292E+02  0.19414095308E+02 -0.47349047949E+02  0.55300080717E+02  0.00000000000E+00 0. -1.
<scales pt_clust_5="13000.00000" pt_clust_6="13000.00000" pt_clust_7="13000.00000" pt_clust_8="13000.00000" pt_clust_9="28.56863"></scales>
<clustering>
<clus scale="   28.569">  2  9  1 -1</clus>
<clus scale="   88.674">  7  8 -1 -1</clus>
<clus scale="   91.813">  5  6 -1 -1</clus>
<clus scale="  111.298">  2  7  1 -1</clus>
<clus scale="   28.569">  2  5  1 -1</clus>
</clustering>
</event>
<event>
 9    1  0.9000149E-006  0.9423478E+02  0.7546771E-02  0.1295643E+00
         -1   -1    0    0    0  501 -0.00000000000E+00  0.00000000000E+00  0.17200661367E+03  0.17200661367E+03  0.00000000000E+00 0.  1.
          1   -1    0    0  502    0  0.00000000000E+00 -0.00000000000E+00 -0.88237153343E+02  0.88237153343E+02  0.00000000000E+00 0. -1.
         23    2    1    2    0    0  0.12966081712E+02  0.27698969285E+02  0.45861895584E+02  0.10898479745E+03  0.94016064764E+02 0.  0.
         23    2    1    2    0    0  0.16894624636E+02  0.15811215579E+02  0.33995380824E+02  0.98342968647E+02  0.89332136913E+02 0.  0.
        -11    1    4    4    0    0 -0.31451314074E+02  0.13923129410E+02  0.36167829499E+02  0.49911427351E+02  0.00000000000E+00 0.  1.
         11    1    4    4    0    0  0.48345938710E+02  0.18880861688E+01 -0.21724486752E+01  0.48431541297E+02  0.00000000000E+00 0. -1.
        -11    1    3    3    0    0 -0.19534330377E+02 -0.26829194316E+02  0.51817890658E+01  0.33589383276E+02  0.00000000000E+00 0.  1.
         11    1    3    3    0    0  0.32500412089E+02  0.54528163602E+02  0.40680106518E+02  0.75395414172E+02  0.00000000000E+00 0. -1.
         21    1    1    2  502  501 -0.29860706349E+02 -0.43510184864E+02  0.39121839227E+01  0.52916000922E+02  0.00000000000E+00 0.  1.
<scales pt_clust_5="13000.00000" pt_clust_6="13000.00000" pt_clust_7="13000.00000" pt_clust_8="13000.00000" pt_clust_9="52.77119"></scales>
<clustering>
<clus scale="   52.771">  2  9  1 -1</clus>
<clus scale="   89.332">  5  6 -1 -1</clus>
<clus scale="   89.562">  2  5  1 -1</clus>
<clus scale="   94.016">  7  8 -1 -1</clus>
<clus scale="   52.771">  2  5  1 -1</clus>
</clustering>
</event>
<event>
 9    1  0.9000149E-006  0.2103797E+03  0.7546771E-02  0.1172341E+00
          2   -1    0    0  502    0  0.00000000000E+00  0.00000000000E+00  0.55163724646E+03  0.55163724646E+03  0.00000000000E+00 0. -1.
         -2   -1    0    0    0  501 -0.00000000000E+00 -0.00000000000E+00 -0.12006627203E+03  0.12006627203E+03  0.00000000000E+00 0.  1.
         23    2    1    2    0    0 -0.38019237330E+02  0.39236773281E+02  0.45133131229E+02  0.11119745423E+03  0.85690650059E+02 0.  0.
         23    2    1    2    0    0  0.59878618188E+02 -0.20333818162E+03  0.28348417957E+03  0.36555334793E+03  0.91291319943E+02 0.  0.
        -11    1    4    4    0    0  0.11400860432E+01 -0.54395100917E+02  0.14134859429E+03  0.15145808630E+03  0.00000000000E+00 0.  1.
         11    1    4    4    0    0  0.58738532145E+02 -0.14894308070E+03  0.14213558529E+03  0.21409526163E+03  0.00000000000E+00 0. -1.
        -13    1    3    3    0    0 -0.61946761020E+02  0.19328216551E+02  0.12472379156E+02  0.66079810818E+02  0.00000000000E+00 0. -1.
         13    1    3    3    0    0  0.23927523689E+02  0.19908556731E+02  0.32660752072E+02  0.45117643411E+02  0.00000000000E+00 0.  1.
         21    1    1    2  502  501 -0.21859380858E+02  0.16410140834E+03  0.10295366363E+03  0.19495271633E+03  0.00000000000E+00 0.  1.
<scales pt_clust_5="13000.00000" pt_clust_6="13000.00000" pt_clust_7="13000.00000" pt_clust_8="13000.00000" pt_clust_9="189.54030"></scales>
<clustering>
<clus scale="   85.691">  7  8 -1 -1</clus>
<clus scale="   91.291">  5  6 -1 -1</clus>
<clus scale="  101.626">  2  7  1 -1</clus>
<clus scale="  189.540">  2  9  1 -1</clus>
<clus scale="  210.380">  1  5  2 -1</clus>
</clustering>
</event>
<event>
 9    1  0.9000149E-006  0.2509662E+03  0.7546771E-02  0.1112722E+00
          1   -1    0    0  502    0  0.00000000000E+00  0.00000000000E+00  0.27216480667E+03  0.27216480667E+03  0.00000000000E+00 0. -1.
         -1   -1    0    0    0  501 -0.00000000000E+00 -0.00000000000E+00 -0.47932625309E+03  0.47932625309E+03  0.00000000000E+00 0.  1.
         23    2    1    2    0    0 -0.11609551964E+03 -0.20512550313E+03 -0.35173317305E+03  0.43302137127E+03  0.90755943264E+02 0.  0.
         23    2    1    2    0    0  0.78647799254E+02  0.21314675940E+03  0.11740679243E+03  0.27151645680E+03  0.91213014631E+02 0.  0.
        -11    1    4    4    0    0  0.54171666084E+02  0.42936613758E+02  0.12982819884E+02  0.70332608508E+02  0.00000000000E+00 0.  1.
         11    1    4    4    0    0  0.24476133170E+02  0.17021014564E+03  0.10442397254E+03  0.20118384830E+03  0.00000000000E+00 0. -1.
        -13    1    3    3    0    0 -0.11907611209E+03 -0.15475743482E+03 -0.31498940842E+03  0.37060398206E+03  0.00000000000E+00 0.  1.
         13    1    3    3    0    0  0.29805924427E+01 -0.50368068314E+02 -0.36743764631E+02  0.62417389213E+02  0.00000000000E+00 0. -1.
         21    1    1    2  502  501  0.37447720391E+02 -0.80212562695E+01  0.27164934209E+02  0.46953231680E+02  0.00000000000E+00 0. -1.
<scales pt_clust_5="13000.00000" pt_clust_6="13000.00000" pt_clust_7="13000.00000" pt_clust_8="13000.00000" pt_clust_9="38.29716"></scales>
<clustering>
<clus scale="   38.297">  1  9  2 -1</clus>
<clus scale="   90.756">  7  8 -1 -1</clus>
<clus scale="   91.213">  5  6 -1 -1</clus>
<clus scale="  250.800">  2  7  1 -1</clus>
<clus scale="   38.297">  1  5  2 -1</clus>
</clustering>
</event>
<event>
 9    1  0.9000149E-006  0.2829842E+03  0.7546771E-02  0.1095287E+00
         -3   -1    0    0    0  501 -0.00000000000E+00  0.00000000000E+00  0.51331340412E+03  0.51331340412E+03  0.00000000000E+00 0.  1.
          3   -1    0    0  502    0  0.00000000000E+00 -0.00000000000E+00 -0.35459257822E+03  0.35459257822E+03  0.00000000000E+00 0. -1.
         23    2    1    2    0    0  0.43613547764E+02 -0.27502639141E+03  0.37687975025E+03  0.48044248717E+03  0.10604234911E+03 0.  0.
         23    2    1    2    0    0 -0.40102175113E+02  0.20684265865E+03 -0.90416425958E+02  0.24262048690E+03  0.79356793612E+02 0.  0.
        -13    1    4    4    0    0 -0.54001983473E+02  0.12541879236E+03 -0.82741571970E+02  0.15966294319E+03  0.00000000000E+00 0.  1.
         13    1    4    4    0    0  0.13899808360E+02  0.81423866289E+02 -0.76748539877E+01  0.82957543705E+02  0.00000000000E+00 0. -1.
        -13    1    3    3    0    0  0.61275996468E+02 -0.17534192971E+03  0.30190344749E+03  0.35446471145E+03  0.00000000000E+00 0.  1.
         13    1    3    3    0    0 -0.17662448704E+02 -0.99684461702E+02  0.74976302759E+02  0.12597777572E+03  0.00000000000E+00 0. -1.
         21    1    1    2  502  501 -0.35113726509E+01  0.68183732763E+02 -0.12774249839E+03  0.14484300828E+03  0.00000000000E+00 0. -1.
<scales pt_clust_5="13000.00000" pt_clust_6="13000.00000" pt_clust_7="13000.00000" pt_clust_8="13000.00000" pt_clust_9="68.27409"></scales>
<clustering>
<clus scale="   68.274">  2  9  1 -1</clus>
<clus scale="   79.357">  5  6 -1 -1</clus>
<clus scale="  106.042">  7  8 -1 -1</clus>
<clus scale="  274.103">  2  5  1 -1</clus>
<clus scale="   68.274">  2  5  1 -1</clus>
</clustering>
</event>
<event>
 9    1  0.9000149E-006  0.9075825E+02  0.7546771E-02  0.1301665E+00
         -1   -1    0    0    0  501 -0.00000000000E+00  0.00000000000E+00  0.10501431860E+03  0.10501431860E+03  0.00000000000E+00 0.  1.
          1   -1    0    0  502    0  0.00000000000E+00 -0.00000000000E+00 -0.11033247982E+03  0.11033247982E+03  0.00000000000E+00 0. -1.
         23    2    1    2    0    0 -0.68448523442E+01 -0.20116518663E+02  0.82574585427E+01  0.92206619356E+02  0.89343990871E+02 0.  0.
         23    2    1    2    0    0 -0.83088749510E+01 -0.54249821506E+01 -0.11839594288E+01  0.90960108205E+02  0.90409466818E+02 0.  0.
        -11    1    3    3    0    0  0.21357482357E+02 -0.34310846839E+02  0.32933781702E+02  0.52134539804E+02  0.00000000000E+00 0.  1.
         11    1    3    3    0    0 -0.28202334701E+02  0.14194328176E+02 -0.24676323159E+02  0.40072079552E+02  0.00000000000E+00 0. -1.
        -13    1    4    4    0    0 -0.33978117938E+02 -0.36849514494E+02  0.27143568476E+01  0.50197280306E+02  0.00000000000E+00 0.  1.
         13    1    4    4    0    0  0.25669242986E+02  0.31424532343E+02 -0.38983162764E+01  0.40762827899E+02  0.00000000000E+00 0. -1.
         21    1    1    2  502  501  0.15153727295E+02  0.25541500814E+02 -0.12391660331E+02  0.32180070859E+02  0.00000000000E+00 0. -1.
<scales pt_clust_5="13000.00000" pt_clust_6="13000.00000" pt_clust_7="13000.00000" pt_clust_8="13000.00000" pt_clust_9="29.69855"></scales>
<clustering>
<clus scale="   29.699">  2  9  1 -1</clus>
<clus scale="   89.344">  5  6 -1 -1</clus>
<clus scale="   89.697">  1  5  2 -1</clus>
<clus scale="   90.409">  7  8 -1 -1</clus>
<clus scale="   29.699">  2  5  1 -1</clus>
</clustering>
</event>
<event>
 9    1  0.9000149E-006  0.1020592E+03  0.7546771E-02  0.1276897E+00
         -2   -1    0    0    0  501 -0.00000000000E+00  0.00000000000E+00  0.45557093323E+02  0.45557093323E+02  0.00000000000E+00 0.  1.
          2   -1    0    0  502    0  0.00000000000E+00 -0.00000000000E+00 -0.60519375115E+03  0.60519375115E+03  0.00000000000E+00 0. -1.
         23    2    1    2    0    0 -0.28888787656E+02 -0.43556105138E+02 -0.40618421619E+02  0.11353027644E+03  0.92236495737E+02 0.  0.
         23    2    1    2    0    0  0.64543156666E+01  0.11085208711E+01 -0.34586995465E+03  0.35753909891E+03  0.90362020263E+02 0.  0.
        -11    1    3    3    0    0 -0.10282462241E+02  0.25384390332E+02  0.62808474244E+01  0.28098849561E+02  0.00000000000E+00 0.  1.
         11    1    3    3    0    0 -0.18606325414E+02 -0.68940495470E+02 -0.46899269043E+02  0.85431426875E+02  0.00000000000E+00 0. -1.
        -13    1    4    4    0    0  0.32066576117E+02 -0.28070353825E+02 -0.25769013549E+03  0.26119038266E+03  0.00000000000E+00 0.  1.
         13    1    4    4    0    0 -0.25612260450E+02  0.29178874696E+02 -0.88179819166E+02  0.96348716245E+02  0.00000000000E+00 0. -1.
         21    1    1    2  502  501  0.22434471989E+02  0.42447584267E+02 -0.17314828155E+03  0.17968146913E+03  0.00000000000E+00 0. -1.
<scales pt_clust_5="13000.00000" pt_clust_6="13000.00000" pt_clust_7="13000.00000" pt_clust_8="13000.00000" pt_clust_9="48.01149"></scales>
<clustering>
<clus scale="   48.011">  2  9  1 -1</clus>
<clus scale="   90.362">  7  8 -1 -1</clus>
<clus scale="   92.236">  5  6 -1 -1</clus>
<clus scale="  100.368">  2  7  1 -1</clus>
<clus scale="   48.011">  2  5  1 -1</clus>
</clustering>
</event>
<event>
 9    1  0.9000149E-006  0.1307921E+03  0.7546771E-02  0.1226308E+00
          2   -1    0    0  502    0  0.00000000000E+00  0.00000000000E+00  0.85599558600E+03  0.85599558600E+03  0.00000000000E+00 0. -1.
         -2   -1    0    0    0  501 -0.00000000000E+00 -0.00000000000E+00 -0.13644084982E+03  0.13644084982E+03  0.00000000000E+00 0.  1.
         23    2    1    2    0    0  0.58577287648E+02 -0.76781454500E+02 -0.89198260762E+02  0.16125715766E+03  0.93385495603E+02 0.  0.
         23    2    1    2    0    0 -0.56709088967E+02  0.11051817197E+02  0.32725666718E+03  0.34521365082E+03  0.93474462067E+02 0.  0.
        -11    1    4    4    0    0 -0.79017444805E+02  0.37434259955E+01  0.18758032105E+03  0.20357835511E+03  0.00000000000E+00 0. -1.
         11    1    4    4    0    0  0.22308355838E+02  0.73083912011E+01  0.13967634613E+03  0.14163529571E+03  0.00000000000E+00 0.  1.
        -11    1    3    3    0    0  0.54170211684E+02 -0.46112364177E+02 -0.10472363216E+03  0.12660095220E+03  0.00000000000E+00 0.  1.
         11    1    3    3    0    0  0.44070759646E+01 -0.30669090322E+02  0.15525371400E+02  0.34656205460E+02  0.00000000000E+00 0. -1.
         21    1    1    2  502  501 -0.18681986815E+01  0.65729637303E+02  0.48149632976E+03  0.48596562735E+03  0.00000000000E+00 0.  1.
<scales pt_clust_5="13000.00000" pt_clust_6="13000.00000" pt_clust_7="13000.00000" pt_clust_8="13000.00000" pt_clust_9="65.75618"></scales>
<clustering>
<clus scale="   65.756">  1  9  2 -1</clus>
<clus scale="   93.385">  7  8 -1 -1</clus>
<clus scale="   93.474">  5  6 -1 -1</clus>
<clus scale="  130.729">  2  7  1 -1</clus>
<clus scale="   65.756">  1  5  2 -1</clus>
</clustering>
</event>
<event>
 9    1  0.9000149E-006  0.1031026E+03  0.7546771E-02  0.1276697E+00
          4   -1    0    0  502    0  0.00000000000E+00  0.00000000000E+00  0.40213485956E+02  0.40213485956E+02  0.00000000000E+00 0. -1.
         -4   -1    0    0    0  501 -0.00000000000E+00 -0.00000000000E+00 -0.44474329279E+03  0.44474329279E+03  0.00000000000E+00 0.  1.
         23    2    1    2    0    0  0.34207173937E+02  0.10773288882E+02 -0.23340489732E+03  0.25127720588E+03  0.85884769286E+02 0.  0.
         23    2    1    2    0    0 -0.67230740049E+02 -0.13972427329E+02 -0.16329407258E+03  0.19958980296E+03  0.91956153543E+02 0.  0.
        -11    1    3    3    0    0  0.94966438744E+01 -0.33802588385E+02 -0.51230979092E+02  0.62108086793E+02  0.00000000000E+00 0. -1.
         11    1    3    3    0    0  0.24710530062E+02  0.44575877267E+02 -0.18217391823E+03  0.18916911908E+03  0.00000000000E+00 0.  1.
        -13    1    4    4    0    0  0.74297414047E+01  0.28081921702E+02 -0.43261328348E+02  0.52108904366E+02  0.00000000000E+00 0.  1.
         13    1    4    4    0    0 -0.74660481453E+02 -0.42054349031E+02 -0.12003274423E+03  0.14748089859E+03  0.00000000000E+00 0. -1.
         21    1    1    2  502  501  0.33023566112E+02  0.31991384471E+01 -0.78308369361E+01  0.34089769912E+02  0.00000000000E+00 0. -1.
<scales pt_clust_5="13000.00000" pt_clust_6="13000.00000" pt_clust_7="13000.00000" pt_clust_8="13000.00000" pt_clust_9="33.17816"></scales>
<clustering>
<clus scale="   33.178">  1  9  2 -1</clus>
<clus scale="   85.885">  5  6 -1 -1</clus>
<clus scale="   91.956">  7  8 -1 -1</clus>
<clus scale="   97.726">  2  5  1 -1</clus>
<clus scale="   33.178">  1  5  2 -1</clus>
</clustering>
</event>
<event>
 9    1  0.9000149E-006  0.1133964E+03  0.7546771E-02  0.1254640E+00
          2   -1    0    0  502    0  0.00000000000E+00  0.00000000000E+00  0.49606960346E+03  0.49606960346E+03  0.00000000000E+00 0. -1.
         -2   -1    0    0    0  501 -0.00000000000E+00 -0.00000000000E+00 -0.37523957611E+02  0.37523957611E+02  0.00000000000E+00 0.  1.
         23    2    1    2    0    0 -0.40373962915E+02  0.35334067064E+02  0.15999246663E+03  0.19208207022E+03  0.91757174897E+02 0.  0.
         23    2    1    2    0    0  0.45666428673E+02 -0.65257251934E+02  0.16892273912E+03  0.20836698970E+03  0.92401184878E+02 0.  0.
        -11    1    3    3    0    0  0.13754946638E+02  0.27001204782E+02  0.12129604004E+03  0.12502396949E+03  0.00000000000E+00 0. -1.
         11    1    3    3    0    0 -0.54128909554E+02  0.83328622822E+01  0.38696426592E+02  0.67058100736E+02  0.00000000000E+00 0.  1.
        -13    1    4    4    0    0  0.49602457874E+02  0.43844211291E+01  0.91385897546E+02  0.10407213482E+03  0.00000000000E+00 0.  1.
         13    1    4    4    0    0 -0.39360292014E+01 -0.69641673063E+02  0.77536841573E+02  0.10429485488E+03  0.00000000000E+00 0. -1.
         21    1    1    2  502  501 -0.52924657577E+01  0.29923184870E+02  0.12963044010E+03  0.13314450115E+03  0.00000000000E+00 0.  1.
<scales pt_clust_5="13000.00000" pt_clust_6="13000.00000" pt_clust_7="13000.00000" pt_clust_8="13000.00000" pt_clust_9="30.38762"></scales>
<clustering>
<clus scale="   30.388">  1  9  2 -1</clus>
<clus scale="   91.757">  5  6 -1 -1</clus>
<clus scale="   92.401">  7  8 -1 -1</clus>
<clus scale="  112.872">  2  5  1 -1</clus>
<clus scale="   30.388">  1  5  2 -1</clus>
</clustering>
</event>
<event>
 9    1  0.9000149E-006  0.9597272E+02  0.7546771E-02  0.1289552E+00
         -2   -1    0    0    0  501 -0.00000000000E+00  0.00000000000E+00  0.31557899536E+02  0.31557899536E+02  0.00000000000E+00 0.  1.
          2   -1    0    0  502    0  0.00000000000E+00 -0.00000000000E+00 -0.61279684823E+03  0.61279684823E+03  0.00000000000E+00 0. -1.
         23    2    1    2    0    0 -0.25378250821E+02 -0.25987720574E+02 -0.92617553248E+02  0.13504384093E+03  0.91320373242E+02 0.  0.
         23    2    1    2    0    0  0.26731677725E+02 -0.11430251309E+02 -0.24303792883E+03  0.26088954008E+03  0.90281138863E+02 0.  0.
        -11    1    3    3    0    0 -0.40499705595E+02  0.15508562250E+02 -0.15274186351E+02  0.45978717088E+02  0.00000000000E+00 0.  1.
         11    1    3    3    0    0  0.15121454774E+02 -0.41496282824E+02 -0.77343366897E+02  0.89065123846E+02  0.00000000000E+00 0. -1.
        -13    1    4    4    0    0  0.30367966048E+02  0.35292897151E+02 -0.98625544083E+02  0.10906328391E+03  0.00000000000E+00 0.  1.
         13    1    4    4    0    0 -0.36362883238E+01 -0.46723148460E+02 -0.14441238475E+03  0.15182625618E+03  0.00000000000E+00 0. -1.
         21    1    1    2  502  501 -0.13534269041E+01  0.37417971883E+02 -0.24558346661E+03  0.24842136674E+03  0.00000000000E+00 0.  1.
<scales pt_clust_5="13000.00000" pt_clust_6="13000.00000" pt_clust_7="13000.00000" pt_clust_8="13000.00000" pt_clust_9="37.44244"></scales>
<clustering>
<clus scale="   37.442">  2  9  1 -1</clus>
<clus scale="   90.281">  7  8 -1 -1</clus>
<clus scale="   91.320">  5  6 -1 -1</clus>
<clus scale="   94.984">  2  7  1 -1</clus>
<clus scale="   37.442">  2  5  1 -1</clus>
</clustering>
</event>
<event>
 9    1  0.9000149E-006  0.1114199E+03  0.7546771E-02  0.1259536E+00
         -1   -1    0    0    0  501 -0.00000000000E+00  0.00000000000E+00  0.18990696022E+03  0.18990696022E+03  0.00000000000E+00 0.  1.
          1   -1    0    0  502    0  0.00000000000E+00 -0.00000000000E+00 -0.30277557965E+03  0.30277557965E+03  0.00000000000E+00 0. -1.
         23    2    1    2    0    0 -0.35968167444E+02  0.47578121805E+02  0.15639763894E+03  0.19271508731E+03  0.95506526820E+02 0.  0.
         23    2    1    2    0    0  0.30558888713E+02 -0.20685087435E+02 -0.16594890459E+03  0.19307044050E+03  0.91517416586E+02 0.  0.
        -11    1    3    3    0    0 -0.24069553915E+02  0.73188324079E+02  0.79099547666E+02  0.11042016414E+03  0.00000000000E+00 0.  1.
         11    1    3    3    0    0 -0.11898613528E+02 -0.25610202274E+02  0.77298091277E+02  0.82294923169E+02  0.00000000000E+00 0. -1.
        -13    1    4    4    0    0 -0.74083665476E+01 -0.31513773197E+02 -0.12629467301E+02  0.34749176110E+02  0.00000000000E+00 0.  1.
         13    1    4    4    0    0  0.37967255260E+02  0.10828685762E+02 -0.15331943729E+03  0.15832126439E+03  0.00000000000E+00 0. -1.
         21    1    1    2  502  501  0.54092787307E+01 -0.26893034370E+02 -0.10331735378E+03  0.10689701206E+03  0.00000000000E+00 0.  1.
<scales pt_clust_5="13000.00000" pt_clust_6="13000.00000" pt_clust_7="13000.00000" pt_clust_8="13000.00000" pt_clust_9="27.43165"></scales>
<clustering>
<clus scale="   27.432">  2  9  1 -1</clus>
<clus scale="   91.517">  7  8 -1 -1</clus>
<clus scale="   95.507">  5  6 -1 -1</clus>
<clus scale="  108.020">  2  7  1 -1</clus>
<clus scale="   27.432">  2  5  1 -1</clus>
</clustering>
</event>
<event>
 9    1  0.9000149E-006  0.1168462E+03  0.7546771E-02  0.1248590E+00
          1   -1    0    0  502    0  0.00000000000E+00  0.00000000000E+00  0.51670505225E+03  0.51670505225E+03  0.00000000000E+00 0. -1.
         -1   -1    0    0    0  501 -0.00000000000E+00 -0.00000000000E+00 -0.56595308150E+02  0.56595308150E+02  0.00000000000E+00 0.  1.
         23    2    1    2    0    0  0.70952370379E+02 -0.81763766615E+02  0.12435270678E+03  0.18863995936E+03  0.91661803339E+02 0.  0.
         23    2    1    2    0    0 -0.27708438336E+02  0.36506420083E+01  0.20232706971E+03  0.22411366594E+03  0.92247533195E+02 0.  0.
        -13    1    3    3    0    0  0.42452859426E+02 -0.94118051760E+02  0.66019803417E+02  0.12255230469E+03  0.00000000000E+00 0. -1.
         13    1    3    3    0    0  0.28499510953E+02  0.12354285145E+02  0.58332903363E+02  0.66087654678E+02  0.00000000000E+00 0.  1.
        -13    1    4    4    0    0  0.30172186971E+01  0.41924890469E+02  0.57712031358E+02  0.71396628863E+02  0.00000000000E+00 0.  1.
         13    1    4    4    0    0 -0.30725657033E+02 -0.38274248461E+02  0.14461503836E+03  0.15271703708E+03  0.00000000000E+00 0. -1.
         21    1    1    2  502  501 -0.43243932043E+02  0.78113124607E+02  0.13342996760E+03  0.16054673509E+03  0.00000000000E+00 0.  1.
<scales pt_clust_5="13000.00000" pt_clust_6="13000.00000" pt_clust_7="13000.00000" pt_clust_8="13000.00000" pt_clust_9="89.28437"></scales>
<clustering>
<clus scale="   89.284">  1  9  2 -1</clus>
<clus scale="   91.662">  5  6 -1 -1</clus>
<clus scale="   92.248">  7  8 -1 -1</clus>
<clus scale="  116.384">  2  5  1 -1</clus>
<clus scale="   89.284">  1  5  2 -1</clus>
</clustering>
</event>
<event>
 9    1  0.9000149E-006  0.1373760E+03  0.7546771E-02  0.1230170E+00
         -2   -1    0    0    0  501 -0.00000000000E+00  0.00000000000E+00  0.28789465397E+02  0.28789465397E+02  0.00000000000E+00 0.  1.
          2   -1    0    0  502    0  0.00000000000E+00 -0.00000000000E+00 -0.67735560413E+03  0.67735560413E+03  0.00000000000E+00 0. -1.
         23    2    1    2    0    0  0.70614014854E+02 -0.19982327300E+02 -0.29167135708E+03  0.31909074617E+03  0.10658841990E+03 0.  0.
         23    2    1    2    0    0 -0.98331942529E+02  0.50118455153E+01 -0.23650384699E+03  0.26261005474E+03  0.57755360742E+02 0.  0.
        -11    1    4    4    0    0 -0.58836886067E+02 -0.24489921199E+02 -0.11484317848E+03  0.13134112473E+03  0.00000000000E+00 0. -1.
         11    1    4    4    0    0 -0.39495056462E+02  0.29501766715E+02 -0.12166066851E+03  0.13126893001E+03  0.00000000000E+00 0.  1.
        -13    1    3    3    0    0  0.38348158990E+02  0.35571970846E+02 -0.20275658615E+03  0.20939479372E+03  0.00000000000E+00 0. -1.
         13    1    3    3    0    0  0.32265855864E+02 -0.55554298146E+02 -0.88914770922E+02  0.10969595246E+03  0.00000000000E+00 0.  1.
         21    1    1    2  502  501  0.27717927675E+02  0.14970481785E+02 -0.12039093467E+03  0.12444426861E+03  0.00000000000E+00 0. -1.
<scales pt_clust_5="13000.00000" pt_clust_6="13000.00000" pt_clust_7="13000.00000" pt_clust_8="13000.00000" pt_clust_9="31.50236"></scales>
<clustering>
<clus scale="   31.502">  2  9  1 -1</clus>
<clus scale="   57.755">  5  6 -1 -1</clus>
<clus scale="  104.148">  2  5  1 -1</clus>
<clus scale="  106.588">  7  8 -1 -1</clus>
<clus scale="   31.502">  2  5  1 -1</clus>
</clustering>
</event>
<event>
 9    1  0.9000149E-006  0.1232286E+03  0.7546771E-02  0.1238537E+00
          1   -1    0    0  502    0  0.00000000000E+00  0.00000000000E+00  0.20469957045E+03  0.20469957045E+03  0.00000000000E+00 0. -1.
         -1   -1    0    0    0  501 -0.00000000000E+00 -0.00000000000E+00 -0.22319696190E+03  0.22319696190E+03  0.00000000000E+00 0.  1.
         23    2    1    2    0    0 -0.73287898986E+02  0.44372825702E+02 -0.17228180666E+03  0.21313569252E+03  0.91682815853E+02 0.  0.
         23    2    1    2    0    0  0.40244920919E+02 -0.12096788996E+02  0.11635533818E+03  0.15530903789E+03  0.93895402251E+02 0.  0.
        -11    1    4    4    0    0  0.44272873047E+02  0.33075699952E+02  0.79755277052E+02  0.97030889065E+02  0.00000000000E+00 0.  1.
         11    1    4    4    0    0 -0.40279521276E+01 -0.45172488947E+02  0.36600061129E+02  0.58278148827E+02  0.00000000000E+00 0. -1.
        -13    1    3    3    0    0 -0.44011542282E+02  0.72087760985E+02 -0.10569998430E+03  0.13530021367E+03  0.00000000000E+00 0.  1.
         13    1    3    3    0    0 -0.29276356704E+02 -0.27714935283E+02 -0.66581822366E+02  0.77835478859E+02  0.00000000000E+00 0. -1.
         21    1    1    2  502  501  0.33042978067E+02 -0.32276036707E+02  0.37429077040E+02  0.59451801933E+02  0.00000000000E+00 0. -1.
<scales pt_clust_5="13000.00000" pt_clust_6="13000.00000" pt_clust_7="13000.00000" pt_clust_8="13000.00000" pt_clust_9="46.19070"></scales>
<clustering>
<clus scale="   46.191">  1  9  2 -1</clus>
<clus scale="   91.683">  7  8 -1 -1</clus>
<clus scale="   93.895">  5  6 -1 -1</clus>
<clus scale="  121.551">  2  7  1 -1</clus>
<clus scale="   46.191">  1  5  2 -1</clus>
</clustering>
</event>
<event>
 9    1  0.9000149E-006  0.1452760E+03  0.7546771E-02  0.1206750E+00
          1   -1    0    0  502    0  0.00000000000E+00  0.00000000000E+00  0.10851381245E+03  0.10851381245E+03  0.00000000000E+00 0. -1.
         -1   -1    0    0    0  501 -0.00000000000E+00 -0.00000000000E+00 -0.59912229056E+03  0.59912229056E+03  0.00000000000E+00 0.  1.
         23    2    1    2    0    0 -0.97461961723E+02  0.31925036137E+02 -0.34124371231E+03  0.36782728956E+03  0.91277608646E+02 0.  0.
         23    2    1    2    0    0  0.12440315551E+03 -0.36330182895E+02 -0.21558874766E+03  0.26817886850E+03  0.92980482361E+02 0.  0.
        -11    1    4    4    0    0  0.13504274814E+02 -0.19061331327E+02  0.19005818988E+01  0.23437406038E+02  0.00000000000E+00 0.  1.
         11    1    4    4    0    0  0.11089888070E+03 -0.17268851567E+02 -0.21748932956E+03  0.24474146246E+03  0.00000000000E+00 0. -1.
        -11    1    3    3    0    0 -0.50141776947E+02  0.16302071771E+02 -0.29555165790E+03  0.30021781730E+03  0.00000000000E+00 0.  1.
         11    1    3    3    0    0 -0.47320184776E+02  0.15622964366E+02 -0.45692054411E+02  0.67609472259E+02  0.00000000000E+00 0. -1.
         21    1    1    2  502  501 -0.26941193790E+02  0.44051467575E+01  0.66223981856E+02  0.71629944951E+02  0.00000000000E+00 0.  1.
<scales pt_clust_5="13000.00000" pt_clust_6="13000.00000" pt_clust_7="13000.00000" pt_clust_8="13000.00000" pt_clust_9="27.29896"></scales>
<clustering>
<clus scale="   27.299">  1  9  2 -1</clus>
<clus scale="   91.278">  7  8 -1 -1</clus>
<clus scale="   92.980">  5  6 -1 -1</clus>
<clus scale="  144.192">  2  7  1 -1</clus>
<clus scale="   27.299">  1  5  2 -1</clus>
</clustering>
</event>
<event>
 9    1  0.9000149E-006  0.1548756E+03  0.7546771E-02  0.1194742E+00
          1   -1    0    0  502    0  0.00000000000E+00  0.00000000000E+00  0.37830899151E+02  0.37830899151E+02  0.00000000000E+00 0. -1.
         -1   -1    0    0    0  501 -0.00000000000E+00 -0.00000000000E+00 -0.10195522187E+04  0.10195522187E+04  0.00000000000E+00 0.  1.
         23    2    1    2    0    0  0.36644183414E+02  0.11466268431E+03 -0.65456262834E+03  0.67182112974E+03  0.91657343425E+02 0.  0.
         23    2    1    2    0    0 -0.60064779850E+02 -0.11084419281E+03 -0.18849154301E+03  0.24487907086E+03  0.92425563032E+02 0.  0.
        -11    1    3    3    0    0 -0.18847064544E+02  0.16240222802E+02 -0.41124934247E+02  0.48064715701E+02  0.00000000000E+00 0. -1.
         11    1    3    3    0    0  0.55491247958E+02  0.98422461504E+02 -0.61343769409E+03  0.62375641404E+03  0.00000000000E+00 0.  1.
        -13    1    4    4    0    0  0.20697749864E+02 -0.30077182004E+01 -0.33751682631E+02  0.39706665670E+02  0.00000000000E+00 0.  1.
         13    1    4    4    0    0 -0.80762529714E+02 -0.10783647461E+03 -0.15473986038E+03  0.20517240519E+03  0.00000000000E+00 0. -1.
         21    1    1    2  502  501  0.23420596436E+02 -0.38184914979E+01 -0.13866714815E+03  0.14068291720E+03  0.00000000000E+00 0. -1.
<scales pt_clust_5="13000.00000" pt_clust_6="13000.00000" pt_clust_7="13000.00000" pt_clust_8="13000.00000" pt_clust_9="23.72984"></scales>
<clustering>
<clus scale="   23.730">  2  9  1 -1</clus>
<clus scale="   91.657">  5  6 -1 -1</clus>
<clus scale="   92.426">  7  8 -1 -1</clus>
<clus scale="  154.418">  2  5  1 -1</clus>
<clus scale="  154.876">  1  5  2 -1</clus>
</clustering>
</event>
<event>
 9    1  0.9000149E-006  0.1234703E+03  0.7546771E-02  0.1237805E+00
          1   -1    0    0  502    0  0.00000000000E+00  0.00000000000E+00  0.13600114931E+03  0.13600114931E+03  0.00000000000E+00 0. -1.
         -1   -1    0    0    0  501 -0.00000000000E+00 -0.00000000000E+00 -0.49309270977E+03  0.49309270977E+03  0.00000000000E+00 0.  1.
         23    2    1    2    0    0 -0.77748573042E+02 -0.23906063571E+02 -0.22592491033E+03  0.25577516650E+03  0.88105222353E+02 0.  0.
         23    2    1    2    0    0  0.47234672714E+02  0.99626475881E+02 -0.21417877707E+03  0.25688977790E+03  0.89237102362E+02 0.  0.
        -13    1    3    3    0    0 -0.76845266868E+02  0.40414996577E+01 -0.20986729335E+03  0.22353033257E+03  0.00000000000E+00 0.  1.
         13    1    3    3    0    0 -0.90330617417E+00 -0.27947563229E+02 -0.16057616983E+02  0.32244833938E+02  0.00000000000E+00 0. -1.
        -13    1    4    4    0    0  0.27594772813E+02  0.11135888829E+03 -0.19811359460E+03  0.22893507781E+03  0.00000000000E+00 0.  1.
         13    1    4    4    0    0  0.19639899901E+02 -0.11732412408E+02 -0.16065182468E+02  0.27954700083E+02  0.00000000000E+00 0. -1.
         21    1    1    2  502  501  0.30513900328E+02 -0.75720412309E+02  0.83012126946E+02  0.11642891468E+03  0.00000000000E+00 0. -1.
<scales pt_clust_5="13000.00000" pt_clust_6="13000.00000" pt_clust_7="13000.00000" pt_clust_8="13000.00000" pt_clust_9="81.63748"></scales>
<clustering>
<clus scale="   81.637">  1  9  2 -1</clus>
<clus scale="   88.105">  5  6 -1 -1</clus>
<clus scale="   89.237">  7  8 -1 -1</clus>
<clus scale="  122.655">  2  5  1 -1</clus>
<clus scale="   81.637">  1  5  2 -1</clus>
</clustering>
</event>
<event>
 9    1  0.9000149E-006  0.9978212E+02  0.7546771E-02  0.1283174E+00
         -1   -1    0    0    0  501 -0.00000000000E+00  0.00000000000E+00  0.10731966281E+03  0.10731966281E+03  0.00000000000E+00 0.  1.
          1   -1    0    0  502    0  0.00000000000E+00 -0.00000000000E+00 -0.10990524724E+03  0.10990524724E+03  0.00000000000E+00 0. -1.
         23    2    1    2    0    0 -0.24655794620E+02  0.17191951509E+02  0.80952492059E+01  0.96382521298E+02  0.91217245886E+02 0.  0.
         23    2    1    2    0    0  0.28432223502E+02  0.27600237945E+01 -0.95767627993E+01  0.10050617215E+03  0.95884134189E+02 0.  0.
        -11    1    3    3    0    0 -0.60420999699E+01  0.30553470666E+02 -0.35443136382E+02  0.47183020870E+02  0.00000000000E+00 0. -1.
         11    1    3    3    0    0 -0.18613694650E+02 -0.13361519157E+02  0.43538385588E+02  0.49199500428E+02  0.00000000000E+00 0.  1.
        -13    1    4    4    0    0  0.27909046968E+02 -0.23249683925E+02 -0.44192078670E+02  0.57204916943E+02  0.00000000000E+00 0. -1.
         13    1    4    4    0    0  0.52317653428E+00  0.26009707720E+02  0.34615315871E+02  0.43301255203E+02  0.00000000000E+00 0.  1.
         21    1    1    2  502  501 -0.37764288827E+01 -0.19951975304E+02 -0.11040708409E+01  0.20336216611E+02  0.00000000000E+00 0. -1.
<scales pt_clust_5="13000.00000" pt_clust_6="13000.00000" pt_clust_7="13000.00000" pt_clust_8="13000.00000" pt_clust_9="20.30622"></scales>
<clustering>
<clus scale="   20.306">  2  9  1 -1</clus>
<clus scale="   91.217">  5  6 -1 -1</clus>
<clus scale="   95.306">  1  5  2 -1</clus>
<clus scale="   95.884">  7  8 -1 -1</clus>
<clus scale="   20.306">  2  5  1 -1</clus>
</clustering>
</event>
<event>
 9    1  0.9000149E-006  0.1614279E+03  0.7546771E-02  0.1187621E+00
          1   -1    0    0  502    0  0.00000000000E+00  0.00000000000E+00  0.35096854557E+03  0.35096854557E+03  0.00000000000E+00 0. -1.
         -1   -1    0    0    0  501 -0.00000000000E+00 -0.00000000000E+00 -0.13935051494E+03  0.13935051494E+03  0.00000000000E+00 0.  1.
         23    2    1    2    0    0 -0.14496490334E+03 -0.35353016327E+02 -0.24326081460E+02  0.17810881087E+03  0.94161198514E+02 0.  0.
         23    2    1    2    0    0  0.86748234644E+02  0.48881085260E+02  0.11461767622E+03  0.17696124520E+03  0.90903541674E+02 0.  0.
        -11    1    4    4    0    0  0.27476683365E+02  0.65041976562E+02  0.43283083105E+02  0.82818187175E+02  0.00000000000E+00 0.  1.
         11    1    4    4    0    0  0.59271551279E+02 -0.16160891302E+02  0.71334593114E+02  0.94143058020E+02  0.00000000000E+00 0. -1.
        -13    1    3    3    0    0 -0.86531342944E+02 -0.64740355534E+02 -0.30825011884E+02  0.11237957245E+03  0.00000000000E+00 0.  1.
         13    1    3    3    0    0 -0.58433560400E+02  0.29387339207E+02  0.64989304245E+01  0.65729238420E+02  0.00000000000E+00 0. -1.
         21    1    1    2  502  501  0.58216668699E+02 -0.13528068933E+02  0.12132643587E+03  0.13524900445E+03  0.00000000000E+00 0. -1.
<scales pt_clust_5="13000.00000" pt_clust_6="13000.00000" pt_clust_7="13000.00000" pt_clust_8="13000.00000" pt_clust_9="59.76779"></scales>
<clustering>
<clus scale="   59.768">  1  9  2 -1</clus>
<clus scale="   90.904">  5  6 -1 -1</clus>
<clus scale="   94.161">  7  8 -1 -1</clus>
<clus scale="  159.550">  1  5  2 -1</clus>
<clus scale="   59.768">  1  5  2 -1</clus>
</clustering>
</event>
<event>
 9    1  0.9000149E-006  0.1706449E+03  0.7546771E-02  0.1177854E+00
          2   -1    0    0  502    0  0.00000000000E+00  0.00000000000E+00  0.16294077571E+04  0.16294077571E+04  0.00000000000E+00 0. -1.
         -2   -1    0    0    0  501 -0.00000000000E+00 -0.00000000000E+00 -0.44072412015E+02  0.44072412015E+02  0.00000000000E+00 0.  1.
         23    2    1    2    0    0  0.12610940476E+03 -0.23727687977E+02  0.18766021635E+03  0.24779755654E+03  0.98593544844E+02 0.  0.
         23    2    1    2    0    0 -0.18768139865E+03  0.54352183285E+01  0.91716846788E+03  0.94090186213E+03  0.94045024738E+02 0.  0.
        -11    1    4    4    0    0 -0.64648356540E+02 -0.40319669652E+02  0.41015555905E+03  0.41717222868E+03  0.00000000000E+00 0. -1.
         11    1    4    4    0    0 -0.12303304211E+03  0.45754887981E+02  0.50701290883E+03  0.52372963344E+03  0.00000000000E+00 0.  1.
        -13    1    3    3    0    0 -0.88593352698E+01 -0.24334184523E+02  0.40905256918E+02  0.48413638588E+02  0.00000000000E+00 0. -1.
         13    1    3    3    0    0  0.13496874003E+03  0.60649654650E+00  0.14675495943E+03  0.19938391796E+03  0.00000000000E+00 0.  1.
         21    1    1    2  502  501  0.61571993891E+02  0.18292469648E+02  0.48050666087E+03  0.48478075046E+03  0.00000000000E+00 0.  1.
<scales pt_clust_5="13000.00000" pt_clust_6="13000.00000" pt_clust_7="13000.00000" pt_clust_8="13000.00000" pt_clust_9="64.23181"></scales>
<clustering>
<clus scale="   64.232">  1  9  2 -1</clus>
<clus scale="   94.045">  5  6 -1 -1</clus>
<clus scale="   98.594">  7  8 -1 -1</clus>
<clus scale="  168.058">  1  5  2 -1</clus>
<clus scale="   64.232">  1  5  2 -1</clus>
</clustering>
</event>
<event>
 9    1  0.9000149E-006  0.1136603E+03  0.7546771E-02  0.1254309E+00
         -1   -1    0    0    0  501 -0.00000000000E+00  0.00000000000E+00  0.42978185160E+03  0.42978185160E+03  0.00000000000E+00 0.  1.
          1   -1    0    0  502    0  0.00000000000E+00 -0.00000000000E+00 -0.51393982054E+02  0.51393982054E+02  0.00000000000E+00 0. -1.
         23    2    1    2    0    0 -0.10751003951E+02 -0.79125506909E+02  0.20511989101E+03  0.23796448142E+03  0.90423972495E+02 0.  0.
         23    2    1    2    0    0 -0.33939552091E+02  0.52780552565E+02  0.14948370424E+03  0.18614127143E+03  0.91463190261E+02 0.  0.
        -11    1    3    3    0    0  0.35524561636E+02 -0.32253969118E+02  0.12712190266E+03  0.13587601385E+03  0.00000000000E+00 0.  1.
         11    1    3    3    0    0 -0.46275565587E+02 -0.46871537791E+02  0.77997988345E+02  0.10208846757E+03  0.00000000000E+00 0. -1.
        -11    1    4    4    0    0  0.25019054826E+02  0.44561108177E+01  0.10245330125E+02  0.27400306885E+02  0.00000000000E+00 0. -1.
         11    1    4    4    0    0 -0.58958606917E+02  0.48324441748E+02  0.13923837411E+03  0.15874096455E+03  0.00000000000E+00 0.  1.
         21    1    1    2  502  501  0.44690556041E+02  0.26344954344E+02  0.23784274302E+02  0.57070080802E+02  0.00000000000E+00 0.  1.
<scales pt_clust_5="13000.00000" pt_clust_6="13000.00000" pt_clust_7="13000.00000" pt_clust_8="13000.00000" pt_clust_9="51.87776"></scales>
<clustering>
<clus scale="   51.878">  2  9  1 -1</clus>
<clus scale="   90.424">  5  6 -1 -1</clus>
<clus scale="   91.463">  7  8 -1 -1</clus>
<clus scale="  112.826">  1  5  2 -1</clus>
<clus scale="   51.878">  2  5  1 -1</clus>
</clustering>
</event>
<event>
 9    1  0.9000149E-006  0.9435906E+02  0.7546771E-02  0.1293661E+00
         -1   -1    0    0    0  501 -0.00000000000E+00  0.00000000000E+00  0.77146900869E+02  0.77146900869E+02  0.00000000000E+00 0.  1.
          1   -1    0    0  502    0  0.00000000000E+00 -0.00000000000E+00 -0.19600762018E+03  0.19600762018E+03  0.00000000000E+00 0. -1.
         23    2    1    2    0    0  0.10025752816E+02  0.13633715166E+02  0.12956032920E+02  0.94396554808E+02  0.91958995546E+02 0.  0.
         23    2    1    2    0    0 -0.46477238696E+01 -0.36415629176E+02 -0.10453320535E+03  0.14280896442E+03  0.90108323223E+02 0.  0.
        -11    1    4    4    0    0 -0.20004398985E+02  0.18448346390E+02 -0.72521410555E+02  0.77458843602E+02  0.00000000000E+00 0.  1.
         11    1    4    4    0    0  0.15356675115E+02 -0.54863975566E+02 -0.32011794790E+02  0.65350120820E+02  0.00000000000E+00 0. -1.
        -13    1    3    3    0    0  0.25860424623E+02  0.42852677808E+02 -0.13588693030E+02  0.51862955327E+02  0.00000000000E+00 0. -1.
         13    1    3    3    0    0 -0.15834671807E+02 -0.29218962641E+02  0.26544725949E+02  0.42533599481E+02  0.00000000000E+00 0.  1.
         21    1    1    2  502  501 -0.53780289460E+01  0.22781914009E+02 -0.27283546889E+02  0.35949001824E+02  0.00000000000E+00 0. -1.
<scales pt_clust_5="13000.00000" pt_clust_6="13000.00000" pt_clust_7="13000.00000" pt_clust_8="13000.00000" pt_clust_9="23.40809"></scales>
<clustering>
<clus scale="   23.408">  2  9  1 -1</clus>
<clus scale="   90.108">  5  6 -1 -1</clus>
<clus scale="   91.959">  7  8 -1 -1</clus>
<clus scale="   92.556">  2  5  1 -1</clus>
<clus scale="   23.408">  2  5  1 -1</clus>
</clustering>
</event>
<event>
 9    1  0.9000149E-006  0.9511454E+02  0.7546771E-02  0.1291486E+00
         -2   -1    0    0    0  501 -0.00000000000E+00  0.00000000000E+00  0.60347730479E+03  0.60347730479E+03  0.00000000000E+00 0.  1.
          2   -1    0    0  502    0  0.00000000000E+00 -0.00000000000E+00 -0.65675687005E+02  0.65675687005E+02  0.00000000000E+00 0. -1.
         23    2    1    2    0    0 -0.11597440006E+02  0.31328771479E+02  0.23519247772E+03  0.25499654500E+03  0.92691660084E+02 0.  0.
         23    2    1    2    0    0  0.19100868469E+02  0.18866617383E+02 -0.11292986775E+02  0.96177793837E+02  0.91661573461E+02 0.  0.
        -11    1    4    4    0    0  0.52576635233E+02 -0.72221531715E+01 -0.60564799128E+01  0.53414820207E+02  0.00000000000E+00 0.  1.
         11    1    4    4    0    0 -0.33475766764E+02  0.26088770555E+02 -0.52365068621E+01  0.42762973630E+02  0.00000000000E+00 0. -1.
        -13    1    3    3    0    0  0.21889282603E+02  0.32665579089E+02  0.37006164082E+02  0.53996638137E+02  0.00000000000E+00 0. -1.
         13    1    3    3    0    0 -0.33486722609E+02 -0.13368076100E+01  0.19818631364E+03  0.20099990686E+03  0.00000000000E+00 0.  1.
         21    1    1    2  502  501 -0.75034284629E+01 -0.50195388862E+02  0.31390212684E+03  0.31797865296E+03  0.00000000000E+00 0.  1.
<scales pt_clust_5="13000.00000" pt_clust_6="13000.00000" pt_clust_7="13000.00000" pt_clust_8="13000.00000" pt_clust_9="50.75311"></scales>
<clustering>
<clus scale="   50.753">  1  9  2 -1</clus>
<clus scale="   91.662">  5  6 -1 -1</clus>
<clus scale="   92.692">  7  8 -1 -1</clus>
<clus scale="   94.111">  2  5  1 -1</clus>
<clus scale="   94.111">  2  5  1 -1</clus>
</clustering>
</event>
<event>
 9    1  0.9000149E-006  0.1474332E+03  0.7546771E-02  0.1204016E+00
          4   -1    0    0  502    0  0.00000000000E+00  0.00000000000E+00  0.41665142587E+03  0.41665142587E+03  0.00000000000E+00 0. -1.
         -4   -1    0    0    0  501 -0.00000000000E+00 -0.00000000000E+00 -0.89282673148E+02  0.89282673148E+02  0.00000000000E+00 0.  1.
         23    2    1    2    0    0  0.48656696984E+02  0.78140246673E+02  0.79107225711E+02  0.15096501969E+03  0.89772555382E+02 0.  0.
         23    2    1    2    0    0 -0.68031814380E+02 -0.13180338725E+03  0.11188376033E+03  0.20713801670E+03  0.91584504576E+02 0.  0.
        -11    1    4    4    0    0 -0.23885060417E+01 -0.97476628513E+02  0.81465146257E+02  0.12705891595E+03  0.00000000000E+00 0.  1.
         11    1    4    4    0    0 -0.65643308338E+02 -0.34326758740E+02  0.30418614068E+02  0.80079100750E+02  0.00000000000E+00 0. -1.
        -13    1    3    3    0    0  0.61450607635E+02  0.18388238329E+02  0.57524961362E+02  0.86159304009E+02  0.00000000000E+00 0. -1.
         13    1    3    3    0    0 -0.12793910651E+02  0.59752008345E+02  0.21582264349E+02  0.64805715685E+02  0.00000000000E+00 0.  1.
         21    1    1    2  502  501  0.19375117396E+02  0.53663140580E+02  0.13637776668E+03  0.14783106263E+03  0.00000000000E+00 0.  1.
<scales pt_clust_5="13000.00000" pt_clust_6="13000.00000" pt_clust_7="13000.00000" pt_clust_8="13000.00000" pt_clust_9="57.05373"></scales>
<clustering>
<clus scale="   57.054">  1  9  2 -1</clus>
<clus scale="   89.773">  7  8 -1 -1</clus>
<clus scale="   91.585">  5  6 -1 -1</clus>
<clus scale="  146.315">  2  7  1 -1</clus>
<clus scale="   57.054">  1  5  2 -1</clus>
</clustering>
</event>
<event>
 9    1  0.9000149E-006  0.1864146E+03  0.7546771E-02  0.1161785E+00
         -1   -1    0    0    0  501 -0.00000000000E+00  0.00000000000E+00  0.10541229087E+03  0.10541229087E+03  0.00000000000E+00 0.  1.
          1   -1    0    0  502    0  0.00000000000E+00 -0.00000000000E+00 -0.43807292819E+03  0.43807292819E+03  0.00000000000E+00 0. -1.
         23    2    1    2    0    0 -0.14981474123E+03  0.72031318397E+02 -0.12322299332E+03  0.22493841163E+03  0.88206663165E+02 0.  0.
         23    2    1    2    0    0  0.16326004942E+03 -0.25513394782E+02 -0.14057971356E+03  0.23436778324E+03  0.88661293171E+02 0.  0.
        -11    1    4    4    0    0  0.15138615425E+03 -0.66557567825E+01 -0.14705975889E+03  0.21116022230E+03  0.00000000000E+00 0. -1.
         11    1    4    4    0    0  0.11873895166E+02 -0.18857637999E+02  0.64800453274E+01  0.23207560939E+02  0.00000000000E+00 0.  1.
        -13    1    3    3    0    0 -0.12641811960E+03  0.18250125030E+02 -0.69552365454E+02  0.14543775152E+03  0.00000000000E+00 0.  1.
         13    1    3    3    0    0 -0.23396621631E+02  0.53781193367E+02 -0.53670627861E+02  0.79500660115E+02  0.00000000000E+00 0. -1.
         21    1    1    2  502  501 -0.13445308188E+02 -0.46517923615E+02 -0.68857930432E+02  0.84179024188E+02  0.00000000000E+00 0. -1.
<scales pt_clust_5="13000.00000" pt_clust_6="13000.00000" pt_clust_7="13000.00000" pt_clust_8="13000.00000" pt_clust_9="48.42204"></scales>
<clustering>
<clus scale="   48.422">  2  9  1 -1</clus>
<clus scale="   88.207">  7  8 -1 -1</clus>
<clus scale="   88.661">  5  6 -1 -1</clus>
<clus scale="  186.199">  1  7  2 -1</clus>
<clus scale="   48.422">  2  5  1 -1</clus>
</clustering>
</event>
<event>
 9    1  0.9000149E-006  0.9884154E+02  0.7546771E-02  0.1285480E+00
          1   -1    0    0  502    0  0.00000000000E+00  0.00000000000E+00  0.10644014359E+03  0.10644014359E+03  0.00000000000E+00 0. -1.
         -1   -1    0    0    0  501 -0.00000000000E+00 -0.00000000000E+00 -0.17382305958E+03  0.17382305958E+03  0.00000000000E+00 0.  1.
         23    2    1    2    0    0  0.18409491431E+02 -0.82263318874E+01 -0.11159949754E+03  0.14873926358E+03  0.96241045143E+02 0.  0.
         23    2    1    2    0    0 -0.16469224927E+02  0.31723417000E+02  0.24800291445E+02  0.10098101955E+03  0.91129036519E+02 0.  0.
        -11    1    4    4    0    0 -0.89448282845E+01  0.59511388624E+02 -0.39311685508E+01  0.60308120641E+02  0.00000000000E+00 0. -1.
         11    1    4    4    0    0 -0.75243966426E+01 -0.27787971624E+02  0.28731459996E+02  0.40672898905E+02  0.00000000000E+00 0.  1.
        -13    1    3    3    0    0  0.21483123230E+02 -0.49687581530E+02 -0.79657922273E+02  0.96310772621E+02  0.00000000000E+00 0.  1.
         13    1    3    3    0    0 -0.30736317988E+01  0.41461249643E+02 -0.31941575264E+02  0.52428490964E+02  0.00000000000E+00 0. -1.
         21    1    1    2  502  501 -0.19402665042E+01 -0.23497085113E+02  0.19416290100E+02  0.30542920033E+02  0.00000000000E+00 0. -1.
<scales pt_clust_5="13000.00000" pt_clust_6="13000.00000" pt_clust_7="13000.00000" pt_clust_8="13000.00000" pt_clust_9="23.57706"></scales>
<clustering>
<clus scale="   23.577">  1  9  2 -1</clus>
<clus scale="   91.129">  5  6 -1 -1</clus>
<clus scale="   93.871">  1  5  2 -1</clus>
<clus scale="   96.241">  7  8 -1 -1</clus>
<clus scale="   23.577">  1  5  2 -1</clus>
</clustering>
</event>
<event>
 9    1  0.9000149E-006  0.1164616E+03  0.7546771E-02  0.1253791E+00
         -2   -1    0    0    0  501 -0.00000000000E+00  0.00000000000E+00  0.13175179156E+03  0.13175179156E+03  0.00000000000E+00 0.  1.
          2   -1    0    0  502    0  0.00000000000E+00 -0.00000000000E+00 -0.26554295882E+03  0.26554295882E+03  0.00000000000E+00 0. -1.
         23    2    1    2    0    0  0.47912207465E+02  0.11766428823E+01  0.75874567320E+02  0.13745897021E+03  0.10412038423E+03 0.  0.
         23    2    1    2    0    0 -0.73864844298E+02  0.11118019779E+02 -0.13452668021E+03  0.17939589218E+03  0.92227072261E+02 0.  0.
        -11    1    4    4    0    0 -0.58833371052E+02 -0.23297692816E+02 -0.12583284152E+03  0.14084761995E+03  0.00000000000E+00 0. -1.
         11    1    4    4    0    0 -0.15031473247E+02  0.34415712595E+02 -0.86938386882E+01  0.38548272237E+02  0.00000000000E+00 0.  1.
        -11    1    3    3    0    0  0.25335917406E+02 -0.26969104437E+02 -0.14812321014E+02  0.39857824311E+02  0.00000000000E+00 0. -1.
         11    1    3    3    0    0  0.22576290059E+02  0.28145747319E+02  0.90686888334E+02  0.97601145899E+02  0.00000000000E+00 0.  1.
         21    1    1    2  502  501  0.25952636833E+02 -0.12294662661E+02 -0.75139054373E+02  0.80439887995E+02  0.00000000000E+00 0. -1.
<scales pt_clust_5="13000.00000" pt_clust_6="13000.00000" pt_clust_7="13000.00000" pt_clust_8="13000.00000" pt_clust_9="28.71756"></scales>
<clustering>
<clus scale="   28.718">  2  9  1 -1</clus>
<clus scale="   92.227">  5  6 -1 -1</clus>
<clus scale="  104.120">  7  8 -1 -1</clus>
<clus scale="  105.963">  2  5  1 -1</clus>
<clus scale="   28.718">  2  5  1 -1</clus>
</clustering>
</event>
<event>
 9    1  0.9000149E-006  0.9066933E+02  0.7546771E-02  0.1302429E+00
          4   -1    0    0  502    0  0.00000000000E+00  0.00000000000E+00  0.48596007874E+02  0.48596007874E+02  0.00000000000E+00 0. -1.
         -4   -1    0    0    0  501 -0.00000000000E+00 -0.00000000000E+00 -0.25723068926E+03  0.25723068926E+03  0.00000000000E+00 0.  1.
         23    2    1    2    0    0 -0.19013531625E+02 -0.11030907356E+02 -0.98752664212E+02  0.13540662024E+03  0.89998160065E+02 0.  0.
         23    2    1    2    0    0  0.41108223741E-01 -0.22047314606E+02 -0.88255109028E+02  0.12658122684E+03  0.88021343705E+02 0.  0.
        -11    1    4    4    0    0  0.16832257729E+02 -0.37289189041E+02 -0.61130947088E+01  0.41366392719E+02  0.00000000000E+00 0. -1.
         11    1    4    4    0    0 -0.16791149506E+02  0.15241874435E+02 -0.82142014319E+02  0.85214834122E+02  0.00000000000E+00 0.  1.
        -11    1    3    3    0    0 -0.51271183134E+02 -0.16374412497E+02 -0.36322037090E+02  0.64931856457E+02  0.00000000000E+00 0. -1.
         11    1    3    3    0    0  0.32257651509E+02  0.53435051407E+01 -0.62430627121E+02  0.70474763787E+02  0.00000000000E+00 0.  1.
         21    1    1    2  502  501  0.18972423402E+02  0.33078221962E+02 -0.21626908151E+02  0.43838850054E+02  0.00000000000E+00 0.  1.
<scales pt_clust_5="13000.00000" pt_clust_6="13000.00000" pt_clust_7="13000.00000" pt_clust_8="13000.00000" pt_clust_9="38.13295"></scales>
<clustering>
<clus scale="   38.133">  1  9  2 -1</clus>
<clus scale="   88.021">  5  6 -1 -1</clus>
<clus scale="   88.707">  1  5  2 -1</clus>
<clus scale="   89.998">  7  8 -1 -1</clus>
<clus scale="   38.133">  1  5  2 -1</clus>
</clustering>
</event>
<event>
 9    1  0.9000149E-006  0.1135543E+03  0.7546771E-02  0.1258382E+00
          3   -1    0    0  502    0  0.00000000000E+00  0.00000000000E+00  0.68510601311E+02  0.68510601311E+02  0.00000000000E+00 0. -1.
         -3   -1    0    0    0  501 -0.00000000000E+00 -0.00000000000E+00 -0.27498537668E+03  0.27498537668E+03  0.00000000000E+00 0.  1.
         23    2    1    2    0    0 -0.29903356704E+02 -0.33014782052E+02 -0.12784453361E+03  0.16957645882E+03  0.10211642392E+03 0.  0.
         23    2    1    2    0    0  0.56466725455E+02  0.19258905067E+02 -0.90181589190E+02  0.14185286455E+03  0.91815682997E+02 0.  0.
        -11    1    4    4    0    0 -0.20495231534E+01  0.41330830429E+02 -0.14900041166E+02  0.43982375059E+02  0.00000000000E+00 0.  1.
         11    1    4    4    0    0  0.58516248609E+02 -0.22071925361E+02 -0.75281548024E+02  0.97870489491E+02  0.00000000000E+00 0. -1.
        -11    1    3    3    0    0  0.19864569659E+02 -0.31350807034E+02 -0.11094959011E+03  0.11699267402E+03  0.00000000000E+00 0.  1.
         11    1    3    3    0    0 -0.49767926363E+02 -0.16639750184E+01 -0.16894943505E+02  0.52583784795E+02  0.00000000000E+00 0. -1.
         21    1    1    2  502  501 -0.26563368751E+02  0.13755876985E+02  0.11551347437E+02  0.32066654622E+02  0.00000000000E+00 0.  1.
<scales pt_clust_5="13000.00000" pt_clust_6="13000.00000" pt_clust_7="13000.00000" pt_clust_8="13000.00000" pt_clust_9="29.91382"></scales>
<clustering>
<clus scale="   29.914">  1  9  2 -1</clus>
<clus scale="   91.816">  5  6 -1 -1</clus>
<clus scale="  102.116">  7  8 -1 -1</clus>
<clus scale="  104.388">  1  5  2 -1</clus>
<clus scale="   29.914">  1  5  2 -1</clus>
</clustering>
</event>
<event>
 9    1  0.9000149E-006  0.1461496E+03  0.7546771E-02  0.1205673E+00
          3   -1    0    0  502    0  0.00000000000E+00  0.00000000000E+00  0.26600448828E+02  0.26600448828E+02  0.00000000000E+00 0. -1.
         -3   -1    0    0    0  501 -0.00000000000E+00 -0.00000000000E+00 -0.12341614707E+04  0.12341614707E+04  0.00000000000E+00 0.  1.
         23    2    1    2    0    0 -0.78990590065E+02  0.66921470130E+02 -0.58506751180E+03  0.60132624718E+03  0.92581130377E+02 0.  0.
         23    2    1    2    0    0  0.97661456212E+02 -0.76699653031E+02 -0.61932284054E+03  0.63812212620E+03  0.90655779355E+02 0.  0.
        -11    1    4    4    0    0  0.32828455129E+02 -0.80074459707E+02 -0.29828404345E+03  0.31058492742E+03  0.00000000000E+00 0. -1.
         11    1    4    4    0    0  0.64833001083E+02  0.33748066758E+01 -0.32103879709E+03  0.32753719879E+03  0.00000000000E+00 0.  1.
        -13    1    3    3    0    0  0.11841620442E+02  0.43044190518E+02 -0.16978926577E+03  0.17556030611E+03  0.00000000000E+00 0.  1.
         13    1    3    3    0    0 -0.90832210507E+02  0.23877279612E+02 -0.41527824603E+03  0.42576594107E+03  0.00000000000E+00 0. -1.
         21    1    1    2  502  501 -0.18670866147E+02  0.97781829013E+01 -0.31706695194E+01  0.21313546132E+02  0.00000000000E+00 0.  1.
<scales pt_clust_5="13000.00000" pt_clust_6="13000.00000" pt_clust_7="13000.00000" pt_clust_8="13000.00000" pt_clust_9="21.07639"></scales>
<clustering>
<clus scale="   21.076">  1  9  2 -1</clus>
<clus scale="   90.656">  5  6 -1 -1</clus>
<clus scale="   92.581">  7  8 -1 -1</clus>
<clus scale="  144.938">  1  5  2 -1</clus>
<clus scale="   21.076">  1  5  2 -1</clus>
</clustering>
</event>
<event>
 9    1  0.9000149E-006  0.9642149E+02  0.7546771E-02  0.1291151E+00
         -1   -1    0    0    0  501 -0.00000000000E+00  0.00000000000E+00  0.12627266668E+03  0.12627266668E+03  0.00000000000E+00 0.  1.
          1   -1    0    0  502    0  0.00000000000E+00 -0.00000000000E+00 -0.26086226201E+03  0.26086226201E+03  0.00000000000E+00 0. -1.
         23    2    1    2    0    0  0.30430014536E+02 -0.90360164149E+01  0.31192129255E+02  0.99939817114E+02  0.89483980354E+02 0.  0.
         23    2    1    2    0    0  0.61925388078E+00 -0.39401701191E+01  0.20956585108E+02  0.97448873689E+02  0.95085204464E+02 0.  0.
        -11    1    4    4    0    0 -0.86579140545E+01  0.30154519071E+02 -0.24548813694E+02  0.39835897755E+02  0.00000000000E+00 0. -1.
         11    1    4    4    0    0  0.92771679353E+01 -0.34094689190E+02  0.45505398802E+02  0.57612975934E+02  0.00000000000E+00 0.  1.
        -13    1    3    3    0    0  0.76910775752E+01 -0.45587467472E+02  0.33085604293E+02  0.56850919748E+02  0.00000000000E+00 0.  1.
         13    1    3    3    0    0  0.22738936961E+02  0.36551451057E+02 -0.18934750383E+01  0.43088897366E+02  0.00000000000E+00 0. -1.
         21    1    1    2  502  501 -0.31049268417E+02  0.12976186534E+02 -0.18673830969E+03  0.18974623789E+03  0.00000000000E+00 0. -1.
<scales pt_clust_5="13000.00000" pt_clust_6="13000.00000" pt_clust_7="13000.00000" pt_clust_8="13000.00000" pt_clust_9="33.65172"></scales>
<clustering>
<clus scale="   33.652">  2  9  1 -1</clus>
<clus scale="   89.484">  7  8 -1 -1</clus>
<clus scale="   90.903">  1  7  2 -1</clus>
<clus scale="   95.085">  5  6 -1 -1</clus>
<clus scale="   33.652">  2  5  1 -1</clus>
</clustering>
</event>
<event>
 9    1  0.9000149E-006  0.3852794E+03  0.7546771E-02  0.1049011E+00
         -2   -1    0    0    0  501 -0.00000000000E+00  0.00000000000E+00  0.33271534093E+03  0.33271534093E+03  0.00000000000E+00 0.  1.
          2   -1    0    0  502    0  0.00000000000E+00 -0.00000000000E+00 -0.67433698362E+03  0.67433698362E+03  0.00000000000E+00 0. -1.
         23    2    1    2    0    0 -0.35326618223E+03 -0.96694490568E+02  0.74675433432E+02  0.38474637896E+03  0.91140198312E+02 0.  0.
         23    2    1    2    0    0  0.37679699178E+03  0.12225349389E+03 -0.31184530564E+03  0.51222809130E+03  0.90599299584E+02 0.  0.
        -11    1    3    3    0    0 -0.40560002817E+02  0.17960170431E+02  0.96121082922E+01  0.45388040013E+02  0.00000000000E+00 0. -1.
         11    1    3    3    0    0 -0.31270617941E+03 -0.11465466100E+03  0.65063325139E+02  0.33935833894E+03  0.00000000000E+00 0.  1.
        -11    1    4    4    0    0  0.30403633422E+03  0.12196566890E+03 -0.28644654797E+03  0.43516128247E+03  0.00000000000E+00 0. -1.
         11    1    4    4    0    0  0.72760657559E+02  0.28782498378E+00 -0.25398757664E+02  0.77066808825E+02  0.00000000000E+00 0.  1.
         21    1    1    2  502  501 -0.23530809547E+02 -0.25559003318E+02 -0.10445177048E+03  0.11007785429E+03  0.00000000000E+00 0. -1.
<scales pt_clust_5="13000.00000" pt_clust_6="13000.00000" pt_clust_7="13000.00000" pt_clust_8="13000.00000" pt_clust_9="34.74135"></scales>
<clustering>
<clus scale="   34.741">  2  9  1 -1</clus>
<clus scale="   90.599">  7  8 -1 -1</clus>
<clus scale="   91.140">  5  6 -1 -1</clus>
<clus scale="  385.152">  2  7  1 -1</clus>
<clus scale="   34.741">  2  5  1 -1</clus>
</clustering>
</event>
<event>
 9    1  0.9000149E-006  0.1258037E+03  0.7546771E-02  0.1237351E+00
          2   -1    0    0  502    0  0.00000000000E+00  0.00000000000E+00  0.48202452535E+03  0.48202452535E+03  0.00000000000E+00 0. -1.
         -2   -1    0    0    0  501 -0.00000000000E+00 -0.00000000000E+00 -0.17214895323E+03  0.17214895323E+03  0.00000000000E+00 0.  1.
         23    2    1    2    0    0  0.24888084300E+02 -0.84491549779E+02 -0.12457307343E+03  0.17957991461E+03  0.94721995243E+02 0.  0.
         23    2    1    2    0    0  0.38213197957E+02  0.58051401925E+02  0.16991021514E+03  0.20135111777E+03  0.82719874604E+02 0.  0.
        -11    1    3    3    0    0 -0.23003072191E+02 -0.12219248396E+02 -0.75695699432E+02  0.80051797444E+02  0.00000000000E+00 0. -1.
         11    1    3    3    0    0  0.47891156492E+02 -0.72272301383E+02 -0.48877373998E+02  0.99528117164E+02  0.00000000000E+00 0.  1.
        -11    1    4    4    0    0  0.33716112825E+02 -0.12982309475E+02  0.68678490662E+02  0.77601879506E+02  0.00000000000E+00 0.  1.
         11    1    4    4    0    0  0.44970851313E+01  0.71033711399E+02  0.10123172448E+03  0.12374923827E+03  0.00000000000E+00 0. -1.
         21    1    1    2  502  501 -0.63101282257E+02  0.26440147854E+02  0.26453843041E+03  0.27324244620E+03  0.00000000000E+00 0. -1.
<scales pt_clust_5="13000.00000" pt_clust_6="13000.00000" pt_clust_7="13000.00000" pt_clust_8="13000.00000" pt_clust_9="68.41676"></scales>
<clustering>
<clus scale="   68.417">  1  9  2 -1</clus>
<clus scale="   82.720">  7  8 -1 -1</clus>
<clus scale="   94.722">  5  6 -1 -1</clus>
<clus scale="  117.034">  1  7  2 -1</clus>
<clus scale="   68.417">  1  5  2 -1</clus>
</clustering>
</event>
<event>
 9    1  0.9000149E-006  0.1513093E+03  0.7546771E-02  0.1199470E+00
          1   -1    0    0  502    0  0.00000000000E+00  0.00000000000E+00  0.11895696284E+03  0.11895696284E+03  0.00000000000E+00 0. -1.
         -1   -1    0    0    0  501 -0.00000000000E+00 -0.00000000000E+00 -0.27473961979E+03  0.27473961979E+03  0.00000000000E+00 0.  1.
         23    2    1    2    0    0 -0.12091394407E+03 -0.40338745554E+02 -0.12723370249E+03  0.20284895703E+03  0.93337495451E+02 0.  0.
         23    2    1    2    0    0  0.95978377948E+02  0.52539009622E+02 -0.55419564630E+02  0.15221268555E+03  0.90139763321E+02 0.  0.
        -11    1    3    3    0    0 -0.10131085499E+03 -0.65084805233E+02 -0.75141573287E+02  0.14193722995E+03  0.00000000000E+00 0. -1.
         11    1    3    3    0    0 -0.19603089083E+02  0.24746059679E+02 -0.52092129204E+02  0.60911727083E+02  0.00000000000E+00 0.  1.
        -13    1    4    4    0    0  0.53055653324E+02  0.53998236245E+02 -0.73593617250E+02  0.10557808659E+03  0.00000000000E+00 0.  1.
         13    1    4    4    0    0  0.42922724624E+02 -0.14592266233E+01  0.18174052620E+02  0.46634598960E+02  0.00000000000E+00 0. -1.
         21    1    1    2  502  501  0.24935566122E+02 -0.12200264067E+02  0.26870610170E+02  0.38634940042E+02  0.00000000000E+00 0. -1.
<scales pt_clust_5="13000.00000" pt_clust_6="13000.00000" pt_clust_7="13000.00000" pt_clust_8="13000.00000" pt_clust_9="27.76020"></scales>
<clustering>
<clus scale="   27.760">  1  9  2 -1</clus>
<clus scale="   90.140">  7  8 -1 -1</clus>
<clus scale="   93.337">  5  6 -1 -1</clus>
<clus scale="  149.358">  1  7  2 -1</clus>
<clus scale="   27.760">  1  5  2 -1</clus>
</clustering>
</event>
<event>
 9    1  0.9000149E-006  0.9823535E+02  0.7546771E-02  0.1284716E+00
         -1   -1    0    0    0  501 -0.00000000000E+00  0.00000000000E+00  0.43932827137E+03  0.43932827137E+03  0.00000000000E+00 0.  1.
          1   -1    0    0  502    0  0.00000000000E+00 -0.00000000000E+00 -0.45297204891E+02  0.45297204891E+02  0.00000000000E+00 0. -1.
         23    2    1    2    0    0 -0.28843527032E+02 -0.20590289954E+02  0.28527146235E+03  0.30106667345E+03  0.89473043645E+02 0.  0.
         23    2    1    2    0    0  0.26811324328E+02  0.58933949128E+02  0.77238460405E+02  0.13388035126E+03  0.88125542356E+02 0.  0.
        -11    1    4    4    0    0 -0.27056122851E+02  0.38062069797E+01  0.41046784659E+01  0.27629140063E+02  0.00000000000E+00 0.  1.
         11    1    4    4    0    0  0.53867447179E+02  0.55127742149E+02  0.73133781939E+02  0.10625121120E+03  0.00000000000E+00 0. -1.
        -11    1    3    3    0    0  0.16259823831E+02  0.26396665997E+02  0.85631710358E+02  0.91071157155E+02  0.00000000000E+00 0. -1.
         11    1    3    3    0    0 -0.45103350863E+02 -0.46986955951E+02  0.19963975199E+03  0.20999551629E+03  0.00000000000E+00 0.  1.
         21    1    1    2  502  501  0.20322027038E+01 -0.38343659174E+02  0.31521143722E+02  0.49678451549E+02  0.00000000000E+00 0. -1.
<scales pt_clust_5="13000.00000" pt_clust_6="13000.00000" pt_clust_7="13000.00000" pt_clust_8="13000.00000" pt_clust_9="38.39747"></scales>
<clustering>
<clus scale="   38.397">  2  9  1 -1</clus>
<clus scale="   88.126">  5  6 -1 -1</clus>
<clus scale="   89.473">  7  8 -1 -1</clus>
<clus scale="   97.010">  2  5  1 -1</clus>
<clus scale="   38.397">  2  5  1 -1</clus>
</clustering>
</event>
<event>
 9    1  0.9000149E-006  0.1317985E+03  0.7546771E-02  0.1239136E+00
         -3   -1    0    0    0  501 -0.00000000000E+00  0.00000000000E+00  0.51691405517E+03  0.51691405517E+03  0.00000000000E+00 0.  1.
          3   -1    0    0  502    0  0.00000000000E+00 -0.00000000000E+00 -0.13045648390E+03  0.13045648390E+03  0.00000000000E+00 0. -1.
         23    2    1    2    0    0 -0.76350471917E+02  0.39085261039E+02  0.41239597889E+03  0.43213917145E+03  0.96523405975E+02 0.  0.
         23    2    1    2    0    0 -0.30354329981E+02 -0.29636630004E+01 -0.29626392578E+02  0.10251807726E+03  0.93284856114E+02 0.  0.
        -11    1    3    3    0    0 -0.93098928763E+02  0.51593585027E+02  0.36771334975E+03  0.38280858942E+03  0.00000000000E+00 0.  1.
         11    1    3    3    0    0  0.16748456846E+02 -0.12508323988E+02  0.44682629143E+02  0.49330582025E+02  0.00000000000E+00 0. -1.
        -11    1    4    4    0    0  0.27840792582E+02 -0.20106209930E+02 -0.23347002610E+02  0.41526520926E+02  0.00000000000E+00 0. -1.
         11    1    4    4    0    0 -0.58195122562E+02  0.17142546930E+02 -0.62793899681E+01  0.60991556331E+02  0.00000000000E+00 0.  1.
         21    1    1    2  502  501  0.10670480190E+03 -0.36121598038E+02  0.36879849507E+01  0.11271329037E+03  0.00000000000E+00 0. -1.
<scales pt_clust_5="13000.00000" pt_clust_6="13000.00000" pt_clust_7="13000.00000" pt_clust_8="13000.00000" pt_clust_9="89.74448"></scales>
<clustering>
<clus scale="   93.285">  7  8 -1 -1</clus>
<clus scale="   96.523">  5  6 -1 -1</clus>
<clus scale="   98.144">  2  7  1 -1</clus>
<clus scale="   89.744">  2  9  1 -1</clus>
<clus scale="   98.144">  2  5  1 -1</clus>
</clustering>
</event>
<event>
 9    1  0.9000149E-006  0.1010425E+03  0.7546771E-02  0.1286608E+00
          1   -1    0    0  502    0  0.00000000000E+00  0.00000000000E+00  0.73791119829E+03  0.73791119829E+03  0.00000000000E+00 0. -1.
         -1   -1    0    0    0  501 -0.00000000000E+00 -0.00000000000E+00 -0.32493080289E+02  0.32493080289E+02  0.00000000000E+00 0.  1.
         23    2    1    2    0    0  0.36231754437E+02 -0.25132533747E+02  0.14350354238E+03  0.17610552631E+03  0.92062508318E+02 0.  0.
         23    2    1    2    0    0 -0.53044624354E+02 -0.59229358965E+02  0.33203408646E+03  0.34885091498E+03  0.71613386824E+02 0.  0.
        -11    1    3    3    0    0  0.47261291561E+02 -0.53517841571E+02  0.95102697382E+02  0.11892145347E+03  0.00000000000E+00 0.  1.
         11    1    3    3    0    0 -0.11029537124E+02  0.28385307824E+02  0.48400844998E+02  0.57184072835E+02  0.00000000000E+00 0. -1.
        -13    1    4    4    0    0  0.41382510139E+01 -0.39623809708E+02  0.76362913895E+02  0.86130517447E+02  0.00000000000E+00 0.  1.
         13    1    4    4    0    0 -0.57182875368E+02 -0.19605549256E+02  0.25567117257E+03  0.26272039753E+03  0.00000000000E+00 0. -1.
         21    1    1    2  502  501  0.16812869917E+02  0.84361892712E+02  0.22988048916E+03  0.24544783729E+03  0.00000000000E+00 0. -1.
<scales pt_clust_5="13000.00000" pt_clust_6="13000.00000" pt_clust_7="13000.00000" pt_clust_8="13000.00000" pt_clust_9="86.02094"></scales>
<clustering>
<clus scale="   71.613">  7  8 -1 -1</clus>
<clus scale="   86.021">  1  9  2 -1</clus>
<clus scale="   86.021">  1  7  2 -1</clus>
<clus scale="   92.063">  5  6 -1 -1</clus>
<clus scale="   86.021">  1  5  2 -1</clus>
</clustering>
</event>
<event>
 9    1  0.9000149E-006  0.1047669E+03  0.7546771E-02  0.1276994E+00
          2   -1    0    0  502    0  0.00000000000E+00  0.00000000000E+00  0.32821880614E+03  0.32821880614E+03  0.00000000000E+00 0. -1.
         -2   -1    0    0    0  501 -0.00000000000E+00 -0.00000000000E+00 -0.64546760614E+02  0.64546760614E+02  0.00000000000E+00 0.  1.
         23    2    1    2    0    0  0.15296764470E+02  0.38792649348E-01  0.11277363275E+02  0.10489261978E+03  0.10315662971E+03 0.  0.
         23    2    1    2    0    0 -0.17294668802E+02 -0.35802147363E+02  0.15375945161E+03  0.18293526125E+03  0.90787893044E+02 0.  0.
        -13    1    4    4    0    0 -0.41803149164E+02 -0.28133111775E+02  0.34804555158E+02  0.61239956874E+02  0.00000000000E+00 0.  1.
         13    1    4    4    0    0  0.24508480361E+02 -0.76690355876E+01  0.11895489646E+03  0.12169530438E+03  0.00000000000E+00 0. -1.
        -13    1    3    3    0    0 -0.12148227568E+02  0.47611786502E+02  0.18845076272E+01  0.49173295760E+02  0.00000000000E+00 0.  1.
         13    1    3    3    0    0  0.27444992037E+02 -0.47572993852E+02  0.93928556475E+01  0.55719324020E+02  0.00000000000E+00 0. -1.
         21    1    1    2  502  501  0.19979043328E+01  0.35763354714E+02  0.98635230639E+02  0.10493768572E+03  0.00000000000E+00 0. -1.
<scales pt_clust_5="13000.00000" pt_clust_6="13000.00000" pt_clust_7="13000.00000" pt_clust_8="13000.00000" pt_clust_9="35.81912"></scales>
<clustering>
<clus scale="   35.819">  1  9  2 -1</clus>
<clus scale="   90.788">  5  6 -1 -1</clus>
<clus scale="   92.613">  1  5  2 -1</clus>
<clus scale="  103.157">  7  8 -1 -1</clus>
<clus scale="   35.819">  1  5  2 -1</clus>
</clustering>
</event>
<event>
 9    1  0.9000149E-006  0.1533001E+03  0.7546771E-02  0.1198068E+00
          2   -1    0    0  502    0  0.00000000000E+00  0.00000000000E+00  0.12787576698E+03  0.12787576698E+03  0.00000000000E+00 0. -1.
         -2   -1    0    0    0  501 -0.00000000000E+00 -0.00000000000E+00 -0.23662493723E+03  0.23662493723E+03  0.00000000000E+00 0.  1.
         23    2    1    2    0    0  0.97437843273E+02 -0.64240010910E+02 -0.96285407921E+02  0.17706637730E+03  0.91982117220E+02 0.  0.
         23    2    1    2    0    0 -0.10663916152E+03  0.45875809876E+02 -0.34637286153E+02  0.15720895187E+03  0.10019187719E+03 0.  0.
        -11    1    3    3    0    0  0.43213515339E+02 -0.79275924856E+02 -0.73242555022E+02  0.11626070719E+03  0.00000000000E+00 0. -1.
         11    1    3    3    0    0  0.54224327934E+02  0.15035913945E+02 -0.23042852899E+02  0.60805670113E+02  0.00000000000E+00 0.  1.
        -11    1    4    4    0    0 -0.28038314583E+02 -0.31401509604E+02 -0.15599234024E+01  0.42126419870E+02  0.00000000000E+00 0. -1.
         11    1    4    4    0    0 -0.78600846938E+02  0.77277319480E+02 -0.33077362750E+02  0.11508253200E+03  0.00000000000E+00 0.  1.
         21    1    1    2  502  501  0.92013182478E+01  0.18364201035E+02  0.22173523831E+02  0.30225375039E+02  0.00000000000E+00 0.  1.
<scales pt_clust_5="13000.00000" pt_clust_6="13000.00000" pt_clust_7="13000.00000" pt_clust_8="13000.00000" pt_clust_9="20.54040"></scales>
<clustering>
<clus scale="   20.540">  1  9  2 -1</clus>
<clus scale="   91.982">  5  6 -1 -1</clus>
<clus scale="  100.192">  7  8 -1 -1</clus>
<clus scale="  148.065">  2  5  1 -1</clus>
<clus scale="   20.540">  1  5  2 -1</clus>
</clustering>
</event>
<event>
 9    1  0.9000149E-006  0.1158776E+03  0.7546771E-02  0.1250444E+00
          2   -1    0    0  502    0  0.00000000000E+00  0.00000000000E+00  0.70267555742E+02  0.70267555742E+02  0.00000000000E+00 0. -1.
         -2   -1    0    0    0  501 -0.00000000000E+00 -0.00000000000E+00 -0.60896775126E+03  0.60896775126E+03  0.00000000000E+00 0.  1.
         23    2    1    2    0    0  0.53847390324E+02  0.42513589511E+02 -0.51215520823E+03  0.52483030136E+03  0.91852823383E+02 0.  0.
         23    2    1    2    0    0 -0.77298837557E+02 -0.45168258143E+02 -0.15675877769E+02  0.12842125717E+03  0.90724882580E+02 0.  0.
        -11    1    3    3    0    0  0.60156836140E+00 -0.27010295167E+02 -0.12802506616E+03  0.13084469991E+03  0.00000000000E+00 0. -1.
         11    1    3    3    0    0  0.53245821963E+02  0.69523884678E+02 -0.38413014208E+03  0.39398560145E+03  0.00000000000E+00 0.  1.
        -13    1    4    4    0    0 -0.92463280762E+02 -0.18573028575E+02 -0.63759507586E+00  0.94312365081E+02  0.00000000000E+00 0. -1.
         13    1    4    4    0    0  0.15164443205E+02 -0.26595229568E+02 -0.15038282693E+02  0.34108892094E+02  0.00000000000E+00 0.  1.
         21    1    1    2  502  501  0.23451447233E+02  0.26546686319E+01 -0.10869109511E+02  0.25983748467E+02  0.00000000000E+00 0. -1.
<scales pt_clust_5="13000.00000" pt_clust_6="13000.00000" pt_clust_7="13000.00000" pt_clust_8="13000.00000" pt_clust_9="23.60122"></scales>
<clustering>
<clus scale="   23.601">  1  9  2 -1</clus>
<clus scale="   90.725">  7  8 -1 -1</clus>
<clus scale="   91.853">  5  6 -1 -1</clus>
<clus scale="  114.986">  1  7  2 -1</clus>
<clus scale="   23.601">  1  5  2 -1</clus>
</clustering>
</event>
<event>
 9    1  0.9000149E-006  0.1420601E+03  0.7546771E-02  0.1211540E+00
         -2   -1    0    0    0  501 -0.00000000000E+00  0.00000000000E+00  0.24570619534E+03  0.24570619534E+03  0.00000000000E+00 0.  1.
          2   -1    0    0  502    0  0.00000000000E+00 -0.00000000000E+00 -0.10540205530E+03  0.10540205530E+03  0.00000000000E+00 0. -1.
         23    2    1    2    0    0 -0.19578453650E+02  0.10941061238E+03  0.13145259093E+03  0.19456208095E+03  0.90667644353E+02 0.  0.
         23    2    1    2    0    0  0.34178621968E+01 -0.94826558895E+02  0.45511216589E+01  0.13435714068E+03  0.95012475443E+02 0.  0.
        -11    1    4    4    0    0  0.34192276093E+02 -0.85834577715E+02  0.25757307331E+02  0.95917283931E+02  0.00000000000E+00 0.  1.
         11    1    4    4    0    0 -0.30774413896E+02 -0.89919811802E+01 -0.21206185672E+02  0.38439856750E+02  0.00000000000E+00 0. -1.
        -11    1    3    3    0    0  0.25317015618E+02  0.16426910105E+02  0.65291737789E+02  0.71929171265E+02  0.00000000000E+00 0. -1.
         11    1    3    3    0    0 -0.44895469268E+02  0.92983702270E+02  0.66160853139E+02  0.12263290968E+03  0.00000000000E+00 0.  1.
         21    1    1    2  502  501  0.16160591453E+02 -0.14584053481E+02  0.43004274559E+01  0.22189029008E+02  0.00000000000E+00 0. -1.
<scales pt_clust_5="13000.00000" pt_clust_6="13000.00000" pt_clust_7="13000.00000" pt_clust_8="13000.00000" pt_clust_9="21.76831"></scales>
<clustering>
<clus scale="   21.768">  2  9  1 -1</clus>
<clus scale="   90.668">  7  8 -1 -1</clus>
<clus scale="   95.012">  5  6 -1 -1</clus>
<clus scale="  139.192">  1  7  2 -1</clus>
<clus scale="   21.768">  2  5  1 -1</clus>
</clustering>
</event>
<event>
 9    1  0.9000149E-006  0.1277056E+03  0.7546771E-02  0.1235438E+00
         -1   -1    0    0    0  501 -0.00000000000E+00  0.00000000000E+00  0.27398626015E+03  0.27398626015E+03  0.00000000000E+00 0.  1.
          1   -1    0    0  502    0  0.00000000000E+00 -0.00000000000E+00 -0.17842419950E+03  0.17842419950E+03  0.00000000000E+00 0. -1.
         23    2    1    2    0    0 -0.67254668865E+02  0.33455078589E+02  0.14982034036E+03  0.19222140357E+03  0.94130233384E+02 0.  0.
         23    2    1    2    0    0 -0.29288190586E+02  0.65139947315E+02 -0.20574901054E+02  0.11814655243E+03  0.91838284243E+02 0.  0.
        -11    1    4    4    0    0 -0.80306302868E+01 -0.23594072102E+02 -0.70786135244E+01  0.25909033764E+02  0.00000000000E+00 0. -1.
         11    1    4    4    0    0 -0.21257560299E+02  0.88734019417E+02 -0.13496287530E+02  0.92237518662E+02  0.00000000000E+00 0.  1.
        -13    1    3    3    0    0 -0.83576707325E+02  0.46354939948E+02  0.10047075746E+03  0.13866585582E+03  0.00000000000E+00 0.  1.
         13    1    3    3    0    0  0.16322038460E+02 -0.12899861360E+02  0.49349582904E+02  0.53555547755E+02  0.00000000000E+00 0. -1.
         21    1    1    2  502  501  0.96542859451E+02 -0.98595025904E+02 -0.33683378661E+02  0.14204250365E+03  0.00000000000E+00 0. -1.
<scales pt_clust_5="13000.00000" pt_clust_6="13000.00000" pt_clust_7="13000.00000" pt_clust_8="13000.00000" pt_clust_9="86.30305"></scales>
<clustering>
<clus scale="   91.838">  5  6 -1 -1</clus>
<clus scale="   94.130">  7  8 -1 -1</clus>
<clus scale="  116.341">  2  5  1 -1</clus>
<clus scale="   86.303">  2  9  1 -1</clus>
<clus scale="  116.341">  2  5  1 -1</clus>
</clustering>
</event>
<event>
 9    1  0.9000149E-006  0.1422048E+03  0.7546771E-02  0.1212436E+00
         -2   -1    0    0    0  501 -0.00000000000E+00  0.00000000000E+00  0.10324453680E+03  0.10324453680E+03  0.00000000000E+00 0.  1.
          2   -1    0    0  502    0  0.00000000000E+00 -0.00000000000E+00 -0.44730629814E+03  0.44730629814E+03  0.00000000000E+00 0. -1.
         23    2    1    2    0    0  0.13132971080E+02 -0.78950270908E+02 -0.25139326622E+02  0.13088508692E+03  0.10046541709E+03 0.  0.
         23    2    1    2    0    0 -0.18815847743E+01  0.14446740319E+03 -0.11755008682E+03  0.20760464640E+03  0.91691304665E+02 0.  0.
        -13    1    3    3    0    0 -0.14336963259E+02 -0.70561564510E+02  0.22344062632E+02  0.75390583208E+02  0.00000000000E+00 0.  1.
         13    1    3    3    0    0  0.27469934338E+02 -0.83887063977E+01 -0.47483389254E+02  0.55494503716E+02  0.00000000000E+00 0. -1.
        -13    1    4    4    0    0 -0.20203913108E+02  0.79427274570E+02 -0.11338640716E+03  0.13990485117E+03  0.00000000000E+00 0. -1.
         13    1    4    4    0    0  0.18322328334E+02  0.65040128618E+02 -0.41636796511E+01  0.67699795232E+02  0.00000000000E+00 0.  1.
         21    1    1    2  502  501 -0.11251386305E+02 -0.65517132280E+02 -0.20137234791E+03  0.21206110162E+03  0.00000000000E+00 0.  1.
<scales pt_clust_5="13000.00000" pt_clust_6="13000.00000" pt_clust_7="13000.00000" pt_clust_8="13000.00000" pt_clust_9="66.47622"></scales>
<clustering>
<clus scale="   66.476">  2  9  1 -1</clus>
<clus scale="   91.691">  7  8 -1 -1</clus>
<clus scale="  100.465">  5  6 -1 -1</clus>
<clus scale="  136.148">  2  7  1 -1</clus>
<clus scale="   66.476">  2  5  1 -1</clus>
</clustering>
</event>
<event>
 9    1  0.9000149E-006  0.9367717E+02  0.7546771E-02  0.1307072E+00
         -1   -1    0    0    0  501 -0.00000000000E+00  0.00000000000E+00  0.35200179050E+02  0.35200179050E+02  0.00000000000E+00 0.  1.
          1   -1    0    0  502    0  0.00000000000E+00 -0.00000000000E+00 -0.37464998171E+03  0.37464998171E+03  0.00000000000E+00 0. -1.
         23    2    1    2    0    0 -0.10754049970E+02 -0.64767830067E+01 -0.54125018107E+02  0.10767595101E+03  0.92233369950E+02 0.  0.
         23    2    1    2    0    0  0.13172930379E+02  0.27451377892E+02 -0.23155867252E+03  0.24441107777E+03  0.72043402704E+02 0.  0.
        -11    1    4    4    0    0 -0.18514871800E+02 -0.15974143550E+02 -0.73271492398E+02  0.77244322368E+02  0.00000000000E+00 0.  1.
         11    1    4    4    0    0  0.31687802179E+02  0.43425521443E+02 -0.15828718012E+03  0.16716675540E+03  0.00000000000E+00 0. -1.
        -11    1    3    3    0    0  0.12675408034E+02 -0.23928259656E+02  0.16179059960E+02  0.31543455108E+02  0.00000000000E+00 0.  1.
         11    1    3    3    0    0 -0.23429458004E+02  0.17451476649E+02 -0.70304078067E+02  0.76132495904E+02  0.00000000000E+00 0. -1.
         21    1    1    2  502  501 -0.24188804088E+01 -0.20974594886E+02 -0.53766112030E+02  0.57763131977E+02  0.00000000000E+00 0. -1.
<scales pt_clust_5="13000.00000" pt_clust_6="13000.00000" pt_clust_7="13000.00000" pt_clust_8="13000.00000" pt_clust_9="21.11361"></scales>
<clustering>
<clus scale="   21.114">  2  9  1 -1</clus>
<clus scale="   72.043">  5  6 -1 -1</clus>
<clus scale="   73.883">  2  5  1 -1</clus>
<clus scale="   92.233">  7  8 -1 -1</clus>
<clus scale="   21.114">  2  5  1 -1</clus>
</clustering>
</event>
<event>
 9    1  0.9000149E-006  0.9503321E+02  0.7546771E-02  0.1293442E+00
         -2   -1    0    0    0  501 -0.00000000000E+00  0.00000000000E+00  0.88442306920E+02  0.88442306920E+02  0.00000000000E+00 0.  1.
          2   -1    0    0  502    0  0.00000000000E+00 -0.00000000000E+00 -0.16524028527E+03  0.16524028527E+03  0.00000000000E+00 0. -1.
         23    2    1    2    0    0  0.19451724661E+02 -0.10454020631E+02 -0.13892980790E+02  0.94529239085E+02  0.90857613810E+02 0.  0.
         23    2    1    2    0    0  0.20497209086E+02 -0.89683521447E+01 -0.60290708685E+02  0.11465638267E+03  0.94923914860E+02 0.  0.
        -11    1    4    4    0    0 -0.27990122703E+02  0.25323521734E+02 -0.18480465793E+02  0.42026840684E+02  0.00000000000E+00 0. -1.
         11    1    4    4    0    0  0.48487331789E+02 -0.34291873879E+02 -0.41810242892E+02  0.72629541984E+02  0.00000000000E+00 0.  1.
        -13    1    3    3    0    0 -0.23845626957E+02 -0.25309826085E+02  0.17593260790E+02  0.38970810187E+02  0.00000000000E+00 0. -1.
         13    1    3    3    0    0  0.43297351618E+02  0.14855805454E+02 -0.31486241579E+02  0.55558428898E+02  0.00000000000E+00 0.  1.
         21    1    1    2  502  501 -0.39948933748E+02  0.19422372776E+02 -0.26142888768E+01  0.44496970438E+02  0.00000000000E+00 0. -1.
<scales pt_clust_5="13000.00000" pt_clust_6="13000.00000" pt_clust_7="13000.00000" pt_clust_8="13000.00000" pt_clust_9="44.42011"></scales>
<clustering>
<clus scale="   44.420">  1  9  2 -1</clus>
<clus scale="   90.858">  7  8 -1 -1</clus>
<clus scale="   90.972">  1  7  2 -1</clus>
<clus scale="   94.924">  5  6 -1 -1</clus>
<clus scale="   95.033">  2  5  1 -1</clus>
</clustering>
</event>
<event>
 9    1  0.9000149E-006  0.9769907E+02  0.7546771E-02  0.1292909E+00
         -2   -1    0    0    0  501 -0.00000000000E+00  0.00000000000E+00  0.32757153249E+03  0.32757153249E+03  0.00000000000E+00 0.  1.
          2   -1    0    0  502    0  0.00000000000E+00 -0.00000000000E+00 -0.54050703443E+02  0.54050703443E+02  0.00000000000E+00 0. -1.
         23    2    1    2    0    0 -0.15405476045E+02  0.35542630250E+02  0.24732881712E+03  0.26172225839E+03  0.76330790012E+02 0.  0.
         23    2    1    2    0    0 -0.50559150787E+01 -0.28072676578E+02  0.23822351793E+02  0.97989157753E+02  0.90668258750E+02 0.  0.
        -13    1    4    4    0    0  0.31189209624E+02  0.13647675645E+02  0.25756157956E+02  0.42689641836E+02  0.00000000000E+00 0.  1.
         13    1    4    4    0    0 -0.36245124702E+02 -0.41720352224E+02 -0.19338061630E+01  0.55299515917E+02  0.00000000000E+00 0. -1.
        -13    1    3    3    0    0  0.12786384307E+02  0.50631276977E+02  0.17534643386E+03  0.18295734393E+03  0.00000000000E+00 0.  1.
         13    1    3    3    0    0 -0.28191860352E+02 -0.15088646727E+02  0.71982383262E+02  0.78764914462E+02  0.00000000000E+00 0. -1.
         21    1    1    2  502  501  0.20461391123E+02 -0.74699536715E+01  0.23696601357E+01  0.21910819786E+02  0.00000000000E+00 0.  1.
<scales pt_clust_5="13000.00000" pt_clust_6="13000.00000" pt_clust_7="13000.00000" pt_clust_8="13000.00000" pt_clust_9="21.78230"></scales>
<clustering>
<clus scale="   21.782">  2  9  1 -1</clus>
<clus scale="   76.331">  7  8 -1 -1</clus>
<clus scale="   84.562">  1  7  2 -1</clus>
<clus scale="   90.668">  5  6 -1 -1</clus>
<clus scale="   21.782">  2  5  1 -1</clus>
</clustering>
</event>
<event>
 9    1  0.9000149E-006  0.2781075E+03  0.7546771E-02  0.1096785E+00
          1   -1    0    0  502    0  0.00000000000E+00  0.00000000000E+00  0.77696976284E+02  0.77696976284E+02  0.00000000000E+00 0. -1.
         -1   -1    0    0    0  501 -0.00000000000E+00 -0.00000000000E+00 -0.13160342410E+04  0.13160342410E+04  0.00000000000E+00 0.  1.
         23    2    1    2    0    0 -0.15334428191E+02  0.27041388166E+03 -0.90191268481E+03  0.94625090598E+03  0.92657832765E+02 0.  0.
         23    2    1    2    0    0  0.14406242043E+02 -0.24409628847E+03 -0.32927047994E+03  0.42019188176E+03  0.91387256661E+02 0.  0.
        -13    1    3    3    0    0 -0.37184301852E+02  0.25890871987E+03 -0.82409264211E+03  0.86460689351E+03  0.00000000000E+00 0.  1.
         13    1    3    3    0    0  0.21849873661E+02  0.11505161792E+02 -0.77820042701E+02  0.81644012474E+02  0.00000000000E+00 0. -1.
        -13    1    4    4    0    0 -0.15542311732E+02 -0.48590094957E+02 -0.12898302792E+03  0.13870537939E+03  0.00000000000E+00 0.  1.
         13    1    4    4    0    0  0.29948553775E+02 -0.19550619351E+03 -0.20028745202E+03  0.28148650236E+03  0.00000000000E+00 0. -1.
         21    1    1    2  502  501  0.92818614803E+00 -0.26317593189E+02 -0.71540999747E+01  0.27288429549E+02  0.00000000000E+00 0. -1.
<scales pt_clust_5="13000.00000" pt_clust_6="13000.00000" pt_clust_7="13000.00000" pt_clust_8="13000.00000" pt_clust_9="26.33396"></scales>
<clustering>
<clus scale="   26.334">  1  9  2 -1</clus>
<clus scale="   91.387">  7  8 -1 -1</clus>
<clus scale="   92.658">  5  6 -1 -1</clus>
<clus scale="  277.687">  1  7  2 -1</clus>
<clus scale="   26.334">  1  5  2 -1</clus>
</clustering>
</event>
<event>
 9    1  0.9000149E-006  0.1191212E+03  0.7546771E-02  0.1245209E+00
         -1   -1    0    0    0  501 -0.00000000000E+00  0.00000000000E+00  0.67817923563E+02  0.67817923563E+02  0.00000000000E+00 0.  1.
          1   -1    0    0  502    0  0.00000000000E+00 -0.00000000000E+00 -0.54228931529E+03  0.54228931529E+03  0.00000000000E+00 0. -1.
         23    2    1    2    0    0  0.41002395266E+02 -0.66639527921E+02 -0.10621624726E+02  0.11951464411E+03  0.89715707358E+02 0.  0.
         23    2    1    2    0    0 -0.13033376407E+02  0.69184765963E+02 -0.25671418322E+03  0.28156174936E+03  0.91752090399E+02 0.  0.
        -11    1    3    3    0    0  0.62673578071E+02 -0.39312597184E+02 -0.29745584192E+02  0.79738682360E+02  0.00000000000E+00 0. -1.
         11    1    3    3    0    0 -0.21671182806E+02 -0.27326930737E+02  0.19123959467E+02  0.39775961753E+02  0.00000000000E+00 0.  1.
        -13    1    4    4    0    0  0.36652119381E+02  0.13779731371E+02 -0.64650657745E+02  0.75584167645E+02  0.00000000000E+00 0.  1.
         13    1    4    4    0    0 -0.49685495787E+02  0.55405034593E+02 -0.19206352548E+03  0.20597758171E+03  0.00000000000E+00 0. -1.
         21    1    1    2  502  501 -0.27969018859E+02 -0.25452380425E+01 -0.20713558378E+03  0.20903084538E+03  0.00000000000E+00 0. -1.
<scales pt_clust_5="13000.00000" pt_clust_6="13000.00000" pt_clust_7="13000.00000" pt_clust_8="13000.00000" pt_clust_9="28.08459"></scales>
<clustering>
<clus scale="   28.085">  2  9  1 -1</clus>
<clus scale="   89.716">  5  6 -1 -1</clus>
<clus scale="   91.752">  7  8 -1 -1</clus>
<clus scale="  117.560">  1  5  2 -1</clus>
<clus scale="   28.085">  2  5  1 -1</clus>
</clustering>
</event>
<event>
 9    1  0.9000149E-006  0.1271349E+03  0.7546771E-02  0.1231797E+00
         -1   -1    0    0    0  501 -0.00000000000E+00  0.00000000000E+00  0.10421928755E+03  0.10421928755E+03  0.00000000000E+00 0.  1.
          1   -1    0    0  502    0  0.00000000000E+00 -0.00000000000E+00 -0.87109381289E+03  0.87109381289E+03  0.00000000000E+00 0. -1.
         23    2    1    2    0    0 -0.33549591770E+02 -0.77936222373E+02  0.51087466479E+02  0.13560537984E+03  0.92624294572E+02 0.  0.
         23    2    1    2    0    0  0.52693910841E+02  0.10945012870E+03 -0.67261735598E+03  0.68975874789E+03  0.92720244951E+02 0.  0.
        -11    1    3    3    0    0 -0.32408586659E+02 -0.25917842640E+02 -0.21152973491E+02  0.46577884707E+02  0.00000000000E+00 0. -1.
         11    1    3    3    0    0 -0.11410051117E+01 -0.52018379734E+02  0.72240439970E+02  0.89027495134E+02  0.00000000000E+00 0.  1.
        -13    1    4    4    0    0  0.74531541682E+02  0.62135905465E+02 -0.36097991244E+03  0.37379448717E+03  0.00000000000E+00 0.  1.
         13    1    4    4    0    0 -0.21837630841E+02  0.47314223234E+02 -0.31163744354E+03  0.31596426072E+03  0.00000000000E+00 0. -1.
         21    1    1    2  502  501 -0.19144319070E+02 -0.31513906326E+02 -0.14534463585E+03  0.14994897270E+03  0.00000000000E+00 0.  1.
<scales pt_clust_5="13000.00000" pt_clust_6="13000.00000" pt_clust_7="13000.00000" pt_clust_8="13000.00000" pt_clust_9="36.87318"></scales>
<clustering>
<clus scale="   36.873">  2  9  1 -1</clus>
<clus scale="   92.624">  5  6 -1 -1</clus>
<clus scale="   92.720">  7  8 -1 -1</clus>
<clus scale="  127.065">  1  5  2 -1</clus>
<clus scale="   36.873">  2  5  1 -1</clus>
</clustering>
</event>
<event>
 9    1  0.9000149E-006  0.1030399E+03  0.7546771E-02  0.1274194E+00
         -1   -1    0    0    0  501 -0.00000000000E+00  0.00000000000E+00  0.99696380365E+02  0.99696380365E+02  0.00000000000E+00 0.  1.
          1   -1    0    0  502    0  0.00000000000E+00 -0.00000000000E+00 -0.20589515800E+03  0.20589515800E+03  0.00000000000E+00 0. -1.
         23    2    1    2    0    0  0.73218655714E+01 -0.48532774708E+02  0.15993646347E+02  0.10387252479E+03  0.90136922214E+02 0.  0.
         23    2    1    2    0    0  0.41227223305E+02  0.51778636690E+02 -0.79205367753E+02  0.13679261945E+03  0.89766470896E+02 0.  0.
        -11    1    3    3    0    0 -0.11573149901E+02 -0.69171809136E+02 -0.27596456379E+01  0.70187553183E+02  0.00000000000E+00 0.  1.
         11    1    3    3    0    0  0.18895015473E+02  0.20639034428E+02  0.18753291985E+02  0.33684971606E+02  0.00000000000E+00 0. -1.
        -13    1    4    4    0    0  0.38824742672E+02 -0.10090717970E+02 -0.54329823210E+01  0.40480866216E+02  0.00000000000E+00 0.  1.
         13    1    4    4    0    0  0.24024806325E+01  0.61869354660E+02 -0.73772385432E+02  0.96311753237E+02  0.00000000000E+00 0. -1.
         21    1    1    2  502  501 -0.48549088876E+02 -0.32458619823E+01 -0.42987056232E+02  0.64926394126E+02  0.00000000000E+00 0.  1.
<scales pt_clust_5="13000.00000" pt_clust_6="13000.00000" pt_clust_7="13000.00000" pt_clust_8="13000.00000" pt_clust_9="48.65747"></scales>
<clustering>
<clus scale="   48.657">  2  9  1 -1</clus>
<clus scale="   89.766">  7  8 -1 -1</clus>
<clus scale="   90.137">  5  6 -1 -1</clus>
<clus scale="  102.716">  2  7  1 -1</clus>
<clus scale="   48.657">  2  5  1 -1</clus>
</clustering>
</event>
<event>
 9    1  0.9000149E-006  0.9792379E+02  0.7546771E-02  0.1285817E+00
         -1   -1    0    0    0  501 -0.00000000000E+00  0.00000000000E+00  0.25420668607E+02  0.25420668607E+02  0.00000000000E+00 0.  1.
          1   -1    0    0  502    0  0.00000000000E+00 -0.00000000000E+00 -0.50732013280E+03  0.50732013280E+03  0.00000000000E+00 0. -1.
         23    2    1    2    0    0  0.23874152746E+02  0.80875166362E+01 -0.14594658269E+03  0.17443320505E+03  0.92147462950E+02 0.  0.
         23    2    1    2    0    0 -0.46113550399E+02 -0.71440442637E+01 -0.25705180657E+03  0.27632674144E+03  0.90018552956E+02 0.  0.
        -11    1    4    4    0    0 -0.70362914422E+02 -0.18223041777E+02 -0.21031448262E+03  0.22252011275E+03  0.00000000000E+00 0.  1.
         11    1    4    4    0    0  0.24249364024E+02  0.11078997514E+02 -0.46737323952E+02  0.53806628696E+02  0.00000000000E+00 0. -1.
        -13    1    3    3    0    0  0.37210964949E+02  0.42330952629E+02 -0.10667661973E+03  0.12065018301E+03  0.00000000000E+00 0. -1.
         13    1    3    3    0    0 -0.13336812203E+02 -0.34243435993E+02 -0.39269962961E+02  0.53783022036E+02  0.00000000000E+00 0.  1.
         21    1    1    2  502  501  0.22239397653E+02 -0.94347237258E+00 -0.78901074932E+02  0.81980854920E+02  0.00000000000E+00 0. -1.
<scales pt_clust_5="13000.00000" pt_clust_6="13000.00000" pt_clust_7="13000.00000" pt_clust_8="13000.00000" pt_clust_9="22.25940"></scales>
<clustering>
<clus scale="   22.259">  2  9  1 -1</clus>
<clus scale="   90.019">  5  6 -1 -1</clus>
<clus scale="   92.147">  7  8 -1 -1</clus>
<clus scale="   95.923">  2  5  1 -1</clus>
<clus scale="   22.259">  2  5  1 -1</clus>
</clustering>
</event>
<event>
 9    1  0.9000149E-006  0.1203346E+03  0.7546771E-02  0.1243545E+00
         -2   -1    0    0    0  501 -0.00000000000E+00  0.00000000000E+00  0.75850573121E+02  0.75850573121E+02  0.00000000000E+00 0.  1.
          2   -1    0    0  502    0  0.00000000000E+00 -0.00000000000E+00 -0.29297373113E+03  0.29297373113E+03  0.00000000000E+00 0. -1.
         23    2    1    2    0    0  0.11849828853E+02  0.91099465743E+02 -0.24264069740E+02  0.12838101638E+03  0.86333129117E+02 0.  0.
         23    2    1    2    0    0 -0.13960581881E+02 -0.53487817786E+02 -0.15169244867E+03  0.18464200154E+03  0.89589202764E+02 0.  0.
        -11    1    4    4    0    0 -0.16885711042E+02  0.17543857228E+02 -0.10410729881E+02  0.26482021458E+02  0.00000000000E+00 0.  1.
         11    1    4    4    0    0  0.29251291610E+01 -0.71031675015E+02 -0.14128171879E+03  0.15815998009E+03  0.00000000000E+00 0. -1.
        -13    1    3    3    0    0 -0.25505895120E+02  0.83947301379E+02 -0.12860873437E+02  0.88674134674E+02  0.00000000000E+00 0.  1.
         13    1    3    3    0    0  0.37355723973E+02  0.71521643639E+01 -0.11403196302E+02  0.39706881702E+02  0.00000000000E+00 0. -1.
         21    1    1    2  502  501  0.21107530281E+01 -0.37611647957E+02 -0.41166639594E+02  0.55801286328E+02  0.00000000000E+00 0.  1.
<scales pt_clust_5="13000.00000" pt_clust_6="13000.00000" pt_clust_7="13000.00000" pt_clust_8="13000.00000" pt_clust_9="37.67083"></scales>
<clustering>
<clus scale="   37.671">  2  9  1 -1</clus>
<clus scale="   86.333">  7  8 -1 -1</clus>
<clus scale="   89.589">  5  6 -1 -1</clus>
<clus scale="  117.931">  1  7  2 -1</clus>
<clus scale="   37.671">  2  5  1 -1</clus>
</clustering>
</event>
<event>
 9    1  0.9000149E-006  0.1488699E+03  0.7546771E-02  0.1206329E+00
         -2   -1    0    0    0  501 -0.00000000000E+00  0.00000000000E+00  0.45805555676E+03  0.45805555676E+03  0.00000000000E+00 0.  1.
          2   -1    0    0  502    0  0.00000000000E+00 -0.00000000000E+00 -0.90680553465E+02  0.90680553465E+02  0.00000000000E+00 0. -1.
         23    2    1    2    0    0  0.11446874168E+03 -0.36156898415E+02  0.27532825158E+03  0.31453123956E+03  0.93347953453E+02 0.  0.
         23    2    1    2    0    0 -0.53785074255E+02 -0.26239371690E+02  0.42716590083E+02  0.13415854709E+03  0.11221617464E+03 0.  0.
        -11    1    4    4    0    0  0.25771272681E+02 -0.29342696317E+02 -0.78589102192E+01  0.39836099113E+02  0.00000000000E+00 0.  1.
         11    1    4    4    0    0 -0.79556346936E+02  0.31033246266E+01  0.50575500303E+02  0.94322447977E+02  0.00000000000E+00 0. -1.
        -13    1    3    3    0    0 -0.37068847041E+01 -0.22290689217E+02  0.12038612271E+02  0.25603593603E+02  0.00000000000E+00 0. -1.
         13    1    3    3    0    0  0.11817562638E+03 -0.13866209199E+02  0.26328963931E+03  0.28892764595E+03  0.00000000000E+00 0.  1.
         21    1    1    2  502  501 -0.60683667422E+02  0.62396270105E+02  0.49330161626E+02  0.10004632358E+03  0.00000000000E+00 0. -1.
<scales pt_clust_5="13000.00000" pt_clust_6="13000.00000" pt_clust_7="13000.00000" pt_clust_8="13000.00000" pt_clust_9="87.03908"></scales>
<clustering>
<clus scale="   87.039">  2  9  1 -1</clus>
<clus scale="   93.348">  7  8 -1 -1</clus>
<clus scale="  112.216">  5  6 -1 -1</clus>
<clus scale="  135.217">  1  7  2 -1</clus>
<clus scale="   87.039">  2  5  1 -1</clus>
</clustering>
</event>
<event>
 9    1  0.9000149E-006  0.8940782E+02  0.7546771E-02  0.1305238E+00
          1   -1    0    0  502    0  0.00000000000E+00  0.00000000000E+00  0.26522917357E+03  0.26522917357E+03  0.00000000000E+00 0. -1.
         -1   -1    0    0    0  501 -0.00000000000E+00 -0.00000000000E+00 -0.75070115173E+02  0.75070115173E+02  0.00000000000E+00 0.  1.
         23    2    1    2    0    0  0.57147055972E+01  0.67989320482E+01  0.15351216205E+02  0.88490055217E+02  0.86694559785E+02 0.  0.
         23    2    1    2    0    0  0.54424622804E+02 -0.43286002298E+02  0.93519452189E+02  0.14431110580E+03  0.85112218608E+02 0.  0.
        -11    1    4    4    0    0  0.62568846663E+01 -0.37429524601E+02 -0.11115706645E+01  0.37965161753E+02  0.00000000000E+00 0.  1.
         11    1    4    4    0    0  0.48167738137E+02 -0.58564776965E+01  0.94631022853E+02  0.10634594404E+03  0.00000000000E+00 0. -1.
        -11    1    3    3    0    0  0.38250277086E+02  0.20454569906E+02 -0.10644481029E+02  0.44662938815E+02  0.00000000000E+00 0. -1.
         11    1    3    3    0    0 -0.32535571489E+02 -0.13655637858E+02  0.25995697234E+02  0.43827116402E+02  0.00000000000E+00 0.  1.
         21    1    1    2  502  501 -0.60139328401E+02  0.36487070250E+02  0.81288390003E+02  0.10749812773E+03  0.00000000000E+00 0. -1.
<scales pt_clust_5="13000.00000" pt_clust_6="13000.00000" pt_clust_7="13000.00000" pt_clust_8="13000.00000" pt_clust_9="70.34234"></scales>
<clustering>
<clus scale="   70.342">  1  9  2 -1</clus>
<clus scale="   85.112">  5  6 -1 -1</clus>
<clus scale="   86.695">  7  8 -1 -1</clus>
<clus scale="   87.874">  1  5  2 -1</clus>
<clus scale="   70.342">  1  5  2 -1</clus>
</clustering>
</event>
<event>
 9    1  0.9000149E-006  0.1083191E+03  0.7546771E-02  0.1266042E+00
          1   -1    0    0  502    0  0.00000000000E+00  0.00000000000E+00  0.30092788748E+03  0.30092788748E+03  0.00000000000E+00 0. -1.
         -1   -1    0    0    0  501 -0.00000000000E+00 -0.00000000000E+00 -0.96594547112E+02  0.96594547112E+02  0.00000000000E+00 0.  1.
         23    2    1    2    0    0  0.19786712451E+02  0.34739547057E+02 -0.30003736122E+01  0.97170631048E+02  0.88514287983E+02 0.  0.
         23    2    1    2    0    0 -0.80060218609E+02 -0.74260461853E+02  0.15206837054E+03  0.20952748722E+03  0.94088914236E+02 0.  0.
        -11    1    4    4    0    0 -0.11057722416E+02 -0.74321320199E+02  0.79066037738E+02  0.10907506674E+03  0.00000000000E+00 0.  1.
         11    1    4    4    0    0 -0.69002496193E+02  0.60858346357E-01  0.73002332801E+02  0.10045242047E+03  0.00000000000E+00 0. -1.
        -13    1    3    3    0    0 -0.30176470988E+02  0.17488001127E+02  0.19230914547E+02  0.39828101373E+02  0.00000000000E+00 0. -1.
         13    1    3    3    0    0  0.49963183438E+02  0.17251545930E+02 -0.22231288159E+02  0.57342529675E+02  0.00000000000E+00 0.  1.
         21    1    1    2  502  501  0.60273506158E+02  0.39520914796E+02  0.55265343441E+02  0.90824316328E+02  0.00000000000E+00 0.  1.
<scales pt_clust_5="13000.00000" pt_clust_6="13000.00000" pt_clust_7="13000.00000" pt_clust_8="13000.00000" pt_clust_9="72.07495"></scales>
<clustering>
<clus scale="   72.075">  1  9  2 -1</clus>
<clus scale="   88.514">  7  8 -1 -1</clus>
<clus scale="   94.089">  5  6 -1 -1</clus>
<clus scale="  103.514">  2  7  1 -1</clus>
<clus scale="   72.075">  1  5  2 -1</clus>
</clustering>
</event>
<event>
 9    1  0.9000149E-006  0.1152738E+03  0.7546771E-02  0.1251106E+00
         -2   -1    0    0    0  501 -0.00000000000E+00  0.00000000000E+00  0.35021345276E+02  0.35021345276E+02  0.00000000000E+00 0.  1.
          2   -1    0    0  502    0  0.00000000000E+00 -0.00000000000E+00 -0.58987598347E+03  0.58987598347E+03  0.00000000000E+00 0. -1.
         23    2    1    2    0    0 -0.71074291339E+00 -0.69214672647E+02 -0.16978634716E+03  0.20457289151E+03  0.90727549254E+02 0.  0.
         23    2    1    2    0    0  0.35369710909E+02  0.69092588226E+02 -0.20747562923E+03  0.23938131774E+03  0.90732994879E+02 0.  0.
        -13    1    4    4    0    0 -0.23449328444E+02 -0.55858494777E+01 -0.48285021742E+02  0.53967731502E+02  0.00000000000E+00 0.  1.
         13    1    4    4    0    0  0.58819039353E+02  0.74678437703E+02 -0.15919060749E+03  0.18541358624E+03  0.00000000000E+00 0. -1.
        -13    1    3    3    0    0 -0.26408231742E+02 -0.17080264973E+01 -0.10248350666E+03  0.10584508111E+03  0.00000000000E+00 0.  1.
         13    1    3    3    0    0  0.25697488829E+02 -0.67506646150E+02 -0.67302840499E+02  0.98727810397E+02  0.00000000000E+00 0. -1.
         21    1    1    2  502  501 -0.34658967995E+02  0.12208442143E+00 -0.17759266180E+03  0.18094311949E+03  0.00000000000E+00 0.  1.
<scales pt_clust_5="13000.00000" pt_clust_6="13000.00000" pt_clust_7="13000.00000" pt_clust_8="13000.00000" pt_clust_9="34.65918"></scales>
<clustering>
<clus scale="   34.659">  2  9  1 -1</clus>
<clus scale="   90.728">  7  8 -1 -1</clus>
<clus scale="   90.733">  5  6 -1 -1</clus>
<clus scale="  115.269">  1  7  2 -1</clus>
<clus scale="   34.659">  2  5  1 -1</clus>
</clustering>
</event>
<event>
 9    1  0.9000149E-006  0.1029566E+03  0.7546771E-02  0.1275958E+00
         -1   -1    0    0    0  501 -0.00000000000E+00  0.00000000000E+00  0.32470198864E+03  0.32470198864E+03  0.00000000000E+00 0.  1.
          1   -1    0    0  502    0  0.00000000000E+00 -0.00000000000E+00 -0.99979756348E+02  0.99979756348E+02  0.00000000000E+00 0. -1.
         23    2    1    2    0    0 -0.44760460380E+02  0.14060949789E+02  0.24760714569E+03  0.26945417425E+03  0.95367941699E+02 0.  0.
         23    2    1    2    0    0  0.14411560173E+02  0.14237832157E+02  0.19529097679E+02  0.95891029389E+02  0.91669487454E+02 0.  0.
        -11    1    4    4    0    0  0.12530852898E+02  0.52343768750E+02  0.18835134664E+01  0.53855733439E+02  0.00000000000E+00 0.  1.
         11    1    4    4    0    0  0.18807072751E+01 -0.38105936592E+02  0.17645584213E+02  0.42035295951E+02  0.00000000000E+00 0. -1.
        -13    1    3    3    0    0 -0.30699181844E+02  0.50947037916E+02  0.19377906294E+03  0.20270265334E+03  0.00000000000E+00 0.  1.
         13    1    3    3    0    0 -0.14061278536E+02 -0.36886088127E+02  0.53828082747E+02  0.66751520909E+02  0.00000000000E+00 0. -1.
         21    1    1    2  502  501  0.30348900207E+02 -0.28298781946E+02 -0.42414011076E+02  0.59336541346E+02  0.00000000000E+00 0. -1.
<scales pt_clust_5="13000.00000" pt_clust_6="13000.00000" pt_clust_7="13000.00000" pt_clust_8="13000.00000" pt_clust_9="41.49550"></scales>
<clustering>
<clus scale="   41.496">  2  9  1 -1</clus>
<clus scale="   91.669">  5  6 -1 -1</clus>
<clus scale="   95.368">  7  8 -1 -1</clus>
<clus scale="   99.540">  2  5  1 -1</clus>
<clus scale="   41.496">  2  5  1 -1</clus>
</clustering>
</event>
<event>
 9    1  0.9000149E-006  0.1052091E+03  0.7546771E-02  0.1271017E+00
         -1   -1    0    0    0  501 -0.00000000000E+00  0.00000000000E+00  0.90614540730E+02  0.90614540730E+02  0.00000000000E+00 0.  1.
          1   -1    0    0  502    0  0.00000000000E+00 -0.00000000000E+00 -0.25198533896E+03  0.25198533896E+03  0.00000000000E+00 0. -1.
         23    2    1    2    0    0 -0.57323957738E+02  0.16079653920E+02  0.12165245190E+02  0.10991711602E+03  0.91592509536E+02 0.  0.
         23    2    1    2    0    0  0.35989994917E+02 -0.14957456529E+02 -0.53108009456E+02  0.11037451104E+03  0.88561090661E+02 0.  0.
        -13    1    4    4    0    0  0.15681332870E+02 -0.50901939119E+02 -0.18128097611E+02  0.56263127621E+02  0.00000000000E+00 0. -1.
         13    1    4    4    0    0  0.20308662048E+02  0.35944482591E+02 -0.34979911846E+02  0.54111383420E+02  0.00000000000E+00 0.  1.
        -13    1    3    3    0    0 -0.23430694003E+02 -0.50646151805E+01 -0.38527113932E+02  0.45376053777E+02  0.00000000000E+00 0. -1.
         13    1    3    3    0    0 -0.33893263735E+02  0.21144269101E+02  0.50692359122E+02  0.64541062245E+02  0.00000000000E+00 0.  1.
         21    1    1    2  502  501  0.21333962821E+02 -0.11221973912E+01 -0.12042803396E+03  0.12230825263E+03  0.00000000000E+00 0. -1.
<scales pt_clust_5="13000.00000" pt_clust_6="13000.00000" pt_clust_7="13000.00000" pt_clust_8="13000.00000" pt_clust_9="21.36346"></scales>
<clustering>
<clus scale="   21.363">  2  9  1 -1</clus>
<clus scale="   88.561">  5  6 -1 -1</clus>
<clus scale="   91.593">  7  8 -1 -1</clus>
<clus scale="  102.581">  2  5  1 -1</clus>
<clus scale="   21.363">  2  5  1 -1</clus>
</clustering>
</event>
<event>
 9    1  0.9000149E-006  0.1094133E+03  0.7546771E-02  0.1263562E+00
         -1   -1    0    0    0  501 -0.00000000000E+00  0.00000000000E+00  0.16279625516E+03  0.16279625516E+03  0.00000000000E+00 0.  1.
          1   -1    0    0  502    0  0.00000000000E+00 -0.00000000000E+00 -0.87370859106E+02  0.87370859106E+02  0.00000000000E+00 0. -1.
         23    2    1    2    0    0  0.46949489777E+02  0.11591396861E+02  0.52126127193E+02  0.11901091798E+03  0.95435058503E+02 0.  0.
         23    2    1    2    0    0 -0.49114111529E+02 -0.31506563955E+02  0.13305998420E+02  0.10876948322E+03  0.90823407571E+02 0.  0.
        -11    1    3    3    0    0  0.39014667605E+02 -0.82816303355E+01  0.76685344884E+02  0.86437097414E+02  0.00000000000E+00 0.  1.
         11    1    3    3    0    0  0.79348221717E+01  0.19873027196E+02 -0.24559217691E+02  0.32573820569E+02  0.00000000000E+00 0. -1.
        -13    1    4    4    0    0 -0.61254203247E+02 -0.48316852458E+02 -0.87393160133E+01  0.78504594077E+02  0.00000000000E+00 0. -1.
         13    1    4    4    0    0  0.12140091718E+02  0.16810288503E+02  0.22045314433E+02  0.30264889145E+02  0.00000000000E+00 0.  1.
         21    1    1    2  502  501  0.21646217520E+01  0.19915167094E+02  0.99932704452E+01  0.22386713066E+02  0.00000000000E+00 0. -1.
<scales pt_clust_5="13000.00000" pt_clust_6="13000.00000" pt_clust_7="13000.00000" pt_clust_8="13000.00000" pt_clust_9="20.03246"></scales>
<clustering>
<clus scale="   20.032">  1  9  2 -1</clus>
<clus scale="   90.823">  7  8 -1 -1</clus>
<clus scale="   95.435">  5  6 -1 -1</clus>
<clus scale="  105.415">  2  7  1 -1</clus>
<clus scale="  105.415">  2  5  1 -1</clus>
</clustering>
</event>
<event>
 9    1  0.9000149E-006  0.1209587E+03  0.7546771E-02  0.1244314E+00
         -1   -1    0    0    0  501 -0.00000000000E+00  0.00000000000E+00  0.26613654110E+03  0.26613654110E+03  0.00000000000E+00 0.  1.
          1   -1    0    0  502    0  0.00000000000E+00 -0.00000000000E+00 -0.96153514384E+02  0.96153514384E+02  0.00000000000E+00 0. -1.
         23    2    1    2    0    0  0.79127513286E+02  0.23983761913E+02  0.18043631199E+03  0.21484779978E+03  0.82255274550E+02 0.  0.
         23    2    1    2    0    0 -0.59183541134E+02 -0.40270108665E+02  0.72350461098E+01  0.11620311067E+03  0.91249349822E+02 0.  0.
        -11    1    3    3    0    0  0.48285723566E+02  0.68176097297E+00  0.16713013706E+03  0.17396683193E+03  0.00000000000E+00 0.  1.
         11    1    3    3    0    0  0.30841789720E+02  0.23302000940E+02  0.13306174929E+02  0.40880967848E+02  0.00000000000E+00 0. -1.
        -11    1    4    4    0    0 -0.37212495161E+02 -0.40349853400E+02 -0.37422836291E+02  0.66433042543E+02  0.00000000000E+00 0. -1.
         11    1    4    4    0    0 -0.21971045973E+02  0.79744735360E-01  0.44657882400E+02  0.49770068122E+02  0.00000000000E+00 0.  1.
         21    1    1    2  502  501 -0.19943972153E+02  0.16286346752E+02 -0.17688331382E+02  0.31239145040E+02  0.00000000000E+00 0. -1.
<scales pt_clust_5="13000.00000" pt_clust_6="13000.00000" pt_clust_7="13000.00000" pt_clust_8="13000.00000" pt_clust_9="25.74892"></scales>
<clustering>
<clus scale="   25.749">  2  9  1 -1</clus>
<clus scale="   82.255">  5  6 -1 -1</clus>
<clus scale="   91.249">  7  8 -1 -1</clus>
<clus scale="  114.326">  1  5  2 -1</clus>
<clus scale="   25.749">  2  5  1 -1</clus>
</clustering>
</event>
<event>
 9    1  0.9000149E-006  0.9567571E+02  0.7546771E-02  0.1291962E+00
          2   -1    0    0  502    0  0.00000000000E+00  0.00000000000E+00  0.12842741248E+03  0.12842741248E+03  0.00000000000E+00 0. -1.
         -2   -1    0    0    0  501 -0.00000000000E+00 -0.00000000000E+00 -0.10469803368E+03  0.10469803368E+03  0.00000000000E+00 0.  1.
         23    2    1    2    0    0  0.20027390408E+02 -0.53469139454E+01 -0.35039323878E+02  0.99066425351E+02  0.90314542344E+02 0.  0.
         23    2    1    2    0    0 -0.43193958951E+01 -0.13300656832E+02  0.52345850569E+02  0.10884541303E+03  0.94401648362E+02 0.  0.
        -11    1    4    4    0    0 -0.11915812514E+02  0.23673247599E+02  0.64057806139E+02  0.69323962431E+02  0.00000000000E+00 0. -1.
         11    1    4    4    0    0  0.75964166193E+01 -0.36973904432E+02 -0.11711955570E+02  0.39521450602E+02  0.00000000000E+00 0.  1.
        -13    1    3    3    0    0 -0.18601910128E+02 -0.23429741364E+02 -0.46143203802E+02  0.54992536747E+02  0.00000000000E+00 0.  1.
         13    1    3    3    0    0  0.38629300536E+02  0.18082827418E+02  0.11103879924E+02  0.44073888604E+02  0.00000000000E+00 0. -1.
         21    1    1    2  502  501 -0.15707994513E+02  0.18647570778E+02  0.64228521134E+01  0.25213607770E+02  0.00000000000E+00 0. -1.
<scales pt_clust_5="13000.00000" pt_clust_6="13000.00000" pt_clust_7="13000.00000" pt_clust_8="13000.00000" pt_clust_9="24.38182"></scales>
<clustering>
<clus scale="   24.382">  1  9  2 -1</clus>
<clus scale="   90.315">  7  8 -1 -1</clus>
<clus scale="   91.645">  2  7  1 -1</clus>
<clus scale="   94.402">  5  6 -1 -1</clus>
<clus scale="   24.382">  1  5  2 -1</clus>
</clustering>
</event>
<event>
 9    1  0.9000149E-006  0.3383259E+03  0.7546771E-02  0.1067604E+00
         -2   -1    0    0    0  501 -0.00000000000E+00  0.00000000000E+00  0.29569148589E+03  0.29569148589E+03  0.00000000000E+00 0.  1.
          2   -1    0    0  502    0  0.00000000000E+00 -0.00000000000E+00 -0.47058095294E+03  0.47058095294E+03  0.00000000000E+00 0. -1.
         23    2    1    2    0    0 -0.26040146852E+03 -0.21641923517E+03  0.27603343058E+02  0.35124816114E+03  0.89258702647E+02 0.  0.
         23    2    1    2    0    0  0.25754297261E+03  0.18838099767E+03 -0.19723307532E+03  0.38635410903E+03  0.92481503775E+02 0.  0.
        -11    1    4    4    0    0  0.70491042797E+02  0.61521464460E+02 -0.12387426102E+02  0.94378631211E+02  0.00000000000E+00 0.  1.
         11    1    4    4    0    0  0.18705192981E+03  0.12685953321E+03 -0.18484564922E+03  0.29197547782E+03  0.00000000000E+00 0. -1.
        -13    1    3    3    0    0 -0.19542633386E+03 -0.11411384097E+03 -0.27095681447E+01  0.22632004424E+03  0.00000000000E+00 0.  1.
         13    1    3    3    0    0 -0.64975134665E+02 -0.10230539420E+03  0.30312911203E+02  0.12492811690E+03  0.00000000000E+00 0. -1.
         21    1    1    2  502  501  0.28584959106E+01  0.28038237494E+02 -0.52597347941E+01  0.28670168656E+02  0.00000000000E+00 0. -1.
<scales pt_clust_5="13000.00000" pt_clust_6="13000.00000" pt_clust_7="13000.00000" pt_clust_8="13000.00000" pt_clust_9="28.18357"></scales>
<clustering>
<clus scale="   28.184">  1  9  2 -1</clus>
<clus scale="   89.259">  7  8 -1 -1</clus>
<clus scale="   92.482">  5  6 -1 -1</clus>
<clus scale="  337.459">  1  7  2 -1</clus>
<clus scale="  338.326">  2  5  1 -1</clus>
</clustering>
</event>
<event>
 9    1  0.9000149E-006  0.1063381E+03  0.7546771E-02  0.1267762E+00
         -1   -1    0    0    0  501 -0.00000000000E+00  0.00000000000E+00  0.45604321570E+03  0.45604321570E+03  0.00000000000E+00 0.  1.
          1   -1    0    0  502    0  0.00000000000E+00 -0.00000000000E+00 -0.65485113448E+03  0.65485113448E+03  0.00000000000E+00 0. -1.
         23    2    1    2    0    0 -0.15143545771E+02  0.60356495169E+02  0.25585349590E+03  0.27851338386E+03  0.90754945526E+02 0.  0.
         23    2    1    2    0    0 -0.64674218690E+02 -0.39007740849E+02  0.16725227017E+03  0.20500286960E+03  0.91370105938E+02 0.  0.
        -11    1    4    4    0    0 -0.36991333711E+02  0.90159040447E+01  0.13629465249E+03  0.14151281777E+03  0.00000000000E+00 0. -1.
         11    1    4    4    0    0 -0.27682884978E+02 -0.48023644894E+02  0.30957617682E+02  0.63490051836E+02  0.00000000000E+00 0.  1.
        -13    1    3    3    0    0 -0.52261985873E+02  0.45807081690E+02  0.17700219626E+03  0.19015620259E+03  0.00000000000E+00 0.  1.
         13    1    3    3    0    0  0.37118440101E+02  0.14549413479E+02  0.78851299638E+02  0.88357181274E+02  0.00000000000E+00 0. -1.
         21    1    1    2  502  501  0.79817764461E+02 -0.21348754320E+02 -0.62191368485E+03  0.62737809672E+03  0.00000000000E+00 0. -1.
<scales pt_clust_5="13000.00000" pt_clust_6="13000.00000" pt_clust_7="13000.00000" pt_clust_8="13000.00000" pt_clust_9="82.62351"></scales>
<clustering>
<clus scale="   82.624">  2  9  1 -1</clus>
<clus scale="   90.755">  7  8 -1 -1</clus>
<clus scale="   91.370">  5  6 -1 -1</clus>
<clus scale="  105.810">  1  7  2 -1</clus>
<clus scale="   82.624">  2  5  1 -1</clus>
</clustering>
</event>
<event>
 9    1  0.9000149E-006  0.3995624E+03  0.7546771E-02  0.1043938E+00
          2   -1    0    0  502    0  0.00000000000E+00  0.00000000000E+00  0.94702517649E+03  0.94702517649E+03  0.00000000000E+00 0. -1.
         -2   -1    0    0    0  501 -0.00000000000E+00 -0.00000000000E+00 -0.18948005507E+03  0.18948005507E+03  0.00000000000E+00 0.  1.
         23    2    1    2    0    0  0.37322027282E+03 -0.79844268541E+02  0.28968601418E+03  0.48779872814E+03  0.91439231706E+02 0.  0.
         23    2    1    2    0    0 -0.39252937926E+03  0.64715178942E+02  0.38095928189E+03  0.55841081920E+03  0.91789436106E+02 0.  0.
        -13    1    4    4    0    0 -0.26535560914E+03  0.39018856304E+02  0.19474294579E+03  0.33145268951E+03  0.00000000000E+00 0.  1.
         13    1    4    4    0    0 -0.12717377012E+03  0.25696322639E+02  0.18621633610E+03  0.22695812969E+03  0.00000000000E+00 0. -1.
        -13    1    3    3    0    0  0.25308279468E+03 -0.93133415449E+02  0.22179219289E+03  0.34916544912E+03  0.00000000000E+00 0. -1.
         13    1    3    3    0    0  0.12013747814E+03  0.13289146908E+02  0.67893821295E+02  0.13863327901E+03  0.00000000000E+00 0.  1.
         21    1    1    2  502  501  0.19309106433E+02  0.15129089599E+02  0.86899825351E+02  0.90295684223E+02  0.00000000000E+00 0. -1.
<scales pt_clust_5="13000.00000" pt_clust_6="13000.00000" pt_clust_7="13000.00000" pt_clust_8="13000.00000" pt_clust_9="24.53020"></scales>
<clustering>
<clus scale="   24.530">  1  9  2 -1</clus>
<clus scale="   91.439">  7  8 -1 -1</clus>
<clus scale="   91.789">  5  6 -1 -1</clus>
<clus scale="  399.482">  2  7  1 -1</clus>
<clus scale="   24.530">  1  5  2 -1</clus>
</clustering>
</event>
<event>
 9    1  0.9000149E-006  0.1965085E+03  0.7546771E-02  0.1153226E+00
         -1   -1    0    0    0  501 -0.00000000000E+00  0.00000000000E+00  0.16881548485E+03  0.16881548485E+03  0.00000000000E+00 0.  1.
          1   -1    0    0  502    0  0.00000000000E+00 -0.00000000000E+00 -0.58929889175E+03  0.58929889175E+03  0.00000000000E+00 0. -1.
         23    2    1    2    0    0  0.61123582463E+02  0.16280503854E+03  0.75490106367E+02  0.21176162545E+03  0.94353892044E+02 0.  0.
         23    2    1    2    0    0 -0.24729264381E+02 -0.16313462922E+03 -0.45109665817E+03  0.48857224283E+03  0.89387905701E+02 0.  0.
        -11    1    4    4    0    0 -0.21407425118E+02 -0.40104444401E+02 -0.43955729541E+02  0.63235674033E+02  0.00000000000E+00 0.  1.
         11    1    4    4    0    0 -0.33218392632E+01 -0.12303018482E+03 -0.40714092862E+03  0.42533656879E+03  0.00000000000E+00 0. -1.
        -13    1    3    3    0    0  0.48786798158E+02  0.24901763519E+02  0.42767671475E+02  0.69493332229E+02  0.00000000000E+00 0.  1.
         13    1    3    3    0    0  0.12336784305E+02  0.13790327503E+03  0.32722434892E+02  0.14226829322E+03  0.00000000000E+00 0. -1.
         21    1    1    2  502  501 -0.36394318082E+02  0.32959067372E+00 -0.44876855103E+02  0.57780508327E+02  0.00000000000E+00 0. -1.
<scales pt_clust_5="13000.00000" pt_clust_6="13000.00000" pt_clust_7="13000.00000" pt_clust_8="13000.00000" pt_clust_9="36.39581"></scales>
<clustering>
<clus scale="   36.396">  2  9  1 -1</clus>
<clus scale="   89.388">  5  6 -1 -1</clus>
<clus scale="   94.354">  7  8 -1 -1</clus>
<clus scale="  194.173">  2  5  1 -1</clus>
<clus scale="   36.396">  2  5  1 -1</clus>
</clustering>
</event>
<event>
 9    1  0.9000149E-006  0.1089660E+03  0.7546771E-02  0.1262529E+00
          1   -1    0    0  502    0  0.00000000000E+00  0.00000000000E+00  0.53486467923E+03  0.53486467923E+03  0.00000000000E+00 0. -1.
         -1   -1    0    0    0  501 -0.00000000000E+00 -0.00000000000E+00 -0.53428661013E+02  0.53428661013E+02  0.00000000000E+00 0.  1.
         23    2    1    2    0    0 -0.60471103845E+02  0.61079468965E+01  0.33360746570E+02  0.11616959173E+03  0.93211443583E+02 0.  0.
         23    2    1    2    0    0  0.40865901153E+02  0.28742701438E+02  0.27801689358E+03  0.29742748750E+03  0.93131908827E+02 0.  0.
        -11    1    4    4    0    0  0.35195689099E+01  0.53009048872E+02  0.20609597529E+03  0.21283302765E+03  0.00000000000E+00 0. -1.
         11    1    4    4    0    0  0.37346332243E+02 -0.24266347434E+02  0.71920918289E+02  0.84594459850E+02  0.00000000000E+00 0.  1.
        -11    1    3    3    0    0  0.80536403053E+01  0.25250467813E+02  0.36317307155E+02  0.44959915991E+02  0.00000000000E+00 0.  1.
         11    1    3    3    0    0 -0.68524744151E+02 -0.19142520917E+02 -0.29565605850E+01  0.71209675736E+02  0.00000000000E+00 0. -1.
         21    1    1    2  502  501  0.19605202692E+02 -0.34850648334E+02  0.17005837807E+03  0.17469626102E+03  0.00000000000E+00 0.  1.
<scales pt_clust_5="13000.00000" pt_clust_6="13000.00000" pt_clust_7="13000.00000" pt_clust_8="13000.00000" pt_clust_9="39.98664"></scales>
<clustering>
<clus scale="   39.987">  1  9  2 -1</clus>
<clus scale="   93.132">  5  6 -1 -1</clus>
<clus scale="   93.211">  7  8 -1 -1</clus>
<clus scale="  108.898">  1  5  2 -1</clus>
<clus scale="   39.987">  1  5  2 -1</clus>
</clustering>
</event>
<event>
 9    1  0.9000149E-006  0.1598944E+03  0.7546771E-02  0.1210308E+00
          2   -1    0    0  502    0  0.00000000000E+00  0.00000000000E+00  0.38693556897E+03  0.38693556897E+03  0.00000000000E+00 0. -1.
         -2   -1    0    0    0  501 -0.00000000000E+00 -0.00000000000E+00 -0.23559959841E+03  0.23559959841E+03  0.00000000000E+00 0.  1.
         23    2    1    2    0    0  0.15629253532E+03  0.46123582999E+02  0.15704286885E+03  0.24499425632E+03  0.93834862742E+02 0.  0.
         23    2    1    2    0    0 -0.30186472215E+02 -0.41352807672E+02  0.14795425390E+03  0.17870115361E+03  0.86153138337E+02 0.  0.
        -13    1    4    4    0    0 -0.51521531362E+02 -0.42133916309E+02  0.64952391792E+02  0.92997571457E+02  0.00000000000E+00 0.  1.
         13    1    4    4    0    0  0.21335059147E+02  0.78110863716E+00  0.83001862110E+02  0.85703582149E+02  0.00000000000E+00 0. -1.
        -13    1    3    3    0    0  0.79862352567E+02  0.60197061913E+02  0.47581981896E+02  0.11075074095E+03  0.00000000000E+00 0.  1.
         13    1    3    3    0    0  0.76430182758E+02 -0.14073478914E+02  0.10946088695E+03  0.13424351537E+03  0.00000000000E+00 0. -1.
         21    1    1    2  502  501 -0.12610606311E+03 -0.47707753274E+01 -0.15366115220E+03  0.19883975745E+03  0.00000000000E+00 0.  1.
<scales pt_clust_5="13000.00000" pt_clust_6="13000.00000" pt_clust_7="13000.00000" pt_clust_8="13000.00000" pt_clust_9="129.46517"></scales>
<clustering>
<clus scale="   86.153">  5  6 -1 -1</clus>
<clus scale="   93.835">  7  8 -1 -1</clus>
<clus scale="  100.218">  1  5  2 -1</clus>
<clus scale="  129.465">  2  9  1 -1</clus>
<clus scale="  100.218">  1  5  2 -1</clus>
</clustering>
</event>
<event>
 9    1  0.9000149E-006  0.1108041E+03  0.7546771E-02  0.1259102E+00
         -3   -1    0    0    0  501 -0.00000000000E+00  0.00000000000E+00  0.57436873218E+03  0.57436873218E+03  0.00000000000E+00 0.  1.
          3   -1    0    0  502    0  0.00000000000E+00 -0.00000000000E+00 -0.34692689342E+02  0.34692689342E+02  0.00000000000E+00 0. -1.
         23    2    1    2    0    0  0.66273506516E+02 -0.43659547573E+02  0.31698525122E+03  0.33929896552E+03  0.91355376141E+02 0.  0.
         23    2    1    2    0    0 -0.33548178351E+02  0.30581175097E+02  0.20785670605E+03  0.23152581095E+03  0.91318685633E+02 0.  0.
        -11    1    3    3    0    0  0.83897778501E+02 -0.28788209528E+02  0.18322759720E+03  0.20356804912E+03  0.00000000000E+00 0. -1.
         11    1    3    3    0    0 -0.17624271985E+02 -0.14871338045E+02  0.13375765402E+03  0.13573091640E+03  0.00000000000E+00 0.  1.
        -11    1    4    4    0    0  0.29065775998E+02 -0.15446111272E+01  0.39614797657E+02  0.49158288734E+02  0.00000000000E+00 0. -1.
         11    1    4    4    0    0 -0.62613954349E+02  0.32125786224E+02  0.16824190839E+03  0.18236752222E+03  0.00000000000E+00 0.  1.
         21    1    1    2  502  501 -0.32725328165E+02  0.13078372476E+02  0.14834085566E+02  0.38236645051E+02  0.00000000000E+00 0.  1.
<scales pt_clust_5="13000.00000" pt_clust_6="13000.00000" pt_clust_7="13000.00000" pt_clust_8="13000.00000" pt_clust_9="35.24189"></scales>
<clustering>
<clus scale="   35.242">  2  9  1 -1</clus>
<clus scale="   91.319">  7  8 -1 -1</clus>
<clus scale="   91.355">  5  6 -1 -1</clus>
<clus scale="  110.774">  2  7  1 -1</clus>
<clus scale="   35.242">  2  5  1 -1</clus>
</clustering>
</event>
<event>
 9    1  0.9000149E-006  0.1132413E+03  0.7546771E-02  0.1256727E+00
          3   -1    0    0  502    0  0.00000000000E+00  0.00000000000E+00  0.57903372907E+03  0.57903372907E+03  0.00000000000E+00 0. -1.
         -3   -1    0    0    0  501 -0.00000000000E+00 -0.00000000000E+00 -0.14367201079E+03  0.14367201079E+03  0.00000000000E+00 0.  1.
         23    2    1    2    0    0 -0.67905132998E+02  0.34139064933E+01 -0.10367487406E+03  0.15099173190E+03  0.86181562681E+02 0.  0.
         23    2    1    2    0    0  0.34821318770E+02 -0.66234000925E+02  0.36586796845E+03  0.38455558489E+03  0.91783225098E+02 0.  0.
        -11    1    3    3    0    0 -0.55552935041E+02  0.41287221743E+02 -0.57298899630E+02  0.89855034193E+02  0.00000000000E+00 0.  1.
         11    1    3    3    0    0 -0.12352197957E+02 -0.37873315249E+02 -0.46375974432E+02  0.61136697710E+02  0.00000000000E+00 0. -1.
        -13    1    4    4    0    0 -0.21129087443E+02  0.63154929163E+01  0.12341317571E+03  0.12536800121E+03  0.00000000000E+00 0.  1.
         13    1    4    4    0    0  0.55950406214E+02 -0.72549493842E+02  0.24245479274E+03  0.25918758368E+03  0.00000000000E+00 0. -1.
         21    1    1    2  502  501  0.33083814228E+02  0.62820094432E+02  0.17316862389E+03  0.18715842307E+03  0.00000000000E+00 0. -1.
<scales pt_clust_5="13000.00000" pt_clust_6="13000.00000" pt_clust_7="13000.00000" pt_clust_8="13000.00000" pt_clust_9="70.99932"></scales>
<clustering>
<clus scale="   70.999">  1  9  2 -1</clus>
<clus scale="   86.182">  5  6 -1 -1</clus>
<clus scale="   91.783">  7  8 -1 -1</clus>
<clus scale="  108.751">  2  5  1 -1</clus>
<clus scale="   70.999">  1  5  2 -1</clus>
</clustering>
</event>
<event>
 9    1  0.9000149E-006  0.1050267E+03  0.7546771E-02  0.1272565E+00
          1   -1    0    0  502    0  0.00000000000E+00  0.00000000000E+00  0.41301410770E+03  0.41301410770E+03  0.00000000000E+00 0. -1.
         -1   -1    0    0    0  501 -0.00000000000E+00 -0.00000000000E+00 -0.50900143833E+02  0.50900143833E+02  0.00000000000E+00 0.  1.
         23    2    1    2    0    0 -0.46248443972E+02 -0.23959936610E+01  0.61324520029E+02  0.12379895324E+03  0.97060932984E+02 0.  0.
         23    2    1    2    0    0  0.29794348177E+02 -0.21188182014E+02  0.11260080775E+03  0.14974220838E+03  0.91690483822E+02 0.  0.
        -13    1    3    3    0    0 -0.45941450841E+02  0.42059041996E+02  0.28273646853E+02  0.68403062982E+02  0.00000000000E+00 0.  1.
         13    1    3    3    0    0 -0.30699313131E+00 -0.44455035657E+02  0.33050873176E+02  0.55395890261E+02  0.00000000000E+00 0. -1.
        -13    1    4    4    0    0  0.92090676251E+01 -0.38602663004E+02  0.11596698429E+03  0.12256962904E+03  0.00000000000E+00 0. -1.
         13    1    4    4    0    0  0.20585280552E+02  0.17414480990E+02 -0.33661765368E+01  0.27172579340E+02  0.00000000000E+00 0.  1.
         21    1    1    2  502  501  0.16454095795E+02  0.23584175675E+02  0.18818863609E+03  0.19037308991E+03  0.00000000000E+00 0. -1.
<scales pt_clust_5="13000.00000" pt_clust_6="13000.00000" pt_clust_7="13000.00000" pt_clust_8="13000.00000" pt_clust_9="28.75675"></scales>
<clustering>
<clus scale="   28.757">  1  9  2 -1</clus>
<clus scale="   91.690">  7  8 -1 -1</clus>
<clus scale="   97.061">  5  6 -1 -1</clus>
<clus scale="  100.085">  1  7  2 -1</clus>
<clus scale="   28.757">  1  5  2 -1</clus>
</clustering>
</event>
<event>
 9    1  0.9000149E-006  0.1153873E+03  0.7546771E-02  0.1251651E+00
         -2   -1    0    0    0  501 -0.00000000000E+00  0.00000000000E+00  0.93867118539E+02  0.93867118539E+02  0.00000000000E+00 0.  1.
          2   -1    0    0  502    0  0.00000000000E+00 -0.00000000000E+00 -0.33309252651E+03  0.33309252651E+03  0.00000000000E+00 0. -1.
         23    2    1    2    0    0  0.71578980887E+02  0.92051502835E+01  0.27114721610E+02  0.11971527547E+03  0.91587410465E+02 0.  0.
         23    2    1    2    0    0 -0.64797999383E+02  0.19314828326E+02 -0.15002279779E+03  0.18728982584E+03  0.89435986539E+02 0.  0.
        -11    1    4    4    0    0 -0.44595339934E+02  0.38053840263E+02 -0.14854497696E+03  0.15969486304E+03  0.00000000000E+00 0. -1.
         11    1    4    4    0    0 -0.20202659449E+02 -0.18739011937E+02 -0.14778208300E+01  0.27594962794E+02  0.00000000000E+00 0.  1.
        -13    1    3    3    0    0  0.94927988804E+01 -0.19941393217E+02  0.43865925374E+02  0.49112033178E+02  0.00000000000E+00 0.  1.
         13    1    3    3    0    0  0.62086182007E+02  0.29146543500E+02 -0.16751203764E+02  0.70603242289E+02  0.00000000000E+00 0. -1.
         21    1    1    2  502  501 -0.67809815042E+01 -0.28519978610E+02 -0.11631733179E+03  0.11995454374E+03  0.00000000000E+00 0.  1.
<scales pt_clust_5="13000.00000" pt_clust_6="13000.00000" pt_clust_7="13000.00000" pt_clust_8="13000.00000" pt_clust_9="29.31503"></scales>
<clustering>
<clus scale="   29.315">  2  9  1 -1</clus>
<clus scale="   89.436">  5  6 -1 -1</clus>
<clus scale="   91.587">  7  8 -1 -1</clus>
<clus scale="  113.687">  2  5  1 -1</clus>
<clus scale="   29.315">  2  5  1 -1</clus>
</clustering>
</event>
<event>
 9    1  0.9000149E-006  0.1043203E+03  0.7546771E-02  0.1271763E+00
          3   -1    0    0  502    0  0.00000000000E+00  0.00000000000E+00  0.82180025797E+03  0.82180025797E+03  0.00000000000E+00 0. -1.
         -3   -1    0    0    0  501 -0.00000000000E+00 -0.00000000000E+00 -0.29384294196E+02  0.29384294196E+02  0.00000000000E+00 0.  1.
         23    2    1    2    0    0 -0.10800762993E+02 -0.62509628899E+02  0.12983871417E+03  0.17092481312E+03  0.91285759341E+02 0.  0.
         23    2    1    2    0    0 -0.21500061800E+02  0.16813933374E+02  0.36063617201E+03  0.37317692576E+03  0.91965256190E+02 0.  0.
        -13    1    4    4    0    0 -0.55898579244E+02  0.21559734521E+02  0.25649073952E+03  0.26339508874E+03  0.00000000000E+00 0. -1.
         13    1    4    4    0    0  0.34398517444E+02 -0.47458011472E+01  0.10414543249E+03  0.10978183702E+03  0.00000000000E+00 0.  1.
        -13    1    3    3    0    0  0.17822649681E+02 -0.76550822557E+02  0.83451694677E+02  0.11463795454E+03  0.00000000000E+00 0.  1.
         13    1    3    3    0    0 -0.28623412674E+02  0.14041193658E+02  0.46387019489E+02  0.56286858586E+02  0.00000000000E+00 0. -1.
         21    1    1    2  502  501  0.32300824793E+02  0.45695695525E+02  0.30194107760E+03  0.30708281328E+03  0.00000000000E+00 0. -1.
<scales pt_clust_5="13000.00000" pt_clust_6="13000.00000" pt_clust_7="13000.00000" pt_clust_8="13000.00000" pt_clust_9="55.95927"></scales>
<clustering>
<clus scale="   55.959">  1  9  2 -1</clus>
<clus scale="   91.286">  7  8 -1 -1</clus>
<clus scale="   91.965">  5  6 -1 -1</clus>
<clus scale="  103.722">  2  7  1 -1</clus>
<clus scale="   55.959">  1  5  2 -1</clus>
</clustering>
</event>
<event>
 9    1  0.9000149E-006  0.9196795E+02  0.7546771E-02  0.1303033E+00
         -2   -1    0    0    0  501 -0.00000000000E+00  0.00000000000E+00  0.28610156969E+02  0.28610156969E+02  0.00000000000E+00 0.  1.
          2   -1    0    0  502    0  0.00000000000E+00 -0.00000000000E+00 -0.62689435277E+03  0.62689435277E+03  0.00000000000E+00 0. -1.
         23    2    1    2    0    0  0.18237505144E+02  0.61564722001E+01 -0.61069414504E+02  0.10385758701E+03  0.81770509645E+02 0.  0.
         23    2    1    2    0    0 -0.95427690635E+01 -0.29837848278E+02 -0.47626948752E+03  0.48568682235E+03  0.89876042589E+02 0.  0.
        -11    1    4    4    0    0 -0.14107328059E+02  0.30007912252E+02 -0.12482281069E+03  0.12915194761E+03  0.00000000000E+00 0.  1.
         11    1    4    4    0    0  0.45645589960E+01 -0.59845760530E+02 -0.35144667683E+03  0.35653487474E+03  0.00000000000E+00 0. -1.
        -13    1    3    3    0    0 -0.13236644201E+02 -0.30640998378E+02 -0.36840740680E+02  0.49712369740E+02  0.00000000000E+00 0. -1.
         13    1    3    3    0    0  0.31474149345E+02  0.36797470578E+02 -0.24228673824E+02  0.54145217270E+02  0.00000000000E+00 0.  1.
         21    1    1    2  502  501 -0.86947360806E+01  0.23681376078E+02 -0.60945293783E+02  0.65960100385E+02  0.00000000000E+00 0. -1.
<scales pt_clust_5="13000.00000" pt_clust_6="13000.00000" pt_clust_7="13000.00000" pt_clust_8="13000.00000" pt_clust_9="25.22709"></scales>
<clustering>
<clus scale="   25.227">  2  9  1 -1</clus>
<clus scale="   81.771">  7  8 -1 -1</clus>
<clus scale="   84.064">  1  7  2 -1</clus>
<clus scale="   89.876">  5  6 -1 -1</clus>
<clus scale="   25.227">  2  5  1 -1</clus>
</clustering>
</event>
<event>
 9    1  0.9000149E-006  0.1216385E+03  0.7546771E-02  0.1240638E+00
          2   -1    0    0  502    0  0.00000000000E+00  0.00000000000E+00  0.91462097028E+03  0.91462097028E+03  0.00000000000E+00 0. -1.
         -2   -1    0    0    0  501 -0.00000000000E+00 -0.00000000000E+00 -0.32576874638E+02  0.32576874638E+02  0.00000000000E+00 0.  1.
         23    2    1    2    0    0  0.21996174870E+02 -0.92782827631E+02  0.17249604134E+03  0.21756599390E+03  0.92128131503E+02 0.  0.
         23    2    1    2    0    0 -0.20326071485E+02  0.30608970834E+02  0.54265966052E+03  0.55153043694E+03  0.91412567198E+02 0.  0.
        -11    1    4    4    0    0  0.15734659820E+02  0.53472633183E+02  0.31843381602E+03  0.32327542005E+03  0.00000000000E+00 0. -1.
         11    1    4    4    0    0 -0.36060731306E+02 -0.22863662348E+02  0.22422584450E+03  0.22825501690E+03  0.00000000000E+00 0.  1.
        -13    1    3    3    0    0 -0.33468197258E+02 -0.49379136792E+02  0.58378842213E+02  0.83465613256E+02  0.00000000000E+00 0.  1.
         13    1    3    3    0    0  0.55464372128E+02 -0.43403690839E+02  0.11411719912E+03  0.13410038065E+03  0.00000000000E+00 0. -1.
         21    1    1    2  502  501 -0.16701033853E+01  0.62173856797E+02  0.16688839378E+03  0.17810141407E+03  0.00000000000E+00 0. -1.
<scales pt_clust_5="13000.00000" pt_clust_6="13000.00000" pt_clust_7="13000.00000" pt_clust_8="13000.00000" pt_clust_9="62.19628"></scales>
<clustering>
<clus scale="   62.196">  1  9  2 -1</clus>
<clus scale="   91.413">  5  6 -1 -1</clus>
<clus scale="   92.128">  7  8 -1 -1</clus>
<clus scale="  121.097">  1  5  2 -1</clus>
<clus scale="   62.196">  1  5  2 -1</clus>
</clustering>
</event>
<event>
 9    1  0.9000149E-006  0.9651083E+02  0.7546771E-02  0.1289980E+00
         -3   -1    0    0    0  501 -0.00000000000E+00  0.00000000000E+00  0.16246280283E+03  0.16246280283E+03  0.00000000000E+00 0.  1.
          3   -1    0    0  502    0  0.00000000000E+00 -0.00000000000E+00 -0.73536121799E+02  0.73536121799E+02  0.00000000000E+00 0. -1.
         23    2    1    2    0    0  0.27644982664E+02  0.28614375845E+01  0.71343054002E+02  0.11845200387E+03  0.90380379375E+02 0.  0.
         23    2    1    2    0    0 -0.74407776666E+01  0.35407195666E+01  0.10829712573E+02  0.95302530982E+02  0.94325966043E+02 0.  0.
        -11    1    4    4    0    0 -0.62706991641E+01 -0.29182501692E+02  0.41042924648E+02  0.50749007248E+02  0.00000000000E+00 0.  1.
         11    1    4    4    0    0 -0.11700785025E+01  0.32723221258E+02 -0.30213212075E+02  0.44553523734E+02  0.00000000000E+00 0. -1.
        -13    1    3    3    0    0 -0.19701396007E+02  0.20713695760E+02 -0.27614827601E+01  0.28719818657E+02  0.00000000000E+00 0. -1.
         13    1    3    3    0    0  0.47346378670E+02 -0.17852258176E+02  0.74104536763E+02  0.89732185218E+02  0.00000000000E+00 0.  1.
         21    1    1    2  502  501 -0.20204204997E+02 -0.64021571511E+01  0.67539144518E+01  0.22244389768E+02  0.00000000000E+00 0. -1.
<scales pt_clust_5="13000.00000" pt_clust_6="13000.00000" pt_clust_7="13000.00000" pt_clust_8="13000.00000" pt_clust_9="21.19428"></scales>
<clustering>
<clus scale="   21.194">  2  9  1 -1</clus>
<clus scale="   90.380">  7  8 -1 -1</clus>
<clus scale="   92.658">  1  7  2 -1</clus>
<clus scale="   94.326">  5  6 -1 -1</clus>
<clus scale="   21.194">  2  5  1 -1</clus>
</clustering>
</event>
<event>
 9    1  0.9000149E-006  0.1153602E+03  0.7546771E-02  0.1251100E+00
         -1   -1    0    0    0  501 -0.00000000000E+00  0.00000000000E+00  0.67569181870E+02  0.67569181870E+02  0.00000000000E+00 0.  1.
          1   -1    0    0  502    0  0.00000000000E+00 -0.00000000000E+00 -0.45498380644E+03  0.45498380644E+03  0.00000000000E+00 0. -1.
         23    2    1    2    0    0 -0.18060729767E+02  0.73135306630E+02 -0.89071310389E+02  0.14705016330E+03  0.89527030316E+02 0.  0.
         23    2    1    2    0    0  0.44872894081E+02 -0.57378055817E+02 -0.31820379758E+03  0.33860266363E+03  0.89957151541E+02 0.  0.
        -11    1    3    3    0    0  0.21596084139E+02  0.43585574714E+02 -0.84349059281E+02  0.97369692281E+02  0.00000000000E+00 0. -1.
         11    1    3    3    0    0 -0.39656813905E+02  0.29549731916E+02 -0.47222511085E+01  0.49680471022E+02  0.00000000000E+00 0.  1.
        -13    1    4    4    0    0 -0.39239184130E+01 -0.63718044771E+02 -0.14265211766E+03  0.15628503779E+03  0.00000000000E+00 0.  1.
         13    1    4    4    0    0  0.48796812494E+02  0.63399889542E+01 -0.17555167992E+03  0.18231762584E+03  0.00000000000E+00 0. -1.
         21    1    1    2  502  501 -0.26812164315E+02 -0.15757250813E+02  0.19860483400E+02  0.36900161372E+02  0.00000000000E+00 0.  1.
<scales pt_clust_5="13000.00000" pt_clust_6="13000.00000" pt_clust_7="13000.00000" pt_clust_8="13000.00000" pt_clust_9="31.09957"></scales>
<clustering>
<clus scale="   31.100">  1  9  2 -1</clus>
<clus scale="   89.527">  5  6 -1 -1</clus>
<clus scale="   89.957">  7  8 -1 -1</clus>
<clus scale="  115.025">  1  5  2 -1</clus>
<clus scale="  115.360">  2  5  1 -1</clus>
</clustering>
</event>
<event>
 9    1  0.9000149E-006  0.9230407E+02  0.7546771E-02  0.1297848E+00
          2   -1    0    0  502    0  0.00000000000E+00  0.00000000000E+00  0.33223452579E+03  0.33223452579E+03  0.00000000000E+00 0. -1.
         -2   -1    0    0    0  501 -0.00000000000E+00 -0.00000000000E+00 -0.48521256143E+02  0.48521256143E+02  0.00000000000E+00 0.  1.
         23    2    1    2    0    0 -0.27899371131E+02 -0.20040770449E+02  0.10327960354E+03  0.14143020507E+03  0.90309573184E+02 0.  0.
         23    2    1    2    0    0 -0.14675627324E+01 -0.32662211031E+02  0.11458014572E+03  0.15001316334E+03  0.91139264937E+02 0.  0.
        -13    1    4    4    0    0 -0.35282315210E+02  0.15009040421E+02  0.47450690143E+02  0.61005582171E+02  0.00000000000E+00 0.  1.
         13    1    4    4    0    0  0.33814752478E+02 -0.47671251452E+02  0.67129455574E+02  0.89007581170E+02  0.00000000000E+00 0. -1.
        -13    1    3    3    0    0 -0.53184955412E+02 -0.27420809345E+02  0.37612148450E+02  0.70676827732E+02  0.00000000000E+00 0. -1.
         13    1    3    3    0    0  0.25285584280E+02  0.73800388963E+01  0.65667455089E+02  0.70753377336E+02  0.00000000000E+00 0.  1.
         21    1    1    2  502  501  0.29366933864E+02  0.52702981480E+02  0.65853520386E+02  0.89312413519E+02  0.00000000000E+00 0.  1.
<scales pt_clust_5="13000.00000" pt_clust_6="13000.00000" pt_clust_7="13000.00000" pt_clust_8="13000.00000" pt_clust_9="60.33259"></scales>
<clustering>
<clus scale="   60.333">  2  9  1 -1</clus>
<clus scale="   90.310">  7  8 -1 -1</clus>
<clus scale="   91.139">  5  6 -1 -1</clus>
<clus scale="   91.485">  2  7  1 -1</clus>
<clus scale="   92.304">  1  5  2 -1</clus>
</clustering>
</event>
<event>
 9    1  0.9000149E-006  0.1393619E+03  0.7546771E-02  0.1232718E+00
         -2   -1    0    0    0  501 -0.00000000000E+00  0.00000000000E+00  0.32815811825E+02  0.32815811825E+02  0.00000000000E+00 0.  1.
          2   -1    0    0  502    0  0.00000000000E+00 -0.00000000000E+00 -0.13636536935E+04  0.13636536935E+04  0.00000000000E+00 0. -1.
         23    2    1    2    0    0  0.31767622682E+02 -0.24327055035E+01 -0.89842989321E+02  0.13050677858E+03  0.89135608031E+02 0.  0.
         23    2    1    2    0    0 -0.11004549713E+03  0.58395643612E+02 -0.73694037146E+03  0.75280560061E+03  0.90083841985E+02 0.  0.
        -11    1    3    3    0    0 -0.23452304925E+02 -0.24402018522E+02 -0.22253001818E+02  0.40505125653E+02  0.00000000000E+00 0.  1.
         11    1    3    3    0    0  0.55219927607E+02  0.21969313019E+02 -0.67589987504E+02  0.90001652930E+02  0.00000000000E+00 0. -1.
        -13    1    4    4    0    0 -0.64246449847E+02 -0.14641635148E+02 -0.26603526721E+03  0.27407434611E+03  0.00000000000E+00 0.  1.
         13    1    4    4    0    0 -0.45799047278E+02  0.73037278761E+02 -0.47090510426E+03  0.47873125450E+03  0.00000000000E+00 0. -1.
         21    1    1    2  502  501  0.78277874444E+02 -0.55962938109E+02 -0.50405452091E+03  0.51315712615E+03  0.00000000000E+00 0.  1.
<scales pt_clust_5="13000.00000" pt_clust_6="13000.00000" pt_clust_7="13000.00000" pt_clust_8="13000.00000" pt_clust_9="106.33266"></scales>
<clustering>
<clus scale="   89.136">  5  6 -1 -1</clus>
<clus scale="   90.084">  7  8 -1 -1</clus>
<clus scale="   94.659">  1  5  2 -1</clus>
<clus scale="  106.333">  2  9  1 -1</clus>
<clus scale="  106.333">  2  5  1 -1</clus>
</clustering>
</event>
<event>
 9    1  0.9000149E-006  0.2010421E+03  0.7546771E-02  0.1148887E+00
          1   -1    0    0  502    0  0.00000000000E+00  0.00000000000E+00  0.43388327801E+03  0.43388327801E+03  0.00000000000E+00 0. -1.
         -1   -1    0    0    0  501 -0.00000000000E+00 -0.00000000000E+00 -0.18268577982E+03  0.18268577982E+03  0.00000000000E+00 0.  1.
         23    2    1    2    0    0  0.39255551604E+02 -0.18815327942E+03 -0.70448836916E+02  0.22384039817E+03  0.90547392799E+02 0.  0.
         23    2    1    2    0    0 -0.76693017977E+01  0.13929632133E+03  0.22144339399E+03  0.27686096382E+03  0.90291379531E+02 0.  0.
        -11    1    4    4    0    0 -0.23164704008E+02  0.12107207287E+03  0.22086154376E+03  0.25293254408E+03  0.00000000000E+00 0. -1.
         11    1    4    4    0    0  0.15495402211E+02  0.18224248460E+02  0.58185022998E+00  0.23928419741E+02  0.00000000000E+00 0.  1.
        -13    1    3    3    0    0  0.53947758213E+01 -0.13670006216E+03 -0.84317570539E+02  0.16070302829E+03  0.00000000000E+00 0.  1.
         13    1    3    3    0    0  0.33860775783E+02 -0.51453217260E+02  0.13868733623E+02  0.63137369880E+02  0.00000000000E+00 0. -1.
         21    1    1    2  502  501 -0.31586249806E+02  0.48856958088E+02  0.10020294112E+03  0.11586769584E+03  0.00000000000E+00 0. -1.
<scales pt_clust_5="13000.00000" pt_clust_6="13000.00000" pt_clust_7="13000.00000" pt_clust_8="13000.00000" pt_clust_9="58.17812"></scales>
<clustering>
<clus scale="   58.178">  1  9  2 -1</clus>
<clus scale="   90.291">  5  6 -1 -1</clus>
<clus scale="   90.547">  7  8 -1 -1</clus>
<clus scale="  200.927">  1  5  2 -1</clus>
<clus scale="   58.178">  1  5  2 -1</clus>
</clustering>
</event>
<event>
 9    1  0.9000149E-006  0.9141888E+02  0.7546771E-02  0.1300020E+00
         -4   -1    0    0    0  501 -0.00000000000E+00  0.00000000000E+00  0.13744294489E+03  0.13744294489E+03  0.00000000000E+00 0.  1.
          4   -1    0    0  502    0  0.00000000000E+00 -0.00000000000E+00 -0.18828662139E+03  0.18828662139E+03  0.00000000000E+00 0. -1.
         23    2    1    2    0    0  0.17102459589E+02  0.52197250871E+02  0.58814709789E+02  0.12176172778E+03  0.91376699115E+02 0.  0.
         23    2    1    2    0    0  0.15828973798E+00  0.81619441964E+01 -0.10810118754E+03  0.14116982290E+03  0.90423502263E+02 0.  0.
        -11    1    3    3    0    0  0.46589681768E+02  0.29405545123E+02  0.36847825438E+01  0.55216502548E+02  0.00000000000E+00 0.  1.
         11    1    3    3    0    0 -0.29487222179E+02  0.22791705748E+02  0.55129927245E+02  0.66545225229E+02  0.00000000000E+00 0. -1.
        -13    1    4    4    0    0  0.27748836545E+02 -0.24511130715E+02 -0.17433936347E+02  0.40923533512E+02  0.00000000000E+00 0.  1.
         13    1    4    4    0    0 -0.27590546807E+02  0.32673074912E+02 -0.90667251191E+02  0.10024628939E+03  0.00000000000E+00 0. -1.
         21    1    1    2  502  501 -0.17260749327E+02 -0.60359195068E+02 -0.15571987526E+01  0.62798015610E+02  0.00000000000E+00 0. -1.
<scales pt_clust_5="13000.00000" pt_clust_6="13000.00000" pt_clust_7="13000.00000" pt_clust_8="13000.00000" pt_clust_9="62.77871"></scales>
<clustering>
<clus scale="   62.779">  1  9  2 -1</clus>
<clus scale="   90.424">  7  8 -1 -1</clus>
<clus scale="   90.466">  2  7  1 -1</clus>
<clus scale="   91.377">  5  6 -1 -1</clus>
<clus scale="   90.466">  2  5  1 -1</clus>
</clustering>
</event>
<event>
 9    1  0.9000149E-006  0.1121119E+03  0.7546771E-02  0.1263552E+00
          1   -1    0    0  502    0  0.00000000000E+00  0.00000000000E+00  0.12141581725E+03  0.12141581725E+03  0.00000000000E+00 0. -1.
         -1   -1    0    0    0  501 -0.00000000000E+00 -0.00000000000E+00 -0.15413245714E+03  0.15413245714E+03  0.00000000000E+00 0.  1.
         23    2    1    2    0    0  0.37113715090E+02  0.93623225086E+01 -0.69593532702E+02  0.11961091867E+03  0.89433948473E+02 0.  0.
         23    2    1    2    0    0 -0.47738040898E+02  0.19202560940E+02  0.13327041526E+02  0.11742210730E+03  0.10470282877E+03 0.  0.
        -11    1    4    4    0    0 -0.53945981932E+02 -0.33447640600E+02  0.10459064456E+02  0.64329663901E+02  0.00000000000E+00 0.  1.
         11    1    4    4    0    0  0.62079410337E+01  0.52650201540E+02  0.28679770696E+01  0.53092443404E+02  0.00000000000E+00 0. -1.
        -11    1    3    3    0    0 -0.23166193087E+02  0.25787278295E+02 -0.27915065385E+02  0.44507382528E+02  0.00000000000E+00 0.  1.
         11    1    3    3    0    0  0.60279908178E+02 -0.16424955787E+02 -0.41678467317E+02  0.75103536138E+02  0.00000000000E+00 0. -1.
         21    1    1    2  502  501  0.10624325808E+02 -0.28564883449E+02  0.23549851291E+02  0.38515248423E+02  0.00000000000E+00 0.  1.
<scales pt_clust_5="13000.00000" pt_clust_6="13000.00000" pt_clust_7="13000.00000" pt_clust_8="13000.00000" pt_clust_9="30.47669"></scales>
<clustering>
<clus scale="   30.477">  1  9  2 -1</clus>
<clus scale="   89.434">  7  8 -1 -1</clus>
<clus scale="   98.004">  2  7  1 -1</clus>
<clus scale="  104.703">  5  6 -1 -1</clus>
<clus scale="   30.477">  1  5  2 -1</clus>
</clustering>
</event>
<event>
 9    1  0.9000149E-006  0.2328525E+03  0.7546771E-02  0.1125555E+00
          2   -1    0    0  502    0  0.00000000000E+00  0.00000000000E+00  0.31759311389E+03  0.31759311389E+03  0.00000000000E+00 0. -1.
         -2   -1    0    0    0  501 -0.00000000000E+00 -0.00000000000E+00 -0.88540681413E+03  0.88540681413E+03  0.00000000000E+00 0.  1.
         23    2    1    2    0    0 -0.20063885412E+03  0.60773645729E+02 -0.80444284096E+03  0.83614901379E+03  0.89819280191E+02 0.  0.
         23    2    1    2    0    0  0.18930536233E+03 -0.77341010425E+02  0.13983905822E+03  0.26800130280E+03  0.10223298881E+03 0.  0.
        -13    1    3    3    0    0 -0.42430788956E+02 -0.62219259068E+01 -0.71811492584E+02  0.83641943309E+02  0.00000000000E+00 0. -1.
         13    1    3    3    0    0 -0.15820806516E+03  0.66995571636E+02 -0.73263134837E+03  0.75250707048E+03  0.00000000000E+00 0.  1.
        -13    1    4    4    0    0  0.15426639677E+03 -0.12330571205E+02  0.96123490162E+02  0.18218092524E+03  0.00000000000E+00 0. -1.
         13    1    4    4    0    0  0.35038965553E+02 -0.65010439219E+02  0.43715568062E+02  0.85820377565E+02  0.00000000000E+00 0.  1.
         21    1    1    2  502  501  0.11333491793E+02  0.16567364696E+02  0.96790082492E+02  0.98849611420E+02  0.00000000000E+00 0. -1.
<scales pt_clust_5="13000.00000" pt_clust_6="13000.00000" pt_clust_7="13000.00000" pt_clust_8="13000.00000" pt_clust_9="20.07301"></scales>
<clustering>
<clus scale="   20.073">  1  9  2 -1</clus>
<clus scale="   89.819">  5  6 -1 -1</clus>
<clus scale="  102.233">  7  8 -1 -1</clus>
<clus scale="  227.676">  2  5  1 -1</clus>
<clus scale="   20.073">  1  5  2 -1</clus>
</clustering>
</event>
<event>
 9    1  0.9000149E-006  0.9275437E+02  0.7546771E-02  0.1300312E+00
         -2   -1    0    0    0  501 -0.00000000000E+00  0.00000000000E+00  0.17611781679E+03  0.17611781679E+03  0.00000000000E+00 0.  1.
          2   -1    0    0  502    0  0.00000000000E+00 -0.00000000000E+00 -0.35971679862E+03  0.35971679862E+03  0.00000000000E+00 0. -1.
         23    2    1    2    0    0 -0.24772475295E+01  0.49579959578E+01  0.11920008337E+03  0.15107923544E+03  0.92658280936E+02 0.  0.
         23    2    1    2    0    0 -0.80521365242E+02  0.18124914341E+02 -0.26596660031E+03  0.29106321948E+03  0.84660276838E+02 0.  0.
        -13    1    4    4    0    0 -0.90856620425E+02 -0.62171293743E+01 -0.21866172162E+03  0.23686816307E+03  0.00000000000E+00 0. -1.
         13    1    4    4    0    0  0.10335255183E+02  0.24342043715E+02 -0.47304878688E+02  0.54195056413E+02  0.00000000000E+00 0.  1.
        -13    1    3    3    0    0  0.27899370160E+02 -0.29857271021E+02  0.30240214098E+02  0.50836030892E+02  0.00000000000E+00 0.  1.
         13    1    3    3    0    0 -0.30376617689E+02  0.34815266978E+02  0.88959869268E+02  0.10024320454E+03  0.00000000000E+00 0. -1.
         21    1    1    2  502  501  0.82998612772E+02 -0.23082910299E+02 -0.36832464889E+02  0.93692160503E+02  0.00000000000E+00 0.  1.
<scales pt_clust_5="13000.00000" pt_clust_6="13000.00000" pt_clust_7="13000.00000" pt_clust_8="13000.00000" pt_clust_9="86.14865"></scales>
<clustering>
<clus scale="   84.660">  5  6 -1 -1</clus>
<clus scale="   86.149">  2  9  1 -1</clus>
<clus scale="   86.149">  2  5  1 -1</clus>
<clus scale="   92.658">  7  8 -1 -1</clus>
<clus scale="   86.149">  2  5  1 -1</clus>
</clustering>
</event>
<event>
 9    1  0.9000149E-006  0.1060844E+03  0.7546771E-02  0.1268596E+00
         -1   -1    0    0    0  501 -0.00000000000E+00  0.00000000000E+00  0.69967849527E+02  0.69967849527E+02  0.00000000000E+00 0.  1.
          1   -1    0    0  502    0  0.00000000000E+00 -0.00000000000E+00 -0.21983967196E+03  0.21983967196E+03  0.00000000000E+00 0. -1.
         23    2    1    2    0    0 -0.50961415679E+02  0.27203043942E+02 -0.50301818865E+02  0.11891871468E+03  0.90963268582E+02 0.  0.
         23    2    1    2    0    0  0.28492406489E+02 -0.47529669304E+02 -0.60468776986E+02  0.12142231318E+03  0.89532220206E+02 0.  0.
        -13    1    4    4    0    0  0.39710803647E+02 -0.19155780740E+02  0.94901932254E+01  0.45099397219E+02  0.00000000000E+00 0.  1.
         13    1    4    4    0    0 -0.11218397158E+02 -0.28373888563E+02 -0.69958970211E+02  0.76322915956E+02  0.00000000000E+00 0. -1.
        -13    1    3    3    0    0 -0.59362124506E+02 -0.75768077624E+01 -0.56852721861E+02  0.82543938752E+02  0.00000000000E+00 0. -1.
         13    1    3    3    0    0  0.84007088272E+01  0.34779851705E+02  0.65509029957E+01  0.36374775923E+02  0.00000000000E+00 0.  1.
         21    1    1    2  502  501  0.22469009190E+02  0.20326625361E+02 -0.39101226581E+02  0.49466493637E+02  0.00000000000E+00 0. -1.
<scales pt_clust_5="13000.00000" pt_clust_6="13000.00000" pt_clust_7="13000.00000" pt_clust_8="13000.00000" pt_clust_9="30.29898"></scales>
<clustering>
<clus scale="   30.299">  2  9  1 -1</clus>
<clus scale="   89.532">  5  6 -1 -1</clus>
<clus scale="   90.963">  7  8 -1 -1</clus>
<clus scale="  104.860">  2  5  1 -1</clus>
<clus scale="   30.299">  2  5  1 -1</clus>
</clustering>
</event>
<event>
 9    1  0.9000149E-006  0.1056378E+03  0.7546771E-02  0.1270607E+00
         -1   -1    0    0    0  501 -0.00000000000E+00  0.00000000000E+00  0.29126878859E+03  0.29126878859E+03  0.00000000000E+00 0.  1.
          1   -1    0    0  502    0  0.00000000000E+00 -0.00000000000E+00 -0.56022593546E+02  0.56022593546E+02  0.00000000000E+00 0. -1.
         23    2    1    2    0    0  0.32540706163E+02 -0.22540161506E+02  0.17403353329E+03  0.19917940507E+03  0.88418370565E+02 0.  0.
         23    2    1    2    0    0 -0.54980971724E+02  0.13888610823E+02  0.38621159004E+02  0.11511514625E+03  0.92434312956E+02 0.  0.
        -11    1    4    4    0    0 -0.79144630761E+02  0.22979762679E+02  0.32441591016E+02  0.88568611250E+02  0.00000000000E+00 0. -1.
         11    1    4    4    0    0  0.24163659037E+02 -0.90911518565E+01  0.61795679876E+01  0.26546535003E+02  0.00000000000E+00 0.  1.
        -13    1    3    3    0    0  0.41952348646E+02 -0.43089216117E+02  0.16356590056E+03  0.17427129404E+03  0.00000000000E+00 0.  1.
         13    1    3    3    0    0 -0.94116424830E+01  0.20549054611E+02  0.10467632738E+02  0.24908111024E+02  0.00000000000E+00 0. -1.
         21    1    1    2  502  501  0.22440265561E+02  0.86515506830E+01  0.22591502743E+02  0.32996830815E+02  0.00000000000E+00 0.  1.
<scales pt_clust_5="13000.00000" pt_clust_6="13000.00000" pt_clust_7="13000.00000" pt_clust_8="13000.00000" pt_clust_9="24.05026"></scales>
<clustering>
<clus scale="   24.050">  1  9  2 -1</clus>
<clus scale="   88.418">  7  8 -1 -1</clus>
<clus scale="   92.434">  5  6 -1 -1</clus>
<clus scale="  102.142">  1  7  2 -1</clus>
<clus scale="  105.638">  2  5  1 -1</clus>
</clustering>
</event>
<event>
 9    1  0.9000149E-006  0.1138506E+03  0.7546771E-02  0.1254073E+00
         -2   -1    0    0    0  501 -0.00000000000E+00  0.00000000000E+00  0.11891646817E+03  0.11891646817E+03  0.00000000000E+00 0. -1.
          2   -1    0    0  502    0  0.00000000000E+00 -0.00000000000E+00 -0.22322091090E+03  0.22322091090E+03  0.00000000000E+00 0.  1.
         23    2    1    2    0    0 -0.46865726867E+01 -0.82039396715E+02  0.45963242413E+02  0.13102346846E+03  0.91115877092E+02 0.  0.
         23    2    1    2    0    0 -0.15343056824E+02  0.61788131655E+02 -0.14287842388E+03  0.18168771518E+03  0.92428346477E+02 0.  0.
        -11    1    3    3    0    0  0.31998812249E+02 -0.58315076974E+02 -0.14736539778E+01  0.66533779720E+02  0.00000000000E+00 0.  1.
         11    1    3    3    0    0 -0.36685384936E+02 -0.23724319741E+02  0.47436896390E+02  0.64489688743E+02  0.00000000000E+00 0. -1.
        -13    1    4    4    0    0 -0.33479571003E+02  0.21990969512E+02 -0.92856130501E+01  0.41118207942E+02  0.00000000000E+00 0.  1.
         13    1    4    4    0    0  0.18136514179E+02  0.39797162143E+02 -0.13359281083E+03  0.14056950724E+03  0.00000000000E+00 0. -1.
         21    1    1    2  502  501  0.20029629511E+02  0.20251265059E+02 -0.73892612706E+01  0.29426195422E+02  0.00000000000E+00 0. -1.
<scales pt_clust_5="13000.00000" pt_clust_6="13000.00000" pt_clust_7="13000.00000" pt_clust_8="13000.00000" pt_clust_9="28.48332"></scales>
<clustering>
<clus scale="   28.483">  1  9  2 -1</clus>
<clus scale="   91.116">  5  6 -1 -1</clus>
<clus scale="   92.428">  7  8 -1 -1</clus>
<clus scale="  112.788">  1  5  2 -1</clus>
<clus scale="  113.851">  2  5  1 -1</clus>
</clustering>
</event>
<event>
 9    1  0.9000149E-006  0.1612050E+03  0.7546771E-02  0.1188911E+00
         -3   -1    0    0    0  501 -0.00000000000E+00  0.00000000000E+00  0.63689068192E+03  0.63689068192E+03  0.00000000000E+00 0.  1.
          3   -1    0    0  502    0  0.00000000000E+00 -0.00000000000E+00 -0.93232352098E+02  0.93232352098E+02  0.00000000000E+00 0. -1.
         23    2    1    2    0    0  0.35621924635E+02  0.12238251162E+03  0.51446465801E+03  0.53928131715E+03  0.99519113825E+02 0.  0.
         23    2    1    2    0    0 -0.77970803351E+01 -0.12603891109E+03  0.40707260085E+02  0.16050767770E+03  0.90327360247E+02 0.  0.
        -11    1    3    3    0    0  0.25031168439E+02  0.51254364111E+01  0.24603771424E+02  0.35470763455E+02  0.00000000000E+00 0. -1.
         11    1    3    3    0    0  0.10590756196E+02  0.11725707521E+03  0.48986088659E+03  0.50381055369E+03  0.00000000000E+00 0.  1.
        -11    1    4    4    0    0 -0.48429788330E+02 -0.71780578106E+02  0.14319722538E+02  0.87766452842E+02  0.00000000000E+00 0.  1.
         11    1    4    4    0    0  0.40632707995E+02 -0.54258332979E+02  0.26387537547E+02  0.72741224862E+02  0.00000000000E+00 0. -1.
         21    1    1    2  502  501 -0.27824844300E+02  0.36563994669E+01 -0.11513588273E+02  0.30334039169E+02  0.00000000000E+00 0. -1.
<scales pt_clust_5="13000.00000" pt_clust_6="13000.00000" pt_clust_7="13000.00000" pt_clust_8="13000.00000" pt_clust_9="28.06406"></scales>
<clustering>
<clus scale="   28.064">  2  9  1 -1</clus>
<clus scale="   90.327">  7  8 -1 -1</clus>
<clus scale="   99.519">  5  6 -1 -1</clus>
<clus scale="  155.699">  2  7  1 -1</clus>
<clus scale="   28.064">  2  5  1 -1</clus>
</clustering>
</event>
<event>
 9    1  0.9000149E-006  0.9687154E+02  0.7546771E-02  0.1288458E+00
         -1   -1    0    0    0  501 -0.00000000000E+00  0.00000000000E+00  0.58086134480E+03  0.58086134480E+03  0.00000000000E+00 0.  1.
          1   -1    0    0  502    0  0.00000000000E+00 -0.00000000000E+00 -0.24205034373E+02  0.24205034373E+02  0.00000000000E+00 0. -1.
         23    2    1    2    0    0  0.30491404231E+02  0.35886279191E+02  0.25063352736E+03  0.27019266161E+03  0.89271264031E+02 0.  0.
         23    2    1    2    0    0  0.70380731831E+01 -0.23195957339E+02  0.19450063001E+03  0.21652382713E+03  0.92002639806E+02 0.  0.
        -11    1    4    4    0    0 -0.18509409748E+02 -0.43224711642E+02  0.16848371915E+03  0.17492208999E+03  0.00000000000E+00 0.  1.
         11    1    4    4    0    0  0.25547482931E+02  0.20028754302E+02  0.26016910855E+02  0.41601737145E+02  0.00000000000E+00 0. -1.
        -13    1    3    3    0    0  0.50115260641E+02  0.54193302447E+02  0.17459367258E+03  0.18955580678E+03  0.00000000000E+00 0. -1.
         13    1    3    3    0    0 -0.19623856410E+02 -0.18307023256E+02  0.76039854784E+02  0.80636854827E+02  0.00000000000E+00 0.  1.
         21    1    1    2  502  501 -0.37529477414E+02 -0.12690321852E+02  0.11152215305E+03  0.11834989043E+03  0.00000000000E+00 0. -1.
<scales pt_clust_5="13000.00000" pt_clust_6="13000.00000" pt_clust_7="13000.00000" pt_clust_8="13000.00000" pt_clust_9="39.61699"></scales>
<clustering>
<clus scale="   39.617">  1  9  2 -1</clus>
<clus scale="   89.271">  7  8 -1 -1</clus>
<clus scale="   92.003">  5  6 -1 -1</clus>
<clus scale="   94.281">  1  7  2 -1</clus>
<clus scale="   96.872">  2  5  1 -1</clus>
</clustering>
</event>
<event>
 9    1  0.9000149E-006  0.1144054E+03  0.7546771E-02  0.1253325E+00
          3   -1    0    0  502    0  0.00000000000E+00  0.00000000000E+00  0.26362672722E+03  0.26362672722E+03  0.00000000000E+00 0. -1.
         -3   -1    0    0    0  501 -0.00000000000E+00 -0.00000000000E+00 -0.74719749770E+02  0.74719749770E+02  0.00000000000E+00 0.  1.
         23    2    1    2    0    0  0.45330900212E+02  0.84639732667E+02  0.92916808978E+02  0.16019947362E+03  0.88383047566E+02 0.  0.
         23    2    1    2    0    0 -0.22138044055E+02 -0.44317651967E+02  0.72577463279E+02  0.12607077527E+03  0.90400248510E+02 0.  0.
        -11    1    4    4    0    0  0.30150788925E+02 -0.32567064899E+01  0.44614303373E+02  0.53945456485E+02  0.00000000000E+00 0.  1.
         11    1    4    4    0    0 -0.52288832980E+02 -0.41060945477E+02  0.27963159906E+02  0.72125318785E+02  0.00000000000E+00 0. -1.
        -13    1    3    3    0    0  0.53516134142E+01  0.66760390730E+02  0.11787200844E+02  0.68003879597E+02  0.00000000000E+00 0.  1.
         13    1    3    3    0    0  0.39979286797E+02  0.17879341937E+02  0.81129608134E+02  0.92195594021E+02  0.00000000000E+00 0. -1.
         21    1    1    2  502  501 -0.23192856157E+02 -0.40322080700E+02  0.23412705190E+02  0.52076228099E+02  0.00000000000E+00 0.  1.
<scales pt_clust_5="13000.00000" pt_clust_6="13000.00000" pt_clust_7="13000.00000" pt_clust_8="13000.00000" pt_clust_9="46.51644"></scales>
<clustering>
<clus scale="   46.516">  2  9  1 -1</clus>
<clus scale="   88.383">  7  8 -1 -1</clus>
<clus scale="   90.400">  5  6 -1 -1</clus>
<clus scale="  112.818">  2  7  1 -1</clus>
<clus scale="  114.405">  1  5  2 -1</clus>
</clustering>
</event>
<event>
 9    1  0.9000149E-006  0.1022315E+03  0.7546771E-02  0.1276369E+00
         -1   -1    0    0    0  501 -0.00000000000E+00  0.00000000000E+00  0.23630539019E+02  0.23630539019E+02  0.00000000000E+00 0.  1.
          1   -1    0    0  502    0  0.00000000000E+00 -0.00000000000E+00 -0.79938980856E+03  0.79938980856E+03  0.00000000000E+00 0. -1.
         23    2    1    2    0    0 -0.53446429377E+01  0.49009079712E+02 -0.16259988100E+03  0.19288152873E+03  0.91291334318E+02 0.  0.
         23    2    1    2    0    0 -0.34977099350E+02 -0.37052055877E+02 -0.43959376927E+03  0.45155036034E+03  0.89770783761E+02 0.  0.
        -11    1    4    4    0    0 -0.56914762698E+02  0.21353281768E+01 -0.28136526353E+03  0.28707187490E+03  0.00000000000E+00 0.  1.
         11    1    4    4    0    0  0.21937663348E+02 -0.39187384054E+02 -0.15822850574E+03  0.16447848544E+03  0.00000000000E+00 0. -1.
        -13    1    3    3    0    0  0.19190307054E+02  0.24549005745E+02 -0.50484213532E+01  0.31565932998E+02  0.00000000000E+00 0.  1.
         13    1    3    3    0    0 -0.24534949991E+02  0.24460073967E+02 -0.15755145964E+03  0.16131559573E+03  0.00000000000E+00 0. -1.
         21    1    1    2  502  501  0.40321742288E+02 -0.11957023835E+02 -0.17356561927E+03  0.17858845851E+03  0.00000000000E+00 0. -1.
<scales pt_clust_5="13000.00000" pt_clust_6="13000.00000" pt_clust_7="13000.00000" pt_clust_8="13000.00000" pt_clust_9="42.05726"></scales>
<clustering>
<clus scale="   42.057">  2  9  1 -1</clus>
<clus scale="   89.771">  5  6 -1 -1</clus>
<clus scale="   91.291">  7  8 -1 -1</clus>
<clus scale="  100.876">  2  5  1 -1</clus>
<clus scale="   42.057">  2  5  1 -1</clus>
</clustering>
</event>
<event>
 9    1  0.9000149E-006  0.9659262E+02  0.7546771E-02  0.1291847E+00
          1   -1    0    0  502    0  0.00000000000E+00  0.00000000000E+00  0.12034920717E+03  0.12034920717E+03  0.00000000000E+00 0. -1.
         -1   -1    0    0    0  501 -0.00000000000E+00 -0.00000000000E+00 -0.26983375761E+03  0.26983375761E+03  0.00000000000E+00 0.  1.
         23    2    1    2    0    0  0.32639273123E+02  0.65617577212E+01 -0.22372001387E+03  0.24135877325E+03  0.84232024806E+02 0.  0.
         23    2    1    2    0    0 -0.47483904139E-01  0.51534797464E+01  0.41026797998E+02  0.10084203888E+03  0.91974768511E+02 0.  0.
        -11    1    4    4    0    0  0.19341074051E+02  0.30965121213E+02 -0.12282650804E+02  0.38519857060E+02  0.00000000000E+00 0.  1.
         11    1    4    4    0    0 -0.19388557956E+02 -0.25811641466E+02  0.53309448802E+02  0.62322181817E+02  0.00000000000E+00 0. -1.
        -13    1    3    3    0    0  0.41355672172E+02  0.35220151528E+02 -0.18244297392E+03  0.19035805585E+03  0.00000000000E+00 0.  1.
         13    1    3    3    0    0 -0.87163990485E+01 -0.28658393807E+02 -0.41277039955E+02  0.51000717401E+02  0.00000000000E+00 0. -1.
         21    1    1    2  502  501 -0.32591789219E+02 -0.11715237468E+02  0.33208665428E+02  0.47982152650E+02  0.00000000000E+00 0. -1.
<scales pt_clust_5="13000.00000" pt_clust_6="13000.00000" pt_clust_7="13000.00000" pt_clust_8="13000.00000" pt_clust_9="34.63339"></scales>
<clustering>
<clus scale="   34.633">  1  9  2 -1</clus>
<clus scale="   84.232">  7  8 -1 -1</clus>
<clus scale="   89.251">  2  7  1 -1</clus>
<clus scale="   91.975">  5  6 -1 -1</clus>
<clus scale="   34.633">  1  5  2 -1</clus>
</clustering>
</event>
<event>
 9    1  0.9000149E-006  0.1110839E+03  0.7546771E-02  0.1258922E+00
         -2   -1    0    0    0  501 -0.00000000000E+00  0.00000000000E+00  0.93339108877E+02  0.93339108877E+02  0.00000000000E+00 0.  1.
          2   -1    0    0  502    0  0.00000000000E+00 -0.00000000000E+00 -0.40854833207E+03  0.40854833207E+03  0.00000000000E+00 0. -1.
         23    2    1    2    0    0  0.65903381737E+02  0.77177981955E+01  0.43031587603E+02  0.12102570154E+03  0.91611586435E+02 0.  0.
         23    2    1    2    0    0 -0.37331445938E+02  0.41835105969E+01 -0.28079495717E+03  0.29745995939E+03  0.90694436700E+02 0.  0.
        -11    1    3    3    0    0  0.27896266916E+02 -0.41301089249E+01 -0.27910249679E+02  0.39676712877E+02  0.00000000000E+00 0. -1.
         11    1    3    3    0    0  0.38007114822E+02  0.11847907120E+02  0.70941837282E+02  0.81348988667E+02  0.00000000000E+00 0.  1.
        -11    1    4    4    0    0 -0.47849327739E+02  0.37429082458E+02 -0.20892045524E+03  0.21757355307E+03  0.00000000000E+00 0. -1.
         11    1    4    4    0    0  0.10517881801E+02 -0.33245571861E+02 -0.71874501936E+02  0.79886406318E+02  0.00000000000E+00 0.  1.
         21    1    1    2  502  501 -0.28571935800E+02 -0.11901308792E+02 -0.77445853629E+02  0.83401780021E+02  0.00000000000E+00 0. -1.
<scales pt_clust_5="13000.00000" pt_clust_6="13000.00000" pt_clust_7="13000.00000" pt_clust_8="13000.00000" pt_clust_9="30.95152"></scales>
<clustering>
<clus scale="   30.952">  2  9  1 -1</clus>
<clus scale="   90.694">  7  8 -1 -1</clus>
<clus scale="   91.612">  5  6 -1 -1</clus>
<clus scale="  110.329">  2  7  1 -1</clus>
<clus scale="   30.952">  2  5  1 -1</clus>
</clustering>
</event>
<event>
 9    1  0.9000149E-006  0.1357897E+03  0.7546771E-02  0.1219829E+00
         -2   -1    0    0    0  501 -0.00000000000E+00  0.00000000000E+00  0.91464595907E+03  0.91464595907E+03  0.00000000000E+00 0.  1.
          2   -1    0    0  502    0  0.00000000000E+00 -0.00000000000E+00 -0.47816157464E+02  0.47816157464E+02  0.00000000000E+00 0. -1.
         23    2    1    2    0    0 -0.10592832505E+03 -0.99814642222E+02  0.59717355027E+03  0.62173591953E+03  0.93570997841E+02 0.  0.
         23    2    1    2    0    0  0.27268833267E+02  0.38180134436E+02  0.17782481649E+03  0.20500906241E+03  0.90585530722E+02 0.  0.
        -11    1    4    4    0    0  0.29331335531E+02 -0.23822551728E+02  0.47705484615E+02  0.60857657507E+02  0.00000000000E+00 0. -1.
         11    1    4    4    0    0 -0.20625022640E+01  0.62002686164E+02  0.13011933188E+03  0.14415140490E+03  0.00000000000E+00 0.  1.
        -11    1    3    3    0    0 -0.60276326744E+02 -0.11074353019E+03  0.43680770965E+03  0.45464089154E+03  0.00000000000E+00 0.  1.
         11    1    3    3    0    0 -0.45651998310E+02  0.10928887972E+02  0.16036584062E+03  0.16709502799E+03  0.00000000000E+00 0. -1.
         21    1    1    2  502  501  0.78659491786E+02  0.61634507787E+02  0.91831434843E+02  0.13571713460E+03  0.00000000000E+00 0. -1.
<scales pt_clust_5="13000.00000" pt_clust_6="13000.00000" pt_clust_7="13000.00000" pt_clust_8="13000.00000" pt_clust_9="99.93062"></scales>
<clustering>
<clus scale="   90.586">  5  6 -1 -1</clus>
<clus scale="   93.571">  7  8 -1 -1</clus>
<clus scale="   99.931">  2  9  1 -1</clus>
<clus scale="  133.750">  2  5  1 -1</clus>
<clus scale="   99.931">  2  5  1 -1</clus>
</clustering>
</event>
<event>
 9    1  0.9000149E-006  0.1194008E+03  0.7546771E-02  0.1244123E+00
         -4   -1    0    0    0  501 -0.00000000000E+00  0.00000000000E+00  0.36704295409E+03  0.36704295409E+03  0.00000000000E+00 0.  1.
          4   -1    0    0  502    0  0.00000000000E+00 -0.00000000000E+00 -0.11817581849E+03  0.11817581849E+03  0.00000000000E+00 0. -1.
         23    2    1    2    0    0 -0.24141642190E+02  0.39285844053E+02  0.28729080592E+03  0.30522968996E+03  0.92211496232E+02 0.  0.
         23    2    1    2    0    0  0.25428248147E+02 -0.75423624369E+02 -0.62066526552E+02  0.13678515719E+03  0.92317964627E+02 0.  0.
        -11    1    4    4    0    0  0.19334448365E+02 -0.17236703638E+02  0.22258443742E+02  0.34152059436E+02  0.00000000000E+00 0.  1.
         11    1    4    4    0    0  0.60937997819E+01 -0.58186920730E+02 -0.84324970294E+02  0.10263309776E+03  0.00000000000E+00 0. -1.
        -13    1    3    3    0    0 -0.51652596665E+02  0.42091002712E+02  0.25046840677E+03  0.25917960190E+03  0.00000000000E+00 0.  1.
         13    1    3    3    0    0  0.27510954474E+02 -0.28051586594E+01  0.36822399145E+02  0.46050088057E+02  0.00000000000E+00 0. -1.
         21    1    1    2  502  501 -0.12866059571E+01  0.36137780316E+02  0.23642856242E+02  0.43203925427E+02  0.00000000000E+00 0.  1.
<scales pt_clust_5="13000.00000" pt_clust_6="13000.00000" pt_clust_7="13000.00000" pt_clust_8="13000.00000" pt_clust_9="36.16068"></scales>
<clustering>
<clus scale="   36.161">  1  9  2 -1</clus>
<clus scale="   92.211">  7  8 -1 -1</clus>
<clus scale="   92.318">  5  6 -1 -1</clus>
<clus scale="  119.318">  1  7  2 -1</clus>
<clus scale="  119.401">  2  5  1 -1</clus>
</clustering>
</event>
<event>
 9    1  0.9000149E-006  0.2344890E+03  0.7546771E-02  0.1123570E+00
          1   -1    0    0  502    0  0.00000000000E+00  0.00000000000E+00  0.12818675021E+03  0.12818675021E+03  0.00000000000E+00 0. -1.
         -1   -1    0    0    0  501 -0.00000000000E+00 -0.00000000000E+00 -0.85589254292E+03  0.85589254292E+03  0.00000000000E+00 0.  1.
         23    2    1    2    0    0  0.60856653246E+02  0.13289005446E+03 -0.50913507011E+03  0.53749206400E+03  0.91191558971E+02 0.  0.
         23    2    1    2    0    0 -0.13769017573E+03 -0.19422198064E+03 -0.63529899640E+02  0.26300440824E+03  0.91948400467E+02 0.  0.
        -11    1    3    3    0    0  0.31534682805E+02 -0.29661057004E+01 -0.68739104976E+02  0.75685524082E+02  0.00000000000E+00 0.  1.
         11    1    3    3    0    0  0.29321970441E+02  0.13585616016E+03 -0.44039596513E+03  0.46180653992E+03  0.00000000000E+00 0. -1.
        -13    1    4    4    0    0 -0.62439324132E+02 -0.50146737125E+02 -0.60611729332E+02  0.10043478568E+03  0.00000000000E+00 0.  1.
         13    1    4    4    0    0 -0.75250851593E+02 -0.14407524352E+03 -0.29181703073E+01  0.16256962256E+03  0.00000000000E+00 0. -1.
         21    1    1    2  502  501  0.76833522479E+02  0.61331926179E+02 -0.15504082295E+03  0.18358282089E+03  0.00000000000E+00 0.  1.
<scales pt_clust_5="13000.00000" pt_clust_6="13000.00000" pt_clust_7="13000.00000" pt_clust_8="13000.00000" pt_clust_9="98.31071"></scales>
<clustering>
<clus scale="   91.192">  5  6 -1 -1</clus>
<clus scale="   91.948">  7  8 -1 -1</clus>
<clus scale="   98.311">  2  9  1 -1</clus>
<clus scale="  234.193">  2  5  1 -1</clus>
<clus scale="  234.489">  1  5  2 -1</clus>
</clustering>
</event>
<event>
 9    1  0.9000149E-006  0.2311034E+03  0.7546771E-02  0.1125911E+00
         -3   -1    0    0    0  501 -0.00000000000E+00  0.00000000000E+00  0.48438467932E+03  0.48438467932E+03  0.00000000000E+00 0.  1.
          3   -1    0    0  502    0  0.00000000000E+00 -0.00000000000E+00 -0.13440938613E+03  0.13440938613E+03  0.00000000000E+00 0. -1.
         23    2    1    2    0    0 -0.13779252124E+03  0.17599877708E+03  0.21987699807E+03  0.32657968878E+03  0.91356720615E+02 0.  0.
         23    2    1    2    0    0  0.14713356735E+03 -0.13456973361E+03  0.10543604277E+03  0.24310381287E+03  0.90694017845E+02 0.  0.
        -11    1    4    4    0    0  0.80947904793E+02 -0.93924965595E+02  0.10936722147E+03  0.16533496782E+03  0.00000000000E+00 0. -1.
         11    1    4    4    0    0  0.66185662554E+02 -0.40644768015E+02 -0.39311786944E+01  0.77768845052E+02  0.00000000000E+00 0.  1.
        -13    1    3    3    0    0 -0.49706015062E+02  0.32469047195E+02  0.14742648509E+02  0.61174117436E+02  0.00000000000E+00 0. -1.
         13    1    3    3    0    0 -0.88086506174E+02  0.14352972989E+03  0.20513434956E+03  0.26540557134E+03  0.00000000000E+00 0.  1.
         21    1    1    2  502  501 -0.93410461116E+01 -0.41429043471E+02  0.24662252353E+02  0.49110563797E+02  0.00000000000E+00 0. -1.
<scales pt_clust_5="13000.00000" pt_clust_6="13000.00000" pt_clust_7="13000.00000" pt_clust_8="13000.00000" pt_clust_9="42.46906"></scales>
<clustering>
<clus scale="   42.469">  2  9  1 -1</clus>
<clus scale="   90.694">  5  6 -1 -1</clus>
<clus scale="   91.357">  7  8 -1 -1</clus>
<clus scale="  230.842">  2  5  1 -1</clus>
<clus scale="   42.469">  2  5  1 -1</clus>
</clustering>
</event>
<event>
 9    1  0.9000149E-006  0.2240838E+03  0.7546771E-02  0.1135107E+00
          1   -1    0    0  502    0  0.00000000000E+00  0.00000000000E+00  0.17570415271E+03  0.17570415271E+03  0.00000000000E+00 0. -1.
         -1   -1    0    0    0  501 -0.00000000000E+00 -0.00000000000E+00 -0.30050744115E+03  0.30050744115E+03  0.00000000000E+00 0.  1.
         23    2    1    2    0    0 -0.17417971986E+03 -0.79482918963E+02 -0.11775970361E+03  0.23941754283E+03  0.82445756726E+02 0.  0.
         23    2    1    2    0    0  0.15303219786E+03  0.80758675229E+02 -0.11822616162E+02  0.21507575502E+03  0.12718879250E+03 0.  0.
        -11    1    3    3    0    0 -0.11450772265E+03 -0.67713281949E+02 -0.11913779666E+03  0.17858029481E+03  0.00000000000E+00 0.  1.
         11    1    3    3    0    0 -0.59671997210E+02 -0.11769637013E+02  0.13780930561E+01  0.60837248023E+02  0.00000000000E+00 0. -1.
        -13    1    4    4    0    0  0.88416710348E+02  0.11185848059E+03 -0.12346589230E+01  0.14258807360E+03  0.00000000000E+00 0.  1.
         13    1    4    4    0    0  0.64615487511E+02 -0.31099805363E+02 -0.10587957239E+02  0.72487681425E+02  0.00000000000E+00 0. -1.
         21    1    1    2  502  501  0.21147522005E+02 -0.12757562668E+01  0.47790313279E+01  0.21718296007E+02  0.00000000000E+00 0.  1.
<scales pt_clust_5="13000.00000" pt_clust_6="13000.00000" pt_clust_7="13000.00000" pt_clust_8="13000.00000" pt_clust_9="21.18597"></scales>
<clustering>
<clus scale="   21.186">  1  9  2 -1</clus>
<clus scale="   82.446">  5  6 -1 -1</clus>
<clus scale="  127.189">  7  8 -1 -1</clus>
<clus scale="  202.074">  2  5  1 -1</clus>
<clus scale="   21.186">  1  5  2 -1</clus>
</clustering>
</event>
<event>
 9    1  0.9000149E-006  0.9518318E+02  0.7546771E-02  0.1291399E+00
         -2   -1    0    0    0  501 -0.00000000000E+00  0.00000000000E+00  0.58199302091E+02  0.58199302091E+02  0.00000000000E+00 0.  1.
          2   -1    0    0  502    0  0.00000000000E+00 -0.00000000000E+00 -0.63682831925E+03  0.63682831925E+03  0.00000000000E+00 0. -1.
         23    2    1    2    0    0  0.18183638025E+02 -0.18595550750E+02  0.51029064347E+01  0.95617817404E+02  0.91871040876E+02 0.  0.
         23    2    1    2    0    0  0.13414148921E+02  0.32238578627E+02 -0.35346654293E+03  0.36658648491E+03  0.90707158515E+02 0.  0.
        -13    1    3    3    0    0  0.10527131063E+02 -0.48122027657E+02  0.28737603800E+02  0.57029815942E+02  0.00000000000E+00 0.  1.
         13    1    3    3    0    0  0.76565069626E+01  0.29526476906E+02 -0.23634697365E+02  0.38588001463E+02  0.00000000000E+00 0. -1.
        -13    1    4    4    0    0  0.40357193893E+02 -0.65626036333E+01 -0.24341414919E+03  0.24682426723E+03  0.00000000000E+00 0.  1.
         13    1    4    4    0    0 -0.26943044972E+02  0.38801182260E+02 -0.11005239374E+03  0.11976221768E+03  0.00000000000E+00 0. -1.
         21    1    1    2  502  501 -0.31597786946E+02 -0.13643027877E+02 -0.23026538066E+03  0.23282331902E+03  0.00000000000E+00 0. -1.
<scales pt_clust_5="13000.00000" pt_clust_6="13000.00000" pt_clust_7="13000.00000" pt_clust_8="13000.00000" pt_clust_9="34.41733"></scales>
<clustering>
<clus scale="   34.417">  2  9  1 -1</clus>
<clus scale="   90.707">  7  8 -1 -1</clus>
<clus scale="   91.871">  5  6 -1 -1</clus>
<clus scale="   94.060">  2  7  1 -1</clus>
<clus scale="   34.417">  2  5  1 -1</clus>
</clustering>
</event>
<event>
 9    1  0.9000149E-006  0.9952397E+02  0.7546771E-02  0.1283980E+00
         -1   -1    0    0    0  501 -0.00000000000E+00  0.00000000000E+00  0.20725215740E+02  0.20725215740E+02  0.00000000000E+00 0.  1.
          1   -1    0    0  502    0  0.00000000000E+00 -0.00000000000E+00 -0.11777064118E+04  0.11777064118E+04  0.00000000000E+00 0. -1.
         23    2    1    2    0    0 -0.30448449695E+02  0.41678340366E+01 -0.15789536638E+03  0.18470191985E+03  0.90770995045E+02 0.  0.
         23    2    1    2    0    0  0.79564304657E+02 -0.23241486661E+02 -0.70070223171E+03  0.71072980181E+03  0.85338082756E+02 0.  0.
        -11    1    3    3    0    0 -0.41760381009E+02  0.39133181131E+02 -0.77842160100E+02  0.96616443614E+02  0.00000000000E+00 0. -1.
         11    1    3    3    0    0  0.11311931314E+02 -0.34965347095E+02 -0.80053206278E+02  0.88085476231E+02  0.00000000000E+00 0.  1.
        -13    1    4    4    0    0  0.79624284792E+02  0.14714405527E+02 -0.48546875701E+03  0.49217522743E+03  0.00000000000E+00 0. -1.
         13    1    4    4    0    0 -0.59980135215E-01 -0.37955892188E+02 -0.21523347470E+03  0.21855457438E+03  0.00000000000E+00 0.  1.
         21    1    1    2  502  501 -0.49115854962E+02  0.19073652625E+02 -0.29838359798E+03  0.30299990590E+03  0.00000000000E+00 0. -1.
<scales pt_clust_5="13000.00000" pt_clust_6="13000.00000" pt_clust_7="13000.00000" pt_clust_8="13000.00000" pt_clust_9="52.68939"></scales>
<clustering>
<clus scale="   52.689">  2  9  1 -1</clus>
<clus scale="   85.338">  7  8 -1 -1</clus>
<clus scale="   90.771">  5  6 -1 -1</clus>
<clus scale="   94.595">  2  7  1 -1</clus>
<clus scale="   52.689">  2  5  1 -1</clus>
</clustering>
</event>
<event>
 9    1  0.9000149E-006  0.9083352E+02  0.7546771E-02  0.1300886E+00
          4   -1    0    0  502    0  0.00000000000E+00  0.00000000000E+00  0.26940088282E+03  0.26940088282E+03  0.00000000000E+00 0. -1.
         -4   -1    0    0    0  501 -0.00000000000E+00 -0.00000000000E+00 -0.99512441006E+02  0.99512441006E+02  0.00000000000E+00 0.  1.
         23    2    1    2    0    0  0.50898560811E+01  0.60539534798E+01 -0.56883004601E+02  0.10714437905E+03  0.90452665869E+02 0.  0.
         23    2    1    2    0    0 -0.21036383059E+02  0.20103417525E+02  0.19843248868E+03  0.22003650767E+03  0.90520358697E+02 0.  0.
        -11    1    3    3    0    0  0.40739704865E+02  0.24807635275E+02 -0.17494460789E+02  0.50805496541E+02  0.00000000000E+00 0.  1.
         11    1    3    3    0    0 -0.35649848784E+02 -0.18753681795E+02 -0.39388543812E+02  0.56338882513E+02  0.00000000000E+00 0. -1.
        -13    1    4    4    0    0  0.15917259241E+02  0.44879951236E+02  0.12965602456E+03  0.13812405247E+03  0.00000000000E+00 0.  1.
         13    1    4    4    0    0 -0.36953642300E+02 -0.24776533711E+02  0.68776464115E+02  0.81912455208E+02  0.00000000000E+00 0. -1.
         21    1    1    2  502  501  0.15946526978E+02 -0.26157371005E+02  0.28338957740E+02  0.41732437100E+02  0.00000000000E+00 0. -1.
<scales pt_clust_5="13000.00000" pt_clust_6="13000.00000" pt_clust_7="13000.00000" pt_clust_8="13000.00000" pt_clust_9="30.63494"></scales>
<clustering>
<clus scale="   30.635">  1  9  2 -1</clus>
<clus scale="   90.453">  5  6 -1 -1</clus>
<clus scale="   90.520">  7  8 -1 -1</clus>
<clus scale="   90.766">  2  5  1 -1</clus>
<clus scale="   30.635">  1  5  2 -1</clus>
</clustering>
</event>
<event>
 9    1  0.9000149E-006  0.1453853E+03  0.7546771E-02  0.1206899E+00
          1   -1    0    0  502    0  0.00000000000E+00  0.00000000000E+00  0.11050190483E+03  0.11050190483E+03  0.00000000000E+00 0. -1.
         -1   -1    0    0    0  501 -0.00000000000E+00 -0.00000000000E+00 -0.31220546089E+03  0.31220546089E+03  0.00000000000E+00 0.  1.
         23    2    1    2    0    0 -0.20969220737E+02 -0.11674833243E+03 -0.19634785142E+03  0.24594454487E+03  0.88692497150E+02 0.  0.
         23    2    1    2    0    0 -0.66518812903E+00  0.10088211108E+03 -0.30707266576E+02  0.13985094851E+03  0.91857001740E+02 0.  0.
        -11    1    4    4    0    0 -0.28218104787E+02  0.87149526347E+02  0.61712331381E+01  0.91811684979E+02  0.00000000000E+00 0. -1.
         11    1    4    4    0    0  0.27552916658E+02  0.13732584733E+02 -0.36878499715E+02  0.48039263535E+02  0.00000000000E+00 0.  1.
        -13    1    3    3    0    0 -0.35990408736E+02 -0.86653945620E+01 -0.68469295509E+02  0.77836000741E+02  0.00000000000E+00 0. -1.
         13    1    3    3    0    0  0.15021187999E+02 -0.10808293787E+03 -0.12787855591E+03  0.16810854413E+03  0.00000000000E+00 0.  1.
         21    1    1    2  502  501  0.21634408866E+02  0.15866221352E+02  0.25351561931E+02  0.36911872335E+02  0.00000000000E+00 0. -1.
<scales pt_clust_5="13000.00000" pt_clust_6="13000.00000" pt_clust_7="13000.00000" pt_clust_8="13000.00000" pt_clust_9="26.82880"></scales>
<clustering>
<clus scale="   26.829">  1  9  2 -1</clus>
<clus scale="   88.692">  7  8 -1 -1</clus>
<clus scale="   91.857">  5  6 -1 -1</clus>
<clus scale="  143.407">  2  7  1 -1</clus>
<clus scale="   26.829">  1  5  2 -1</clus>
</clustering>
</event>
<event>
 9    1  0.9000149E-006  0.1055354E+03  0.7546771E-02  0.1269878E+00
          1   -1    0    0  502    0  0.00000000000E+00  0.00000000000E+00  0.85988491752E+03  0.85988491752E+03  0.00000000000E+00 0. -1.
         -1   -1    0    0    0  501 -0.00000000000E+00 -0.00000000000E+00 -0.17658279758E+02  0.17658279758E+02  0.00000000000E+00 0.  1.
         23    2    1    2    0    0  0.93128393542E+01  0.39266215657E+02  0.24197417301E+03  0.26207833558E+03  0.92222496752E+02 0.  0.
         23    2    1    2    0    0 -0.93008546551E+01 -0.62098695858E+02  0.49233330065E+03  0.50515680091E+03  0.94066788224E+02 0.  0.
        -11    1    4    4    0    0 -0.18875401036E+02 -0.85544437276E+02  0.36991459424E+03  0.38014594375E+03  0.00000000000E+00 0. -1.
         11    1    4    4    0    0  0.95745463811E+01  0.23445741417E+02  0.12241870641E+03  0.12501085716E+03  0.00000000000E+00 0.  1.
        -13    1    3    3    0    0  0.38985421864E+02  0.39633608916E+02  0.21467461300E+03  0.22175634273E+03  0.00000000000E+00 0.  1.
         13    1    3    3    0    0 -0.29672582510E+02 -0.36739325901E+00  0.27299560006E+02  0.40321992847E+02  0.00000000000E+00 0. -1.
         21    1    1    2  502  501 -0.11984699030E-01  0.22832480201E+02  0.10791916410E+03  0.11030806079E+03  0.00000000000E+00 0. -1.
<scales pt_clust_5="13000.00000" pt_clust_6="13000.00000" pt_clust_7="13000.00000" pt_clust_8="13000.00000" pt_clust_9="22.83248"></scales>
<clustering>
<clus scale="   22.832">  1  9  2 -1</clus>
<clus scale="   92.222">  7  8 -1 -1</clus>
<clus scale="   94.067">  5  6 -1 -1</clus>
<clus scale="  103.895">  2  7  1 -1</clus>
<clus scale="   22.832">  1  5  2 -1</clus>
</clustering>
</event>
<event>
 9    1  0.9000149E-006  0.9519039E+02  0.7546771E-02  0.1292101E+00
          2   -1    0    0  502    0  0.00000000000E+00  0.00000000000E+00  0.80510290909E+02  0.80510290909E+02  0.00000000000E+00 0.  1.
         -2   -1    0    0    0  501 -0.00000000000E+00 -0.00000000000E+00 -0.33310433148E+03  0.33310433148E+03  0.00000000000E+00 0. -1.
         23    2    1    2    0    0 -0.19760757335E+02  0.13469054714E+02 -0.16833373623E+03  0.19286869081E+03  0.91050437536E+02 0.  0.
         23    2    1    2    0    0  0.15075919513E+02  0.24971656883E+02 -0.12875546976E+03  0.16175901982E+03  0.93472683190E+02 0.  0.
        -11    1    3    3    0    0 -0.50153621211E+02 -0.83831261060E+01 -0.62276131564E+02  0.80398874908E+02  0.00000000000E+00 0.  1.
         11    1    3    3    0    0  0.30392863876E+02  0.21852180820E+02 -0.10605760467E+03  0.11246981590E+03  0.00000000000E+00 0. -1.
        -13    1    4    4    0    0  0.44476962064E+02 -0.89773520696E+01 -0.95966710207E+02  0.10615273182E+03  0.00000000000E+00 0. -1.
         13    1    4    4    0    0 -0.29401042551E+02  0.33949008953E+02 -0.32788759549E+02  0.55606287997E+02  0.00000000000E+00 0.  1.
         21    1    1    2  502  501  0.46848378217E+01 -0.38440711597E+02  0.44495165419E+02  0.58986911761E+02  0.00000000000E+00 0.  1.
<scales pt_clust_5="13000.00000" pt_clust_6="13000.00000" pt_clust_7="13000.00000" pt_clust_8="13000.00000" pt_clust_9="38.72513"></scales>
<clustering>
<clus scale="   38.725">  1  9  2 -1</clus>
<clus scale="   91.050">  5  6 -1 -1</clus>
<clus scale="   92.813">  2  5  1 -1</clus>
<clus scale="   93.473">  7  8 -1 -1</clus>
<clus scale="   38.725">  1  5  2 -1</clus>
</clustering>
</event>
<event>
 9    1  0.9000149E-006  0.9530856E+02  0.7546771E-02  0.1293541E+00
          2   -1    0    0  502    0  0.00000000000E+00  0.00000000000E+00  0.84671803931E+02  0.84671803931E+02  0.00000000000E+00 0. -1.
         -2   -1    0    0    0  501 -0.00000000000E+00 -0.00000000000E+00 -0.15082573211E+03  0.15082573211E+03  0.00000000000E+00 0.  1.
         23    2    1    2    0    0  0.11296488404E+02 -0.27397700644E+02 -0.77508891628E+02  0.12387816202E+03  0.91977856536E+02 0.  0.
         23    2    1    2    0    0 -0.18383395146E+02  0.82228101171E+01  0.12301247883E+01  0.88806810988E+02  0.86484522590E+02 0.  0.
        -13    1    3    3    0    0  0.49976592523E+02 -0.17061227363E+02 -0.60697361598E+02  0.80454427996E+02  0.00000000000E+00 0.  1.
         13    1    3    3    0    0 -0.38680104119E+02 -0.10336473281E+02 -0.16811530031E+02  0.43423734023E+02  0.00000000000E+00 0. -1.
        -13    1    4    4    0    0  0.23589225734E+02 -0.23381567183E+02 -0.10763983102E+02  0.34914360754E+02  0.00000000000E+00 0.  1.
         13    1    4    4    0    0 -0.41972620881E+02  0.31604377300E+02  0.11994107890E+02  0.53892450234E+02  0.00000000000E+00 0. -1.
         21    1    1    2  502  501  0.70869067425E+01  0.19174890527E+02  0.10124838666E+02  0.22812563028E+02  0.00000000000E+00 0. -1.
<scales pt_clust_5="13000.00000" pt_clust_6="13000.00000" pt_clust_7="13000.00000" pt_clust_8="13000.00000" pt_clust_9="20.44262"></scales>
<clustering>
<clus scale="   20.443">  1  9  2 -1</clus>
<clus scale="   86.485">  7  8 -1 -1</clus>
<clus scale="   90.019">  1  7  2 -1</clus>
<clus scale="   91.978">  5  6 -1 -1</clus>
<clus scale="   20.443">  1  5  2 -1</clus>
</clustering>
</event>
<event>
 9    1  0.9000149E-006  0.1308005E+03  0.7546771E-02  0.1227824E+00
         -1   -1    0    0    0  501 -0.00000000000E+00  0.00000000000E+00  0.30807244479E+03  0.30807244479E+03  0.00000000000E+00 0.  1.
          1   -1    0    0  502    0  0.00000000000E+00 -0.00000000000E+00 -0.18747974606E+03  0.18747974606E+03  0.00000000000E+00 0. -1.
         23    2    1    2    0    0  0.52757656624E+02 -0.37883315322E+02  0.95814338609E+02  0.14956145050E+03  0.94708627284E+02 0.  0.
         23    2    1    2    0    0 -0.15558350222E+03 -0.12486306991E+02  0.10324665003E+03  0.20718322652E+03  0.88898169742E+02 0.  0.
        -13    1    4    4    0    0 -0.73358650447E+02 -0.49646958559E+02  0.60995557696E+02  0.10754891979E+03  0.00000000000E+00 0.  1.
         13    1    4    4    0    0 -0.82224851772E+02  0.37160651567E+02  0.42251092333E+02  0.99634306728E+02  0.00000000000E+00 0. -1.
        -13    1    3    3    0    0  0.49426730240E+01 -0.43941369226E+02  0.22056347661E+01  0.44273454471E+02  0.00000000000E+00 0. -1.
         13    1    3    3    0    0  0.47814983600E+02  0.60580539039E+01  0.93608703842E+02  0.10528799603E+03  0.00000000000E+00 0.  1.
         21    1    1    2  502  501  0.10282584560E+03  0.50369622314E+02 -0.78468289910E+02  0.13880751383E+03  0.00000000000E+00 0.  1.
<scales pt_clust_5="13000.00000" pt_clust_6="13000.00000" pt_clust_7="13000.00000" pt_clust_8="13000.00000" pt_clust_9="114.50001"></scales>
<clustering>
<clus scale="   88.898">  5  6 -1 -1</clus>
<clus scale="   94.709">  7  8 -1 -1</clus>
<clus scale="  114.500">  2  9  1 -1</clus>
<clus scale="  126.657">  2  5  1 -1</clus>
<clus scale="  114.500">  2  5  1 -1</clus>
</clustering>
</event>
<event>
 9    1  0.9000149E-006  0.1071437E+03  0.7546771E-02  0.1272829E+00
          1   -1    0    0  502    0  0.00000000000E+00  0.00000000000E+00  0.83842573703E+02  0.83842573703E+02  0.00000000000E+00 0. -1.
         -1   -1    0    0    0  501 -0.00000000000E+00 -0.00000000000E+00 -0.27703725931E+03  0.27703725931E+03  0.00000000000E+00 0.  1.
         23    2    1    2    0    0  0.55284387633E+02 -0.21331261129E+01 -0.18435553385E+03  0.21587650320E+03  0.97748596038E+02 0.  0.
         23    2    1    2    0    0 -0.15087316934E+02 -0.31207947336E+02 -0.18903270798E+02  0.91817634714E+02  0.82895001589E+02 0.  0.
        -11    1    4    4    0    0 -0.11972939528E+02 -0.57403138635E+02 -0.26525338647E+02  0.64358878148E+02  0.00000000000E+00 0.  1.
         11    1    4    4    0    0 -0.31143774063E+01  0.26195191299E+02  0.76220678496E+01  0.27458756566E+02  0.00000000000E+00 0. -1.
        -13    1    3    3    0    0  0.10225529546E+02  0.19707183326E+02  0.25793341535E+01  0.22351453953E+02  0.00000000000E+00 0. -1.
         13    1    3    3    0    0  0.45058858087E+02 -0.21840309438E+02 -0.18693486801E+03  0.19352504924E+03  0.00000000000E+00 0.  1.
         21    1    1    2  502  501 -0.40197070698E+02  0.33341073449E+02  0.10064119043E+02  0.53185695103E+02  0.00000000000E+00 0. -1.
<scales pt_clust_5="13000.00000" pt_clust_6="13000.00000" pt_clust_7="13000.00000" pt_clust_8="13000.00000" pt_clust_9="52.22482"></scales>
<clustering>
<clus scale="   52.225">  1  9  2 -1</clus>
<clus scale="   82.895">  5  6 -1 -1</clus>
<clus scale="   93.790">  1  5  2 -1</clus>
<clus scale="   97.749">  7  8 -1 -1</clus>
<clus scale="   52.225">  1  5  2 -1</clus>
</clustering>
</event>
<event>
 9    1  0.9000149E-006  0.9851416E+02  0.7546771E-02  0.1284104E+00
          1   -1    0    0  502    0  0.00000000000E+00  0.00000000000E+00  0.81664486904E+02  0.81664486904E+02  0.00000000000E+00 0. -1.
         -1   -1    0    0    0  501 -0.00000000000E+00 -0.00000000000E+00 -0.41647928375E+03  0.41647928375E+03  0.00000000000E+00 0.  1.
         23    2    1    2    0    0  0.33159338903E+02  0.75442903379E+01 -0.31334674432E+03  0.32789485073E+03  0.90401288070E+02 0.  0.
         23    2    1    2    0    0 -0.72365326155E+02 -0.35298335271E+02 -0.79158417540E+01  0.12033841138E+03  0.89084004172E+02 0.  0.
        -11    1    4    4    0    0 -0.54848300616E+02 -0.65072394950E+02 -0.10225761986E+02  0.85716502922E+02  0.00000000000E+00 0. -1.
         11    1    4    4    0    0 -0.17517025539E+02  0.29774059679E+02  0.23099202316E+01  0.34621908453E+02  0.00000000000E+00 0.  1.
        -11    1    3    3    0    0  0.62899527111E+02  0.50807917377E+01 -0.25045004130E+03  0.25827773451E+03  0.00000000000E+00 0.  1.
         11    1    3    3    0    0 -0.29740188208E+02  0.24634986002E+01 -0.62896703026E+02  0.69617116225E+02  0.00000000000E+00 0. -1.
         21    1    1    2  502  501  0.39205987252E+02  0.27754044933E+02 -0.13552210767E+02  0.49910508545E+02  0.00000000000E+00 0.  1.
<scales pt_clust_5="13000.00000" pt_clust_6="13000.00000" pt_clust_7="13000.00000" pt_clust_8="13000.00000" pt_clust_9="48.03537"></scales>
<clustering>
<clus scale="   48.035">  1  9  2 -1</clus>
<clus scale="   89.084">  5  6 -1 -1</clus>
<clus scale="   90.401">  7  8 -1 -1</clus>
<clus scale="   97.307">  1  5  2 -1</clus>
<clus scale="   48.035">  1  5  2 -1</clus>
</clustering>
</event>
<event>
 9    1  0.9000149E-006  0.1432770E+03  0.7546771E-02  0.1210212E+00
          1   -1    0    0  502    0  0.00000000000E+00  0.00000000000E+00  0.74167355020E+03  0.74167355020E+03  0.00000000000E+00 0. -1.
         -1   -1    0    0    0  501 -0.00000000000E+00 -0.00000000000E+00 -0.41422125750E+02  0.41422125750E+02  0.00000000000E+00 0.  1.
         23    2    1    2    0    0 -0.75977994139E+02  0.66526242008E+02  0.15359194940E+03  0.20738524899E+03  0.96019571502E+02 0.  0.
         23    2    1    2    0    0  0.75035849155E+02 -0.94743918075E+02  0.43126662907E+03  0.45691382017E+03  0.90402129640E+02 0.  0.
        -11    1    4    4    0    0  0.10038108546E+02 -0.56107968448E+02  0.84016331161E+02  0.10152640862E+03  0.00000000000E+00 0.  1.
         11    1    4    4    0    0  0.64997740609E+02 -0.38635949627E+02  0.34725029790E+03  0.35538741154E+03  0.00000000000E+00 0. -1.
        -13    1    3    3    0    0  0.53864561868E+01  0.21530672638E+02 -0.57262100950E+01  0.22921022154E+02  0.00000000000E+00 0. -1.
         13    1    3    3    0    0 -0.81364450326E+02  0.44995569370E+02  0.15931815949E+03  0.18446422684E+03  0.00000000000E+00 0.  1.
         21    1    1    2  502  501  0.94214498412E+00  0.28217676066E+02  0.11539284599E+03  0.11879660679E+03  0.00000000000E+00 0. -1.
<scales pt_clust_5="13000.00000" pt_clust_6="13000.00000" pt_clust_7="13000.00000" pt_clust_8="13000.00000" pt_clust_9="28.23340"></scales>
<clustering>
<clus scale="   28.233">  1  9  2 -1</clus>
<clus scale="   90.402">  5  6 -1 -1</clus>
<clus scale="   96.020">  7  8 -1 -1</clus>
<clus scale="  139.575">  1  5  2 -1</clus>
<clus scale="   28.233">  1  5  2 -1</clus>
</clustering>
</event>
<event>
 9    1  0.9000149E-006  0.1222380E+03  0.7546771E-02  0.1240350E+00
         -2   -1    0    0    0  501 -0.00000000000E+00  0.00000000000E+00  0.24207052775E+02  0.24207052775E+02  0.00000000000E+00 0.  1.
          2   -1    0    0  502    0  0.00000000000E+00 -0.00000000000E+00 -0.76340991340E+03  0.76340991340E+03  0.00000000000E+00 0. -1.
         23    2    1    2    0    0 -0.61621182183E+02 -0.64997167275E+02 -0.28850120465E+03  0.31553063831E+03  0.91130877233E+02 0.  0.
         23    2    1    2    0    0  0.39497585862E+02  0.51013062557E+02 -0.35462665510E+03  0.37251015354E+03  0.94028496431E+02 0.  0.
        -11    1    4    4    0    0 -0.15258314138E+01  0.64688647268E+02 -0.26786116232E+03  0.27556587511E+03  0.00000000000E+00 0.  1.
         11    1    4    4    0    0  0.41023417276E+02 -0.13675584711E+02 -0.86765492784E+02  0.96944278430E+02  0.00000000000E+00 0. -1.
        -13    1    3    3    0    0 -0.69818479050E+02 -0.19016866268E+02 -0.22732122525E+03  0.23856068550E+03  0.00000000000E+00 0. -1.
         13    1    3    3    0    0  0.81972968673E+01 -0.45980301007E+02 -0.61179979401E+02  0.76969952813E+02  0.00000000000E+00 0.  1.
         21    1    1    2  502  501  0.22123596321E+02  0.13984104718E+02 -0.96075000880E+02  0.99576174324E+02  0.00000000000E+00 0.  1.
<scales pt_clust_5="13000.00000" pt_clust_6="13000.00000" pt_clust_7="13000.00000" pt_clust_8="13000.00000" pt_clust_9="26.17267"></scales>
<clustering>
<clus scale="   26.173">  2  9  1 -1</clus>
<clus scale="   91.131">  7  8 -1 -1</clus>
<clus scale="   94.028">  5  6 -1 -1</clus>
<clus scale="  120.023">  1  7  2 -1</clus>
<clus scale="   26.173">  2  5  1 -1</clus>
</clustering>
</event>
<event>
 9    1  0.9000149E-006  0.9129784E+02  0.7546771E-02  0.1300458E+00
         -1   -1    0    0    0  501 -0.00000000000E+00  0.00000000000E+00  0.48217780228E+02  0.48217780228E+02  0.00000000000E+00 0.  1.
          1   -1    0    0  502    0  0.00000000000E+00 -0.00000000000E+00 -0.25365502452E+03  0.25365502452E+03  0.00000000000E+00 0. -1.
         23    2    1    2    0    0 -0.26585913582E+01 -0.17870962146E+02 -0.37710876511E+02  0.98824486332E+02  0.89541775142E+02 0.  0.
         23    2    1    2    0    0 -0.18118831467E+02  0.11237791310E+02 -0.14788343871E+03  0.17356201501E+03  0.88315806071E+02 0.  0.
        -11    1    4    4    0    0  0.33205731408E+02  0.16296903407E+02 -0.43259970897E+02  0.56917789319E+02  0.00000000000E+00 0.  1.
         11    1    4    4    0    0 -0.51324562875E+02 -0.50591120974E+01 -0.10462346781E+03  0.11664422569E+03  0.00000000000E+00 0. -1.
        -13    1    3    3    0    0 -0.25146229897E+02 -0.47281434936E+02 -0.28540898492E+02  0.60683192519E+02  0.00000000000E+00 0. -1.
         13    1    3    3    0    0  0.22487638539E+02  0.29410472790E+02 -0.91699780195E+01  0.38141293812E+02  0.00000000000E+00 0.  1.
         21    1    1    2  502  501  0.20777422826E+02  0.66331708356E+01 -0.19842929077E+02  0.29486303413E+02  0.00000000000E+00 0.  1.
<scales pt_clust_5="13000.00000" pt_clust_6="13000.00000" pt_clust_7="13000.00000" pt_clust_8="13000.00000" pt_clust_9="21.81055"></scales>
<clustering>
<clus scale="   21.811">  1  9  2 -1</clus>
<clus scale="   88.316">  5  6 -1 -1</clus>
<clus scale="   89.542">  7  8 -1 -1</clus>
<clus scale="   90.096">  2  5  1 -1</clus>
<clus scale="   90.096">  2  5  1 -1</clus>
</clustering>
</event>
<event>
 9    1  0.9000149E-006  0.1030884E+03  0.7546771E-02  0.1275657E+00
         -3   -1    0    0    0  501 -0.00000000000E+00  0.00000000000E+00  0.10380931696E+03  0.10380931696E+03  0.00000000000E+00 0.  1.
          3   -1    0    0  502    0  0.00000000000E+00 -0.00000000000E+00 -0.21388087901E+03  0.21388087901E+03  0.00000000000E+00 0. -1.
         23    2    1    2    0    0 -0.37315207885E+02  0.47101230509E+01  0.78060519957E+01  0.98119723904E+02  0.90288071043E+02 0.  0.
         23    2    1    2    0    0  0.48159670013E+02  0.58367268696E+02 -0.85197678310E+02  0.14770714409E+03  0.93982254470E+02 0.  0.
        -11    1    3    3    0    0 -0.52908221200E+02  0.35037492977E+02  0.84128078496E+01  0.64013132407E+02  0.00000000000E+00 0. -1.
         11    1    3    3    0    0  0.15593013315E+02 -0.30327369926E+02 -0.60675585390E+00  0.34106591497E+02  0.00000000000E+00 0.  1.
        -13    1    4    4    0    0  0.55169879425E+01  0.36470867483E+02 -0.92160762248E+02  0.99268159190E+02  0.00000000000E+00 0. -1.
         13    1    4    4    0    0  0.42642682071E+02  0.21896401213E+02  0.69630839382E+01  0.48438984901E+02  0.00000000000E+00 0.  1.
         21    1    1    2  502  501 -0.10844462128E+02 -0.63077391747E+02 -0.32679935739E+02  0.71863327980E+02  0.00000000000E+00 0. -1.
<scales pt_clust_5="13000.00000" pt_clust_6="13000.00000" pt_clust_7="13000.00000" pt_clust_8="13000.00000" pt_clust_9="64.00281"></scales>
<clustering>
<clus scale="   64.003">  2  9  1 -1</clus>
<clus scale="   90.288">  5  6 -1 -1</clus>
<clus scale="   93.982">  7  8 -1 -1</clus>
<clus scale="   99.732">  1  5  2 -1</clus>
<clus scale="   64.003">  2  5  1 -1</clus>
</clustering>
</event>
<event>
 9    1  0.9000149E-006  0.1544027E+03  0.7546771E-02  0.1195210E+00
         -2   -1    0    0    0  501 -0.00000000000E+00  0.00000000000E+00  0.11121444744E+03  0.11121444744E+03  0.00000000000E+00 0.  1.
          2   -1    0    0  502    0  0.00000000000E+00 -0.00000000000E+00 -0.37173532704E+03  0.37173532704E+03  0.00000000000E+00 0. -1.
         23    2    1    2    0    0 -0.13199013777E+03 -0.40121085462E+02 -0.34596354782E+02  0.16857470744E+03  0.90495448814E+02 0.  0.
         23    2    1    2    0    0  0.11138403745E+03 -0.26900978447E+02 -0.13043407121E+03  0.19590568218E+03  0.90751985861E+02 0.  0.
        -11    1    3    3    0    0 -0.11242039615E+03  0.60936548461E+01 -0.11013985020E+02  0.11312287994E+03  0.00000000000E+00 0. -1.
         11    1    3    3    0    0 -0.19569741615E+02 -0.46214740308E+02 -0.23582369762E+02  0.55451827492E+02  0.00000000000E+00 0.  1.
        -13    1    4    4    0    0  0.89829431777E+02 -0.46471935377E+02 -0.13253407405E+03  0.16671607114E+03  0.00000000000E+00 0.  1.
         13    1    4    4    0    0  0.21554605674E+02  0.19570956931E+02  0.21000028385E+01  0.29189611044E+02  0.00000000000E+00 0. -1.
         21    1    1    2  502  501  0.20606100318E+02  0.67022063908E+02 -0.95490453605E+02  0.11846938487E+03  0.00000000000E+00 0. -1.
<scales pt_clust_5="13000.00000" pt_clust_6="13000.00000" pt_clust_7="13000.00000" pt_clust_8="13000.00000" pt_clust_9="70.11825"></scales>
<clustering>
<clus scale="   70.118">  2  9  1 -1</clus>
<clus scale="   90.495">  5  6 -1 -1</clus>
<clus scale="   90.752">  7  8 -1 -1</clus>
<clus scale="  154.252">  1  5  2 -1</clus>
<clus scale="   70.118">  2  5  1 -1</clus>
</clustering>
</event>
<event>
 9    1  0.9000149E-006  0.9634711E+02  0.7546771E-02  0.1288886E+00
          2   -1    0    0  502    0  0.00000000000E+00  0.00000000000E+00  0.80152397929E+02  0.80152397929E+02  0.00000000000E+00 0. -1.
         -2   -1    0    0    0  501 -0.00000000000E+00 -0.00000000000E+00 -0.39427927931E+03  0.39427927931E+03  0.00000000000E+00 0.  1.
         23    2    1    2    0    0  0.10693804362E+02  0.47549710581E+02 -0.30187412389E+03  0.31853512688E+03  0.89226161807E+02 0.  0.
         23    2    1    2    0    0  0.58498884156E+01  0.11133020236E+02 -0.27781692238E+02  0.92979903264E+02  0.87836636168E+02 0.  0.
        -11    1    3    3    0    0 -0.19309276014E+02 -0.12268553539E+02 -0.25872006813E+02  0.34535869507E+02  0.00000000000E+00 0. -1.
         11    1    3    3    0    0  0.30003080375E+02  0.59818264119E+02 -0.27600211708E+03  0.28399925737E+03  0.00000000000E+00 0.  1.
        -13    1    4    4    0    0  0.40025821438E+02  0.16086143613E+02  0.73030631990E+01  0.43751172901E+02  0.00000000000E+00 0. -1.
         13    1    4    4    0    0 -0.34175933022E+02 -0.49531233769E+01 -0.35084755437E+02  0.49228730363E+02  0.00000000000E+00 0.  1.
         21    1    1    2  502  501 -0.16543692777E+02 -0.58682730817E+02  0.15528934754E+02  0.62916647093E+02  0.00000000000E+00 0. -1.
<scales pt_clust_5="13000.00000" pt_clust_6="13000.00000" pt_clust_7="13000.00000" pt_clust_8="13000.00000" pt_clust_9="60.97013"></scales>
<clustering>
<clus scale="   60.970">  1  9  2 -1</clus>
<clus scale="   87.837">  7  8 -1 -1</clus>
<clus scale="   89.226">  5  6 -1 -1</clus>
<clus scale="   95.062">  1  7  2 -1</clus>
<clus scale="   60.970">  1  5  2 -1</clus>
</clustering>
</event>
<event>
 9    1  0.9000149E-006  0.1050830E+03  0.7546771E-02  0.1270008E+00
          1   -1    0    0  502    0  0.00000000000E+00  0.00000000000E+00  0.99422649586E+02  0.99422649586E+02  0.00000000000E+00 0. -1.
         -1   -1    0    0    0  501 -0.00000000000E+00 -0.00000000000E+00 -0.24489771241E+03  0.24489771241E+03  0.00000000000E+00 0.  1.
         23    2    1    2    0    0 -0.31951589733E+02  0.68853151781E+02 -0.12320007150E+03  0.17146394352E+03  0.91978071914E+02 0.  0.
         23    2    1    2    0    0 -0.22138700687E+02 -0.20280427033E+02 -0.25954753559E+02  0.10006486844E+03  0.91858101844E+02 0.  0.
        -11    1    3    3    0    0  0.24263762631E+02  0.30543250307E+02 -0.11480537912E+02  0.40662305236E+02  0.00000000000E+00 0. -1.
         11    1    3    3    0    0 -0.56215352364E+02  0.38309901473E+02 -0.11171953359E+03  0.13080163829E+03  0.00000000000E+00 0.  1.
        -13    1    4    4    0    0 -0.40798687844E+02 -0.35413919580E+02 -0.44276583109E+02  0.69850514971E+02  0.00000000000E+00 0. -1.
         13    1    4    4    0    0  0.18659987158E+02  0.15133492547E+02  0.18321829550E+02  0.30214353467E+02  0.00000000000E+00 0.  1.
         21    1    1    2  502  501  0.54090290420E+02 -0.48572724747E+02  0.36797622346E+01  0.72791550040E+02  0.00000000000E+00 0. -1.
<scales pt_clust_5="13000.00000" pt_clust_6="13000.00000" pt_clust_7="13000.00000" pt_clust_8="13000.00000" pt_clust_9="72.69848"></scales>
<clustering>
<clus scale="   72.698">  1  9  2 -1</clus>
<clus scale="   91.858">  7  8 -1 -1</clus>
<clus scale="   91.978">  5  6 -1 -1</clus>
<clus scale="  104.978">  1  7  2 -1</clus>
<clus scale="   72.698">  1  5  2 -1</clus>
</clustering>
</event>
<event>
 9    1  0.9000149E-006  0.1721759E+03  0.7546771E-02  0.1176623E+00
          1   -1    0    0  502    0  0.00000000000E+00  0.00000000000E+00  0.40335971075E+03  0.40335971075E+03  0.00000000000E+00 0. -1.
         -1   -1    0    0    0  501 -0.00000000000E+00 -0.00000000000E+00 -0.14921824763E+03  0.14921824763E+03  0.00000000000E+00 0.  1.
         23    2    1    2    0    0 -0.23645391926E+02  0.16350134013E+03 -0.28855428173E+02  0.18383698607E+03  0.75310085184E+02 0.  0.
         23    2    1    2    0    0  0.12229928539E+02 -0.12356164819E+03  0.97650625341E+02  0.17879695399E+03  0.83759501363E+02 0.  0.
        -11    1    4    4    0    0  0.18577716849E+02 -0.60293816667E+02  0.96386266561E+02  0.11519890743E+03  0.00000000000E+00 0.  1.
         11    1    4    4    0    0 -0.63477883105E+01 -0.63267831526E+02  0.12643587801E+01  0.63598046555E+02  0.00000000000E+00 0. -1.
        -13    1    3    3    0    0 -0.28941867596E+02  0.43133884293E+02 -0.35907658001E+02  0.63146841388E+02  0.00000000000E+00 0.  1.
         13    1    3    3    0    0  0.52964756700E+01  0.12036745583E+03  0.70522298278E+01  0.12069014468E+03  0.00000000000E+00 0. -1.
         21    1    1    2  502  501  0.11415463387E+02 -0.39939691932E+02  0.18534626595E+03  0.18994401833E+03  0.00000000000E+00 0. -1.
<scales pt_clust_5="13000.00000" pt_clust_6="13000.00000" pt_clust_7="13000.00000" pt_clust_8="13000.00000" pt_clust_9="41.53904"></scales>
<clustering>
<clus scale="   41.539">  1  9  2 -1</clus>
<clus scale="   75.310">  7  8 -1 -1</clus>
<clus scale="   83.760">  5  6 -1 -1</clus>
<clus scale="  168.227">  2  7  1 -1</clus>
<clus scale="   41.539">  1  5  2 -1</clus>
</clustering>
</event>
<event>
 9    1  0.9000149E-006  0.1370841E+03  0.7546771E-02  0.1233812E+00
          1   -1    0    0  502    0  0.00000000000E+00  0.00000000000E+00  0.81936815892E+03  0.81936815892E+03  0.00000000000E+00 0. -1.
         -1   -1    0    0    0  501 -0.00000000000E+00 -0.00000000000E+00 -0.11230570671E+03  0.11230570671E+03  0.00000000000E+00 0.  1.
         23    2    1    2    0    0 -0.50510247241E+01 -0.35981562928E+02 -0.64872779291E+02  0.11689795335E+03  0.90202374037E+02 0.  0.
         23    2    1    2    0    0 -0.54788674155E+02 -0.55149780560E+02  0.57505283088E+03  0.58972393829E+03  0.10509646987E+03 0.  0.
        -11    1    3    3    0    0 -0.23243567458E+02 -0.57049564103E+02 -0.21277662173E+02  0.65174037009E+02  0.00000000000E+00 0.  1.
         11    1    3    3    0    0  0.18192542734E+02  0.21068001175E+02 -0.43595117118E+02  0.51723916336E+02  0.00000000000E+00 0. -1.
        -11    1    4    4    0    0 -0.69058216176E+02 -0.73973995793E+02  0.52096521438E+03  0.53070325406E+03  0.00000000000E+00 0.  1.
         11    1    4    4    0    0  0.14269542021E+02  0.18824215232E+02  0.54087616494E+02  0.59020684227E+02  0.00000000000E+00 0. -1.
         21    1    1    2  502  501  0.59839698879E+02  0.91131343488E+02  0.19688240062E+03  0.22505197400E+03  0.00000000000E+00 0. -1.
<scales pt_clust_5="13000.00000" pt_clust_6="13000.00000" pt_clust_7="13000.00000" pt_clust_8="13000.00000" pt_clust_9="88.01588"></scales>
<clustering>
<clus scale="   90.202">  5  6 -1 -1</clus>
<clus scale="   97.245">  2  5  1 -1</clus>
<clus scale="   88.016">  2  9  1 -1</clus>
<clus scale="  105.096">  7  8 -1 -1</clus>
<clus scale="  137.084">  1  5  2 -1</clus>
</clustering>
</event>
<event>
 9    1  0.9000149E-006  0.2453942E+03  0.7546771E-02  0.1116319E+00
          2   -1    0    0  502    0  0.00000000000E+00  0.00000000000E+00  0.10524252713E+04  0.10524252713E+04  0.00000000000E+00 0. -1.
         -2   -1    0    0    0  501 -0.00000000000E+00 -0.00000000000E+00 -0.10350839089E+03  0.10350839089E+03  0.00000000000E+00 0.  1.
         23    2    1    2    0    0  0.14415476039E+03 -0.22126145374E+03  0.17366805501E+03  0.32881008587E+03  0.90654582811E+02 0.  0.
         23    2    1    2    0    0 -0.90339575473E+02  0.13069405163E+03  0.46514785224E+03  0.49961610769E+03  0.89507299117E+02 0.  0.
        -13    1    3    3    0    0  0.68056291065E+02 -0.17382269411E+03  0.13870218730E+03  0.23256028144E+03  0.00000000000E+00 0. -1.
         13    1    3    3    0    0  0.76098469322E+02 -0.47438759635E+02  0.34965867715E+02  0.96249804436E+02  0.00000000000E+00 0.  1.
        -13    1    4    4    0    0 -0.51696771187E+02  0.99839298697E+01  0.98655152021E+02  0.11182608831E+03  0.00000000000E+00 0.  1.
         13    1    4    4    0    0 -0.38642804286E+02  0.12071012176E+03  0.36649270022E+03  0.38779001938E+03  0.00000000000E+00 0. -1.
         21    1    1    2  502  501 -0.53815184914E+02  0.90567402117E+02  0.31010097321E+03  0.32750746867E+03  0.00000000000E+00 0. -1.
<scales pt_clust_5="13000.00000" pt_clust_6="13000.00000" pt_clust_7="13000.00000" pt_clust_8="13000.00000" pt_clust_9="105.34955"></scales>
<clustering>
<clus scale="   89.507">  7  8 -1 -1</clus>
<clus scale="   90.655">  5  6 -1 -1</clus>
<clus scale="  105.350">  1  9  2 -1</clus>
<clus scale="  244.973">  1  7  2 -1</clus>
<clus scale="  105.350">  1  5  2 -1</clus>
</clustering>
</event>
<event>
 9    1  0.9000149E-006  0.9978777E+02  0.7546771E-02  0.1280836E+00
          3   -1    0    0  502    0  0.00000000000E+00  0.00000000000E+00  0.95202051961E+02  0.95202051961E+02  0.00000000000E+00 0. -1.
         -3   -1    0    0    0  501 -0.00000000000E+00 -0.00000000000E+00 -0.15106037419E+03  0.15106037419E+03  0.00000000000E+00 0.  1.
         23    2    1    2    0    0  0.39538814136E+02  0.29345806774E+02 -0.56879359073E+02  0.11799844754E+03  0.90905874035E+02 0.  0.
         23    2    1    2    0    0 -0.17785712466E+02 -0.26613035778E+02 -0.19593844582E+02  0.98170145263E+02  0.90713138157E+02 0.  0.
        -13    1    4    4    0    0 -0.19025794077E+02  0.26712563696E+02 -0.29272288720E+02  0.43959171811E+02  0.00000000000E+00 0.  1.
         13    1    4    4    0    0  0.12400816106E+01 -0.53325599473E+02  0.96784441387E+01  0.54210973451E+02  0.00000000000E+00 0. -1.
        -13    1    3    3    0    0  0.35008707765E+01 -0.27390063104E+02 -0.40158957851E+02  0.48736162638E+02  0.00000000000E+00 0. -1.
         13    1    3    3    0    0  0.36037943359E+02  0.56735869877E+02 -0.16720401222E+02  0.69262284898E+02  0.00000000000E+00 0.  1.
         21    1    1    2  502  501 -0.21753101670E+02 -0.27327709959E+01  0.20614881425E+02  0.30093833351E+02  0.00000000000E+00 0. -1.
<scales pt_clust_5="13000.00000" pt_clust_6="13000.00000" pt_clust_7="13000.00000" pt_clust_8="13000.00000" pt_clust_9="21.92408"></scales>
<clustering>
<clus scale="   21.924">  1  9  2 -1</clus>
<clus scale="   90.713">  5  6 -1 -1</clus>
<clus scale="   90.906">  7  8 -1 -1</clus>
<clus scale="   99.612">  1  5  2 -1</clus>
<clus scale="   21.924">  1  5  2 -1</clus>
</clustering>
</event>
<event>
 9    1  0.9000149E-006  0.1078857E+03  0.7546771E-02  0.1266104E+00
         -2   -1    0    0    0  501 -0.00000000000E+00  0.00000000000E+00  0.72305700529E+02  0.72305700529E+02  0.00000000000E+00 0.  1.
          2   -1    0    0  502    0  0.00000000000E+00 -0.00000000000E+00 -0.35239896964E+03  0.35239896964E+03  0.00000000000E+00 0. -1.
         23    2    1    2    0    0 -0.29059258672E+02  0.29063878535E+02 -0.31359563585E+02  0.10652760406E+03  0.93142678981E+02 0.  0.
         23    2    1    2    0    0  0.30653853635E+02 -0.72165668515E+02 -0.78255924144E+02  0.14232775284E+03  0.89362503942E+02 0.  0.
        -11    1    4    4    0    0 -0.45294167621E+01 -0.53086892697E+02  0.12737569341E+01  0.53294992721E+02  0.00000000000E+00 0.  1.
         11    1    4    4    0    0  0.35183270397E+02 -0.19078775819E+02 -0.79529681078E+02  0.89032760122E+02  0.00000000000E+00 0. -1.
        -13    1    3    3    0    0  0.45838849762E+01 -0.30537754104E+02 -0.20909502343E+02  0.37293078654E+02  0.00000000000E+00 0.  1.
         13    1    3    3    0    0 -0.33643143648E+02  0.59601632640E+02 -0.10450061242E+02  0.69234525403E+02  0.00000000000E+00 0. -1.
         21    1    1    2  502  501 -0.15945949630E+01  0.43101789980E+02 -0.17047778138E+03  0.17584931327E+03  0.00000000000E+00 0. -1.
<scales pt_clust_5="13000.00000" pt_clust_6="13000.00000" pt_clust_7="13000.00000" pt_clust_8="13000.00000" pt_clust_9="43.13128"></scales>
<clustering>
<clus scale="   43.131">  2  9  1 -1</clus>
<clus scale="   89.363">  5  6 -1 -1</clus>
<clus scale="   93.143">  7  8 -1 -1</clus>
<clus scale="  104.639">  2  5  1 -1</clus>
<clus scale="   43.131">  2  5  1 -1</clus>
</clustering>
</event>
<event>
 9    1  0.9000149E-006  0.1399946E+03  0.7546771E-02  0.1213876E+00
         -1   -1    0    0    0  501 -0.00000000000E+00  0.00000000000E+00  0.18369035978E+03  0.18369035978E+03  0.00000000000E+00 0.  1.
          1   -1    0    0  502    0  0.00000000000E+00 -0.00000000000E+00 -0.20759958732E+03  0.20759958732E+03  0.00000000000E+00 0. -1.
         23    2    1    2    0    0  0.92994252321E+02  0.22885101453E+02  0.10662736629E+03  0.17373514409E+03  0.98197994982E+02 0.  0.
         23    2    1    2    0    0 -0.11364244700E+03 -0.30767019382E+02 -0.11165249080E+03  0.18848451024E+03  0.95910982994E+02 0.  0.
        -13    1    4    4    0    0 -0.50301546880E+02  0.23415862640E+02 -0.83986704008E+02  0.10065939942E+03  0.00000000000E+00 0. -1.
         13    1    4    4    0    0 -0.63340900121E+02 -0.54182882022E+02 -0.27665786787E+02  0.87825110822E+02  0.00000000000E+00 0.  1.
        -13    1    3    3    0    0  0.33448611314E+02 -0.38776410013E+02  0.34983919252E+02  0.62018498680E+02  0.00000000000E+00 0.  1.
         13    1    3    3    0    0  0.59545641008E+02  0.61661511466E+02  0.71643447036E+02  0.11171664541E+03  0.00000000000E+00 0. -1.
         21    1    1    2  502  501  0.20648194679E+02  0.78819179290E+01 -0.18884103036E+02  0.29070292761E+02  0.00000000000E+00 0. -1.
<scales pt_clust_5="13000.00000" pt_clust_6="13000.00000" pt_clust_7="13000.00000" pt_clust_8="13000.00000" pt_clust_9="22.10142"></scales>
<clustering>
<clus scale="   22.101">  2  9  1 -1</clus>
<clus scale="   95.911">  5  6 -1 -1</clus>
<clus scale="   98.198">  7  8 -1 -1</clus>
<clus scale="  138.400">  2  5  1 -1</clus>
<clus scale="   22.101">  2  5  1 -1</clus>
</clustering>
</event>
<event>
 9    1  0.9000149E-006  0.1041360E+03  0.7546771E-02  0.1273299E+00
         -1   -1    0    0    0  501 -0.00000000000E+00  0.00000000000E+00  0.22135551824E+02  0.22135551824E+02  0.00000000000E+00 0.  1.
          1   -1    0    0  502    0  0.00000000000E+00 -0.00000000000E+00 -0.62950011641E+03  0.62950011641E+03  0.00000000000E+00 0. -1.
         23    2    1    2    0    0  0.22150601733E+02  0.28087198843E+02 -0.19483800346E+03  0.21955237018E+03  0.94667078575E+02 0.  0.
         23    2    1    2    0    0 -0.33852463760E+02 -0.45366404344E+02 -0.35122696939E+03  0.36732880427E+03  0.91465657340E+02 0.  0.
        -13    1    4    4    0    0 -0.60979886698E+02 -0.50121643504E+02 -0.28156484449E+03  0.29242005298E+03  0.00000000000E+00 0.  1.
         13    1    4    4    0    0  0.27127422938E+02  0.47552391603E+01 -0.69662124897E+02  0.74908751291E+02  0.00000000000E+00 0. -1.
        -13    1    3    3    0    0 -0.12526451250E+02  0.35785726550E+02 -0.17460227872E+03  0.17867144691E+03  0.00000000000E+00 0. -1.
         13    1    3    3    0    0  0.34677052982E+02 -0.76985277071E+01 -0.20235724741E+02  0.40880923280E+02  0.00000000000E+00 0.  1.
         21    1    1    2  502  501  0.11701862027E+02  0.17279205501E+02 -0.61299591733E+02  0.64754493776E+02  0.00000000000E+00 0. -1.
<scales pt_clust_5="13000.00000" pt_clust_6="13000.00000" pt_clust_7="13000.00000" pt_clust_8="13000.00000" pt_clust_9="20.86874"></scales>
<clustering>
<clus scale="   20.869">  2  9  1 -1</clus>
<clus scale="   91.466">  5  6 -1 -1</clus>
<clus scale="   94.667">  7  8 -1 -1</clus>
<clus scale="  101.234">  2  5  1 -1</clus>
<clus scale="   20.869">  2  5  1 -1</clus>
</clustering>
</event>
<event>
 9    1  0.9000149E-006  0.9811876E+02  0.7546771E-02  0.1284495E+00
         -3   -1    0    0    0  501 -0.00000000000E+00  0.00000000000E+00  0.39944153113E+03  0.39944153113E+03  0.00000000000E+00 0.  1.
          3   -1    0    0  502    0  0.00000000000E+00 -0.00000000000E+00 -0.13494146434E+03  0.13494146434E+03  0.00000000000E+00 0. -1.
         23    2    1    2    0    0  0.37639489245E+02  0.38190250430E+01  0.35804325565E+03  0.37128763368E+03  0.90709524900E+02 0.  0.
         23    2    1    2    0    0 -0.18216325689E+02 -0.24204310781E+02 -0.42892638319E+02  0.10514454274E+03  0.91092882623E+02 0.  0.
        -11    1    3    3    0    0  0.23725862295E+02  0.46460801917E+02  0.22172632336E+03  0.22778078305E+03  0.00000000000E+00 0.  1.
         11    1    3    3    0    0  0.13913626950E+02 -0.42641776874E+02  0.13631693229E+03  0.14350685063E+03  0.00000000000E+00 0. -1.
        -13    1    4    4    0    0 -0.80677353568E+01  0.34709086773E+02 -0.10488299437E+02  0.37145840730E+02  0.00000000000E+00 0.  1.
         13    1    4    4    0    0 -0.10148590332E+02 -0.58913397555E+02 -0.32404338881E+02  0.67998702013E+02  0.00000000000E+00 0. -1.
         21    1    1    2  502  501 -0.19423163557E+02  0.20385285738E+02 -0.50650550545E+02  0.57950819043E+02  0.00000000000E+00 0. -1.
<scales pt_clust_5="13000.00000" pt_clust_6="13000.00000" pt_clust_7="13000.00000" pt_clust_8="13000.00000" pt_clust_9="28.15704"></scales>
<clustering>
<clus scale="   28.157">  2  9  1 -1</clus>
<clus scale="   90.710">  5  6 -1 -1</clus>
<clus scale="   91.093">  7  8 -1 -1</clus>
<clus scale="   97.763">  1  5  2 -1</clus>
<clus scale="   28.157">  2  5  1 -1</clus>
</clustering>
</event>
<event>
 9    1  0.9000149E-006  0.1836132E+03  0.7546771E-02  0.1164408E+00
         -2   -1    0    0    0  501 -0.00000000000E+00  0.00000000000E+00  0.66203470264E+02  0.66203470264E+02  0.00000000000E+00 0.  1.
          2   -1    0    0  502    0  0.00000000000E+00 -0.00000000000E+00 -0.89092866322E+03  0.89092866322E+03  0.00000000000E+00 0. -1.
         23    2    1    2    0    0  0.14384645860E+03 -0.56999618257E+02 -0.15080565910E+03  0.23455827923E+03  0.91293369989E+02 0.  0.
         23    2    1    2    0    0 -0.14134629874E+03  0.95981813169E+02 -0.38566671876E+03  0.43168633694E+03  0.91776853909E+02 0.  0.
        -13    1    3    3    0    0  0.74518732762E+02 -0.76131440081E+02 -0.10312386622E+03  0.14826857214E+03  0.00000000000E+00 0. -1.
         13    1    3    3    0    0  0.69327725839E+02  0.19131821825E+02 -0.47681792881E+02  0.86289707084E+02  0.00000000000E+00 0.  1.
        -13    1    4    4    0    0 -0.78300787915E+02  0.59081125956E+02 -0.11410619760E+03  0.15047198132E+03  0.00000000000E+00 0.  1.
         13    1    4    4    0    0 -0.63045510828E+02  0.36900687213E+02 -0.27156052116E+03  0.28121435562E+03  0.00000000000E+00 0. -1.
         21    1    1    2  502  501 -0.25001598582E+01 -0.38982194912E+02 -0.28825281510E+03  0.29088751732E+03  0.00000000000E+00 0. -1.
<scales pt_clust_5="13000.00000" pt_clust_6="13000.00000" pt_clust_7="13000.00000" pt_clust_8="13000.00000" pt_clust_9="39.06229"></scales>
<clustering>
<clus scale="   39.062">  2  9  1 -1</clus>
<clus scale="   91.293">  5  6 -1 -1</clus>
<clus scale="   91.777">  7  8 -1 -1</clus>
<clus scale="  183.372">  1  5  2 -1</clus>
<clus scale="   39.062">  2  5  1 -1</clus>
</clustering>
</event>
<event>
 9    1  0.9000149E-006  0.1407538E+03  0.7546771E-02  0.1212521E+00
         -4   -1    0    0    0  501 -0.00000000000E+00  0.00000000000E+00  0.51560053608E+03  0.51560053608E+03  0.00000000000E+00 0.  1.
          4   -1    0    0  502    0  0.00000000000E+00 -0.00000000000E+00 -0.62571248586E+02  0.62571248586E+02  0.00000000000E+00 0. -1.
         23    2    1    2    0    0  0.89057251969E+02 -0.50295372982E+02  0.21328857491E+03  0.25437906560E+03  0.93572828097E+02 0.  0.
         23    2    1    2    0    0 -0.56274205266E+02  0.10088482684E+03  0.20702026518E+03  0.25520227752E+03  0.94478980693E+02 0.  0.
        -11    1    3    3    0    0  0.50568669273E+02 -0.70790468690E+02  0.97597235928E+02  0.13074288214E+03  0.00000000000E+00 0. -1.
         11    1    3    3    0    0  0.38488582695E+02  0.20495095708E+02  0.11569133898E+03  0.12363618346E+03  0.00000000000E+00 0.  1.
        -13    1    4    4    0    0 -0.35813926841E+02  0.22937113052E+00  0.18014786778E+02  0.40090179715E+02  0.00000000000E+00 0. -1.
         13    1    4    4    0    0 -0.20460278425E+02  0.10065545571E+03  0.18900547840E+03  0.21511209781E+03  0.00000000000E+00 0.  1.
         21    1    1    2  502  501 -0.32783046702E+02 -0.50589453859E+02  0.32720447412E+02  0.68590441548E+02  0.00000000000E+00 0. -1.
<scales pt_clust_5="13000.00000" pt_clust_6="13000.00000" pt_clust_7="13000.00000" pt_clust_8="13000.00000" pt_clust_9="60.28284"></scales>
<clustering>
<clus scale="   60.283">  2  9  1 -1</clus>
<clus scale="   93.573">  5  6 -1 -1</clus>
<clus scale="   94.479">  7  8 -1 -1</clus>
<clus scale="  140.147">  1  5  2 -1</clus>
<clus scale="   60.283">  2  5  1 -1</clus>
</clustering>
</event>
<event>
 9    1  0.9000149E-006  0.9636573E+02  0.7546771E-02  0.1289027E+00
          1   -1    0    0  502    0  0.00000000000E+00  0.00000000000E+00  0.29173316776E+02  0.29173316776E+02  0.00000000000E+00 0. -1.
         -1   -1    0    0    0  501 -0.00000000000E+00 -0.00000000000E+00 -0.60070225688E+03  0.60070225688E+03  0.00000000000E+00 0.  1.
         23    2    1    2    0    0 -0.38587992684E+02  0.13447481853E+02 -0.40117206245E+03  0.41349374707E+03  0.91477796393E+02 0.  0.
         23    2    1    2    0    0  0.11058286966E+02  0.11781219005E+02 -0.14477510121E+03  0.17111816202E+03  0.89780357594E+02 0.  0.
        -11    1    3    3    0    0 -0.36215756763E+02  0.46379985714E+02 -0.32773094575E+03  0.33297185604E+03  0.00000000000E+00 0.  1.
         11    1    3    3    0    0 -0.23722359206E+01 -0.32932503861E+02 -0.73441116702E+02  0.80521891037E+02  0.00000000000E+00 0. -1.
        -13    1    4    4    0    0 -0.36302083546E+02  0.76962778370E+01 -0.33018968336E+02  0.49672187714E+02  0.00000000000E+00 0.  1.
         13    1    4    4    0    0  0.47360370512E+02  0.40849411677E+01 -0.11175613287E+03  0.12144597430E+03  0.00000000000E+00 0. -1.
         21    1    1    2  502  501  0.27529705718E+02 -0.25228700858E+02 -0.25581776451E+02  0.45263664570E+02  0.00000000000E+00 0. -1.
<scales pt_clust_5="13000.00000" pt_clust_6="13000.00000" pt_clust_7="13000.00000" pt_clust_8="13000.00000" pt_clust_9="37.34129"></scales>
<clustering>
<clus scale="   37.341">  1  9  2 -1</clus>
<clus scale="   89.780">  7  8 -1 -1</clus>
<clus scale="   91.478">  5  6 -1 -1</clus>
<clus scale="   94.756">  1  7  2 -1</clus>
<clus scale="   37.341">  1  5  2 -1</clus>
</clustering>
</event>
<event>
 9    1  0.9000149E-006  0.1313155E+03  0.7546771E-02  0.1225622E+00
         -1   -1    0    0    0  501 -0.00000000000E+00  0.00000000000E+00  0.39514989174E+03  0.39514989174E+03  0.00000000000E+00 0.  1.
          1   -1    0    0  502    0  0.00000000000E+00 -0.00000000000E+00 -0.90032592690E+02  0.90032592690E+02  0.00000000000E+00 0. -1.
         23    2    1    2    0    0  0.89877167484E+01  0.89860356039E+02  0.27814784071E+03  0.30680499930E+03  0.92776202058E+02 0.  0.
         23    2    1    2    0    0  0.21246439155E+02 -0.10584645243E+03  0.20125371774E+02  0.14349911100E+03  0.92369267606E+02 0.  0.
        -13    1    3    3    0    0  0.10098999474E+02 -0.18392879085E+02  0.38736164105E+02  0.44054264277E+02  0.00000000000E+00 0. -1.
         13    1    3    3    0    0 -0.11112827257E+01  0.10825323512E+03  0.23941167660E+03  0.26275073503E+03  0.00000000000E+00 0.  1.
        -13    1    4    4    0    0  0.27821831744E+02  0.64548396731E+00 -0.14430197746E+02  0.31348071362E+02  0.00000000000E+00 0.  1.
         13    1    4    4    0    0 -0.65753925885E+01 -0.10649193640E+03  0.34555569520E+02  0.11215103963E+03  0.00000000000E+00 0. -1.
         21    1    1    2  502  501 -0.30234155904E+02  0.15986096395E+02  0.68440865728E+01  0.34878374133E+02  0.00000000000E+00 0.  1.
<scales pt_clust_5="13000.00000" pt_clust_6="13000.00000" pt_clust_7="13000.00000" pt_clust_8="13000.00000" pt_clust_9="34.20028"></scales>
<clustering>
<clus scale="   34.200">  2  9  1 -1</clus>
<clus scale="   92.369">  7  8 -1 -1</clus>
<clus scale="   92.776">  5  6 -1 -1</clus>
<clus scale="  131.028">  2  7  1 -1</clus>
<clus scale="   34.200">  2  5  1 -1</clus>
</clustering>
</event>
<event>
 9    1  0.9000149E-006  0.1006031E+03  0.7546771E-02  0.1279393E+00
         -1   -1    0    0    0  501 -0.00000000000E+00  0.00000000000E+00  0.42017148676E+03  0.42017148676E+03  0.00000000000E+00 0.  1.
          1   -1    0    0  502    0  0.00000000000E+00 -0.00000000000E+00 -0.64500631334E+02  0.64500631334E+02  0.00000000000E+00 0. -1.
         23    2    1    2    0    0  0.24912555038E+02 -0.26591669222E+02  0.21561090701E+03  0.23691216944E+03  0.91167760410E+02 0.  0.
         23    2    1    2    0    0 -0.77253813866E+01  0.51074555178E+02  0.17341622622E+03  0.20295535167E+03  0.91920593714E+02 0.  0.
        -11    1    4    4    0    0  0.39450775648E+02  0.32430215894E+02  0.60531559567E+02  0.79196921062E+02  0.00000000000E+00 0.  1.
         11    1    4    4    0    0 -0.47176157034E+02  0.18644339285E+02  0.11288466665E+03  0.12375843060E+03  0.00000000000E+00 0. -1.
        -13    1    3    3    0    0 -0.31180466099E+01 -0.54982382434E+02  0.94228836184E+02  0.10914145941E+03  0.00000000000E+00 0. -1.
         13    1    3    3    0    0  0.28030601648E+02  0.28390713211E+02  0.12138207082E+03  0.12777071003E+03  0.00000000000E+00 0.  1.
         21    1    1    2  502  501 -0.17187173651E+02 -0.24482885956E+02 -0.33356277799E+02  0.44804596990E+02  0.00000000000E+00 0. -1.
<scales pt_clust_5="13000.00000" pt_clust_6="13000.00000" pt_clust_7="13000.00000" pt_clust_8="13000.00000" pt_clust_9="29.91339"></scales>
<clustering>
<clus scale="   29.913">  2  9  1 -1</clus>
<clus scale="   91.168">  7  8 -1 -1</clus>
<clus scale="   91.921">  5  6 -1 -1</clus>
<clus scale="   99.916">  1  7  2 -1</clus>
<clus scale="   29.913">  2  5  1 -1</clus>
</clustering>
</event>
<event>
 9    1  0.9000149E-006  0.1836601E+03  0.7546771E-02  0.1188645E+00
         -1   -1    0    0    0  501 -0.00000000000E+00  0.00000000000E+00  0.66735828088E+02  0.66735828088E+02  0.00000000000E+00 0.  1.
          1   -1    0    0  502    0  0.00000000000E+00 -0.00000000000E+00 -0.10863360479E+04  0.10863360479E+04  0.00000000000E+00 0. -1.
         23    2    1    2    0    0 -0.37137919471E+02  0.36973919611E+02 -0.11463294897E+03  0.15606822901E+03  0.92034142164E+02 0.  0.
         23    2    1    2    0    0  0.48912802250E+02  0.12850520877E+03 -0.14664862082E+03  0.22075036050E+03  0.91207745096E+02 0.  0.
        -11    1    3    3    0    0 -0.57073023540E+02  0.26081047877E+02 -0.32135039048E+02  0.70499729141E+02  0.00000000000E+00 0. -1.
         11    1    3    3    0    0  0.19935104070E+02  0.10892871734E+02 -0.82497909921E+02  0.85568499872E+02  0.00000000000E+00 0.  1.
        -13    1    4    4    0    0  0.76149881190E+02  0.97868974561E+02 -0.11067969714E+03  0.16621412679E+03  0.00000000000E+00 0. -1.
         13    1    4    4    0    0 -0.27237078939E+02  0.30636234214E+02 -0.35968923678E+02  0.54536233703E+02  0.00000000000E+00 0.  1.
         21    1    1    2  502  501 -0.11774882780E+02 -0.16547912839E+03 -0.75831865005E+03  0.77625328650E+03  0.00000000000E+00 0.  1.
<scales pt_clust_5="13000.00000" pt_clust_6="13000.00000" pt_clust_7="13000.00000" pt_clust_8="13000.00000" pt_clust_9="159.41197"></scales>
<clustering>
<clus scale="   91.208">  7  8 -1 -1</clus>
<clus scale="   92.034">  5  6 -1 -1</clus>
<clus scale="  105.908">  1  5  2 -1</clus>
<clus scale="  159.412">  2  9  1 -1</clus>
<clus scale="  159.412">  2  5  1 -1</clus>
</clustering>
</event>
<event>
 9    1  0.9000149E-006  0.9543963E+02  0.7546771E-02  0.1290990E+00
         -1   -1    0    0    0  501 -0.00000000000E+00  0.00000000000E+00  0.17022733565E+02  0.17022733565E+02  0.00000000000E+00 0.  1.
          1   -1    0    0  502    0  0.00000000000E+00 -0.00000000000E+00 -0.84575463224E+03  0.84575463224E+03  0.00000000000E+00 0. -1.
         23    2    1    2    0    0 -0.28516720145E+00  0.40474642884E+02 -0.27976494582E+03  0.29724798805E+03  0.91922050967E+02 0.  0.
         23    2    1    2    0    0 -0.13530192896E+02 -0.87935786998E+01 -0.28841850831E+03  0.30269854630E+03  0.90447669156E+02 0.  0.
        -11    1    3    3    0    0 -0.31950423577E+02 -0.15325548699E+02 -0.11864062340E+03  0.12381962498E+03  0.00000000000E+00 0. -1.
         11    1    3    3    0    0  0.31665256375E+02  0.55800191583E+02 -0.16112432242E+03  0.17342836307E+03  0.00000000000E+00 0.  1.
        -13    1    4    4    0    0 -0.20712195052E+02 -0.41524111668E+02 -0.23575335014E+03  0.24027669254E+03  0.00000000000E+00 0.  1.
         13    1    4    4    0    0  0.71820021559E+01  0.32730532969E+02 -0.52665158165E+02  0.62421853769E+02  0.00000000000E+00 0. -1.
         21    1    1    2  502  501  0.13815360098E+02 -0.31681064184E+02 -0.26054844455E+03  0.26283083145E+03  0.00000000000E+00 0. -1.
<scales pt_clust_5="13000.00000" pt_clust_6="13000.00000" pt_clust_7="13000.00000" pt_clust_8="13000.00000" pt_clust_9="34.56232"></scales>
<clustering>
<clus scale="   34.562">  2  9  1 -1</clus>
<clus scale="   90.448">  7  8 -1 -1</clus>
<clus scale="   91.922">  5  6 -1 -1</clus>
<clus scale="   94.020">  2  7  1 -1</clus>
<clus scale="   34.562">  2  5  1 -1</clus>
</clustering>
</event>
<event>
 9    1  0.9000149E-006  0.1517325E+03  0.7546771E-02  0.1198505E+00
          1   -1    0    0  502    0  0.00000000000E+00  0.00000000000E+00  0.17981143431E+03  0.17981143431E+03  0.00000000000E+00 0. -1.
         -1   -1    0    0    0  501 -0.00000000000E+00 -0.00000000000E+00 -0.35436777631E+03  0.35436777631E+03  0.00000000000E+00 0.  1.
         23    2    1    2    0    0  0.74186170956E+02 -0.96252093705E+02 -0.87547644376E+02  0.17450701929E+03  0.89554766724E+02 0.  0.
         23    2    1    2    0    0  0.47305236864E+02  0.14687424602E+03 -0.13015076837E+03  0.22116586387E+03  0.90361979029E+02 0.  0.
        -13    1    3    3    0    0  0.48503794982E+02 -0.99550285511E+02 -0.96727826540E+02  0.14703451942E+03  0.00000000000E+00 0.  1.
         13    1    3    3    0    0  0.25682375974E+02  0.32981918062E+01  0.91801821640E+01  0.27472499876E+02  0.00000000000E+00 0. -1.
        -13    1    4    4    0    0  0.60763725063E+00  0.12858123936E+03 -0.96585465228E+02  0.16081746308E+03  0.00000000000E+00 0. -1.
         13    1    4    4    0    0  0.46697599614E+02  0.18293006657E+02 -0.33565303144E+02  0.60348400786E+02  0.00000000000E+00 0.  1.
         21    1    1    2  502  501 -0.12149140782E+03 -0.50622152313E+02  0.43142070738E+02  0.13850632746E+03  0.00000000000E+00 0. -1.
<scales pt_clust_5="13000.00000" pt_clust_6="13000.00000" pt_clust_7="13000.00000" pt_clust_8="13000.00000" pt_clust_9="131.61597"></scales>
<clustering>
<clus scale="   89.555">  5  6 -1 -1</clus>
<clus scale="   90.362">  7  8 -1 -1</clus>
<clus scale="  131.616">  1  9  2 -1</clus>
<clus scale="  151.253">  2  5  1 -1</clus>
<clus scale="  131.616">  1  5  2 -1</clus>
</clustering>
</event>
<event>
 9    1  0.9000149E-006  0.1097697E+03  0.7546771E-02  0.1261359E+00
          1   -1    0    0  502    0  0.00000000000E+00  0.00000000000E+00  0.10293277001E+03  0.10293277001E+03  0.00000000000E+00 0. -1.
         -1   -1    0    0    0  501 -0.00000000000E+00 -0.00000000000E+00 -0.26291271502E+03  0.26291271502E+03  0.00000000000E+00 0.  1.
         23    2    1    2    0    0  0.13024355141E+02  0.73657714888E+02 -0.16277717338E+03  0.20066989671E+03  0.90426248859E+02 0.  0.
         23    2    1    2    0    0 -0.20917218568E+02 -0.36663446310E+02 -0.41181965934E+02  0.10716659995E+03  0.89481771878E+02 0.  0.
        -13    1    4    4    0    0  0.32790260613E+02 -0.27004841312E+02 -0.77776582813E+01  0.43185120282E+02  0.00000000000E+00 0.  1.
         13    1    4    4    0    0 -0.53707479182E+02 -0.96586049974E+01 -0.33404307653E+02  0.63981479667E+02  0.00000000000E+00 0. -1.
        -13    1    3    3    0    0 -0.18761097705E+02  0.62497904854E+02 -0.47877188404E+02  0.80933256871E+02  0.00000000000E+00 0. -1.
         13    1    3    3    0    0  0.31785452846E+02  0.11159810034E+02 -0.11489998497E+03  0.11973663984E+03  0.00000000000E+00 0.  1.
         21    1    1    2  502  501  0.78928634269E+01 -0.36994268578E+02  0.43979194300E+02  0.58008988373E+02  0.00000000000E+00 0. -1.
<scales pt_clust_5="13000.00000" pt_clust_6="13000.00000" pt_clust_7="13000.00000" pt_clust_8="13000.00000" pt_clust_9="37.82688"></scales>
<clustering>
<clus scale="   37.827">  1  9  2 -1</clus>
<clus scale="   89.482">  5  6 -1 -1</clus>
<clus scale="   90.426">  7  8 -1 -1</clus>
<clus scale="  108.993">  1  5  2 -1</clus>
<clus scale="   37.827">  1  5  2 -1</clus>
</clustering>
</event>
<event>
 9    1  0.9000149E-006  0.1000896E+03  0.7546771E-02  0.1280401E+00
         -1   -1    0    0    0  501 -0.00000000000E+00  0.00000000000E+00  0.12630796568E+03  0.12630796568E+03  0.00000000000E+00 0.  1.
          1   -1    0    0  502    0  0.00000000000E+00 -0.00000000000E+00 -0.20151200966E+03  0.20151200966E+03  0.00000000000E+00 0. -1.
         23    2    1    2    0    0  0.29871941433E+02  0.39855575458E+02  0.78932402613E+02  0.12910041826E+03  0.89195257912E+02 0.  0.
         23    2    1    2    0    0 -0.85358126753E+01 -0.13060025468E+02 -0.11087908667E+03  0.14354319368E+03  0.89816770301E+02 0.  0.
        -11    1    4    4    0    0 -0.39413569136E+02 -0.21685778137E+02 -0.10005928126E+03  0.10970670978E+03  0.00000000000E+00 0. -1.
         11    1    4    4    0    0  0.30877756461E+02  0.86257526696E+01 -0.10819805409E+02  0.33836483893E+02  0.00000000000E+00 0.  1.
        -13    1    3    3    0    0  0.59636870265E+02  0.11472181379E+02  0.51873370599E+02  0.79868728661E+02  0.00000000000E+00 0.  1.
         13    1    3    3    0    0 -0.29764928832E+02  0.28383394078E+02  0.27059032014E+02  0.49231689604E+02  0.00000000000E+00 0. -1.
         21    1    1    2  502  501 -0.21336128758E+02 -0.26795549990E+02 -0.43257359927E+02  0.55176363395E+02  0.00000000000E+00 0. -1.
<scales pt_clust_5="13000.00000" pt_clust_6="13000.00000" pt_clust_7="13000.00000" pt_clust_8="13000.00000" pt_clust_9="34.25247"></scales>
<clustering>
<clus scale="   34.252">  2  9  1 -1</clus>
<clus scale="   89.195">  7  8 -1 -1</clus>
<clus scale="   89.817">  5  6 -1 -1</clus>
<clus scale="   99.532">  1  7  2 -1</clus>
<clus scale="   34.252">  2  5  1 -1</clus>
</clustering>
</event>
<event>
 9    1  0.9000149E-006  0.9737978E+02  0.7546771E-02  0.1287050E+00
         -1   -1    0    0    0  501 -0.00000000000E+00  0.00000000000E+00  0.17837314400E+03  0.17837314400E+03  0.00000000000E+00 0.  1.
          1   -1    0    0  502    0  0.00000000000E+00 -0.00000000000E+00 -0.21364600311E+03  0.21364600311E+03  0.00000000000E+00 0. -1.
         23    2    1    2    0    0  0.95516413959E+01  0.17061325322E+02  0.80302246529E+02  0.12456650300E+03  0.93198928086E+02 0.  0.
         23    2    1    2    0    0 -0.17117044322E+02 -0.37595589297E+02  0.41956392384E+02  0.10840842326E+03  0.91025413105E+02 0.  0.
        -13    1    3    3    0    0  0.46424173683E+02  0.88379645651E+01  0.71614867512E+02  0.85802114010E+02  0.00000000000E+00 0. -1.
         13    1    3    3    0    0 -0.36872532287E+02  0.82233607567E+01  0.86873790172E+01  0.38764388988E+02  0.00000000000E+00 0.  1.
        -13    1    4    4    0    0  0.26223061217E+02 -0.17007576118E+02 -0.14382948060E+02  0.34406042782E+02  0.00000000000E+00 0. -1.
         13    1    4    4    0    0 -0.43340105539E+02 -0.20588013180E+02  0.56339340444E+02  0.74002380479E+02  0.00000000000E+00 0.  1.
         21    1    1    2  502  501  0.75654029261E+01  0.20534263975E+02 -0.15753149802E+03  0.15904422085E+03  0.00000000000E+00 0. -1.
<scales pt_clust_5="13000.00000" pt_clust_6="13000.00000" pt_clust_7="13000.00000" pt_clust_8="13000.00000" pt_clust_9="21.88359"></scales>
<clustering>
<clus scale="   21.884">  2  9  1 -1</clus>
<clus scale="   91.025">  7  8 -1 -1</clus>
<clus scale="   93.199">  5  6 -1 -1</clus>
<clus scale="   95.302">  2  7  1 -1</clus>
<clus scale="   21.884">  2  5  1 -1</clus>
</clustering>
</event>
<event>
 9    1  0.9000149E-006  0.1074285E+03  0.7546771E-02  0.1266190E+00
         -1   -1    0    0    0  501 -0.00000000000E+00  0.00000000000E+00  0.15828893834E+03  0.15828893834E+03  0.00000000000E+00 0.  1.
          1   -1    0    0  502    0  0.00000000000E+00 -0.00000000000E+00 -0.15358376668E+03  0.15358376668E+03  0.00000000000E+00 0. -1.
         23    2    1    2    0    0 -0.20568058236E+02 -0.27839828378E+02  0.35611078452E+02  0.10270074768E+03  0.89895459294E+02 0.  0.
         23    2    1    2    0    0  0.74226604572E+02  0.58054047094E+02  0.14933843425E+02  0.13240333545E+03  0.91802844994E+02 0.  0.
        -11    1    4    4    0    0  0.16777601965E+01  0.53414756189E+02 -0.12185302293E+02  0.54812705187E+02  0.00000000000E+00 0. -1.
         11    1    4    4    0    0  0.72548844375E+02  0.46392909053E+01  0.27119145718E+02  0.77590630264E+02  0.00000000000E+00 0.  1.
        -11    1    3    3    0    0 -0.48784899005E+02 -0.47359687584E+01 -0.36068967243E+01  0.49146774818E+02  0.00000000000E+00 0. -1.
         11    1    3    3    0    0  0.28216840769E+02 -0.23103859620E+02  0.39217975176E+02  0.53553972861E+02  0.00000000000E+00 0.  1.
         21    1    1    2  502  501 -0.53658546335E+02 -0.30214218715E+02 -0.45839750218E+02  0.76768621894E+02  0.00000000000E+00 0. -1.
<scales pt_clust_5="13000.00000" pt_clust_6="13000.00000" pt_clust_7="13000.00000" pt_clust_8="13000.00000" pt_clust_9="61.58034"></scales>
<clustering>
<clus scale="   61.580">  2  9  1 -1</clus>
<clus scale="   89.895">  7  8 -1 -1</clus>
<clus scale="   91.803">  5  6 -1 -1</clus>
<clus scale="  105.803">  1  7  2 -1</clus>
<clus scale="   61.580">  2  5  1 -1</clus>
</clustering>
</event>
<event>
 9    1  0.9000149E-006  0.2005244E+03  0.7546771E-02  0.1149423E+00
          1   -1    0    0  502    0  0.00000000000E+00  0.00000000000E+00  0.90126241314E+03  0.90126241314E+03  0.00000000000E+00 0. -1.
         -1   -1    0    0    0  501 -0.00000000000E+00 -0.00000000000E+00 -0.85485700135E+02  0.85485700135E+02  0.00000000000E+00 0.  1.
         23    2    1    2    0    0  0.16088511350E+03 -0.12391996946E+03  0.12194217638E+03  0.25308953204E+03  0.89130456458E+02 0.  0.
         23    2    1    2    0    0 -0.10747197032E+03  0.68576022228E+02  0.38811794082E+03  0.41841494005E+03  0.90457895408E+02 0.  0.
        -11    1    4    4    0    0 -0.59890757519E+02  0.85569719473E+02  0.28614819528E+03  0.30461429610E+03  0.00000000000E+00 0. -1.
         11    1    4    4    0    0 -0.47581212803E+02 -0.16993697246E+02  0.10196974554E+03  0.11380064395E+03  0.00000000000E+00 0.  1.
        -11    1    3    3    0    0  0.19692571798E+02  0.97314520696E+01  0.32152670384E+02  0.38939603955E+02  0.00000000000E+00 0. -1.
         11    1    3    3    0    0  0.14119254170E+03 -0.13365142153E+03  0.89789505996E+02  0.21414992808E+03  0.00000000000E+00 0.  1.
         21    1    1    2  502  501 -0.53413143178E+02  0.55343947234E+02  0.30571659580E+03  0.31524364119E+03  0.00000000000E+00 0. -1.
<scales pt_clust_5="13000.00000" pt_clust_6="13000.00000" pt_clust_7="13000.00000" pt_clust_8="13000.00000" pt_clust_9="76.91499"></scales>
<clustering>
<clus scale="   76.915">  1  9  2 -1</clus>
<clus scale="   89.130">  7  8 -1 -1</clus>
<clus scale="   90.458">  5  6 -1 -1</clus>
<clus scale="  199.929">  2  7  1 -1</clus>
<clus scale="   76.915">  1  5  2 -1</clus>
</clustering>
</event>
<event>
 9    1  0.9000149E-006  0.9613121E+02  0.7546771E-02  0.1290314E+00
          1   -1    0    0  502    0  0.00000000000E+00  0.00000000000E+00  0.17271691277E+03  0.17271691277E+03  0.00000000000E+00 0. -1.
         -1   -1    0    0    0  501 -0.00000000000E+00 -0.00000000000E+00 -0.17442055482E+03  0.17442055482E+03  0.00000000000E+00 0.  1.
         23    2    1    2    0    0  0.32468538100E+01 -0.21814057275E+02 -0.11718659752E+03  0.15115650900E+03  0.92893468127E+02 0.  0.
         23    2    1    2    0    0 -0.52029545687E+02  0.29622388755E+02  0.89089527067E+02  0.13996904798E+03  0.89832238190E+02 0.  0.
        -13    1    4    4    0    0 -0.48631162181E+02  0.20181729399E+01  0.21845296767E+01  0.48722018913E+02  0.00000000000E+00 0.  1.
         13    1    4    4    0    0 -0.33983835062E+01  0.27604215815E+02  0.86904997390E+02  0.91247029062E+02  0.00000000000E+00 0. -1.
        -13    1    3    3    0    0  0.33136411568E+02  0.15969091526E+02 -0.18136629086E+02  0.41011839393E+02  0.00000000000E+00 0.  1.
         13    1    3    3    0    0 -0.29889557758E+02 -0.37783148801E+02 -0.99049968438E+02  0.11014466961E+03  0.00000000000E+00 0. -1.
         21    1    1    2  502  501  0.48782691877E+02 -0.78083314794E+01  0.26393428407E+02  0.56011910611E+02  0.00000000000E+00 0.  1.
<scales pt_clust_5="13000.00000" pt_clust_6="13000.00000" pt_clust_7="13000.00000" pt_clust_8="13000.00000" pt_clust_9="49.40365"></scales>
<clustering>
<clus scale="   49.404">  1  9  2 -1</clus>
<clus scale="   89.832">  5  6 -1 -1</clus>
<clus scale="   92.893">  7  8 -1 -1</clus>
<clus scale="   93.176">  1  5  2 -1</clus>
<clus scale="   49.404">  1  5  2 -1</clus>
</clustering>
</event>
<event>
 9    1  0.9000149E-006  0.1253144E+03  0.7546771E-02  0.1235369E+00
          1   -1    0    0  502    0  0.00000000000E+00  0.00000000000E+00  0.56376370103E+02  0.56376370103E+02  0.00000000000E+00 0. -1.
         -1   -1    0    0    0  501 -0.00000000000E+00 -0.00000000000E+00 -0.49707907315E+03  0.49707907315E+03  0.00000000000E+00 0.  1.
         23    2    1    2    0    0 -0.15302035877E+01 -0.94238948985E+02 -0.31304544713E+03  0.33906336899E+03  0.89906591462E+02 0.  0.
         23    2    1    2    0    0 -0.14592805067E+02  0.68187154637E+02 -0.13962865882E+03  0.18149888524E+03  0.92645803805E+02 0.  0.
        -13    1    4    4    0    0 -0.26710554680E+02  0.39108349335E+02 -0.10402689249E+02  0.48488479690E+02  0.00000000000E+00 0. -1.
         13    1    4    4    0    0  0.12117749613E+02  0.29078805302E+02 -0.12922596957E+03  0.13301040555E+03  0.00000000000E+00 0.  1.
        -13    1    3    3    0    0 -0.28979509748E+02 -0.93217825888E+02 -0.27731481877E+03  0.29399470022E+03  0.00000000000E+00 0.  1.
         13    1    3    3    0    0  0.27449306160E+02 -0.10211230975E+01 -0.35730628366E+02  0.45068668768E+02  0.00000000000E+00 0. -1.
         21    1    1    2  502  501  0.16123008655E+02  0.26051794348E+02  0.11971402905E+02  0.32893189027E+02  0.00000000000E+00 0. -1.
<scales pt_clust_5="13000.00000" pt_clust_6="13000.00000" pt_clust_7="13000.00000" pt_clust_8="13000.00000" pt_clust_9="30.63735"></scales>
<clustering>
<clus scale="   30.637">  1  9  2 -1</clus>
<clus scale="   89.907">  7  8 -1 -1</clus>
<clus scale="   92.646">  5  6 -1 -1</clus>
<clus scale="  123.303">  2  7  1 -1</clus>
<clus scale="   30.637">  1  5  2 -1</clus>
</clustering>
</event>
<event>
 9    1  0.9000149E-006  0.1032125E+03  0.7546771E-02  0.1273709E+00
          1   -1    0    0  502    0  0.00000000000E+00  0.00000000000E+00  0.13675160993E+03  0.13675160993E+03  0.00000000000E+00 0. -1.
         -1   -1    0    0    0  501 -0.00000000000E+00 -0.00000000000E+00 -0.20273457823E+03  0.20273457823E+03  0.00000000000E+00 0.  1.
         23    2    1    2    0    0 -0.40958454719E+00 -0.23813419787E+02 -0.52880373710E+02  0.10871093397E+03  0.91948281763E+02 0.  0.
         23    2    1    2    0    0 -0.12785904447E+02  0.70338977960E+02 -0.84929040049E+02  0.14418549291E+03  0.92007952637E+02 0.  0.
        -11    1    4    4    0    0  0.11261631972E+02  0.85579042692E+02 -0.52484927741E+02  0.10102110939E+03  0.00000000000E+00 0.  1.
         11    1    4    4    0    0 -0.24047536420E+02 -0.15240064732E+02 -0.32444112308E+02  0.43164383516E+02  0.00000000000E+00 0. -1.
        -13    1    3    3    0    0 -0.16904029052E+02  0.28325925010E+02 -0.50638498956E+00  0.32990311481E+02  0.00000000000E+00 0.  1.
         13    1    3    3    0    0  0.16494444505E+02 -0.52139344797E+02 -0.52373988721E+02  0.75720622487E+02  0.00000000000E+00 0. -1.
         21    1    1    2  502  501  0.13195488995E+02 -0.46525558173E+02  0.71826445460E+02  0.86589761292E+02  0.00000000000E+00 0. -1.
<scales pt_clust_5="13000.00000" pt_clust_6="13000.00000" pt_clust_7="13000.00000" pt_clust_8="13000.00000" pt_clust_9="48.36061"></scales>
<clustering>
<clus scale="   48.361">  1  9  2 -1</clus>
<clus scale="   91.948">  7  8 -1 -1</clus>
<clus scale="   92.008">  5  6 -1 -1</clus>
<clus scale="  103.159">  2  7  1 -1</clus>
<clus scale="   48.361">  1  5  2 -1</clus>
</clustering>
</event>
<event>
 9    1  0.9000149E-006  0.1148226E+03  0.7546771E-02  0.1258225E+00
          4   -1    0    0  502    0  0.00000000000E+00  0.00000000000E+00  0.76923155691E+02  0.76923155691E+02  0.00000000000E+00 0. -1.
         -4   -1    0    0    0  501 -0.00000000000E+00 -0.00000000000E+00 -0.44520008416E+03  0.44520008416E+03  0.00000000000E+00 0.  1.
         23    2    1    2    0    0 -0.11835640487E+02 -0.18466184416E+02 -0.23713522357E+03  0.26073808997E+03  0.10616098600E+03 0.  0.
         23    2    1    2    0    0  0.33776988524E+02  0.92641507241E+02 -0.12538921773E+03  0.18381909817E+03  0.91343697718E+02 0.  0.
        -11    1    3    3    0    0 -0.51619124952E+02  0.62501943416E+01 -0.17721229850E+03  0.18468296545E+03  0.00000000000E+00 0.  1.
         11    1    3    3    0    0  0.39783484465E+02 -0.24716378757E+02 -0.59922925075E+02  0.76055124512E+02  0.00000000000E+00 0. -1.
        -13    1    4    4    0    0 -0.12071414697E+01  0.61126379827E+02 -0.12218102667E+03  0.13662391730E+03  0.00000000000E+00 0.  1.
         13    1    4    4    0    0  0.34984129994E+02  0.31515127414E+02 -0.32081910588E+01  0.47195180869E+02  0.00000000000E+00 0. -1.
         21    1    1    2  502  501 -0.21941348037E+02 -0.74175322825E+02 -0.57524871707E+01  0.77566051714E+02  0.00000000000E+00 0. -1.
<scales pt_clust_5="13000.00000" pt_clust_6="13000.00000" pt_clust_7="13000.00000" pt_clust_8="13000.00000" pt_clust_9="77.35245"></scales>
<clustering>
<clus scale="   77.352">  1  9  2 -1</clus>
<clus scale="   91.344">  7  8 -1 -1</clus>
<clus scale="  101.281">  1  7  2 -1</clus>
<clus scale="  106.161">  5  6 -1 -1</clus>
<clus scale="   77.352">  1  5  2 -1</clus>
</clustering>
</event>
<event>
 9    1  0.9000149E-006  0.2009359E+03  0.7546771E-02  0.1148955E+00
         -1   -1    0    0    0  501 -0.00000000000E+00  0.00000000000E+00  0.54597731682E+02  0.54597731682E+02  0.00000000000E+00 0.  1.
          1   -1    0    0  502    0  0.00000000000E+00 -0.00000000000E+00 -0.12743829179E+04  0.12743829179E+04  0.00000000000E+00 0. -1.
         23    2    1    2    0    0 -0.14723668089E+03 -0.82883379020E+02 -0.21645784122E+03  0.28980534929E+03  0.92654458801E+02 0.  0.
         23    2    1    2    0    0  0.18185909332E+03  0.99984205318E+02 -0.77610489696E+03  0.80869495276E+03  0.92623670870E+02 0.  0.
        -11    1    4    4    0    0  0.64351731036E+02  0.12777672448E+02 -0.39595520725E+03  0.40135388419E+03  0.00000000000E+00 0.  1.
         11    1    4    4    0    0  0.11750736229E+03  0.87206532870E+02 -0.38014968970E+03  0.40734106857E+03  0.00000000000E+00 0. -1.
        -13    1    3    3    0    0 -0.38719267677E+02 -0.51032810928E+02 -0.27768149664E+02  0.69818332953E+02  0.00000000000E+00 0.  1.
         13    1    3    3    0    0 -0.10851741321E+03 -0.31850568092E+02 -0.18868969156E+03  0.21998701634E+03  0.00000000000E+00 0. -1.
         21    1    1    2  502  501 -0.34622412432E+02 -0.17100826298E+02 -0.22722244806E+03  0.23048034755E+03  0.00000000000E+00 0. -1.
<scales pt_clust_5="13000.00000" pt_clust_6="13000.00000" pt_clust_7="13000.00000" pt_clust_8="13000.00000" pt_clust_9="38.61541"></scales>
<clustering>
<clus scale="   38.615">  2  9  1 -1</clus>
<clus scale="   92.624">  5  6 -1 -1</clus>
<clus scale="   92.654">  7  8 -1 -1</clus>
<clus scale="  200.922">  2  5  1 -1</clus>
<clus scale="   38.615">  2  5  1 -1</clus>
</clustering>
</event>
<event>
 9    1  0.9000149E-006  0.1030198E+03  0.7546771E-02  0.1274175E+00
          1   -1    0    0  502    0  0.00000000000E+00  0.00000000000E+00  0.11332332758E+03  0.11332332758E+03  0.00000000000E+00 0. -1.
         -1   -1    0    0    0  501 -0.00000000000E+00 -0.00000000000E+00 -0.32355789051E+03  0.32355789051E+03  0.00000000000E+00 0.  1.
         23    2    1    2    0    0 -0.43628773722E+02  0.11559516575E+02 -0.25683664178E+03  0.27629162660E+03  0.91295728539E+02 0.  0.
         23    2    1    2    0    0  0.55669211308E+02 -0.37393412314E+02  0.90617846736E+01  0.11345535772E+03  0.91064119620E+02 0.  0.
        -11    1    4    4    0    0  0.87578269460E+01 -0.51961223510E+02 -0.20022009330E+02  0.56369753761E+02  0.00000000000E+00 0. -1.
         11    1    4    4    0    0  0.46911384362E+02  0.14567811197E+02  0.29083794004E+02  0.57085603960E+02  0.00000000000E+00 0.  1.
        -13    1    3    3    0    0 -0.37431954240E+02 -0.24662478389E+02 -0.54131327455E+02  0.70282214326E+02  0.00000000000E+00 0. -1.
         13    1    3    3    0    0 -0.61968194821E+01  0.36221994964E+02 -0.20270531432E+03  0.20600941227E+03  0.00000000000E+00 0.  1.
         21    1    1    2  502  501 -0.12040437586E+02  0.25833895739E+02  0.37540294172E+02  0.47134233767E+02  0.00000000000E+00 0.  1.
<scales pt_clust_5="13000.00000" pt_clust_6="13000.00000" pt_clust_7="13000.00000" pt_clust_8="13000.00000" pt_clust_9="28.50197"></scales>
<clustering>
<clus scale="   28.502">  1  9  2 -1</clus>
<clus scale="   91.064">  5  6 -1 -1</clus>
<clus scale="   91.296">  7  8 -1 -1</clus>
<clus scale="  102.815">  1  5  2 -1</clus>
<clus scale="   28.502">  1  5  2 -1</clus>
</clustering>
</event>
<event>
 9    1  0.9000149E-006  0.1058993E+03  0.7546771E-02  0.1268510E+00
          1   -1    0    0  502    0  0.00000000000E+00  0.00000000000E+00  0.74700163268E+02  0.74700163268E+02  0.00000000000E+00 0. -1.
         -1   -1    0    0    0  501 -0.00000000000E+00 -0.00000000000E+00 -0.55767785675E+03  0.55767785675E+03  0.00000000000E+00 0.  1.
         23    2    1    2    0    0  0.55231764077E+02 -0.23310904339E+02 -0.31003762715E+03  0.32859965698E+03  0.90887063392E+02 0.  0.
         23    2    1    2    0    0 -0.28023269843E+02  0.42865673097E+02 -0.22138901409E+03  0.24487172777E+03  0.91248550218E+02 0.  0.
        -11    1    4    4    0    0 -0.57495050560E+02  0.65518220410E+01 -0.12323518812E+03  0.13614521218E+03  0.00000000000E+00 0.  1.
         11    1    4    4    0    0  0.29471780717E+02  0.36313851055E+02 -0.98153825977E+02  0.10872651558E+03  0.00000000000E+00 0. -1.
        -11    1    3    3    0    0  0.34015390685E+01 -0.41733036578E+02 -0.63943394885E+02  0.76432810752E+02  0.00000000000E+00 0.  1.
         11    1    3    3    0    0  0.51830225008E+02  0.18422132238E+02 -0.24609423226E+03  0.25216684622E+03  0.00000000000E+00 0. -1.
         21    1    1    2  502  501 -0.27208494233E+02 -0.19554768757E+02  0.48448947763E+02  0.58906635270E+02  0.00000000000E+00 0.  1.
<scales pt_clust_5="13000.00000" pt_clust_6="13000.00000" pt_clust_7="13000.00000" pt_clust_8="13000.00000" pt_clust_9="33.50658"></scales>
<clustering>
<clus scale="   33.507">  1  9  2 -1</clus>
<clus scale="   90.887">  7  8 -1 -1</clus>
<clus scale="   91.249">  5  6 -1 -1</clus>
<clus scale="  105.588">  2  7  1 -1</clus>
<clus scale="   33.507">  1  5  2 -1</clus>
</clustering>
</event>
<event>
 9    1  0.9000149E-006  0.9547884E+02  0.7546771E-02  0.1290722E+00
         -4   -1    0    0    0  501 -0.00000000000E+00  0.00000000000E+00  0.90466067670E+02  0.90466067670E+02  0.00000000000E+00 0.  1.
          4   -1    0    0  502    0  0.00000000000E+00 -0.00000000000E+00 -0.22105035005E+03  0.22105035005E+03  0.00000000000E+00 0. -1.
         23    2    1    2    0    0  0.11607884162E+02 -0.22388192939E+02  0.27079616724E+02  0.97443226521E+02  0.90143788445E+02 0.  0.
         23    2    1    2    0    0  0.31047797075E+01  0.38664570355E+02 -0.64410665007E+02  0.11827366819E+03  0.91298073155E+02 0.  0.
        -11    1    3    3    0    0  0.12802063301E+02  0.26080873141E+02  0.37911828688E+02  0.47764123807E+02  0.00000000000E+00 0.  1.
         11    1    3    3    0    0 -0.11941791389E+01 -0.48469066080E+02 -0.10832211964E+02  0.49679102715E+02  0.00000000000E+00 0. -1.
        -13    1    4    4    0    0  0.28350637399E+02  0.53915901481E+02 -0.18423310713E+02  0.63640407377E+02  0.00000000000E+00 0.  1.
         13    1    4    4    0    0 -0.25245857692E+02 -0.15251331126E+02 -0.45987354294E+02  0.54633260810E+02  0.00000000000E+00 0. -1.
         21    1    1    2  502  501 -0.14712663870E+02 -0.16276377416E+02 -0.93253234096E+02  0.95799523012E+02  0.00000000000E+00 0. -1.
<scales pt_clust_5="13000.00000" pt_clust_6="13000.00000" pt_clust_7="13000.00000" pt_clust_8="13000.00000" pt_clust_9="21.94044"></scales>
<clustering>
<clus scale="   21.940">  2  9  1 -1</clus>
<clus scale="   90.144">  5  6 -1 -1</clus>
<clus scale="   91.298">  7  8 -1 -1</clus>
<clus scale="   94.376">  1  5  2 -1</clus>
<clus scale="   21.940">  2  5  1 -1</clus>
</clustering>
</event>
<event>
 9    1  0.9000149E-006  0.9755952E+02  0.7546771E-02  0.1288921E+00
         -4   -1    0    0    0  501 -0.00000000000E+00  0.00000000000E+00  0.37919428140E+03  0.37919428140E+03  0.00000000000E+00 0.  1.
          4   -1    0    0  502    0  0.00000000000E+00 -0.00000000000E+00 -0.30400506492E+02  0.30400506492E+02  0.00000000000E+00 0. -1.
         23    2    1    2    0    0  0.17938334960E+02 -0.80704477024E+01  0.18583875082E+03  0.20736497900E+03  0.89873673684E+02 0.  0.
         23    2    1    2    0    0 -0.16023848681E+02 -0.13222391965E+02  0.13016566301E+03  0.16308657859E+03  0.96034040387E+02 0.  0.
        -11    1    3    3    0    0  0.44880373945E+02  0.11764195389E+02  0.53281444095E+02  0.70650948638E+02  0.00000000000E+00 0. -1.
         11    1    3    3    0    0 -0.26942038985E+02 -0.19834643091E+02  0.13255730672E+03  0.13671403036E+03  0.00000000000E+00 0.  1.
        -11    1    4    4    0    0 -0.76268446377E+01 -0.53266606323E+02  0.94792067344E+02  0.10900016578E+03  0.00000000000E+00 0.  1.
         11    1    4    4    0    0 -0.83970040437E+01  0.40044214358E+02  0.35373595670E+02  0.54086412814E+02  0.00000000000E+00 0. -1.
         21    1    1    2  502  501 -0.19144862790E+01  0.21292839668E+02  0.32789361078E+02  0.39143230305E+02  0.00000000000E+00 0.  1.
<scales pt_clust_5="13000.00000" pt_clust_6="13000.00000" pt_clust_7="13000.00000" pt_clust_8="13000.00000" pt_clust_9="21.37873"></scales>
<clustering>
<clus scale="   21.379">  2  9  1 -1</clus>
<clus scale="   89.874">  5  6 -1 -1</clus>
<clus scale="   91.502">  1  5  2 -1</clus>
<clus scale="   96.034">  7  8 -1 -1</clus>
<clus scale="   21.379">  2  5  1 -1</clus>
</clustering>
</event>
<event>
 9    1  0.9000149E-006  0.1456241E+03  0.7546771E-02  0.1209239E+00
         -2   -1    0    0    0  501 -0.00000000000E+00  0.00000000000E+00  0.22742106761E+03  0.22742106761E+03  0.00000000000E+00 0.  1.
          2   -1    0    0  502    0  0.00000000000E+00 -0.00000000000E+00 -0.38950805943E+03  0.38950805943E+03  0.00000000000E+00 0. -1.
         23    2    1    2    0    0  0.94661359979E+02 -0.52607689390E+02  0.77761759015E+02  0.15947153123E+03  0.87498205997E+02 0.  0.
         23    2    1    2    0    0 -0.10350390331E+03  0.72804491192E+01  0.57482291037E+02  0.15656143807E+03  0.10218222531E+03 0.  0.
        -11    1    4    4    0    0 -0.42049630471E+02 -0.47079078601E+02  0.18873108941E+02  0.65884788122E+02  0.00000000000E+00 0.  1.
         11    1    4    4    0    0 -0.61454272837E+02  0.54359527721E+02  0.38609182096E+02  0.90676649949E+02  0.00000000000E+00 0. -1.
        -13    1    3    3    0    0  0.35634372822E+02  0.19302827318E+02  0.45668916949E+02  0.61057822137E+02  0.00000000000E+00 0. -1.
         13    1    3    3    0    0  0.59026987157E+02 -0.71910516708E+02  0.32092842066E+02  0.98413709096E+02  0.00000000000E+00 0.  1.
         21    1    1    2  502  501  0.88425433288E+01  0.45327240270E+02 -0.29733104187E+03  0.30089615774E+03  0.00000000000E+00 0. -1.
<scales pt_clust_5="13000.00000" pt_clust_6="13000.00000" pt_clust_7="13000.00000" pt_clust_8="13000.00000" pt_clust_9="46.18170"></scales>
<clustering>
<clus scale="   46.182">  2  9  1 -1</clus>
<clus scale="   87.498">  7  8 -1 -1</clus>
<clus scale="  102.182">  5  6 -1 -1</clus>
<clus scale="  135.724">  1  7  2 -1</clus>
<clus scale="   46.182">  2  5  1 -1</clus>
</clustering>
</event>
<event>
 9    1  0.9000149E-006  0.1095769E+03  0.7546771E-02  0.1263887E+00
          1   -1    0    0  502    0  0.00000000000E+00  0.00000000000E+00  0.16584107272E+03  0.16584107272E+03  0.00000000000E+00 0. -1.
         -1   -1    0    0    0  501 -0.00000000000E+00 -0.00000000000E+00 -0.23014383676E+03  0.23014383676E+03  0.00000000000E+00 0.  1.
         23    2    1    2    0    0 -0.56064153906E+02  0.91990434243E+01 -0.19187779631E+03  0.22156571973E+03  0.95112920731E+02 0.  0.
         23    2    1    2    0    0  0.33711273043E+02 -0.33685387223E+01  0.10946390471E+03  0.14506516089E+03  0.88959302424E+02 0.  0.
        -11    1    4    4    0    0  0.49431215610E+02  0.15665759650E+02  0.10862189226E+03  0.12036434929E+03  0.00000000000E+00 0. -1.
         11    1    4    4    0    0 -0.15719942567E+02 -0.19034298372E+02  0.84201244603E+00  0.24700811601E+02  0.00000000000E+00 0.  1.
        -13    1    3    3    0    0  0.60025456730E+01  0.34508189788E+02 -0.29134566809E+02  0.45559507242E+02  0.00000000000E+00 0. -1.
         13    1    3    3    0    0 -0.62066699579E+02 -0.25309146363E+02 -0.16274322951E+03  0.17600621249E+03  0.00000000000E+00 0.  1.
         21    1    1    2  502  501  0.22352880863E+02 -0.58305047020E+01  0.18111127566E+02  0.29354028849E+02  0.00000000000E+00 0. -1.
<scales pt_clust_5="13000.00000" pt_clust_6="13000.00000" pt_clust_7="13000.00000" pt_clust_8="13000.00000" pt_clust_9="23.10078"></scales>
<clustering>
<clus scale="   23.101">  1  9  2 -1</clus>
<clus scale="   88.959">  5  6 -1 -1</clus>
<clus scale="   95.113">  7  8 -1 -1</clus>
<clus scale="  104.280">  1  5  2 -1</clus>
<clus scale="   23.101">  1  5  2 -1</clus>
</clustering>
</event>
<event>
 9    1  0.9000149E-006  0.1067547E+03  0.7546771E-02  0.1267712E+00
         -1   -1    0    0    0  501 -0.00000000000E+00  0.00000000000E+00  0.68923267836E+02  0.68923267836E+02  0.00000000000E+00 0.  1.
          1   -1    0    0  502    0  0.00000000000E+00 -0.00000000000E+00 -0.37958971254E+03  0.37958971254E+03  0.00000000000E+00 0. -1.
         23    2    1    2    0    0 -0.71193205429E+02 -0.17064405174E+02 -0.40225163520E+02  0.12234747972E+03  0.89393375538E+02 0.  0.
         23    2    1    2    0    0  0.31736494758E+02  0.10084438421E+02 -0.66104745103E+02  0.11793732790E+03  0.91817618076E+02 0.  0.
        -11    1    3    3    0    0 -0.29682230028E+02 -0.28666911659E+02 -0.61672244648E+02  0.74204395850E+02  0.00000000000E+00 0. -1.
         11    1    3    3    0    0 -0.41510975401E+02  0.11602506486E+02  0.21447081128E+02  0.48143083869E+02  0.00000000000E+00 0.  1.
        -11    1    4    4    0    0  0.53932374343E+02  0.14155618156E+02 -0.75191762836E+02  0.93610275750E+02  0.00000000000E+00 0. -1.
         11    1    4    4    0    0 -0.22195879585E+02 -0.40711797347E+01  0.90870177330E+01  0.24327052149E+02  0.00000000000E+00 0.  1.
         21    1    1    2  502  501  0.39456710671E+02  0.69799667528E+01 -0.20433653608E+03  0.20822817276E+03  0.00000000000E+00 0. -1.
<scales pt_clust_5="13000.00000" pt_clust_6="13000.00000" pt_clust_7="13000.00000" pt_clust_8="13000.00000" pt_clust_9="40.06934"></scales>
<clustering>
<clus scale="   40.069">  2  9  1 -1</clus>
<clus scale="   89.393">  5  6 -1 -1</clus>
<clus scale="   91.818">  7  8 -1 -1</clus>
<clus scale="  104.677">  1  5  2 -1</clus>
<clus scale="   40.069">  2  5  1 -1</clus>
</clustering>
</event>
<event>
 9    1  0.9000149E-006  0.1041418E+03  0.7546771E-02  0.1274463E+00
          1   -1    0    0  502    0  0.00000000000E+00  0.00000000000E+00  0.63450635530E+02  0.63450635530E+02  0.00000000000E+00 0. -1.
         -1   -1    0    0    0  501 -0.00000000000E+00 -0.00000000000E+00 -0.25497824730E+03  0.25497824730E+03  0.00000000000E+00 0.  1.
         23    2    1    2    0    0  0.77008036401E+01  0.13756112103E+02 -0.14997141532E+03  0.17923651033E+03  0.96880174563E+02 0.  0.
         23    2    1    2    0    0 -0.31878405451E+02 -0.15574375352E+02 -0.38346236987E+02  0.11473493293E+03  0.10215124592E+03 0.  0.
        -11    1    4    4    0    0 -0.15827357564E+02 -0.51389626034E+02  0.76019455830E+01  0.54306431369E+02  0.00000000000E+00 0. -1.
         11    1    4    4    0    0 -0.16051047887E+02  0.35815250682E+02 -0.45948182570E+02  0.60428501563E+02  0.00000000000E+00 0.  1.
        -11    1    3    3    0    0 -0.35099228722E+02 -0.22514397537E+02 -0.56508282600E+02  0.70228483934E+02  0.00000000000E+00 0. -1.
         11    1    3    3    0    0  0.42800032362E+02  0.36270509640E+02 -0.93463132724E+02  0.10900802639E+03  0.00000000000E+00 0.  1.
         21    1    1    2  502  501  0.24177601811E+02  0.18182632491E+01 -0.32099594588E+01  0.24457439569E+02  0.00000000000E+00 0.  1.
<scales pt_clust_5="13000.00000" pt_clust_6="13000.00000" pt_clust_7="13000.00000" pt_clust_8="13000.00000" pt_clust_9="24.24588"></scales>
<clustering>
<clus scale="   24.246">  1  9  2 -1</clus>
<clus scale="   96.880">  7  8 -1 -1</clus>
<clus scale="   98.977">  2  7  1 -1</clus>
<clus scale="  102.151">  5  6 -1 -1</clus>
<clus scale="   24.246">  1  5  2 -1</clus>
</clustering>
</event>
<event>
 9    1  0.9000149E-006  0.1433276E+03  0.7546771E-02  0.1213149E+00
          2   -1    0    0  502    0  0.00000000000E+00  0.00000000000E+00  0.31924769127E+03  0.31924769127E+03  0.00000000000E+00 0. -1.
         -2   -1    0    0    0  501 -0.00000000000E+00 -0.00000000000E+00 -0.24398656994E+03  0.24398656994E+03  0.00000000000E+00 0.  1.
         23    2    1    2    0    0  0.34618194889E+02 -0.97722380312E+02 -0.13773844983E+03  0.19464159961E+03  0.90362540397E+02 0.  0.
         23    2    1    2    0    0 -0.63617262216E+02 -0.68880914082E+02  0.10582021002E+03  0.16838022676E+03  0.91445325413E+02 0.  0.
        -13    1    4    4    0    0 -0.68100868949E+02 -0.18829748334E+02  0.92490756578E+02  0.11639084082E+03  0.00000000000E+00 0.  1.
         13    1    4    4    0    0  0.44836067329E+01 -0.50051165747E+02  0.13329453442E+02  0.51989385946E+02  0.00000000000E+00 0. -1.
        -13    1    3    3    0    0  0.20140625988E+02 -0.49332075594E+01  0.71892216223E+01  0.21946896353E+02  0.00000000000E+00 0. -1.
         13    1    3    3    0    0  0.14477568901E+02 -0.92789172753E+02 -0.14492767145E+03  0.17269470326E+03  0.00000000000E+00 0.  1.
         21    1    1    2  502  501  0.28999067327E+02  0.16660329439E+03  0.10717936114E+03  0.20021243484E+03  0.00000000000E+00 0. -1.
<scales pt_clust_5="13000.00000" pt_clust_6="13000.00000" pt_clust_7="13000.00000" pt_clust_8="13000.00000" pt_clust_9="111.25387"></scales>
<clustering>
<clus scale="   90.363">  7  8 -1 -1</clus>
<clus scale="   91.445">  5  6 -1 -1</clus>
<clus scale="  130.973">  1  5  2 -1</clus>
<clus scale="  111.254">  1  9  2 -1</clus>
<clus scale="  130.973">  1  5  2 -1</clus>
</clustering>
</event>
<event>
 9    1  0.9000149E-006  0.1140549E+03  0.7546771E-02  0.1254609E+00
         -2   -1    0    0    0  501 -0.00000000000E+00  0.00000000000E+00  0.17403472036E+03  0.17403472036E+03  0.00000000000E+00 0.  1.
          2   -1    0    0  502    0  0.00000000000E+00 -0.00000000000E+00 -0.30430078943E+03  0.30430078943E+03  0.00000000000E+00 0. -1.
         23    2    1    2    0    0 -0.26506944224E+02  0.63682193525E+02  0.13142915282E+03  0.17398792710E+03  0.90775198705E+02 0.  0.
         23    2    1    2    0    0  0.21603669428E+02 -0.25477533368E+02 -0.11435938373E+03  0.15206006722E+03  0.94490063802E+02 0.  0.
        -11    1    3    3    0    0 -0.44088516328E+02  0.13509183539E+02  0.10486708452E+03  0.11455741237E+03  0.00000000000E+00 0.  1.
         11    1    3    3    0    0  0.17581572105E+02  0.50173009987E+02  0.26562068298E+02  0.59430514730E+02  0.00000000000E+00 0. -1.
        -13    1    4    4    0    0  0.59146245817E+02 -0.18741486332E+02 -0.68885621509E+02  0.92707877523E+02  0.00000000000E+00 0. -1.
         13    1    4    4    0    0 -0.37542576389E+02 -0.67360470361E+01 -0.45473762223E+02  0.59352189701E+02  0.00000000000E+00 0.  1.
         21    1    1    2  502  501  0.49032747959E+01 -0.38204660157E+02 -0.14733583816E+03  0.15228751547E+03  0.00000000000E+00 0. -1.
<scales pt_clust_5="13000.00000" pt_clust_6="13000.00000" pt_clust_7="13000.00000" pt_clust_8="13000.00000" pt_clust_9="38.51802"></scales>
<clustering>
<clus scale="   38.518">  2  9  1 -1</clus>
<clus scale="   90.775">  5  6 -1 -1</clus>
<clus scale="   94.490">  7  8 -1 -1</clus>
<clus scale="  110.997">  1  5  2 -1</clus>
<clus scale="   38.518">  2  5  1 -1</clus>
</clustering>
</event>
<event>
 9    1  0.9000149E-006  0.9403087E+02  0.7546771E-02  0.1293382E+00
          2   -1    0    0  502    0  0.00000000000E+00  0.00000000000E+00  0.65520031100E+02  0.65520031100E+02  0.00000000000E+00 0. -1.
         -2   -1    0    0    0  501 -0.00000000000E+00 -0.00000000000E+00 -0.20410872260E+03  0.20410872260E+03  0.00000000000E+00 0.  1.
         23    2    1    2    0    0 -0.82709941991E+01 -0.23917275336E+01 -0.10916681161E+03  0.14244854881E+03  0.91104701278E+02 0.  0.
         23    2    1    2    0    0  0.19748347601E+02  0.22341105196E+02 -0.88002435428E+01  0.96277790814E+02  0.91119956668E+02 0.  0.
        -13    1    4    4    0    0  0.25521857733E+02  0.54225651551E+02  0.67979931314E+01  0.60315828925E+02  0.00000000000E+00 0.  1.
         13    1    4    4    0    0 -0.57735101324E+01 -0.31884546355E+02 -0.15598236674E+02  0.35961961889E+02  0.00000000000E+00 0. -1.
        -13    1    3    3    0    0 -0.26349447053E+02  0.38405651414E+02 -0.49873166874E+02  0.68239432841E+02  0.00000000000E+00 0. -1.
         13    1    3    3    0    0  0.18078452853E+02 -0.40797378947E+02 -0.59293644735E+02  0.74209115967E+02  0.00000000000E+00 0.  1.
         21    1    1    2  502  501 -0.11477353402E+02 -0.19949377662E+02 -0.20621636346E+02  0.30902414077E+02  0.00000000000E+00 0.  1.
<scales pt_clust_5="13000.00000" pt_clust_6="13000.00000" pt_clust_7="13000.00000" pt_clust_8="13000.00000" pt_clust_9="23.01537"></scales>
<clustering>
<clus scale="   23.015">  2  9  1 -1</clus>
<clus scale="   91.105">  7  8 -1 -1</clus>
<clus scale="   91.120">  5  6 -1 -1</clus>
<clus scale="   94.016">  2  7  1 -1</clus>
<clus scale="   94.031">  1  5  2 -1</clus>
</clustering>
</event>
<event>
 9    1  0.9000149E-006  0.1173743E+03  0.7546771E-02  0.1248003E+00
         -1   -1    0    0    0  501 -0.00000000000E+00  0.00000000000E+00  0.44373983431E+03  0.44373983431E+03  0.00000000000E+00 0.  1.
          1   -1    0    0  502    0  0.00000000000E+00 -0.00000000000E+00 -0.83418859265E+02  0.83418859265E+02  0.00000000000E+00 0. -1.
         23    2    1    2    0    0 -0.47008793085E+02 -0.49869701367E+02  0.35501715465E+03  0.37393661462E+03  0.95365601309E+02 0.  0.
         23    2    1    2    0    0  0.28336690549E+02  0.65590811198E+02  0.26465149847E+02  0.12091724075E+03  0.93890640696E+02 0.  0.
        -11    1    4    4    0    0 -0.40836458439E+01  0.62009603031E+02  0.50765011842E+02  0.80243089789E+02  0.00000000000E+00 0.  1.
         11    1    4    4    0    0  0.32420336393E+02  0.35812081665E+01 -0.24299861995E+02  0.40674150965E+02  0.00000000000E+00 0. -1.
        -13    1    3    3    0    0  0.12722819553E+02  0.20744272112E+02  0.59494671732E+02  0.64279164022E+02  0.00000000000E+00 0. -1.
         13    1    3    3    0    0 -0.59731612637E+02 -0.70613973479E+02  0.29552248292E+03  0.30965745059E+03  0.00000000000E+00 0.  1.
         21    1    1    2  502  501  0.18672102536E+02 -0.15721109831E+02 -0.21161329451E+02  0.32304838206E+02  0.00000000000E+00 0. -1.
<scales pt_clust_5="13000.00000" pt_clust_6="13000.00000" pt_clust_7="13000.00000" pt_clust_8="13000.00000" pt_clust_9="24.40903"></scales>
<clustering>
<clus scale="   24.409">  2  9  1 -1</clus>
<clus scale="   93.891">  5  6 -1 -1</clus>
<clus scale="   95.366">  7  8 -1 -1</clus>
<clus scale="  116.179">  2  5  1 -1</clus>
<clus scale="   24.409">  2  5  1 -1</clus>
</clustering>
</event>
<event>
 9    1  0.9000149E-006  0.9701074E+02  0.7546771E-02  0.1287635E+00
          1   -1    0    0  502    0  0.00000000000E+00  0.00000000000E+00  0.45575406469E+03  0.45575406469E+03  0.00000000000E+00 0. -1.
         -1   -1    0    0    0  501 -0.00000000000E+00 -0.00000000000E+00 -0.26771462259E+02  0.26771462259E+02  0.00000000000E+00 0.  1.
         23    2    1    2    0    0  0.29303022507E+02  0.27293934409E+02  0.14018711256E+03  0.17059888825E+03  0.88588532894E+02 0.  0.
         23    2    1    2    0    0 -0.73699055153E+01 -0.30435360885E+02  0.23032146203E+03  0.24939550955E+03  0.90385383837E+02 0.  0.
        -11    1    4    4    0    0 -0.32734075574E+02 -0.19763022683E+02  0.21402531963E+03  0.21741419965E+03  0.00000000000E+00 0. -1.
         11    1    4    4    0    0  0.25364170059E+02 -0.10672338202E+02  0.16296142408E+02  0.31981309899E+02  0.00000000000E+00 0.  1.
        -13    1    3    3    0    0  0.49948868645E+02  0.38124103237E+02  0.13145923301E+03  0.14570472425E+03  0.00000000000E+00 0.  1.
         13    1    3    3    0    0 -0.20645846138E+02 -0.10830168828E+02  0.87278795517E+01  0.24894163996E+02  0.00000000000E+00 0. -1.
         21    1    1    2  502  501 -0.21933116992E+02  0.31414264767E+01  0.58474027839E+02  0.62531129152E+02  0.00000000000E+00 0. -1.
<scales pt_clust_5="13000.00000" pt_clust_6="13000.00000" pt_clust_7="13000.00000" pt_clust_8="13000.00000" pt_clust_9="22.15694"></scales>
<clustering>
<clus scale="   22.157">  1  9  2 -1</clus>
<clus scale="   88.589">  7  8 -1 -1</clus>
<clus scale="   90.385">  5  6 -1 -1</clus>
<clus scale="   95.339">  2  7  1 -1</clus>
<clus scale="   22.157">  1  5  2 -1</clus>
</clustering>
</event>
<event>
 9    1  0.9000149E-006  0.1027859E+03  0.7546771E-02  0.1275346E+00
          1   -1    0    0  502    0  0.00000000000E+00  0.00000000000E+00  0.29421502895E+03  0.29421502895E+03  0.00000000000E+00 0. -1.
         -1   -1    0    0    0  501 -0.00000000000E+00 -0.00000000000E+00 -0.31058303921E+03  0.31058303921E+03  0.00000000000E+00 0.  1.
         23    2    1    2    0    0  0.37971423557E+02  0.30580091271E+02 -0.28583474550E+03  0.30385594032E+03  0.90829289031E+02 0.  0.
         23    2    1    2    0    0 -0.13095848340E+02 -0.30466902636E+02  0.25508270981E+03  0.27220700574E+03  0.89049041147E+02 0.  0.
        -13    1    4    4    0    0  0.26485101764E+02 -0.42856782244E+02  0.10439580834E+03  0.11591656137E+03  0.00000000000E+00 0. -1.
         13    1    4    4    0    0 -0.39580950104E+02  0.12389879608E+02  0.15068690147E+03  0.15629044437E+03  0.00000000000E+00 0.  1.
        -13    1    3    3    0    0 -0.17970118076E+01  0.51335028896E+02 -0.20573377584E+03  0.21204928900E+03  0.00000000000E+00 0.  1.
         13    1    3    3    0    0  0.39768435365E+02 -0.20754937625E+02 -0.80100969662E+02  0.91806651327E+02  0.00000000000E+00 0. -1.
         21    1    1    2  502  501 -0.24875575217E+02 -0.11318863552E+00  0.14384025439E+02  0.28735122096E+02  0.00000000000E+00 0.  1.
<scales pt_clust_5="13000.00000" pt_clust_6="13000.00000" pt_clust_7="13000.00000" pt_clust_8="13000.00000" pt_clust_9="24.87583"></scales>
<clustering>
<clus scale="   24.876">  1  9  2 -1</clus>
<clus scale="   89.049">  5  6 -1 -1</clus>
<clus scale="   90.829">  7  8 -1 -1</clus>
<clus scale="  101.216">  1  5  2 -1</clus>
<clus scale="   24.876">  1  5  2 -1</clus>
</clustering>
</event>
<event>
 9    1  0.9000149E-006  0.2309185E+03  0.7546771E-02  0.1137514E+00
         -1   -1    0    0    0  501 -0.00000000000E+00  0.00000000000E+00  0.60691643303E+03  0.60691643303E+03  0.00000000000E+00 0.  1.
          1   -1    0    0  502    0  0.00000000000E+00 -0.00000000000E+00 -0.13074823867E+04  0.13074823867E+04  0.00000000000E+00 0. -1.
         23    2    1    2    0    0 -0.12565030071E+03 -0.65863161971E+02  0.55130332532E+03  0.57816229766E+03  0.10104618623E+03 0.  0.
         23    2    1    2    0    0 -0.49753214110E+02 -0.14231134287E+03 -0.30771699265E+03  0.35362441281E+03  0.87364621793E+02 0.  0.
        -11    1    4    4    0    0 -0.69420906330E+02 -0.10669962187E+03 -0.18681733173E+03  0.22606367903E+03  0.00000000000E+00 0.  1.
         11    1    4    4    0    0  0.19667692220E+02 -0.35611721008E+02 -0.12089966092E+03  0.12756073378E+03  0.00000000000E+00 0. -1.
        -13    1    3    3    0    0 -0.38934165380E+02 -0.76756772299E+02  0.29960585650E+03  0.31172285861E+03  0.00000000000E+00 0.  1.
         13    1    3    3    0    0 -0.86716135329E+02  0.10893610329E+02  0.25169746881E+03  0.26643943905E+03  0.00000000000E+00 0. -1.
         21    1    1    2  502  501  0.17540351482E+03  0.20817450484E+03 -0.94415228633E+03  0.98261210925E+03  0.00000000000E+00 0. -1.
<scales pt_clust_5="13000.00000" pt_clust_6="13000.00000" pt_clust_7="13000.00000" pt_clust_8="13000.00000" pt_clust_9="213.75400"></scales>
<clustering>
<clus scale="   87.365">  5  6 -1 -1</clus>
<clus scale="  101.046">  7  8 -1 -1</clus>
<clus scale="  174.173">  1  7  2 -1</clus>
<clus scale="  213.754">  2  9  1 -1</clus>
<clus scale="  213.754">  2  5  1 -1</clus>
</clustering>
</event>
<event>
 9    1  0.9000149E-006  0.1471069E+03  0.7546771E-02  0.1204109E+00
          2   -1    0    0  502    0  0.00000000000E+00  0.00000000000E+00  0.58148419098E+03  0.58148419098E+03  0.00000000000E+00 0. -1.
         -2   -1    0    0    0  501 -0.00000000000E+00 -0.00000000000E+00 -0.55182830252E+02  0.55182830252E+02  0.00000000000E+00 0.  1.
         23    2    1    2    0    0  0.72861880961E+02  0.71720248275E+02  0.13649833939E+03  0.19354538134E+03  0.91517049068E+02 0.  0.
         23    2    1    2    0    0 -0.11837166485E+03 -0.45678029147E+02  0.31520918215E+03  0.35194281313E+03  0.91698319591E+02 0.  0.
        -11    1    4    4    0    0 -0.54348624198E+01  0.23008969422E+02  0.36679053490E+02  0.43638324536E+02  0.00000000000E+00 0.  1.
         11    1    4    4    0    0 -0.11293680243E+03 -0.68686998570E+02  0.27853012866E+03  0.30830448859E+03  0.00000000000E+00 0. -1.
        -11    1    3    3    0    0  0.47590805717E+02  0.68007058187E+02  0.37102257344E+02  0.90919867203E+02  0.00000000000E+00 0.  1.
         11    1    3    3    0    0  0.25271075243E+02  0.37131900880E+01  0.99396082051E+02  0.10262551414E+03  0.00000000000E+00 0. -1.
         21    1    1    2  502  501  0.45509783886E+02 -0.26042219128E+02  0.74593839190E+02  0.91178826772E+02  0.00000000000E+00 0.  1.
<scales pt_clust_5="13000.00000" pt_clust_6="13000.00000" pt_clust_7="13000.00000" pt_clust_8="13000.00000" pt_clust_9="52.43413"></scales>
<clustering>
<clus scale="   52.434">  2  9  1 -1</clus>
<clus scale="   91.517">  7  8 -1 -1</clus>
<clus scale="   91.698">  5  6 -1 -1</clus>
<clus scale="  146.994">  2  7  1 -1</clus>
<clus scale="  147.107">  1  5  2 -1</clus>
</clustering>
</event>
<event>
 9    1  0.9000149E-006  0.2144030E+03  0.7546771E-02  0.1139068E+00
         -1   -1    0    0    0  501 -0.00000000000E+00  0.00000000000E+00  0.27968703562E+03  0.27968703562E+03  0.00000000000E+00 0.  1.
          1   -1    0    0  502    0  0.00000000000E+00 -0.00000000000E+00 -0.36616340056E+03  0.36616340056E+03  0.00000000000E+00 0. -1.
         23    2    1    2    0    0  0.18597653392E+03 -0.78188050139E+02  0.17468739413E+03  0.27854596627E+03  0.79821847304E+02 0.  0.
         23    2    1    2    0    0 -0.16329288254E+03  0.36161456318E+02 -0.13869823930E+03  0.23585643394E+03  0.91754233879E+02 0.  0.
        -13    1    4    4    0    0 -0.40407477787E+02  0.38619700595E+02 -0.80353952127E+01  0.56469576866E+02  0.00000000000E+00 0.  1.
         13    1    4    4    0    0 -0.12288540475E+03 -0.24582442774E+01 -0.13066284408E+03  0.17938685707E+03  0.00000000000E+00 0. -1.
        -13    1    3    3    0    0  0.16990171520E+03 -0.43863396685E+02  0.12231001833E+03  0.21389327007E+03  0.00000000000E+00 0.  1.
         13    1    3    3    0    0  0.16074818723E+02 -0.34324653454E+02  0.52377375791E+02  0.64652696204E+02  0.00000000000E+00 0. -1.
         21    1    1    2  502  501 -0.22683651382E+02  0.42026593821E+02 -0.12246551976E+03  0.13144803597E+03  0.00000000000E+00 0. -1.
<scales pt_clust_5="13000.00000" pt_clust_6="13000.00000" pt_clust_7="13000.00000" pt_clust_8="13000.00000" pt_clust_9="47.75754"></scales>
<clustering>
<clus scale="   47.758">  2  9  1 -1</clus>
<clus scale="   79.822">  7  8 -1 -1</clus>
<clus scale="   91.754">  5  6 -1 -1</clus>
<clus scale="  209.574">  1  7  2 -1</clus>
<clus scale="   47.758">  2  5  1 -1</clus>
</clustering>
</event>
<event>
 9    1  0.9000149E-006  0.1554890E+03  0.7546771E-02  0.1194106E+00
         -2   -1    0    0    0  501 -0.00000000000E+00  0.00000000000E+00  0.56380102699E+02  0.56380102699E+02  0.00000000000E+00 0.  1.
          2   -1    0    0  502    0  0.00000000000E+00 -0.00000000000E+00 -0.61352447381E+03  0.61352447381E+03  0.00000000000E+00 0. -1.
         23    2    1    2    0    0  0.92801483781E+02 -0.11482975842E+03 -0.21301300393E+03  0.27483241274E+03  0.91434820724E+02 0.  0.
         23    2    1    2    0    0 -0.74271654044E+02  0.85416745996E+02 -0.32248170986E+03  0.35411868343E+03  0.92699998204E+02 0.  0.
        -11    1    3    3    0    0  0.67150413929E+02 -0.11969007534E+03 -0.20646434946E+03  0.24791615482E+03  0.00000000000E+00 0. -1.
         11    1    3    3    0    0  0.25651069852E+02  0.48603169212E+01 -0.65486544763E+01  0.26916257923E+02  0.00000000000E+00 0.  1.
        -11    1    4    4    0    0 -0.54490719495E+02  0.10487863687E+03 -0.25080813776E+03  0.27726068771E+03  0.00000000000E+00 0.  1.
         11    1    4    4    0    0 -0.19780934548E+02 -0.19461890874E+02 -0.71673572105E+02  0.76857995721E+02  0.00000000000E+00 0. -1.
         21    1    1    2  502  501 -0.18529829737E+02  0.29413012420E+02 -0.21649657316E+02  0.40953480336E+02  0.00000000000E+00 0.  1.
<scales pt_clust_5="13000.00000" pt_clust_6="13000.00000" pt_clust_7="13000.00000" pt_clust_8="13000.00000" pt_clust_9="34.76320"></scales>
<clustering>
<clus scale="   34.763">  1  9  2 -1</clus>
<clus scale="   91.435">  5  6 -1 -1</clus>
<clus scale="   92.700">  7  8 -1 -1</clus>
<clus scale="  154.738">  1  5  2 -1</clus>
<clus scale="  155.489">  2  5  1 -1</clus>
</clustering>
</event>
<event>
 9    1  0.9000149E-006  0.9539334E+02  0.7546771E-02  0.1290749E+00
          1   -1    0    0  502    0  0.00000000000E+00  0.00000000000E+00  0.12168500026E+03  0.12168500026E+03  0.00000000000E+00 0. -1.
         -1   -1    0    0    0  501 -0.00000000000E+00 -0.00000000000E+00 -0.13076748328E+03  0.13076748328E+03  0.00000000000E+00 0.  1.
         23    2    1    2    0    0 -0.49747981545E+02 -0.21760004391E+02 -0.41046984946E+02  0.11365187795E+03  0.91013927113E+02 0.  0.
         23    2    1    2    0    0  0.99797680771E+01  0.17425242282E+02  0.34767708213E+02  0.98698748649E+02  0.90163266418E+02 0.  0.
        -11    1    3    3    0    0 -0.73831930215E+02 -0.27208551481E+02 -0.41491988051E+02  0.88955293633E+02  0.00000000000E+00 0. -1.
         11    1    3    3    0    0  0.24083948670E+02  0.54485470893E+01  0.44500310488E+00  0.24696584312E+02  0.00000000000E+00 0.  1.
        -13    1    4    4    0    0  0.41950214733E+02  0.33843059709E+02  0.31929747986E+02  0.62647282567E+02  0.00000000000E+00 0.  1.
         13    1    4    4    0    0 -0.31970446656E+02 -0.16417817426E+02  0.28379602271E+01  0.36051466082E+02  0.00000000000E+00 0. -1.
         21    1    1    2  502  501  0.39768213468E+02  0.43347621090E+01 -0.28032062949E+01  0.40101856946E+02  0.00000000000E+00 0.  1.
<scales pt_clust_5="13000.00000" pt_clust_6="13000.00000" pt_clust_7="13000.00000" pt_clust_8="13000.00000" pt_clust_9="40.00376"></scales>
<clustering>
<clus scale="   40.004">  2  9  1 -1</clus>
<clus scale="   90.163">  7  8 -1 -1</clus>
<clus scale="   91.014">  5  6 -1 -1</clus>
<clus scale="   94.582">  1  7  2 -1</clus>
<clus scale="   94.582">  1  5  2 -1</clus>
</clustering>
</event>
<event>
 9    1  0.9000149E-006  0.1249135E+03  0.7546771E-02  0.1235914E+00
         -1   -1    0    0    0  501 -0.00000000000E+00  0.00000000000E+00  0.21357029006E+03  0.21357029006E+03  0.00000000000E+00 0.  1.
          1   -1    0    0  502    0  0.00000000000E+00 -0.00000000000E+00 -0.10964712025E+03  0.10964712025E+03  0.00000000000E+00 0. -1.
         23    2    1    2    0    0 -0.65788840653E+02  0.24366757351E+02  0.67910130164E+02  0.13514069415E+03  0.93430781962E+02 0.  0.
         23    2    1    2    0    0  0.93364566805E+02 -0.33436957466E+02  0.62841773390E+02  0.14854862290E+03  0.91008968919E+02 0.  0.
        -13    1    3    3    0    0 -0.28816662861E+02 -0.35055496809E+02  0.37352743375E+02  0.58775125288E+02  0.00000000000E+00 0.  1.
         13    1    3    3    0    0 -0.36972177792E+02  0.59422254160E+02  0.30557386788E+02  0.76365568861E+02  0.00000000000E+00 0. -1.
        -13    1    4    4    0    0  0.49542000103E+02 -0.20657024400E+02 -0.17234532976E+02  0.56375096969E+02  0.00000000000E+00 0. -1.
         13    1    4    4    0    0  0.43822566702E+02 -0.12779933066E+02  0.80076306366E+02  0.92173525932E+02  0.00000000000E+00 0.  1.
         21    1    1    2  502  501 -0.27575726152E+02  0.90702001148E+01 -0.26828733744E+02  0.39528093265E+02  0.00000000000E+00 0. -1.
<scales pt_clust_5="13000.00000" pt_clust_6="13000.00000" pt_clust_7="13000.00000" pt_clust_8="13000.00000" pt_clust_9="29.02911"></scales>
<clustering>
<clus scale="   29.029">  2  9  1 -1</clus>
<clus scale="   91.009">  7  8 -1 -1</clus>
<clus scale="   93.431">  5  6 -1 -1</clus>
<clus scale="  123.113">  2  7  1 -1</clus>
<clus scale="   29.029">  2  5  1 -1</clus>
</clustering>
</event>
<event>
 9    1  0.9000149E-006  0.2609829E+03  0.7546771E-02  0.1106823E+00
         -1   -1    0    0    0  501 -0.00000000000E+00  0.00000000000E+00  0.49488534700E+03  0.49488534700E+03  0.00000000000E+00 0.  1.
          1   -1    0    0  502    0  0.00000000000E+00 -0.00000000000E+00 -0.26275270510E+03  0.26275270510E+03  0.00000000000E+00 0. -1.
         23    2    1    2    0    0  0.24183202254E+03 -0.86235380393E+02  0.35081668519E+03  0.44427535384E+03  0.91591350405E+02 0.  0.
         23    2    1    2    0    0 -0.18370185006E+03  0.62647908103E+02 -0.13079328118E+03  0.24947123213E+03  0.86359036318E+02 0.  0.
        -13    1    3    3    0    0  0.53888281081E+02 -0.32412938646E+02  0.15637103909E+03  0.16854212321E+03  0.00000000000E+00 0.  1.
         13    1    3    3    0    0  0.18794374146E+03 -0.53822441747E+02  0.19444564609E+03  0.27573323063E+03  0.00000000000E+00 0. -1.
        -13    1    4    4    0    0 -0.39766931407E+02  0.43731771086E+02 -0.86267029545E+01  0.59735221098E+02  0.00000000000E+00 0.  1.
         13    1    4    4    0    0 -0.14393491865E+03  0.18916137017E+02 -0.12216657822E+03  0.18973601103E+03  0.00000000000E+00 0. -1.
         21    1    1    2  502  501 -0.58130172484E+02  0.23587472290E+02  0.12109237895E+02  0.63891466131E+02  0.00000000000E+00 0. -1.
<scales pt_clust_5="13000.00000" pt_clust_6="13000.00000" pt_clust_7="13000.00000" pt_clust_8="13000.00000" pt_clust_9="62.73345"></scales>
<clustering>
<clus scale="   62.733">  2  9  1 -1</clus>
<clus scale="   86.359">  7  8 -1 -1</clus>
<clus scale="   91.591">  5  6 -1 -1</clus>
<clus scale="  259.193">  2  7  1 -1</clus>
<clus scale="   62.733">  2  5  1 -1</clus>
</clustering>
</event>
<event>
 9    1  0.9000149E-006  0.1004953E+03  0.7546771E-02  0.1279605E+00
         -1   -1    0    0    0  501 -0.00000000000E+00  0.00000000000E+00  0.17080306726E+03  0.17080306726E+03  0.00000000000E+00 0.  1.
          1   -1    0    0  502    0  0.00000000000E+00 -0.00000000000E+00 -0.25392270935E+03  0.25392270935E+03  0.00000000000E+00 0. -1.
         23    2    1    2    0    0 -0.11590155637E+02  0.43690886995E+02  0.93699967378E+02  0.13814992393E+03  0.90898252353E+02 0.  0.
         23    2    1    2    0    0  0.35050986027E+02 -0.21539839777E+02  0.63009837445E+01  0.10063438039E+03  0.91624449805E+02 0.  0.
        -11    1    4    4    0    0 -0.17749234755E+02  0.22276852419E+02  0.13730907839E+02  0.31620109395E+02  0.00000000000E+00 0.  1.
         11    1    4    4    0    0  0.52800220782E+02 -0.43816692196E+02 -0.74299240945E+01  0.69014271000E+02  0.00000000000E+00 0. -1.
        -13    1    3    3    0    0 -0.37112854571E+02  0.60196680085E+02  0.71037556288E+02  0.10023641390E+03  0.00000000000E+00 0.  1.
         13    1    3    3    0    0  0.25522698934E+02 -0.16505793091E+02  0.22662411090E+02  0.37913510031E+02  0.00000000000E+00 0. -1.
         21    1    1    2  502  501 -0.23460830390E+02 -0.22151047218E+02 -0.18312059321E+03  0.18594147228E+03  0.00000000000E+00 0. -1.
<scales pt_clust_5="13000.00000" pt_clust_6="13000.00000" pt_clust_7="13000.00000" pt_clust_8="13000.00000" pt_clust_9="32.26576"></scales>
<clustering>
<clus scale="   32.266">  2  9  1 -1</clus>
<clus scale="   90.898">  7  8 -1 -1</clus>
<clus scale="   91.624">  5  6 -1 -1</clus>
<clus scale="   99.834">  1  7  2 -1</clus>
<clus scale="   32.266">  2  5  1 -1</clus>
</clustering>
</event>
<event>
 9    1  0.9000149E-006  0.2219555E+03  0.7546771E-02  0.1132488E+00
         -1   -1    0    0    0  501 -0.00000000000E+00  0.00000000000E+00  0.77705184600E+03  0.77705184600E+03  0.00000000000E+00 0.  1.
          1   -1    0    0  502    0  0.00000000000E+00 -0.00000000000E+00 -0.34531041344E+03  0.34531041344E+03  0.00000000000E+00 0. -1.
         23    2    1    2    0    0 -0.10774536653E+03  0.17499975391E+03  0.68317150605E+03  0.71886464964E+03  0.88369111939E+02 0.  0.
         23    2    1    2    0    0  0.81316582806E+02 -0.17077489961E+03 -0.69687278510E+02  0.21979466065E+03  0.87618052295E+02 0.  0.
        -13    1    3    3    0    0 -0.12056592143E+03  0.14979871092E+03  0.54772651793E+03  0.58049989979E+03  0.00000000000E+00 0.  1.
         13    1    3    3    0    0  0.12820554905E+02  0.25201042989E+02  0.13544498811E+03  0.13836474985E+03  0.00000000000E+00 0. -1.
        -13    1    4    4    0    0  0.73264416661E+02 -0.57296804709E+02 -0.45268737334E+02  0.10344011387E+03  0.00000000000E+00 0.  1.
         13    1    4    4    0    0  0.80521661447E+01 -0.11347809490E+03 -0.24418541176E+02  0.11635454678E+03  0.00000000000E+00 0. -1.
         21    1    1    2  502  501  0.26428783724E+02 -0.42248543001E+01 -0.18174279498E+03  0.18370294916E+03  0.00000000000E+00 0. -1.
<scales pt_clust_5="13000.00000" pt_clust_6="13000.00000" pt_clust_7="13000.00000" pt_clust_8="13000.00000" pt_clust_9="26.76434"></scales>
<clustering>
<clus scale="   26.764">  2  9  1 -1</clus>
<clus scale="   87.618">  7  8 -1 -1</clus>
<clus scale="   88.369">  5  6 -1 -1</clus>
<clus scale="  221.658">  2  7  1 -1</clus>
<clus scale="   26.764">  2  5  1 -1</clus>
</clustering>
</event>
<event>
 9    1  0.9000149E-006  0.9168090E+02  0.7546771E-02  0.1300180E+00
         -1   -1    0    0    0  501 -0.00000000000E+00  0.00000000000E+00  0.42382604100E+02  0.42382604100E+02  0.00000000000E+00 0.  1.
          1   -1    0    0  502    0  0.00000000000E+00 -0.00000000000E+00 -0.32337568587E+03  0.32337568587E+03  0.00000000000E+00 0. -1.
         23    2    1    2    0    0  0.52637375979E+01  0.86528190861E+01 -0.71776379347E+02  0.11320887920E+03  0.86958745891E+02 0.  0.
         23    2    1    2    0    0 -0.36040860783E+02 -0.10269537420E+02 -0.10050801910E+03  0.13955638921E+03  0.89273270480E+02 0.  0.
        -13    1    3    3    0    0 -0.12807773177E+02  0.44279556477E+02 -0.48785571919E+02  0.67117435909E+02  0.00000000000E+00 0. -1.
         13    1    3    3    0    0  0.18071510775E+02 -0.35626737391E+02 -0.22990807428E+02  0.46091443295E+02  0.00000000000E+00 0.  1.
        -13    1    4    4    0    0  0.24510317022E+02  0.50146378370E+01 -0.51090234711E+01  0.25534375927E+02  0.00000000000E+00 0.  1.
         13    1    4    4    0    0 -0.60551177805E+02 -0.15284175257E+02 -0.95398995629E+02  0.11402201329E+03  0.00000000000E+00 0. -1.
         21    1    1    2  502  501  0.30777123185E+02  0.16167183342E+01 -0.10870868332E+03  0.11299302155E+03  0.00000000000E+00 0. -1.
<scales pt_clust_5="13000.00000" pt_clust_6="13000.00000" pt_clust_7="13000.00000" pt_clust_8="13000.00000" pt_clust_9="30.81956"></scales>
<clustering>
<clus scale="   30.820">  2  9  1 -1</clus>
<clus scale="   86.959">  5  6 -1 -1</clus>
<clus scale="   89.273">  7  8 -1 -1</clus>
<clus scale="   89.429">  1  5  2 -1</clus>
<clus scale="   30.820">  2  5  1 -1</clus>
</clustering>
</event>
<event>
 9    1  0.9000149E-006  0.9222869E+02  0.7546771E-02  0.1298749E+00
         -1   -1    0    0    0  501 -0.00000000000E+00  0.00000000000E+00  0.47903533722E+02  0.47903533722E+02  0.00000000000E+00 0.  1.
          1   -1    0    0  502    0  0.00000000000E+00 -0.00000000000E+00 -0.24587528992E+03  0.24587528992E+03  0.00000000000E+00 0. -1.
         23    2    1    2    0    0  0.25184016454E+02 -0.11224625625E+02 -0.70919995880E+02  0.11873602696E+03  0.91150268121E+02 0.  0.
         23    2    1    2    0    0 -0.17372399692E+00 -0.71280432350E+01 -0.95299667635E+02  0.13065213805E+03  0.89090489653E+02 0.  0.
        -11    1    4    4    0    0  0.25641118797E+02 -0.16602071777E+02  0.93991829549E+00  0.30561073392E+02  0.00000000000E+00 0.  1.
         11    1    4    4    0    0 -0.25814842794E+02  0.94740285421E+01 -0.96239585930E+02  0.10009106466E+03  0.00000000000E+00 0. -1.
        -13    1    3    3    0    0 -0.30872426621E+02 -0.20840679480E+02 -0.19409999321E+02  0.42002246610E+02  0.00000000000E+00 0. -1.
         13    1    3    3    0    0  0.56056443075E+02  0.96160538550E+01 -0.51509996559E+02  0.76733780354E+02  0.00000000000E+00 0.  1.
         21    1    1    2  502  501 -0.25010292457E+02  0.18352668860E+02 -0.31752092683E+02  0.44390658621E+02  0.00000000000E+00 0.  1.
<scales pt_clust_5="13000.00000" pt_clust_6="13000.00000" pt_clust_7="13000.00000" pt_clust_8="13000.00000" pt_clust_9="31.02153"></scales>
<clustering>
<clus scale="   31.022">  2  9  1 -1</clus>
<clus scale="   89.090">  5  6 -1 -1</clus>
<clus scale="   90.194">  2  5  1 -1</clus>
<clus scale="   91.150">  7  8 -1 -1</clus>
<clus scale="   31.022">  2  5  1 -1</clus>
</clustering>
</event>
<event>
 9    1  0.9000149E-006  0.1494157E+03  0.7546771E-02  0.1202447E+00
         -3   -1    0    0    0  501 -0.00000000000E+00  0.00000000000E+00  0.24266475258E+03  0.24266475258E+03  0.00000000000E+00 0.  1.
          3   -1    0    0  502    0  0.00000000000E+00 -0.00000000000E+00 -0.23206558754E+03  0.23206558754E+03  0.00000000000E+00 0. -1.
         23    2    1    2    0    0  0.10322606226E+03  0.10482964174E+03  0.14377447408E+03  0.22659480041E+03  0.95022262958E+02 0.  0.
         23    2    1    2    0    0 -0.83449728297E+02 -0.62238858794E+02 -0.13887654025E+03  0.20083245087E+03  0.10104180914E+03 0.  0.
        -11    1    3    3    0    0  0.53048721208E+02  0.70141325168E+02  0.14018796839E+03  0.16548908967E+03  0.00000000000E+00 0.  1.
         11    1    3    3    0    0  0.50177341054E+02  0.34688316577E+02  0.35865056899E+01  0.61105710742E+02  0.00000000000E+00 0. -1.
        -11    1    4    4    0    0 -0.10701274994E+03 -0.53710391272E+02 -0.11940366386E+03  0.16909692405E+03  0.00000000000E+00 0. -1.
         11    1    4    4    0    0  0.23563021646E+02 -0.85284675221E+01 -0.19472876385E+02  0.31735526812E+02  0.00000000000E+00 0.  1.
         21    1    1    2  502  501 -0.19776333965E+02 -0.42590782951E+02  0.57012312045E+01  0.47303088849E+02  0.00000000000E+00 0. -1.
<scales pt_clust_5="13000.00000" pt_clust_6="13000.00000" pt_clust_7="13000.00000" pt_clust_8="13000.00000" pt_clust_9="46.95826"></scales>
<clustering>
<clus scale="   46.958">  1  9  2 -1</clus>
<clus scale="   95.022">  5  6 -1 -1</clus>
<clus scale="  101.042">  7  8 -1 -1</clus>
<clus scale="  145.413">  1  5  2 -1</clus>
<clus scale="  149.416">  2  5  1 -1</clus>
</clustering>
</event>
<event>
 9    1  0.9000149E-006  0.2251423E+03  0.7546771E-02  0.1130223E+00
         -2   -1    0    0    0  501 -0.00000000000E+00  0.00000000000E+00  0.83505590937E+02  0.83505590937E+02  0.00000000000E+00 0.  1.
          2   -1    0    0  502    0  0.00000000000E+00 -0.00000000000E+00 -0.72230441671E+03  0.72230441671E+03  0.00000000000E+00 0. -1.
         23    2    1    2    0    0  0.42102997127E+02 -0.21323072215E+03 -0.22402740229E+03  0.32618090429E+03  0.94687391505E+02 0.  0.
         23    2    1    2    0    0 -0.32375932247E+02  0.19437752290E+03 -0.39191076090E+03  0.44844146467E+03  0.93139037617E+02 0.  0.
        -11    1    4    4    0    0 -0.60027850477E+02  0.12666923583E+03 -0.29876465304E+03  0.33001326647E+03  0.00000000000E+00 0. -1.
         11    1    4    4    0    0  0.27651918229E+02  0.67708287073E+02 -0.93146107858E+02  0.11842819820E+03  0.00000000000E+00 0.  1.
        -13    1    3    3    0    0  0.18247685847E+02 -0.20641028936E+03 -0.17496930788E+03  0.27120553883E+03  0.00000000000E+00 0.  1.
         13    1    3    3    0    0  0.23855311280E+02 -0.68204327876E+01 -0.49058094417E+02  0.54975365461E+02  0.00000000000E+00 0. -1.
         21    1    1    2  502  501 -0.97270648799E+01  0.18853199250E+02 -0.22860662578E+02  0.31187638683E+02  0.00000000000E+00 0.  1.
<scales pt_clust_5="13000.00000" pt_clust_6="13000.00000" pt_clust_7="13000.00000" pt_clust_8="13000.00000" pt_clust_9="21.21459"></scales>
<clustering>
<clus scale="   21.215">  1  9  2 -1</clus>
<clus scale="   93.139">  5  6 -1 -1</clus>
<clus scale="   94.687">  7  8 -1 -1</clus>
<clus scale="  224.496">  2  5  1 -1</clus>
<clus scale="  224.496">  2  5  1 -1</clus>
</clustering>
</event>
<event>
 9    1  0.9000149E-006  0.9914539E+02  0.7546771E-02  0.1282290E+00
          2   -1    0    0  502    0  0.00000000000E+00  0.00000000000E+00  0.24307890030E+03  0.24307890030E+03  0.00000000000E+00 0. -1.
         -2   -1    0    0    0  501 -0.00000000000E+00 -0.00000000000E+00 -0.70098528990E+02  0.70098528990E+02  0.00000000000E+00 0.  1.
         23    2    1    2    0    0 -0.21605955711E+02 -0.41876946981E+02  0.98827745734E+01  0.10225714825E+03  0.90212854537E+02 0.  0.
         23    2    1    2    0    0  0.30484981165E+02  0.11973250389E+02  0.91677867781E+02  0.13298539895E+03  0.90595761993E+02 0.  0.
        -11    1    3    3    0    0 -0.10288853473E+01 -0.63391420973E+02 -0.12987066254E+02  0.64716263396E+02  0.00000000000E+00 0.  1.
         11    1    3    3    0    0 -0.20577070364E+02  0.21514473993E+02  0.22869840827E+02  0.37540884851E+02  0.00000000000E+00 0. -1.
        -13    1    4    4    0    0 -0.27442752078E+02  0.22508451831E+02  0.47895344593E+02  0.59612910339E+02  0.00000000000E+00 0. -1.
         13    1    4    4    0    0  0.57927733243E+02 -0.10535201442E+02  0.43782523188E+02  0.73372488610E+02  0.00000000000E+00 0.  1.
         21    1    1    2  502  501 -0.88790254535E+01  0.29903696592E+02  0.71419728953E+02  0.77934882092E+02  0.00000000000E+00 0. -1.
<scales pt_clust_5="13000.00000" pt_clust_6="13000.00000" pt_clust_7="13000.00000" pt_clust_8="13000.00000" pt_clust_9="31.19404"></scales>
<clustering>
<clus scale="   31.194">  1  9  2 -1</clus>
<clus scale="   90.213">  5  6 -1 -1</clus>
<clus scale="   90.596">  7  8 -1 -1</clus>
<clus scale="   98.796">  2  5  1 -1</clus>
<clus scale="   31.194">  1  5  2 -1</clus>
</clustering>
</event>
<event>
 9    1  0.9000149E-006  0.1240499E+03  0.7546771E-02  0.1243988E+00
          2   -1    0    0  502    0  0.00000000000E+00  0.00000000000E+00  0.28041784086E+03  0.28041784086E+03  0.00000000000E+00 0. -1.
         -2   -1    0    0    0  501 -0.00000000000E+00 -0.00000000000E+00 -0.12827266207E+03  0.12827266207E+03  0.00000000000E+00 0.  1.
         23    2    1    2    0    0 -0.52308639128E+02 -0.35472229599E+01 -0.70972819442E+02  0.12664096386E+03  0.90840608269E+02 0.  0.
         23    2    1    2    0    0  0.80041291085E+02  0.23158234602E+02  0.18030103521E+03  0.22739623099E+03  0.11071436429E+03 0.  0.
        -13    1    3    3    0    0 -0.52693104869E+02 -0.41092601464E+02 -0.51363013168E+02  0.84281221618E+02  0.00000000000E+00 0.  1.
         13    1    3    3    0    0  0.38446574091E+00  0.37545378505E+02 -0.19609806274E+02  0.42359742245E+02  0.00000000000E+00 0. -1.
        -13    1    4    4    0    0  0.31822125238E+02 -0.43566265424E+02  0.92151896579E+02  0.10678314090E+03  0.00000000000E+00 0. -1.
         13    1    4    4    0    0  0.48219165847E+02  0.66724500025E+02  0.88149138632E+02  0.12061309009E+03  0.00000000000E+00 0.  1.
         21    1    1    2  502  501 -0.27732651957E+02 -0.19611011642E+02  0.42816963022E+02  0.54653308084E+02  0.00000000000E+00 0. -1.
<scales pt_clust_5="13000.00000" pt_clust_6="13000.00000" pt_clust_7="13000.00000" pt_clust_8="13000.00000" pt_clust_9="33.96604"></scales>
<clustering>
<clus scale="   33.966">  1  9  2 -1</clus>
<clus scale="   90.841">  5  6 -1 -1</clus>
<clus scale="  106.690">  2  5  1 -1</clus>
<clus scale="  110.714">  7  8 -1 -1</clus>
<clus scale="   33.966">  1  5  2 -1</clus>
</clustering>
</event>
<event>
 9    1  0.9000149E-006  0.1474041E+03  0.7546771E-02  0.1211143E+00
          2   -1    0    0  502    0  0.00000000000E+00  0.00000000000E+00  0.32508611631E+03  0.32508611631E+03  0.00000000000E+00 0. -1.
         -2   -1    0    0    0  501 -0.00000000000E+00 -0.00000000000E+00 -0.26425581626E+03  0.26425581626E+03  0.00000000000E+00 0.  1.
         23    2    1    2    0    0 -0.60970009468E+02 -0.62655286730E+02 -0.16851582724E+03  0.21020569544E+03  0.90254215160E+02 0.  0.
         23    2    1    2    0    0 -0.80826223051E+02  0.74139709498E+02  0.17601535713E+03  0.22720785081E+03  0.92803160876E+02 0.  0.
        -11    1    4    4    0    0 -0.95713376992E+02  0.37448796883E+02  0.14004678847E+03  0.17371403479E+03  0.00000000000E+00 0. -1.
         11    1    4    4    0    0  0.14887153941E+02  0.36690912616E+02  0.35968568661E+02  0.53493816022E+02  0.00000000000E+00 0.  1.
        -11    1    3    3    0    0 -0.32744228994E+02 -0.65915545943E+02 -0.16611626626E+03  0.18169110503E+03  0.00000000000E+00 0.  1.
         11    1    3    3    0    0 -0.28225780474E+02  0.32602592129E+01 -0.23995609818E+01  0.28514590413E+02  0.00000000000E+00 0. -1.
         21    1    1    2  502  501  0.14179623252E+03 -0.11484422768E+02  0.53330770164E+02  0.15192838632E+03  0.00000000000E+00 0.  1.
<scales pt_clust_5="13000.00000" pt_clust_6="13000.00000" pt_clust_7="13000.00000" pt_clust_8="13000.00000" pt_clust_9="114.52310"></scales>
<clustering>
<clus scale="   90.254">  7  8 -1 -1</clus>
<clus scale="   92.803">  5  6 -1 -1</clus>
<clus scale="  125.654">  2  7  1 -1</clus>
<clus scale="  114.523">  2  9  1 -1</clus>
<clus scale="  147.404">  1  5  2 -1</clus>
</clustering>
</event>
<event>
 9    1  0.9000149E-006  0.1006738E+03  0.7546771E-02  0.1281709E+00
         -2   -1    0    0    0  501 -0.00000000000E+00  0.00000000000E+00  0.23895684107E+02  0.23895684107E+02  0.00000000000E+00 0.  1.
          2   -1    0    0  502    0  0.00000000000E+00 -0.00000000000E+00 -0.75585225493E+03  0.75585225493E+03  0.00000000000E+00 0. -1.
         23    2    1    2    0    0  0.54562935411E+02 -0.46871265421E+02 -0.29637641136E+03  0.31718489315E+03  0.87139255128E+02 0.  0.
         23    2    1    2    0    0 -0.98127071625E+00  0.18417956690E+02 -0.27970985627E+03  0.29530236017E+03  0.92874626299E+02 0.  0.
        -13    1    3    3    0    0 -0.97585928855E+01 -0.46977280020E+02 -0.10956399446E+03  0.11960921309E+03  0.00000000000E+00 0. -1.
         13    1    3    3    0    0  0.64321528297E+02  0.10601459883E+00 -0.18681241690E+03  0.19757568006E+03  0.00000000000E+00 0.  1.
        -13    1    4    4    0    0 -0.37270246208E+01  0.55727794419E+02 -0.14164967676E+03  0.15226328746E+03  0.00000000000E+00 0.  1.
         13    1    4    4    0    0  0.27457539046E+01 -0.37309837729E+02 -0.13806017951E+03  0.14303907271E+03  0.00000000000E+00 0. -1.
         21    1    1    2  502  501 -0.53581664695E+02  0.28453308731E+02 -0.15587030319E+03  0.16726068571E+03  0.00000000000E+00 0.  1.
<scales pt_clust_5="13000.00000" pt_clust_6="13000.00000" pt_clust_7="13000.00000" pt_clust_8="13000.00000" pt_clust_9="60.66783"></scales>
<clustering>
<clus scale="   60.668">  1  9  2 -1</clus>
<clus scale="   87.139">  5  6 -1 -1</clus>
<clus scale="   92.875">  7  8 -1 -1</clus>
<clus scale="   95.408">  1  5  2 -1</clus>
<clus scale="  100.674">  2  5  1 -1</clus>
</clustering>
</event>
<event>
 9    1  0.9000149E-006  0.1099889E+03  0.7546771E-02  0.1261487E+00
          2   -1    0    0  502    0  0.00000000000E+00  0.00000000000E+00  0.94745589571E+02  0.94745589571E+02  0.00000000000E+00 0. -1.
         -2   -1    0    0    0  501 -0.00000000000E+00 -0.00000000000E+00 -0.22314731750E+03  0.22314731750E+03  0.00000000000E+00 0.  1.
         23    2    1    2    0    0 -0.22944203528E+02 -0.44489719075E+02 -0.84148176563E+02  0.13532735471E+03  0.93417373842E+02 0.  0.
         23    2    1    2    0    0  0.20432478002E+01  0.62280098409E+02 -0.78610677630E+02  0.13859101800E+03  0.95628688755E+02 0.  0.
        -11    1    3    3    0    0 -0.56921970444E+02 -0.13922348395E+02 -0.59023270087E+02  0.83172645237E+02  0.00000000000E+00 0.  1.
         11    1    3    3    0    0  0.33977766916E+02 -0.30567370680E+02 -0.25124906476E+02  0.52154709474E+02  0.00000000000E+00 0. -1.
        -13    1    4    4    0    0  0.36705943540E+02  0.13332155811E+02 -0.66923850505E+02  0.77484672266E+02  0.00000000000E+00 0. -1.
         13    1    4    4    0    0 -0.34662695740E+02  0.48947942598E+02 -0.11686827125E+02  0.61106345733E+02  0.00000000000E+00 0.  1.
         21    1    1    2  502  501  0.20900955728E+02 -0.17790379334E+02  0.34357126263E+02  0.43974534361E+02  0.00000000000E+00 0. -1.
<scales pt_clust_5="13000.00000" pt_clust_6="13000.00000" pt_clust_7="13000.00000" pt_clust_8="13000.00000" pt_clust_9="27.44718"></scales>
<clustering>
<clus scale="   27.447">  1  9  2 -1</clus>
<clus scale="   93.417">  5  6 -1 -1</clus>
<clus scale="   95.629">  7  8 -1 -1</clus>
<clus scale="  108.072">  2  5  1 -1</clus>
<clus scale="   27.447">  1  5  2 -1</clus>
</clustering>
</event>
<event>
 9    1  0.9000149E-006  0.1140671E+03  0.7546771E-02  0.1253304E+00
          3   -1    0    0  502    0  0.00000000000E+00  0.00000000000E+00  0.37610868340E+03  0.37610868340E+03  0.00000000000E+00 0. -1.
         -3   -1    0    0    0  501 -0.00000000000E+00 -0.00000000000E+00 -0.75974160404E+02  0.75974160404E+02  0.00000000000E+00 0.  1.
         23    2    1    2    0    0 -0.58194903205E+02 -0.31150287607E+02  0.77641413082E+00  0.11278632270E+03  0.91450339484E+02 0.  0.
         23    2    1    2    0    0  0.52180197517E+02  0.60743517340E+02  0.18688005574E+03  0.22283516114E+03  0.91207488152E+02 0.  0.
        -11    1    4    4    0    0  0.74590568740E+02  0.30334168388E+02  0.10219203343E+03  0.13010429053E+03  0.00000000000E+00 0. -1.
         11    1    4    4    0    0 -0.22410371222E+02  0.30409348952E+02  0.84688022312E+02  0.92730870616E+02  0.00000000000E+00 0.  1.
        -13    1    3    3    0    0 -0.45135258041E+02 -0.37692253625E+01 -0.41043252634E+02  0.61122394955E+02  0.00000000000E+00 0.  1.
         13    1    3    3    0    0 -0.13059645163E+02 -0.27381062245E+02  0.41819666765E+02  0.51663927742E+02  0.00000000000E+00 0. -1.
         21    1    1    2  502  501  0.60147056872E+01 -0.29593229733E+02  0.11247805312E+03  0.11646135997E+03  0.00000000000E+00 0.  1.
<scales pt_clust_5="13000.00000" pt_clust_6="13000.00000" pt_clust_7="13000.00000" pt_clust_8="13000.00000" pt_clust_9="30.19828"></scales>
<clustering>
<clus scale="   30.198">  1  9  2 -1</clus>
<clus scale="   91.207">  5  6 -1 -1</clus>
<clus scale="   91.450">  7  8 -1 -1</clus>
<clus scale="  113.872">  1  5  2 -1</clus>
<clus scale="   30.198">  1  5  2 -1</clus>
</clustering>
</event>
<event>
 9    1  0.9000149E-006  0.1056049E+03  0.7546771E-02  0.1269555E+00
          1   -1    0    0  502    0  0.00000000000E+00  0.00000000000E+00  0.16964356396E+03  0.16964356396E+03  0.00000000000E+00 0. -1.
         -1   -1    0    0    0  501 -0.00000000000E+00 -0.00000000000E+00 -0.98784349125E+02  0.98784349125E+02  0.00000000000E+00 0.  1.
         23    2    1    2    0    0  0.49968725043E+02  0.13629432110E+02 -0.21485378958E+02  0.10472743271E+03  0.88450996331E+02 0.  0.
         23    2    1    2    0    0 -0.64908770523E+02  0.18660296573E+00  0.61720604260E+02  0.12693206296E+03  0.89939603652E+02 0.  0.
        -11    1    3    3    0    0  0.19544377205E+02  0.89958469310E+01 -0.55100644028E+02  0.59152251983E+02  0.00000000000E+00 0.  1.
         11    1    3    3    0    0  0.30424347838E+02  0.46335851790E+01  0.33615265070E+02  0.45575180731E+02  0.00000000000E+00 0. -1.
        -13    1    4    4    0    0 -0.26048320051E+02  0.44603019889E+02  0.33040634316E+02  0.61315804461E+02  0.00000000000E+00 0.  1.
         13    1    4    4    0    0 -0.38860450472E+02 -0.44416416923E+02  0.28679969944E+02  0.65616258497E+02  0.00000000000E+00 0. -1.
         21    1    1    2  502  501  0.14940045480E+02 -0.13816035076E+02  0.30623989535E+02  0.36768417415E+02  0.00000000000E+00 0.  1.
<scales pt_clust_5="13000.00000" pt_clust_6="13000.00000" pt_clust_7="13000.00000" pt_clust_8="13000.00000" pt_clust_9="20.34915"></scales>
<clustering>
<clus scale="   20.349">  1  9  2 -1</clus>
<clus scale="   88.451">  5  6 -1 -1</clus>
<clus scale="   89.940">  7  8 -1 -1</clus>
<clus scale="  104.340">  2  5  1 -1</clus>
<clus scale="   20.349">  1  5  2 -1</clus>
</clustering>
</event>
<event>
 9    1  0.9000149E-006  0.9880759E+02  0.7546771E-02  0.1282989E+00
         -1   -1    0    0    0  501 -0.00000000000E+00  0.00000000000E+00  0.18804648367E+03  0.18804648367E+03  0.00000000000E+00 0.  1.
          1   -1    0    0  502    0  0.00000000000E+00 -0.00000000000E+00 -0.17708828499E+03  0.17708828499E+03  0.00000000000E+00 0. -1.
         23    2    1    2    0    0  0.26851399399E+02  0.54683605313E+01  0.13559104817E+03  0.16696750362E+03  0.93500343887E+02 0.  0.
         23    2    1    2    0    0 -0.45985445499E+02 -0.20544624939E+02 -0.46274354793E+02  0.11610960750E+03  0.93826340813E+02 0.  0.
        -11    1    4    4    0    0 -0.66915159838E+02 -0.39962291949E+02 -0.33763892393E+02  0.84938941738E+02  0.00000000000E+00 0.  1.
         11    1    4    4    0    0  0.20929714340E+02  0.19417667011E+02 -0.12510462400E+02  0.31170665761E+02  0.00000000000E+00 0. -1.
        -11    1    3    3    0    0 -0.26629439437E+02 -0.16272086600E+02  0.83754455870E+02  0.89379621420E+02  0.00000000000E+00 0. -1.
         11    1    3    3    0    0  0.53480838836E+02  0.21740447131E+02  0.51836592296E+02  0.77587882204E+02  0.00000000000E+00 0.  1.
         21    1    1    2  502  501  0.19134046099E+02  0.15076264407E+02 -0.78358494700E+02  0.82057657536E+02  0.00000000000E+00 0. -1.
<scales pt_clust_5="13000.00000" pt_clust_6="13000.00000" pt_clust_7="13000.00000" pt_clust_8="13000.00000" pt_clust_9="24.35992"></scales>
<clustering>
<clus scale="   24.360">  2  9  1 -1</clus>
<clus scale="   93.500">  7  8 -1 -1</clus>
<clus scale="   93.826">  5  6 -1 -1</clus>
<clus scale="   98.498">  1  7  2 -1</clus>
<clus scale="   24.360">  2  5  1 -1</clus>
</clustering>
</event>
<event>
 9    1  0.9000149E-006  0.1076310E+03  0.7546771E-02  0.1270475E+00
         -2   -1    0    0    0  501 -0.00000000000E+00  0.00000000000E+00  0.20526392363E+03  0.20526392363E+03  0.00000000000E+00 0.  1.
          2   -1    0    0  502    0  0.00000000000E+00 -0.00000000000E+00 -0.22440842977E+03  0.22440842977E+03  0.00000000000E+00 0. -1.
         23    2    1    2    0    0 -0.24192042989E+02 -0.38946794240E+02  0.16209454544E+03  0.19653942367E+03  0.10124720078E+03 0.  0.
         23    2    1    2    0    0  0.32062309524E+02  0.16982607611E+02 -0.18569524943E+03  0.20937952389E+03  0.89669720152E+02 0.  0.
        -11    1    4    4    0    0  0.46479434930E+02  0.31985801372E+02 -0.17875042820E+03  0.18744371139E+03  0.00000000000E+00 0. -1.
         11    1    4    4    0    0 -0.14417125406E+02 -0.15003193760E+02 -0.69448212306E+01  0.21935812498E+02  0.00000000000E+00 0.  1.
        -13    1    3    3    0    0 -0.30960081233E+02  0.12647347533E+02  0.13254359999E+03  0.13669779782E+03  0.00000000000E+00 0.  1.
         13    1    3    3    0    0  0.67680382436E+01 -0.51594141773E+02  0.29550945454E+02  0.59841625848E+02  0.00000000000E+00 0. -1.
         21    1    1    2  502  501 -0.78702665345E+01  0.21964186629E+02  0.44561978436E+01  0.23753405836E+02  0.00000000000E+00 0. -1.
<scales pt_clust_5="13000.00000" pt_clust_6="13000.00000" pt_clust_7="13000.00000" pt_clust_8="13000.00000" pt_clust_9="23.33166"></scales>
<clustering>
<clus scale="   23.332">  1  9  2 -1</clus>
<clus scale="   89.670">  5  6 -1 -1</clus>
<clus scale="   96.820">  2  5  1 -1</clus>
<clus scale="  101.247">  7  8 -1 -1</clus>
<clus scale="   96.820">  2  5  1 -1</clus>
</clustering>
</event>
<event>
 9    1  0.9000149E-006  0.1099167E+03  0.7546771E-02  0.1260920E+00
          1   -1    0    0  502    0  0.00000000000E+00  0.00000000000E+00  0.57652495864E+02  0.57652495864E+02  0.00000000000E+00 0. -1.
         -1   -1    0    0    0  501 -0.00000000000E+00 -0.00000000000E+00 -0.37040436640E+03  0.37040436640E+03  0.00000000000E+00 0.  1.
         23    2    1    2    0    0 -0.10810351451E+02  0.58530483353E+02 -0.22062444516E+03  0.24605754960E+03  0.91249606750E+02 0.  0.
         23    2    1    2    0    0 -0.22155693974E+02 -0.67220424262E+02 -0.92899964779E+02  0.14789840298E+03  0.90741798174E+02 0.  0.
        -13    1    3    3    0    0  0.15695797145E+02 -0.15876818333E+02 -0.95598061191E+02  0.98170365752E+02  0.00000000000E+00 0. -1.
         13    1    3    3    0    0 -0.26506148596E+02  0.74407301686E+02 -0.12502638397E+03  0.14788718385E+03  0.00000000000E+00 0.  1.
        -13    1    4    4    0    0 -0.29221858413E+00 -0.52761141969E+02 -0.10614103665E+03  0.11853161247E+03  0.00000000000E+00 0.  1.
         13    1    4    4    0    0 -0.21863475390E+02 -0.14459282293E+02  0.13241071874E+02  0.29366790511E+02  0.00000000000E+00 0. -1.
         21    1    1    2  502  501  0.32966045425E+02  0.86899409096E+01  0.77253940418E+00  0.34100909682E+02  0.00000000000E+00 0.  1.
<scales pt_clust_5="13000.00000" pt_clust_6="13000.00000" pt_clust_7="13000.00000" pt_clust_8="13000.00000" pt_clust_9="34.09216"></scales>
<clustering>
<clus scale="   34.092">  1  9  2 -1</clus>
<clus scale="   90.742">  7  8 -1 -1</clus>
<clus scale="   91.250">  5  6 -1 -1</clus>
<clus scale="  109.495">  1  7  2 -1</clus>
<clus scale="   34.092">  1  5  2 -1</clus>
</clustering>
</event>
<event>
 9    1  0.9000149E-006  0.9971276E+02  0.7546771E-02  0.1281844E+00
          1   -1    0    0  502    0  0.00000000000E+00  0.00000000000E+00  0.12742915287E+03  0.12742915287E+03  0.00000000000E+00 0. -1.
         -1   -1    0    0    0  501 -0.00000000000E+00 -0.00000000000E+00 -0.39591699188E+03  0.39591699188E+03  0.00000000000E+00 0.  1.
         23    2    1    2    0    0 -0.10873616733E+02 -0.38383656004E+02 -0.35638736348E+03  0.36981845428E+03  0.90344870828E+02 0.  0.
         23    2    1    2    0    0 -0.75532840093E+01  0.15759963389E+02  0.52245482277E+02  0.10745608465E+03  0.92259368976E+02 0.  0.
        -11    1    4    4    0    0  0.30043373930E+02 -0.24267925514E+02  0.26260695600E+02  0.46702897760E+02  0.00000000000E+00 0.  1.
         11    1    4    4    0    0 -0.37596657939E+02  0.40027888903E+02  0.25984786678E+02  0.60753186887E+02  0.00000000000E+00 0. -1.
        -13    1    3    3    0    0  0.25555882031E+02  0.16840131805E+02 -0.14987403318E+03  0.15296705190E+03  0.00000000000E+00 0.  1.
         13    1    3    3    0    0 -0.36429498763E+02 -0.55223787809E+02 -0.20651333030E+03  0.21685140238E+03  0.00000000000E+00 0. -1.
         21    1    1    2  502  501  0.18426900742E+02  0.22623692614E+02  0.35654042196E+02  0.46071605826E+02  0.00000000000E+00 0. -1.
<scales pt_clust_5="13000.00000" pt_clust_6="13000.00000" pt_clust_7="13000.00000" pt_clust_8="13000.00000" pt_clust_9="29.17845"></scales>
<clustering>
<clus scale="   29.178">  1  9  2 -1</clus>
<clus scale="   90.345">  7  8 -1 -1</clus>
<clus scale="   92.259">  5  6 -1 -1</clus>
<clus scale="   97.944">  2  7  1 -1</clus>
<clus scale="   29.178">  1  5  2 -1</clus>
</clustering>
</event>
<event>
 9    1  0.9000149E-006  0.1139940E+03  0.7546771E-02  0.1254280E+00
         -2   -1    0    0    0  501 -0.00000000000E+00  0.00000000000E+00  0.30302052031E+03  0.30302052031E+03  0.00000000000E+00 0.  1.
          2   -1    0    0  502    0  0.00000000000E+00 -0.00000000000E+00 -0.22902851331E+03  0.22902851331E+03  0.00000000000E+00 0. -1.
         23    2    1    2    0    0  0.20353352778E+02 -0.50257807800E+02  0.23987408467E+03  0.26468419789E+03  0.97867471125E+02 0.  0.
         23    2    1    2    0    0 -0.17486795271E+02  0.89060130307E+02 -0.43102688220E+02  0.13856803508E+03  0.95424125847E+02 0.  0.
        -11    1    4    4    0    0 -0.24862677689E+02 -0.70969437023E+01  0.10875659783E+02  0.28049943449E+02  0.00000000000E+00 0. -1.
         11    1    4    4    0    0  0.73758824187E+01  0.96157074009E+02 -0.53978348004E+02  0.11051809163E+03  0.00000000000E+00 0.  1.
        -13    1    3    3    0    0 -0.35377221235E+02 -0.15125016323E+02  0.13881061771E+03  0.14404409565E+03  0.00000000000E+00 0.  1.
         13    1    3    3    0    0  0.55730574012E+02 -0.35132791477E+02  0.10106346696E+03  0.12064010225E+03  0.00000000000E+00 0. -1.
         21    1    1    2  502  501 -0.28665575070E+01 -0.38802322506E+02 -0.12277938945E+03  0.12879680065E+03  0.00000000000E+00 0.  1.
<scales pt_clust_5="13000.00000" pt_clust_6="13000.00000" pt_clust_7="13000.00000" pt_clust_8="13000.00000" pt_clust_9="38.90806"></scales>
<clustering>
<clus scale="   38.908">  2  9  1 -1</clus>
<clus scale="   95.424">  5  6 -1 -1</clus>
<clus scale="   97.867">  7  8 -1 -1</clus>
<clus scale="  111.903">  2  5  1 -1</clus>
<clus scale="   38.908">  2  5  1 -1</clus>
</clustering>
</event>
<event>
 9    1  0.9000149E-006  0.9980623E+02  0.7546771E-02  0.1284055E+00
         -1   -1    0    0    0  501 -0.00000000000E+00  0.00000000000E+00  0.17871291916E+03  0.17871291916E+03  0.00000000000E+00 0.  1.
          1   -1    0    0  502    0  0.00000000000E+00 -0.00000000000E+00 -0.71597204587E+02  0.71597204587E+02  0.00000000000E+00 0. -1.
         23    2    1    2    0    0 -0.10324714272E+02 -0.31422321818E+02  0.56040122023E+02  0.10587898727E+03  0.83521869207E+02 0.  0.
         23    2    1    2    0    0  0.33895108525E+02  0.45350563918E+02  0.47810864415E+02  0.11685908789E+03  0.90358262698E+02 0.  0.
        -11    1    4    4    0    0  0.43301144285E+02 -0.34084485678E+01  0.51132031119E+02  0.67090172339E+02  0.00000000000E+00 0.  1.
         11    1    4    4    0    0 -0.94060357606E+01  0.48759012485E+02 -0.33211667038E+01  0.49768915555E+02  0.00000000000E+00 0. -1.
        -13    1    3    3    0    0 -0.13035239356E+02 -0.59299330564E+02  0.45818785931E+02  0.76063718123E+02  0.00000000000E+00 0.  1.
         13    1    3    3    0    0  0.27105250839E+01  0.27877008746E+02  0.10221336092E+02  0.29815269148E+02  0.00000000000E+00 0. -1.
         21    1    1    2  502  501 -0.23570394252E+02 -0.13928242100E+02  0.32647281341E+01  0.27572048582E+02  0.00000000000E+00 0. -1.
<scales pt_clust_5="13000.00000" pt_clust_6="13000.00000" pt_clust_7="13000.00000" pt_clust_8="13000.00000" pt_clust_9="27.37808"></scales>
<clustering>
<clus scale="   27.378">  2  9  1 -1</clus>
<clus scale="   83.522">  7  8 -1 -1</clus>
<clus scale="   90.358">  5  6 -1 -1</clus>
<clus scale="   93.662">  1  7  2 -1</clus>
<clus scale="   27.378">  2  5  1 -1</clus>
</clustering>
</event>
<event>
 9    1  0.9000149E-006  0.1019087E+03  0.7546771E-02  0.1276662E+00
          2   -1    0    0  502    0  0.00000000000E+00  0.00000000000E+00  0.52507513652E+03  0.52507513652E+03  0.00000000000E+00 0. -1.
         -2   -1    0    0    0  501 -0.00000000000E+00 -0.00000000000E+00 -0.40053421250E+02  0.40053421250E+02  0.00000000000E+00 0.  1.
         23    2    1    2    0    0 -0.58844364817E+02 -0.54272871341E+02  0.21968599104E+03  0.25146700840E+03  0.92550082770E+02 0.  0.
         23    2    1    2    0    0  0.16739280445E+02  0.86181027547E-01  0.18620011122E+03  0.20891671282E+03  0.93249667777E+02 0.  0.
        -13    1    3    3    0    0  0.18366873482E+02 -0.33116679984E+02  0.41839231864E+02  0.56432064091E+02  0.00000000000E+00 0.  1.
         13    1    3    3    0    0 -0.77211238299E+02 -0.21156191357E+02  0.17784675918E+03  0.19503494431E+03  0.00000000000E+00 0. -1.
        -13    1    4    4    0    0 -0.15158863239E+02 -0.39766297395E+02  0.68792386084E+02  0.80892162330E+02  0.00000000000E+00 0. -1.
         13    1    4    4    0    0  0.31898143684E+02  0.39852478422E+02  0.11740772513E+03  0.12802455049E+03  0.00000000000E+00 0.  1.
         21    1    1    2  502  501  0.42105084372E+02  0.54186690313E+02  0.79135613007E+02  0.10474483655E+03  0.00000000000E+00 0.  1.
<scales pt_clust_5="13000.00000" pt_clust_6="13000.00000" pt_clust_7="13000.00000" pt_clust_8="13000.00000" pt_clust_9="68.62241"></scales>
<clustering>
<clus scale="   68.622">  2  9  1 -1</clus>
<clus scale="   92.550">  5  6 -1 -1</clus>
<clus scale="   93.250">  7  8 -1 -1</clus>
<clus scale="  101.269">  2  5  1 -1</clus>
<clus scale="  101.909">  1  5  2 -1</clus>
</clustering>
</event>
<event>
 9    1  0.9000149E-006  0.9532595E+02  0.7546771E-02  0.1292289E+00
         -1   -1    0    0    0  501 -0.00000000000E+00  0.00000000000E+00  0.19363673037E+03  0.19363673037E+03  0.00000000000E+00 0.  1.
          1   -1    0    0  502    0  0.00000000000E+00 -0.00000000000E+00 -0.33830554558E+03  0.33830554558E+03  0.00000000000E+00 0. -1.
         23    2    1    2    0    0  0.14784654419E+02 -0.44602490175E+01  0.16960832329E+03  0.19290889085E+03  0.90600093896E+02 0.  0.
         23    2    1    2    0    0 -0.36323981064E+02  0.13022745969E+02 -0.22570582284E+03  0.24747937424E+03  0.93882366284E+02 0.  0.
        -11    1    4    4    0    0 -0.53749409230E+02 -0.22275712395E+02 -0.16657265877E+03  0.17644165326E+03  0.00000000000E+00 0. -1.
         11    1    4    4    0    0  0.17425428166E+02  0.35298458364E+02 -0.59133164068E+02  0.71037720982E+02  0.00000000000E+00 0.  1.
        -13    1    3    3    0    0 -0.33221349908E+02 -0.22917505737E+02  0.69799912390E+02  0.80628146008E+02  0.00000000000E+00 0. -1.
         13    1    3    3    0    0  0.48006004327E+02  0.18457256720E+02  0.99808410898E+02  0.11228074485E+03  0.00000000000E+00 0.  1.
         21    1    1    2  502  501  0.21539326645E+02 -0.85624969516E+01 -0.88571315661E+02  0.91554010859E+02  0.00000000000E+00 0.  1.
<scales pt_clust_5="13000.00000" pt_clust_6="13000.00000" pt_clust_7="13000.00000" pt_clust_8="13000.00000" pt_clust_9="23.17885"></scales>
<clustering>
<clus scale="   23.179">  2  9  1 -1</clus>
<clus scale="   90.600">  7  8 -1 -1</clus>
<clus scale="   92.095">  1  7  2 -1</clus>
<clus scale="   93.882">  5  6 -1 -1</clus>
<clus scale="   23.179">  2  5  1 -1</clus>
</clustering>
</event>
<event>
 9    1  0.9000149E-006  0.9356318E+02  0.7546771E-02  0.1295270E+00
         -1   -1    0    0    0  501 -0.00000000000E+00  0.00000000000E+00  0.25981499977E+03  0.25981499977E+03  0.00000000000E+00 0.  1.
          1   -1    0    0  502    0  0.00000000000E+00 -0.00000000000E+00 -0.26617121411E+03  0.26617121411E+03  0.00000000000E+00 0. -1.
         23    2    1    2    0    0 -0.23126059766E+01  0.16902211145E+02  0.23019409229E+03  0.24840370955E+03  0.91782623121E+02 0.  0.
         23    2    1    2    0    0  0.35043824347E+02 -0.37794834092E+02 -0.19297458199E+03  0.21921574900E+03  0.90331811703E+02 0.  0.
        -13    1    3    3    0    0 -0.34571080386E+02  0.27226583032E+02  0.57430578963E+02  0.72351349834E+02  0.00000000000E+00 0. -1.
         13    1    3    3    0    0  0.32258474410E+02 -0.10324371888E+02  0.17276351333E+03  0.17605235972E+03  0.00000000000E+00 0.  1.
        -13    1    4    4    0    0 -0.26289123313E+02 -0.16386811113E+02 -0.27413194835E+02  0.41365793043E+02  0.00000000000E+00 0. -1.
         13    1    4    4    0    0  0.61332947659E+02 -0.21408022979E+02 -0.16556138716E+03  0.17784995596E+03  0.00000000000E+00 0.  1.
         21    1    1    2  502  501 -0.32731218370E+02  0.20892622947E+02 -0.43575724634E+02  0.58366755323E+02  0.00000000000E+00 0.  1.
<scales pt_clust_5="13000.00000" pt_clust_6="13000.00000" pt_clust_7="13000.00000" pt_clust_8="13000.00000" pt_clust_9="38.83084"></scales>
<clustering>
<clus scale="   38.831">  2  9  1 -1</clus>
<clus scale="   90.332">  7  8 -1 -1</clus>
<clus scale="   91.783">  5  6 -1 -1</clus>
<clus scale="   92.140">  2  7  1 -1</clus>
<clus scale="   38.831">  2  5  1 -1</clus>
</clustering>
</event>
<event>
 9    1  0.9000149E-006  0.1047754E+03  0.7546771E-02  0.1270698E+00
          1   -1    0    0  502    0  0.00000000000E+00  0.00000000000E+00  0.62858368412E+03  0.62858368412E+03  0.00000000000E+00 0. -1.
         -1   -1    0    0    0  501 -0.00000000000E+00 -0.00000000000E+00 -0.15236353469E+03  0.15236353469E+03  0.00000000000E+00 0.  1.
         23    2    1    2    0    0  0.39549012757E+02 -0.21555951561E+02 -0.10438260073E+03  0.14599204779E+03  0.91592397194E+02 0.  0.
         23    2    1    2    0    0 -0.89759733566E+02  0.60267620167E+02  0.17798421318E+03  0.22737524500E+03  0.91280480313E+02 0.  0.
        -11    1    4    4    0    0 -0.19754818229E+02  0.66861103014E+02  0.10492613453E+03  0.12597679805E+03  0.00000000000E+00 0. -1.
         11    1    4    4    0    0 -0.70004915338E+02 -0.65934828470E+01  0.73058078650E+02  0.10139844695E+03  0.00000000000E+00 0.  1.
        -13    1    3    3    0    0  0.34203691103E+02 -0.41692012495E+02 -0.11159801070E+03  0.12394447299E+03  0.00000000000E+00 0.  1.
         13    1    3    3    0    0  0.53453216541E+01  0.20136060933E+02  0.72154099725E+01  0.22047574800E+02  0.00000000000E+00 0. -1.
         21    1    1    2  502  501  0.50210720809E+02 -0.38711668605E+02  0.40261853699E+03  0.40757992602E+03  0.00000000000E+00 0. -1.
<scales pt_clust_5="13000.00000" pt_clust_6="13000.00000" pt_clust_7="13000.00000" pt_clust_8="13000.00000" pt_clust_9="63.40118"></scales>
<clustering>
<clus scale="   63.401">  1  9  2 -1</clus>
<clus scale="   91.280">  5  6 -1 -1</clus>
<clus scale="   91.592">  7  8 -1 -1</clus>
<clus scale="  104.503">  1  5  2 -1</clus>
<clus scale="   63.401">  1  5  2 -1</clus>
</clustering>
</event>
<event>
 9    1  0.9000149E-006  0.1025517E+03  0.7546771E-02  0.1276166E+00
         -2   -1    0    0    0  501 -0.00000000000E+00  0.00000000000E+00  0.43574257793E+03  0.43574257793E+03  0.00000000000E+00 0.  1.
          2   -1    0    0  502    0  0.00000000000E+00 -0.00000000000E+00 -0.11562165674E+03  0.11562165674E+03  0.00000000000E+00 0. -1.
         23    2    1    2    0    0  0.91411005798E+01  0.42193128262E+02  0.34061504936E+03  0.35549785964E+03  0.92175357688E+02 0.  0.
         23    2    1    2    0    0  0.37736675573E+02 -0.20982334142E+01 -0.64070759136E+02  0.12034121858E+03  0.94596445213E+02 0.  0.
        -11    1    4    4    0    0  0.13712641623E+02  0.33671779241E+02 -0.67963403871E+02  0.77076906550E+02  0.00000000000E+00 0.  1.
         11    1    4    4    0    0  0.24024033950E+02 -0.35770012656E+02  0.38926447352E+01  0.43264312032E+02  0.00000000000E+00 0. -1.
        -13    1    3    3    0    0  0.92789669793E+01 -0.29041990149E+02  0.10781330280E+03  0.11204126329E+03  0.00000000000E+00 0.  1.
         13    1    3    3    0    0 -0.13786639956E+00  0.71235118410E+02  0.23280174656E+03  0.24345659634E+03  0.00000000000E+00 0. -1.
         21    1    1    2  502  501 -0.46877776152E+02 -0.40094894847E+02  0.43576630974E+02  0.75525156450E+02  0.00000000000E+00 0. -1.
<scales pt_clust_5="13000.00000" pt_clust_6="13000.00000" pt_clust_7="13000.00000" pt_clust_8="13000.00000" pt_clust_9="61.68571"></scales>
<clustering>
<clus scale="   61.686">  2  9  1 -1</clus>
<clus scale="   92.175">  7  8 -1 -1</clus>
<clus scale="   94.596">  5  6 -1 -1</clus>
<clus scale="  100.323">  1  7  2 -1</clus>
<clus scale="   61.686">  2  5  1 -1</clus>
</clustering>
</event>
<event>
 9    1  0.9000149E-006  0.9655313E+02  0.7546771E-02  0.1289087E+00
         -1   -1    0    0    0  501 -0.00000000000E+00  0.00000000000E+00  0.39847855139E+02  0.39847855139E+02  0.00000000000E+00 0.  1.
          1   -1    0    0  502    0  0.00000000000E+00 -0.00000000000E+00 -0.54555244779E+03  0.54555244779E+03  0.00000000000E+00 0. -1.
         23    2    1    2    0    0 -0.43681616235E+02  0.85956042364E+01 -0.95893114764E+02  0.13742842579E+03  0.87801564599E+02 0.  0.
         23    2    1    2    0    0  0.38043232306E+01 -0.38323461708E+02 -0.12582588123E+03  0.15966342580E+03  0.90427299849E+02 0.  0.
        -11    1    4    4    0    0  0.26140002103E+02  0.52204319842E+01 -0.22510425036E+01  0.26751071238E+02  0.00000000000E+00 0.  1.
         11    1    4    4    0    0 -0.22335678872E+02 -0.43543893692E+02 -0.12357483872E+03  0.13291235456E+03  0.00000000000E+00 0. -1.
        -11    1    3    3    0    0  0.23916165621E+02 -0.11563650756E+02 -0.16716572393E+02  0.31387016255E+02  0.00000000000E+00 0.  1.
         11    1    3    3    0    0 -0.67597781856E+02  0.20159254993E+02 -0.79176542372E+02  0.10604140953E+03  0.00000000000E+00 0. -1.
         21    1    1    2  502  501  0.39877293005E+02  0.29727857471E+02 -0.28398559665E+03  0.28830845134E+03  0.00000000000E+00 0. -1.
<scales pt_clust_5="13000.00000" pt_clust_6="13000.00000" pt_clust_7="13000.00000" pt_clust_8="13000.00000" pt_clust_9="49.73876"></scales>
<clustering>
<clus scale="   49.739">  2  9  1 -1</clus>
<clus scale="   87.802">  7  8 -1 -1</clus>
<clus scale="   90.427">  5  6 -1 -1</clus>
<clus scale="   94.098">  1  7  2 -1</clus>
<clus scale="   49.739">  2  5  1 -1</clus>
</clustering>
</event>
<event>
 9    1  0.9000149E-006  0.9823870E+02  0.7546771E-02  0.1284530E+00
         -1   -1    0    0    0  501 -0.00000000000E+00  0.00000000000E+00  0.51897072549E+02  0.51897072549E+02  0.00000000000E+00 0.  1.
          1   -1    0    0  502    0  0.00000000000E+00 -0.00000000000E+00 -0.43820610023E+03  0.43820610023E+03  0.00000000000E+00 0. -1.
         23    2    1    2    0    0  0.18005722999E+02  0.14156291680E+02 -0.49945407149E+02  0.10595914259E+03  0.90599059317E+02 0.  0.
         23    2    1    2    0    0 -0.80690583265E+02 -0.10331787029E+02 -0.23183974430E+03  0.26220445808E+03  0.91563064332E+02 0.  0.
        -13    1    4    4    0    0 -0.65164970163E+02  0.26084888754E+02 -0.19817262468E+03  0.21023625741E+03  0.00000000000E+00 0. -1.
         13    1    4    4    0    0 -0.15525613102E+02 -0.36416675783E+02 -0.33667119615E+02  0.51968200666E+02  0.00000000000E+00 0.  1.
        -13    1    3    3    0    0  0.29639812221E+02 -0.20635714511E+02  0.83617191257E+01  0.37071141453E+02  0.00000000000E+00 0.  1.
         13    1    3    3    0    0 -0.11634089222E+02  0.34792006191E+02 -0.58307126275E+02  0.68888001141E+02  0.00000000000E+00 0. -1.
         21    1    1    2  502  501  0.62684860266E+02 -0.38245046503E+01 -0.10452387624E+03  0.12193957211E+03  0.00000000000E+00 0.  1.
<scales pt_clust_5="13000.00000" pt_clust_6="13000.00000" pt_clust_7="13000.00000" pt_clust_8="13000.00000" pt_clust_9="62.80142"></scales>
<clustering>
<clus scale="   62.801">  2  9  1 -1</clus>
<clus scale="   90.599">  7  8 -1 -1</clus>
<clus scale="   91.563">  5  6 -1 -1</clus>
<clus scale="   97.341">  1  7  2 -1</clus>
<clus scale="   62.801">  2  5  1 -1</clus>
</clustering>
</event>
<event>
 9    1  0.9000149E-006  0.9855933E+02  0.7546771E-02  0.1284227E+00
         -2   -1    0    0    0  501 -0.00000000000E+00  0.00000000000E+00  0.99225831920E+02  0.99225831920E+02  0.00000000000E+00 0.  1.
          2   -1    0    0  502    0  0.00000000000E+00 -0.00000000000E+00 -0.23947702317E+03  0.23947702317E+03  0.00000000000E+00 0. -1.
         23    2    1    2    0    0  0.45133940461E+02  0.51792575797E+01  0.19798664792E+02  0.10239026944E+03  0.89598453437E+02 0.  0.
         23    2    1    2    0    0 -0.24890409426E+02 -0.47286697778E+00 -0.22642810654E+02  0.97342636437E+02  0.91340768059E+02 0.  0.
        -11    1    3    3    0    0  0.28121988081E+02 -0.41367602290E+02  0.31893251031E+01  0.50122814440E+02  0.00000000000E+00 0. -1.
         11    1    3    3    0    0  0.17011952380E+02  0.46546859869E+02  0.16609339689E+02  0.52267455002E+02  0.00000000000E+00 0.  1.
        -13    1    4    4    0    0 -0.99779548933E+00 -0.31549571575E+02  0.21587744823E+02  0.38241362279E+02  0.00000000000E+00 0.  1.
         13    1    4    4    0    0 -0.23892613937E+02  0.31076704597E+02 -0.44230555476E+02  0.59101274158E+02  0.00000000000E+00 0. -1.
         21    1    1    2  502  501 -0.20243531035E+02 -0.47063906019E+01 -0.13740704538E+03  0.13896994921E+03  0.00000000000E+00 0. -1.
<scales pt_clust_5="13000.00000" pt_clust_6="13000.00000" pt_clust_7="13000.00000" pt_clust_8="13000.00000" pt_clust_9="20.78342"></scales>
<clustering>
<clus scale="   20.783">  2  9  1 -1</clus>
<clus scale="   89.598">  5  6 -1 -1</clus>
<clus scale="   91.341">  7  8 -1 -1</clus>
<clus scale="   96.947">  1  5  2 -1</clus>
<clus scale="   20.783">  2  5  1 -1</clus>
</clustering>
</event>
<event>
 9    1  0.9000149E-006  0.1347201E+03  0.7546771E-02  0.1220752E+00
          1   -1    0    0  502    0  0.00000000000E+00  0.00000000000E+00  0.11584405953E+03  0.11584405953E+03  0.00000000000E+00 0. -1.
         -1   -1    0    0    0  501 -0.00000000000E+00 -0.00000000000E+00 -0.25153432629E+03  0.25153432629E+03  0.00000000000E+00 0.  1.
         23    2    1    2    0    0 -0.72301109595E+02 -0.53308348663E+02 -0.10876263009E+03  0.16886456342E+03  0.92826184826E+02 0.  0.
         23    2    1    2    0    0  0.67475126710E+02  0.93032614382E+02 -0.45714761593E+02  0.15430677023E+03  0.92264727005E+02 0.  0.
        -11    1    3    3    0    0 -0.21776346911E+02 -0.64974291003E+02 -0.91285814641E+02  0.11414450373E+03  0.00000000000E+00 0. -1.
         11    1    3    3    0    0 -0.50524762684E+02  0.11665942340E+02 -0.17476815453E+02  0.54720059698E+02  0.00000000000E+00 0.  1.
        -11    1    4    4    0    0 -0.92886640590E+01  0.34681916617E+02 -0.45401587955E+02  0.57882802360E+02  0.00000000000E+00 0.  1.
         11    1    4    4    0    0  0.76763790769E+02  0.58350697765E+02 -0.31317363800E+00  0.96423967874E+02  0.00000000000E+00 0. -1.
         21    1    1    2  502  501  0.48259828843E+01 -0.39724265719E+02  0.18787124921E+02  0.44207052158E+02  0.00000000000E+00 0.  1.
<scales pt_clust_5="13000.00000" pt_clust_6="13000.00000" pt_clust_7="13000.00000" pt_clust_8="13000.00000" pt_clust_9="40.01634"></scales>
<clustering>
<clus scale="   40.016">  1  9  2 -1</clus>
<clus scale="   92.265">  7  8 -1 -1</clus>
<clus scale="   92.826">  5  6 -1 -1</clus>
<clus scale="  134.334">  1  7  2 -1</clus>
<clus scale="   40.016">  1  5  2 -1</clus>
</clustering>
</event>
<event>
 9    1  0.9000149E-006  0.1049276E+03  0.7546771E-02  0.1277188E+00
         -1   -1    0    0    0  501 -0.00000000000E+00  0.00000000000E+00  0.29259814144E+02  0.29259814144E+02  0.00000000000E+00 0.  1.
          1   -1    0    0  502    0  0.00000000000E+00 -0.00000000000E+00 -0.47646192724E+03  0.47646192724E+03  0.00000000000E+00 0. -1.
         23    2    1    2    0    0  0.11414556804E+02 -0.10713383638E+02 -0.14122163755E+03  0.16869483989E+03  0.90935853197E+02 0.  0.
         23    2    1    2    0    0  0.14843806107E+02  0.15779720482E+02 -0.18749871220E+03  0.21556457138E+03  0.10412962691E+03 0.  0.
        -13    1    3    3    0    0 -0.20007159527E+02  0.16144469323E+02 -0.48059236724E+01  0.26153914132E+02  0.00000000000E+00 0.  1.
         13    1    3    3    0    0  0.31421716330E+02 -0.26857852961E+02 -0.13641571388E+03  0.14254092576E+03  0.00000000000E+00 0. -1.
        -13    1    4    4    0    0  0.15152176181E+02 -0.42702714993E+02 -0.59072803952E+02  0.74449355119E+02  0.00000000000E+00 0. -1.
         13    1    4    4    0    0 -0.30837007414E+00  0.58482435475E+02 -0.12842590825E+03  0.14111521627E+03  0.00000000000E+00 0.  1.
         21    1    1    2  502  501 -0.26258362910E+02 -0.50663368438E+01 -0.11848176334E+03  0.12146233011E+03  0.00000000000E+00 0.  1.
<scales pt_clust_5="13000.00000" pt_clust_6="13000.00000" pt_clust_7="13000.00000" pt_clust_8="13000.00000" pt_clust_9="26.74265"></scales>
<clustering>
<clus scale="   26.743">  2  9  1 -1</clus>
<clus scale="   90.936">  5  6 -1 -1</clus>
<clus scale="   91.848">  1  5  2 -1</clus>
<clus scale="  104.130">  7  8 -1 -1</clus>
<clus scale="   26.743">  2  5  1 -1</clus>
</clustering>
</event>
<event>
 9    1  0.9000149E-006  0.9360822E+02  0.7546771E-02  0.1297437E+00
         -3   -1    0    0    0  501 -0.00000000000E+00  0.00000000000E+00  0.27661673318E+02  0.27661673318E+02  0.00000000000E+00 0.  1.
          3   -1    0    0  502    0  0.00000000000E+00 -0.00000000000E+00 -0.60791321713E+03  0.60791321713E+03  0.00000000000E+00 0. -1.
         23    2    1    2    0    0 -0.39557582709E+02  0.24952239393E+02 -0.16925554921E+03  0.19796006002E+03  0.91396541642E+02 0.  0.
         23    2    1    2    0    0  0.10260965716E+02  0.20426178180E+02 -0.31639125798E+03  0.32867655093E+03  0.86036799294E+02 0.  0.
        -11    1    3    3    0    0 -0.63482238870E+02  0.38969364639E+02 -0.11475514720E+03  0.13681136591E+03  0.00000000000E+00 0.  1.
         11    1    3    3    0    0  0.23924656160E+02 -0.14017125246E+02 -0.54500402011E+02  0.61148694115E+02  0.00000000000E+00 0. -1.
        -13    1    4    4    0    0  0.22831864827E+02 -0.29617247021E+02 -0.12895283597E+03  0.13426581575E+03  0.00000000000E+00 0.  1.
         13    1    4    4    0    0 -0.12570899111E+02  0.50043425201E+02 -0.18743842201E+03  0.19441073519E+03  0.00000000000E+00 0. -1.
         21    1    1    2  502  501  0.29296616994E+02 -0.45378417573E+02 -0.94604736619E+02  0.10893827950E+03  0.00000000000E+00 0. -1.
<scales pt_clust_5="13000.00000" pt_clust_6="13000.00000" pt_clust_7="13000.00000" pt_clust_8="13000.00000" pt_clust_9="54.01382"></scales>
<clustering>
<clus scale="   54.014">  1  9  2 -1</clus>
<clus scale="   86.037">  7  8 -1 -1</clus>
<clus scale="   88.383">  2  7  1 -1</clus>
<clus scale="   91.397">  5  6 -1 -1</clus>
<clus scale="   88.383">  2  5  1 -1</clus>
</clustering>
</event>
<event>
 9    1  0.9000149E-006  0.9392795E+02  0.7546771E-02  0.1293676E+00
          1   -1    0    0  502    0  0.00000000000E+00  0.00000000000E+00  0.46362851224E+03  0.46362851224E+03  0.00000000000E+00 0. -1.
         -1   -1    0    0    0  501 -0.00000000000E+00 -0.00000000000E+00 -0.72295111933E+02  0.72295111933E+02  0.00000000000E+00 0.  1.
         23    2    1    2    0    0 -0.58541149953E+01  0.24424661556E+02 -0.24789843728E+02  0.98154110996E+02  0.91590711313E+02 0.  0.
         23    2    1    2    0    0  0.59409062503E+01  0.14620036897E+02  0.24091176425E+03  0.25826029709E+03  0.91710757577E+02 0.  0.
        -13    1    3    3    0    0  0.15369483885E+02  0.26639694474E+02 -0.53901930501E+02  0.62058943500E+02  0.00000000000E+00 0.  1.
         13    1    3    3    0    0 -0.21223598881E+02 -0.22150329186E+01  0.29112086773E+02  0.36095167496E+02  0.00000000000E+00 0. -1.
        -13    1    4    4    0    0  0.31663727932E+02  0.43038859271E+02  0.16091796322E+03  0.16955685171E+03  0.00000000000E+00 0.  1.
         13    1    4    4    0    0 -0.25722821681E+02 -0.28418822374E+02  0.79993801025E+02  0.88703445383E+02  0.00000000000E+00 0. -1.
         21    1    1    2  502  501 -0.86791254957E-01 -0.39044698453E+02  0.17521147978E+03  0.17950921608E+03  0.00000000000E+00 0. -1.
<scales pt_clust_5="13000.00000" pt_clust_6="13000.00000" pt_clust_7="13000.00000" pt_clust_8="13000.00000" pt_clust_9="39.04479"></scales>
<clustering>
<clus scale="   39.045">  1  9  2 -1</clus>
<clus scale="   91.591">  5  6 -1 -1</clus>
<clus scale="   91.711">  7  8 -1 -1</clus>
<clus scale="   93.811">  2  5  1 -1</clus>
<clus scale="   39.045">  1  5  2 -1</clus>
</clustering>
</event>
<event>
 9    1  0.9000149E-006  0.1096730E+03  0.7546771E-02  0.1264795E+00
          1   -1    0    0  502    0  0.00000000000E+00  0.00000000000E+00  0.49375975062E+02  0.49375975062E+02  0.00000000000E+00 0. -1.
         -1   -1    0    0    0  501 -0.00000000000E+00 -0.00000000000E+00 -0.31085055915E+03  0.31085055915E+03  0.00000000000E+00 0.  1.
         23    2    1    2    0    0 -0.50182012546E+02 -0.19499037643E+01 -0.16633157180E+03  0.19639432481E+03  0.91556007621E+02 0.  0.
         23    2    1    2    0    0  0.36855162610E+02 -0.15318993016E+02 -0.92533032973E+02  0.14186332875E+03  0.99849222807E+02 0.  0.
        -11    1    3    3    0    0 -0.64193420588E+02  0.18549900460E+02 -0.15560613799E+03  0.16934628497E+03  0.00000000000E+00 0.  1.
         11    1    3    3    0    0  0.14011408042E+02 -0.20499804225E+02 -0.10725433811E+02  0.27048039836E+02  0.00000000000E+00 0. -1.
        -13    1    4    4    0    0 -0.12938781926E+02 -0.34347892697E+02 -0.78628823168E+02  0.86773738212E+02  0.00000000000E+00 0.  1.
         13    1    4    4    0    0  0.49793944535E+02  0.19028899681E+02 -0.13904209805E+02  0.55089590539E+02  0.00000000000E+00 0. -1.
         21    1    1    2  502  501  0.13326849937E+02  0.17268896780E+02 -0.26099793175E+01  0.21968880656E+02  0.00000000000E+00 0.  1.
<scales pt_clust_5="13000.00000" pt_clust_6="13000.00000" pt_clust_7="13000.00000" pt_clust_8="13000.00000" pt_clust_9="21.81329"></scales>
<clustering>
<clus scale="   21.813">  1  9  2 -1</clus>
<clus scale="   91.556">  5  6 -1 -1</clus>
<clus scale="   99.849">  7  8 -1 -1</clus>
<clus scale="  102.180">  2  5  1 -1</clus>
<clus scale="   21.813">  1  5  2 -1</clus>
</clustering>
</event>
<event>
 9    1  0.9000149E-006  0.1265342E+03  0.7546771E-02  0.1232879E+00
          1   -1    0    0  502    0  0.00000000000E+00  0.00000000000E+00  0.47884322996E+03  0.47884322996E+03  0.00000000000E+00 0. -1.
         -1   -1    0    0    0  501 -0.00000000000E+00 -0.00000000000E+00 -0.96466119988E+02  0.96466119988E+02  0.00000000000E+00 0.  1.
         23    2    1    2    0    0  0.65772370767E+02 -0.61132734912E+02 -0.33591111538E+02  0.13320366191E+03  0.92475060088E+02 0.  0.
         23    2    1    2    0    0 -0.30195459303E+02  0.58915740249E+02  0.33601119064E+03  0.35456279295E+03  0.91806446926E+02 0.  0.
        -11    1    3    3    0    0  0.18375559615E+02  0.24441264012E+02 -0.30819108227E+01  0.30733284107E+02  0.00000000000E+00 0. -1.
         11    1    3    3    0    0  0.47396811152E+02 -0.85573998924E+02 -0.30509200715E+02  0.10247037780E+03  0.00000000000E+00 0.  1.
        -13    1    4    4    0    0  0.78056011517E+01 -0.21952330890E+02  0.56428002966E+02  0.61048765422E+02  0.00000000000E+00 0.  1.
         13    1    4    4    0    0 -0.38001060455E+02  0.80868071139E+02  0.27958318768E+03  0.29351402753E+03  0.00000000000E+00 0. -1.
         21    1    1    2  502  501 -0.35576911464E+02  0.22169946625E+01  0.79957030867E+02  0.87542895084E+02  0.00000000000E+00 0. -1.
<scales pt_clust_5="13000.00000" pt_clust_6="13000.00000" pt_clust_7="13000.00000" pt_clust_8="13000.00000" pt_clust_9="35.64592"></scales>
<clustering>
<clus scale="   35.646">  1  9  2 -1</clus>
<clus scale="   91.806">  7  8 -1 -1</clus>
<clus scale="   92.475">  5  6 -1 -1</clus>
<clus scale="  126.046">  1  7  2 -1</clus>
<clus scale="   35.646">  1  5  2 -1</clus>
</clustering>
</event>
<event>
 9    1  0.9000149E-006  0.1632843E+03  0.7546771E-02  0.1185296E+00
         -1   -1    0    0    0  501 -0.00000000000E+00  0.00000000000E+00  0.43150394635E+02  0.43150394635E+02  0.00000000000E+00 0.  1.
          1   -1    0    0  502    0  0.00000000000E+00 -0.00000000000E+00 -0.90978841925E+03  0.90978841925E+03  0.00000000000E+00 0. -1.
         23    2    1    2    0    0 -0.84270109480E+02 -0.88970173925E+02 -0.30190774896E+03  0.33789447764E+03  0.89483215956E+02 0.  0.
         23    2    1    2    0    0  0.13263635460E+03  0.75703072787E+02 -0.32862476838E+03  0.37367093215E+03  0.91172196132E+02 0.  0.
        -13    1    3    3    0    0 -0.90158317628E+02 -0.35188461388E+02 -0.21033868117E+03  0.23153641366E+03  0.00000000000E+00 0.  1.
         13    1    3    3    0    0  0.58882081481E+01 -0.53781712536E+02 -0.91569067786E+02  0.10635806398E+03  0.00000000000E+00 0. -1.
        -13    1    4    4    0    0  0.37706785490E+02  0.66997620364E+02 -0.10131903835E+03  0.12718502403E+03  0.00000000000E+00 0.  1.
         13    1    4    4    0    0  0.94929569112E+02  0.87054524232E+01 -0.22730573003E+03  0.24648590812E+03  0.00000000000E+00 0. -1.
         21    1    1    2  502  501 -0.48366245123E+02  0.13267101137E+02 -0.23610550727E+03  0.24137340409E+03  0.00000000000E+00 0.  1.
<scales pt_clust_5="13000.00000" pt_clust_6="13000.00000" pt_clust_7="13000.00000" pt_clust_8="13000.00000" pt_clust_9="50.15286"></scales>
<clustering>
<clus scale="   50.153">  2  9  1 -1</clus>
<clus scale="   89.483">  5  6 -1 -1</clus>
<clus scale="   91.172">  7  8 -1 -1</clus>
<clus scale="  162.347">  1  5  2 -1</clus>
<clus scale="   50.153">  2  5  1 -1</clus>
</clustering>
</event>
<event>
 9    1  0.9000149E-006  0.1289338E+03  0.7546771E-02  0.1229501E+00
          3   -1    0    0  502    0  0.00000000000E+00  0.00000000000E+00  0.40231263044E+03  0.40231263044E+03  0.00000000000E+00 0. -1.
         -3   -1    0    0    0  501 -0.00000000000E+00 -0.00000000000E+00 -0.94314876938E+02  0.94314876938E+02  0.00000000000E+00 0.  1.
         23    2    1    2    0    0 -0.20502128990E+02  0.93343317939E+02 -0.14558343165E+02  0.13173655562E+03  0.89494482698E+02 0.  0.
         23    2    1    2    0    0  0.29823879485E+02 -0.72726497754E+02  0.15729696624E+03  0.19809008697E+03  0.91207125282E+02 0.  0.
        -11    1    3    3    0    0 -0.29444895739E+02  0.51787017979E+02  0.32876425606E+02  0.68042313871E+02  0.00000000000E+00 0. -1.
         11    1    3    3    0    0  0.89427667493E+01  0.41556299960E+02 -0.47434768770E+02  0.63694241748E+02  0.00000000000E+00 0.  1.
        -13    1    4    4    0    0 -0.60272453589E+00 -0.82043123964E+02  0.13893384646E+03  0.16135070858E+03  0.00000000000E+00 0. -1.
         13    1    4    4    0    0  0.30426604021E+02  0.93166262101E+01  0.18363119782E+02  0.36739378388E+02  0.00000000000E+00 0.  1.
         21    1    1    2  502  501 -0.93217504952E+01 -0.20616820185E+02  0.16525913043E+03  0.16680086480E+03  0.00000000000E+00 0. -1.
<scales pt_clust_5="13000.00000" pt_clust_6="13000.00000" pt_clust_7="13000.00000" pt_clust_8="13000.00000" pt_clust_9="22.62627"></scales>
<clustering>
<clus scale="   22.626">  1  9  2 -1</clus>
<clus scale="   89.494">  5  6 -1 -1</clus>
<clus scale="   91.207">  7  8 -1 -1</clus>
<clus scale="  127.728">  2  5  1 -1</clus>
<clus scale="   22.626">  1  5  2 -1</clus>
</clustering>
</event>
<event>
 9    1  0.9000149E-006  0.9633979E+02  0.7546771E-02  0.1288457E+00
         -4   -1    0    0    0  501 -0.00000000000E+00  0.00000000000E+00  0.84816653530E+02  0.84816653530E+02  0.00000000000E+00 0.  1.
          4   -1    0    0  502    0  0.00000000000E+00 -0.00000000000E+00 -0.29809531152E+03  0.29809531152E+03  0.00000000000E+00 0. -1.
         23    2    1    2    0    0  0.23582022309E+02 -0.18826482912E+02  0.31968517650E+02  0.10137123595E+03  0.91343270811E+02 0.  0.
         23    2    1    2    0    0  0.74005243860E+01  0.40292020495E+02 -0.17920818347E+03  0.20550234412E+03  0.91855461128E+02 0.  0.
        -11    1    3    3    0    0 -0.56908960704E+01 -0.33561742958E+02  0.52593662427E+02  0.62648784632E+02  0.00000000000E+00 0.  1.
         11    1    3    3    0    0  0.29272918380E+02  0.14735260045E+02 -0.20625144777E+02  0.38722451319E+02  0.00000000000E+00 0. -1.
        -13    1    4    4    0    0  0.46515844624E+02  0.60002532572E+01 -0.10366899274E+03  0.11378482718E+03  0.00000000000E+00 0.  1.
         13    1    4    4    0    0 -0.39115320238E+02  0.34291767238E+02 -0.75539190728E+02  0.91717516939E+02  0.00000000000E+00 0. -1.
         21    1    1    2  502  501 -0.30982546695E+02 -0.21465537582E+02 -0.66038992165E+02  0.76038384975E+02  0.00000000000E+00 0. -1.
<scales pt_clust_5="13000.00000" pt_clust_6="13000.00000" pt_clust_7="13000.00000" pt_clust_8="13000.00000" pt_clust_9="37.69201"></scales>
<clustering>
<clus scale="   37.692">  2  9  1 -1</clus>
<clus scale="   91.343">  5  6 -1 -1</clus>
<clus scale="   91.855">  7  8 -1 -1</clus>
<clus scale="   95.852">  1  5  2 -1</clus>
<clus scale="   37.692">  2  5  1 -1</clus>
</clustering>
</event>
<event>
 9    1  0.9000149E-006  0.9392073E+02  0.7546771E-02  0.1293785E+00
          2   -1    0    0  502    0  0.00000000000E+00  0.00000000000E+00  0.41411501139E+03  0.41411501139E+03  0.00000000000E+00 0. -1.
         -2   -1    0    0    0  501 -0.00000000000E+00 -0.00000000000E+00 -0.68762036249E+02  0.68762036249E+02  0.00000000000E+00 0.  1.
         23    2    1    2    0    0 -0.76339930922E+01 -0.10933401234E+01 -0.19528089402E+02  0.92321409407E+02  0.89902297613E+02 0.  0.
         23    2    1    2    0    0  0.27599879028E+02 -0.62819364185E+01  0.35447647610E+03  0.36686414681E+03  0.90191540937E+02 0.  0.
        -11    1    3    3    0    0 -0.26781508134E+02 -0.37315612666E+02  0.21235241081E+01  0.45980577217E+02  0.00000000000E+00 0.  1.
         11    1    3    3    0    0  0.19147515042E+02  0.36222272543E+02 -0.21651613510E+02  0.46340832190E+02  0.00000000000E+00 0. -1.
        -11    1    4    4    0    0  0.50323015640E+02  0.18878296108E+02  0.27890281727E+03  0.28403446525E+03  0.00000000000E+00 0. -1.
         11    1    4    4    0    0 -0.22723136612E+02 -0.25160232527E+02  0.75573658828E+02  0.82829681558E+02  0.00000000000E+00 0.  1.
         21    1    1    2  502  501 -0.19965885936E+02  0.73752765419E+01  0.10404588444E+02  0.23691491425E+02  0.00000000000E+00 0.  1.
<scales pt_clust_5="13000.00000" pt_clust_6="13000.00000" pt_clust_7="13000.00000" pt_clust_8="13000.00000" pt_clust_9="21.28453"></scales>
<clustering>
<clus scale="   21.285">  2  9  1 -1</clus>
<clus scale="   89.902">  5  6 -1 -1</clus>
<clus scale="   90.192">  7  8 -1 -1</clus>
<clus scale="   93.643">  2  5  1 -1</clus>
<clus scale="   93.921">  1  5  2 -1</clus>
</clustering>
</event>
<event>
 9    1  0.9000149E-006  0.9535144E+02  0.7546771E-02  0.1291523E+00
          4   -1    0    0  502    0  0.00000000000E+00  0.00000000000E+00  0.22537058825E+02  0.22537058825E+02  0.00000000000E+00 0. -1.
         -4   -1    0    0    0  501 -0.00000000000E+00 -0.00000000000E+00 -0.91419140385E+03  0.91419140385E+03  0.00000000000E+00 0.  1.
         23    2    1    2    0    0  0.45870198660E+02 -0.25724248827E+02 -0.56394507420E+03  0.57319315884E+03  0.88037142831E+02 0.  0.
         23    2    1    2    0    0  0.99847542762E+01 -0.77801005284E+01 -0.21263531360E+03  0.23130696790E+03  0.90160476532E+02 0.  0.
        -11    1    3    3    0    0 -0.14407258512E+02  0.20640328195E+02 -0.10392961940E+03  0.10693436320E+03  0.00000000000E+00 0.  1.
         11    1    3    3    0    0  0.60277457172E+02 -0.46364577022E+02 -0.46001545480E+03  0.46625879563E+03  0.00000000000E+00 0. -1.
        -13    1    4    4    0    0 -0.32686295974E+02 -0.28363391236E+02 -0.11225980211E+03  0.12031267213E+03  0.00000000000E+00 0.  1.
         13    1    4    4    0    0  0.42671050250E+02  0.20583290708E+02 -0.10037551149E+03  0.11099429577E+03  0.00000000000E+00 0. -1.
         21    1    1    2  502  501 -0.55854952936E+02  0.33504349355E+02 -0.11507395722E+03  0.13222833593E+03  0.00000000000E+00 0.  1.
<scales pt_clust_5="13000.00000" pt_clust_6="13000.00000" pt_clust_7="13000.00000" pt_clust_8="13000.00000" pt_clust_9="65.13307"></scales>
<clustering>
<clus scale="   65.133">  1  9  2 -1</clus>
<clus scale="   88.037">  5  6 -1 -1</clus>
<clus scale="   90.160">  7  8 -1 -1</clus>
<clus scale="   93.346">  2  5  1 -1</clus>
<clus scale="   65.133">  1  5  2 -1</clus>
</clustering>
</event>
<event>
 9    1  0.9000149E-006  0.1244728E+03  0.7546771E-02  0.1238571E+00
         -1   -1    0    0    0  501 -0.00000000000E+00  0.00000000000E+00  0.32035863667E+02  0.32035863667E+02  0.00000000000E+00 0.  1.
          1   -1    0    0  502    0  0.00000000000E+00 -0.00000000000E+00 -0.56237934712E+03  0.56237934712E+03  0.00000000000E+00 0. -1.
         23    2    1    2    0    0  0.60007417080E+02  0.26765796429E+02 -0.20128963656E+03  0.23329966918E+03  0.97948557362E+02 0.  0.
         23    2    1    2    0    0 -0.82497502512E+02 -0.23335335843E+02 -0.29714726199E+03  0.32192878156E+03  0.89393899525E+02 0.  0.
        -11    1    4    4    0    0 -0.36248994794E+02 -0.21869395431E+01 -0.22735955491E+02  0.42845023050E+02  0.00000000000E+00 0.  1.
         11    1    4    4    0    0 -0.46248507719E+02 -0.21148396300E+02 -0.27441130650E+03  0.27908375851E+03  0.00000000000E+00 0. -1.
        -13    1    3    3    0    0 -0.27236420517E+02  0.75364588408E+01 -0.56340865307E+02  0.63031055187E+02  0.00000000000E+00 0.  1.
         13    1    3    3    0    0  0.87243837597E+02  0.19229337589E+02 -0.14494877125E+03  0.17026861399E+03  0.00000000000E+00 0. -1.
         21    1    1    2  502  501  0.22490085432E+02 -0.34304605864E+01 -0.31906584905E+02  0.39186760046E+02  0.00000000000E+00 0. -1.
<scales pt_clust_5="13000.00000" pt_clust_6="13000.00000" pt_clust_7="13000.00000" pt_clust_8="13000.00000" pt_clust_9="22.75021"></scales>
<clustering>
<clus scale="   22.750">  1  9  2 -1</clus>
<clus scale="   89.394">  5  6 -1 -1</clus>
<clus scale="   97.949">  7  8 -1 -1</clus>
<clus scale="  117.859">  2  5  1 -1</clus>
<clus scale="  117.859">  2  5  1 -1</clus>
</clustering>
</event>
<event>
 9    1  0.9000149E-006  0.9460229E+02  0.7546771E-02  0.1292535E+00
         -1   -1    0    0    0  501 -0.00000000000E+00  0.00000000000E+00  0.53247632927E+02  0.53247632927E+02  0.00000000000E+00 0.  1.
          1   -1    0    0  502    0  0.00000000000E+00 -0.00000000000E+00 -0.27886705591E+03  0.27886705591E+03  0.00000000000E+00 0. -1.
         23    2    1    2    0    0  0.24287390029E+00 -0.10945930964E+02 -0.34354679787E+02  0.98113354777E+02  0.91247542268E+02 0.  0.
         23    2    1    2    0    0 -0.33402673069E+02  0.62400646065E+01 -0.16598580088E+03  0.19204013313E+03  0.90407132807E+02 0.  0.
        -11    1    4    4    0    0 -0.54366737966E+02  0.30406010657E+02 -0.88637826924E+02  0.10833712218E+03  0.00000000000E+00 0.  1.
         11    1    4    4    0    0  0.20964064897E+02 -0.24165946051E+02 -0.77347973959E+02  0.83703010945E+02  0.00000000000E+00 0. -1.
        -13    1    3    3    0    0 -0.29284971278E+02  0.28769559356E+02 -0.72504783318E+01  0.41687726303E+02  0.00000000000E+00 0.  1.
         13    1    3    3    0    0  0.29527845178E+02 -0.39715490320E+02 -0.27104201455E+02  0.56425628474E+02  0.00000000000E+00 0. -1.
         21    1    1    2  502  501  0.33159799169E+02  0.47058663571E+01 -0.25278942311E+02  0.41961200930E+02  0.00000000000E+00 0.  1.
<scales pt_clust_5="13000.00000" pt_clust_6="13000.00000" pt_clust_7="13000.00000" pt_clust_8="13000.00000" pt_clust_9="33.49205"></scales>
<clustering>
<clus scale="   33.492">  1  9  2 -1</clus>
<clus scale="   90.407">  5  6 -1 -1</clus>
<clus scale="   91.248">  7  8 -1 -1</clus>
<clus scale="   93.792">  2  5  1 -1</clus>
<clus scale="   93.792">  2  5  1 -1</clus>
</clustering>
</event>
<event>
 9    1  0.9000149E-006  0.1378070E+03  0.7546771E-02  0.1216467E+00
          2   -1    0    0  502    0  0.00000000000E+00  0.00000000000E+00  0.40294843353E+03  0.40294843353E+03  0.00000000000E+00 0. -1.
         -2   -1    0    0    0  501 -0.00000000000E+00 -0.00000000000E+00 -0.82643530174E+02  0.82643530174E+02  0.00000000000E+00 0.  1.
         23    2    1    2    0    0  0.24793530664E+02  0.88840078079E+02  0.38992884772E+02  0.13570468993E+03  0.91586238979E+02 0.  0.
         23    2    1    2    0    0 -0.40369427126E+02 -0.11982134098E+03  0.15820041498E+03  0.22198530294E+03  0.90902469827E+02 0.  0.
        -13    1    4    4    0    0 -0.37435816611E+02 -0.82164244286E+02  0.16048958159E+03  0.18414480498E+03  0.00000000000E+00 0. -1.
         13    1    4    4    0    0 -0.29336105148E+01 -0.37657096694E+02 -0.22891666023E+01  0.37840497960E+02  0.00000000000E+00 0.  1.
        -13    1    3    3    0    0 -0.22062420039E+02  0.17861771210E+02  0.41894563354E+02  0.50605806854E+02  0.00000000000E+00 0. -1.
         13    1    3    3    0    0  0.46855950703E+02  0.70978306868E+02 -0.29016785817E+01  0.85098883076E+02  0.00000000000E+00 0.  1.
         21    1    1    2  502  501  0.15575896462E+02  0.30981262902E+02  0.12311160360E+03  0.12790197083E+03  0.00000000000E+00 0. -1.
<scales pt_clust_5="13000.00000" pt_clust_6="13000.00000" pt_clust_7="13000.00000" pt_clust_8="13000.00000" pt_clust_9="34.67632"></scales>
<clustering>
<clus scale="   34.676">  1  9  2 -1</clus>
<clus scale="   90.902">  5  6 -1 -1</clus>
<clus scale="   91.586">  7  8 -1 -1</clus>
<clus scale="  137.354">  1  5  2 -1</clus>
<clus scale="   34.676">  1  5  2 -1</clus>
</clustering>
</event>
<event>
 9    1  0.9000149E-006  0.1560175E+03  0.7546771E-02  0.1194095E+00
         -1   -1    0    0    0  501 -0.00000000000E+00  0.00000000000E+00  0.20630527933E+03  0.20630527933E+03  0.00000000000E+00 0.  1.
          1   -1    0    0  502    0  0.00000000000E+00 -0.00000000000E+00 -0.19138900440E+03  0.19138900440E+03  0.00000000000E+00 0. -1.
         23    2    1    2    0    0  0.20034481831E+01 -0.10721636894E+03  0.45409030511E+02  0.14559774979E+03  0.87391996879E+02 0.  0.
         23    2    1    2    0    0  0.21836606877E+02  0.15879691046E+03  0.51845522783E+01  0.18500129726E+03  0.92224206327E+02 0.  0.
        -11    1    3    3    0    0 -0.20933996556E+02 -0.12742174875E+02 -0.17220151559E+02  0.29952109309E+02  0.00000000000E+00 0. -1.
         11    1    3    3    0    0  0.22937444739E+02 -0.94474194065E+02  0.62629182070E+02  0.11564564048E+03  0.00000000000E+00 0.  1.
        -13    1    4    4    0    0 -0.27027516458E+02  0.12120361112E+02 -0.51050756442E+01  0.30057471562E+02  0.00000000000E+00 0.  1.
         13    1    4    4    0    0  0.48864123335E+02  0.14667654935E+03  0.10289627922E+02  0.15494382570E+03  0.00000000000E+00 0. -1.
         21    1    1    2  502  501 -0.23840055061E+02 -0.51580541525E+02 -0.35677307852E+02  0.67095236678E+02  0.00000000000E+00 0.  1.
<scales pt_clust_5="13000.00000" pt_clust_6="13000.00000" pt_clust_7="13000.00000" pt_clust_8="13000.00000" pt_clust_9="56.82341"></scales>
<clustering>
<clus scale="   56.823">  2  9  1 -1</clus>
<clus scale="   87.392">  5  6 -1 -1</clus>
<clus scale="   92.224">  7  8 -1 -1</clus>
<clus scale="  153.211">  1  5  2 -1</clus>
<clus scale="   56.823">  2  5  1 -1</clus>
</clustering>
</event>
<event>
 9    1  0.9000149E-006  0.9910463E+02  0.7546771E-02  0.1283996E+00
          1   -1    0    0  502    0  0.00000000000E+00  0.00000000000E+00  0.61031436183E+03  0.61031436183E+03  0.00000000000E+00 0. -1.
         -1   -1    0    0    0  501 -0.00000000000E+00 -0.00000000000E+00 -0.19728047851E+03  0.19728047851E+03  0.00000000000E+00 0.  1.
         23    2    1    2    0    0 -0.16929558446E+02 -0.29509689526E+02 -0.17003380349E+03  0.19667881605E+03  0.92809647292E+02 0.  0.
         23    2    1    2    0    0 -0.18143228646E+02  0.65155021152E+02  0.24761801193E+03  0.27175946097E+03  0.89242205643E+02 0.  0.
        -11    1    4    4    0    0  0.68082080650E+00  0.77518964196E+02  0.12497671941E+03  0.14706744617E+03  0.00000000000E+00 0.  1.
         11    1    4    4    0    0 -0.18824049452E+02 -0.12363943044E+02  0.12264129252E+03  0.12469201481E+03  0.00000000000E+00 0. -1.
        -13    1    3    3    0    0  0.24330220417E+01  0.26036686714E+02 -0.13441923226E+02  0.29402618103E+02  0.00000000000E+00 0.  1.
         13    1    3    3    0    0 -0.19362580488E+02 -0.55546376241E+02 -0.15659188026E+03  0.16727619795E+03  0.00000000000E+00 0. -1.
         21    1    1    2  502  501  0.35072787092E+02 -0.35645331625E+02  0.33544967487E+03  0.33915656331E+03  0.00000000000E+00 0. -1.
<scales pt_clust_5="13000.00000" pt_clust_6="13000.00000" pt_clust_7="13000.00000" pt_clust_8="13000.00000" pt_clust_9="50.00690"></scales>
<clustering>
<clus scale="   50.007">  1  9  2 -1</clus>
<clus scale="   89.242">  5  6 -1 -1</clus>
<clus scale="   92.810">  7  8 -1 -1</clus>
<clus scale="   95.772">  1  5  2 -1</clus>
<clus scale="   50.007">  1  5  2 -1</clus>
</clustering>
</event>
<event>
 9    1  0.9000149E-006  0.1112278E+03  0.7546771E-02  0.1258418E+00
         -1   -1    0    0    0  501 -0.00000000000E+00  0.00000000000E+00  0.13654458611E+03  0.13654458611E+03  0.00000000000E+00 0.  1.
          1   -1    0    0  502    0  0.00000000000E+00 -0.00000000000E+00 -0.17535639405E+03  0.17535639405E+03  0.00000000000E+00 0. -1.
         23    2    1    2    0    0 -0.72670553599E+01 -0.68111141155E+02  0.68076643685E+02  0.13258203495E+03  0.90838477168E+02 0.  0.
         23    2    1    2    0    0  0.30348620513E+02  0.46305320215E+02 -0.58990458217E+02  0.12185182200E+03  0.91119541907E+02 0.  0.
        -13    1    4    4    0    0 -0.17882839315E+02 -0.17984650536E+02 -0.76838206170E+01  0.26500654636E+02  0.00000000000E+00 0. -1.
         13    1    4    4    0    0  0.48231459828E+02  0.64289970751E+02 -0.51306637600E+02  0.95351167366E+02  0.00000000000E+00 0.  1.
        -13    1    3    3    0    0  0.28444903255E+02 -0.64658446054E+02  0.21598817380E+02  0.73867016181E+02  0.00000000000E+00 0.  1.
         13    1    3    3    0    0 -0.35711958614E+02 -0.34526951018E+01  0.46477826305E+02  0.58715018774E+02  0.00000000000E+00 0. -1.
         21    1    1    2  502  501 -0.23081565153E+02  0.21805820940E+02 -0.47897993404E+02  0.57467123200E+02  0.00000000000E+00 0. -1.
<scales pt_clust_5="13000.00000" pt_clust_6="13000.00000" pt_clust_7="13000.00000" pt_clust_8="13000.00000" pt_clust_9="31.75299"></scales>
<clustering>
<clus scale="   31.753">  2  9  1 -1</clus>
<clus scale="   90.838">  7  8 -1 -1</clus>
<clus scale="   91.120">  5  6 -1 -1</clus>
<clus scale="  110.998">  1  7  2 -1</clus>
<clus scale="   31.753">  2  5  1 -1</clus>
</clustering>
</event>
<event>
 9    1  0.9000149E-006  0.1071176E+03  0.7546771E-02  0.1268119E+00
         -1   -1    0    0    0  501 -0.00000000000E+00  0.00000000000E+00  0.25074885245E+02  0.25074885245E+02  0.00000000000E+00 0.  1.
          1   -1    0    0  502    0  0.00000000000E+00 -0.00000000000E+00 -0.70803171770E+03  0.70803171770E+03  0.00000000000E+00 0. -1.
         23    2    1    2    0    0  0.71177584413E+02 -0.42169978756E+01 -0.20858116067E+03  0.23756696160E+03  0.88588538000E+02 0.  0.
         23    2    1    2    0    0 -0.25755073354E+02  0.29043405350E+00 -0.30018516510E+03  0.31548144232E+03  0.93562807511E+02 0.  0.
        -11    1    4    4    0    0 -0.81724194269E+01  0.46640951176E+02 -0.15444865039E+03  0.16154427372E+03  0.00000000000E+00 0.  1.
         11    1    4    4    0    0 -0.17582653927E+02 -0.46350517123E+02 -0.14573651471E+03  0.15393716860E+03  0.00000000000E+00 0. -1.
        -11    1    3    3    0    0  0.69002739879E+02  0.15700349734E+02 -0.20543984151E+03  0.21728646431E+03  0.00000000000E+00 0.  1.
         11    1    3    3    0    0  0.21748445339E+01 -0.19917347609E+02 -0.31413191640E+01  0.20280497297E+02  0.00000000000E+00 0. -1.
         21    1    1    2  502  501 -0.45422511059E+02  0.39265638221E+01 -0.17419050669E+03  0.18005819902E+03  0.00000000000E+00 0. -1.
<scales pt_clust_5="13000.00000" pt_clust_6="13000.00000" pt_clust_7="13000.00000" pt_clust_8="13000.00000" pt_clust_9="45.59191"></scales>
<clustering>
<clus scale="   45.592">  2  9  1 -1</clus>
<clus scale="   88.589">  7  8 -1 -1</clus>
<clus scale="   93.563">  5  6 -1 -1</clus>
<clus scale="  102.801">  1  7  2 -1</clus>
<clus scale="   45.592">  2  5  1 -1</clus>
</clustering>
</event>
<event>
 9    1  0.9000149E-006  0.2342036E+03  0.7546771E-02  0.1123834E+00
          2   -1    0    0  502    0  0.00000000000E+00  0.00000000000E+00  0.37046823284E+03  0.37046823284E+03  0.00000000000E+00 0. -1.
         -2   -1    0    0    0  501 -0.00000000000E+00 -0.00000000000E+00 -0.30852697530E+03  0.30852697530E+03  0.00000000000E+00 0.  1.
         23    2    1    2    0    0 -0.12691417975E+03 -0.17460392867E+03 -0.15178665859E+03  0.27926660288E+03  0.91416108149E+02 0.  0.
         23    2    1    2    0    0  0.50148074060E+02  0.22374308662E+03  0.14668543462E+03  0.28658097535E+03  0.89645081060E+02 0.  0.
        -11    1    3    3    0    0 -0.97916685885E+02 -0.17866048680E+03 -0.14222257063E+03  0.24846429626E+03  0.00000000000E+00 0.  1.
         11    1    3    3    0    0 -0.28997493866E+02  0.40565581381E+01 -0.95640879646E+01  0.30802306619E+02  0.00000000000E+00 0. -1.
        -13    1    4    4    0    0  0.33728507592E+02  0.15251314674E+02  0.20197238957E+02  0.42168036298E+02  0.00000000000E+00 0.  1.
         13    1    4    4    0    0  0.16419566467E+02  0.20849177195E+03  0.12648819566E+03  0.24441293905E+03  0.00000000000E+00 0. -1.
         21    1    1    2  502  501  0.76766105692E+02 -0.49139157954E+02  0.67042481513E+02  0.11314762991E+03  0.00000000000E+00 0.  1.
<scales pt_clust_5="13000.00000" pt_clust_6="13000.00000" pt_clust_7="13000.00000" pt_clust_8="13000.00000" pt_clust_9="91.14654"></scales>
<clustering>
<clus scale="   89.645">  7  8 -1 -1</clus>
<clus scale="   91.147">  1  9  2 -1</clus>
<clus scale="   91.416">  5  6 -1 -1</clus>
<clus scale="  233.518">  1  7  2 -1</clus>
<clus scale="   91.147">  1  5  2 -1</clus>
</clustering>
</event>
<event>
 9    1  0.9000149E-006  0.1157408E+03  0.7546771E-02  0.1250829E+00
          1   -1    0    0  502    0  0.00000000000E+00  0.00000000000E+00  0.20205030938E+03  0.20205030938E+03  0.00000000000E+00 0. -1.
         -1   -1    0    0    0  501 -0.00000000000E+00 -0.00000000000E+00 -0.12657474406E+03  0.12657474406E+03  0.00000000000E+00 0.  1.
         23    2    1    2    0    0  0.65476714828E+02  0.47457146089E+02 -0.48198344919E+02  0.13134669595E+03  0.91594176593E+02 0.  0.
         23    2    1    2    0    0 -0.30494161179E+02 -0.33302862643E+02  0.50978656909E+02  0.11537156499E+03  0.93127869205E+02 0.  0.
        -11    1    4    4    0    0  0.24142323914E+01 -0.51637190425E+02  0.57301978689E+02  0.77173471574E+02  0.00000000000E+00 0. -1.
         11    1    4    4    0    0 -0.32908393570E+02  0.18334327782E+02 -0.63233217799E+01  0.38198093420E+02  0.00000000000E+00 0.  1.
        -13    1    3    3    0    0  0.36790457403E+02 -0.21371803324E+02 -0.36110804049E+02  0.55805751517E+02  0.00000000000E+00 0. -1.
         13    1    3    3    0    0  0.28686257425E+02  0.68828949413E+02 -0.12087540869E+02  0.75540944438E+02  0.00000000000E+00 0.  1.
         21    1    1    2  502  501 -0.34982553649E+02 -0.14154283446E+02  0.72695253330E+02  0.81906792492E+02  0.00000000000E+00 0. -1.
<scales pt_clust_5="13000.00000" pt_clust_6="13000.00000" pt_clust_7="13000.00000" pt_clust_8="13000.00000" pt_clust_9="37.73755"></scales>
<clustering>
<clus scale="   37.738">  1  9  2 -1</clus>
<clus scale="   91.594">  7  8 -1 -1</clus>
<clus scale="   93.128">  5  6 -1 -1</clus>
<clus scale="  114.510">  2  7  1 -1</clus>
<clus scale="   37.738">  1  5  2 -1</clus>
</clustering>
</event>
<event>
 9    1  0.9000149E-006  0.1644572E+03  0.7546771E-02  0.1184572E+00
          2   -1    0    0  502    0  0.00000000000E+00  0.00000000000E+00  0.35224636052E+03  0.35224636052E+03  0.00000000000E+00 0. -1.
         -2   -1    0    0    0  501 -0.00000000000E+00 -0.00000000000E+00 -0.11385276677E+03  0.11385276677E+03  0.00000000000E+00 0.  1.
         23    2    1    2    0    0  0.29425223866E+02 -0.12681434566E+03  0.45296058367E+02  0.16573159296E+03  0.92019052026E+02 0.  0.
         23    2    1    2    0    0 -0.52811115664E+02  0.12637700671E+03  0.82066695169E+02  0.18689974737E+03  0.97141192852E+02 0.  0.
        -11    1    3    3    0    0 -0.56861808627E+01 -0.31495879154E+02 -0.26325790538E+02  0.41441166779E+02  0.00000000000E+00 0.  1.
         11    1    3    3    0    0  0.35111404729E+02 -0.95318466508E+02  0.71621848905E+02  0.12429042618E+03  0.00000000000E+00 0. -1.
        -11    1    4    4    0    0 -0.55857937608E+02  0.88220328111E+02  0.94901422797E+01  0.10484750014E+03  0.00000000000E+00 0.  1.
         11    1    4    4    0    0  0.30468219444E+01  0.38156678597E+02  0.72576552889E+02  0.82052247226E+02  0.00000000000E+00 0. -1.
         21    1    1    2  502  501  0.23385891798E+02  0.43733895362E+00  0.11103084022E+03  0.11346778697E+03  0.00000000000E+00 0. -1.
<scales pt_clust_5="13000.00000" pt_clust_6="13000.00000" pt_clust_7="13000.00000" pt_clust_8="13000.00000" pt_clust_9="23.38998"></scales>
<clustering>
<clus scale="   23.390">  1  9  2 -1</clus>
<clus scale="   92.019">  5  6 -1 -1</clus>
<clus scale="   97.141">  7  8 -1 -1</clus>
<clus scale="  161.485">  2  5  1 -1</clus>
<clus scale="   23.390">  1  5  2 -1</clus>
</clustering>
</event>
<event>
 9    1  0.1156080E-005  0.1242523E+03  0.7546771E-02  0.1236292E+00
         -2   -1    0    0    0  501 -0.00000000000E+00  0.00000000000E+00  0.26792515268E+03  0.26792515268E+03  0.00000000000E+00 0.  1.
          2   -1    0    0  502    0  0.00000000000E+00 -0.00000000000E+00 -0.27866103501E+03  0.27866103501E+03  0.00000000000E+00 0. -1.
         23    2    1    2    0    0 -0.87153496562E+02 -0.15264815859E+02  0.23114816697E+03  0.26281727419E+03  0.88400780255E+02 0.  0.
         23    2    1    2    0    0  0.72995129927E+02 -0.10190290548E+02 -0.21651867952E+03  0.24514477892E+03  0.88224106881E+02 0.  0.
        -11    1    3    3    0    0  0.88652274266E+01 -0.19735677080E+02  0.15196728990E+02  0.26439171302E+02  0.00000000000E+00 0. -1.
         11    1    3    3    0    0 -0.96018723989E+02  0.44708612204E+01  0.21595143798E+03  0.23637810289E+03  0.00000000000E+00 0.  1.
        -13    1    4    4    0    0  0.34830286995E+02  0.29817055597E+02 -0.42369743183E+02  0.62429166533E+02  0.00000000000E+00 0.  1.
         13    1    4    4    0    0  0.38164842931E+02 -0.40007346145E+02 -0.17414893634E+03  0.18271561239E+03  0.00000000000E+00 0. -1.
         21    1    1    2  502  501  0.14158366636E+02  0.25455106407E+02 -0.25365369785E+02  0.38624134583E+02  0.00000000000E+00 0.  1.
<scales pt_clust_5="13000.00000" pt_clust_6="13000.00000" pt_clust_7="13000.00000" pt_clust_8="13000.00000" pt_clust_9="29.12768"></scales>
<clustering>
<clus scale="   29.128">  2  9  1 -1</clus>
<clus scale="   88.224">  7  8 -1 -1</clus>
<clus scale="   88.401">  5  6 -1 -1</clus>
<clus scale="  124.127">  2  7  1 -1</clus>
<clus scale="   29.128">  2  5  1 -1</clus>
</clustering>
</event>
<event>
 9    1  0.9000149E-006  0.1839296E+03  0.7546771E-02  0.1164726E+00
         -1   -1    0    0    0  501 -0.00000000000E+00  0.00000000000E+00  0.97421397940E+02  0.97421397940E+02  0.00000000000E+00 0.  1.
          1   -1    0    0  502    0  0.00000000000E+00 -0.00000000000E+00 -0.47345353968E+03  0.47345353968E+03  0.00000000000E+00 0. -1.
         23    2    1    2    0    0  0.80462377071E+02  0.14711441698E+03 -0.83111092194E+02  0.21082276395E+03  0.97066669595E+02 0.  0.
         23    2    1    2    0    0 -0.73299385625E+02 -0.11833000971E+03 -0.18888737969E+03  0.25187243892E+03  0.91577792883E+02 0.  0.
        -13    1    4    4    0    0 -0.32255340602E+02 -0.12060308611E+03 -0.13197507477E+03  0.18166709041E+03  0.00000000000E+00 0.  1.
         13    1    4    4    0    0 -0.41044045023E+02  0.22730763991E+01 -0.56912304921E+02  0.70205348511E+02  0.00000000000E+00 0. -1.
        -13    1    3    3    0    0  0.36938987165E+02  0.19197231488E+02 -0.61083321446E+02  0.73920190939E+02  0.00000000000E+00 0.  1.
         13    1    3    3    0    0  0.43523389906E+02  0.12791718549E+03 -0.22027770748E+02  0.13690257301E+03  0.00000000000E+00 0. -1.
         21    1    1    2  502  501 -0.71629914462E+01 -0.28784407263E+02 -0.10403366986E+03  0.10817973475E+03  0.00000000000E+00 0.  1.
<scales pt_clust_5="13000.00000" pt_clust_6="13000.00000" pt_clust_7="13000.00000" pt_clust_8="13000.00000" pt_clust_9="29.66227"></scales>
<clustering>
<clus scale="   29.662">  2  9  1 -1</clus>
<clus scale="   91.578">  5  6 -1 -1</clus>
<clus scale="   97.067">  7  8 -1 -1</clus>
<clus scale="  181.093">  2  5  1 -1</clus>
<clus scale="   29.662">  2  5  1 -1</clus>
</clustering>
</event>
<event>
 9    1  0.9000149E-006  0.1029996E+03  0.7546771E-02  0.1274319E+00
          1   -1    0    0  502    0  0.00000000000E+00  0.00000000000E+00  0.38507065009E+03  0.38507065009E+03  0.00000000000E+00 0. -1.
         -1   -1    0    0    0  501 -0.00000000000E+00 -0.00000000000E+00 -0.41094210151E+02  0.41094210151E+02  0.00000000000E+00 0.  1.
         23    2    1    2    0    0 -0.44333925296E+02 -0.11672258088E+02  0.77881055303E+02  0.12836271126E+03  0.91158040380E+02 0.  0.
         23    2    1    2    0    0  0.39806590616E+02  0.34777175459E+02  0.18231922174E+03  0.21078043080E+03  0.91619183594E+02 0.  0.
        -11    1    3    3    0    0  0.17649336747E+02 -0.22951054464E+02  0.53455155328E+02  0.60792299017E+02  0.00000000000E+00 0. -1.
         11    1    3    3    0    0 -0.61983262043E+02  0.11278796376E+02  0.24425899975E+02  0.67570412243E+02  0.00000000000E+00 0.  1.
        -13    1    4    4    0    0 -0.17031063191E+02  0.32397320734E+02  0.12408920270E+03  0.12937454823E+03  0.00000000000E+00 0.  1.
         13    1    4    4    0    0  0.56837653808E+02  0.23798547245E+01  0.58230019047E+02  0.81405882570E+02  0.00000000000E+00 0. -1.
         21    1    1    2  502  501  0.45273346795E+01 -0.23104917371E+02  0.83776162898E+02  0.87021718185E+02  0.00000000000E+00 0.  1.
<scales pt_clust_5="13000.00000" pt_clust_6="13000.00000" pt_clust_7="13000.00000" pt_clust_8="13000.00000" pt_clust_9="23.54430"></scales>
<clustering>
<clus scale="   23.544">  1  9  2 -1</clus>
<clus scale="   91.158">  5  6 -1 -1</clus>
<clus scale="   91.619">  7  8 -1 -1</clus>
<clus scale="  102.590">  2  5  1 -1</clus>
<clus scale="   23.544">  1  5  2 -1</clus>
</clustering>
</event>
<event>
 9    1  0.9000149E-006  0.1120773E+03  0.7546771E-02  0.1258746E+00
         -1   -1    0    0    0  501 -0.00000000000E+00  0.00000000000E+00  0.53961030727E+02  0.53961030727E+02  0.00000000000E+00 0.  1.
          1   -1    0    0  502    0  0.00000000000E+00 -0.00000000000E+00 -0.31997507791E+03  0.31997507791E+03  0.00000000000E+00 0. -1.
         23    2    1    2    0    0  0.35713777640E+02 -0.14300923919E+02 -0.74680940827E+02  0.13309995809E+03  0.10323936063E+03 0.  0.
         23    2    1    2    0    0 -0.51795793756E+02  0.10606332438E+01 -0.10869415593E+03  0.15561213594E+03  0.98573769952E+02 0.  0.
        -11    1    4    4    0    0  0.16462961771E+02 -0.22185814783E+02 -0.31761666786E+01  0.27808767011E+02  0.00000000000E+00 0. -1.
         11    1    4    4    0    0 -0.68258755527E+02  0.23246448027E+02 -0.10551798926E+03  0.12780336893E+03  0.00000000000E+00 0.  1.
        -13    1    3    3    0    0  0.19456874667E+01 -0.41886811257E+02  0.50398268608E+01  0.42233760332E+02  0.00000000000E+00 0.  1.
         13    1    3    3    0    0  0.33768090173E+02  0.27585887338E+02 -0.79720767688E+02  0.90866197758E+02  0.00000000000E+00 0. -1.
         21    1    1    2  502  501  0.16082016117E+02  0.13240290675E+02 -0.82638950421E+02  0.85224014609E+02  0.00000000000E+00 0. -1.
<scales pt_clust_5="13000.00000" pt_clust_6="13000.00000" pt_clust_7="13000.00000" pt_clust_8="13000.00000" pt_clust_9="20.83114"></scales>
<clustering>
<clus scale="   20.831">  2  9  1 -1</clus>
<clus scale="   98.574">  5  6 -1 -1</clus>
<clus scale="  103.239">  7  8 -1 -1</clus>
<clus scale="  107.795">  2  5  1 -1</clus>
<clus scale="   20.831">  2  5  1 -1</clus>
</clustering>
</event>
<event>
 9    1  0.9000149E-006  0.1263436E+03  0.7546771E-02  0.1247351E+00
          1   -1    0    0  502    0  0.00000000000E+00  0.00000000000E+00  0.18186320760E+04  0.18186320760E+04  0.00000000000E+00 0. -1.
         -1   -1    0    0    0  501 -0.00000000000E+00 -0.00000000000E+00 -0.14018874321E+02  0.14018874321E+02  0.00000000000E+00 0.  1.
         23    2    1    2    0    0 -0.48293307343E+01  0.42927010109E+02  0.43176748400E+03  0.44196187741E+03  0.83911204331E+02 0.  0.
         23    2    1    2    0    0 -0.72394143173E+02  0.18713563580E+02  0.57397015971E+03  0.58572622757E+03  0.89679206094E+02 0.  0.
        -11    1    3    3    0    0 -0.73720571576E+01  0.66565292965E+02  0.36486630564E+03  0.37096186657E+03  0.00000000000E+00 0. -1.
         11    1    3    3    0    0  0.25427264233E+01 -0.23638282856E+02  0.66901178359E+02  0.71000010844E+02  0.00000000000E+00 0.  1.
        -13    1    4    4    0    0  0.19517654022E+02 -0.58597815328E+01  0.72438069178E+02  0.75249915112E+02  0.00000000000E+00 0.  1.
         13    1    4    4    0    0 -0.91911797195E+02  0.24573345113E+02  0.50153209053E+03  0.51047631246E+03  0.00000000000E+00 0. -1.
         21    1    1    2  502  501  0.77223473908E+02 -0.61640573689E+02  0.79887555795E+03  0.80496284532E+03  0.00000000000E+00 0.  1.
<scales pt_clust_5="13000.00000" pt_clust_6="13000.00000" pt_clust_7="13000.00000" pt_clust_8="13000.00000" pt_clust_9="88.99631"></scales>
<clustering>
<clus scale="   83.911">  5  6 -1 -1</clus>
<clus scale="   89.679">  7  8 -1 -1</clus>
<clus scale="   94.378">  2  5  1 -1</clus>
<clus scale="   88.996">  1  9  2 -1</clus>
<clus scale="   88.996">  1  5  2 -1</clus>
</clustering>
</event>
<event>
 9    1  0.9000149E-006  0.3600738E+03  0.7546771E-02  0.1058615E+00
         -2   -1    0    0    0  501 -0.00000000000E+00  0.00000000000E+00  0.11034294655E+03  0.11034294655E+03  0.00000000000E+00 0.  1.
          2   -1    0    0  502    0  0.00000000000E+00 -0.00000000000E+00 -0.13729715134E+04  0.13729715134E+04  0.00000000000E+00 0. -1.
         23    2    1    2    0    0 -0.35322528908E+03 -0.63380824681E+02 -0.45573744633E+03  0.58749120466E+03  0.93080942123E+02 0.  0.
         23    2    1    2    0    0  0.33114417397E+03  0.38775197434E+02 -0.65686186175E+03  0.74219451115E+03  0.90692927363E+02 0.  0.
        -11    1    4    4    0    0  0.23678430464E+02 -0.12536498588E+02 -0.21019768773E+02  0.34053818367E+02  0.00000000000E+00 0.  1.
         11    1    4    4    0    0  0.30746574350E+03  0.51311696022E+02 -0.63584209297E+03  0.70814069278E+03  0.00000000000E+00 0. -1.
        -13    1    3    3    0    0 -0.33943150093E+03 -0.46700827031E+02 -0.44905040101E+03  0.56483712141E+03  0.00000000000E+00 0.  1.
         13    1    3    3    0    0 -0.13793788144E+02 -0.16679997650E+02 -0.66870453164E+01  0.22654083252E+02  0.00000000000E+00 0. -1.
         21    1    1    2  502  501  0.22081115113E+02  0.24605627247E+02 -0.15002925877E+03  0.15362874414E+03  0.00000000000E+00 0. -1.
<scales pt_clust_5="13000.00000" pt_clust_6="13000.00000" pt_clust_7="13000.00000" pt_clust_8="13000.00000" pt_clust_9="33.06074"></scales>
<clustering>
<clus scale="   33.061">  2  9  1 -1</clus>
<clus scale="   90.693">  5  6 -1 -1</clus>
<clus scale="   93.081">  7  8 -1 -1</clus>
<clus scale="  359.464">  2  5  1 -1</clus>
<clus scale="   33.061">  2  5  1 -1</clus>
</clustering>
</event>
<event>
 9    1  0.9000149E-006  0.9479374E+02  0.7546771E-02  0.1292369E+00
          1   -1    0    0  502    0  0.00000000000E+00  0.00000000000E+00  0.18854334273E+03  0.18854334273E+03  0.00000000000E+00 0. -1.
         -1   -1    0    0    0  501 -0.00000000000E+00 -0.00000000000E+00 -0.18062118247E+03  0.18062118247E+03  0.00000000000E+00 0.  1.
         23    2    1    2    0    0  0.22537575871E+01 -0.30207678988E+02 -0.14431292343E+03  0.17256741842E+03  0.89642125908E+02 0.  0.
         23    2    1    2    0    0 -0.27912196260E+02  0.33240253760E+02  0.12472823494E+03  0.15885881438E+03  0.88289213072E+02 0.  0.
        -13    1    4    4    0    0 -0.55110166181E+02  0.36662506801E+02  0.63278540416E+02  0.91572067239E+02  0.00000000000E+00 0. -1.
         13    1    4    4    0    0  0.27197969921E+02 -0.34222530403E+01  0.61449694522E+02  0.67286747139E+02  0.00000000000E+00 0.  1.
        -13    1    3    3    0    0  0.41942429589E+02 -0.43627486540E+01 -0.96288617129E+02  0.10511754737E+03  0.00000000000E+00 0.  1.
         13    1    3    3    0    0 -0.39688672002E+02 -0.25844930334E+02 -0.48024306303E+02  0.67449871054E+02  0.00000000000E+00 0. -1.
         21    1    1    2  502  501  0.25658438673E+02 -0.30325747725E+01  0.27506848754E+02  0.37738292400E+02  0.00000000000E+00 0.  1.
<scales pt_clust_5="13000.00000" pt_clust_6="13000.00000" pt_clust_7="13000.00000" pt_clust_8="13000.00000" pt_clust_9="25.83703"></scales>
<clustering>
<clus scale="   25.837">  1  9  2 -1</clus>
<clus scale="   88.289">  5  6 -1 -1</clus>
<clus scale="   89.642">  7  8 -1 -1</clus>
<clus scale="   93.515">  1  5  2 -1</clus>
<clus scale="   25.837">  1  5  2 -1</clus>
</clustering>
</event>
<event>
 9    1  0.9000149E-006  0.9504035E+02  0.7546771E-02  0.1291761E+00
          1   -1    0    0  502    0  0.00000000000E+00  0.00000000000E+00  0.24305600950E+03  0.24305600950E+03  0.00000000000E+00 0. -1.
         -1   -1    0    0    0  501 -0.00000000000E+00 -0.00000000000E+00 -0.10484382326E+03  0.10484382326E+03  0.00000000000E+00 0.  1.
         23    2    1    2    0    0 -0.14748705325E+02  0.13674366613E+02 -0.47722202868E+02  0.10454970355E+03  0.90822460079E+02 0.  0.
         23    2    1    2    0    0  0.53678941325E+02  0.11732265340E+02  0.10527353673E+03  0.15025215218E+03  0.92054966764E+02 0.  0.
        -13    1    4    4    0    0  0.36937092838E+02  0.50777038789E+02  0.48483191888E+02  0.79330173271E+02  0.00000000000E+00 0.  1.
         13    1    4    4    0    0  0.16741848487E+02 -0.39044773449E+02  0.56790344842E+02  0.70921978904E+02  0.00000000000E+00 0. -1.
        -13    1    3    3    0    0 -0.61564472983E+01  0.50297217533E+02 -0.43338482450E+02  0.66677852365E+02  0.00000000000E+00 0.  1.
         13    1    3    3    0    0 -0.85922580263E+01 -0.36622850920E+02 -0.43837204175E+01  0.37871851185E+02  0.00000000000E+00 0. -1.
         21    1    1    2  502  501 -0.38930236001E+02 -0.25406631953E+02  0.80660852378E+02  0.93097977038E+02  0.00000000000E+00 0. -1.
<scales pt_clust_5="13000.00000" pt_clust_6="13000.00000" pt_clust_7="13000.00000" pt_clust_8="13000.00000" pt_clust_9="46.48720"></scales>
<clustering>
<clus scale="   46.487">  1  9  2 -1</clus>
<clus scale="   90.822">  7  8 -1 -1</clus>
<clus scale="   92.055">  5  6 -1 -1</clus>
<clus scale="   93.847">  2  7  1 -1</clus>
<clus scale="   46.487">  1  5  2 -1</clus>
</clustering>
</event>
<event>
 9    1  0.9000149E-006  0.9973168E+02  0.7546771E-02  0.1282405E+00
         -1   -1    0    0    0  501 -0.00000000000E+00  0.00000000000E+00  0.39763583390E+03  0.39763583390E+03  0.00000000000E+00 0.  1.
          1   -1    0    0  502    0  0.00000000000E+00 -0.00000000000E+00 -0.46396778652E+02  0.46396778652E+02  0.00000000000E+00 0. -1.
         23    2    1    2    0    0 -0.20665367262E+02  0.41897095178E+02  0.22497203821E+03  0.24777338783E+03  0.92718982704E+02 0.  0.
         23    2    1    2    0    0  0.15490771267E+02 -0.19512761661E+02  0.14103728941E+03  0.16894630146E+03  0.89613748436E+02 0.  0.
        -11    1    3    3    0    0  0.20496803428E+02  0.20245983566E+00  0.63833204740E+01  0.21468738226E+02  0.00000000000E+00 0. -1.
         11    1    3    3    0    0 -0.41162170691E+02  0.41694635343E+02  0.21858871774E+03  0.22630464961E+03  0.00000000000E+00 0.  1.
        -13    1    4    4    0    0 -0.10015362396E+02  0.31550469712E+02  0.32908093080E+02  0.46676356040E+02  0.00000000000E+00 0.  1.
         13    1    4    4    0    0  0.25506133663E+02 -0.51063231373E+02  0.10812919633E+03  0.12226994542E+03  0.00000000000E+00 0. -1.
         21    1    1    2  502  501  0.51745959959E+01 -0.22384333518E+02 -0.14770272378E+02  0.27312923258E+02  0.00000000000E+00 0. -1.
<scales pt_clust_5="13000.00000" pt_clust_6="13000.00000" pt_clust_7="13000.00000" pt_clust_8="13000.00000" pt_clust_9="22.97466"></scales>
<clustering>
<clus scale="   22.975">  2  9  1 -1</clus>
<clus scale="   89.614">  7  8 -1 -1</clus>
<clus scale="   92.719">  5  6 -1 -1</clus>
<clus scale="   96.852">  2  7  1 -1</clus>
<clus scale="   22.975">  2  5  1 -1</clus>
</clustering>
</event>
<event>
 9    1  0.9000149E-006  0.9554007E+02  0.7546771E-02  0.1290141E+00
          1   -1    0    0  502    0  0.00000000000E+00  0.00000000000E+00  0.44564838069E+03  0.44564838069E+03  0.00000000000E+00 0. -1.
         -1   -1    0    0    0  501 -0.00000000000E+00 -0.00000000000E+00 -0.37707620036E+02  0.37707620036E+02  0.00000000000E+00 0.  1.
         23    2    1    2    0    0 -0.20943223977E+02 -0.15881518030E+02  0.54258056543E+02  0.10902871908E+03  0.90843181577E+02 0.  0.
         23    2    1    2    0    0  0.18670976395E+02  0.35900700553E+02  0.31883239444E+03  0.33407215946E+03  0.91173715085E+02 0.  0.
        -11    1    4    4    0    0  0.20902482572E+02 -0.16812011453E+02  0.29108770652E+02  0.39583810272E+02  0.00000000000E+00 0.  1.
         11    1    4    4    0    0 -0.22315061766E+01  0.52712712006E+02  0.28972362379E+03  0.29448834919E+03  0.00000000000E+00 0. -1.
        -11    1    3    3    0    0 -0.19453029060E+02  0.32414245178E+02  0.20010363655E+01  0.37856409980E+02  0.00000000000E+00 0. -1.
         11    1    3    3    0    0 -0.14901949178E+01 -0.48295763208E+02  0.52257020177E+02  0.71172309100E+02  0.00000000000E+00 0.  1.
         21    1    1    2  502  501  0.22722475822E+01 -0.20019182523E+02  0.34850309670E+02  0.40255122184E+02  0.00000000000E+00 0.  1.
<scales pt_clust_5="13000.00000" pt_clust_6="13000.00000" pt_clust_7="13000.00000" pt_clust_8="13000.00000" pt_clust_9="20.14772"></scales>
<clustering>
<clus scale="   20.148">  1  9  2 -1</clus>
<clus scale="   90.843">  7  8 -1 -1</clus>
<clus scale="   91.174">  5  6 -1 -1</clus>
<clus scale="   95.225">  2  7  1 -1</clus>
<clus scale="   20.148">  1  5  2 -1</clus>
</clustering>
</event>
<event>
 9    1  0.9000149E-006  0.2668662E+03  0.7546771E-02  0.1103269E+00
          2   -1    0    0  502    0  0.00000000000E+00  0.00000000000E+00  0.19544500442E+04  0.19544500442E+04  0.00000000000E+00 0. -1.
         -2   -1    0    0    0  501 -0.00000000000E+00 -0.00000000000E+00 -0.55217359888E+02  0.55217359888E+02  0.00000000000E+00 0.  1.
         23    2    1    2    0    0  0.19697312105E+03  0.17118427927E+03  0.44396614887E+03  0.52285584408E+03  0.90387081259E+02 0.  0.
         23    2    1    2    0    0 -0.14424647635E+03 -0.18081948299E+03  0.10901002915E+04  0.11177325415E+04  0.86629425550E+02 0.  0.
        -11    1    3    3    0    0  0.10417364203E+01  0.30234421328E+02  0.24598183265E+02  0.38990717713E+02  0.00000000000E+00 0.  1.
         11    1    3    3    0    0  0.19593138463E+03  0.14094985794E+03  0.41936796561E+03  0.48386512637E+03  0.00000000000E+00 0. -1.
        -13    1    4    4    0    0 -0.39710532008E+02 -0.11747578881E+03  0.59278318998E+03  0.60561489218E+03  0.00000000000E+00 0.  1.
         13    1    4    4    0    0 -0.10453594434E+03 -0.63343694178E+02  0.49731710154E+03  0.51211764931E+03  0.00000000000E+00 0. -1.
         21    1    1    2  502  501 -0.52726644695E+02  0.96352037125E+01  0.36516624389E+03  0.36907901849E+03  0.00000000000E+00 0.  1.
<scales pt_clust_5="13000.00000" pt_clust_6="13000.00000" pt_clust_7="13000.00000" pt_clust_8="13000.00000" pt_clust_9="53.59978"></scales>
<clustering>
<clus scale="   53.600">  1  9  2 -1</clus>
<clus scale="   86.629">  7  8 -1 -1</clus>
<clus scale="   90.387">  5  6 -1 -1</clus>
<clus scale="  265.617">  1  7  2 -1</clus>
<clus scale="   53.600">  1  5  2 -1</clus>
</clustering>
</event>
<event>
 9    1  0.9000149E-006  0.1437714E+03  0.7546771E-02  0.1208763E+00
          1   -1    0    0  502    0  0.00000000000E+00  0.00000000000E+00  0.31781559989E+03  0.31781559989E+03  0.00000000000E+00 0. -1.
         -1   -1    0    0    0  501 -0.00000000000E+00 -0.00000000000E+00 -0.15429330291E+03  0.15429330291E+03  0.00000000000E+00 0.  1.
         23    2    1    2    0    0 -0.15177488455E+03  0.85824878139E+02  0.43134595255E+02  0.20131216217E+03  0.90909119698E+02 0.  0.
         23    2    1    2    0    0  0.92214679958E+02  0.14543215676E+01  0.10159914630E+03  0.16347439213E+03  0.88858472306E+02 0.  0.
        -11    1    4    4    0    0  0.70826137176E+02 -0.18088791710E+02  0.18406762125E+02  0.75381396808E+02  0.00000000000E+00 0. -1.
         11    1    4    4    0    0  0.21388542782E+02  0.19543113277E+02  0.83192384180E+02  0.88092995320E+02  0.00000000000E+00 0.  1.
        -11    1    3    3    0    0 -0.18305104195E+02  0.92456482397E+01  0.42771048537E+02  0.47433336842E+02  0.00000000000E+00 0. -1.
         11    1    3    3    0    0 -0.13346978035E+03  0.76579229899E+02  0.36354671741E+00  0.15387882533E+03  0.00000000000E+00 0.  1.
         21    1    1    2  502  501  0.59560204588E+02 -0.87279199706E+02  0.18788555427E+02  0.10732234850E+03  0.00000000000E+00 0. -1.
<scales pt_clust_5="13000.00000" pt_clust_6="13000.00000" pt_clust_7="13000.00000" pt_clust_8="13000.00000" pt_clust_9="105.66493"></scales>
<clustering>
<clus scale="   88.858">  5  6 -1 -1</clus>
<clus scale="   90.909">  7  8 -1 -1</clus>
<clus scale="  105.665">  2  9  1 -1</clus>
<clus scale="  142.484">  1  5  2 -1</clus>
<clus scale="  142.484">  1  5  2 -1</clus>
</clustering>
</event>
<event>
 9    1  0.9000149E-006  0.1135493E+03  0.7546771E-02  0.1254254E+00
         -1   -1    0    0    0  501 -0.00000000000E+00  0.00000000000E+00  0.22722531387E+03  0.22722531387E+03  0.00000000000E+00 0.  1.
          1   -1    0    0  502    0  0.00000000000E+00 -0.00000000000E+00 -0.81139763683E+02  0.81139763683E+02  0.00000000000E+00 0. -1.
         23    2    1    2    0    0  0.62457409858E+02 -0.17755706991E+01  0.86050881368E+02  0.14056235353E+03  0.91918117628E+02 0.  0.
         23    2    1    2    0    0 -0.67709754803E+02  0.37525440351E+02  0.52411292141E+02  0.13087365445E+03  0.91587118722E+02 0.  0.
        -13    1    3    3    0    0  0.22999927333E+02  0.72312772240E+01 -0.17230571267E+02  0.29634112333E+02  0.00000000000E+00 0. -1.
         13    1    3    3    0    0  0.39457482525E+02 -0.90068479231E+01  0.10328145263E+03  0.11092824120E+03  0.00000000000E+00 0.  1.
        -13    1    4    4    0    0  0.23287925993E+01 -0.21884834130E+02  0.28428114296E+02  0.35951730449E+02  0.00000000000E+00 0.  1.
         13    1    4    4    0    0 -0.70038547403E+02  0.59410274481E+02  0.23983177845E+02  0.94921923999E+02  0.00000000000E+00 0. -1.
         21    1    1    2  502  501  0.52523449455E+01 -0.35749869652E+02  0.76233766768E+01  0.36929069573E+02  0.00000000000E+00 0.  1.
<scales pt_clust_5="13000.00000" pt_clust_6="13000.00000" pt_clust_7="13000.00000" pt_clust_8="13000.00000" pt_clust_9="36.13365"></scales>
<clustering>
<clus scale="   36.134">  2  9  1 -1</clus>
<clus scale="   91.587">  7  8 -1 -1</clus>
<clus scale="   91.918">  5  6 -1 -1</clus>
<clus scale="  113.282">  2  7  1 -1</clus>
<clus scale="   36.134">  2  5  1 -1</clus>
</clustering>
</event>
<event>
 9    1  0.9000149E-006  0.1025628E+03  0.7546771E-02  0.1275412E+00
          2   -1    0    0  502    0  0.00000000000E+00  0.00000000000E+00  0.13371316535E+03  0.13371316535E+03  0.00000000000E+00 0. -1.
         -2   -1    0    0    0  501 -0.00000000000E+00 -0.00000000000E+00 -0.17041886372E+03  0.17041886372E+03  0.00000000000E+00 0.  1.
         23    2    1    2    0    0 -0.23346972920E+02 -0.42893778518E+02 -0.11636611372E+03  0.15532690981E+03  0.90556165484E+02 0.  0.
         23    2    1    2    0    0  0.29182690141E+02  0.21739695487E+02  0.80013834457E+02  0.12685800717E+03  0.91468554792E+02 0.  0.
        -11    1    4    4    0    0  0.26475918944E+02 -0.86948502140E+01 -0.11673647852E+02  0.30213387072E+02  0.00000000000E+00 0.  1.
         11    1    4    4    0    0  0.27067711961E+01  0.30434545701E+02  0.91687482309E+02  0.96644620101E+02  0.00000000000E+00 0. -1.
        -13    1    3    3    0    0  0.31881009699E+02 -0.22541363057E+02 -0.70947169651E+02  0.80981557835E+02  0.00000000000E+00 0. -1.
         13    1    3    3    0    0 -0.55227982619E+02 -0.20352415461E+02 -0.45418944072E+02  0.74345351972E+02  0.00000000000E+00 0.  1.
         21    1    1    2  502  501 -0.58357172208E+01  0.21154083031E+02 -0.35341910579E+00  0.21947112098E+02  0.00000000000E+00 0. -1.
<scales pt_clust_5="13000.00000" pt_clust_6="13000.00000" pt_clust_7="13000.00000" pt_clust_8="13000.00000" pt_clust_9="21.94427"></scales>
<clustering>
<clus scale="   21.944">  1  9  2 -1</clus>
<clus scale="   90.556">  7  8 -1 -1</clus>
<clus scale="   91.469">  5  6 -1 -1</clus>
<clus scale="  101.750">  2  7  1 -1</clus>
<clus scale="   21.944">  1  5  2 -1</clus>
</clustering>
</event>
<event>
 9    1  0.9000149E-006  0.1323300E+03  0.7546771E-02  0.1232506E+00
         -1   -1    0    0    0  501 -0.00000000000E+00  0.00000000000E+00  0.16900344677E+03  0.16900344677E+03  0.00000000000E+00 0.  1.
          1   -1    0    0  502    0  0.00000000000E+00 -0.00000000000E+00 -0.19076742580E+03  0.19076742580E+03  0.00000000000E+00 0. -1.
         23    2    1    2    0    0 -0.38945879806E+02 -0.19452068487E+02  0.77790508015E+02  0.12698857693E+03  0.90440980822E+02 0.  0.
         23    2    1    2    0    0  0.70440693181E+02 -0.25561750223E+02 -0.11070958687E+03  0.17672336775E+03  0.11558218614E+03 0.  0.
        -11    1    4    4    0    0  0.42269853692E+02 -0.71354384994E+02 -0.77626806799E+02  0.11359625840E+03  0.00000000000E+00 0. -1.
         11    1    4    4    0    0  0.28170839488E+02  0.45792634771E+02 -0.33082780072E+02  0.63127109344E+02  0.00000000000E+00 0.  1.
        -11    1    3    3    0    0 -0.26928350806E+02 -0.54674068919E+02  0.35009115803E+02  0.70285333310E+02  0.00000000000E+00 0.  1.
         11    1    3    3    0    0 -0.12017528999E+02  0.35222000432E+02  0.42781392213E+02  0.56703243623E+02  0.00000000000E+00 0. -1.
         21    1    1    2  502  501 -0.31494813375E+02  0.45013818710E+02  0.11155099826E+02  0.56058927893E+02  0.00000000000E+00 0.  1.
<scales pt_clust_5="13000.00000" pt_clust_6="13000.00000" pt_clust_7="13000.00000" pt_clust_8="13000.00000" pt_clust_9="54.93785"></scales>
<clustering>
<clus scale="   54.938">  1  9  2 -1</clus>
<clus scale="   90.441">  7  8 -1 -1</clus>
<clus scale="  111.048">  1  7  2 -1</clus>
<clus scale="  115.582">  5  6 -1 -1</clus>
<clus scale="  132.330">  2  5  1 -1</clus>
</clustering>
</event>
<event>
 9    1  0.9000149E-006  0.1034582E+03  0.7546771E-02  0.1278830E+00
         -3   -1    0    0    0  501 -0.00000000000E+00  0.00000000000E+00  0.37115995192E+03  0.37115995192E+03  0.00000000000E+00 0.  1.
          3   -1    0    0  502    0  0.00000000000E+00 -0.00000000000E+00 -0.34771031908E+02  0.34771031908E+02  0.00000000000E+00 0. -1.
         23    2    1    2    0    0  0.13721400419E+02 -0.16510985793E+02  0.19082389493E+03  0.21663306054E+03  0.10027579249E+03 0.  0.
         23    2    1    2    0    0 -0.33597289976E+02  0.53753414763E+01  0.13138235341E+03  0.16246134870E+03  0.89301146932E+02 0.  0.
        -13    1    3    3    0    0  0.19371137066E+01  0.28649695318E+02  0.10835057417E+02  0.30691300405E+02  0.00000000000E+00 0. -1.
         13    1    3    3    0    0  0.11784286712E+02 -0.45160681111E+02  0.17998883752E+03  0.18594176013E+03  0.00000000000E+00 0.  1.
        -13    1    4    4    0    0 -0.19958567180E+02 -0.20406531555E+02  0.13017659166E+03  0.13326933612E+03  0.00000000000E+00 0.  1.
         13    1    4    4    0    0 -0.13638722796E+02  0.25781873032E+02  0.12057617440E+01  0.29192012571E+02  0.00000000000E+00 0. -1.
         21    1    1    2  502  501  0.19875889557E+02  0.11135644317E+02  0.14182671670E+02  0.26836574590E+02  0.00000000000E+00 0. -1.
<scales pt_clust_5="13000.00000" pt_clust_6="13000.00000" pt_clust_7="13000.00000" pt_clust_8="13000.00000" pt_clust_9="22.78275"></scales>
<clustering>
<clus scale="   22.783">  2  9  1 -1</clus>
<clus scale="   89.301">  7  8 -1 -1</clus>
<clus scale="   92.860">  2  7  1 -1</clus>
<clus scale="  100.276">  5  6 -1 -1</clus>
<clus scale="   22.783">  2  5  1 -1</clus>
</clustering>
</event>
<event>
 9    1  0.9000149E-006  0.1382702E+03  0.7546771E-02  0.1218278E+00
          1   -1    0    0  502    0  0.00000000000E+00  0.00000000000E+00  0.23404414107E+03  0.23404414107E+03  0.00000000000E+00 0. -1.
         -1   -1    0    0    0  501 -0.00000000000E+00 -0.00000000000E+00 -0.30007822034E+03  0.30007822034E+03  0.00000000000E+00 0.  1.
         23    2    1    2    0    0 -0.47469597952E+02 -0.94100470937E+02 -0.25478095334E+03  0.29176758539E+03  0.95429179710E+02 0.  0.
         23    2    1    2    0    0  0.34857989958E+02  0.46126118947E+02  0.13193051543E+03  0.16693137306E+03  0.84366605331E+02 0.  0.
        -11    1    3    3    0    0 -0.31356558943E+02 -0.27426855491E+01 -0.14339973876E+03  0.14681362740E+03  0.00000000000E+00 0.  1.
         11    1    3    3    0    0 -0.16113039009E+02 -0.91357785387E+02 -0.11138121458E+03  0.14495395799E+03  0.00000000000E+00 0. -1.
        -11    1    4    4    0    0 -0.44292763254E+00  0.57107023974E+02  0.11001469275E+03  0.12395418909E+03  0.00000000000E+00 0. -1.
         11    1    4    4    0    0  0.35300917591E+02 -0.10980905027E+02  0.21915822688E+02  0.42977183970E+02  0.00000000000E+00 0.  1.
         21    1    1    2  502  501  0.12611607994E+02  0.47974351990E+02  0.56816358636E+02  0.75423402958E+02  0.00000000000E+00 0. -1.
<scales pt_clust_5="13000.00000" pt_clust_6="13000.00000" pt_clust_7="13000.00000" pt_clust_8="13000.00000" pt_clust_9="49.60435"></scales>
<clustering>
<clus scale="   49.604">  1  9  2 -1</clus>
<clus scale="   84.367">  7  8 -1 -1</clus>
<clus scale="   95.429">  5  6 -1 -1</clus>
<clus scale="  130.880">  1  7  2 -1</clus>
<clus scale="   49.604">  1  5  2 -1</clus>
</clustering>
</event>
<event>
 9    1  0.9000149E-006  0.1174728E+03  0.7546771E-02  0.1257277E+00
          1   -1    0    0  502    0  0.00000000000E+00  0.00000000000E+00  0.12876365138E+03  0.12876365138E+03  0.00000000000E+00 0. -1.
         -1   -1    0    0    0  501 -0.00000000000E+00 -0.00000000000E+00 -0.23853848534E+03  0.23853848534E+03  0.00000000000E+00 0.  1.
         23    2    1    2    0    0 -0.16211694189E+02  0.23355752375E+02 -0.18563483497E+03  0.20933946545E+03  0.92490051588E+02 0.  0.
         23    2    1    2    0    0  0.22101104591E+02 -0.39228757635E+01  0.54922748474E+02  0.12879607407E+03  0.11431567092E+03 0.  0.
        -11    1    4    4    0    0 -0.17300884690E+02  0.45031731557E+02  0.43433889717E+02  0.64912866475E+02  0.00000000000E+00 0.  1.
         11    1    4    4    0    0  0.39401989281E+02 -0.48954607320E+02  0.11488858757E+02  0.63883207596E+02  0.00000000000E+00 0. -1.
        -13    1    3    3    0    0 -0.39601328775E+02  0.19301874091E+02 -0.17949174285E+03  0.18481913683E+03  0.00000000000E+00 0.  1.
         13    1    3    3    0    0  0.23389634586E+02  0.40538782842E+01 -0.61430921204E+01  0.24520328627E+02  0.00000000000E+00 0. -1.
         21    1    1    2  502  501 -0.58894104020E+01 -0.19432876612E+02  0.20937252544E+02  0.29166597203E+02  0.00000000000E+00 0. -1.
<scales pt_clust_5="13000.00000" pt_clust_6="13000.00000" pt_clust_7="13000.00000" pt_clust_8="13000.00000" pt_clust_9="20.30571"></scales>
<clustering>
<clus scale="   20.306">  1  9  2 -1</clus>
<clus scale="   92.490">  7  8 -1 -1</clus>
<clus scale="   96.365">  2  7  1 -1</clus>
<clus scale="  114.316">  5  6 -1 -1</clus>
<clus scale="   20.306">  1  5  2 -1</clus>
</clustering>
</event>
<event>
 9    1  0.9000149E-006  0.1641050E+03  0.7546771E-02  0.1184395E+00
         -1   -1    0    0    0  501 -0.00000000000E+00  0.00000000000E+00  0.34257922311E+03  0.34257922311E+03  0.00000000000E+00 0.  1.
          1   -1    0    0  502    0  0.00000000000E+00 -0.00000000000E+00 -0.15815240947E+03  0.15815240947E+03  0.00000000000E+00 0. -1.
         23    2    1    2    0    0  0.12261634617E+03 -0.40177999243E+02  0.20943514818E+03  0.26249995320E+03  0.91619343846E+02 0.  0.
         23    2    1    2    0    0 -0.15557094059E+03  0.63593536523E+02 -0.40618500888E+02  0.19489612847E+03  0.89934325132E+02 0.  0.
        -11    1    3    3    0    0  0.12006071699E+03 -0.43968528875E+01  0.14107958086E+03  0.18530341662E+03  0.00000000000E+00 0.  1.
         11    1    3    3    0    0  0.25556291801E+01 -0.35781146356E+02  0.68355567325E+02  0.77196536576E+02  0.00000000000E+00 0. -1.
        -11    1    4    4    0    0 -0.70782760095E+02  0.53653682809E+02 -0.60215147321E+02  0.10730694652E+03  0.00000000000E+00 0. -1.
         11    1    4    4    0    0 -0.84788180492E+02  0.99398537136E+01  0.19596646433E+02  0.87589181948E+02  0.00000000000E+00 0.  1.
         21    1    1    2  502  501  0.32954594422E+02 -0.23415537280E+02  0.15610166349E+02  0.43335550914E+02  0.00000000000E+00 0.  1.
<scales pt_clust_5="13000.00000" pt_clust_6="13000.00000" pt_clust_7="13000.00000" pt_clust_8="13000.00000" pt_clust_9="40.42639"></scales>
<clustering>
<clus scale="   40.426">  2  9  1 -1</clus>
<clus scale="   89.934">  7  8 -1 -1</clus>
<clus scale="   91.619">  5  6 -1 -1</clus>
<clus scale="  163.170">  2  7  1 -1</clus>
<clus scale="   40.426">  2  5  1 -1</clus>
</clustering>
</event>
<event>
 9    1  0.9000149E-006  0.9474970E+02  0.7546771E-02  0.1293613E+00
          1   -1    0    0  502    0  0.00000000000E+00  0.00000000000E+00  0.55354530750E+03  0.55354530750E+03  0.00000000000E+00 0. -1.
         -1   -1    0    0    0  501 -0.00000000000E+00 -0.00000000000E+00 -0.11226366292E+03  0.11226366292E+03  0.00000000000E+00 0.  1.
         23    2    1    2    0    0 -0.17352559634E+02 -0.36889881823E+02 -0.73706095305E+02  0.12375685329E+03  0.90670808661E+02 0.  0.
         23    2    1    2    0    0  0.82580821767E+01  0.74456563169E+01  0.49791306095E+03  0.50682121314E+03  0.93950476857E+02 0.  0.
        -11    1    3    3    0    0  0.67565966041E+01  0.26829351556E+02 -0.37512531148E+02  0.46611754910E+02  0.00000000000E+00 0.  1.
         11    1    3    3    0    0 -0.24109156238E+02 -0.63719233380E+02 -0.36193564157E+02  0.77145098376E+02  0.00000000000E+00 0. -1.
        -11    1    4    4    0    0 -0.42623316199E+02  0.24385314149E+01  0.19447902894E+03  0.19910998522E+03  0.00000000000E+00 0.  1.
         11    1    4    4    0    0  0.50881398376E+02  0.50071249021E+01  0.30343403202E+03  0.30771122792E+03  0.00000000000E+00 0. -1.
         21    1    1    2  502  501  0.90944774576E+01  0.29444225506E+02  0.17074678925E+02  0.35230903995E+02  0.00000000000E+00 0. -1.
<scales pt_clust_5="13000.00000" pt_clust_6="13000.00000" pt_clust_7="13000.00000" pt_clust_8="13000.00000" pt_clust_9="30.81675"></scales>
<clustering>
<clus scale="   30.817">  2  9  1 -1</clus>
<clus scale="   90.671">  5  6 -1 -1</clus>
<clus scale="   91.499">  2  5  1 -1</clus>
<clus scale="   93.950">  7  8 -1 -1</clus>
<clus scale="   94.750">  1  5  2 -1</clus>
</clustering>
</event>
<event>
 9    1  0.9000149E-006  0.1261008E+03  0.7546771E-02  0.1233910E+00
          2   -1    0    0  502    0  0.00000000000E+00  0.00000000000E+00  0.90627733321E+03  0.90627733321E+03  0.00000000000E+00 0. -1.
         -2   -1    0    0    0  501 -0.00000000000E+00 -0.00000000000E+00 -0.28194313124E+02  0.28194313124E+02  0.00000000000E+00 0.  1.
         23    2    1    2    0    0 -0.90818025536E+01  0.94383232435E+02  0.19178757902E+03  0.23213800285E+03  0.90082757483E+02 0.  0.
         23    2    1    2    0    0 -0.11873895530E+02 -0.65658570956E+02  0.52127257077E+03  0.53352370546E+03  0.92034851598E+02 0.  0.
        -11    1    3    3    0    0 -0.26347265277E+02  0.49645619231E+02  0.17076916553E+03  0.17978034873E+03  0.00000000000E+00 0. -1.
         11    1    3    3    0    0  0.17265462723E+02  0.44737613204E+02  0.21018413495E+02  0.52357654112E+02  0.00000000000E+00 0.  1.
        -11    1    4    4    0    0 -0.39269941415E+02  0.17247878019E+01  0.22809828166E+03  0.23146042704E+03  0.00000000000E+00 0.  1.
         11    1    4    4    0    0  0.27396045885E+02 -0.67383358758E+02  0.29317428912E+03  0.30206327841E+03  0.00000000000E+00 0. -1.
         21    1    1    2  502  501  0.20955698084E+02 -0.28724661479E+02  0.16502287029E+03  0.16880993803E+03  0.00000000000E+00 0. -1.
<scales pt_clust_5="13000.00000" pt_clust_6="13000.00000" pt_clust_7="13000.00000" pt_clust_8="13000.00000" pt_clust_9="35.55626"></scales>
<clustering>
<clus scale="   35.556">  1  9  2 -1</clus>
<clus scale="   90.083">  5  6 -1 -1</clus>
<clus scale="   92.035">  7  8 -1 -1</clus>
<clus scale="  124.683">  2  5  1 -1</clus>
<clus scale="   35.556">  1  5  2 -1</clus>
</clustering>
</event>
<event>
 9    1  0.9000149E-006  0.9607603E+02  0.7546771E-02  0.1289913E+00
         -1   -1    0    0    0  501 -0.00000000000E+00  0.00000000000E+00  0.26748819021E+03  0.26748819021E+03  0.00000000000E+00 0.  1.
          1   -1    0    0  502    0  0.00000000000E+00 -0.00000000000E+00 -0.18073741794E+03  0.18073741794E+03  0.00000000000E+00 0. -1.
         23    2    1    2    0    0 -0.28720342760E+02  0.15650929460E+01  0.23825332379E+03  0.25700217277E+03  0.91968271191E+02 0.  0.
         23    2    1    2    0    0  0.12079541568E+02 -0.18875725753E+02 -0.12294984038E+03  0.15391617622E+03  0.89840512606E+02 0.  0.
        -13    1    3    3    0    0 -0.40121998540E+02  0.26953391344E+02  0.21607480749E+03  0.22141495546E+03  0.00000000000E+00 0.  1.
         13    1    3    3    0    0  0.11401655780E+02 -0.25388298398E+02  0.22178516302E+02  0.35587217304E+02  0.00000000000E+00 0. -1.
        -13    1    4    4    0    0  0.38003372640E+02 -0.93873542259E+01 -0.11991671960E+03  0.12614435537E+03  0.00000000000E+00 0. -1.
         13    1    4    4    0    0 -0.25923831072E+02 -0.94883715273E+01 -0.30331207784E+01  0.27771820850E+02  0.00000000000E+00 0.  1.
         21    1    1    2  502  501  0.16640801192E+02  0.17310632807E+02 -0.28552711145E+02  0.37307259163E+02  0.00000000000E+00 0.  1.
<scales pt_clust_5="13000.00000" pt_clust_6="13000.00000" pt_clust_7="13000.00000" pt_clust_8="13000.00000" pt_clust_9="24.01196"></scales>
<clustering>
<clus scale="   24.012">  2  9  1 -1</clus>
<clus scale="   89.841">  7  8 -1 -1</clus>
<clus scale="   91.968">  5  6 -1 -1</clus>
<clus scale="   94.041">  2  7  1 -1</clus>
<clus scale="   24.012">  2  5  1 -1</clus>
</clustering>
</event>
<event>
 9    1  0.9000149E-006  0.1287767E+03  0.7546771E-02  0.1229877E+00
         -1   -1    0    0    0  501 -0.00000000000E+00  0.00000000000E+00  0.97020343006E+03  0.97020343006E+03  0.00000000000E+00 0.  1.
          1   -1    0    0  502    0  0.00000000000E+00 -0.00000000000E+00 -0.59113072405E+02  0.59113072405E+02  0.00000000000E+00 0. -1.
         23    2    1    2    0    0  0.26146102655E+02 -0.12305358723E+03  0.66776716899E+03  0.68566577826E+03  0.91644767891E+02 0.  0.
         23    2    1    2    0    0  0.13105620227E+02  0.50636625641E+02  0.23978206105E+03  0.26120405259E+03  0.89422005973E+02 0.  0.
        -11    1    4    4    0    0 -0.69666920016E+01 -0.24551820709E+02  0.67389984589E+02  0.72060646128E+02  0.00000000000E+00 0. -1.
         11    1    4    4    0    0  0.20072312228E+02  0.75188446350E+02  0.17239207646E+03  0.18914340646E+03  0.00000000000E+00 0.  1.
        -13    1    3    3    0    0  0.47491829763E+02 -0.12547276883E+03  0.57530803015E+03  0.59074378470E+03  0.00000000000E+00 0. -1.
         13    1    3    3    0    0 -0.21345727107E+02  0.24191816031E+01  0.92459138843E+02  0.94921993558E+02  0.00000000000E+00 0.  1.
         21    1    1    2  502  501 -0.39251722882E+02  0.72416961591E+02  0.35411276177E+01  0.82446671613E+02  0.00000000000E+00 0.  1.
<scales pt_clust_5="13000.00000" pt_clust_6="13000.00000" pt_clust_7="13000.00000" pt_clust_8="13000.00000" pt_clust_9="82.37059"></scales>
<clustering>
<clus scale="   82.371">  2  9  1 -1</clus>
<clus scale="   89.422">  5  6 -1 -1</clus>
<clus scale="   91.645">  7  8 -1 -1</clus>
<clus scale="  127.204">  2  5  1 -1</clus>
<clus scale="   82.371">  2  5  1 -1</clus>
</clustering>
</event>
<event>
 9    1  0.9000149E-006  0.9225409E+02  0.7546771E-02  0.1299661E+00
          1   -1    0    0  502    0  0.00000000000E+00  0.00000000000E+00  0.17105388667E+03  0.17105388667E+03  0.00000000000E+00 0. -1.
         -1   -1    0    0    0  501 -0.00000000000E+00 -0.00000000000E+00 -0.21472265869E+03  0.21472265869E+03  0.00000000000E+00 0.  1.
         23    2    1    2    0    0  0.21393657485E+01 -0.10476125879E+02 -0.16494450243E+03  0.18705530139E+03  0.87570947217E+02 0.  0.
         23    2    1    2    0    0 -0.49378544027E+02  0.27082043358E+02  0.86255147705E+02  0.13761692602E+03  0.91251247326E+02 0.  0.
        -11    1    3    3    0    0 -0.19837563934E+02  0.23650735823E+02 -0.20597958827E+02  0.37110135484E+02  0.00000000000E+00 0.  1.
         11    1    3    3    0    0  0.21976929683E+02 -0.34126861702E+02 -0.14434654361E+03  0.14994516591E+03  0.00000000000E+00 0. -1.
        -11    1    4    4    0    0 -0.30580899050E+01  0.19946350909E+02 -0.15593632565E+02  0.25502356852E+02  0.00000000000E+00 0.  1.
         11    1    4    4    0    0 -0.46320454122E+02  0.71356924493E+01  0.10184878027E+03  0.11211456917E+03  0.00000000000E+00 0. -1.
         21    1    1    2  502  501  0.47239178278E+02 -0.16605917479E+02  0.35020582704E+02  0.61104317955E+02  0.00000000000E+00 0. -1.
<scales pt_clust_5="13000.00000" pt_clust_6="13000.00000" pt_clust_7="13000.00000" pt_clust_8="13000.00000" pt_clust_9="50.07291"></scales>
<clustering>
<clus scale="   50.073">  1  9  2 -1</clus>
<clus scale="   87.571">  5  6 -1 -1</clus>
<clus scale="   88.615">  2  5  1 -1</clus>
<clus scale="   91.251">  7  8 -1 -1</clus>
<clus scale="   50.073">  1  5  2 -1</clus>
</clustering>
</event>
<event>
 9    1  0.9000149E-006  0.2616059E+03  0.7546771E-02  0.1106217E+00
         -2   -1    0    0    0  501 -0.00000000000E+00  0.00000000000E+00  0.17727779772E+03  0.17727779772E+03  0.00000000000E+00 0.  1.
          2   -1    0    0  502    0  0.00000000000E+00 -0.00000000000E+00 -0.64212426223E+03  0.64212426223E+03  0.00000000000E+00 0. -1.
         23    2    1    2    0    0 -0.21928250209E+03 -0.97461008922E+02  0.56877106510E+01  0.25665958151E+03  0.90875336294E+02 0.  0.
         23    2    1    2    0    0  0.23749032248E+03  0.11733596112E+03 -0.44299163209E+03  0.52420509235E+03  0.91542403853E+02 0.  0.
        -13    1    4    4    0    0  0.13110675928E+03  0.91899062142E+02 -0.18924854072E+03  0.24788995566E+03  0.00000000000E+00 0. -1.
         13    1    4    4    0    0  0.10638356319E+03  0.25436898981E+02 -0.25374309137E+03  0.27631513669E+03  0.00000000000E+00 0.  1.
        -13    1    3    3    0    0 -0.41498025242E+02 -0.60228319072E+02 -0.12156154089E+02  0.74143837232E+02  0.00000000000E+00 0. -1.
         13    1    3    3    0    0 -0.17778447684E+03 -0.37232689850E+02  0.17843864740E+02  0.18251574428E+03  0.00000000000E+00 0.  1.
         21    1    1    2  502  501 -0.18207820391E+02 -0.19874952202E+02 -0.27542543068E+02  0.38537386096E+02  0.00000000000E+00 0.  1.
<scales pt_clust_5="13000.00000" pt_clust_6="13000.00000" pt_clust_7="13000.00000" pt_clust_8="13000.00000" pt_clust_9="26.95438"></scales>
<clustering>
<clus scale="   26.954">  2  9  1 -1</clus>
<clus scale="   90.875">  7  8 -1 -1</clus>
<clus scale="   91.542">  5  6 -1 -1</clus>
<clus scale="  261.373">  1  7  2 -1</clus>
<clus scale="   26.954">  2  5  1 -1</clus>
</clustering>
</event>
<event>
 9    1  0.9000149E-006  0.1192636E+03  0.7546771E-02  0.1244427E+00
         -1   -1    0    0    0  501 -0.00000000000E+00  0.00000000000E+00  0.24846251727E+03  0.24846251727E+03  0.00000000000E+00 0.  1.
          1   -1    0    0  502    0  0.00000000000E+00 -0.00000000000E+00 -0.19014408603E+03  0.19014408603E+03  0.00000000000E+00 0. -1.
         23    2    1    2    0    0  0.90988468592E+02  0.27464457646E+01  0.17464676293E+03  0.21694000733E+03  0.90967195169E+02 0.  0.
         23    2    1    2    0    0 -0.38825992384E+02  0.18606484307E+02 -0.10159421895E+02  0.10146381333E+03  0.91312828344E+02 0.  0.
        -13    1    3    3    0    0  0.84573333985E+02 -0.26952724946E+02  0.16053006294E+03  0.18343663568E+03  0.00000000000E+00 0.  1.
         13    1    3    3    0    0  0.64151346076E+01  0.29699170711E+02  0.14116699986E+02  0.33503371643E+02  0.00000000000E+00 0. -1.
        -13    1    4    4    0    0  0.21393070531E+02  0.16717965128E+01  0.22334909030E+02  0.30972673952E+02  0.00000000000E+00 0.  1.
         13    1    4    4    0    0 -0.60219062916E+02  0.16934687794E+02 -0.32494330925E+02  0.70491139382E+02  0.00000000000E+00 0. -1.
         21    1    1    2  502  501 -0.52162476208E+02 -0.21352930072E+02 -0.10616890980E+03  0.12020278264E+03  0.00000000000E+00 0. -1.
<scales pt_clust_5="13000.00000" pt_clust_6="13000.00000" pt_clust_7="13000.00000" pt_clust_8="13000.00000" pt_clust_9="56.36374"></scales>
<clustering>
<clus scale="   56.364">  2  9  1 -1</clus>
<clus scale="   90.967">  5  6 -1 -1</clus>
<clus scale="   91.313">  7  8 -1 -1</clus>
<clus scale="  118.999">  1  5  2 -1</clus>
<clus scale="   56.364">  2  5  1 -1</clus>
</clustering>
</event>
<event>
 9    1  0.9000149E-006  0.9709924E+02  0.7546771E-02  0.1287816E+00
         -2   -1    0    0    0  501 -0.00000000000E+00  0.00000000000E+00  0.63250459045E+02  0.63250459045E+02  0.00000000000E+00 0. -1.
          2   -1    0    0  502    0  0.00000000000E+00 -0.00000000000E+00 -0.72873393238E+03  0.72873393238E+03  0.00000000000E+00 0.  1.
         23    2    1    2    0    0 -0.27497918162E+02 -0.98935574557E+01  0.74728504172E+01  0.95474533160E+02  0.90584352989E+02 0.  0.
         23    2    1    2    0    0  0.28868823743E+02 -0.53647188307E+02 -0.34594784105E+03  0.36338247495E+03  0.93034856786E+02 0.  0.
        -11    1    4    4    0    0  0.13184022088E+02 -0.79013769454E+02 -0.22580346451E+03  0.23959173355E+03  0.00000000000E+00 0.  1.
         11    1    4    4    0    0  0.15684801655E+02  0.25366581147E+02 -0.12014437654E+03  0.12379074140E+03  0.00000000000E+00 0. -1.
        -13    1    3    3    0    0 -0.21385257809E+02 -0.33003214684E+02 -0.31071330473E+02  0.50119547169E+02  0.00000000000E+00 0.  1.
         13    1    3    3    0    0 -0.61126603526E+01  0.23109657228E+02  0.38544180890E+02  0.45354985991E+02  0.00000000000E+00 0. -1.
         21    1    1    2  502  501 -0.13709055808E+01  0.63540745763E+02 -0.32700848270E+03  0.33312738332E+03  0.00000000000E+00 0.  1.
<scales pt_clust_5="13000.00000" pt_clust_6="13000.00000" pt_clust_7="13000.00000" pt_clust_8="13000.00000" pt_clust_9="63.55553"></scales>
<clustering>
<clus scale="   63.556">  2  9  1 -1</clus>
<clus scale="   90.584">  7  8 -1 -1</clus>
<clus scale="   93.035">  5  6 -1 -1</clus>
<clus scale="   94.754">  1  7  2 -1</clus>
<clus scale="   63.556">  2  5  1 -1</clus>
</clustering>
</event>
<event>
 9    1  0.9000149E-006  0.9739401E+02  0.7546771E-02  0.1287408E+00
         -1   -1    0    0    0  501 -0.00000000000E+00  0.00000000000E+00  0.59519136266E+02  0.59519136266E+02  0.00000000000E+00 0.  1.
          1   -1    0    0  502    0  0.00000000000E+00 -0.00000000000E+00 -0.31210115766E+03  0.31210115766E+03  0.00000000000E+00 0. -1.
         23    2    1    2    0    0  0.18443482231E+01  0.18539629810E+02 -0.58735614505E+02  0.11033403061E+03  0.91523802396E+02 0.  0.
         23    2    1    2    0    0 -0.42373460954E+02 -0.18245491672E+01 -0.58184329304E+02  0.11871627281E+03  0.94389078181E+02 0.  0.
        -13    1    3    3    0    0  0.11265299465E+02 -0.21291151074E+02 -0.64638468637E+02  0.68980806851E+02  0.00000000000E+00 0.  1.
         13    1    3    3    0    0 -0.94209512423E+01  0.39830780884E+02  0.59028541324E+01  0.41353223756E+02  0.00000000000E+00 0. -1.
        -13    1    4    4    0    0 -0.24634939598E+02 -0.47143361344E+02 -0.19887489417E+02  0.56788106176E+02  0.00000000000E+00 0.  1.
         13    1    4    4    0    0 -0.17738521356E+02  0.45318812176E+02 -0.38296839887E+02  0.61928166631E+02  0.00000000000E+00 0. -1.
         21    1    1    2  502  501  0.40529112731E+02 -0.16715080643E+02 -0.13566207758E+03  0.14256999051E+03  0.00000000000E+00 0.  1.
<scales pt_clust_5="13000.00000" pt_clust_6="13000.00000" pt_clust_7="13000.00000" pt_clust_8="13000.00000" pt_clust_9="43.84065"></scales>
<clustering>
<clus scale="   43.841">  2  9  1 -1</clus>
<clus scale="   91.524">  5  6 -1 -1</clus>
<clus scale="   94.389">  7  8 -1 -1</clus>
<clus scale="   94.620">  1  5  2 -1</clus>
<clus scale="   43.841">  2  5  1 -1</clus>
</clustering>
</event>
<event>
 9    1  0.9000149E-006  0.9215116E+02  0.7546771E-02  0.1298090E+00
         -1   -1    0    0    0  501 -0.00000000000E+00  0.00000000000E+00  0.39806619781E+03  0.39806619781E+03  0.00000000000E+00 0.  1.
          1   -1    0    0  502    0  0.00000000000E+00 -0.00000000000E+00 -0.35821264346E+02  0.35821264346E+02  0.00000000000E+00 0. -1.
         23    2    1    2    0    0 -0.19813496108E+02 -0.10001740829E+02  0.19746079891E+03  0.21841936256E+03  0.90684295153E+02 0.  0.
         23    2    1    2    0    0 -0.23290193495E+02  0.14899890821E+02  0.11086968686E+03  0.14626775566E+03  0.91311165921E+02 0.  0.
        -11    1    4    4    0    0  0.24826939387E+02  0.31316448938E+02  0.71710916938E+02  0.82094777553E+02  0.00000000000E+00 0.  1.
         11    1    4    4    0    0 -0.48117132883E+02 -0.16416558117E+02  0.39158769918E+02  0.64172978104E+02  0.00000000000E+00 0. -1.
        -11    1    3    3    0    0  0.18676204166E+02  0.21756373315E+02  0.22399760961E+02  0.36385294735E+02  0.00000000000E+00 0.  1.
         11    1    3    3    0    0 -0.38489700274E+02 -0.31758114144E+02  0.17506103795E+03  0.18203406782E+03  0.00000000000E+00 0. -1.
         21    1    1    2  502  501  0.43103689604E+02 -0.48981499921E+01  0.53914447700E+02  0.69200343941E+02  0.00000000000E+00 0.  1.
<scales pt_clust_5="13000.00000" pt_clust_6="13000.00000" pt_clust_7="13000.00000" pt_clust_8="13000.00000" pt_clust_9="43.38110"></scales>
<clustering>
<clus scale="   43.381">  2  9  1 -1</clus>
<clus scale="   90.684">  7  8 -1 -1</clus>
<clus scale="   91.311">  5  6 -1 -1</clus>
<clus scale="   91.530">  1  7  2 -1</clus>
<clus scale="   43.381">  2  5  1 -1</clus>
</clustering>
</event>
<event>
 9    1  0.9000149E-006  0.1165541E+03  0.7546771E-02  0.1249152E+00
         -1   -1    0    0    0  501 -0.00000000000E+00  0.00000000000E+00  0.51378050454E+03  0.51378050454E+03  0.00000000000E+00 0.  1.
          1   -1    0    0  502    0  0.00000000000E+00 -0.00000000000E+00 -0.11509209360E+03  0.11509209360E+03  0.00000000000E+00 0. -1.
         23    2    1    2    0    0  0.74389869585E+02  0.22560276201E+02  0.45379366729E+03  0.46931349496E+03  0.91014533563E+02 0.  0.
         23    2    1    2    0    0 -0.24079337684E+02 -0.32899354188E+01 -0.48473875335E+02  0.10527769874E+03  0.90238789236E+02 0.  0.
        -11    1    3    3    0    0  0.61953148368E+02  0.50566339602E+02  0.39499503990E+03  0.40300896868E+03  0.00000000000E+00 0.  1.
         11    1    3    3    0    0  0.12436721217E+02 -0.28006063401E+02  0.58798627393E+02  0.66304526280E+02  0.00000000000E+00 0. -1.
        -13    1    4    4    0    0 -0.44559855367E+02  0.29308583120E+02 -0.37656782224E+02  0.65288643747E+02  0.00000000000E+00 0. -1.
         13    1    4    4    0    0  0.20480517683E+02 -0.32598518539E+02 -0.10817093110E+02  0.39989054989E+02  0.00000000000E+00 0.  1.
         21    1    1    2  502  501 -0.50310531901E+02 -0.19270340782E+02 -0.66313810183E+01  0.54281404443E+02  0.00000000000E+00 0. -1.
<scales pt_clust_5="13000.00000" pt_clust_6="13000.00000" pt_clust_7="13000.00000" pt_clust_8="13000.00000" pt_clust_9="53.87481"></scales>
<clustering>
<clus scale="   53.875">  2  9  1 -1</clus>
<clus scale="   90.239">  7  8 -1 -1</clus>
<clus scale="   91.015">  5  6 -1 -1</clus>
<clus scale="  115.949">  2  7  1 -1</clus>
<clus scale="   53.875">  2  5  1 -1</clus>
</clustering>
</event>
<event>
 9    1  0.9000149E-006  0.1154729E+03  0.7546771E-02  0.1251873E+00
          1   -1    0    0  502    0  0.00000000000E+00  0.00000000000E+00  0.50161270250E+03  0.50161270250E+03  0.00000000000E+00 0. -1.
         -1   -1    0    0    0  501 -0.00000000000E+00 -0.00000000000E+00 -0.15053069491E+03  0.15053069491E+03  0.00000000000E+00 0.  1.
         23    2    1    2    0    0  0.51733595852E+02  0.43808272724E+02 -0.10475986898E+03  0.15346445001E+03  0.89337436544E+02 0.  0.
         23    2    1    2    0    0 -0.37669007274E+02 -0.77120341889E+02  0.17634804583E+03  0.21685576164E+03  0.92527222206E+02 0.  0.
        -11    1    4    4    0    0 -0.16699741387E+02  0.20402653498E+02  0.33649357847E+02  0.42748437582E+02  0.00000000000E+00 0.  1.
         11    1    4    4    0    0 -0.20969265888E+02 -0.97522995387E+02  0.14269868798E+03  0.17410732406E+03  0.00000000000E+00 0. -1.
        -11    1    3    3    0    0  0.17107694250E+02  0.53634192817E+02 -0.17310889522E+02  0.58897934919E+02  0.00000000000E+00 0.  1.
         11    1    3    3    0    0  0.34625901603E+02 -0.98259200932E+01 -0.87448979460E+02  0.94566515089E+02  0.00000000000E+00 0. -1.
         21    1    1    2  502  501 -0.14064588578E+02  0.33312069165E+02  0.27949383075E+03  0.28182318576E+03  0.00000000000E+00 0.  1.
<scales pt_clust_5="13000.00000" pt_clust_6="13000.00000" pt_clust_7="13000.00000" pt_clust_8="13000.00000" pt_clust_9="36.15946"></scales>
<clustering>
<clus scale="   36.159">  1  9  2 -1</clus>
<clus scale="   89.337">  7  8 -1 -1</clus>
<clus scale="   92.527">  5  6 -1 -1</clus>
<clus scale="  112.933">  2  7  1 -1</clus>
<clus scale="   36.159">  1  5  2 -1</clus>
</clustering>
</event>
<event>
 9    1  0.9000149E-006  0.9208043E+02  0.7546771E-02  0.1298604E+00
         -4   -1    0    0    0  501 -0.00000000000E+00  0.00000000000E+00  0.30080930341E+03  0.30080930341E+03  0.00000000000E+00 0.  1.
          4   -1    0    0  502    0  0.00000000000E+00 -0.00000000000E+00 -0.43347788991E+02  0.43347788991E+02  0.00000000000E+00 0. -1.
         23    2    1    2    0    0 -0.40585666375E+01  0.15523346344E+01  0.17467638727E+03  0.19733102771E+03  0.91699577551E+02 0.  0.
         23    2    1    2    0    0  0.53971327603E+01  0.25298065454E+02  0.68333731090E+02  0.11630429226E+03  0.90487946355E+02 0.  0.
        -11    1    4    4    0    0 -0.24569418545E+02  0.23342887830E+02  0.77764146976E+02  0.84828116182E+02  0.00000000000E+00 0.  1.
         11    1    4    4    0    0  0.29966551306E+02  0.19551776234E+01 -0.94304158866E+01  0.31476176078E+02  0.00000000000E+00 0. -1.
        -11    1    3    3    0    0  0.77279032555E+01 -0.35257682805E+02  0.14261940461E+03  0.14711600612E+03  0.00000000000E+00 0. -1.
         11    1    3    3    0    0 -0.11786469893E+02  0.36810017439E+02  0.32056982661E+02  0.50215021594E+02  0.00000000000E+00 0.  1.
         21    1    1    2  502  501 -0.13385661228E+01 -0.26850400088E+02  0.14451396064E+02  0.30521772431E+02  0.00000000000E+00 0. -1.
<scales pt_clust_5="13000.00000" pt_clust_6="13000.00000" pt_clust_7="13000.00000" pt_clust_8="13000.00000" pt_clust_9="26.88374"></scales>
<clustering>
<clus scale="   26.884">  2  9  1 -1</clus>
<clus scale="   90.488">  5  6 -1 -1</clus>
<clus scale="   90.874">  2  5  1 -1</clus>
<clus scale="   91.700">  7  8 -1 -1</clus>
<clus scale="   26.884">  2  5  1 -1</clus>
</clustering>
</event>
<event>
 9    1  0.9000149E-006  0.1340719E+03  0.7546771E-02  0.1221853E+00
          1   -1    0    0  502    0  0.00000000000E+00  0.00000000000E+00  0.54945153090E+03  0.54945153090E+03  0.00000000000E+00 0. -1.
         -1   -1    0    0    0  501 -0.00000000000E+00 -0.00000000000E+00 -0.49900286359E+02  0.49900286359E+02  0.00000000000E+00 0.  1.
         23    2    1    2    0    0  0.83764991324E+02 -0.39270929909E+02  0.11625130066E+03  0.17420395344E+03  0.90960831042E+02 0.  0.
         23    2    1    2    0    0 -0.87653141209E+02  0.59818521315E+02  0.22397380530E+03  0.26445517680E+03  0.92254790781E+02 0.  0.
        -11    1    3    3    0    0  0.26749365603E+02 -0.11481107244E+02  0.10603607918E+03  0.10995905816E+03  0.00000000000E+00 0. -1.
         11    1    3    3    0    0  0.57015625721E+02 -0.27789822665E+02  0.10215221476E+02  0.64244895283E+02  0.00000000000E+00 0.  1.
        -13    1    4    4    0    0 -0.81273625591E+02  0.84659040035E+00  0.13167228146E+03  0.15473754760E+03  0.00000000000E+00 0.  1.
         13    1    4    4    0    0 -0.63795156179E+01  0.58971930915E+02  0.92301523836E+02  0.10971762920E+03  0.00000000000E+00 0. -1.
         21    1    1    2  502  501  0.38881498843E+01 -0.20547591406E+02  0.15932613859E+03  0.16069268702E+03  0.00000000000E+00 0. -1.
<scales pt_clust_5="13000.00000" pt_clust_6="13000.00000" pt_clust_7="13000.00000" pt_clust_8="13000.00000" pt_clust_9="20.91223"></scales>
<clustering>
<clus scale="   20.912">  1  9  2 -1</clus>
<clus scale="   90.961">  5  6 -1 -1</clus>
<clus scale="   92.255">  7  8 -1 -1</clus>
<clus scale="  133.185">  2  5  1 -1</clus>
<clus scale="   20.912">  1  5  2 -1</clus>
</clustering>
</event>
<event>
 9    1  0.9000149E-006  0.1368223E+03  0.7546771E-02  0.1219238E+00
         -1   -1    0    0    0  501 -0.00000000000E+00  0.00000000000E+00  0.17023005291E+03  0.17023005291E+03  0.00000000000E+00 0.  1.
          1   -1    0    0  502    0  0.00000000000E+00 -0.00000000000E+00 -0.52962643745E+03  0.52962643745E+03  0.00000000000E+00 0. -1.
         23    2    1    2    0    0 -0.73041749978E+02 -0.63665279842E+02  0.13047650652E+03  0.18682494015E+03  0.92147026054E+02 0.  0.
         23    2    1    2    0    0  0.61656610932E+02  0.34920437019E+02 -0.37925453647E+03  0.39817377837E+03  0.98424487573E+02 0.  0.
        -11    1    3    3    0    0 -0.40906864982E+02 -0.40632805637E+02  0.81042693082E+01  0.58224356395E+02  0.00000000000E+00 0. -1.
         11    1    3    3    0    0 -0.32134884996E+02 -0.23032474205E+02  0.12237223721E+03  0.12860058375E+03  0.00000000000E+00 0.  1.
        -13    1    4    4    0    0 -0.24857759353E+02  0.45190542104E+01 -0.45424101438E+02  0.51977678309E+02  0.00000000000E+00 0.  1.
         13    1    4    4    0    0  0.86514370285E+02  0.30401382809E+02 -0.33383043503E+03  0.34619610006E+03  0.00000000000E+00 0. -1.
         21    1    1    2  502  501  0.11385139046E+02  0.28744842823E+02 -0.11061835459E+03  0.11485777184E+03  0.00000000000E+00 0. -1.
<scales pt_clust_5="13000.00000" pt_clust_6="13000.00000" pt_clust_7="13000.00000" pt_clust_8="13000.00000" pt_clust_9="30.91743"></scales>
<clustering>
<clus scale="   30.917">  2  9  1 -1</clus>
<clus scale="   92.147">  5  6 -1 -1</clus>
<clus scale="   98.424">  7  8 -1 -1</clus>
<clus scale="  132.378">  1  5  2 -1</clus>
<clus scale="   30.917">  2  5  1 -1</clus>
</clustering>
</event>
<event>
 9    1  0.9000149E-006  0.9773236E+02  0.7546771E-02  0.1285997E+00
          2   -1    0    0  502    0  0.00000000000E+00  0.00000000000E+00  0.16532509127E+03  0.16532509127E+03  0.00000000000E+00 0. -1.
         -2   -1    0    0    0  501 -0.00000000000E+00 -0.00000000000E+00 -0.12551651484E+03  0.12551651484E+03  0.00000000000E+00 0.  1.
         23    2    1    2    0    0  0.20851464743E+02  0.35244946039E+01 -0.26408805781E+02  0.97931074452E+02  0.91901385606E+02 0.  0.
         23    2    1    2    0    0 -0.33809446447E+02 -0.42394346764E+02 -0.10647423074E+02  0.10580729986E+03  0.90230027036E+02 0.  0.
        -13    1    3    3    0    0  0.41923650647E+02  0.14886662686E+02  0.17591119061E+02  0.47839864959E+02  0.00000000000E+00 0. -1.
         13    1    3    3    0    0 -0.21072185904E+02 -0.11362168082E+02 -0.43999924843E+02  0.50091209493E+02  0.00000000000E+00 0.  1.
        -13    1    4    4    0    0 -0.27991575986E+02  0.10912121155E+02 -0.35667450677E+02  0.46634426684E+02  0.00000000000E+00 0. -1.
         13    1    4    4    0    0 -0.58178704612E+01 -0.53306467919E+02  0.25020027603E+02  0.59172873176E+02  0.00000000000E+00 0.  1.
         21    1    1    2  502  501  0.12957981704E+02  0.38869852160E+02  0.76864805286E+02  0.87103231791E+02  0.00000000000E+00 0. -1.
<scales pt_clust_5="13000.00000" pt_clust_6="13000.00000" pt_clust_7="13000.00000" pt_clust_8="13000.00000" pt_clust_9="40.97285"></scales>
<clustering>
<clus scale="   40.973">  1  9  2 -1</clus>
<clus scale="   90.230">  7  8 -1 -1</clus>
<clus scale="   91.901">  5  6 -1 -1</clus>
<clus scale="   96.162">  1  7  2 -1</clus>
<clus scale="   40.973">  1  5  2 -1</clus>
</clustering>
</event>
<event>
 9    1  0.9000149E-006  0.1064576E+03  0.7546771E-02  0.1267866E+00
         -1   -1    0    0    0  501 -0.00000000000E+00  0.00000000000E+00  0.88208484569E+02  0.88208484569E+02  0.00000000000E+00 0.  1.
          1   -1    0    0  502    0  0.00000000000E+00 -0.00000000000E+00 -0.23020681658E+03  0.23020681658E+03  0.00000000000E+00 0. -1.
         23    2    1    2    0    0  0.12726054662E+02 -0.61198169401E+02  0.19204993655E+02  0.11242790034E+03  0.91455085091E+02 0.  0.
         23    2    1    2    0    0 -0.10249552542E+02  0.28441691232E+02 -0.12671982314E+03  0.15836144285E+03  0.90035825524E+02 0.  0.
        -11    1    3    3    0    0  0.18247738217E+02 -0.33203933987E+02  0.54915880451E+02  0.66717577204E+02  0.00000000000E+00 0.  1.
         11    1    3    3    0    0 -0.55216835550E+01 -0.27994235413E+02 -0.35710886797E+02  0.45710323139E+02  0.00000000000E+00 0. -1.
        -13    1    4    4    0    0  0.39363816705E+02  0.37258425207E+01 -0.53731294879E+02  0.66711648289E+02  0.00000000000E+00 0. -1.
         13    1    4    4    0    0 -0.49613369247E+02  0.24715848711E+02 -0.72988528260E+02  0.91649794561E+02  0.00000000000E+00 0.  1.
         21    1    1    2  502  501 -0.24765021193E+01  0.32756478169E+02 -0.34483502532E+02  0.47625957960E+02  0.00000000000E+00 0. -1.
<scales pt_clust_5="13000.00000" pt_clust_6="13000.00000" pt_clust_7="13000.00000" pt_clust_8="13000.00000" pt_clust_9="32.84996"></scales>
<clustering>
<clus scale="   32.850">  2  9  1 -1</clus>
<clus scale="   90.036">  7  8 -1 -1</clus>
<clus scale="   91.455">  5  6 -1 -1</clus>
<clus scale="  105.241">  2  7  1 -1</clus>
<clus scale="   32.850">  2  5  1 -1</clus>
</clustering>
</event>
<event>
 9    1  0.9000149E-006  0.1104716E+03  0.7546771E-02  0.1259713E+00
          2   -1    0    0  502    0  0.00000000000E+00  0.00000000000E+00  0.93524354945E+03  0.93524354945E+03  0.00000000000E+00 0. -1.
         -2   -1    0    0    0  501 -0.00000000000E+00 -0.00000000000E+00 -0.24923656441E+02  0.24923656441E+02  0.00000000000E+00 0.  1.
         23    2    1    2    0    0 -0.54724799043E+02 -0.51015517075E+02  0.17259166073E+03  0.20853834992E+03  0.90016528599E+02 0.  0.
         23    2    1    2    0    0  0.38834744113E+02  0.15782825912E+02  0.42145193656E+03  0.43299971166E+03  0.90054319838E+02 0.  0.
        -13    1    3    3    0    0 -0.59165480201E+02  0.16184273707E+01  0.12101034791E+03  0.13470960491E+03  0.00000000000E+00 0. -1.
         13    1    3    3    0    0  0.44406811574E+01 -0.52633944446E+02  0.51581312820E+02  0.73828745007E+02  0.00000000000E+00 0.  1.
        -13    1    4    4    0    0  0.25520321382E+02 -0.35387209964E+02  0.24275570677E+03  0.24664524038E+03  0.00000000000E+00 0.  1.
         13    1    4    4    0    0  0.13314422730E+02  0.51170035876E+02  0.17869622979E+03  0.18635447127E+03  0.00000000000E+00 0. -1.
         21    1    1    2  502  501  0.15890054930E+02  0.35232691163E+02  0.31627629572E+03  0.31862914432E+03  0.00000000000E+00 0. -1.
<scales pt_clust_5="13000.00000" pt_clust_6="13000.00000" pt_clust_7="13000.00000" pt_clust_8="13000.00000" pt_clust_9="38.65018"></scales>
<clustering>
<clus scale="   38.650">  1  9  2 -1</clus>
<clus scale="   90.017">  5  6 -1 -1</clus>
<clus scale="   90.054">  7  8 -1 -1</clus>
<clus scale="  110.441">  2  5  1 -1</clus>
<clus scale="   38.650">  1  5  2 -1</clus>
</clustering>
</event>
<event>
 9    1  0.9000149E-006  0.1013689E+03  0.7546771E-02  0.1279140E+00
          1   -1    0    0  502    0  0.00000000000E+00  0.00000000000E+00  0.20821686866E+03  0.20821686866E+03  0.00000000000E+00 0. -1.
         -1   -1    0    0    0  501 -0.00000000000E+00 -0.00000000000E+00 -0.88079687420E+02  0.88079687420E+02  0.00000000000E+00 0.  1.
         23    2    1    2    0    0 -0.26240042694E+02 -0.37863396027E+02 -0.21780845206E+02  0.10533228764E+03  0.92186273388E+02 0.  0.
         23    2    1    2    0    0 -0.35266021582E+01  0.36113504488E+02  0.12204329066E+03  0.15512964289E+03  0.88622904366E+02 0.  0.
        -13    1    3    3    0    0  0.31151977575E+02  0.29414060765E+01 -0.14658112237E+02  0.34553694895E+02  0.00000000000E+00 0.  1.
         13    1    3    3    0    0 -0.57392020269E+02 -0.40804802103E+02 -0.71227329687E+01  0.70778592740E+02  0.00000000000E+00 0. -1.
        -13    1    4    4    0    0  0.25406176034E+02 -0.18245179018E+02  0.60287739651E+02  0.67918862551E+02  0.00000000000E+00 0.  1.
         13    1    4    4    0    0 -0.28932778192E+02  0.54358683506E+02  0.61755551006E+02  0.87210780334E+02  0.00000000000E+00 0. -1.
         21    1    1    2  502  501  0.29766644852E+02  0.17498915385E+01  0.19874735785E+02  0.35834625555E+02  0.00000000000E+00 0.  1.
<scales pt_clust_5="13000.00000" pt_clust_6="13000.00000" pt_clust_7="13000.00000" pt_clust_8="13000.00000" pt_clust_9="29.81804"></scales>
<clustering>
<clus scale="   29.818">  1  9  2 -1</clus>
<clus scale="   88.623">  7  8 -1 -1</clus>
<clus scale="   92.186">  5  6 -1 -1</clus>
<clus scale="   98.140">  1  7  2 -1</clus>
<clus scale="   29.818">  1  5  2 -1</clus>
</clustering>
</event>
<event>
 9    1  0.9000149E-006  0.2128624E+03  0.7546771E-02  0.1139423E+00
         -2   -1    0    0    0  501 -0.00000000000E+00  0.00000000000E+00  0.68313907158E+02  0.68313907158E+02  0.00000000000E+00 0.  1.
          2   -1    0    0  502    0  0.00000000000E+00 -0.00000000000E+00 -0.11468197260E+04  0.11468197260E+04  0.00000000000E+00 0. -1.
         23    2    1    2    0    0  0.19574667192E+02  0.18587593592E+03 -0.18126256418E+03  0.27593638254E+03  0.91387848703E+02 0.  0.
         23    2    1    2    0    0  0.18695217346E+02 -0.21169043920E+03 -0.72401037606E+03  0.75991924619E+03  0.90132585037E+02 0.  0.
        -11    1    3    3    0    0  0.48453086744E+02  0.80913955795E+02 -0.11406256389E+03  0.14800350786E+03  0.00000000000E+00 0. -1.
         11    1    3    3    0    0 -0.28878419552E+02  0.10496198012E+03 -0.67200000293E+02  0.12793287469E+03  0.00000000000E+00 0.  1.
        -11    1    4    4    0    0  0.44605789240E+02 -0.50359818956E+02 -0.19826820346E+03  0.20937064814E+03  0.00000000000E+00 0.  1.
         11    1    4    4    0    0 -0.25910571895E+02 -0.16133062024E+03 -0.52574217261E+03  0.55054859805E+03  0.00000000000E+00 0. -1.
         21    1    1    2  502  501 -0.38269884538E+02  0.25814503280E+02 -0.17323287861E+03  0.17927800443E+03  0.00000000000E+00 0.  1.
<scales pt_clust_5="13000.00000" pt_clust_6="13000.00000" pt_clust_7="13000.00000" pt_clust_8="13000.00000" pt_clust_9="46.16246"></scales>
<clustering>
<clus scale="   46.162">  2  9  1 -1</clus>
<clus scale="   90.133">  7  8 -1 -1</clus>
<clus scale="   91.388">  5  6 -1 -1</clus>
<clus scale="  212.327">  2  7  1 -1</clus>
<clus scale="   46.162">  2  5  1 -1</clus>
</clustering>
</event>
<event>
 9    1  0.9000149E-006  0.1082899E+03  0.7546771E-02  0.1265582E+00
         -1   -1    0    0    0  501 -0.00000000000E+00  0.00000000000E+00  0.35309123870E+03  0.35309123870E+03  0.00000000000E+00 0.  1.
          1   -1    0    0  502    0  0.00000000000E+00 -0.00000000000E+00 -0.29969855744E+03  0.29969855744E+03  0.00000000000E+00 0. -1.
         23    2    1    2    0    0  0.48800143656E+02 -0.31017208108E+02  0.31979550752E+03  0.33765960837E+03  0.91658732687E+02 0.  0.
         23    2    1    2    0    0 -0.60708490540E+02  0.25406861226E+01 -0.26350723466E+03  0.28412848652E+03  0.87183474492E+02 0.  0.
        -13    1    3    3    0    0 -0.18280460686E+01 -0.46354186157E+02  0.21863438903E+03  0.22350178611E+03  0.00000000000E+00 0.  1.
         13    1    3    3    0    0  0.50628189724E+02  0.15336978049E+02  0.10116111848E+03  0.11415782226E+03  0.00000000000E+00 0. -1.
        -13    1    4    4    0    0 -0.14584081963E+02  0.42650650855E+02 -0.11688983243E+03  0.12527971261E+03  0.00000000000E+00 0. -1.
         13    1    4    4    0    0 -0.46124408577E+02 -0.40109964733E+02 -0.14661740222E+03  0.15884877391E+03  0.00000000000E+00 0.  1.
         21    1    1    2  502  501  0.11908346885E+02  0.28476521986E+02 -0.28955915895E+01  0.31001701253E+02  0.00000000000E+00 0.  1.
<scales pt_clust_5="13000.00000" pt_clust_6="13000.00000" pt_clust_7="13000.00000" pt_clust_8="13000.00000" pt_clust_9="30.86618"></scales>
<clustering>
<clus scale="   30.866">  2  9  1 -1</clus>
<clus scale="   87.183">  7  8 -1 -1</clus>
<clus scale="   91.659">  5  6 -1 -1</clus>
<clus scale="  104.529">  2  7  1 -1</clus>
<clus scale="   30.866">  2  5  1 -1</clus>
</clustering>
</event>
<event>
 9    1  0.9000149E-006  0.1277431E+03  0.7546771E-02  0.1231704E+00
         -3   -1    0    0    0  501 -0.00000000000E+00  0.00000000000E+00  0.44934466948E+03  0.44934466948E+03  0.00000000000E+00 0.  1.
          3   -1    0    0  502    0  0.00000000000E+00 -0.00000000000E+00 -0.60873420037E+02  0.60873420037E+02  0.00000000000E+00 0. -1.
         23    2    1    2    0    0  0.65478464317E+02  0.74291086163E+02  0.29762756190E+03  0.32590503226E+03  0.88460893499E+02 0.  0.
         23    2    1    2    0    0 -0.22917498819E+02 -0.67240705139E+02  0.76294665705E+02  0.13878484959E+03  0.91617870974E+02 0.  0.
        -11    1    3    3    0    0  0.34504042013E+02 -0.15482359942E+02  0.84927084949E+02  0.92966887345E+02  0.00000000000E+00 0. -1.
         11    1    3    3    0    0  0.30974422304E+02  0.89773446104E+02  0.21270047695E+03  0.23293814492E+03  0.00000000000E+00 0.  1.
        -11    1    4    4    0    0  0.10377898507E+01 -0.49877031722E+02  0.92467421933E+02  0.10506673793E+03  0.00000000000E+00 0.  1.
         11    1    4    4    0    0 -0.23955288670E+02 -0.17363673418E+02 -0.16172756228E+02  0.33718111659E+02  0.00000000000E+00 0. -1.
         21    1    1    2  502  501 -0.42560965498E+02 -0.70503810233E+01  0.14549021841E+02  0.45528207665E+02  0.00000000000E+00 0.  1.
<scales pt_clust_5="13000.00000" pt_clust_6="13000.00000" pt_clust_7="13000.00000" pt_clust_8="13000.00000" pt_clust_9="43.14097"></scales>
<clustering>
<clus scale="   43.141">  2  9  1 -1</clus>
<clus scale="   88.461">  5  6 -1 -1</clus>
<clus scale="   91.618">  7  8 -1 -1</clus>
<clus scale="  125.498">  1  5  2 -1</clus>
<clus scale="   43.141">  2  5  1 -1</clus>
</clustering>
</event>
<event>
 9    1  0.9000149E-006  0.1097064E+03  0.7546771E-02  0.1263026E+00
          2   -1    0    0  502    0  0.00000000000E+00  0.00000000000E+00  0.42909029426E+03  0.42909029426E+03  0.00000000000E+00 0. -1.
         -2   -1    0    0    0  501 -0.00000000000E+00 -0.00000000000E+00 -0.16505565380E+03  0.16505565380E+03  0.00000000000E+00 0.  1.
         23    2    1    2    0    0  0.22576560857E+02 -0.50780410991E+02 -0.13170915989E+03  0.16866017459E+03  0.89501957814E+02 0.  0.
         23    2    1    2    0    0 -0.27647624538E+01  0.73162538604E+02  0.35785141122E+03  0.37722294981E+03  0.94229084610E+02 0.  0.
        -11    1    4    4    0    0 -0.38701503366E+02  0.50854127618E+02  0.12318502242E+03  0.13877499201E+03  0.00000000000E+00 0.  1.
         11    1    4    4    0    0  0.35936740912E+02  0.22308410986E+02  0.23466638880E+03  0.23844795780E+03  0.00000000000E+00 0. -1.
        -11    1    3    3    0    0  0.43512012243E+02 -0.33642051632E+02 -0.28465620952E+02  0.61930399834E+02  0.00000000000E+00 0. -1.
         11    1    3    3    0    0 -0.20935451387E+02 -0.17138359359E+02 -0.10324353894E+03  0.10672977476E+03  0.00000000000E+00 0.  1.
         21    1    1    2  502  501 -0.19811798403E+02 -0.22382127613E+02  0.37892389139E+02  0.48262823655E+02  0.00000000000E+00 0.  1.
<scales pt_clust_5="13000.00000" pt_clust_6="13000.00000" pt_clust_7="13000.00000" pt_clust_8="13000.00000" pt_clust_9="29.89092"></scales>
<clustering>
<clus scale="   29.891">  1  9  2 -1</clus>
<clus scale="   89.502">  7  8 -1 -1</clus>
<clus scale="   94.229">  5  6 -1 -1</clus>
<clus scale="  105.674">  2  7  1 -1</clus>
<clus scale="   29.891">  1  5  2 -1</clus>
</clustering>
</event>
<event>
 9    1  0.9000149E-006  0.1167011E+03  0.7546771E-02  0.1249033E+00
          2   -1    0    0  502    0  0.00000000000E+00  0.00000000000E+00  0.15414291120E+03  0.15414291120E+03  0.00000000000E+00 0. -1.
         -2   -1    0    0    0  501 -0.00000000000E+00 -0.00000000000E+00 -0.39843269642E+03  0.39843269642E+03  0.00000000000E+00 0.  1.
         23    2    1    2    0    0 -0.28717573330E+02 -0.65735563068E+02 -0.35284113891E+03  0.37142437536E+03  0.91177486478E+02 0.  0.
         23    2    1    2    0    0  0.45826755910E+02  0.51903538537E+02  0.10955409153E+03  0.15912727906E+03  0.92332676236E+02 0.  0.
        -11    1    4    4    0    0  0.29850581279E+01 -0.25834733788E+02  0.32186422371E+02  0.41380065574E+02  0.00000000000E+00 0.  1.
         11    1    4    4    0    0  0.42841697782E+02  0.77738272325E+02  0.77367669155E+02  0.11774721348E+03  0.00000000000E+00 0. -1.
        -13    1    3    3    0    0  0.15916440573E+02 -0.59949127655E+02 -0.12942941295E+03  0.14352422766E+03  0.00000000000E+00 0. -1.
         13    1    3    3    0    0 -0.44634013903E+02 -0.57864354133E+01 -0.22341172595E+03  0.22790014771E+03  0.00000000000E+00 0.  1.
         21    1    1    2  502  501 -0.17109182580E+02  0.13832024531E+02 -0.10027378470E+01  0.22023953196E+02  0.00000000000E+00 0.  1.
<scales pt_clust_5="13000.00000" pt_clust_6="13000.00000" pt_clust_7="13000.00000" pt_clust_8="13000.00000" pt_clust_9="22.00111"></scales>
<clustering>
<clus scale="   22.001">  1  9  2 -1</clus>
<clus scale="   91.177">  7  8 -1 -1</clus>
<clus scale="   92.333">  5  6 -1 -1</clus>
<clus scale="  115.789">  2  7  1 -1</clus>
<clus scale="   22.001">  1  5  2 -1</clus>
</clustering>
</event>
<event>
 9    1  0.9000149E-006  0.1045362E+03  0.7546771E-02  0.1271462E+00
         -1   -1    0    0    0  501 -0.00000000000E+00  0.00000000000E+00  0.12017629056E+03  0.12017629056E+03  0.00000000000E+00 0.  1.
          1   -1    0    0  502    0  0.00000000000E+00 -0.00000000000E+00 -0.17359680311E+03  0.17359680311E+03  0.00000000000E+00 0. -1.
         23    2    1    2    0    0 -0.19844419977E+02 -0.52694656310E+02  0.33729557285E+02  0.11240393395E+03  0.91249293282E+02 0.  0.
         23    2    1    2    0    0 -0.17925585709E+02  0.47487820505E+02 -0.21982408324E+02  0.10586744733E+03  0.90267770598E+02 0.  0.
        -11    1    4    4    0    0  0.36594755007E+02  0.25978861850E+02 -0.11489007552E+02  0.46325745019E+02  0.00000000000E+00 0. -1.
         11    1    4    4    0    0 -0.54520340715E+02  0.21508958655E+02 -0.10493400773E+02  0.59541702309E+02  0.00000000000E+00 0.  1.
        -13    1    3    3    0    0  0.26553768930E+01  0.20764041734E+02 -0.10851756540E+02  0.23578742027E+02  0.00000000000E+00 0. -1.
         13    1    3    3    0    0 -0.22499796870E+02 -0.73458698044E+02  0.44581313826E+02  0.88825191921E+02  0.00000000000E+00 0.  1.
         21    1    1    2  502  501  0.37770005686E+02  0.52068358043E+01 -0.65167661504E+02  0.75501712394E+02  0.00000000000E+00 0. -1.
<scales pt_clust_5="13000.00000" pt_clust_6="13000.00000" pt_clust_7="13000.00000" pt_clust_8="13000.00000" pt_clust_9="38.12721"></scales>
<clustering>
<clus scale="   38.127">  2  9  1 -1</clus>
<clus scale="   90.268">  5  6 -1 -1</clus>
<clus scale="   91.249">  7  8 -1 -1</clus>
<clus scale="  103.681">  2  5  1 -1</clus>
<clus scale="   38.127">  2  5  1 -1</clus>
</clustering>
</event>
<event>
 9    1  0.9000149E-006  0.1891425E+03  0.7546771E-02  0.1162127E+00
         -1   -1    0    0    0  501 -0.00000000000E+00  0.00000000000E+00  0.77814463022E+03  0.77814463022E+03  0.00000000000E+00 0.  1.
          1   -1    0    0  502    0  0.00000000000E+00 -0.00000000000E+00 -0.77444661585E+02  0.77444661585E+02  0.00000000000E+00 0. -1.
         23    2    1    2    0    0  0.15785109811E+03  0.10412057858E+02  0.47947748116E+03  0.51728708556E+03  0.11252508085E+03 0.  0.
         23    2    1    2    0    0 -0.14179251927E+03 -0.25248016036E+02  0.24989402862E+03  0.30224612658E+03  0.90349956599E+02 0.  0.
        -11    1    4    4    0    0 -0.12212707220E+03  0.14557242115E+02  0.20528020135E+03  0.23930502738E+03  0.00000000000E+00 0. -1.
         11    1    4    4    0    0 -0.19665447068E+02 -0.39805258151E+02  0.44613827271E+02  0.62941099201E+02  0.00000000000E+00 0.  1.
        -11    1    3    3    0    0  0.13860486632E+03  0.13367790701E+01  0.47594358380E+03  0.49571704723E+03  0.00000000000E+00 0.  1.
         11    1    3    3    0    0  0.19246231788E+02  0.90752787879E+01  0.35338973583E+01  0.21570038332E+02  0.00000000000E+00 0. -1.
         21    1    1    2  502  501 -0.16058578839E+02  0.14835958178E+02 -0.28671541146E+02  0.36056079669E+02  0.00000000000E+00 0. -1.
<scales pt_clust_5="13000.00000" pt_clust_6="13000.00000" pt_clust_7="13000.00000" pt_clust_8="13000.00000" pt_clust_9="21.86284"></scales>
<clustering>
<clus scale="   21.863">  2  9  1 -1</clus>
<clus scale="   90.350">  5  6 -1 -1</clus>
<clus scale="  112.525">  7  8 -1 -1</clus>
<clus scale="  176.851">  2  5  1 -1</clus>
<clus scale="   21.863">  2  5  1 -1</clus>
</clustering>
</event>
<event>
 9    1  0.9000149E-006  0.1094419E+03  0.7546771E-02  0.1262188E+00
         -1   -1    0    0    0  501 -0.00000000000E+00  0.00000000000E+00  0.43657779135E+02  0.43657779135E+02  0.00000000000E+00 0.  1.
          1   -1    0    0  502    0  0.00000000000E+00 -0.00000000000E+00 -0.41916586768E+03  0.41916586768E+03  0.00000000000E+00 0. -1.
         23    2    1    2    0    0 -0.35921638834E+02  0.51430883727E+02 -0.11469977347E+03  0.15937150023E+03  0.91146788825E+02 0.  0.
         23    2    1    2    0    0  0.49001193128E+02 -0.28162158183E+02 -0.12712462827E+03  0.16712960096E+03  0.92614298695E+02 0.  0.
        -11    1    4    4    0    0 -0.10083915438E+02 -0.36516867891E+02 -0.87908755336E+02  0.95724167565E+02  0.00000000000E+00 0. -1.
         11    1    4    4    0    0  0.59085108566E+02  0.83547097080E+01 -0.39215872936E+02  0.71405433397E+02  0.00000000000E+00 0.  1.
        -13    1    3    3    0    0  0.23207451225E+02  0.27454534030E+02 -0.10963970708E+02  0.37583851384E+02  0.00000000000E+00 0. -1.
         13    1    3    3    0    0 -0.59129090059E+02  0.23976349697E+02 -0.10373580276E+03  0.12178764884E+03  0.00000000000E+00 0.  1.
         21    1    1    2  502  501 -0.13079554293E+02 -0.23268725543E+02 -0.13368368680E+03  0.13632254562E+03  0.00000000000E+00 0. -1.
<scales pt_clust_5="13000.00000" pt_clust_6="13000.00000" pt_clust_7="13000.00000" pt_clust_8="13000.00000" pt_clust_9="26.69285"></scales>
<clustering>
<clus scale="   26.693">  2  9  1 -1</clus>
<clus scale="   91.147">  7  8 -1 -1</clus>
<clus scale="   92.614">  5  6 -1 -1</clus>
<clus scale="  108.203">  1  7  2 -1</clus>
<clus scale="   26.693">  2  5  1 -1</clus>
</clustering>
</event>
<event>
 9    1  0.9000149E-006  0.1087709E+03  0.7546771E-02  0.1264564E+00
          3   -1    0    0  502    0  0.00000000000E+00  0.00000000000E+00  0.10410301878E+03  0.10410301878E+03  0.00000000000E+00 0. -1.
         -3   -1    0    0    0  501 -0.00000000000E+00 -0.00000000000E+00 -0.28425462661E+03  0.28425462661E+03  0.00000000000E+00 0.  1.
         23    2    1    2    0    0 -0.57981946765E+01 -0.49241690380E+02 -0.20720832896E+03  0.23303380702E+03  0.94398625453E+02 0.  0.
         23    2    1    2    0    0  0.31119504229E+02  0.29372336717E+02 -0.82247090534E+01  0.10756675252E+03  0.98345323739E+02 0.  0.
        -11    1    3    3    0    0  0.32433516450E+02 -0.58179888052E+02 -0.14336990135E+03  0.15808782678E+03  0.00000000000E+00 0.  1.
         11    1    3    3    0    0 -0.38231711126E+02  0.89381976713E+01 -0.63838427609E+02  0.74945980232E+02  0.00000000000E+00 0. -1.
        -13    1    4    4    0    0  0.30700700440E+02 -0.31498264540E+02 -0.14640588958E+02  0.46357529287E+02  0.00000000000E+00 0.  1.
         13    1    4    4    0    0  0.41880378976E+00  0.60870601257E+02  0.64158799050E+01  0.61209223235E+02  0.00000000000E+00 0. -1.
         21    1    1    2  502  501 -0.25321309553E+02  0.19869353663E+02  0.35281430188E+02  0.47757085847E+02  0.00000000000E+00 0. -1.
<scales pt_clust_5="13000.00000" pt_clust_6="13000.00000" pt_clust_7="13000.00000" pt_clust_8="13000.00000" pt_clust_9="32.18633"></scales>
<clustering>
<clus scale="   32.186">  1  9  2 -1</clus>
<clus scale="   94.399">  5  6 -1 -1</clus>
<clus scale="   98.345">  7  8 -1 -1</clus>
<clus scale="  105.216">  2  5  1 -1</clus>
<clus scale="   32.186">  1  5  2 -1</clus>
</clustering>
</event>
<event>
 9    1  0.9000149E-006  0.1207450E+03  0.7546771E-02  0.1244290E+00
         -1   -1    0    0    0  501 -0.00000000000E+00  0.00000000000E+00  0.93438257846E+02  0.93438257846E+02  0.00000000000E+00 0.  1.
          1   -1    0    0  502    0  0.00000000000E+00 -0.00000000000E+00 -0.28077077620E+03  0.28077077620E+03  0.00000000000E+00 0. -1.
         23    2    1    2    0    0  0.53808178661E+02  0.59933389871E+02  0.10788268864E+02  0.12722260011E+03  0.97887036530E+02 0.  0.
         23    2    1    2    0    0 -0.16624212196E+02 -0.48314158017E+02 -0.11455757988E+03  0.15478847555E+03  0.90694050291E+02 0.  0.
        -13    1    3    3    0    0  0.16919414910E+02  0.47834611575E+02  0.50570652977E+02  0.71636635934E+02  0.00000000000E+00 0.  1.
         13    1    3    3    0    0  0.36888763752E+02  0.12098778296E+02 -0.39782384113E+02  0.55585964173E+02  0.00000000000E+00 0. -1.
        -13    1    4    4    0    0 -0.22672367989E+02  0.57408969738E-01 -0.10194407911E+03  0.10443483533E+03  0.00000000000E+00 0. -1.
         13    1    4    4    0    0  0.60481557923E+01 -0.48371566987E+02 -0.12613500775E+02  0.50353640217E+02  0.00000000000E+00 0.  1.
         21    1    1    2  502  501 -0.37183966465E+02 -0.11619231854E+02 -0.83563207339E+02  0.92197958393E+02  0.00000000000E+00 0. -1.
<scales pt_clust_5="13000.00000" pt_clust_6="13000.00000" pt_clust_7="13000.00000" pt_clust_8="13000.00000" pt_clust_9="38.95708"></scales>
<clustering>
<clus scale="   38.957">  2  9  1 -1</clus>
<clus scale="   90.694">  7  8 -1 -1</clus>
<clus scale="   97.887">  5  6 -1 -1</clus>
<clus scale="  114.991">  2  7  1 -1</clus>
<clus scale="   38.957">  2  5  1 -1</clus>
</clustering>
</event>
<event>
 9    1  0.9000149E-006  0.1428592E+03  0.7546771E-02  0.1214471E+00
          1   -1    0    0  502    0  0.00000000000E+00  0.00000000000E+00  0.27403775301E+03  0.27403775301E+03  0.00000000000E+00 0. -1.
         -1   -1    0    0    0  501 -0.00000000000E+00 -0.00000000000E+00 -0.21219523629E+03  0.21219523629E+03  0.00000000000E+00 0.  1.
         23    2    1    2    0    0  0.20822762165E+02 -0.91592439398E+02 -0.11007567025E+03  0.17128446341E+03  0.91645795569E+02 0.  0.
         23    2    1    2    0    0  0.11628068498E+02  0.84903312529E+02  0.17746705537E+00  0.14004090540E+03  0.11075937538E+03 0.  0.
        -11    1    3    3    0    0 -0.29726053421E+02 -0.46514733613E+01 -0.32368470074E+02  0.44192672598E+02  0.00000000000E+00 0.  1.
         11    1    3    3    0    0  0.50548815586E+02 -0.86940966036E+02 -0.77707200172E+02  0.12709179081E+03  0.00000000000E+00 0. -1.
        -13    1    4    4    0    0 -0.22936335730E+02  0.96950489842E+02  0.14614660427E+02  0.10069290579E+03  0.00000000000E+00 0. -1.
         13    1    4    4    0    0  0.34564404228E+02 -0.12047177312E+02 -0.14437193372E+02  0.39347999609E+02  0.00000000000E+00 0.  1.
         21    1    1    2  502  501 -0.32450830662E+02  0.66891268682E+01  0.17174071991E+03  0.17490762049E+03  0.00000000000E+00 0. -1.
<scales pt_clust_5="13000.00000" pt_clust_6="13000.00000" pt_clust_7="13000.00000" pt_clust_8="13000.00000" pt_clust_9="33.13308"></scales>
<clustering>
<clus scale="   33.133">  1  9  2 -1</clus>
<clus scale="   91.646">  5  6 -1 -1</clus>
<clus scale="  110.759">  7  8 -1 -1</clus>
<clus scale="  128.608">  2  5  1 -1</clus>
<clus scale="   33.133">  1  5  2 -1</clus>
</clustering>
</event>
<event>
 9    1  0.9000149E-006  0.1532820E+03  0.7546771E-02  0.1196931E+00
         -2   -1    0    0    0  501 -0.00000000000E+00  0.00000000000E+00  0.28651229950E+03  0.28651229950E+03  0.00000000000E+00 0.  1.
          2   -1    0    0  502    0  0.00000000000E+00 -0.00000000000E+00 -0.13819067435E+03  0.13819067435E+03  0.00000000000E+00 0. -1.
         23    2    1    2    0    0  0.11031938519E+03  0.62400563813E+02  0.19739757137E+03  0.25282261626E+03  0.94282962364E+02 0.  0.
         23    2    1    2    0    0 -0.93405999546E+02 -0.41600016130E+02 -0.36403195769E+02  0.14222695978E+03  0.91913401262E+02 0.  0.
        -11    1    3    3    0    0  0.57778251314E+02 -0.90160285767E+01  0.35984696296E+02  0.68662314727E+02  0.00000000000E+00 0.  1.
         11    1    3    3    0    0  0.52541133880E+02  0.71416592389E+02  0.16141287508E+03  0.18416030153E+03  0.00000000000E+00 0. -1.
        -11    1    4    4    0    0 -0.11484500406E+02  0.27686576088E+02 -0.46386251946E+01  0.30330794397E+02  0.00000000000E+00 0.  1.
         11    1    4    4    0    0 -0.81921499141E+02 -0.69286592219E+02 -0.31764570574E+02  0.11189616538E+03  0.00000000000E+00 0. -1.
         21    1    1    2  502  501 -0.16913385648E+02 -0.20800547682E+02 -0.12672750456E+02  0.29653397817E+02  0.00000000000E+00 0.  1.
<scales pt_clust_5="13000.00000" pt_clust_6="13000.00000" pt_clust_7="13000.00000" pt_clust_8="13000.00000" pt_clust_9="26.80905"></scales>
<clustering>
<clus scale="   26.809">  2  9  1 -1</clus>
<clus scale="   91.913">  7  8 -1 -1</clus>
<clus scale="   94.283">  5  6 -1 -1</clus>
<clus scale="  151.836">  2  7  1 -1</clus>
<clus scale="   26.809">  2  5  1 -1</clus>
</clustering>
</event>
<event>
 9    1  0.9000149E-006  0.1089195E+03  0.7546771E-02  0.1264709E+00
          1   -1    0    0  502    0  0.00000000000E+00  0.00000000000E+00  0.56306181713E+02  0.56306181713E+02  0.00000000000E+00 0. -1.
         -1   -1    0    0    0  501 -0.00000000000E+00 -0.00000000000E+00 -0.26265611935E+03  0.26265611935E+03  0.00000000000E+00 0.  1.
         23    2    1    2    0    0  0.83854607474E+01  0.63304709405E+02 -0.13034916899E+03  0.17367898887E+03  0.95371290937E+02 0.  0.
         23    2    1    2    0    0 -0.29564844128E+01 -0.38139999115E+02 -0.58967809106E+02  0.11441491186E+03  0.90278287607E+02 0.  0.
        -13    1    3    3    0    0 -0.12462006662E+02  0.82242899683E+02 -0.11397192876E+03  0.14109853544E+03  0.00000000000E+00 0. -1.
         13    1    3    3    0    0  0.20847467409E+02 -0.18938190278E+02 -0.16377240230E+02  0.32580453433E+02  0.00000000000E+00 0.  1.
        -13    1    4    4    0    0 -0.41202158756E+01 -0.63145148138E+02 -0.62728348136E+02  0.89101804539E+02  0.00000000000E+00 0.  1.
         13    1    4    4    0    0  0.11637314628E+01  0.25005149023E+02  0.37605390298E+01  0.25313107324E+02  0.00000000000E+00 0. -1.
         21    1    1    2  502  501 -0.54289763346E+01 -0.25164710290E+02 -0.17032959541E+02  0.30868400327E+02  0.00000000000E+00 0. -1.
<scales pt_clust_5="13000.00000" pt_clust_6="13000.00000" pt_clust_7="13000.00000" pt_clust_8="13000.00000" pt_clust_9="25.74367"></scales>
<clustering>
<clus scale="   25.744">  1  9  2 -1</clus>
<clus scale="   90.278">  7  8 -1 -1</clus>
<clus scale="   95.371">  5  6 -1 -1</clus>
<clus scale="  104.489">  1  7  2 -1</clus>
<clus scale="   25.744">  1  5  2 -1</clus>
</clustering>
</event>
<event>
 9    1  0.1014266E-005  0.1190408E+03  0.7546771E-02  0.1251669E+00
          1   -1    0    0  502    0  0.00000000000E+00  0.00000000000E+00  0.21675280895E+03  0.21675280895E+03  0.00000000000E+00 0. -1.
         -1   -1    0    0    0  501 -0.00000000000E+00 -0.00000000000E+00 -0.17841475189E+03  0.17841475189E+03  0.00000000000E+00 0.  1.
         23    2    1    2    0    0  0.47877726611E+01 -0.51694572939E+02 -0.13416101829E+03  0.16931993892E+03  0.89301798698E+02 0.  0.
         23    2    1    2    0    0  0.16914415230E+02  0.57709910522E+02  0.15258394529E+03  0.19578466048E+03  0.10692633775E+03 0.  0.
        -11    1    4    4    0    0  0.29091330163E+02 -0.38541894295E+01 -0.15275219658E+01  0.29385261445E+02  0.00000000000E+00 0.  1.
         11    1    4    4    0    0 -0.12176914933E+02  0.61564099951E+02  0.15411146726E+03  0.16639939904E+03  0.00000000000E+00 0. -1.
        -11    1    3    3    0    0  0.44125395249E+02 -0.45396863218E+02 -0.77868986722E+02  0.10035688710E+03  0.00000000000E+00 0.  1.
         11    1    3    3    0    0 -0.39337622588E+02 -0.62977097212E+01 -0.56292031564E+02  0.68963051819E+02  0.00000000000E+00 0. -1.
         21    1    1    2  502  501 -0.21702187891E+02 -0.60153375823E+01  0.19915130049E+02  0.30062961437E+02  0.00000000000E+00 0.  1.
<scales pt_clust_5="13000.00000" pt_clust_6="13000.00000" pt_clust_7="13000.00000" pt_clust_8="13000.00000" pt_clust_9="22.52042"></scales>
<clustering>
<clus scale="   22.520">  1  9  2 -1</clus>
<clus scale="   89.302">  7  8 -1 -1</clus>
<clus scale="  103.500">  2  7  1 -1</clus>
<clus scale="  106.926">  5  6 -1 -1</clus>
<clus scale="   22.520">  1  5  2 -1</clus>
</clustering>
</event>
<event>
 9    1  0.9000149E-006  0.1603153E+03  0.7546771E-02  0.1189059E+00
         -1   -1    0    0    0  501 -0.00000000000E+00  0.00000000000E+00  0.89111798916E+02  0.89111798916E+02  0.00000000000E+00 0.  1.
          1   -1    0    0  502    0  0.00000000000E+00 -0.00000000000E+00 -0.45855934913E+03  0.45855934913E+03  0.00000000000E+00 0. -1.
         23    2    1    2    0    0 -0.10925880088E+03  0.48903633439E+02 -0.98235976405E+02  0.18137900544E+03  0.94440381310E+02 0.  0.
         23    2    1    2    0    0  0.15415062444E+03  0.15972477033E+01 -0.20094056909E+03  0.26880558495E+03  0.90079764529E+02 0.  0.
        -11    1    3    3    0    0 -0.40073768736E+02  0.54068014504E+02 -0.88711529868E+02  0.11135076410E+03  0.00000000000E+00 0.  1.
         11    1    3    3    0    0 -0.69185032140E+02 -0.51643810648E+01 -0.95244465365E+01  0.70028241345E+02  0.00000000000E+00 0. -1.
        -13    1    4    4    0    0  0.66055992775E+02 -0.41185369024E+02 -0.65905784494E+02  0.10199608440E+03  0.00000000000E+00 0.  1.
         13    1    4    4    0    0  0.88094631667E+02  0.42782616728E+02 -0.13503478459E+03  0.16680950055E+03  0.00000000000E+00 0. -1.
         21    1    1    2  502  501 -0.44891823565E+02 -0.50500881143E+02 -0.70271004718E+02  0.97486557654E+02  0.00000000000E+00 0.  1.
<scales pt_clust_5="13000.00000" pt_clust_6="13000.00000" pt_clust_7="13000.00000" pt_clust_8="13000.00000" pt_clust_9="67.56933"></scales>
<clustering>
<clus scale="   67.569">  2  9  1 -1</clus>
<clus scale="   90.080">  7  8 -1 -1</clus>
<clus scale="   94.440">  5  6 -1 -1</clus>
<clus scale="  157.786">  2  7  1 -1</clus>
<clus scale="   67.569">  2  5  1 -1</clus>
</clustering>
</event>
<event>
 9    1  0.9000149E-006  0.9424532E+02  0.7546771E-02  0.1294445E+00
          1   -1    0    0  502    0  0.00000000000E+00  0.00000000000E+00  0.61054536021E+02  0.61054536021E+02  0.00000000000E+00 0. -1.
         -1   -1    0    0    0  501 -0.00000000000E+00 -0.00000000000E+00 -0.25078564123E+03  0.25078564123E+03  0.00000000000E+00 0.  1.
         23    2    1    2    0    0  0.23906213737E+01 -0.22895287018E+02 -0.15927557852E+03  0.18591138558E+03  0.93082888545E+02 0.  0.
         23    2    1    2    0    0  0.84132193327E+01 -0.56328725494E+01 -0.28840836790E+02  0.95380697034E+02  0.90350273864E+02 0.  0.
        -13    1    4    4    0    0  0.21999508481E+02  0.18821715283E+02 -0.51699343708E+02  0.59254176894E+02  0.00000000000E+00 0.  1.
         13    1    4    4    0    0 -0.13586289149E+02 -0.24454587832E+02  0.22858506918E+02  0.36126520140E+02  0.00000000000E+00 0. -1.
        -13    1    3    3    0    0 -0.18778670983E+02 -0.46383579001E+02 -0.44853270095E+02  0.67200377402E+02  0.00000000000E+00 0.  1.
         13    1    3    3    0    0  0.21169292356E+02  0.23488291983E+02 -0.11442230842E+03  0.11871100818E+03  0.00000000000E+00 0. -1.
         21    1    1    2  502  501 -0.10803840706E+02  0.28528159568E+02 -0.16146899045E+01  0.30548094635E+02  0.00000000000E+00 0. -1.
<scales pt_clust_5="13000.00000" pt_clust_6="13000.00000" pt_clust_7="13000.00000" pt_clust_8="13000.00000" pt_clust_9="30.50539"></scales>
<clustering>
<clus scale="   30.505">  1  9  2 -1</clus>
<clus scale="   90.350">  5  6 -1 -1</clus>
<clus scale="   91.547">  1  5  2 -1</clus>
<clus scale="   93.083">  7  8 -1 -1</clus>
<clus scale="   30.505">  1  5  2 -1</clus>
</clustering>
</event>
<event>
 9    1  0.9000149E-006  0.9227884E+02  0.7546771E-02  0.1297925E+00
          1   -1    0    0  502    0  0.00000000000E+00  0.00000000000E+00  0.73018354224E+03  0.73018354224E+03  0.00000000000E+00 0. -1.
         -1   -1    0    0    0  501 -0.00000000000E+00 -0.00000000000E+00 -0.15664297931E+02  0.15664297931E+02  0.00000000000E+00 0.  1.
         23    2    1    2    0    0 -0.10119878710E+02 -0.22753487374E+02  0.25070880503E+03  0.26752202271E+03  0.89961072603E+02 0.  0.
         23    2    1    2    0    0 -0.14336806146E+02  0.17388196418E+02  0.36669428481E+03  0.37803392726E+03  0.89090169267E+02 0.  0.
        -11    1    4    4    0    0  0.34949227633E+02  0.22834121751E+02  0.14698883419E+03  0.15280236584E+03  0.00000000000E+00 0. -1.
         11    1    4    4    0    0 -0.49286033780E+02 -0.54459253331E+01  0.21970545062E+03  0.22523156142E+03  0.00000000000E+00 0.  1.
        -13    1    3    3    0    0  0.83067785285E+01  0.32811709549E+02  0.11095025695E+03  0.11599814813E+03  0.00000000000E+00 0. -1.
         13    1    3    3    0    0 -0.18426657238E+02 -0.55565196923E+02  0.13975854808E+03  0.15152387458E+03  0.00000000000E+00 0.  1.
         21    1    1    2  502  501  0.24456684856E+02  0.53652909561E+01  0.97116154474E+02  0.10029189021E+03  0.00000000000E+00 0. -1.
<scales pt_clust_5="13000.00000" pt_clust_6="13000.00000" pt_clust_7="13000.00000" pt_clust_8="13000.00000" pt_clust_9="25.03829"></scales>
<clustering>
<clus scale="   25.038">  1  9  2 -1</clus>
<clus scale="   89.090">  5  6 -1 -1</clus>
<clus scale="   89.961">  7  8 -1 -1</clus>
<clus scale="   91.430">  1  5  2 -1</clus>
<clus scale="   25.038">  1  5  2 -1</clus>
</clustering>
</event>
<event>
 9    1  0.9000149E-006  0.1183978E+03  0.7546771E-02  0.1246225E+00
         -2   -1    0    0    0  501 -0.00000000000E+00  0.00000000000E+00  0.29988175536E+03  0.29988175536E+03  0.00000000000E+00 0.  1.
          2   -1    0    0  502    0  0.00000000000E+00 -0.00000000000E+00 -0.57101493832E+02  0.57101493832E+02  0.00000000000E+00 0. -1.
         23    2    1    2    0    0  0.53825026155E+02  0.60633216543E+02  0.14025734779E+03  0.18614569826E+03  0.91676479995E+02 0.  0.
         23    2    1    2    0    0 -0.57457092643E+02 -0.37930794831E+02  0.88120044335E+02  0.14370759506E+03  0.90258894144E+02 0.  0.
        -13    1    3    3    0    0 -0.18248383052E+02  0.35916523538E+02  0.23241856824E+02  0.46510042525E+02  0.00000000000E+00 0. -1.
         13    1    3    3    0    0  0.72073409207E+02  0.24716693005E+02  0.11701549097E+03  0.13963565574E+03  0.00000000000E+00 0.  1.
        -13    1    4    4    0    0  0.11544085397E+02 -0.18009162961E+02  0.64733464628E+02  0.68176369080E+02  0.00000000000E+00 0.  1.
         13    1    4    4    0    0 -0.69001178039E+02 -0.19921631870E+02  0.23386579706E+02  0.75531225977E+02  0.00000000000E+00 0. -1.
         21    1    1    2  502  501  0.36320664877E+01 -0.22702421711E+02  0.14402869404E+02  0.27129955872E+02  0.00000000000E+00 0. -1.
<scales pt_clust_5="13000.00000" pt_clust_6="13000.00000" pt_clust_7="13000.00000" pt_clust_8="13000.00000" pt_clust_9="22.99113"></scales>
<clustering>
<clus scale="   22.991">  2  9  1 -1</clus>
<clus scale="   90.259">  7  8 -1 -1</clus>
<clus scale="   91.676">  5  6 -1 -1</clus>
<clus scale="  117.304">  2  7  1 -1</clus>
<clus scale="   22.991">  2  5  1 -1</clus>
</clustering>
</event>
<event>
 9    1  0.9000149E-006  0.1081087E+03  0.7546771E-02  0.1264967E+00
         -1   -1    0    0    0  501 -0.00000000000E+00  0.00000000000E+00  0.20421958170E+03  0.20421958170E+03  0.00000000000E+00 0.  1.
          1   -1    0    0  502    0  0.00000000000E+00 -0.00000000000E+00 -0.19064233812E+03  0.19064233812E+03  0.00000000000E+00 0. -1.
         23    2    1    2    0    0 -0.31780036078E+02 -0.68637280673E+02  0.90639454572E+02  0.14951830007E+03  0.91756004381E+02 0.  0.
         23    2    1    2    0    0  0.58079084597E+02 -0.14865637636E+02 -0.10540966094E+03  0.15332212641E+03  0.93820629798E+02 0.  0.
        -11    1    3    3    0    0  0.47260612890E+01 -0.42203830004E+02 -0.59960553077E+01  0.42888828400E+02  0.00000000000E+00 0. -1.
         11    1    3    3    0    0 -0.36506097367E+02 -0.26433450670E+02  0.96635509880E+02  0.10662947167E+03  0.00000000000E+00 0.  1.
        -13    1    4    4    0    0  0.53977814228E+02 -0.50731656131E+02 -0.60103645765E+02  0.95392628629E+02  0.00000000000E+00 0. -1.
         13    1    4    4    0    0  0.41012703690E+01  0.35866018495E+02 -0.45306015179E+02  0.57929497777E+02  0.00000000000E+00 0.  1.
         21    1    1    2  502  501 -0.26299048519E+02  0.83502918309E+02  0.28347449954E+02  0.92021493348E+02  0.00000000000E+00 0.  1.
<scales pt_clust_5="13000.00000" pt_clust_6="13000.00000" pt_clust_7="13000.00000" pt_clust_8="13000.00000" pt_clust_9="87.54643"></scales>
<clustering>
<clus scale="   87.546">  1  9  2 -1</clus>
<clus scale="   91.756">  5  6 -1 -1</clus>
<clus scale="   93.821">  7  8 -1 -1</clus>
<clus scale="  106.322">  1  5  2 -1</clus>
<clus scale="  108.109">  2  5  1 -1</clus>
</clustering>
</event>
<event>
 9    1  0.9000149E-006  0.9822234E+02  0.7546771E-02  0.1284955E+00
         -1   -1    0    0    0  501 -0.00000000000E+00  0.00000000000E+00  0.49207878271E+02  0.49207878271E+02  0.00000000000E+00 0.  1.
          1   -1    0    0  502    0  0.00000000000E+00 -0.00000000000E+00 -0.37527778726E+03  0.37527778726E+03  0.00000000000E+00 0. -1.
         23    2    1    2    0    0  0.53866320078E+02  0.37193461149E+02 -0.68996161888E+02  0.13066592718E+03  0.89600112616E+02 0.  0.
         23    2    1    2    0    0 -0.24504743167E+02 -0.11221165630E+02 -0.22059361821E+03  0.24027104894E+03  0.91335839451E+02 0.  0.
        -11    1    4    4    0    0 -0.24829407366E+02 -0.39808984590E+02 -0.55291762604E+02  0.72515058685E+02  0.00000000000E+00 0.  1.
         11    1    4    4    0    0  0.32466419901E+00  0.28587818960E+02 -0.16530185561E+03  0.16775599026E+03  0.00000000000E+00 0. -1.
        -13    1    3    3    0    0  0.34552319704E+02  0.44086017026E+02  0.27165841570E+01  0.56078690460E+02  0.00000000000E+00 0. -1.
         13    1    3    3    0    0  0.19314000374E+02 -0.68925558771E+01 -0.71712746045E+02  0.74587236725E+02  0.00000000000E+00 0.  1.
         21    1    1    2  502  501 -0.29361576911E+02 -0.25972295519E+02 -0.36480128891E+02  0.53548689406E+02  0.00000000000E+00 0.  1.
<scales pt_clust_5="13000.00000" pt_clust_6="13000.00000" pt_clust_7="13000.00000" pt_clust_8="13000.00000" pt_clust_9="39.20028"></scales>
<clustering>
<clus scale="   39.200">  1  9  2 -1</clus>
<clus scale="   89.600">  7  8 -1 -1</clus>
<clus scale="   91.336">  5  6 -1 -1</clus>
<clus scale="   96.610">  1  7  2 -1</clus>
<clus scale="   98.222">  2  5  1 -1</clus>
</clustering>
</event>
<event>
 9    1  0.9000149E-006  0.1132047E+03  0.7546771E-02  0.1255448E+00
         -2   -1    0    0    0  501 -0.00000000000E+00  0.00000000000E+00  0.13634504081E+03  0.13634504081E+03  0.00000000000E+00 0.  1.
          2   -1    0    0  502    0  0.00000000000E+00 -0.00000000000E+00 -0.31261270162E+03  0.31261270162E+03  0.00000000000E+00 0. -1.
         23    2    1    2    0    0  0.23774515988E+02 -0.62415189836E+02  0.87375684758E+02  0.14204495056E+03  0.89896463558E+02 0.  0.
         23    2    1    2    0    0 -0.58315784409E+02  0.42174803256E+02 -0.20572155096E+03  0.23650180719E+03  0.91827575010E+02 0.  0.
        -11    1    3    3    0    0 -0.17513520920E+02 -0.37413849125E+02  0.84061622242E+02  0.93663631445E+02  0.00000000000E+00 0.  1.
         11    1    3    3    0    0  0.41288036908E+02 -0.25001340710E+02  0.33140625153E+01  0.48381319116E+02  0.00000000000E+00 0. -1.
        -13    1    4    4    0    0 -0.24812255861E+01  0.29967106339E+02 -0.86195899275E+01  0.31280685306E+02  0.00000000000E+00 0.  1.
         13    1    4    4    0    0 -0.55834558823E+02  0.12207696918E+02 -0.19710196103E+03  0.20522112188E+03  0.00000000000E+00 0. -1.
         21    1    1    2  502  501  0.34541268421E+02  0.20240386579E+02 -0.57921794606E+02  0.70410984679E+02  0.00000000000E+00 0. -1.
<scales pt_clust_5="13000.00000" pt_clust_6="13000.00000" pt_clust_7="13000.00000" pt_clust_8="13000.00000" pt_clust_9="40.03464"></scales>
<clustering>
<clus scale="   40.035">  2  9  1 -1</clus>
<clus scale="   89.896">  5  6 -1 -1</clus>
<clus scale="   91.828">  7  8 -1 -1</clus>
<clus scale="  111.644">  1  5  2 -1</clus>
<clus scale="   40.035">  2  5  1 -1</clus>
</clustering>
</event>
<event>
 9    1  0.9000149E-006  0.1065754E+03  0.7546771E-02  0.1269615E+00
          1   -1    0    0  502    0  0.00000000000E+00  0.00000000000E+00  0.30045137612E+03  0.30045137612E+03  0.00000000000E+00 0. -1.
         -1   -1    0    0    0  501 -0.00000000000E+00 -0.00000000000E+00 -0.87554012373E+02  0.87554012373E+02  0.00000000000E+00 0.  1.
         23    2    1    2    0    0 -0.30065062691E+02 -0.10647968114E+02 -0.64462820057E+01  0.96968373406E+02  0.91345627535E+02 0.  0.
         23    2    1    2    0    0  0.84108741014E+02  0.13967972307E+01  0.11163517265E+03  0.17017586124E+03  0.97062766397E+02 0.  0.
        -11    1    3    3    0    0 -0.11263781407E+02 -0.20708378355E+02  0.39678575764E+02  0.46152996439E+02  0.00000000000E+00 0. -1.
         11    1    3    3    0    0 -0.18801281284E+02  0.10060410241E+02 -0.46124857769E+02  0.50815376968E+02  0.00000000000E+00 0.  1.
        -13    1    4    4    0    0  0.80629170706E+02  0.36753464481E+02  0.58223810438E+02  0.10602779080E+03  0.00000000000E+00 0.  1.
         13    1    4    4    0    0  0.34795703076E+01 -0.35356667250E+02  0.53411362208E+02  0.64148070443E+02  0.00000000000E+00 0. -1.
         21    1    1    2  502  501 -0.54043678323E+02  0.92511708833E+01  0.10770847311E+03  0.12086115384E+03  0.00000000000E+00 0. -1.
<scales pt_clust_5="13000.00000" pt_clust_6="13000.00000" pt_clust_7="13000.00000" pt_clust_8="13000.00000" pt_clust_9="54.82977"></scales>
<clustering>
<clus scale="   54.830">  1  9  2 -1</clus>
<clus scale="   91.346">  5  6 -1 -1</clus>
<clus scale="   97.063">  7  8 -1 -1</clus>
<clus scale="  101.396">  2  5  1 -1</clus>
<clus scale="   54.830">  1  5  2 -1</clus>
</clustering>
</event>
<event>
 9    1  0.9000149E-006  0.1005283E+03  0.7546771E-02  0.1282589E+00
          1   -1    0    0  502    0  0.00000000000E+00  0.00000000000E+00  0.16206253493E+03  0.16206253493E+03  0.00000000000E+00 0. -1.
         -1   -1    0    0    0  501 -0.00000000000E+00 -0.00000000000E+00 -0.80365379418E+02  0.80365379418E+02  0.00000000000E+00 0.  1.
         23    2    1    2    0    0  0.32905760977E+02  0.60320415840E+01  0.17169235427E+02  0.92791442867E+02  0.84830976613E+02 0.  0.
         23    2    1    2    0    0 -0.51700912937E+02  0.75961232950E+01  0.33310656526E+02  0.11073271640E+03  0.91768454034E+02 0.  0.
        -11    1    4    4    0    0 -0.66268666003E+01 -0.27275177551E+02  0.44541854650E+02  0.52648147993E+02  0.00000000000E+00 0.  1.
         11    1    4    4    0    0 -0.45074046337E+02  0.34871300846E+02 -0.11231198125E+02  0.58084568409E+02  0.00000000000E+00 0. -1.
        -13    1    3    3    0    0 -0.15973176273E+02 -0.15895639139E+02  0.30177201687E+02  0.37662676558E+02  0.00000000000E+00 0. -1.
         13    1    3    3    0    0  0.48878937250E+02  0.21927680723E+02 -0.13007966259E+02  0.55128766309E+02  0.00000000000E+00 0.  1.
         21    1    1    2  502  501  0.18795151960E+02 -0.13628164879E+02  0.31217263563E+02  0.38903755083E+02  0.00000000000E+00 0. -1.
<scales pt_clust_5="13000.00000" pt_clust_6="13000.00000" pt_clust_7="13000.00000" pt_clust_8="13000.00000" pt_clust_9="23.21604"></scales>
<clustering>
<clus scale="   23.216">  1  9  2 -1</clus>
<clus scale="   84.831">  7  8 -1 -1</clus>
<clus scale="   91.768">  5  6 -1 -1</clus>
<clus scale="   94.238">  2  7  1 -1</clus>
<clus scale="   23.216">  1  5  2 -1</clus>
</clustering>
</event>
<event>
 9    1  0.9000149E-006  0.1021395E+03  0.7546771E-02  0.1276238E+00
         -2   -1    0    0    0  501 -0.00000000000E+00  0.00000000000E+00  0.30118797622E+03  0.30118797622E+03  0.00000000000E+00 0.  1.
          2   -1    0    0  502    0  0.00000000000E+00 -0.00000000000E+00 -0.78227933196E+02  0.78227933196E+02  0.00000000000E+00 0. -1.
         23    2    1    2    0    0 -0.38912830537E+02 -0.19282981692E+02  0.15685550637E+03  0.18691339967E+03  0.91907166942E+02 0.  0.
         23    2    1    2    0    0  0.15788646162E+02  0.54966765284E+02  0.93003512962E+02  0.14218735060E+03  0.91087664446E+02 0.  0.
        -11    1    3    3    0    0  0.28375615450E+02 -0.18149381447E+02  0.62771725062E+02  0.71238087189E+02  0.00000000000E+00 0. -1.
         11    1    3    3    0    0 -0.67288445987E+02 -0.11336002443E+01  0.94083781304E+02  0.11567531248E+03  0.00000000000E+00 0.  1.
        -13    1    4    4    0    0 -0.21084321684E+02  0.24478981708E+02  0.88403482584E+02  0.94121968208E+02  0.00000000000E+00 0.  1.
         13    1    4    4    0    0  0.36872967846E+02  0.30487783576E+02  0.46000303787E+01  0.48065382393E+02  0.00000000000E+00 0. -1.
         21    1    1    2  502  501  0.23124184375E+02 -0.35683783592E+02 -0.26898976300E+02  0.50315159151E+02  0.00000000000E+00 0. -1.
<scales pt_clust_5="13000.00000" pt_clust_6="13000.00000" pt_clust_7="13000.00000" pt_clust_8="13000.00000" pt_clust_9="42.52129"></scales>
<clustering>
<clus scale="   42.521">  2  9  1 -1</clus>
<clus scale="   91.088">  7  8 -1 -1</clus>
<clus scale="   91.907">  5  6 -1 -1</clus>
<clus scale="  101.403">  2  7  1 -1</clus>
<clus scale="   42.521">  2  5  1 -1</clus>
</clustering>
</event>
<event>
 9    1  0.9000149E-006  0.1988970E+03  0.7546771E-02  0.1150773E+00
          2   -1    0    0  502    0  0.00000000000E+00  0.00000000000E+00  0.13046554406E+04  0.13046554406E+04  0.00000000000E+00 0. -1.
         -2   -1    0    0    0  501 -0.00000000000E+00 -0.00000000000E+00 -0.65925016661E+02  0.65925016661E+02  0.00000000000E+00 0.  1.
         23    2    1    2    0    0  0.15584352056E+03  0.70259152770E+02  0.26654006292E+03  0.32963371763E+03  0.91603663727E+02 0.  0.
         23    2    1    2    0    0 -0.20513180605E+03  0.44976355207E+02  0.46096133988E+03  0.51457836156E+03  0.90573743082E+02 0.  0.
        -13    1    4    4    0    0 -0.61437582125E+02 -0.21923394653E+02  0.18722312269E+03  0.19826171946E+03  0.00000000000E+00 0. -1.
         13    1    4    4    0    0 -0.14369422392E+03  0.66899749860E+02  0.27373821719E+03  0.31631664210E+03  0.00000000000E+00 0.  1.
        -13    1    3    3    0    0  0.36301013250E+02  0.59256283084E+02  0.65595457153E+02  0.95560633354E+02  0.00000000000E+00 0.  1.
         13    1    3    3    0    0  0.11954250731E+03  0.11002869686E+02  0.20094460577E+03  0.23407308427E+03  0.00000000000E+00 0. -1.
         21    1    1    2  502  501  0.49288285491E+02 -0.11523550798E+03  0.51122902110E+03  0.52636837804E+03  0.00000000000E+00 0.  1.
<scales pt_clust_5="13000.00000" pt_clust_6="13000.00000" pt_clust_7="13000.00000" pt_clust_8="13000.00000" pt_clust_9="125.33378"></scales>
<clustering>
<clus scale="   90.574">  5  6 -1 -1</clus>
<clus scale="   91.604">  7  8 -1 -1</clus>
<clus scale="  125.334">  1  9  2 -1</clus>
<clus scale="  198.425">  1  5  2 -1</clus>
<clus scale="  125.334">  1  5  2 -1</clus>
</clustering>
</event>
<event>
 9    1  0.9000149E-006  0.1287116E+03  0.7546771E-02  0.1231913E+00
          2   -1    0    0  502    0  0.00000000000E+00  0.00000000000E+00  0.12009651770E+03  0.12009651770E+03  0.00000000000E+00 0. -1.
         -2   -1    0    0    0  501 -0.00000000000E+00 -0.00000000000E+00 -0.16758979639E+03  0.16758979639E+03  0.00000000000E+00 0.  1.
         23    2    1    2    0    0  0.94605539625E+02  0.13750553810E+02 -0.25560961720E+02  0.13427565828E+03  0.90759593343E+02 0.  0.
         23    2    1    2    0    0 -0.67798997972E+02 -0.20817087138E+02 -0.79696405593E+01  0.12237063486E+03  0.99403228632E+02 0.  0.
        -11    1    4    4    0    0  0.23544133282E+02 -0.14284051312E+02 -0.13415741012E+02  0.30632375696E+02  0.00000000000E+00 0.  1.
         11    1    4    4    0    0 -0.91343131254E+02 -0.65330358260E+01  0.54461004531E+01  0.91738259165E+02  0.00000000000E+00 0. -1.
        -11    1    3    3    0    0  0.11406880225E+01  0.22971871927E+02  0.19456104503E+02  0.30125538525E+02  0.00000000000E+00 0. -1.
         11    1    3    3    0    0  0.93464851602E+02 -0.92213181176E+01 -0.45017066223E+02  0.10415011975E+03  0.00000000000E+00 0.  1.
         21    1    1    2  502  501 -0.26806541652E+02  0.70665333277E+01 -0.13962676409E+02  0.31040020959E+02  0.00000000000E+00 0.  1.
<scales pt_clust_5="13000.00000" pt_clust_6="13000.00000" pt_clust_7="13000.00000" pt_clust_8="13000.00000" pt_clust_9="27.72231"></scales>
<clustering>
<clus scale="   27.722">  2  9  1 -1</clus>
<clus scale="   90.760">  7  8 -1 -1</clus>
<clus scale="   99.403">  5  6 -1 -1</clus>
<clus scale="  122.160">  2  7  1 -1</clus>
<clus scale="  128.712">  1  5  2 -1</clus>
</clustering>
</event>
<event>
 9    1  0.9000149E-006  0.2072693E+03  0.7546771E-02  0.1143753E+00
          1   -1    0    0  502    0  0.00000000000E+00  0.00000000000E+00  0.16473327551E+03  0.16473327551E+03  0.00000000000E+00 0. -1.
         -1   -1    0    0    0  501 -0.00000000000E+00 -0.00000000000E+00 -0.54201832141E+03  0.54201832141E+03  0.00000000000E+00 0.  1.
         23    2    1    2    0    0  0.45353892183E+02 -0.18635928786E+03 -0.40983931066E+03  0.46181114111E+03  0.92274101339E+02 0.  0.
         23    2    1    2    0    0 -0.13540121038E+02  0.16492709155E+03 -0.73631688056E+01  0.18957930901E+03  0.92205302154E+02 0.  0.
        -11    1    4    4    0    0 -0.12659924773E+02  0.13947412008E+03 -0.42344359439E+02  0.14630908599E+03  0.00000000000E+00 0.  1.
         11    1    4    4    0    0 -0.88019626490E+00  0.25452971473E+02  0.34981190634E+02  0.43270223023E+02  0.00000000000E+00 0. -1.
        -13    1    3    3    0    0  0.44964656278E+02 -0.16014189279E+03 -0.40101935845E+03  0.43414717780E+03  0.00000000000E+00 0. -1.
         13    1    3    3    0    0  0.38923590518E+00 -0.26217395072E+02 -0.88199522170E+01  0.27663963311E+02  0.00000000000E+00 0.  1.
         21    1    1    2  502  501 -0.31813771145E+02  0.21432196308E+02  0.39917433566E+02  0.55361146805E+02  0.00000000000E+00 0. -1.
<scales pt_clust_5="13000.00000" pt_clust_6="13000.00000" pt_clust_7="13000.00000" pt_clust_8="13000.00000" pt_clust_9="38.35955"></scales>
<clustering>
<clus scale="   38.360">  1  9  2 -1</clus>
<clus scale="   92.205">  5  6 -1 -1</clus>
<clus scale="   92.274">  7  8 -1 -1</clus>
<clus scale="  207.239">  1  5  2 -1</clus>
<clus scale="   38.360">  1  5  2 -1</clus>
</clustering>
</event>
<event>
 9    1  0.9000149E-006  0.1065111E+03  0.7546771E-02  0.1267232E+00
         -2   -1    0    0    0  501 -0.00000000000E+00  0.00000000000E+00  0.42021578702E+02  0.42021578702E+02  0.00000000000E+00 0.  1.
          2   -1    0    0  502    0  0.00000000000E+00 -0.00000000000E+00 -0.51402117187E+03  0.51402117187E+03  0.00000000000E+00 0. -1.
         23    2    1    2    0    0 -0.42360936234E+02  0.48235688264E+02 -0.74339746494E+02  0.13393591399E+03  0.91056579157E+02 0.  0.
         23    2    1    2    0    0  0.14761151485E+01 -0.35580485950E+02 -0.29980125249E+03  0.31529846988E+03  0.90907558645E+02 0.  0.
        -11    1    3    3    0    0  0.23510641615E+02  0.16837158245E+02 -0.48608651605E+02  0.56560066989E+02  0.00000000000E+00 0. -1.
         11    1    3    3    0    0 -0.65871577849E+02  0.31398530019E+02 -0.25731094889E+02  0.77375847005E+02  0.00000000000E+00 0.  1.
        -13    1    4    4    0    0 -0.44057784683E+02 -0.15755157072E+02 -0.12110869224E+03  0.12983308015E+03  0.00000000000E+00 0.  1.
         13    1    4    4    0    0  0.45533899832E+02 -0.19825328879E+02 -0.17869256025E+03  0.18546538973E+03  0.00000000000E+00 0. -1.
         21    1    1    2  502  501  0.40884821085E+02 -0.12655202313E+02 -0.97858594186E+02  0.10680836670E+03  0.00000000000E+00 0. -1.
<scales pt_clust_5="13000.00000" pt_clust_6="13000.00000" pt_clust_7="13000.00000" pt_clust_8="13000.00000" pt_clust_9="42.79863"></scales>
<clustering>
<clus scale="   42.799">  2  9  1 -1</clus>
<clus scale="   90.908">  7  8 -1 -1</clus>
<clus scale="   91.057">  5  6 -1 -1</clus>
<clus scale="  106.384">  2  7  1 -1</clus>
<clus scale="   42.799">  2  5  1 -1</clus>
</clustering>
</event>
<event>
 9    1  0.9000149E-006  0.1101988E+03  0.7546771E-02  0.1262891E+00
          1   -1    0    0  502    0  0.00000000000E+00  0.00000000000E+00  0.22126746423E+03  0.22126746423E+03  0.00000000000E+00 0. -1.
         -1   -1    0    0    0  501 -0.00000000000E+00 -0.00000000000E+00 -0.81130293307E+02  0.81130293307E+02  0.00000000000E+00 0.  1.
         23    2    1    2    0    0  0.39845247311E+02 -0.28903008995E+02  0.20364174626E+02  0.11154993266E+03  0.98008470071E+02 0.  0.
         23    2    1    2    0    0 -0.15616762489E+02  0.58002706598E+02  0.78033627949E+02  0.13449193124E+03  0.91600410670E+02 0.  0.
        -13    1    3    3    0    0 -0.17474323198E+02 -0.19417878123E+02 -0.26271820394E+02  0.37048812516E+02  0.00000000000E+00 0. -1.
         13    1    3    3    0    0  0.57319570510E+02 -0.94851308714E+01  0.46635995019E+02  0.74501120143E+02  0.00000000000E+00 0.  1.
        -13    1    4    4    0    0  0.22755157729E+02  0.83151908301E+01  0.66349836421E+02  0.70634555247E+02  0.00000000000E+00 0. -1.
         13    1    4    4    0    0 -0.38371920219E+02  0.49687515768E+02  0.11683791528E+02  0.63857375995E+02  0.00000000000E+00 0.  1.
         21    1    1    2  502  501 -0.24228484822E+02 -0.29099697603E+02  0.41739368344E+02  0.56355893633E+02  0.00000000000E+00 0. -1.
<scales pt_clust_5="13000.00000" pt_clust_6="13000.00000" pt_clust_7="13000.00000" pt_clust_8="13000.00000" pt_clust_9="37.86571"></scales>
<clustering>
<clus scale="   37.866">  1  9  2 -1</clus>
<clus scale="   91.600">  7  8 -1 -1</clus>
<clus scale="   98.008">  5  6 -1 -1</clus>
<clus scale="  104.541">  1  7  2 -1</clus>
<clus scale="   37.866">  1  5  2 -1</clus>
</clustering>
</event>
<event>
 9    1  0.9000149E-006  0.3003561E+03  0.7546771E-02  0.1085159E+00
          1   -1    0    0  502    0  0.00000000000E+00  0.00000000000E+00  0.84118502670E+03  0.84118502670E+03  0.00000000000E+00 0. -1.
         -1   -1    0    0    0  501 -0.00000000000E+00 -0.00000000000E+00 -0.53969357309E+03  0.53969357309E+03  0.00000000000E+00 0.  1.
         23    2    1    2    0    0  0.28495450454E+03  0.39604363138E+02 -0.46060925399E+03  0.55086397524E+03  0.92318249099E+02 0.  0.
         23    2    1    2    0    0 -0.25084022229E+03 -0.39389240403E+02  0.74431418991E+03  0.79154137743E+03  0.89787579883E+02 0.  0.
        -11    1    3    3    0    0  0.13925609853E+03  0.60546177392E+02 -0.19447816081E+03  0.24673843561E+03  0.00000000000E+00 0.  1.
         11    1    3    3    0    0  0.14569840602E+03 -0.20941814254E+02 -0.26613109318E+03  0.30412553963E+03  0.00000000000E+00 0. -1.
        -11    1    4    4    0    0 -0.18055215173E+03 -0.57394034139E+02  0.61180798822E+03  0.64047027183E+03  0.00000000000E+00 0. -1.
         11    1    4    4    0    0 -0.70288070555E+02  0.18004793736E+02  0.13250620170E+03  0.15107110560E+03  0.00000000000E+00 0.  1.
         21    1    1    2  502  501 -0.34114282256E+02 -0.21512273518E+00  0.17786517696E+02  0.38473247113E+02  0.00000000000E+00 0. -1.
<scales pt_clust_5="13000.00000" pt_clust_6="13000.00000" pt_clust_7="13000.00000" pt_clust_8="13000.00000" pt_clust_9="34.11496"></scales>
<clustering>
<clus scale="   34.115">  1  9  2 -1</clus>
<clus scale="   89.788">  7  8 -1 -1</clus>
<clus scale="   92.318">  5  6 -1 -1</clus>
<clus scale="  299.588">  1  7  2 -1</clus>
<clus scale="   34.115">  1  5  2 -1</clus>
</clustering>
</event>
<event>
 9    1  0.9000149E-006  0.1057949E+03  0.7546771E-02  0.1268902E+00
          1   -1    0    0  502    0  0.00000000000E+00  0.00000000000E+00  0.66458197227E+02  0.66458197227E+02  0.00000000000E+00 0. -1.
         -1   -1    0    0    0  501 -0.00000000000E+00 -0.00000000000E+00 -0.31358423186E+03  0.31358423186E+03  0.00000000000E+00 0.  1.
         23    2    1    2    0    0  0.96172022483E+01 -0.56592257309E+02 -0.21880082526E+03  0.24368256024E+03  0.90621271581E+02 0.  0.
         23    2    1    2    0    0  0.18999900059E+02  0.47430965446E+02 -0.21155787535E+02  0.10546863348E+03  0.89807419612E+02 0.  0.
        -11    1    4    4    0    0 -0.33710487254E+02  0.18683160332E+02 -0.23926685595E+02  0.45364564524E+02  0.00000000000E+00 0. -1.
         11    1    4    4    0    0  0.52710387313E+02  0.28747805113E+02  0.27708980596E+01  0.60104068960E+02  0.00000000000E+00 0.  1.
        -11    1    3    3    0    0  0.16685448371E+02 -0.80407510184E+02 -0.15982002928E+03  0.17968364879E+03  0.00000000000E+00 0.  1.
         11    1    3    3    0    0 -0.70682461222E+01  0.23815252875E+02 -0.58980795974E+02  0.63998911448E+02  0.00000000000E+00 0. -1.
         21    1    1    2  502  501 -0.28617102308E+02  0.91612918631E+01 -0.71694218404E+01  0.30891235369E+02  0.00000000000E+00 0. -1.
<scales pt_clust_5="13000.00000" pt_clust_6="13000.00000" pt_clust_7="13000.00000" pt_clust_8="13000.00000" pt_clust_9="30.04776"></scales>
<clustering>
<clus scale="   30.048">  1  9  2 -1</clus>
<clus scale="   89.807">  5  6 -1 -1</clus>
<clus scale="   90.621">  7  8 -1 -1</clus>
<clus scale="  105.099">  1  5  2 -1</clus>
<clus scale="   30.048">  1  5  2 -1</clus>
</clustering>
</event>
<event>
 9    1  0.9000149E-006  0.3691604E+03  0.7546771E-02  0.1055050E+00
          1   -1    0    0  502    0  0.00000000000E+00  0.00000000000E+00  0.84431928847E+03  0.84431928847E+03  0.00000000000E+00 0. -1.
         -1   -1    0    0    0  501 -0.00000000000E+00 -0.00000000000E+00 -0.21019178797E+03  0.21019178797E+03  0.00000000000E+00 0.  1.
         23    2    1    2    0    0  0.59364505004E+02  0.36052446192E+03  0.19767015668E+03  0.42564359252E+03  0.92719711590E+02 0.  0.
         23    2    1    2    0    0 -0.18004643600E+02 -0.34904239495E+03  0.25437756982E+03  0.44179658800E+03  0.91222346349E+02 0.  0.
        -11    1    4    4    0    0  0.35236297337E+02 -0.14057794277E+03  0.85393046192E+02  0.16821333770E+03  0.00000000000E+00 0.  1.
         11    1    4    4    0    0 -0.53240940937E+02 -0.20846445218E+03  0.16898452363E+03  0.27358325029E+03  0.00000000000E+00 0. -1.
        -13    1    3    3    0    0  0.19422243277E+02  0.23703165941E+03  0.17157112663E+03  0.29325395580E+03  0.00000000000E+00 0.  1.
         13    1    3    3    0    0  0.39942261727E+02  0.12349280251E+03  0.26099030050E+02  0.13238963672E+03  0.00000000000E+00 0. -1.
         21    1    1    2  502  501 -0.41359861404E+02 -0.11482066969E+02  0.18207977401E+03  0.18707089592E+03  0.00000000000E+00 0. -1.
<scales pt_clust_5="13000.00000" pt_clust_6="13000.00000" pt_clust_7="13000.00000" pt_clust_8="13000.00000" pt_clust_9="42.92407"></scales>
<clustering>
<clus scale="   42.924">  1  9  2 -1</clus>
<clus scale="   91.222">  5  6 -1 -1</clus>
<clus scale="   92.720">  7  8 -1 -1</clus>
<clus scale="  368.787">  1  5  2 -1</clus>
<clus scale="   42.924">  1  5  2 -1</clus>
</clustering>
</event>
<event>
 9    1  0.9000149E-006  0.1665299E+03  0.7546771E-02  0.1182555E+00
          1   -1    0    0  502    0  0.00000000000E+00  0.00000000000E+00  0.57293962100E+02  0.57293962100E+02  0.00000000000E+00 0. -1.
         -1   -1    0    0    0  501 -0.00000000000E+00 -0.00000000000E+00 -0.67410388253E+03  0.67410388253E+03  0.00000000000E+00 0.  1.
         23    2    1    2    0    0 -0.95715990454E+02 -0.10101045163E+03 -0.41486677101E+03  0.44653595836E+03  0.88967759586E+02 0.  0.
         23    2    1    2    0    0  0.11374062196E+03  0.89554383877E+02 -0.20433750976E+03  0.26337091630E+03  0.81569019257E+02 0.  0.
        -13    1    4    4    0    0  0.11797347458E+03  0.60936609291E+02 -0.14067477426E+03  0.19344354001E+03  0.00000000000E+00 0. -1.
         13    1    4    4    0    0 -0.42328526295E+01  0.28617774586E+02 -0.63662735499E+02  0.69927376290E+02  0.00000000000E+00 0.  1.
        -13    1    3    3    0    0 -0.62617800693E+02 -0.60850033112E+02 -0.12773061278E+03  0.15472176619E+03  0.00000000000E+00 0.  1.
         13    1    3    3    0    0 -0.33098189761E+02 -0.40160418520E+02 -0.28713615823E+03  0.29181419216E+03  0.00000000000E+00 0. -1.
         21    1    1    2  502  501 -0.18024631501E+02  0.11456067755E+02  0.23943603421E+01  0.21490969978E+02  0.00000000000E+00 0. -1.
<scales pt_clust_5="13000.00000" pt_clust_6="13000.00000" pt_clust_7="13000.00000" pt_clust_8="13000.00000" pt_clust_9="21.35717"></scales>
<clustering>
<clus scale="   21.357">  1  9  2 -1</clus>
<clus scale="   81.569">  5  6 -1 -1</clus>
<clus scale="   88.968">  7  8 -1 -1</clus>
<clus scale="  162.697">  1  5  2 -1</clus>
<clus scale="   21.357">  1  5  2 -1</clus>
</clustering>
</event>
<event>
 9    1  0.9000149E-006  0.9866677E+02  0.7546771E-02  0.1285241E+00
         -2   -1    0    0    0  501 -0.00000000000E+00  0.00000000000E+00  0.49894959439E+02  0.49894959439E+02  0.00000000000E+00 0.  1.
          2   -1    0    0  502    0  0.00000000000E+00 -0.00000000000E+00 -0.55143157011E+03  0.55143157011E+03  0.00000000000E+00 0. -1.
         23    2    1    2    0    0  0.23436915241E+01 -0.21425167690E+02 -0.17029538160E+02  0.99613193519E+02  0.95750991915E+02 0.  0.
         23    2    1    2    0    0 -0.27674842481E+02  0.33347706689E+02 -0.35527055093E+03  0.36947910198E+03  0.91758792453E+02 0.  0.
        -11    1    3    3    0    0  0.20159058456E+02  0.92192281348E+01  0.32112883803E+02  0.39020752317E+02  0.00000000000E+00 0.  1.
         11    1    3    3    0    0 -0.17815366932E+02 -0.30644395825E+02 -0.49142421964E+02  0.60592441202E+02  0.00000000000E+00 0. -1.
        -13    1    4    4    0    0 -0.40470301980E+02  0.58944189448E+02 -0.27902329756E+03  0.28803864913E+03  0.00000000000E+00 0.  1.
         13    1    4    4    0    0  0.12795459499E+02 -0.25596482759E+02 -0.76247253370E+02  0.81440452847E+02  0.00000000000E+00 0. -1.
         21    1    1    2  502  501  0.25331150957E+02 -0.11922538999E+02 -0.12923652158E+03  0.13223423405E+03  0.00000000000E+00 0. -1.
<scales pt_clust_5="13000.00000" pt_clust_6="13000.00000" pt_clust_7="13000.00000" pt_clust_8="13000.00000" pt_clust_9="27.99668"></scales>
<clustering>
<clus scale="   27.997">  2  9  1 -1</clus>
<clus scale="   91.759">  7  8 -1 -1</clus>
<clus scale="   94.797">  2  7  1 -1</clus>
<clus scale="   95.751">  5  6 -1 -1</clus>
<clus scale="   27.997">  2  5  1 -1</clus>
</clustering>
</event>
<event>
 9    1  0.9000149E-006  0.1166046E+03  0.7546771E-02  0.1249062E+00
         -2   -1    0    0    0  501 -0.00000000000E+00  0.00000000000E+00  0.21117656590E+02  0.21117656590E+02  0.00000000000E+00 0.  1.
          2   -1    0    0  502    0  0.00000000000E+00 -0.00000000000E+00 -0.83905012316E+03  0.83905012316E+03  0.00000000000E+00 0. -1.
         23    2    1    2    0    0  0.17167207437E+02 -0.77853922925E+02 -0.29171906620E+03  0.31567133265E+03  0.90512045291E+02 0.  0.
         23    2    1    2    0    0 -0.33911087480E+02  0.60714385155E+02 -0.45948616381E+03  0.47359760810E+03  0.91274099521E+02 0.  0.
        -11    1    3    3    0    0  0.35252984945E+02  0.41765293308E+01 -0.68132972304E+02  0.76826546582E+02  0.00000000000E+00 0.  1.
         11    1    3    3    0    0 -0.18085777508E+02 -0.82030452256E+02 -0.22358609390E+03  0.23884478606E+03  0.00000000000E+00 0. -1.
        -13    1    4    4    0    0  0.27939895654E+02  0.33865157732E+02 -0.12790119538E+03  0.13522648578E+03  0.00000000000E+00 0.  1.
         13    1    4    4    0    0 -0.61850983133E+02  0.26849227423E+02 -0.33158496843E+03  0.33837112231E+03  0.00000000000E+00 0. -1.
         21    1    1    2  502  501  0.16743880043E+02  0.17139537770E+02 -0.66727236555E+02  0.70898839004E+02  0.00000000000E+00 0.  1.
<scales pt_clust_5="13000.00000" pt_clust_6="13000.00000" pt_clust_7="13000.00000" pt_clust_8="13000.00000" pt_clust_9="23.96083"></scales>
<clustering>
<clus scale="   23.961">  1  9  2 -1</clus>
<clus scale="   90.512">  5  6 -1 -1</clus>
<clus scale="   91.274">  7  8 -1 -1</clus>
<clus scale="  116.009">  1  5  2 -1</clus>
<clus scale="  116.605">  2  5  1 -1</clus>
</clustering>
</event>
<event>
 9    1  0.9000149E-006  0.9960675E+02  0.7546771E-02  0.1291708E+00
          1   -1    0    0  502    0  0.00000000000E+00  0.00000000000E+00  0.49182595331E+03  0.49182595331E+03  0.00000000000E+00 0. -1.
         -1   -1    0    0    0  501 -0.00000000000E+00 -0.00000000000E+00 -0.33005674094E+02  0.33005674094E+02  0.00000000000E+00 0.  1.
         23    2    1    2    0    0 -0.39296855066E+00  0.41934817310E+02  0.52679272612E+02  0.98958904700E+02  0.72519485171E+02 0.  0.
         23    2    1    2    0    0  0.98076887089E+01 -0.22209770527E+02  0.23974514497E+03  0.25804752438E+03  0.92311026609E+02 0.  0.
        -11    1    4    4    0    0  0.21438111021E+02 -0.40187173714E+02  0.23009847521E+03  0.23456323205E+03  0.00000000000E+00 0. -1.
         11    1    4    4    0    0 -0.11630422313E+02  0.17977403187E+02  0.96466697605E+01  0.23484292324E+02  0.00000000000E+00 0.  1.
        -13    1    3    3    0    0 -0.13879655723E+02 -0.16715415593E+02  0.52953375005E+01  0.22362704682E+02  0.00000000000E+00 0. -1.
         13    1    3    3    0    0  0.13486687173E+02  0.58650232903E+02  0.47383935111E+02  0.76596200018E+02  0.00000000000E+00 0.  1.
         21    1    1    2  502  501 -0.94147201582E+01 -0.19725046782E+02  0.16639586163E+03  0.16782519833E+03  0.00000000000E+00 0. -1.
<scales pt_clust_5="13000.00000" pt_clust_6="13000.00000" pt_clust_7="13000.00000" pt_clust_8="13000.00000" pt_clust_9="21.85668"></scales>
<clustering>
<clus scale="   21.857">  1  9  2 -1</clus>
<clus scale="   72.519">  7  8 -1 -1</clus>
<clus scale="   81.604">  2  7  1 -1</clus>
<clus scale="   92.311">  5  6 -1 -1</clus>
<clus scale="   21.857">  1  5  2 -1</clus>
</clustering>
</event>
<event>
 9    1  0.9000149E-006  0.1291375E+03  0.7546771E-02  0.1242025E+00
         -1   -1    0    0    0  501 -0.00000000000E+00  0.00000000000E+00  0.34670489160E+03  0.34670489160E+03  0.00000000000E+00 0.  1.
          1   -1    0    0  502    0  0.00000000000E+00 -0.00000000000E+00 -0.20201373388E+03  0.20201373388E+03  0.00000000000E+00 0. -1.
         23    2    1    2    0    0  0.35401159691E+02 -0.13170740970E+02  0.28936995439E+03  0.31707302086E+03  0.12399040095E+03 0.  0.
         23    2    1    2    0    0 -0.17352492289E+02  0.32319540885E+02 -0.15513778405E+02  0.99827423483E+02  0.91537836151E+02 0.  0.
        -13    1    4    4    0    0 -0.48003833707E+02  0.43041474067E+02 -0.15853711409E+01  0.64493797703E+02  0.00000000000E+00 0. -1.
         13    1    4    4    0    0  0.30651341418E+02 -0.10721933182E+02 -0.13928407264E+02  0.35333625780E+02  0.00000000000E+00 0.  1.
        -13    1    3    3    0    0  0.63407182806E+02 -0.14067310748E+02  0.28014171255E+03  0.28757214604E+03  0.00000000000E+00 0.  1.
         13    1    3    3    0    0 -0.28006023116E+02  0.89656977795E+00  0.92282418400E+01  0.29500874827E+02  0.00000000000E+00 0. -1.
         21    1    1    2  502  501 -0.18048667401E+02 -0.19148799915E+02 -0.12916501827E+03  0.13181818114E+03  0.00000000000E+00 0. -1.
<scales pt_clust_5="13000.00000" pt_clust_6="13000.00000" pt_clust_7="13000.00000" pt_clust_8="13000.00000" pt_clust_9="26.31408"></scales>
<clustering>
<clus scale="   26.314">  2  9  1 -1</clus>
<clus scale="   91.538">  5  6 -1 -1</clus>
<clus scale="   98.397">  2  5  1 -1</clus>
<clus scale="  123.990">  7  8 -1 -1</clus>
<clus scale="   26.314">  2  5  1 -1</clus>
</clustering>
</event>
<event>
 9    1  0.9000149E-006  0.9446198E+02  0.7546771E-02  0.1292849E+00
          1   -1    0    0  502    0  0.00000000000E+00  0.00000000000E+00  0.10704007530E+03  0.10704007530E+03  0.00000000000E+00 0. -1.
         -1   -1    0    0    0  501 -0.00000000000E+00 -0.00000000000E+00 -0.19499045933E+03  0.19499045933E+03  0.00000000000E+00 0.  1.
         23    2    1    2    0    0 -0.21975329523E+02  0.15146769584E+01 -0.14181725277E+03  0.17092524365E+03  0.92833702830E+02 0.  0.
         23    2    1    2    0    0 -0.30360605775E+01 -0.37622094365E+01  0.31220812661E+02  0.97290133242E+02  0.92017710249E+02 0.  0.
        -11    1    4    4    0    0  0.17307326228E+02  0.25104861995E+02  0.49030004793E+02  0.57738540049E+02  0.00000000000E+00 0. -1.
         11    1    4    4    0    0 -0.20343386806E+02 -0.28867071431E+02 -0.17809192132E+02  0.39551593193E+02  0.00000000000E+00 0.  1.
        -13    1    3    3    0    0 -0.21525737120E+02  0.42560554305E+02 -0.44189721100E+02  0.65019147889E+02  0.00000000000E+00 0. -1.
         13    1    3    3    0    0 -0.44959240267E+00 -0.41045877346E+02 -0.97627531665E+02  0.10590609576E+03  0.00000000000E+00 0.  1.
         21    1    1    2  502  501  0.25011390101E+02  0.22475324781E+01  0.22646056076E+02  0.33815157737E+02  0.00000000000E+00 0.  1.
<scales pt_clust_5="13000.00000" pt_clust_6="13000.00000" pt_clust_7="13000.00000" pt_clust_8="13000.00000" pt_clust_9="25.11217"></scales>
<clustering>
<clus scale="   25.112">  1  9  2 -1</clus>
<clus scale="   92.018">  5  6 -1 -1</clus>
<clus scale="   92.834">  7  8 -1 -1</clus>
<clus scale="   93.660">  1  5  2 -1</clus>
<clus scale="   25.112">  1  5  2 -1</clus>
</clustering>
</event>
<event>
 9    1  0.9000149E-006  0.1585676E+03  0.7546771E-02  0.1191607E+00
         -3   -1    0    0    0  501 -0.00000000000E+00  0.00000000000E+00  0.64404855240E+03  0.64404855240E+03  0.00000000000E+00 0.  1.
          3   -1    0    0  502    0  0.00000000000E+00 -0.00000000000E+00 -0.83536417900E+02  0.83536417900E+02  0.00000000000E+00 0. -1.
         23    2    1    2    0    0  0.49065040047E+02 -0.12477811420E+03  0.40074762481E+03  0.43303904930E+03  0.94589658507E+02 0.  0.
         23    2    1    2    0    0 -0.12603806273E+02  0.11881970849E+03  0.19420397565E+03  0.24403848608E+03  0.86963322552E+02 0.  0.
        -11    1    4    4    0    0 -0.18533652756E+02  0.38264577519E+02  0.14111456235E+03  0.14738043928E+03  0.00000000000E+00 0.  1.
         11    1    4    4    0    0  0.59298464834E+01  0.80555130968E+02  0.53089413309E+02  0.96658046794E+02  0.00000000000E+00 0. -1.
        -13    1    3    3    0    0 -0.35681738074E+01 -0.10332531751E+03  0.30065895550E+03  0.31793813962E+03  0.00000000000E+00 0.  1.
         13    1    3    3    0    0  0.52633213855E+02 -0.21452796685E+02  0.10008866931E+03  0.11510090968E+03  0.00000000000E+00 0. -1.
         21    1    1    2  502  501 -0.36461233775E+02  0.59584057078E+01 -0.34439465957E+02  0.50507434922E+02  0.00000000000E+00 0. -1.
<scales pt_clust_5="13000.00000" pt_clust_6="13000.00000" pt_clust_7="13000.00000" pt_clust_8="13000.00000" pt_clust_9="36.94488"></scales>
<clustering>
<clus scale="   36.945">  2  9  1 -1</clus>
<clus scale="   86.963">  5  6 -1 -1</clus>
<clus scale="   94.590">  7  8 -1 -1</clus>
<clus scale="  154.140">  2  5  1 -1</clus>
<clus scale="   36.945">  2  5  1 -1</clus>
</clustering>
</event>
<event>
 9    1  0.9000149E-006  0.1405972E+03  0.7546771E-02  0.1212731E+00
         -1   -1    0    0    0  501 -0.00000000000E+00  0.00000000000E+00  0.60559305161E+02  0.60559305161E+02  0.00000000000E+00 0.  1.
          1   -1    0    0  502    0  0.00000000000E+00 -0.00000000000E+00 -0.66004130918E+03  0.66004130918E+03  0.00000000000E+00 0. -1.
         23    2    1    2    0    0  0.47900775086E+02  0.95315359447E+02 -0.54562914993E+02  0.15188675797E+03  0.93343310175E+02 0.  0.
         23    2    1    2    0    0 -0.21984227936E+02 -0.98285475978E+02 -0.45654640268E+03  0.47657146276E+03  0.92425106156E+02 0.  0.
        -13    1    3    3    0    0  0.25687622654E+02 -0.14520829847E+02 -0.14526088301E+02  0.32889446611E+02  0.00000000000E+00 0. -1.
         13    1    3    3    0    0  0.22213152432E+02  0.10983618929E+03 -0.40036826692E+02  0.11899731136E+03  0.00000000000E+00 0.  1.
        -13    1    4    4    0    0  0.24467678475E+02 -0.84863983840E+02 -0.29918732994E+03  0.31195131261E+03  0.00000000000E+00 0. -1.
         13    1    4    4    0    0 -0.46451906411E+02 -0.13421492138E+02 -0.15735907274E+03  0.16462015015E+03  0.00000000000E+00 0.  1.
         21    1    1    2  502  501 -0.25916547150E+02  0.29701165310E+01 -0.88372686343E+02  0.92142393608E+02  0.00000000000E+00 0.  1.
<scales pt_clust_5="13000.00000" pt_clust_6="13000.00000" pt_clust_7="13000.00000" pt_clust_8="13000.00000" pt_clust_9="26.08618"></scales>
<clustering>
<clus scale="   26.086">  2  9  1 -1</clus>
<clus scale="   92.425">  7  8 -1 -1</clus>
<clus scale="   93.343">  5  6 -1 -1</clus>
<clus scale="  139.989">  2  7  1 -1</clus>
<clus scale="   26.086">  2  5  1 -1</clus>
</clustering>
</event>
<event>
 9    1  0.9000149E-006  0.1005176E+03  0.7546771E-02  0.1281860E+00
         -2   -1    0    0    0  501 -0.00000000000E+00  0.00000000000E+00  0.80599039829E+02  0.80599039829E+02  0.00000000000E+00 0.  1.
          2   -1    0    0  502    0  0.00000000000E+00 -0.00000000000E+00 -0.22599787176E+03  0.22599787176E+03  0.00000000000E+00 0. -1.
         23    2    1    2    0    0  0.13904926348E+02 -0.38252218153E+02 -0.83541152061E+01  0.10060686956E+03  0.91626261476E+02 0.  0.
         23    2    1    2    0    0  0.34072920022E+02  0.48193250711E+02 -0.99523584205E+02  0.14427672696E+03  0.86181650231E+02 0.  0.
        -11    1    3    3    0    0  0.29193472624E+02 -0.14593632613E+02 -0.44245989288E+02  0.54981274311E+02  0.00000000000E+00 0. -1.
         11    1    3    3    0    0 -0.15288546276E+02 -0.23658585540E+02  0.35891874082E+02  0.45625595252E+02  0.00000000000E+00 0.  1.
        -11    1    4    4    0    0  0.51319224125E+02  0.19687475099E+02 -0.96198349064E+02  0.11079432207E+03  0.00000000000E+00 0. -1.
         11    1    4    4    0    0 -0.17246304103E+02  0.28505775612E+02 -0.33252351414E+01  0.33482404890E+02  0.00000000000E+00 0.  1.
         21    1    1    2  502  501 -0.47977846370E+02 -0.99410325587E+01 -0.37521132515E+02  0.61713315061E+02  0.00000000000E+00 0. -1.
<scales pt_clust_5="13000.00000" pt_clust_6="13000.00000" pt_clust_7="13000.00000" pt_clust_8="13000.00000" pt_clust_9="48.99692"></scales>
<clustering>
<clus scale="   48.997">  2  9  1 -1</clus>
<clus scale="   86.182">  7  8 -1 -1</clus>
<clus scale="   91.626">  5  6 -1 -1</clus>
<clus scale="   95.581">  2  7  1 -1</clus>
<clus scale="   48.997">  2  5  1 -1</clus>
</clustering>
</event>
<event>
 9    1  0.9000149E-006  0.1023190E+03  0.7546771E-02  0.1279892E+00
         -1   -1    0    0    0  501 -0.00000000000E+00  0.00000000000E+00  0.34310817087E+02  0.34310817087E+02  0.00000000000E+00 0.  1.
          1   -1    0    0  502    0  0.00000000000E+00 -0.00000000000E+00 -0.40532899025E+03  0.40532899025E+03  0.00000000000E+00 0. -1.
         23    2    1    2    0    0 -0.36749845840E+02 -0.18890049232E+01 -0.92827375532E+02  0.13341685553E+03  0.88481727965E+02 0.  0.
         23    2    1    2    0    0  0.21507057699E+02 -0.18768458639E+02 -0.20512290674E+03  0.22877626001E+03  0.97202683616E+02 0.  0.
        -11    1    3    3    0    0 -0.57824803664E+02 -0.93633535459E+01 -0.28165077297E+02  0.64997322157E+02  0.00000000000E+00 0.  1.
         11    1    3    3    0    0  0.21074957824E+02  0.74743486228E+01 -0.64662298234E+02  0.68419533377E+02  0.00000000000E+00 0. -1.
        -13    1    4    4    0    0 -0.93822934533E+01  0.28483343453E+02 -0.22120651100E+02  0.37264614446E+02  0.00000000000E+00 0.  1.
         13    1    4    4    0    0  0.30889351152E+02 -0.47251802092E+02 -0.18300225564E+03  0.19151164556E+03  0.00000000000E+00 0. -1.
         21    1    1    2  502  501  0.15242788141E+02  0.20657463562E+02 -0.73067890886E+02  0.77446691793E+02  0.00000000000E+00 0. -1.
<scales pt_clust_5="13000.00000" pt_clust_6="13000.00000" pt_clust_7="13000.00000" pt_clust_8="13000.00000" pt_clust_9="25.67242"></scales>
<clustering>
<clus scale="   25.672">  2  9  1 -1</clus>
<clus scale="   88.482">  5  6 -1 -1</clus>
<clus scale="   94.074">  1  5  2 -1</clus>
<clus scale="   97.203">  7  8 -1 -1</clus>
<clus scale="   25.672">  2  5  1 -1</clus>
</clustering>
</event>
<event>
 9    1  0.9000149E-006  0.1165075E+03  0.7546771E-02  0.1249075E+00
         -1   -1    0    0    0  501 -0.00000000000E+00  0.00000000000E+00  0.16513982695E+03  0.16513982695E+03  0.00000000000E+00 0.  1.
          1   -1    0    0  502    0  0.00000000000E+00 -0.00000000000E+00 -0.24321456040E+03  0.24321456040E+03  0.00000000000E+00 0. -1.
         23    2    1    2    0    0 -0.64779338294E+02  0.37044784949E+02  0.12096279716E+03  0.16931169617E+03  0.92009637534E+02 0.  0.
         23    2    1    2    0    0  0.37460431701E+02 -0.33938994447E+02 -0.15251209062E+03  0.18500025268E+03  0.91706141659E+02 0.  0.
        -13    1    4    4    0    0 -0.26840781355E+02 -0.22929029061E+02 -0.80109538381E+02  0.87542595672E+02  0.00000000000E+00 0. -1.
         13    1    4    4    0    0  0.64301213055E+02 -0.11009965386E+02 -0.72402552242E+02  0.97457657007E+02  0.00000000000E+00 0.  1.
        -13    1    3    3    0    0 -0.59876418679E+02  0.62477952450E+02  0.11276690598E+03  0.14214448685E+03  0.00000000000E+00 0.  1.
         13    1    3    3    0    0 -0.49029196143E+01 -0.25433167501E+02  0.81958911810E+01  0.27167209318E+02  0.00000000000E+00 0. -1.
         21    1    1    2  502  501  0.27318906593E+02 -0.31057905017E+01 -0.46525439995E+02  0.54042438498E+02  0.00000000000E+00 0. -1.
<scales pt_clust_5="13000.00000" pt_clust_6="13000.00000" pt_clust_7="13000.00000" pt_clust_8="13000.00000" pt_clust_9="27.49488"></scales>
<clustering>
<clus scale="   27.495">  2  9  1 -1</clus>
<clus scale="   91.706">  5  6 -1 -1</clus>
<clus scale="   92.010">  7  8 -1 -1</clus>
<clus scale="  116.268">  2  5  1 -1</clus>
<clus scale="   27.495">  2  5  1 -1</clus>
</clustering>
</event>
<event>
 9    1  0.9000149E-006  0.2869416E+03  0.7546771E-02  0.1091969E+00
          1   -1    0    0  502    0  0.00000000000E+00  0.00000000000E+00  0.11281130842E+04  0.11281130842E+04  0.00000000000E+00 0. -1.
         -1   -1    0    0    0  501 -0.00000000000E+00 -0.00000000000E+00 -0.25983556889E+03  0.25983556889E+03  0.00000000000E+00 0.  1.
         23    2    1    2    0    0  0.50905004042E+00  0.26472725130E+03 -0.12353818466E+03  0.30619150410E+03  0.91710290602E+02 0.  0.
         23    2    1    2    0    0 -0.40547133848E+02 -0.32942193458E+03  0.69845807668E+03  0.77869420942E+03  0.91422676961E+02 0.  0.
        -11    1    4    4    0    0 -0.50117291481E+02 -0.20928235465E+03  0.35998433434E+03  0.41940382431E+03  0.00000000000E+00 0. -1.
         11    1    4    4    0    0  0.95701576330E+01 -0.12013957993E+03  0.33847374234E+03  0.35929038512E+03  0.00000000000E+00 0.  1.
        -13    1    3    3    0    0 -0.29095087964E+02  0.19385212484E+03 -0.11885041269E+03  0.22923915688E+03  0.00000000000E+00 0. -1.
         13    1    3    3    0    0  0.29604138004E+02  0.70875126452E+02 -0.46877719713E+01  0.76952347220E+02  0.00000000000E+00 0.  1.
         21    1    1    2  502  501  0.40038083808E+02  0.64694683280E+02  0.29335762328E+03  0.30306293956E+03  0.00000000000E+00 0. -1.
<scales pt_clust_5="13000.00000" pt_clust_6="13000.00000" pt_clust_7="13000.00000" pt_clust_8="13000.00000" pt_clust_9="76.08187"></scales>
<clustering>
<clus scale="   76.082">  1  9  2 -1</clus>
<clus scale="   91.423">  5  6 -1 -1</clus>
<clus scale="   91.710">  7  8 -1 -1</clus>
<clus scale="  286.850">  1  5  2 -1</clus>
<clus scale="   76.082">  1  5  2 -1</clus>
</clustering>
</event>
<event>
 9    1  0.9000149E-006  0.9847890E+02  0.7546771E-02  0.1283627E+00
          2   -1    0    0  502    0  0.00000000000E+00  0.00000000000E+00  0.75159255787E+03  0.75159255787E+03  0.00000000000E+00 0. -1.
         -2   -1    0    0    0  501 -0.00000000000E+00 -0.00000000000E+00 -0.20773018845E+02  0.20773018845E+02  0.00000000000E+00 0.  1.
         23    2    1    2    0    0  0.19679630435E+02  0.32708365587E+02  0.21171633965E+03  0.23399991910E+03  0.92059918701E+02 0.  0.
         23    2    1    2    0    0  0.20790165059E+02 -0.37957170493E+02  0.38718899369E+03  0.40028339242E+03  0.91861306629E+02 0.  0.
        -11    1    3    3    0    0  0.76481309618E+01  0.64569537772E+02  0.12655327057E+03  0.14227947641E+03  0.00000000000E+00 0.  1.
         11    1    3    3    0    0  0.12031499473E+02 -0.31861172185E+02  0.85163069084E+02  0.91720442696E+02  0.00000000000E+00 0. -1.
        -13    1    4    4    0    0  0.24094629768E+02  0.26697943666E+02  0.16386881188E+03  0.16776864691E+03  0.00000000000E+00 0.  1.
         13    1    4    4    0    0 -0.33044647087E+01 -0.64655114159E+02  0.22332018181E+03  0.23251474551E+03  0.00000000000E+00 0. -1.
         21    1    1    2  502  501 -0.40469795494E+02  0.52488049058E+01  0.13191420568E+03  0.13808226519E+03  0.00000000000E+00 0. -1.
<scales pt_clust_5="13000.00000" pt_clust_6="13000.00000" pt_clust_7="13000.00000" pt_clust_8="13000.00000" pt_clust_9="40.80875"></scales>
<clustering>
<clus scale="   40.809">  1  9  2 -1</clus>
<clus scale="   91.861">  7  8 -1 -1</clus>
<clus scale="   92.060">  5  6 -1 -1</clus>
<clus scale="   98.293">  1  7  2 -1</clus>
<clus scale="   40.809">  1  5  2 -1</clus>
</clustering>
</event>
<event>
 9    1  0.9000149E-006  0.2279592E+03  0.7546771E-02  0.1128161E+00
          2   -1    0    0  502    0  0.00000000000E+00  0.00000000000E+00  0.12978589159E+04  0.12978589159E+04  0.00000000000E+00 0. -1.
         -2   -1    0    0    0  501 -0.00000000000E+00 -0.00000000000E+00 -0.96531102183E+02  0.96531102183E+02  0.00000000000E+00 0.  1.
         23    2    1    2    0    0  0.62363291205E+02 -0.16457568700E+03  0.22574060336E+03  0.30009875363E+03  0.90144911597E+02 0.  0.
         23    2    1    2    0    0  0.21917384638E+02  0.26989470661E+03  0.33801074905E+03  0.44260186587E+03  0.91222918121E+02 0.  0.
        -11    1    4    4    0    0  0.53166760571E+02  0.10364142704E+03  0.14327348685E+03  0.18464978165E+03  0.00000000000E+00 0. -1.
         11    1    4    4    0    0 -0.31249375932E+02  0.16625327957E+03  0.19473726220E+03  0.25795208422E+03  0.00000000000E+00 0.  1.
        -13    1    3    3    0    0  0.16236443978E+01 -0.24469987512E+02 -0.33775188156E+01  0.24755285159E+02  0.00000000000E+00 0.  1.
         13    1    3    3    0    0  0.60739646807E+02 -0.14010569948E+03  0.22911812217E+03  0.27534346847E+03  0.00000000000E+00 0. -1.
         21    1    1    2  502  501 -0.84280675843E+02 -0.10531901961E+03  0.63757646133E+03  0.65168939860E+03  0.00000000000E+00 0. -1.
<scales pt_clust_5="13000.00000" pt_clust_6="13000.00000" pt_clust_7="13000.00000" pt_clust_8="13000.00000" pt_clust_9="134.89006"></scales>
<clustering>
<clus scale="   90.145">  7  8 -1 -1</clus>
<clus scale="   91.223">  5  6 -1 -1</clus>
<clus scale="  134.890">  1  9  2 -1</clus>
<clus scale="  227.530">  2  7  1 -1</clus>
<clus scale="  134.890">  1  5  2 -1</clus>
</clustering>
</event>
<event>
 9    1  0.9000149E-006  0.9523477E+02  0.7546771E-02  0.1290744E+00
          1   -1    0    0  502    0  0.00000000000E+00  0.00000000000E+00  0.33202169065E+03  0.33202169065E+03  0.00000000000E+00 0. -1.
         -1   -1    0    0    0  501 -0.00000000000E+00 -0.00000000000E+00 -0.13669810032E+03  0.13669810032E+03  0.00000000000E+00 0.  1.
         23    2    1    2    0    0 -0.23161238483E+02 -0.22154608640E+02 -0.10667092180E+03  0.14320280733E+03  0.90006048771E+02 0.  0.
         23    2    1    2    0    0 -0.28249573248E+01  0.28363067157E+02  0.24724760934E+03  0.26459858991E+03  0.89825327705E+02 0.  0.
        -11    1    3    3    0    0 -0.92352344747E+00 -0.53277882490E+02 -0.81634619092E+02  0.97486392345E+02  0.00000000000E+00 0.  1.
         11    1    3    3    0    0 -0.22237715036E+02  0.31123273850E+02 -0.25036302712E+02  0.45716414980E+02  0.00000000000E+00 0. -1.
        -11    1    4    4    0    0 -0.19115830203E+01  0.51713171997E+02  0.22948172730E+03  0.23524406363E+03  0.00000000000E+00 0. -1.
         11    1    4    4    0    0 -0.91337430444E+00 -0.23350104840E+02  0.17765882035E+02  0.29354526280E+02  0.00000000000E+00 0.  1.
         21    1    1    2  502  501  0.25986195808E+02 -0.62084585164E+01  0.54746902797E+02  0.60918393737E+02  0.00000000000E+00 0.  1.
<scales pt_clust_5="13000.00000" pt_clust_6="13000.00000" pt_clust_7="13000.00000" pt_clust_8="13000.00000" pt_clust_9="26.71755"></scales>
<clustering>
<clus scale="   26.718">  1  9  2 -1</clus>
<clus scale="   89.825">  7  8 -1 -1</clus>
<clus scale="   90.006">  5  6 -1 -1</clus>
<clus scale="   95.064">  1  7  2 -1</clus>
<clus scale="   26.718">  1  5  2 -1</clus>
</clustering>
</event>
<event>
 9    1  0.9000149E-006  0.1088263E+03  0.7546771E-02  0.1262883E+00
         -2   -1    0    0    0  501 -0.00000000000E+00  0.00000000000E+00  0.48686916221E+02  0.48686916221E+02  0.00000000000E+00 0.  1.
          2   -1    0    0  502    0  0.00000000000E+00 -0.00000000000E+00 -0.47346349977E+03  0.47346349977E+03  0.00000000000E+00 0. -1.
         23    2    1    2    0    0 -0.52309512767E+02  0.43667528770E+02 -0.72463656649E+02  0.13545203087E+03  0.91940920899E+02 0.  0.
         23    2    1    2    0    0  0.42121120438E+02  0.84480503058E+01 -0.27203551048E+03  0.29044714873E+03  0.92253286674E+02 0.  0.
        -13    1    4    4    0    0  0.41385752128E+01  0.45747145244E+02 -0.93993165729E+02  0.10461665406E+03  0.00000000000E+00 0.  1.
         13    1    4    4    0    0  0.37982545225E+02 -0.37299094938E+02 -0.17804234475E+03  0.18583049467E+03  0.00000000000E+00 0. -1.
        -13    1    3    3    0    0 -0.77933737817E+02  0.37248433779E+02 -0.45196881089E+02  0.97487801131E+02  0.00000000000E+00 0.  1.
         13    1    3    3    0    0  0.25624225050E+02  0.64190949917E+01 -0.27266775559E+02  0.37964229734E+02  0.00000000000E+00 0. -1.
         21    1    1    2  502  501  0.10188392330E+02 -0.52115579076E+02 -0.80277416419E+02  0.96251236395E+02  0.00000000000E+00 0. -1.
<scales pt_clust_5="13000.00000" pt_clust_6="13000.00000" pt_clust_7="13000.00000" pt_clust_8="13000.00000" pt_clust_9="53.10214"></scales>
<clustering>
<clus scale="   53.102">  2  9  1 -1</clus>
<clus scale="   91.941">  7  8 -1 -1</clus>
<clus scale="   92.253">  5  6 -1 -1</clus>
<clus scale="  108.562">  1  7  2 -1</clus>
<clus scale="   53.102">  2  5  1 -1</clus>
</clustering>
</event>
<event>
 9    1  0.9000149E-006  0.1401837E+03  0.7546771E-02  0.1214019E+00
          2   -1    0    0  502    0  0.00000000000E+00  0.00000000000E+00  0.13859820818E+03  0.13859820818E+03  0.00000000000E+00 0. -1.
         -2   -1    0    0    0  501 -0.00000000000E+00 -0.00000000000E+00 -0.18677577182E+03  0.18677577182E+03  0.00000000000E+00 0.  1.
         23    2    1    2    0    0 -0.72282989143E+02  0.84007869648E+02 -0.83476830581E+02  0.16512166512E+03  0.89524467980E+02 0.  0.
         23    2    1    2    0    0  0.47829858231E+02 -0.78375809914E+02  0.30817686764E+02  0.13476191925E+03  0.93704760526E+02 0.  0.
        -11    1    3    3    0    0 -0.39766557727E+02  0.71825847267E+02 -0.97685112278E+02  0.12760373274E+03  0.00000000000E+00 0.  1.
         11    1    3    3    0    0 -0.32516431416E+02  0.12182022381E+02  0.14208281697E+02  0.37517932380E+02  0.00000000000E+00 0. -1.
        -13    1    4    4    0    0  0.40368682717E+02 -0.97829847397E+02  0.38409785385E+02  0.11258606130E+03  0.00000000000E+00 0. -1.
         13    1    4    4    0    0  0.74611755135E+01  0.19454037483E+02 -0.75920986210E+01  0.22175857952E+02  0.00000000000E+00 0.  1.
         21    1    1    2  502  501  0.24453130912E+02 -0.56320597339E+01  0.44815801845E+01  0.25490395627E+02  0.00000000000E+00 0.  1.
<scales pt_clust_5="13000.00000" pt_clust_6="13000.00000" pt_clust_7="13000.00000" pt_clust_8="13000.00000" pt_clust_9="25.09334"></scales>
<clustering>
<clus scale="   25.093">  1  9  2 -1</clus>
<clus scale="   89.524">  5  6 -1 -1</clus>
<clus scale="   93.705">  7  8 -1 -1</clus>
<clus scale="  137.425">  2  5  1 -1</clus>
<clus scale="   25.093">  1  5  2 -1</clus>
</clustering>
</event>
<event>
 9    1  0.9000149E-006  0.1176546E+03  0.7546771E-02  0.1248456E+00
          1   -1    0    0  502    0  0.00000000000E+00  0.00000000000E+00  0.53565649700E+02  0.53565649700E+02  0.00000000000E+00 0. -1.
         -1   -1    0    0    0  501 -0.00000000000E+00 -0.00000000000E+00 -0.40237156160E+03  0.40237156160E+03  0.00000000000E+00 0.  1.
         23    2    1    2    0    0  0.81882264578E+02  0.11819927635E+02 -0.25123063230E+03  0.28100129627E+03  0.94870869922E+02 0.  0.
         23    2    1    2    0    0 -0.48085355256E+02  0.11601964435E+02 -0.77725736739E+02  0.12927608082E+03  0.90687418931E+02 0.  0.
        -13    1    3    3    0    0  0.75310171036E+02 -0.30696378414E+02 -0.18417592686E+03  0.20133221686E+03  0.00000000000E+00 0.  1.
         13    1    3    3    0    0  0.65720935422E+01  0.42516306049E+02 -0.67054705435E+02  0.79669079413E+02  0.00000000000E+00 0. -1.
        -13    1    4    4    0    0 -0.32481869154E+02  0.25547643299E+02  0.70794157614E+01  0.41926984501E+02  0.00000000000E+00 0. -1.
         13    1    4    4    0    0 -0.15603486102E+02 -0.13945678863E+02 -0.84805152500E+02  0.87349096321E+02  0.00000000000E+00 0.  1.
         21    1    1    2  502  501 -0.33796909323E+02 -0.23421892070E+02 -0.19849542864E+02  0.45659834207E+02  0.00000000000E+00 0. -1.
<scales pt_clust_5="13000.00000" pt_clust_6="13000.00000" pt_clust_7="13000.00000" pt_clust_8="13000.00000" pt_clust_9="41.11953"></scales>
<clustering>
<clus scale="   41.120">  1  9  2 -1</clus>
<clus scale="   90.687">  7  8 -1 -1</clus>
<clus scale="   94.871">  5  6 -1 -1</clus>
<clus scale="  114.308">  1  7  2 -1</clus>
<clus scale="   41.120">  1  5  2 -1</clus>
</clustering>
</event>
<event>
 9    1  0.9000149E-006  0.2294420E+03  0.7546771E-02  0.1127043E+00
         -3   -1    0    0    0  501 -0.00000000000E+00  0.00000000000E+00  0.90722342628E+02  0.90722342628E+02  0.00000000000E+00 0.  1.
          3   -1    0    0  502    0  0.00000000000E+00 -0.00000000000E+00 -0.96133676518E+03  0.96133676518E+03  0.00000000000E+00 0. -1.
         23    2    1    2    0    0  0.14920873508E+03 -0.78269865727E+02 -0.28203614544E+03  0.34091122295E+03  0.91031072132E+02 0.  0.
         23    2    1    2    0    0 -0.21057499632E+03  0.16940874717E+03 -0.37697385195E+03  0.47271855260E+03  0.91172321630E+02 0.  0.
        -11    1    3    3    0    0  0.36063668146E+02 -0.43236293320E+02 -0.16523195451E+03  0.17456106099E+03  0.00000000000E+00 0. -1.
         11    1    3    3    0    0  0.11314506694E+03 -0.35033572407E+02 -0.11680419092E+03  0.16635016196E+03  0.00000000000E+00 0.  1.
        -11    1    4    4    0    0 -0.15503388207E+02  0.44919490978E+02 -0.31895685239E+02  0.57231551197E+02  0.00000000000E+00 0.  1.
         11    1    4    4    0    0 -0.19507160812E+03  0.12448925619E+03 -0.34507816671E+03  0.41548700141E+03  0.00000000000E+00 0. -1.
         21    1    1    2  502  501  0.61366261238E+02 -0.91138881440E+02 -0.21160442517E+03  0.23842933225E+03  0.00000000000E+00 0. -1.
<scales pt_clust_5="13000.00000" pt_clust_6="13000.00000" pt_clust_7="13000.00000" pt_clust_8="13000.00000" pt_clust_9="109.87317"></scales>
<clustering>
<clus scale="   91.031">  5  6 -1 -1</clus>
<clus scale="   91.172">  7  8 -1 -1</clus>
<clus scale="  109.873">  2  9  1 -1</clus>
<clus scale="  229.386">  1  5  2 -1</clus>
<clus scale="  109.873">  2  5  1 -1</clus>
</clustering>
</event>
<event>
 9    1  0.9000149E-006  0.1837164E+03  0.7546771E-02  0.1164394E+00
          1   -1    0    0  502    0  0.00000000000E+00  0.00000000000E+00  0.11116644932E+03  0.11116644932E+03  0.00000000000E+00 0. -1.
         -1   -1    0    0    0  501 -0.00000000000E+00 -0.00000000000E+00 -0.58563307613E+03  0.58563307613E+03  0.00000000000E+00 0.  1.
         23    2    1    2    0    0 -0.18181975568E+03  0.75945272159E+02 -0.39403448872E+03  0.44929446895E+03  0.88182955289E+02 0.  0.
         23    2    1    2    0    0  0.86975911981E+02 -0.53295046945E+02 -0.57534691394E+02  0.14734178751E+03  0.89410236206E+02 0.  0.
        -11    1    3    3    0    0 -0.24609364878E+02 -0.12486808185E+02 -0.10524329786E+03  0.10880116250E+03  0.00000000000E+00 0. -1.
         11    1    3    3    0    0 -0.15721039081E+03  0.88432080344E+02 -0.28879119087E+03  0.34049330644E+03  0.00000000000E+00 0.  1.
        -13    1    4    4    0    0  0.50200310642E+02 -0.76401414811E+02 -0.46330021178E+02  0.10248764919E+03  0.00000000000E+00 0. -1.
         13    1    4    4    0    0  0.36775601339E+02  0.23106367866E+02 -0.11204670216E+02  0.44854138320E+02  0.00000000000E+00 0.  1.
         21    1    1    2  502  501  0.94843843703E+02 -0.22650225214E+02 -0.22897446694E+02  0.10016326900E+03  0.00000000000E+00 0. -1.
<scales pt_clust_5="13000.00000" pt_clust_6="13000.00000" pt_clust_7="13000.00000" pt_clust_8="13000.00000" pt_clust_9="97.51096"></scales>
<clustering>
<clus scale="   88.183">  5  6 -1 -1</clus>
<clus scale="   89.410">  7  8 -1 -1</clus>
<clus scale="   97.511">  1  9  2 -1</clus>
<clus scale="  183.122">  2  5  1 -1</clus>
<clus scale="   97.511">  1  5  2 -1</clus>
</clustering>
</event>
<event>
 9    1  0.9000149E-006  0.2711804E+03  0.7546771E-02  0.1139407E+00
          1   -1    0    0  502    0  0.00000000000E+00  0.00000000000E+00  0.17023933438E+04  0.17023933438E+04  0.00000000000E+00 0. -1.
         -1   -1    0    0    0  501 -0.00000000000E+00 -0.00000000000E+00 -0.65041861111E+02  0.65041861111E+02  0.00000000000E+00 0.  1.
         23    2    1    2    0    0 -0.42703928571E+02 -0.18664702170E+01  0.19275127234E+03  0.21841808627E+03  0.93414657290E+02 0.  0.
         23    2    1    2    0    0  0.11422425226E+03  0.24213002986E+03  0.52995903530E+03  0.60064471610E+03  0.90792977290E+02 0.  0.
        -11    1    4    4    0    0  0.82411803523E+02  0.20031391678E+03  0.48620225852E+03  0.53226873551E+03  0.00000000000E+00 0.  1.
         11    1    4    4    0    0  0.31812448737E+02  0.41816113081E+02  0.43756776783E+02  0.68375980595E+02  0.00000000000E+00 0. -1.
        -13    1    3    3    0    0 -0.63853833743E+02  0.17156645949E+02  0.16860345387E+03  0.18110435456E+03  0.00000000000E+00 0.  1.
         13    1    3    3    0    0  0.21149905172E+02 -0.19023116166E+02  0.24147818466E+02  0.37313731710E+02  0.00000000000E+00 0. -1.
         21    1    1    2  502  501 -0.71520323690E+02 -0.24026355964E+03  0.91464117510E+03  0.94837240258E+03  0.00000000000E+00 0. -1.
<scales pt_clust_5="13000.00000" pt_clust_6="13000.00000" pt_clust_7="13000.00000" pt_clust_8="13000.00000" pt_clust_9="255.52969"></scales>
<clustering>
<clus scale="   90.793">  5  6 -1 -1</clus>
<clus scale="   93.415">  7  8 -1 -1</clus>
<clus scale="  102.730">  2  7  1 -1</clus>
<clus scale="  255.530">  1  9  2 -1</clus>
<clus scale="  255.530">  1  5  2 -1</clus>
</clustering>
</event>
<event>
 9    1  0.9000149E-006  0.1559301E+03  0.7546771E-02  0.1193594E+00
         -1   -1    0    0    0  501 -0.00000000000E+00  0.00000000000E+00  0.93455926051E+02  0.93455926051E+02  0.00000000000E+00 0.  1.
          1   -1    0    0  502    0  0.00000000000E+00 -0.00000000000E+00 -0.56023433576E+03  0.56023433576E+03  0.00000000000E+00 0. -1.
         23    2    1    2    0    0 -0.12718649209E+03  0.27883998780E+02 -0.21635299182E+01  0.15930305337E+03  0.91754350277E+02 0.  0.
         23    2    1    2    0    0  0.10234665986E+03 -0.18041475475E+02 -0.42356493612E+03  0.44540771880E+03  0.90445824853E+02 0.  0.
        -11    1    4    4    0    0  0.48831742657E+02 -0.37557043518E+02 -0.33127532387E+03  0.33695461240E+03  0.00000000000E+00 0. -1.
         11    1    4    4    0    0  0.53514917204E+02  0.19515568043E+02 -0.92289612245E+02  0.10845310640E+03  0.00000000000E+00 0.  1.
        -13    1    3    3    0    0 -0.76374667149E+02 -0.99274063001E+01 -0.38689456927E+02  0.86188846467E+02  0.00000000000E+00 0. -1.
         13    1    3    3    0    0 -0.50811824939E+02  0.37811405080E+02  0.36525927009E+02  0.73114206907E+02  0.00000000000E+00 0.  1.
         21    1    1    2  502  501  0.24839832227E+02 -0.98425233048E+01 -0.41049943678E+02  0.48979489646E+02  0.00000000000E+00 0.  1.
<scales pt_clust_5="13000.00000" pt_clust_6="13000.00000" pt_clust_7="13000.00000" pt_clust_8="13000.00000" pt_clust_9="26.71877"></scales>
<clustering>
<clus scale="   26.719">  2  9  1 -1</clus>
<clus scale="   90.446">  5  6 -1 -1</clus>
<clus scale="   91.754">  7  8 -1 -1</clus>
<clus scale="  155.164">  2  5  1 -1</clus>
<clus scale="   26.719">  2  5  1 -1</clus>
</clustering>
</event>
<event>
 9    1  0.9000149E-006  0.1402950E+03  0.7546771E-02  0.1213483E+00
          2   -1    0    0  502    0  0.00000000000E+00  0.00000000000E+00  0.31785609488E+03  0.31785609488E+03  0.00000000000E+00 0. -1.
         -2   -1    0    0    0  501 -0.00000000000E+00 -0.00000000000E+00 -0.25010427482E+03  0.25010427482E+03  0.00000000000E+00 0.  1.
         23    2    1    2    0    0  0.17538687805E+02  0.84841901500E+02 -0.11665547302E+03  0.17290283177E+03  0.93707715938E+02 0.  0.
         23    2    1    2    0    0 -0.16378332389E+02 -0.15728539550E+03 -0.14712259176E+02  0.18316605076E+03  0.91249143400E+02 0.  0.
        -11    1    3    3    0    0 -0.32538865261E+02  0.38896569625E+02 -0.82503830266E+02  0.96843187110E+02  0.00000000000E+00 0. -1.
         11    1    3    3    0    0  0.50077553066E+02  0.45945331876E+02 -0.34151642758E+02  0.76059644657E+02  0.00000000000E+00 0.  1.
        -11    1    4    4    0    0  0.14386785051E+02 -0.30740090316E+02  0.30176677866E+02  0.45415466790E+02  0.00000000000E+00 0. -1.
         11    1    4    4    0    0 -0.30765117440E+02 -0.12654530519E+03 -0.44888937042E+02  0.13775058397E+03  0.00000000000E+00 0.  1.
         21    1    1    2  502  501 -0.11603554164E+01  0.72443494001E+02  0.19911955226E+03  0.21189148718E+03  0.00000000000E+00 0. -1.
<scales pt_clust_5="13000.00000" pt_clust_6="13000.00000" pt_clust_7="13000.00000" pt_clust_8="13000.00000" pt_clust_9="72.45279"></scales>
<clustering>
<clus scale="   72.453">  1  9  2 -1</clus>
<clus scale="   91.249">  7  8 -1 -1</clus>
<clus scale="   93.708">  5  6 -1 -1</clus>
<clus scale="  138.665">  1  7  2 -1</clus>
<clus scale="   72.453">  1  5  2 -1</clus>
</clustering>
</event>
<event>
 9    1  0.1321989E-005  0.1450590E+03  0.7546771E-02  0.1210162E+00
          1   -1    0    0  502    0  0.00000000000E+00  0.00000000000E+00  0.57911822742E+03  0.57911822742E+03  0.00000000000E+00 0. -1.
         -1   -1    0    0    0  501 -0.00000000000E+00 -0.00000000000E+00 -0.77333176375E+02  0.77333176375E+02  0.00000000000E+00 0.  1.
         23    2    1    2    0    0 -0.33725023841E+01 -0.98266332368E+02  0.16723504718E+02  0.14630111122E+03  0.10703594575E+03 0.  0.
         23    2    1    2    0    0 -0.17510419585E+02  0.95883449123E+02  0.44607855707E+03  0.46586205470E+03  0.92418203440E+02 0.  0.
        -11    1    3    3    0    0 -0.92469768438E+00 -0.12162869811E+03  0.16964891687E+02  0.12280962023E+03  0.00000000000E+00 0.  1.
         11    1    3    3    0    0 -0.24478046997E+01  0.23362365747E+02 -0.24138696860E+00  0.23491490987E+02  0.00000000000E+00 0. -1.
        -13    1    4    4    0    0  0.22291028544E+02 -0.64687604441E+01  0.10520989474E+03  0.10773976409E+03  0.00000000000E+00 0.  1.
         13    1    4    4    0    0 -0.39801448128E+02  0.10235220957E+03  0.34086866233E+03  0.35812229061E+03  0.00000000000E+00 0. -1.
         21    1    1    2  502  501  0.20882921969E+02  0.23828832453E+01  0.38982989256E+02  0.44288237873E+02  0.00000000000E+00 0.  1.
<scales pt_clust_5="13000.00000" pt_clust_6="13000.00000" pt_clust_7="13000.00000" pt_clust_8="13000.00000" pt_clust_9="21.01843"></scales>
<clustering>
<clus scale="   21.018">  1  9  2 -1</clus>
<clus scale="   92.418">  7  8 -1 -1</clus>
<clus scale="  107.036">  5  6 -1 -1</clus>
<clus scale="  134.635">  1  7  2 -1</clus>
<clus scale="   21.018">  1  5  2 -1</clus>
</clustering>
</event>
<event>
 9    1  0.9000149E-006  0.1201014E+03  0.7546771E-02  0.1251280E+00
          1   -1    0    0  502    0  0.00000000000E+00  0.00000000000E+00  0.87547142537E+03  0.87547142537E+03  0.00000000000E+00 0. -1.
         -1   -1    0    0    0  501 -0.00000000000E+00 -0.00000000000E+00 -0.30415404679E+02  0.30415404679E+02  0.00000000000E+00 0.  1.
         23    2    1    2    0    0  0.69509195685E+01  0.49685246082E+02  0.11794056446E+03  0.15822761310E+03  0.92785030256E+02 0.  0.
         23    2    1    2    0    0 -0.35631854049E+02 -0.21865223084E+01  0.47444154863E+03  0.48896474785E+03  0.11277114733E+03 0.  0.
        -13    1    3    3    0    0  0.22372152885E+02 -0.49982882713E+01  0.93687562171E+02  0.96451311115E+02  0.00000000000E+00 0. -1.
         13    1    3    3    0    0 -0.15421233316E+02  0.54683534353E+02  0.24253002290E+02  0.61776301981E+02  0.00000000000E+00 0.  1.
        -13    1    4    4    0    0 -0.73325026729E+02 -0.19800452198E+02  0.33162111078E+03  0.34020755219E+03  0.00000000000E+00 0.  1.
         13    1    4    4    0    0  0.37693172680E+02  0.17613929890E+02  0.14282043785E+03  0.14875719566E+03  0.00000000000E+00 0. -1.
         21    1    1    2  502  501  0.28680934481E+02 -0.47498723774E+02  0.25267390760E+03  0.25869446910E+03  0.00000000000E+00 0. -1.
<scales pt_clust_5="13000.00000" pt_clust_6="13000.00000" pt_clust_7="13000.00000" pt_clust_8="13000.00000" pt_clust_9="55.48626"></scales>
<clustering>
<clus scale="   55.486">  1  9  2 -1</clus>
<clus scale="   92.785">  5  6 -1 -1</clus>
<clus scale="  101.568">  2  5  1 -1</clus>
<clus scale="  112.771">  7  8 -1 -1</clus>
<clus scale="   55.486">  1  5  2 -1</clus>
</clustering>
</event>
<event>
 9    1  0.9000149E-006  0.1043549E+03  0.7546771E-02  0.1271494E+00
         -3   -1    0    0    0  501 -0.00000000000E+00  0.00000000000E+00  0.49546490920E+03  0.49546490920E+03  0.00000000000E+00 0.  1.
          3   -1    0    0  502    0  0.00000000000E+00 -0.00000000000E+00 -0.47830949151E+02  0.47830949151E+02  0.00000000000E+00 0. -1.
         23    2    1    2    0    0 -0.28485112350E+02 -0.36663479305E+02  0.34720376908E+03  0.36217813763E+03  0.92015943033E+02 0.  0.
         23    2    1    2    0    0  0.55875247163E+02  0.25578240838E+02  0.10319676195E+03  0.15144018862E+03  0.92240280800E+02 0.  0.
        -11    1    3    3    0    0 -0.43250946104E+02  0.17628064383E+02  0.16532491731E+03  0.17179557991E+03  0.00000000000E+00 0. -1.
         11    1    3    3    0    0  0.14765833754E+02 -0.54291543689E+02  0.18187885177E+03  0.19038255772E+03  0.00000000000E+00 0.  1.
        -13    1    4    4    0    0  0.50965269535E+02 -0.18960817627E+02  0.89250150097E+02  0.10451105490E+03  0.00000000000E+00 0.  1.
         13    1    4    4    0    0  0.49099776277E+01  0.44539058465E+02  0.13946611849E+02  0.46929133716E+02  0.00000000000E+00 0. -1.
         21    1    1    2  502  501 -0.27390134813E+02  0.11085238467E+02 -0.27665709774E+01  0.29677532106E+02  0.00000000000E+00 0. -1.
<scales pt_clust_5="13000.00000" pt_clust_6="13000.00000" pt_clust_7="13000.00000" pt_clust_8="13000.00000" pt_clust_9="29.54830"></scales>
<clustering>
<clus scale="   29.548">  2  9  1 -1</clus>
<clus scale="   92.016">  5  6 -1 -1</clus>
<clus scale="   92.240">  7  8 -1 -1</clus>
<clus scale="  104.157">  1  5  2 -1</clus>
<clus scale="   29.548">  2  5  1 -1</clus>
</clustering>
</event>
<event>
 9    1  0.9000149E-006  0.1472991E+03  0.7546771E-02  0.1212963E+00
         -1   -1    0    0    0  501 -0.00000000000E+00  0.00000000000E+00  0.20361668216E+03  0.20361668216E+03  0.00000000000E+00 0.  1.
          1   -1    0    0  502    0  0.00000000000E+00 -0.00000000000E+00 -0.12337328690E+03  0.12337328690E+03  0.00000000000E+00 0. -1.
         23    2    1    2    0    0  0.52402233996E+02  0.41961348385E+02  0.38140449038E+02  0.11939338512E+03  0.91067764174E+02 0.  0.
         23    2    1    2    0    0 -0.57221895624E+02 -0.83585639747E+02  0.43274392051E+02  0.16567781660E+03  0.12375605599E+03 0.  0.
        -11    1    3    3    0    0 -0.65477466983E+01  0.44715537688E+02  0.39996984571E+02  0.60349905322E+02  0.00000000000E+00 0.  1.
         11    1    3    3    0    0  0.58949980694E+02 -0.27541893031E+01 -0.18565355335E+01  0.59043479799E+02  0.00000000000E+00 0. -1.
        -13    1    4    4    0    0 -0.27566811789E+02 -0.67631207202E+02  0.84994991605E+02  0.11206274090E+03  0.00000000000E+00 0.  1.
         13    1    4    4    0    0 -0.29655083836E+02 -0.15954432545E+02 -0.41720599554E+02  0.53615075700E+02  0.00000000000E+00 0. -1.
         21    1    1    2  502  501  0.48196616284E+01  0.41624291362E+02 -0.11714458282E+01  0.41918767335E+02  0.00000000000E+00 0. -1.
<scales pt_clust_5="13000.00000" pt_clust_6="13000.00000" pt_clust_7="13000.00000" pt_clust_8="13000.00000" pt_clust_9="41.90240"></scales>
<clustering>
<clus scale="   41.902">  2  9  1 -1</clus>
<clus scale="   91.068">  5  6 -1 -1</clus>
<clus scale="  121.140">  1  5  2 -1</clus>
<clus scale="  123.756">  7  8 -1 -1</clus>
<clus scale="   41.902">  2  5  1 -1</clus>
</clustering>
</event>
<event>
 9    1  0.9000149E-006  0.9487918E+02  0.7546771E-02  0.1292645E+00
         -1   -1    0    0    0  501 -0.00000000000E+00  0.00000000000E+00  0.28885664723E+02  0.28885664723E+02  0.00000000000E+00 0.  1.
          1   -1    0    0  502    0  0.00000000000E+00 -0.00000000000E+00 -0.45062983367E+03  0.45062983367E+03  0.00000000000E+00 0. -1.
         23    2    1    2    0    0  0.85650796058E+01 -0.16804277662E+02 -0.10080772566E+03  0.13617949986E+03  0.89593048244E+02 0.  0.
         23    2    1    2    0    0 -0.51787444530E+01  0.37811392421E+02 -0.28145606915E+03  0.29848662754E+03  0.91761795799E+02 0.  0.
        -11    1    4    4    0    0 -0.10503201078E+02  0.67459882839E+02 -0.21358134380E+03  0.22422788285E+03  0.00000000000E+00 0. -1.
         11    1    4    4    0    0  0.53244566252E+01 -0.29648490418E+02 -0.67874725344E+02  0.74258744691E+02  0.00000000000E+00 0.  1.
        -13    1    3    3    0    0  0.23058430791E+02  0.14866771595E+02  0.21210139383E+01  0.27517464060E+02  0.00000000000E+00 0.  1.
         13    1    3    3    0    0 -0.14493351185E+02 -0.31671049257E+02 -0.10292873959E+03  0.10866203580E+03  0.00000000000E+00 0. -1.
         21    1    1    2  502  501 -0.33863351528E+01 -0.21007114759E+02 -0.39480374144E+02  0.44849370997E+02  0.00000000000E+00 0.  1.
<scales pt_clust_5="13000.00000" pt_clust_6="13000.00000" pt_clust_7="13000.00000" pt_clust_8="13000.00000" pt_clust_9="21.27830"></scales>
<clustering>
<clus scale="   21.278">  2  9  1 -1</clus>
<clus scale="   89.593">  7  8 -1 -1</clus>
<clus scale="   91.762">  5  6 -1 -1</clus>
<clus scale="   92.783">  1  7  2 -1</clus>
<clus scale="   21.278">  2  5  1 -1</clus>
</clustering>
</event>
<event>
 9    1  0.9000149E-006  0.9956661E+02  0.7546771E-02  0.1281426E+00
          1   -1    0    0  502    0  0.00000000000E+00  0.00000000000E+00  0.34307727434E+03  0.34307727434E+03  0.00000000000E+00 0. -1.
         -1   -1    0    0    0  501 -0.00000000000E+00 -0.00000000000E+00 -0.78255215578E+02  0.78255215578E+02  0.00000000000E+00 0.  1.
         23    2    1    2    0    0  0.29513612403E+02  0.58570464978E+01  0.39821219888E+01  0.97306441717E+02  0.92451760359E+02 0.  0.
         23    2    1    2    0    0 -0.39202581565E+02 -0.37286887205E+02  0.63999452170E+02  0.12445679358E+03  0.92013092719E+02 0.  0.
        -13    1    4    4    0    0 -0.26199233724E+02 -0.67697532401E+02  0.51915002983E+02  0.89244177825E+02  0.00000000000E+00 0.  1.
         13    1    4    4    0    0 -0.13003347841E+02  0.30410645196E+02  0.12084449187E+02  0.35212615757E+02  0.00000000000E+00 0. -1.
        -13    1    3    3    0    0  0.29896222627E+02  0.43191235207E+02  0.20619990099E+02  0.56430939367E+02  0.00000000000E+00 0. -1.
         13    1    3    3    0    0 -0.38261022474E+00 -0.37334188709E+02 -0.16637868111E+02  0.40875502351E+02  0.00000000000E+00 0.  1.
         21    1    1    2  502  501  0.96889691619E+01  0.31429840707E+02  0.19684048460E+03  0.19956925462E+03  0.00000000000E+00 0.  1.
<scales pt_clust_5="13000.00000" pt_clust_6="13000.00000" pt_clust_7="13000.00000" pt_clust_8="13000.00000" pt_clust_9="32.88938"></scales>
<clustering>
<clus scale="   32.889">  1  9  2 -1</clus>
<clus scale="   92.013">  5  6 -1 -1</clus>
<clus scale="   92.452">  7  8 -1 -1</clus>
<clus scale="   99.159">  1  5  2 -1</clus>
<clus scale="   32.889">  1  5  2 -1</clus>
</clustering>
</event>
<event>
 9    1  0.9000149E-006  0.1016123E+03  0.7546771E-02  0.1279470E+00
          1   -1    0    0  502    0  0.00000000000E+00  0.00000000000E+00  0.24981738652E+03  0.24981738652E+03  0.00000000000E+00 0. -1.
         -1   -1    0    0    0  501 -0.00000000000E+00 -0.00000000000E+00 -0.20610949238E+03  0.20610949238E+03  0.00000000000E+00 0.  1.
         23    2    1    2    0    0  0.11361846293E+02  0.41092760345E+02 -0.14165485852E+03  0.17071666959E+03  0.85207839025E+02 0.  0.
         23    2    1    2    0    0  0.77978749386E+00 -0.61980890188E+02  0.12301533327E+02  0.11047063487E+03  0.90610124323E+02 0.  0.
        -13    1    3    3    0    0  0.43213325933E+02  0.21984227582E+02 -0.41235406735E+02  0.63647910957E+02  0.00000000000E+00 0. -1.
         13    1    3    3    0    0 -0.31851479640E+02  0.19108532763E+02 -0.10041945178E+03  0.10706875864E+03  0.00000000000E+00 0.  1.
        -13    1    4    4    0    0  0.77304793382E+01  0.20870496393E+02 -0.99844414324E+01  0.24393175300E+02  0.00000000000E+00 0.  1.
         13    1    4    4    0    0 -0.69506918443E+01 -0.82851386581E+02  0.22285974759E+02  0.86077459573E+02  0.00000000000E+00 0. -1.
         21    1    1    2  502  501 -0.12141633787E+02  0.20888129843E+02  0.17306121933E+03  0.17473957444E+03  0.00000000000E+00 0. -1.
<scales pt_clust_5="13000.00000" pt_clust_6="13000.00000" pt_clust_7="13000.00000" pt_clust_8="13000.00000" pt_clust_9="24.16057"></scales>
<clustering>
<clus scale="   24.161">  1  9  2 -1</clus>
<clus scale="   85.208">  5  6 -1 -1</clus>
<clus scale="   90.610">  7  8 -1 -1</clus>
<clus scale="   96.826">  2  5  1 -1</clus>
<clus scale="   24.161">  1  5  2 -1</clus>
</clustering>
</event>
<event>
 9    1  0.9000149E-006  0.1152028E+03  0.7546771E-02  0.1252953E+00
          1   -1    0    0  502    0  0.00000000000E+00  0.00000000000E+00  0.21763964863E+03  0.21763964863E+03  0.00000000000E+00 0. -1.
         -1   -1    0    0    0  501 -0.00000000000E+00 -0.00000000000E+00 -0.18094359053E+03  0.18094359053E+03  0.00000000000E+00 0.  1.
         23    2    1    2    0    0 -0.56921279617E+02 -0.38721009809E+02 -0.12472601904E+03  0.16888527513E+03  0.90698994792E+02 0.  0.
         23    2    1    2    0    0  0.85583891154E+02  0.20816594362E+02  0.95570577154E+02  0.15568084815E+03  0.85702148388E+02 0.  0.
        -13    1    4    4    0    0  0.27797004795E+02 -0.12336417234E+02  0.82315118020E+02  0.87753286664E+02  0.00000000000E+00 0. -1.
         13    1    4    4    0    0  0.57786886359E+02  0.33153011597E+02  0.13255459134E+02  0.67927561489E+02  0.00000000000E+00 0.  1.
        -13    1    3    3    0    0 -0.66099326659E+02  0.67278106339E+01 -0.61941479022E+02  0.90835737704E+02  0.00000000000E+00 0. -1.
         13    1    3    3    0    0  0.91780470428E+01 -0.45448820442E+02 -0.62784540018E+02  0.78049537426E+02  0.00000000000E+00 0.  1.
         21    1    1    2  502  501 -0.28662611537E+02  0.17904415446E+02  0.65851499981E+02  0.74017115874E+02  0.00000000000E+00 0. -1.
<scales pt_clust_5="13000.00000" pt_clust_6="13000.00000" pt_clust_7="13000.00000" pt_clust_8="13000.00000" pt_clust_9="33.79517"></scales>
<clustering>
<clus scale="   33.795">  1  9  2 -1</clus>
<clus scale="   85.702">  5  6 -1 -1</clus>
<clus scale="   90.699">  7  8 -1 -1</clus>
<clus scale="  111.311">  1  5  2 -1</clus>
<clus scale="   33.795">  1  5  2 -1</clus>
</clustering>
</event>
<event>
 9    1  0.9000149E-006  0.9428096E+02  0.7546771E-02  0.1294225E+00
          2   -1    0    0  502    0  0.00000000000E+00  0.00000000000E+00  0.13630049169E+03  0.13630049169E+03  0.00000000000E+00 0. -1.
         -2   -1    0    0    0  501 -0.00000000000E+00 -0.00000000000E+00 -0.45201799047E+03  0.45201799047E+03  0.00000000000E+00 0.  1.
         23    2    1    2    0    0  0.16756000099E+02 -0.87649463955E+01 -0.37778048443E+03  0.38951187797E+03  0.92972150906E+02 0.  0.
         23    2    1    2    0    0  0.13698818476E+02  0.16191324374E+02 -0.33075063278E+02  0.98637270461E+02  0.90473944871E+02 0.  0.
        -11    1    3    3    0    0  0.54610354316E+02  0.27558239961E+01 -0.19670441521E+03  0.20416295532E+03  0.00000000000E+00 0.  1.
         11    1    3    3    0    0 -0.37854354216E+02 -0.11520770392E+02 -0.18107606922E+03  0.18534892265E+03  0.00000000000E+00 0. -1.
        -11    1    4    4    0    0  0.45027455226E+02  0.55096098870E+01 -0.44573481241E+02  0.63597348648E+02  0.00000000000E+00 0.  1.
         11    1    4    4    0    0 -0.31328636750E+02  0.10681714487E+02  0.11498417963E+02  0.35039921813E+02  0.00000000000E+00 0. -1.
         21    1    1    2  502  501 -0.30454818575E+02 -0.74263779788E+01  0.95138048929E+02  0.10016933372E+03  0.00000000000E+00 0. -1.
<scales pt_clust_5="13000.00000" pt_clust_6="13000.00000" pt_clust_7="13000.00000" pt_clust_8="13000.00000" pt_clust_9="31.34720"></scales>
<clustering>
<clus scale="   31.347">  1  9  2 -1</clus>
<clus scale="   90.474">  7  8 -1 -1</clus>
<clus scale="   91.818">  1  7  2 -1</clus>
<clus scale="   92.972">  5  6 -1 -1</clus>
<clus scale="   31.347">  1  5  2 -1</clus>
</clustering>
</event>
<event>
 9    1  0.9000149E-006  0.1019248E+03  0.7546771E-02  0.1281394E+00
         -2   -1    0    0    0  501 -0.00000000000E+00  0.00000000000E+00  0.22880462195E+02  0.22880462195E+02  0.00000000000E+00 0.  1.
          2   -1    0    0  502    0  0.00000000000E+00 -0.00000000000E+00 -0.55870340061E+03  0.55870340061E+03  0.00000000000E+00 0. -1.
         23    2    1    2    0    0 -0.13519258843E+02  0.36927873738E+02 -0.21793625503E+03  0.24184551353E+03  0.97193636323E+02 0.  0.
         23    2    1    2    0    0 -0.96699741853E+01 -0.24522329424E+02 -0.21453565929E+03  0.23309374210E+03  0.87248440992E+02 0.  0.
        -11    1    3    3    0    0 -0.33342625725E+02 -0.23032528419E+02 -0.68116418935E+02  0.79259539389E+02  0.00000000000E+00 0.  1.
         11    1    3    3    0    0  0.19823366883E+02  0.59960402157E+02 -0.14981983609E+03  0.16258597414E+03  0.00000000000E+00 0. -1.
        -13    1    4    4    0    0 -0.19137996249E+02  0.10532099679E+02 -0.78028952153E+01  0.23196404847E+02  0.00000000000E+00 0.  1.
         13    1    4    4    0    0  0.94680220642E+01 -0.35054429103E+02 -0.20673276408E+03  0.20989733725E+03  0.00000000000E+00 0. -1.
         21    1    1    2  502  501  0.23189233028E+02 -0.12405544313E+02 -0.10335102410E+03  0.10664460718E+03  0.00000000000E+00 0.  1.
<scales pt_clust_5="13000.00000" pt_clust_6="13000.00000" pt_clust_7="13000.00000" pt_clust_8="13000.00000" pt_clust_9="26.29901"></scales>
<clustering>
<clus scale="   26.299">  2  9  1 -1</clus>
<clus scale="   87.248">  7  8 -1 -1</clus>
<clus scale="   92.490">  2  7  1 -1</clus>
<clus scale="   97.194">  5  6 -1 -1</clus>
<clus scale="   26.299">  2  5  1 -1</clus>
</clustering>
</event>
<event>
 9    1  0.9000149E-006  0.1424575E+03  0.7546771E-02  0.1210599E+00
         -1   -1    0    0    0  501 -0.00000000000E+00  0.00000000000E+00  0.60469316247E+02  0.60469316247E+02  0.00000000000E+00 0.  1.
          1   -1    0    0  502    0  0.00000000000E+00 -0.00000000000E+00 -0.44529189834E+03  0.44529189834E+03  0.00000000000E+00 0. -1.
         23    2    1    2    0    0 -0.89180650582E+02  0.40130974950E+02 -0.11960826460E+03  0.17848949440E+03  0.89379410724E+02 0.  0.
         23    2    1    2    0    0  0.11233448361E+03 -0.52383600990E+02 -0.17494870364E+03  0.23328178523E+03  0.91925320536E+02 0.  0.
        -11    1    3    3    0    0  0.16873332682E+02  0.11409100663E+02 -0.80302723594E+01  0.21894341916E+02  0.00000000000E+00 0.  1.
         11    1    3    3    0    0 -0.10605398326E+03  0.28721874286E+02 -0.11157799224E+03  0.15659515248E+03  0.00000000000E+00 0. -1.
        -13    1    4    4    0    0  0.97470003534E+02 -0.67843743046E+02 -0.17541022615E+03  0.21182993768E+03  0.00000000000E+00 0.  1.
         13    1    4    4    0    0  0.14864480075E+02  0.15460142056E+02  0.46152251280E+00  0.21451847550E+02  0.00000000000E+00 0. -1.
         21    1    1    2  502  501 -0.23153833027E+02  0.12252626040E+02 -0.90265613854E+02  0.93989934957E+02  0.00000000000E+00 0.  1.
<scales pt_clust_5="13000.00000" pt_clust_6="13000.00000" pt_clust_7="13000.00000" pt_clust_8="13000.00000" pt_clust_9="26.19593"></scales>
<clustering>
<clus scale="   26.196">  2  9  1 -1</clus>
<clus scale="   89.379">  5  6 -1 -1</clus>
<clus scale="   91.925">  7  8 -1 -1</clus>
<clus scale="  140.828">  1  5  2 -1</clus>
<clus scale="   26.196">  2  5  1 -1</clus>
</clustering>
</event>
<event>
 9    1  0.9000149E-006  0.9745459E+02  0.7546771E-02  0.1286558E+00
          2   -1    0    0  502    0  0.00000000000E+00  0.00000000000E+00  0.19688569933E+03  0.19688569933E+03  0.00000000000E+00 0. -1.
         -2   -1    0    0    0  501 -0.00000000000E+00 -0.00000000000E+00 -0.31787597168E+03  0.31787597168E+03  0.00000000000E+00 0.  1.
         23    2    1    2    0    0  0.48407758138E+02  0.55596949725E+02 -0.22394211060E+03  0.25250312429E+03  0.90407007540E+02 0.  0.
         23    2    1    2    0    0  0.77611023834E+01 -0.30452072293E+02  0.15412739812E+03  0.18222015792E+03  0.91985692824E+02 0.  0.
        -11    1    4    4    0    0  0.39905045533E+02  0.12058244353E+02  0.48834578802E+02  0.64207709838E+02  0.00000000000E+00 0.  1.
         11    1    4    4    0    0 -0.32143943150E+02 -0.42510316646E+02  0.10529281932E+03  0.11801244808E+03  0.00000000000E+00 0. -1.
        -13    1    3    3    0    0 -0.12500732853E+02 -0.16937849531E+02 -0.53833368705E+02  0.57803033266E+02  0.00000000000E+00 0. -1.
         13    1    3    3    0    0  0.60908490991E+02  0.72534799256E+02 -0.17010874189E+03  0.19470009103E+03  0.00000000000E+00 0.  1.
         21    1    1    2  502  501 -0.56168860521E+02 -0.25144877432E+02 -0.51175559873E+02  0.80038388799E+02  0.00000000000E+00 0.  1.
<scales pt_clust_5="13000.00000" pt_clust_6="13000.00000" pt_clust_7="13000.00000" pt_clust_8="13000.00000" pt_clust_9="61.54028"></scales>
<clustering>
<clus scale="   61.540">  2  9  1 -1</clus>
<clus scale="   90.407">  7  8 -1 -1</clus>
<clus scale="   91.986">  5  6 -1 -1</clus>
<clus scale="   95.966">  2  7  1 -1</clus>
<clus scale="   97.455">  1  5  2 -1</clus>
</clustering>
</event>
<event>
 9    1  0.9000149E-006  0.3716238E+03  0.7546771E-02  0.1054074E+00
         -2   -1    0    0    0  501 -0.00000000000E+00  0.00000000000E+00  0.37769730020E+03  0.37769730020E+03  0.00000000000E+00 0.  1.
          2   -1    0    0  502    0  0.00000000000E+00 -0.00000000000E+00 -0.68805840837E+03  0.68805840837E+03  0.00000000000E+00 0. -1.
         23    2    1    2    0    0 -0.21435609147E+03 -0.30014232606E+03  0.18984868265E+03  0.42447798662E+03  0.90028267650E+02 0.  0.
         23    2    1    2    0    0  0.15882059953E+03  0.28899314521E+03 -0.39992610933E+03  0.52610258630E+03  0.90011208074E+02 0.  0.
        -11    1    3    3    0    0 -0.17285924736E+03 -0.20318043821E+03  0.17227572705E+03  0.31755556364E+03  0.00000000000E+00 0.  1.
         11    1    3    3    0    0 -0.41496844111E+02 -0.96961887850E+02  0.17572955598E+02  0.10692242298E+03  0.00000000000E+00 0. -1.
        -13    1    4    4    0    0  0.40345240584E+02  0.62798465893E+02 -0.39661430774E+02  0.84524640475E+02  0.00000000000E+00 0.  1.
         13    1    4    4    0    0  0.11847535895E+03  0.22619467932E+03 -0.36026467855E+03  0.44157794583E+03  0.00000000000E+00 0. -1.
         21    1    1    2  502  501  0.55535491936E+02  0.11149180849E+02 -0.10028368149E+03  0.11517513565E+03  0.00000000000E+00 0. -1.
<scales pt_clust_5="13000.00000" pt_clust_6="13000.00000" pt_clust_7="13000.00000" pt_clust_8="13000.00000" pt_clust_9="56.64358"></scales>
<clustering>
<clus scale="   56.644">  2  9  1 -1</clus>
<clus scale="   90.011">  7  8 -1 -1</clus>
<clus scale="   90.028">  5  6 -1 -1</clus>
<clus scale="  371.620">  2  7  1 -1</clus>
<clus scale="   56.644">  2  5  1 -1</clus>
</clustering>
</event>
<event>
 9    1  0.9000149E-006  0.1192793E+03  0.7546771E-02  0.1246082E+00
         -1   -1    0    0    0  501 -0.00000000000E+00  0.00000000000E+00  0.29899745723E+03  0.29899745723E+03  0.00000000000E+00 0.  1.
          1   -1    0    0  502    0  0.00000000000E+00 -0.00000000000E+00 -0.67416452873E+02  0.67416452873E+02  0.00000000000E+00 0. -1.
         23    2    1    2    0    0  0.50554236231E+01  0.62766298907E+02  0.18089934229E+03  0.21396702302E+03  0.95352762483E+02 0.  0.
         23    2    1    2    0    0  0.13470499634E+02 -0.74322951416E+02  0.27658087684E+02  0.12071597113E+03  0.90011223767E+02 0.  0.
        -11    1    3    3    0    0  0.14741714617E+02  0.84101143136E+02  0.10970542540E+03  0.13901654861E+03  0.00000000000E+00 0.  1.
         11    1    3    3    0    0 -0.96862909942E+01 -0.21334844229E+02  0.71193916893E+02  0.74950474408E+02  0.00000000000E+00 0. -1.
        -11    1    4    4    0    0 -0.11760415471E+02 -0.85946534798E+02  0.32271798107E+02  0.92555838113E+02  0.00000000000E+00 0. -1.
         11    1    4    4    0    0  0.25230915106E+02  0.11623583382E+02 -0.46137104223E+01  0.28160133018E+02  0.00000000000E+00 0.  1.
         21    1    1    2  502  501 -0.18525923257E+02  0.11556652509E+02  0.23023574384E+02  0.31730915952E+02  0.00000000000E+00 0. -1.
<scales pt_clust_5="13000.00000" pt_clust_6="13000.00000" pt_clust_7="13000.00000" pt_clust_8="13000.00000" pt_clust_9="21.83497"></scales>
<clustering>
<clus scale="   21.835">  1  9  2 -1</clus>
<clus scale="   90.011">  7  8 -1 -1</clus>
<clus scale="   95.353">  5  6 -1 -1</clus>
<clus scale="  115.054">  2  7  1 -1</clus>
<clus scale="  115.054">  2  5  1 -1</clus>
</clustering>
</event>
<event>
 9    1  0.9000149E-006  0.9806434E+02  0.7546771E-02  0.1289227E+00
          1   -1    0    0  502    0  0.00000000000E+00  0.00000000000E+00  0.53230003704E+03  0.53230003704E+03  0.00000000000E+00 0. -1.
         -1   -1    0    0    0  501 -0.00000000000E+00 -0.00000000000E+00 -0.34171087886E+02  0.34171087886E+02  0.00000000000E+00 0.  1.
         23    2    1    2    0    0 -0.25654090788E+01 -0.39475671228E+02  0.12959127989E+03  0.16681240050E+03  0.97301424422E+02 0.  0.
         23    2    1    2    0    0 -0.18480358732E+02 -0.16271379654E+02  0.26016277272E+03  0.27598263043E+03  0.88743802802E+02 0.  0.
        -11    1    3    3    0    0 -0.17575879713E+02 -0.60712813009E+02  0.43115683985E+02  0.76510910441E+02  0.00000000000E+00 0. -1.
         11    1    3    3    0    0  0.15010470634E+02  0.21237141780E+02  0.86475595908E+02  0.90301490061E+02  0.00000000000E+00 0.  1.
        -13    1    4    4    0    0  0.28651004583E+02  0.17181652717E+02  0.11443834824E+03  0.11921503597E+03  0.00000000000E+00 0.  1.
         13    1    4    4    0    0 -0.47131363315E+02 -0.33453032371E+02  0.14572442447E+03  0.15676759445E+03  0.00000000000E+00 0. -1.
         21    1    1    2  502  501  0.21045767811E+02  0.55747050883E+02  0.10837489654E+03  0.12367609399E+03  0.00000000000E+00 0.  1.
<scales pt_clust_5="13000.00000" pt_clust_6="13000.00000" pt_clust_7="13000.00000" pt_clust_8="13000.00000" pt_clust_9="59.58740"></scales>
<clustering>
<clus scale="   59.587">  2  9  1 -1</clus>
<clus scale="   88.744">  7  8 -1 -1</clus>
<clus scale="   89.580">  1  7  2 -1</clus>
<clus scale="   97.301">  5  6 -1 -1</clus>
<clus scale="   89.580">  1  5  2 -1</clus>
</clustering>
</event>
<event>
 9    1  0.9000149E-006  0.1043138E+03  0.7546771E-02  0.1271486E+00
          2   -1    0    0  502    0  0.00000000000E+00  0.00000000000E+00  0.80905328036E+03  0.80905328036E+03  0.00000000000E+00 0. -1.
         -2   -1    0    0    0  501 -0.00000000000E+00 -0.00000000000E+00 -0.18059904763E+02  0.18059904763E+02  0.00000000000E+00 0.  1.
         23    2    1    2    0    0  0.15989838902E+02  0.49766124158E+02  0.26398905863E+03  0.28408298681E+03  0.90997682693E+02 0.  0.
         23    2    1    2    0    0 -0.37443415285E+02 -0.37078296547E+02  0.39883405918E+03  0.41245894616E+03  0.90977832904E+02 0.  0.
        -11    1    4    4    0    0 -0.95799151124E+01 -0.61568245115E+02  0.17942978485E+03  0.18994070462E+03  0.00000000000E+00 0.  1.
         11    1    4    4    0    0 -0.27863500172E+02  0.24489948568E+02  0.21940427433E+03  0.22251824153E+03  0.00000000000E+00 0. -1.
        -13    1    3    3    0    0  0.26870066454E+02  0.73330859406E+02  0.21303010131E+03  0.22689477622E+03  0.00000000000E+00 0.  1.
         13    1    3    3    0    0 -0.10880227551E+02 -0.23564735249E+02  0.50958957318E+02  0.57188210585E+02  0.00000000000E+00 0. -1.
         21    1    1    2  502  501  0.21453576382E+02 -0.12687827610E+02  0.12817025779E+03  0.13057125216E+03  0.00000000000E+00 0.  1.
<scales pt_clust_5="13000.00000" pt_clust_6="13000.00000" pt_clust_7="13000.00000" pt_clust_8="13000.00000" pt_clust_9="24.92462"></scales>
<clustering>
<clus scale="   24.925">  1  9  2 -1</clus>
<clus scale="   90.978">  5  6 -1 -1</clus>
<clus scale="   90.998">  7  8 -1 -1</clus>
<clus scale="  104.296">  1  5  2 -1</clus>
<clus scale="   24.925">  1  5  2 -1</clus>
</clustering>
</event>
<event>
 9    1  0.9000149E-006  0.1990325E+03  0.7546771E-02  0.1151165E+00
          2   -1    0    0  502    0  0.00000000000E+00  0.00000000000E+00  0.59255198402E+02  0.59255198402E+02  0.00000000000E+00 0. -1.
         -2   -1    0    0    0  501 -0.00000000000E+00 -0.00000000000E+00 -0.74579080984E+03  0.74579080984E+03  0.00000000000E+00 0.  1.
         23    2    1    2    0    0  0.16913237771E+03 -0.88480871077E+01 -0.32227699879E+03  0.37573694982E+03  0.92907166999E+02 0.  0.
         23    2    1    2    0    0 -0.18138944496E+03  0.24898533762E+02 -0.35066134403E+03  0.40496284209E+03  0.86657126412E+02 0.  0.
        -11    1    3    3    0    0  0.94212916421E+02 -0.50149384717E+02 -0.16077270118E+03  0.19297382168E+03  0.00000000000E+00 0. -1.
         11    1    3    3    0    0  0.74919461285E+02  0.41301297609E+02 -0.16150429761E+03  0.18276312814E+03  0.00000000000E+00 0.  1.
        -11    1    4    4    0    0 -0.12239540334E+03  0.57370542713E+02 -0.23818405005E+03  0.27386795290E+03  0.00000000000E+00 0.  1.
         11    1    4    4    0    0 -0.58994041620E+02 -0.32472008951E+02 -0.11247729398E+03  0.13109488919E+03  0.00000000000E+00 0. -1.
         21    1    1    2  502  501  0.12257067251E+02 -0.16050446655E+02 -0.13597268629E+02  0.24346216330E+02  0.00000000000E+00 0. -1.
<scales pt_clust_5="13000.00000" pt_clust_6="13000.00000" pt_clust_7="13000.00000" pt_clust_8="13000.00000" pt_clust_9="20.19536"></scales>
<clustering>
<clus scale="   20.195">  1  9  2 -1</clus>
<clus scale="   86.657">  7  8 -1 -1</clus>
<clus scale="   92.907">  5  6 -1 -1</clus>
<clus scale="  196.193">  1  7  2 -1</clus>
<clus scale="   20.195">  1  5  2 -1</clus>
</clustering>
</event>
<event>
 9    1  0.9000149E-006  0.1226240E+03  0.7546771E-02  0.1239967E+00
          1   -1    0    0  502    0  0.00000000000E+00  0.00000000000E+00  0.48802078654E+03  0.48802078654E+03  0.00000000000E+00 0. -1.
         -1   -1    0    0    0  501 -0.00000000000E+00 -0.00000000000E+00 -0.42364035825E+02  0.42364035825E+02  0.00000000000E+00 0.  1.
         23    2    1    2    0    0 -0.47735214989E+02  0.50419353169E+02  0.12016661808E+03  0.16506192466E+03  0.89356930044E+02 0.  0.
         23    2    1    2    0    0  0.37291091537E+02 -0.78874973172E+02  0.29895123524E+03  0.32503499506E+03  0.93080718005E+02 0.  0.
        -11    1    3    3    0    0 -0.72628513088E+02  0.25327374675E+02  0.72331133627E+02  0.10558489339E+03  0.00000000000E+00 0.  1.
         11    1    3    3    0    0  0.24893298099E+02  0.25091978494E+02  0.47835484456E+02  0.59477031266E+02  0.00000000000E+00 0. -1.
        -11    1    4    4    0    0  0.67645745155E+02 -0.57690469417E+02  0.18564005124E+03  0.20583091537E+03  0.00000000000E+00 0. -1.
         11    1    4    4    0    0 -0.30354653618E+02 -0.21184503756E+02  0.11331118400E+03  0.11920407969E+03  0.00000000000E+00 0.  1.
         21    1    1    2  502  501  0.10444123452E+02  0.28455620003E+02  0.26538897394E+02  0.40287902643E+02  0.00000000000E+00 0.  1.
<scales pt_clust_5="13000.00000" pt_clust_6="13000.00000" pt_clust_7="13000.00000" pt_clust_8="13000.00000" pt_clust_9="30.31175"></scales>
<clustering>
<clus scale="   30.312">  2  9  1 -1</clus>
<clus scale="   89.357">  5  6 -1 -1</clus>
<clus scale="   93.081">  7  8 -1 -1</clus>
<clus scale="  119.822">  2  5  1 -1</clus>
<clus scale="  122.624">  1  5  2 -1</clus>
</clustering>
</event>
<event>
 9    1  0.9000149E-006  0.1565669E+03  0.7546771E-02  0.1192753E+00
          2   -1    0    0  502    0  0.00000000000E+00  0.00000000000E+00  0.96654539668E+03  0.96654539668E+03  0.00000000000E+00 0. -1.
         -2   -1    0    0    0  501 -0.00000000000E+00 -0.00000000000E+00 -0.40555004324E+02  0.40555004324E+02  0.00000000000E+00 0.  1.
         23    2    1    2    0    0  0.93537977500E+02 -0.94313117364E+02  0.18575746834E+03  0.24570371005E+03  0.90665091131E+02 0.  0.
         23    2    1    2    0    0 -0.91960181613E+02  0.66689742881E+02  0.54307374533E+03  0.56230555102E+03  0.91401548302E+02 0.  0.
        -11    1    3    3    0    0  0.52104943665E+02 -0.40467622170E+01  0.10651094198E+03  0.11864182315E+03  0.00000000000E+00 0.  1.
         11    1    3    3    0    0  0.41433033835E+02 -0.90266355147E+02  0.79246526360E+02  0.12706188691E+03  0.00000000000E+00 0. -1.
        -13    1    4    4    0    0 -0.10832683986E+03  0.46344117983E+02  0.47501845380E+03  0.48941292684E+03  0.00000000000E+00 0. -1.
         13    1    4    4    0    0  0.16366658248E+02  0.20345624898E+02  0.68055291529E+02  0.72892624179E+02  0.00000000000E+00 0.  1.
         21    1    1    2  502  501 -0.15777958872E+01  0.27623374483E+02  0.19715917869E+03  0.19909113993E+03  0.00000000000E+00 0. -1.
<scales pt_clust_5="13000.00000" pt_clust_6="13000.00000" pt_clust_7="13000.00000" pt_clust_8="13000.00000" pt_clust_9="27.66840"></scales>
<clustering>
<clus scale="   27.668">  1  9  2 -1</clus>
<clus scale="   90.665">  5  6 -1 -1</clus>
<clus scale="   91.402">  7  8 -1 -1</clus>
<clus scale="  156.138">  2  5  1 -1</clus>
<clus scale="   27.668">  1  5  2 -1</clus>
</clustering>
</event>
<event>
 9    1  0.9000149E-006  0.1176818E+03  0.7546771E-02  0.1247471E+00
          2   -1    0    0  502    0  0.00000000000E+00  0.00000000000E+00  0.28919251787E+03  0.28919251787E+03  0.00000000000E+00 0. -1.
         -2   -1    0    0    0  501 -0.00000000000E+00 -0.00000000000E+00 -0.17063972890E+03  0.17063972890E+03  0.00000000000E+00 0.  1.
         23    2    1    2    0    0 -0.15526847386E+02 -0.74581882050E+02 -0.12583800409E+03  0.17302528986E+03  0.91098888781E+02 0.  0.
         23    2    1    2    0    0  0.44367494665E+02  0.52349743490E+02  0.17094610877E+03  0.20483029821E+03  0.89576273298E+02 0.  0.
        -11    1    4    4    0    0  0.41967885992E+02 -0.15039624379E+02  0.56173293961E+02  0.71714243428E+02  0.00000000000E+00 0.  1.
         11    1    4    4    0    0  0.23996086734E+01  0.67389367868E+02  0.11477281480E+03  0.13311605479E+03  0.00000000000E+00 0. -1.
        -13    1    3    3    0    0 -0.45671294180E+02 -0.65037702144E+02 -0.58654732375E+02  0.98773212169E+02  0.00000000000E+00 0.  1.
         13    1    3    3    0    0  0.30144446795E+02 -0.95441799054E+01 -0.67183271717E+02  0.74252077690E+02  0.00000000000E+00 0. -1.
         21    1    1    2  502  501 -0.28840647279E+02  0.22232138560E+02  0.73444684294E+02  0.81976658699E+02  0.00000000000E+00 0.  1.
<scales pt_clust_5="13000.00000" pt_clust_6="13000.00000" pt_clust_7="13000.00000" pt_clust_8="13000.00000" pt_clust_9="36.41498"></scales>
<clustering>
<clus scale="   36.415">  1  9  2 -1</clus>
<clus scale="   89.576">  5  6 -1 -1</clus>
<clus scale="   91.099">  7  8 -1 -1</clus>
<clus scale="  116.507">  1  5  2 -1</clus>
<clus scale="   36.415">  1  5  2 -1</clus>
</clustering>
</event>
<event>
 9    1  0.9000149E-006  0.1003770E+03  0.7546771E-02  0.1290023E+00
         -1   -1    0    0    0  501 -0.00000000000E+00  0.00000000000E+00  0.20899683297E+03  0.20899683297E+03  0.00000000000E+00 0.  1.
          1   -1    0    0  502    0  0.00000000000E+00 -0.00000000000E+00 -0.10786900035E+03  0.10786900035E+03  0.00000000000E+00 0. -1.
         23    2    1    2    0    0  0.10677796982E+01 -0.30985987988E+02  0.14669662717E+03  0.16911631452E+03  0.78225033115E+02 0.  0.
         23    2    1    2    0    0 -0.16465099237E+02 -0.46981316597E+01 -0.18249608982E+02  0.10024402708E+03  0.97070308555E+02 0.  0.
        -11    1    4    4    0    0  0.20176704865E+02  0.31811693910E+02  0.12953035088E+02  0.39835466692E+02  0.00000000000E+00 0.  1.
         11    1    4    4    0    0 -0.36641804102E+02 -0.36509825569E+02 -0.31202644070E+02  0.60408560386E+02  0.00000000000E+00 0. -1.
        -13    1    3    3    0    0  0.36937715567E+02 -0.32030162327E+01  0.49445844170E+02  0.61802472847E+02  0.00000000000E+00 0.  1.
         13    1    3    3    0    0 -0.35869935868E+02 -0.27782971755E+02  0.97250783004E+02  0.10731384167E+03  0.00000000000E+00 0. -1.
         21    1    1    2  502  501  0.15397319539E+02  0.35684119648E+02 -0.27319185574E+02  0.47505491729E+02  0.00000000000E+00 0.  1.
<scales pt_clust_5="13000.00000" pt_clust_6="13000.00000" pt_clust_7="13000.00000" pt_clust_8="13000.00000" pt_clust_9="38.86430"></scales>
<clustering>
<clus scale="   38.864">  2  9  1 -1</clus>
<clus scale="   78.225">  7  8 -1 -1</clus>
<clus scale="   82.292">  1  7  2 -1</clus>
<clus scale="   97.070">  5  6 -1 -1</clus>
<clus scale="   38.864">  2  5  1 -1</clus>
</clustering>
</event>
<event>
 9    1  0.9000149E-006  0.9195132E+02  0.7546771E-02  0.1310245E+00
         -3   -1    0    0    0  501 -0.00000000000E+00  0.00000000000E+00  0.10911762130E+03  0.10911762130E+03  0.00000000000E+00 0.  1.
          3   -1    0    0  502    0  0.00000000000E+00 -0.00000000000E+00 -0.12741225791E+03  0.12741225791E+03  0.00000000000E+00 0. -1.
         23    2    1    2    0    0 -0.47206773232E+01  0.22032340416E+02  0.59246630295E+02  0.95475059813E+02  0.71397584178E+02 0.  0.
         23    2    1    2    0    0 -0.10455531017E+02 -0.31787967069E+01 -0.47331222650E+02  0.10234538664E+03  0.90082798869E+02 0.  0.
        -11    1    3    3    0    0  0.16960823112E+02  0.27706063385E+02  0.38112126696E+00  0.32487547189E+02  0.00000000000E+00 0.  1.
         11    1    3    3    0    0 -0.21681500435E+02 -0.56737229692E+01  0.58865509028E+02  0.62987512624E+02  0.00000000000E+00 0. -1.
        -13    1    4    4    0    0  0.12737275671E+02 -0.29928468175E+02 -0.57015355677E+02  0.65640705221E+02  0.00000000000E+00 0.  1.
         13    1    4    4    0    0 -0.23192806688E+02  0.26749671469E+02  0.96841330273E+01  0.36704681422E+02  0.00000000000E+00 0. -1.
         21    1    1    2  502  501  0.15176208341E+02 -0.18853543709E+02 -0.30210044258E+02  0.38709432753E+02  0.00000000000E+00 0. -1.
<scales pt_clust_5="13000.00000" pt_clust_6="13000.00000" pt_clust_7="13000.00000" pt_clust_8="13000.00000" pt_clust_9="24.20276"></scales>
<clustering>
<clus scale="   24.203">  2  9  1 -1</clus>
<clus scale="   71.398">  5  6 -1 -1</clus>
<clus scale="   73.741">  1  5  2 -1</clus>
<clus scale="   90.083">  7  8 -1 -1</clus>
<clus scale="   24.203">  2  5  1 -1</clus>
</clustering>
</event>
<event>
 9    1  0.9000149E-006  0.1051009E+03  0.7546771E-02  0.1271005E+00
         -1   -1    0    0    0  501 -0.00000000000E+00  0.00000000000E+00  0.11458561550E+03  0.11458561550E+03  0.00000000000E+00 0.  1.
          1   -1    0    0  502    0  0.00000000000E+00 -0.00000000000E+00 -0.20709276109E+03  0.20709276109E+03  0.00000000000E+00 0. -1.
         23    2    1    2    0    0  0.41279953447E+02  0.39481980512E+01  0.56993111118E+02  0.11755993180E+03  0.94087725157E+02 0.  0.
         23    2    1    2    0    0 -0.37975597951E+02 -0.32299245530E+02 -0.10368289149E+03  0.15013759991E+03  0.96466417044E+02 0.  0.
        -11    1    4    4    0    0 -0.48707640572E+02  0.14900721088E+02 -0.22642407142E+02  0.55741764774E+02  0.00000000000E+00 0. -1.
         11    1    4    4    0    0  0.10732042621E+02 -0.47199966617E+02 -0.81040484348E+02  0.94395835135E+02  0.00000000000E+00 0.  1.
        -13    1    3    3    0    0 -0.20665127825E+02  0.21657058009E+02 -0.22718544284E+01  0.30020609457E+02  0.00000000000E+00 0. -1.
         13    1    3    3    0    0  0.61945081272E+02 -0.17708859958E+02  0.59264965546E+02  0.87539322342E+02  0.00000000000E+00 0.  1.
         21    1    1    2  502  501 -0.33043554964E+01  0.28351047479E+02 -0.45817365223E+02  0.53980844884E+02  0.00000000000E+00 0. -1.
<scales pt_clust_5="13000.00000" pt_clust_6="13000.00000" pt_clust_7="13000.00000" pt_clust_8="13000.00000" pt_clust_9="28.54296"></scales>
<clustering>
<clus scale="   28.543">  2  9  1 -1</clus>
<clus scale="   94.088">  7  8 -1 -1</clus>
<clus scale="   96.466">  5  6 -1 -1</clus>
<clus scale="  102.922">  1  7  2 -1</clus>
<clus scale="   28.543">  2  5  1 -1</clus>
</clustering>
</event>
<event>
 9    1  0.9000149E-006  0.1134439E+03  0.7546771E-02  0.1254596E+00
          2   -1    0    0  502    0  0.00000000000E+00  0.00000000000E+00  0.90509970206E+02  0.90509970206E+02  0.00000000000E+00 0. -1.
         -2   -1    0    0    0  501 -0.00000000000E+00 -0.00000000000E+00 -0.26747993721E+03  0.26747993721E+03  0.00000000000E+00 0.  1.
         23    2    1    2    0    0  0.13173345244E+01  0.63577634448E+02 -0.10273134052E+03  0.15085533116E+03  0.90331343620E+02 0.  0.
         23    2    1    2    0    0  0.54639731982E+02 -0.66725462605E+02 -0.84268942953E+02  0.15019856513E+03  0.89557615816E+02 0.  0.
        -11    1    3    3    0    0  0.13615883790E+01  0.84727990166E+02 -0.97283468368E+02  0.12901457072E+03  0.00000000000E+00 0.  1.
         11    1    3    3    0    0 -0.44253854640E-01 -0.21150355718E+02 -0.54478721570E+01  0.21840760437E+02  0.00000000000E+00 0. -1.
        -13    1    4    4    0    0  0.78257590512E+02 -0.40312465408E+02 -0.51803640694E+02  0.10214187451E+03  0.00000000000E+00 0.  1.
         13    1    4    4    0    0 -0.23617858530E+02 -0.26412997196E+02 -0.32465302260E+02  0.48056690619E+02  0.00000000000E+00 0. -1.
         21    1    1    2  502  501 -0.55957066506E+02  0.31478281568E+01  0.10030316476E+02  0.56936011124E+02  0.00000000000E+00 0. -1.
<scales pt_clust_5="13000.00000" pt_clust_6="13000.00000" pt_clust_7="13000.00000" pt_clust_8="13000.00000" pt_clust_9="56.04554"></scales>
<clustering>
<clus scale="   56.046">  1  9  2 -1</clus>
<clus scale="   89.558">  7  8 -1 -1</clus>
<clus scale="   90.331">  5  6 -1 -1</clus>
<clus scale="  112.829">  1  7  2 -1</clus>
<clus scale="   56.046">  1  5  2 -1</clus>
</clustering>
</event>
<event>
 9    1  0.9000149E-006  0.9454040E+02  0.7546771E-02  0.1293749E+00
          3   -1    0    0  502    0  0.00000000000E+00  0.00000000000E+00  0.35382370068E+02  0.35382370068E+02  0.00000000000E+00 0. -1.
         -3   -1    0    0    0  501 -0.00000000000E+00 -0.00000000000E+00 -0.61883511624E+03  0.61883511624E+03  0.00000000000E+00 0.  1.
         23    2    1    2    0    0 -0.24204131798E+02 -0.24145841253E+01 -0.34709987832E+03  0.36009800568E+03  0.92739301033E+02 0.  0.
         23    2    1    2    0    0  0.27491342586E+01 -0.27904231651E+02 -0.23895758514E+03  0.25688600024E+03  0.90019363154E+02 0.  0.
        -11    1    4    4    0    0  0.41787986507E+02  0.89529809811E+00 -0.74519445407E+02  0.85441120772E+02  0.00000000000E+00 0. -1.
         11    1    4    4    0    0 -0.39038852248E+02 -0.28799529749E+02 -0.16443813973E+03  0.17144487947E+03  0.00000000000E+00 0.  1.
        -11    1    3    3    0    0 -0.53150686415E+02  0.95193879303E+01 -0.28993511850E+03  0.29492030644E+03  0.00000000000E+00 0.  1.
         11    1    3    3    0    0  0.28946554617E+02 -0.11933972056E+02 -0.57164759819E+02  0.65177699241E+02  0.00000000000E+00 0. -1.
         21    1    1    2  502  501  0.21454997539E+02  0.30318815776E+02  0.26047172812E+01  0.37233480385E+02  0.00000000000E+00 0. -1.
<scales pt_clust_5="13000.00000" pt_clust_6="13000.00000" pt_clust_7="13000.00000" pt_clust_8="13000.00000" pt_clust_9="37.14226"></scales>
<clustering>
<clus scale="   37.142">  1  9  2 -1</clus>
<clus scale="   90.019">  5  6 -1 -1</clus>
<clus scale="   91.874">  1  5  2 -1</clus>
<clus scale="   92.739">  7  8 -1 -1</clus>
<clus scale="   37.142">  1  5  2 -1</clus>
</clustering>
</event>
<event>
 9    1  0.9000149E-006  0.1158057E+03  0.7546771E-02  0.1253187E+00
          1   -1    0    0  502    0  0.00000000000E+00  0.00000000000E+00  0.21597669694E+03  0.21597669694E+03  0.00000000000E+00 0. -1.
         -1   -1    0    0    0  501 -0.00000000000E+00 -0.00000000000E+00 -0.97323353510E+02  0.97323353510E+02  0.00000000000E+00 0.  1.
         23    2    1    2    0    0 -0.44359306817E+02 -0.45416281762E+02  0.13920538011E+02  0.11503004210E+03  0.94909127364E+02 0.  0.
         23    2    1    2    0    0  0.43947794260E+02  0.14035637950E+02  0.28790685650E+02  0.11609872563E+03  0.10257486417E+03 0.  0.
        -13    1    3    3    0    0 -0.25753745154E+02  0.72511789518E+01 -0.32716142593E+02  0.42263234280E+02  0.00000000000E+00 0.  1.
         13    1    3    3    0    0 -0.18605561663E+02 -0.52667460713E+02  0.46636680604E+02  0.72766807822E+02  0.00000000000E+00 0. -1.
        -13    1    4    4    0    0 -0.13804096484E+02  0.15889018745E+02 -0.28034706143E+02  0.35056507883E+02  0.00000000000E+00 0.  1.
         13    1    4    4    0    0  0.57751890744E+02 -0.18533807954E+01  0.56825391794E+02  0.81042217747E+02  0.00000000000E+00 0. -1.
         21    1    1    2  502  501  0.41151255689E+00  0.31380643812E+02  0.75942119765E+02  0.82171282714E+02  0.00000000000E+00 0. -1.
<scales pt_clust_5="13000.00000" pt_clust_6="13000.00000" pt_clust_7="13000.00000" pt_clust_8="13000.00000" pt_clust_9="31.38334"></scales>
<clustering>
<clus scale="   31.383">  1  9  2 -1</clus>
<clus scale="   94.909">  5  6 -1 -1</clus>
<clus scale="  102.575">  7  8 -1 -1</clus>
<clus scale="  109.074">  2  5  1 -1</clus>
<clus scale="   31.383">  1  5  2 -1</clus>
</clustering>
</event>
<event>
 9    1  0.9000149E-006  0.1023340E+03  0.7546771E-02  0.1276574E+00
         -1   -1    0    0    0  501 -0.00000000000E+00  0.00000000000E+00  0.57627086318E+02  0.57627086318E+02  0.00000000000E+00 0.  1.
          1   -1    0    0  502    0  0.00000000000E+00 -0.00000000000E+00 -0.32914073427E+03  0.32914073427E+03  0.00000000000E+00 0. -1.
         23    2    1    2    0    0  0.23772235400E+02  0.41296137173E+02 -0.37958133450E+02  0.11236670720E+03  0.94419102250E+02 0.  0.
         23    2    1    2    0    0  0.74352006919E+01 -0.69496709611E+01 -0.14834013255E+03  0.17736892734E+03  0.96702437018E+02 0.  0.
        -13    1    4    4    0    0  0.27918285015E+02 -0.45609310252E+02 -0.82866247057E+02  0.98622790069E+02  0.00000000000E+00 0.  1.
         13    1    4    4    0    0 -0.20483084323E+02  0.38659639291E+02 -0.65473885489E+02  0.78746137268E+02  0.00000000000E+00 0. -1.
        -13    1    3    3    0    0  0.50897159176E+02  0.36041847182E+02 -0.52158284736E+02  0.81302043191E+02  0.00000000000E+00 0.  1.
         13    1    3    3    0    0 -0.27124923776E+02  0.52542899904E+01  0.14200151285E+02  0.31064664004E+02  0.00000000000E+00 0. -1.
         21    1    1    2  502  501 -0.31207436092E+02 -0.34346466212E+02 -0.85215381953E+02  0.97032186052E+02  0.00000000000E+00 0. -1.
<scales pt_clust_5="13000.00000" pt_clust_6="13000.00000" pt_clust_7="13000.00000" pt_clust_8="13000.00000" pt_clust_9="46.40672"></scales>
<clustering>
<clus scale="   46.407">  2  9  1 -1</clus>
<clus scale="   94.419">  7  8 -1 -1</clus>
<clus scale="   96.702">  5  6 -1 -1</clus>
<clus scale="  100.179">  1  7  2 -1</clus>
<clus scale="   46.407">  2  5  1 -1</clus>
</clustering>
</event>
<event>
 9    1  0.9000149E-006  0.1560825E+03  0.7546771E-02  0.1193975E+00
         -1   -1    0    0    0  501 -0.00000000000E+00  0.00000000000E+00  0.45016252721E+03  0.45016252721E+03  0.00000000000E+00 0.  1.
          1   -1    0    0  502    0  0.00000000000E+00 -0.00000000000E+00 -0.93347824538E+02  0.93347824538E+02  0.00000000000E+00 0. -1.
         23    2    1    2    0    0  0.98016225354E+02 -0.44862874245E+02  0.19696932591E+03  0.24377745322E+03  0.94924567063E+02 0.  0.
         23    2    1    2    0    0 -0.14934194461E+03  0.29151858466E+02  0.16961834957E+03  0.24517397193E+03  0.90482289591E+02 0.  0.
        -11    1    4    4    0    0 -0.12771559290E+03  0.28748981411E+02  0.17886199591E+03  0.22165150616E+03  0.00000000000E+00 0.  1.
         11    1    4    4    0    0 -0.21626351714E+02  0.40287705496E+00 -0.92436463406E+01  0.23522465773E+02  0.00000000000E+00 0. -1.
        -11    1    3    3    0    0  0.58309777873E+01  0.25872976588E+02  0.26660731391E+02  0.37605927961E+02  0.00000000000E+00 0. -1.
         11    1    3    3    0    0  0.92185247567E+02 -0.70735850833E+02  0.17030859451E+03  0.20617152526E+03  0.00000000000E+00 0.  1.
         21    1    1    2  502  501  0.51325719256E+02  0.15711015778E+02 -0.97729728049E+01  0.54558926597E+02  0.00000000000E+00 0. -1.
<scales pt_clust_5="13000.00000" pt_clust_6="13000.00000" pt_clust_7="13000.00000" pt_clust_8="13000.00000" pt_clust_9="53.67649"></scales>
<clustering>
<clus scale="   53.676">  2  9  1 -1</clus>
<clus scale="   90.482">  5  6 -1 -1</clus>
<clus scale="   94.925">  7  8 -1 -1</clus>
<clus scale="  153.421">  2  5  1 -1</clus>
<clus scale="   53.676">  2  5  1 -1</clus>
</clustering>
</event>
<event>
 9    1  0.9000149E-006  0.1121757E+03  0.7546771E-02  0.1265544E+00
         -1   -1    0    0    0  501 -0.00000000000E+00  0.00000000000E+00  0.12800674422E+03  0.12800674422E+03  0.00000000000E+00 0.  1.
          1   -1    0    0  502    0  0.00000000000E+00 -0.00000000000E+00 -0.16217466443E+03  0.16217466443E+03  0.00000000000E+00 0. -1.
         23    2    1    2    0    0  0.23546175854E+02  0.30686859364E+02  0.54766612660E+02  0.11266856977E+03  0.90546778061E+02 0.  0.
         23    2    1    2    0    0  0.73038535943E+01 -0.24054568195E+02 -0.93092543548E+02  0.14568516765E+03  0.10920612566E+03 0.  0.
        -11    1    3    3    0    0 -0.25064304120E+02  0.17595753401E+02  0.54281041098E+02  0.62323842159E+02  0.00000000000E+00 0.  1.
         11    1    3    3    0    0  0.48610479974E+02  0.13091105963E+02  0.48557156151E+00  0.50344727613E+02  0.00000000000E+00 0. -1.
        -13    1    4    4    0    0 -0.41432484670E+02 -0.42647088624E+02 -0.43127100956E+02  0.73453194559E+02  0.00000000000E+00 0. -1.
         13    1    4    4    0    0  0.48736338265E+02  0.18592520429E+02 -0.49965442592E+02  0.72231973092E+02  0.00000000000E+00 0.  1.
         21    1    1    2  502  501 -0.30850029449E+02 -0.66322911686E+01  0.41580106842E+01  0.31827671231E+02  0.00000000000E+00 0.  1.
<scales pt_clust_5="13000.00000" pt_clust_6="13000.00000" pt_clust_7="13000.00000" pt_clust_8="13000.00000" pt_clust_9="31.55490"></scales>
<clustering>
<clus scale="   31.555">  1  9  2 -1</clus>
<clus scale="   90.547">  5  6 -1 -1</clus>
<clus scale="   94.107">  1  5  2 -1</clus>
<clus scale="  109.206">  7  8 -1 -1</clus>
<clus scale="  112.176">  2  5  1 -1</clus>
</clustering>
</event>
<event>
 9    1  0.9000149E-006  0.1304030E+03  0.7546771E-02  0.1236831E+00
         -2   -1    0    0    0  501 -0.00000000000E+00  0.00000000000E+00  0.69199918754E+03  0.69199918754E+03  0.00000000000E+00 0.  1.
          2   -1    0    0  502    0  0.00000000000E+00 -0.00000000000E+00 -0.12321043332E+03  0.12321043332E+03  0.00000000000E+00 0. -1.
         23    2    1    2    0    0 -0.45979211509E+02 -0.77502661866E+02  0.57235169800E+03  0.58653569248E+03  0.91197049677E+02 0.  0.
         23    2    1    2    0    0  0.14162304379E+02 -0.37917826826E+02 -0.19228049966E+02  0.10792791253E+03  0.98185456876E+02 0.  0.
        -11    1    4    4    0    0  0.33107859868E+02  0.23616050318E+02 -0.15208077848E+02  0.43418128121E+02  0.00000000000E+00 0.  1.
         11    1    4    4    0    0 -0.18945555489E+02 -0.61533877144E+02 -0.40199721180E+01  0.64509784413E+02  0.00000000000E+00 0. -1.
        -11    1    3    3    0    0 -0.72260359701E+02 -0.60129439370E+02  0.47501291206E+03  0.48422554216E+03  0.00000000000E+00 0.  1.
         11    1    3    3    0    0  0.26281148191E+02 -0.17373222497E+02  0.97338785940E+02  0.10231015032E+03  0.00000000000E+00 0. -1.
         21    1    1    2  502  501  0.31816907130E+02  0.11542048869E+03  0.15665106196E+02  0.12074601584E+03  0.00000000000E+00 0. -1.
<scales pt_clust_5="13000.00000" pt_clust_6="13000.00000" pt_clust_7="13000.00000" pt_clust_8="13000.00000" pt_clust_9="93.20963"></scales>
<clustering>
<clus scale="   91.197">  7  8 -1 -1</clus>
<clus scale="   98.185">  5  6 -1 -1</clus>
<clus scale="  106.201">  2  5  1 -1</clus>
<clus scale="   93.210">  2  9  1 -1</clus>
<clus scale="  106.201">  2  5  1 -1</clus>
</clustering>
</event>
<event>
 9    1  0.9000149E-006  0.9542719E+02  0.7546771E-02  0.1290663E+00
         -2   -1    0    0    0  501 -0.00000000000E+00  0.00000000000E+00  0.11960344817E+03  0.11960344817E+03  0.00000000000E+00 0. -1.
          2   -1    0    0  502    0  0.00000000000E+00 -0.00000000000E+00 -0.32080997047E+03  0.32080997047E+03  0.00000000000E+00 0.  1.
         23    2    1    2    0    0  0.94015687927E+01  0.20759326384E+02  0.80786758180E+02  0.12458088638E+03  0.92057361606E+02 0.  0.
         23    2    1    2    0    0 -0.51046757436E+01 -0.53994890726E+02 -0.23743930499E+03  0.26008199183E+03  0.91234384867E+02 0.  0.
        -11    1    3    3    0    0  0.40945075740E+02 -0.67403285822E+01  0.10539771750E+02  0.42813759999E+02  0.00000000000E+00 0.  1.
         11    1    3    3    0    0 -0.31543506947E+02  0.27499654966E+02  0.70246986429E+02  0.81767126378E+02  0.00000000000E+00 0. -1.
        -11    1    4    4    0    0 -0.16730205403E+02 -0.75633568762E+02 -0.14451928972E+03  0.16397000213E+03  0.00000000000E+00 0.  1.
         11    1    4    4    0    0  0.11625529659E+02  0.21638678036E+02 -0.92920015275E+02  0.96111989709E+02  0.00000000000E+00 0. -1.
         21    1    1    2  502  501 -0.42968930491E+01  0.33235564342E+02 -0.44553975486E+02  0.55750540434E+02  0.00000000000E+00 0.  1.
<scales pt_clust_5="13000.00000" pt_clust_6="13000.00000" pt_clust_7="13000.00000" pt_clust_8="13000.00000" pt_clust_9="33.51218"></scales>
<clustering>
<clus scale="   33.512">  2  9  1 -1</clus>
<clus scale="   91.234">  7  8 -1 -1</clus>
<clus scale="   92.057">  5  6 -1 -1</clus>
<clus scale="   94.634">  2  7  1 -1</clus>
<clus scale="   33.512">  2  5  1 -1</clus>
</clustering>
</event>
<event>
 9    1  0.9000149E-006  0.9702129E+02  0.7546771E-02  0.1288163E+00
         -2   -1    0    0    0  501 -0.00000000000E+00  0.00000000000E+00  0.35085796200E+02  0.35085796200E+02  0.00000000000E+00 0.  1.
          2   -1    0    0  502    0  0.00000000000E+00 -0.00000000000E+00 -0.51743355345E+03  0.51743355345E+03  0.00000000000E+00 0. -1.
         23    2    1    2    0    0 -0.41336150749E+02  0.58638797767E-01 -0.11760891237E+03  0.15401114769E+03  0.90437251988E+02 0.  0.
         23    2    1    2    0    0  0.65230820472E+01  0.21662564869E+02 -0.13781444927E+03  0.16790368821E+03  0.93204124205E+02 0.  0.
        -13    1    4    4    0    0 -0.29907569864E+01  0.56008082044E+02 -0.10691905637E+03  0.12073746103E+03  0.00000000000E+00 0.  1.
         13    1    4    4    0    0  0.95138390337E+01 -0.34345517176E+02 -0.30895392906E+02  0.47166227176E+02  0.00000000000E+00 0. -1.
        -13    1    3    3    0    0 -0.14453426553E+02  0.43915000526E+02 -0.41358544115E+02  0.62031910995E+02  0.00000000000E+00 0.  1.
         13    1    3    3    0    0 -0.26882724196E+02 -0.43856361729E+02 -0.76250368253E+02  0.91979236695E+02  0.00000000000E+00 0. -1.
         21    1    1    2  502  501  0.34813068702E+02 -0.21721203666E+02 -0.22692439561E+03  0.23060451376E+03  0.00000000000E+00 0.  1.
<scales pt_clust_5="13000.00000" pt_clust_6="13000.00000" pt_clust_7="13000.00000" pt_clust_8="13000.00000" pt_clust_9="41.03365"></scales>
<clustering>
<clus scale="   41.034">  2  9  1 -1</clus>
<clus scale="   90.437">  7  8 -1 -1</clus>
<clus scale="   93.204">  5  6 -1 -1</clus>
<clus scale="   94.366">  1  7  2 -1</clus>
<clus scale="   41.034">  2  5  1 -1</clus>
</clustering>
</event>
<event>
 9    1  0.9000149E-006  0.1166188E+03  0.7546771E-02  0.1251174E+00
          1   -1    0    0  502    0  0.00000000000E+00  0.00000000000E+00  0.12532892162E+03  0.12532892162E+03  0.00000000000E+00 0. -1.
         -1   -1    0    0    0  501 -0.00000000000E+00 -0.00000000000E+00 -0.61957314148E+03  0.61957314148E+03  0.00000000000E+00 0.  1.
         23    2    1    2    0    0  0.64474954039E+02 -0.24546846101E+02 -0.52362828263E+03  0.53737112034E+03  0.99103860950E+02 0.  0.
         23    2    1    2    0    0 -0.28410478168E+02  0.11932453635E+02 -0.57017684172E+02  0.11305855953E+03  0.92637372884E+02 0.  0.
        -11    1    3    3    0    0  0.89922707100E+02 -0.11314570499E+02 -0.43002218200E+03  0.43946921367E+03  0.00000000000E+00 0.  1.
         11    1    3    3    0    0 -0.25447753061E+02 -0.13232275602E+02 -0.93606100637E+02  0.97901906671E+02  0.00000000000E+00 0. -1.
        -13    1    4    4    0    0  0.70963275975E+01 -0.29247254675E+02 -0.49827958991E+02  0.58211556143E+02  0.00000000000E+00 0.  1.
         13    1    4    4    0    0 -0.35506805765E+02  0.41179708310E+02 -0.71897251810E+01  0.54847003385E+02  0.00000000000E+00 0. -1.
         21    1    1    2  502  501 -0.36064475871E+02  0.12614392466E+02  0.86401746949E+02  0.94472383229E+02  0.00000000000E+00 0. -1.
<scales pt_clust_5="13000.00000" pt_clust_6="13000.00000" pt_clust_7="13000.00000" pt_clust_8="13000.00000" pt_clust_9="38.20693"></scales>
<clustering>
<clus scale="   38.207">  1  9  2 -1</clus>
<clus scale="   92.637">  7  8 -1 -1</clus>
<clus scale="   99.104">  5  6 -1 -1</clus>
<clus scale="  111.176">  1  7  2 -1</clus>
<clus scale="   38.207">  1  5  2 -1</clus>
</clustering>
</event>
<event>
 9    1  0.9000149E-006  0.9176921E+02  0.7546771E-02  0.1300198E+00
         -1   -1    0    0    0  501 -0.00000000000E+00  0.00000000000E+00  0.55397632608E+02  0.55397632608E+02  0.00000000000E+00 0.  1.
          1   -1    0    0  502    0  0.00000000000E+00 -0.00000000000E+00 -0.31387352309E+03  0.31387352309E+03  0.00000000000E+00 0. -1.
         23    2    1    2    0    0  0.18764588401E+02 -0.75913818912E+01 -0.40930014735E+02  0.99710954503E+02  0.88641240317E+02 0.  0.
         23    2    1    2    0    0  0.58909625494E+01  0.34307010339E+01 -0.58665182793E+02  0.10872400486E+03  0.91284349214E+02 0.  0.
        -11    1    4    4    0    0 -0.27090585461E+02 -0.32790158315E+02 -0.26188888279E+02  0.49949496216E+02  0.00000000000E+00 0.  1.
         11    1    4    4    0    0  0.32981548010E+02  0.36220859349E+02 -0.32476294514E+02  0.58774508645E+02  0.00000000000E+00 0. -1.
        -13    1    3    3    0    0  0.47807091412E+02  0.13459502089E+02 -0.40097989638E+02  0.63832005755E+02  0.00000000000E+00 0.  1.
         13    1    3    3    0    0 -0.29042503011E+02 -0.21050883980E+02 -0.83202509706E+00  0.35878948748E+02  0.00000000000E+00 0. -1.
         21    1    1    2  502  501 -0.24655550950E+02  0.41606808573E+01 -0.15888069295E+03  0.16083619633E+03  0.00000000000E+00 0.  1.
<scales pt_clust_5="13000.00000" pt_clust_6="13000.00000" pt_clust_7="13000.00000" pt_clust_8="13000.00000" pt_clust_9="25.00415"></scales>
<clustering>
<clus scale="   25.004">  2  9  1 -1</clus>
<clus scale="   88.641">  7  8 -1 -1</clus>
<clus scale="   89.140">  1  7  2 -1</clus>
<clus scale="   91.284">  5  6 -1 -1</clus>
<clus scale="   25.004">  2  5  1 -1</clus>
</clustering>
</event>
<event>
 9    1  0.9000149E-006  0.1015244E+03  0.7546771E-02  0.1278759E+00
         -3   -1    0    0    0  501 -0.00000000000E+00  0.00000000000E+00  0.72974968817E+02  0.72974968817E+02  0.00000000000E+00 0.  1.
          3   -1    0    0  502    0  0.00000000000E+00 -0.00000000000E+00 -0.34221915720E+03  0.34221915720E+03  0.00000000000E+00 0. -1.
         23    2    1    2    0    0 -0.34157312252E+02 -0.21714526765E+02 -0.14883256458E+02  0.10170386996E+03  0.92108214559E+02 0.  0.
         23    2    1    2    0    0  0.56011849674E+02 -0.16850316191E+02 -0.78350551511E+02  0.13198399740E+03  0.88654983999E+02 0.  0.
        -11    1    3    3    0    0 -0.15052964231E+02 -0.47882086431E+02  0.20058953051E+02  0.54052266656E+02  0.00000000000E+00 0.  1.
         11    1    3    3    0    0 -0.19104348021E+02  0.26167559666E+02 -0.34942209509E+02  0.47651603305E+02  0.00000000000E+00 0. -1.
        -11    1    4    4    0    0  0.29271033845E+02 -0.91100412948E+01  0.15315307226E+02  0.34268716202E+02  0.00000000000E+00 0.  1.
         11    1    4    4    0    0  0.26740815829E+02 -0.77402748961E+01 -0.93665858736E+02  0.97715281197E+02  0.00000000000E+00 0. -1.
         21    1    1    2  502  501 -0.21854537422E+02  0.38564842956E+02 -0.17601038042E+03  0.18150625866E+03  0.00000000000E+00 0.  1.
<scales pt_clust_5="13000.00000" pt_clust_6="13000.00000" pt_clust_7="13000.00000" pt_clust_8="13000.00000" pt_clust_9="44.32683"></scales>
<clustering>
<clus scale="   44.327">  2  9  1 -1</clus>
<clus scale="   88.655">  7  8 -1 -1</clus>
<clus scale="   92.108">  5  6 -1 -1</clus>
<clus scale="   98.402">  2  7  1 -1</clus>
<clus scale="   44.327">  2  5  1 -1</clus>
</clustering>
</event>
<event>
 9    1  0.9000149E-006  0.1056686E+03  0.7546771E-02  0.1270695E+00
         -2   -1    0    0    0  501 -0.00000000000E+00  0.00000000000E+00  0.26435685508E+02  0.26435685508E+02  0.00000000000E+00 0. -1.
          2   -1    0    0  502    0  0.00000000000E+00 -0.00000000000E+00 -0.73831482926E+03  0.73831482926E+03  0.00000000000E+00 0.  1.
         23    2    1    2    0    0  0.46767862789E+02 -0.32850274071E+02 -0.14853660953E+03  0.18333499896E+03  0.91006724906E+02 0.  0.
         23    2    1    2    0    0 -0.28251768829E+02 -0.50163532583E+01 -0.34538412755E+03  0.35941868195E+03  0.95227449460E+02 0.  0.
        -11    1    4    4    0    0 -0.42033564630E+02  0.36490114780E+02 -0.18724858773E+03  0.19534682654E+03  0.00000000000E+00 0.  1.
         11    1    4    4    0    0  0.13781795800E+02 -0.41506468038E+02 -0.15813553982E+03  0.16407185542E+03  0.00000000000E+00 0. -1.
        -13    1    3    3    0    0  0.50412291106E+02 -0.55209518414E+02 -0.73066391812E+02  0.10453797219E+03  0.00000000000E+00 0. -1.
         13    1    3    3    0    0 -0.36444283167E+01  0.22359244344E+02 -0.75470217716E+02  0.78797026768E+02  0.00000000000E+00 0.  1.
         21    1    1    2  502  501 -0.18516093960E+02  0.37866627329E+02 -0.21795840667E+03  0.22199683385E+03  0.00000000000E+00 0.  1.
<scales pt_clust_5="13000.00000" pt_clust_6="13000.00000" pt_clust_7="13000.00000" pt_clust_8="13000.00000" pt_clust_9="42.15124"></scales>
<clustering>
<clus scale="   42.151">  2  9  1 -1</clus>
<clus scale="   91.007">  7  8 -1 -1</clus>
<clus scale="   95.227">  5  6 -1 -1</clus>
<clus scale="  101.881">  1  7  2 -1</clus>
<clus scale="   42.151">  2  5  1 -1</clus>
</clustering>
</event>
<event>
 9    1  0.9000149E-006  0.1034172E+03  0.7546771E-02  0.1273614E+00
          2   -1    0    0  502    0  0.00000000000E+00  0.00000000000E+00  0.31778469305E+03  0.31778469305E+03  0.00000000000E+00 0. -1.
         -2   -1    0    0    0  501 -0.00000000000E+00 -0.00000000000E+00 -0.12192450602E+03  0.12192450602E+03  0.00000000000E+00 0.  1.
         23    2    1    2    0    0  0.27388388884E+02 -0.43907996022E+02 -0.63145296028E+02  0.12297345648E+03  0.91962528387E+02 0.  0.
         23    2    1    2    0    0  0.41130271425E+02  0.47433707909E+02  0.13115111860E+03  0.17163585986E+03  0.91195376020E+02 0.  0.
        -11    1    3    3    0    0  0.36138266155E+02 -0.67852835889E+02 -0.33456281238E+02  0.83840946876E+02  0.00000000000E+00 0. -1.
         11    1    3    3    0    0 -0.87498772710E+01  0.23944839867E+02 -0.29689014790E+02  0.39132509602E+02  0.00000000000E+00 0.  1.
        -13    1    4    4    0    0  0.78494344130E+01 -0.21926077757E+02  0.68723032909E+02  0.72561847817E+02  0.00000000000E+00 0.  1.
         13    1    4    4    0    0  0.33280837012E+02  0.69359785666E+02  0.62428085691E+02  0.99074012046E+02  0.00000000000E+00 0. -1.
         21    1    1    2  502  501 -0.68518660309E+02 -0.35257118872E+01  0.12785436446E+03  0.14509988272E+03  0.00000000000E+00 0. -1.
<scales pt_clust_5="13000.00000" pt_clust_6="13000.00000" pt_clust_7="13000.00000" pt_clust_8="13000.00000" pt_clust_9="68.60931"></scales>
<clustering>
<clus scale="   68.609">  1  9  2 -1</clus>
<clus scale="   91.195">  7  8 -1 -1</clus>
<clus scale="   91.963">  5  6 -1 -1</clus>
<clus scale="  102.736">  1  7  2 -1</clus>
<clus scale="   68.609">  1  5  2 -1</clus>
</clustering>
</event>
<event>
 9    1  0.9000149E-006  0.1245073E+03  0.7546771E-02  0.1236633E+00
         -1   -1    0    0    0  501 -0.00000000000E+00  0.00000000000E+00  0.18271932332E+03  0.18271932332E+03  0.00000000000E+00 0.  1.
          1   -1    0    0  502    0  0.00000000000E+00 -0.00000000000E+00 -0.28441262940E+03  0.28441262940E+03  0.00000000000E+00 0. -1.
         23    2    1    2    0    0  0.37056582545E+02  0.65852741310E+02  0.10013519228E+03  0.15451236741E+03  0.90206657746E+02 0.  0.
         23    2    1    2    0    0 -0.71671409867E+02 -0.84729300967E+02 -0.45975479402E+02  0.15185679641E+03  0.92902618241E+02 0.  0.
        -11    1    4    4    0    0 -0.15805847641E+02 -0.86666142917E+02 -0.35527075341E+02  0.94989569059E+02  0.00000000000E+00 0. -1.
         11    1    4    4    0    0 -0.55865562226E+02  0.19368419497E+01 -0.10448404061E+02  0.56867227355E+02  0.00000000000E+00 0.  1.
        -13    1    3    3    0    0  0.44497785932E+02 -0.44004244660E+00  0.16337538723E+02  0.47404237803E+02  0.00000000000E+00 0. -1.
         13    1    3    3    0    0 -0.74412033866E+01  0.66292783756E+02  0.83797653558E+02  0.10710812961E+03  0.00000000000E+00 0.  1.
         21    1    1    2  502  501  0.34614827322E+02  0.18876559657E+02 -0.15585301895E+03  0.16076278889E+03  0.00000000000E+00 0. -1.
<scales pt_clust_5="13000.00000" pt_clust_6="13000.00000" pt_clust_7="13000.00000" pt_clust_8="13000.00000" pt_clust_9="39.42728"></scales>
<clustering>
<clus scale="   39.427">  2  9  1 -1</clus>
<clus scale="   90.207">  7  8 -1 -1</clus>
<clus scale="   92.903">  5  6 -1 -1</clus>
<clus scale="  122.509">  1  7  2 -1</clus>
<clus scale="   39.427">  2  5  1 -1</clus>
</clustering>
</event>
<event>
 9    1  0.9000149E-006  0.1095146E+03  0.7546771E-02  0.1262291E+00
         -1   -1    0    0    0  501 -0.00000000000E+00  0.00000000000E+00  0.28030892974E+02  0.28030892974E+02  0.00000000000E+00 0.  1.
          1   -1    0    0  502    0  0.00000000000E+00 -0.00000000000E+00 -0.93527325281E+03  0.93527325281E+03  0.00000000000E+00 0. -1.
         23    2    1    2    0    0 -0.49958769384E+02  0.21411534671E+02 -0.12200206094E+03  0.16176449923E+03  0.91262905295E+02 0.  0.
         23    2    1    2    0    0  0.46910542157E+02 -0.56995323586E+02 -0.49446705295E+03  0.50858132481E+03  0.93317906166E+02 0.  0.
        -11    1    3    3    0    0 -0.51105509563E+02 -0.22701890608E+02 -0.40375805905E+02  0.68973579343E+02  0.00000000000E+00 0.  1.
         11    1    3    3    0    0  0.11467401791E+01  0.44113425279E+02 -0.81626255038E+02  0.92790919892E+02  0.00000000000E+00 0. -1.
        -11    1    4    4    0    0 -0.23420634573E+02 -0.94139177997E+01 -0.49280908437E+02  0.55369268629E+02  0.00000000000E+00 0.  1.
         11    1    4    4    0    0  0.70331176730E+02 -0.47581405786E+02 -0.44518614451E+03  0.45321205618E+03  0.00000000000E+00 0. -1.
         21    1    1    2  502  501  0.30482272267E+01  0.35583788915E+02 -0.29077324594E+03  0.29295832174E+03  0.00000000000E+00 0.  1.
<scales pt_clust_5="13000.00000" pt_clust_6="13000.00000" pt_clust_7="13000.00000" pt_clust_8="13000.00000" pt_clust_9="35.71411"></scales>
<clustering>
<clus scale="   35.714">  2  9  1 -1</clus>
<clus scale="   91.263">  5  6 -1 -1</clus>
<clus scale="   93.318">  7  8 -1 -1</clus>
<clus scale="  107.769">  1  5  2 -1</clus>
<clus scale="   35.714">  2  5  1 -1</clus>
</clustering>
</event>
<event>
 9    1  0.9000149E-006  0.1426104E+03  0.7546771E-02  0.1214972E+00
         -4   -1    0    0    0  501 -0.00000000000E+00  0.00000000000E+00  0.27976194084E+03  0.27976194084E+03  0.00000000000E+00 0.  1.
          4   -1    0    0  502    0  0.00000000000E+00 -0.00000000000E+00 -0.87152752202E+02  0.87152752202E+02  0.00000000000E+00 0. -1.
         23    2    1    2    0    0 -0.96402686285E+02 -0.27216447442E+02  0.11703125265E+03  0.18903406951E+03  0.10955981199E+03 0.  0.
         23    2    1    2    0    0  0.87249565862E+02  0.45499614171E+01  0.34057250849E+02  0.12969850551E+03  0.89602550774E+02 0.  0.
        -11    1    3    3    0    0 -0.33425143112E+02 -0.65866268187E+02  0.49357005111E+02  0.88835350118E+02  0.00000000000E+00 0.  1.
         11    1    3    3    0    0 -0.62977543173E+02  0.38649820746E+02  0.67674247538E+02  0.10019871939E+03  0.00000000000E+00 0. -1.
        -13    1    4    4    0    0  0.34669517414E+02  0.26721891741E+02  0.53762382429E+02  0.69328411927E+02  0.00000000000E+00 0.  1.
         13    1    4    4    0    0  0.52580048449E+02 -0.22171930324E+02 -0.19705131580E+02  0.60370093587E+02  0.00000000000E+00 0. -1.
         21    1    1    2  502  501  0.91531204229E+01  0.22666486025E+02  0.41520685138E+02  0.48182118016E+02  0.00000000000E+00 0. -1.
<scales pt_clust_5="13000.00000" pt_clust_6="13000.00000" pt_clust_7="13000.00000" pt_clust_8="13000.00000" pt_clust_9="24.44482"></scales>
<clustering>
<clus scale="   24.445">  1  9  2 -1</clus>
<clus scale="   89.603">  7  8 -1 -1</clus>
<clus scale="  109.560">  5  6 -1 -1</clus>
<clus scale="  127.918">  2  7  1 -1</clus>
<clus scale="  127.918">  2  5  1 -1</clus>
</clustering>
</event>
<event>
 9    1  0.9000149E-006  0.2193960E+03  0.7546771E-02  0.1134478E+00
         -1   -1    0    0    0  501 -0.00000000000E+00  0.00000000000E+00  0.29492544002E+03  0.29492544002E+03  0.00000000000E+00 0.  1.
          1   -1    0    0  502    0  0.00000000000E+00 -0.00000000000E+00 -0.58286203393E+03  0.58286203393E+03  0.00000000000E+00 0. -1.
         23    2    1    2    0    0 -0.60093898127E+01 -0.20332283671E+03  0.20804473193E+03  0.30443295689E+03  0.89557389774E+02 0.  0.
         23    2    1    2    0    0  0.63103285447E+02  0.15868573660E+03 -0.44325965919E+03  0.48373444253E+03  0.91414975764E+02 0.  0.
        -11    1    3    3    0    0 -0.45045226481E+00 -0.42751190998E+02  0.10548980733E+03  0.11382427987E+03  0.00000000000E+00 0.  1.
         11    1    3    3    0    0 -0.55589375479E+01 -0.16057164571E+03  0.10255492460E+03  0.19060867702E+03  0.00000000000E+00 0. -1.
        -13    1    4    4    0    0  0.31191218416E+02  0.15843985704E+03 -0.35953348474E+03  0.39413247399E+03  0.00000000000E+00 0. -1.
         13    1    4    4    0    0  0.31912067031E+02  0.24587956329E+00 -0.83726174444E+02  0.89601968539E+02  0.00000000000E+00 0.  1.
         21    1    1    2  502  501 -0.57093895634E+02  0.44637100110E+02 -0.52721666644E+02  0.89620074530E+02  0.00000000000E+00 0.  1.
<scales pt_clust_5="13000.00000" pt_clust_6="13000.00000" pt_clust_7="13000.00000" pt_clust_8="13000.00000" pt_clust_9="72.47195"></scales>
<clustering>
<clus scale="   72.472">  2  9  1 -1</clus>
<clus scale="   89.557">  5  6 -1 -1</clus>
<clus scale="   91.415">  7  8 -1 -1</clus>
<clus scale="  218.629">  1  5  2 -1</clus>
<clus scale="   72.472">  2  5  1 -1</clus>
</clustering>
</event>
<event>
 9    1  0.9000149E-006  0.1018890E+03  0.7546771E-02  0.1277453E+00
         -1   -1    0    0    0  501 -0.00000000000E+00  0.00000000000E+00  0.13466420369E+03  0.13466420369E+03  0.00000000000E+00 0.  1.
          1   -1    0    0  502    0  0.00000000000E+00 -0.00000000000E+00 -0.22712287158E+03  0.22712287158E+03  0.00000000000E+00 0. -1.
         23    2    1    2    0    0 -0.26940342471E+02 -0.38972907937E+02  0.89792245197E+02  0.13704373439E+03  0.92052529752E+02 0.  0.
         23    2    1    2    0    0 -0.74631357446E+01  0.31025381790E+02 -0.12034729351E+03  0.15347749630E+03  0.89741841444E+02 0.  0.
        -11    1    4    4    0    0 -0.47123235825E+02  0.53747184761E+01 -0.51801941880E+02  0.70234807153E+02  0.00000000000E+00 0.  1.
         11    1    4    4    0    0  0.39660100080E+02  0.25650663314E+02 -0.68545351631E+02  0.83242689150E+02  0.00000000000E+00 0. -1.
        -13    1    3    3    0    0  0.15720788298E+02 -0.54831428186E+02  0.59173657094E+02  0.82189721957E+02  0.00000000000E+00 0. -1.
         13    1    3    3    0    0 -0.42661130769E+02  0.15858520249E+02  0.30618588104E+02  0.54854012437E+02  0.00000000000E+00 0.  1.
         21    1    1    2  502  501  0.34403478215E+02  0.79475261469E+01 -0.61903619584E+02  0.71265844574E+02  0.00000000000E+00 0. -1.
<scales pt_clust_5="13000.00000" pt_clust_6="13000.00000" pt_clust_7="13000.00000" pt_clust_8="13000.00000" pt_clust_9="35.30952"></scales>
<clustering>
<clus scale="   35.310">  2  9  1 -1</clus>
<clus scale="   89.742">  5  6 -1 -1</clus>
<clus scale="   92.053">  7  8 -1 -1</clus>
<clus scale="   99.806">  2  5  1 -1</clus>
<clus scale="   35.310">  2  5  1 -1</clus>
</clustering>
</event>
<event>
 9    1  0.9000149E-006  0.3519875E+03  0.7546771E-02  0.1061943E+00
         -1   -1    0    0    0  501 -0.00000000000E+00  0.00000000000E+00  0.56684514203E+03  0.56684514203E+03  0.00000000000E+00 0.  1.
          1   -1    0    0  502    0  0.00000000000E+00 -0.00000000000E+00 -0.90460878475E+03  0.90460878475E+03  0.00000000000E+00 0. -1.
         23    2    1    2    0    0  0.19207018086E+03  0.28217300102E+03  0.46686740982E+03  0.58514791057E+03  0.88996303325E+02 0.  0.
         23    2    1    2    0    0 -0.18001295637E+03 -0.25701737058E+03 -0.63655390451E+03  0.71592963846E+03  0.94296238671E+02 0.  0.
        -13    1    3    3    0    0  0.15447462415E+03  0.26633525236E+03  0.37922219654E+03  0.48847349008E+03  0.00000000000E+00 0.  1.
         13    1    3    3    0    0  0.37595556711E+02  0.15837748668E+02  0.87645213276E+02  0.96674420492E+02  0.00000000000E+00 0. -1.
        -13    1    4    4    0    0 -0.92650055031E+02 -0.72258553797E+02 -0.29992642525E+03  0.32211984084E+03  0.00000000000E+00 0.  1.
         13    1    4    4    0    0 -0.87362901343E+02 -0.18475881679E+03 -0.33662747926E+03  0.39380979762E+03  0.00000000000E+00 0. -1.
         21    1    1    2  502  501 -0.12057224488E+02 -0.25155630441E+02 -0.16807714803E+03  0.17037637775E+03  0.00000000000E+00 0. -1.
<scales pt_clust_5="13000.00000" pt_clust_6="13000.00000" pt_clust_7="13000.00000" pt_clust_8="13000.00000" pt_clust_9="27.89592"></scales>
<clustering>
<clus scale="   27.896">  2  9  1 -1</clus>
<clus scale="   88.996">  5  6 -1 -1</clus>
<clus scale="   94.296">  7  8 -1 -1</clus>
<clus scale="  350.605">  1  5  2 -1</clus>
<clus scale="   27.896">  2  5  1 -1</clus>
</clustering>
</event>
<event>
 9    1  0.9000149E-006  0.1013392E+03  0.7546771E-02  0.1277673E+00
         -1   -1    0    0    0  501 -0.00000000000E+00  0.00000000000E+00  0.16834326450E+03  0.16834326450E+03  0.00000000000E+00 0.  1.
          1   -1    0    0  502    0  0.00000000000E+00 -0.00000000000E+00 -0.18850052500E+03  0.18850052500E+03  0.00000000000E+00 0. -1.
         23    2    1    2    0    0  0.46422265849E+01 -0.11714261993E+02  0.77596537991E+02  0.12058395906E+03  0.91435738487E+02 0.  0.
         23    2    1    2    0    0 -0.30125674929E+01 -0.54399598798E+02 -0.12565956269E+03  0.16447940098E+03  0.91075549627E+02 0.  0.
        -13    1    3    3    0    0 -0.30184694568E+02 -0.29288150636E+02  0.68732964683E+02  0.80579972623E+02  0.00000000000E+00 0.  1.
         13    1    3    3    0    0  0.34826921153E+02  0.17573888643E+02  0.88635733079E+01  0.40003986437E+02  0.00000000000E+00 0. -1.
        -13    1    4    4    0    0 -0.59999803100E+01  0.22340833772E+02 -0.90240724940E+01  0.24830354442E+02  0.00000000000E+00 0. -1.
         13    1    4    4    0    0  0.29874128172E+01 -0.76740432570E+02 -0.11663549020E+03  0.13964904654E+03  0.00000000000E+00 0.  1.
         21    1    1    2  502  501 -0.16296590920E+01  0.66113860791E+02  0.27905764203E+02  0.71780429458E+02  0.00000000000E+00 0. -1.
<scales pt_clust_5="13000.00000" pt_clust_6="13000.00000" pt_clust_7="13000.00000" pt_clust_8="13000.00000" pt_clust_9="66.13394"></scales>
<clustering>
<clus scale="   66.134">  1  9  2 -1</clus>
<clus scale="   91.076">  7  8 -1 -1</clus>
<clus scale="   91.436">  5  6 -1 -1</clus>
<clus scale="  101.014">  2  7  1 -1</clus>
<clus scale="  101.014">  2  5  1 -1</clus>
</clustering>
</event>
<event>
 9    1  0.9000149E-006  0.1117651E+03  0.7546771E-02  0.1261923E+00
         -2   -1    0    0    0  501 -0.00000000000E+00  0.00000000000E+00  0.61039479173E+02  0.61039479173E+02  0.00000000000E+00 0.  1.
          2   -1    0    0  502    0  0.00000000000E+00 -0.00000000000E+00 -0.48725961795E+03  0.48725961795E+03  0.00000000000E+00 0. -1.
         23    2    1    2    0    0  0.14622599278E+02  0.81905981538E+01 -0.89455093993E+02  0.13589755537E+03  0.10092088687E+03 0.  0.
         23    2    1    2    0    0 -0.36247353568E+02 -0.10066488371E+03 -0.16674431418E+03  0.21765511092E+03  0.90126530762E+02 0.  0.
        -11    1    3    3    0    0 -0.28898658994E+02  0.32218320613E+01  0.70466632271E+01  0.29919360891E+02  0.00000000000E+00 0.  1.
         11    1    3    3    0    0  0.43521258273E+02  0.49687660925E+01 -0.96501757220E+02  0.10597819448E+03  0.00000000000E+00 0. -1.
        -13    1    4    4    0    0 -0.60656373492E+02 -0.41967189375E+02 -0.11001504615E+03  0.13245282560E+03  0.00000000000E+00 0. -1.
         13    1    4    4    0    0  0.24409019924E+02 -0.58697694331E+02 -0.56729268025E+02  0.85202285322E+02  0.00000000000E+00 0.  1.
         21    1    1    2  502  501  0.21624754289E+02  0.92474285552E+02 -0.17002073061E+03  0.19474643083E+03  0.00000000000E+00 0. -1.
<scales pt_clust_5="13000.00000" pt_clust_6="13000.00000" pt_clust_7="13000.00000" pt_clust_8="13000.00000" pt_clust_9="94.96907"></scales>
<clustering>
<clus scale="   90.127">  7  8 -1 -1</clus>
<clus scale="   94.969">  2  9  1 -1</clus>
<clus scale="  100.921">  5  6 -1 -1</clus>
<clus scale="  102.123">  2  7  1 -1</clus>
<clus scale="   94.969">  2  5  1 -1</clus>
</clustering>
</event>
<event>
 9    1  0.9000149E-006  0.1887076E+03  0.7546771E-02  0.1159711E+00
         -1   -1    0    0    0  501 -0.00000000000E+00  0.00000000000E+00  0.30859003373E+03  0.30859003373E+03  0.00000000000E+00 0.  1.
          1   -1    0    0  502    0  0.00000000000E+00 -0.00000000000E+00 -0.35318292762E+03  0.35318292762E+03  0.00000000000E+00 0. -1.
         23    2    1    2    0    0  0.91856888168E+02 -0.13337042068E+03  0.21872347380E+03  0.28685429352E+03  0.90664605594E+02 0.  0.
         23    2    1    2    0    0 -0.80125025133E+02  0.17223297310E+03 -0.16071794025E+03  0.26458113160E+03  0.89937212555E+02 0.  0.
        -11    1    3    3    0    0  0.71280830953E+02 -0.14171366147E+03  0.16580610731E+03  0.22946760976E+03  0.00000000000E+00 0.  1.
         11    1    3    3    0    0  0.20576057216E+02  0.83432407901E+01  0.52917366489E+02  0.57386683765E+02  0.00000000000E+00 0. -1.
        -11    1    4    4    0    0 -0.31720787937E+02  0.72926168923E+01 -0.51497527738E+02  0.60921145850E+02  0.00000000000E+00 0.  1.
         11    1    4    4    0    0 -0.48404237196E+02  0.16494035621E+03 -0.10922041252E+03  0.20365998575E+03  0.00000000000E+00 0. -1.
         21    1    1    2  502  501 -0.11731863035E+02 -0.38862552424E+02 -0.10259842743E+03  0.11033753623E+03  0.00000000000E+00 0. -1.
<scales pt_clust_5="13000.00000" pt_clust_6="13000.00000" pt_clust_7="13000.00000" pt_clust_8="13000.00000" pt_clust_9="40.59476"></scales>
<clustering>
<clus scale="   40.595">  2  9  1 -1</clus>
<clus scale="   89.937">  7  8 -1 -1</clus>
<clus scale="   90.665">  5  6 -1 -1</clus>
<clus scale="  188.359">  2  7  1 -1</clus>
<clus scale="   40.595">  2  5  1 -1</clus>
</clustering>
</event>
<event>
 9    1  0.9000149E-006  0.9180334E+02  0.7546771E-02  0.1300144E+00
         -1   -1    0    0    0  501 -0.00000000000E+00  0.00000000000E+00  0.25336993492E+03  0.25336993492E+03  0.00000000000E+00 0.  1.
          1   -1    0    0  502    0  0.00000000000E+00 -0.00000000000E+00 -0.23014719899E+03  0.23014719899E+03  0.00000000000E+00 0. -1.
         23    2    1    2    0    0 -0.11179872910E+02 -0.13328150048E+02  0.22456426113E+03  0.24155851194E+03  0.87285612650E+02 0.  0.
         23    2    1    2    0    0  0.38856914821E+02  0.25356807005E+01 -0.11774652100E+03  0.15324210281E+03  0.90014495276E+02 0.  0.
        -11    1    3    3    0    0 -0.21248439452E+02 -0.32201449986E+02  0.21445738102E+03  0.21789997209E+03  0.00000000000E+00 0.  1.
         11    1    3    3    0    0  0.10068566541E+02  0.18873299937E+02  0.10106880102E+02  0.23658539856E+02  0.00000000000E+00 0. -1.
        -11    1    4    4    0    0  0.22690057244E+02 -0.38812071465E+02 -0.27593657841E+02  0.52750597553E+02  0.00000000000E+00 0.  1.
         11    1    4    4    0    0  0.16166857577E+02  0.41347752165E+02 -0.90152863157E+02  0.10049150525E+03  0.00000000000E+00 0. -1.
         21    1    1    2  502  501 -0.27677041910E+02  0.10792469348E+02 -0.83595004204E+02  0.88716519158E+02  0.00000000000E+00 0. -1.
<scales pt_clust_5="13000.00000" pt_clust_6="13000.00000" pt_clust_7="13000.00000" pt_clust_8="13000.00000" pt_clust_9="29.70683"></scales>
<clustering>
<clus scale="   29.707">  2  9  1 -1</clus>
<clus scale="   87.286">  5  6 -1 -1</clus>
<clus scale="   89.129">  1  5  2 -1</clus>
<clus scale="   90.014">  7  8 -1 -1</clus>
<clus scale="   29.707">  2  5  1 -1</clus>
</clustering>
</event>
<event>
 9    1  0.9000149E-006  0.1141048E+03  0.7546771E-02  0.1254691E+00
          2   -1    0    0  502    0  0.00000000000E+00  0.00000000000E+00  0.65072585769E+03  0.65072585769E+03  0.00000000000E+00 0. -1.
         -2   -1    0    0    0  501 -0.00000000000E+00 -0.00000000000E+00 -0.38615727732E+02  0.38615727732E+02  0.00000000000E+00 0.  1.
         23    2    1    2    0    0 -0.87941020409E+02  0.35729620275E+02  0.17869054264E+03  0.22414499859E+03  0.96438796810E+02 0.  0.
         23    2    1    2    0    0  0.18699389596E+02 -0.10821679451E+02  0.22520365503E+03  0.24436025963E+03  0.92349739186E+02 0.  0.
        -11    1    4    4    0    0  0.41900153979E+02  0.21094286804E+02  0.70330648538E+02  0.84539883859E+02  0.00000000000E+00 0.  1.
         11    1    4    4    0    0 -0.23200764382E+02 -0.31915966255E+02  0.15487300649E+03  0.15982037577E+03  0.00000000000E+00 0. -1.
        -11    1    3    3    0    0 -0.72645866458E+02 -0.16874178420E+02  0.13436836458E+03  0.15367829128E+03  0.00000000000E+00 0. -1.
         11    1    3    3    0    0 -0.15295153952E+02  0.52603798695E+02  0.44322178053E+02  0.70466707308E+02  0.00000000000E+00 0.  1.
         21    1    1    2  502  501  0.69241630813E+02 -0.24907940824E+02  0.20821593229E+03  0.22083632721E+03  0.00000000000E+00 0. -1.
<scales pt_clust_5="13000.00000" pt_clust_6="13000.00000" pt_clust_7="13000.00000" pt_clust_8="13000.00000" pt_clust_9="73.58539"></scales>
<clustering>
<clus scale="   73.585">  1  9  2 -1</clus>
<clus scale="   92.350">  5  6 -1 -1</clus>
<clus scale="   96.439">  7  8 -1 -1</clus>
<clus scale="  110.670">  1  5  2 -1</clus>
<clus scale="   73.585">  1  5  2 -1</clus>
</clustering>
</event>
<event>
 9    1  0.9000149E-006  0.1586415E+03  0.7546771E-02  0.1191784E+00
          1   -1    0    0  502    0  0.00000000000E+00  0.00000000000E+00  0.13847235551E+03  0.13847235551E+03  0.00000000000E+00 0. -1.
         -1   -1    0    0    0  501 -0.00000000000E+00 -0.00000000000E+00 -0.32250835371E+03  0.32250835371E+03  0.00000000000E+00 0.  1.
         23    2    1    2    0    0 -0.17457810230E+02  0.13442676099E+03 -0.21445692624E+03  0.27300218086E+03  0.10081214377E+03 0.  0.
         23    2    1    2    0    0  0.36417621017E+02 -0.81647052750E+02  0.29978007861E+02  0.13189494605E+03  0.92223161377E+02 0.  0.
        -13    1    4    4    0    0  0.66839539142E+02 -0.57671159193E+02  0.11659020572E+02  0.89047287191E+02  0.00000000000E+00 0. -1.
         13    1    4    4    0    0 -0.30421918125E+02 -0.23975893557E+02  0.18318987289E+02  0.42847658857E+02  0.00000000000E+00 0.  1.
        -13    1    3    3    0    0  0.33785502709E+02  0.89896586253E+02 -0.15709780643E+03  0.18412652498E+03  0.00000000000E+00 0.  1.
         13    1    3    3    0    0 -0.51243312940E+02  0.44530174736E+02 -0.57359119809E+02  0.88875655881E+02  0.00000000000E+00 0. -1.
         21    1    1    2  502  501 -0.18959810787E+02 -0.52779708238E+02  0.44292017767E+00  0.56083582313E+02  0.00000000000E+00 0. -1.
<scales pt_clust_5="13000.00000" pt_clust_6="13000.00000" pt_clust_7="13000.00000" pt_clust_8="13000.00000" pt_clust_9="56.08183"></scales>
<clustering>
<clus scale="   56.082">  1  9  2 -1</clus>
<clus scale="   92.223">  5  6 -1 -1</clus>
<clus scale="  100.812">  7  8 -1 -1</clus>
<clus scale="  153.327">  1  5  2 -1</clus>
<clus scale="   56.082">  1  5  2 -1</clus>
</clustering>
</event>
<event>
 9    1  0.9000149E-006  0.9330942E+02  0.7546771E-02  0.1297026E+00
          1   -1    0    0  502    0  0.00000000000E+00  0.00000000000E+00  0.62028389924E+03  0.62028389924E+03  0.00000000000E+00 0. -1.
         -1   -1    0    0    0  501 -0.00000000000E+00 -0.00000000000E+00 -0.29074562838E+02  0.29074562838E+02  0.00000000000E+00 0.  1.
         23    2    1    2    0    0  0.11783148489E+02 -0.52059773998E+01  0.14887472123E+03  0.17550384717E+03  0.92043321112E+02 0.  0.
         23    2    1    2    0    0  0.29764719294E+02 -0.42369009368E+02  0.22065202176E+03  0.24334913361E+03  0.88602565738E+02 0.  0.
        -11    1    3    3    0    0  0.80247660660E+01  0.27212132142E+02  0.13832698095E+03  0.14120641155E+03  0.00000000000E+00 0. -1.
         11    1    3    3    0    0  0.37583824225E+01 -0.32418109542E+02  0.10547740282E+02  0.34297435615E+02  0.00000000000E+00 0.  1.
        -13    1    4    4    0    0 -0.80217936109E+01  0.23116019559E+02  0.33347489507E+02  0.41361269194E+02  0.00000000000E+00 0. -1.
         13    1    4    4    0    0  0.37786512905E+02 -0.65485028926E+02  0.18730453225E+03  0.20198786442E+03  0.00000000000E+00 0.  1.
         21    1    1    2  502  501 -0.41547867782E+02  0.47574986767E+02  0.22168259341E+03  0.23050548129E+03  0.00000000000E+00 0. -1.
<scales pt_clust_5="13000.00000" pt_clust_6="13000.00000" pt_clust_7="13000.00000" pt_clust_8="13000.00000" pt_clust_9="63.16332"></scales>
<clustering>
<clus scale="   63.163">  1  9  2 -1</clus>
<clus scale="   88.603">  7  8 -1 -1</clus>
<clus scale="   89.917">  1  7  2 -1</clus>
<clus scale="   92.043">  5  6 -1 -1</clus>
<clus scale="   63.163">  1  5  2 -1</clus>
</clustering>
</event>
<event>
 9    1  0.9000149E-006  0.1006358E+03  0.7546771E-02  0.1280963E+00
          2   -1    0    0  502    0  0.00000000000E+00  0.00000000000E+00  0.31648146241E+03  0.31648146241E+03  0.00000000000E+00 0. -1.
         -2   -1    0    0    0  501 -0.00000000000E+00 -0.00000000000E+00 -0.55937500643E+02  0.55937500643E+02  0.00000000000E+00 0.  1.
         23    2    1    2    0    0 -0.32427530971E+02 -0.40764522770E+01  0.40710937052E+02  0.10097259071E+03  0.86428707326E+02 0.  0.
         23    2    1    2    0    0  0.73165327975E+02 -0.77544645121E+01  0.16521546910E+03  0.20228991149E+03  0.90618762537E+02 0.  0.
        -11    1    3    3    0    0 -0.48779563524E+02  0.25950569009E+02  0.37185321381E+02  0.66600495311E+02  0.00000000000E+00 0.  1.
         11    1    3    3    0    0  0.16352032553E+02 -0.30027021286E+02  0.35256156706E+01  0.34372095394E+02  0.00000000000E+00 0. -1.
        -13    1    4    4    0    0  0.60702751661E+02  0.23203738580E+02  0.49032629058E+02  0.81409067404E+02  0.00000000000E+00 0.  1.
         13    1    4    4    0    0  0.12462576314E+02 -0.30958203092E+02  0.11618284004E+03  0.12088084409E+03  0.00000000000E+00 0. -1.
         21    1    1    2  502  501 -0.40737797004E+02  0.11830916789E+02  0.54617555613E+02  0.69156460854E+02  0.00000000000E+00 0.  1.
<scales pt_clust_5="13000.00000" pt_clust_6="13000.00000" pt_clust_7="13000.00000" pt_clust_8="13000.00000" pt_clust_9="42.42097"></scales>
<clustering>
<clus scale="   42.421">  1  9  2 -1</clus>
<clus scale="   86.429">  5  6 -1 -1</clus>
<clus scale="   90.619">  7  8 -1 -1</clus>
<clus scale="   96.880">  2  5  1 -1</clus>
<clus scale="   42.421">  1  5  2 -1</clus>
</clustering>
</event>
<event>
 9    1  0.9000149E-006  0.9842512E+02  0.7546771E-02  0.1284670E+00
         -1   -1    0    0    0  501 -0.00000000000E+00  0.00000000000E+00  0.20420566926E+03  0.20420566926E+03  0.00000000000E+00 0.  1.
          1   -1    0    0  502    0  0.00000000000E+00 -0.00000000000E+00 -0.18643710724E+03  0.18643710724E+03  0.00000000000E+00 0. -1.
         23    2    1    2    0    0 -0.27759041427E+02 -0.16566570167E+02  0.16119402045E+03  0.18832003746E+03  0.91847202746E+02 0.  0.
         23    2    1    2    0    0  0.51669951583E+02  0.31814968017E+02 -0.86325838767E+02  0.13856843074E+03  0.89816944235E+02 0.  0.
        -11    1    3    3    0    0  0.10902807887E+01 -0.38789126436E+02  0.14189683553E+03  0.14710709356E+03  0.00000000000E+00 0. -1.
         11    1    3    3    0    0 -0.28849322215E+02  0.22222556269E+02  0.19297184925E+02  0.41212943907E+02  0.00000000000E+00 0.  1.
        -11    1    4    4    0    0  0.17623636407E+02  0.46010244195E+02 -0.53162430302E+01  0.49556004390E+02  0.00000000000E+00 0.  1.
         11    1    4    4    0    0  0.34046315175E+02 -0.14195276178E+02 -0.81009595737E+02  0.89012426347E+02  0.00000000000E+00 0. -1.
         21    1    1    2  502  501 -0.23910910156E+02 -0.15248397850E+02 -0.57099619663E+02  0.63754308302E+02  0.00000000000E+00 0. -1.
<scales pt_clust_5="13000.00000" pt_clust_6="13000.00000" pt_clust_7="13000.00000" pt_clust_8="13000.00000" pt_clust_9="28.35922"></scales>
<clustering>
<clus scale="   28.359">  2  9  1 -1</clus>
<clus scale="   89.817">  7  8 -1 -1</clus>
<clus scale="   91.847">  5  6 -1 -1</clus>
<clus scale="   96.533">  2  7  1 -1</clus>
<clus scale="   28.359">  2  5  1 -1</clus>
</clustering>
</event>
<event>
 9    1  0.9000149E-006  0.1314209E+03  0.7546771E-02  0.1226244E+00
         -1   -1    0    0    0  501 -0.00000000000E+00  0.00000000000E+00  0.18844599443E+03  0.18844599443E+03  0.00000000000E+00 0.  1.
          1   -1    0    0  502    0  0.00000000000E+00 -0.00000000000E+00 -0.16763057190E+03  0.16763057190E+03  0.00000000000E+00 0. -1.
         23    2    1    2    0    0  0.37368412237E+02 -0.10867177879E+03  0.59862017154E+02  0.15474381225E+03  0.84594518686E+02 0.  0.
         23    2    1    2    0    0  0.64015213703E+01  0.82525664581E+02  0.20784986334E+02  0.12272458366E+03  0.88192080077E+02 0.  0.
        -11    1    3    3    0    0  0.45282514846E+02 -0.56946950228E+02  0.70540942867E+02  0.10133847202E+03  0.00000000000E+00 0.  1.
         11    1    3    3    0    0 -0.79141026095E+01 -0.51724828567E+02 -0.10678925712E+02  0.53405340227E+02  0.00000000000E+00 0. -1.
        -13    1    4    4    0    0  0.33268233726E+02  0.35755444473E+01 -0.81733510148E+01  0.34443628731E+02  0.00000000000E+00 0.  1.
         13    1    4    4    0    0 -0.26866712356E+02  0.78950120133E+02  0.28958337349E+02  0.88280954933E+02  0.00000000000E+00 0. -1.
         21    1    1    2  502  501 -0.43769933607E+02  0.26146114213E+02 -0.59831580955E+02  0.78608170415E+02  0.00000000000E+00 0. -1.
<scales pt_clust_5="13000.00000" pt_clust_6="13000.00000" pt_clust_7="13000.00000" pt_clust_8="13000.00000" pt_clust_9="50.98457"></scales>
<clustering>
<clus scale="   50.985">  2  9  1 -1</clus>
<clus scale="   84.595">  5  6 -1 -1</clus>
<clus scale="   88.192">  7  8 -1 -1</clus>
<clus scale="  129.034">  1  5  2 -1</clus>
<clus scale="   50.985">  2  5  1 -1</clus>
</clustering>
</event>
<event>
 9    1  0.9000149E-006  0.2018695E+03  0.7546771E-02  0.1148213E+00
          1   -1    0    0  502    0  0.00000000000E+00  0.00000000000E+00  0.67950660256E+02  0.67950660256E+02  0.00000000000E+00 0. -1.
         -1   -1    0    0    0  501 -0.00000000000E+00 -0.00000000000E+00 -0.10943213678E+04  0.10943213678E+04  0.00000000000E+00 0.  1.
         23    2    1    2    0    0 -0.17796837030E+03 -0.12993753393E+02 -0.57159823979E+03  0.60575222613E+03  0.91485699798E+02 0.  0.
         23    2    1    2    0    0  0.18183476233E+03 -0.23998265434E+02 -0.47264739321E+03  0.51525393950E+03  0.91930769187E+02 0.  0.
        -11    1    3    3    0    0 -0.16772997446E+03 -0.34636437723E+02 -0.53720605742E+03  0.56384694314E+03  0.00000000000E+00 0.  1.
         11    1    3    3    0    0 -0.10238395836E+02  0.21642684330E+02 -0.34392182370E+02  0.41905282990E+02  0.00000000000E+00 0. -1.
        -13    1    4    4    0    0  0.19738102350E+02  0.27130547473E+02 -0.56151409008E+02  0.65411314190E+02  0.00000000000E+00 0. -1.
         13    1    4    4    0    0  0.16209665998E+03 -0.51128812907E+02 -0.41649598420E+03  0.44984262531E+03  0.00000000000E+00 0.  1.
         21    1    1    2  502  501 -0.38663920335E+01  0.36992018826E+02  0.17874925442E+02  0.41265862450E+02  0.00000000000E+00 0.  1.
<scales pt_clust_5="13000.00000" pt_clust_6="13000.00000" pt_clust_7="13000.00000" pt_clust_8="13000.00000" pt_clust_9="37.19353"></scales>
<clustering>
<clus scale="   37.194">  1  9  2 -1</clus>
<clus scale="   91.486">  5  6 -1 -1</clus>
<clus scale="   91.931">  7  8 -1 -1</clus>
<clus scale="  201.667">  2  5  1 -1</clus>
<clus scale="   37.194">  1  5  2 -1</clus>
</clustering>
</event>
<event>
 9    1  0.9000149E-006  0.1007893E+03  0.7546771E-02  0.1279184E+00
          1   -1    0    0  502    0  0.00000000000E+00  0.00000000000E+00  0.55374946913E+02  0.55374946913E+02  0.00000000000E+00 0. -1.
         -1   -1    0    0    0  501 -0.00000000000E+00 -0.00000000000E+00 -0.27764539992E+03  0.27764539992E+03  0.00000000000E+00 0.  1.
         23    2    1    2    0    0 -0.14601066325E+02 -0.30180359992E+02 -0.11128136023E+03  0.14809167709E+03  0.91779945636E+02 0.  0.
         23    2    1    2    0    0  0.34894462813E+00  0.52565613660E+02 -0.11766922657E+03  0.15756360548E+03  0.90647544858E+02 0.  0.
        -11    1    4    4    0    0 -0.26901813860E+02  0.52006762334E+02 -0.11637677312E+03  0.13027649151E+03  0.00000000000E+00 0.  1.
         11    1    4    4    0    0  0.27250758488E+02  0.55885132539E+00 -0.12924534470E+01  0.27287113972E+02  0.00000000000E+00 0. -1.
        -13    1    3    3    0    0 -0.33127380765E+02 -0.60613000480E+01 -0.11272125275E+03  0.11764456442E+03  0.00000000000E+00 0.  1.
         13    1    3    3    0    0  0.18526314440E+02 -0.24119059944E+02  0.14398925269E+01  0.30447112668E+02  0.00000000000E+00 0. -1.
         21    1    1    2  502  501  0.14252121697E+02 -0.22385253668E+02  0.66801337937E+01  0.27365064263E+02  0.00000000000E+00 0. -1.
<scales pt_clust_5="13000.00000" pt_clust_6="13000.00000" pt_clust_7="13000.00000" pt_clust_8="13000.00000" pt_clust_9="26.53719"></scales>
<clustering>
<clus scale="   26.537">  1  9  2 -1</clus>
<clus scale="   90.648">  5  6 -1 -1</clus>
<clus scale="   91.780">  7  8 -1 -1</clus>
<clus scale="   99.759">  1  5  2 -1</clus>
<clus scale="   26.537">  1  5  2 -1</clus>
</clustering>
</event>
<event>
 9    1  0.9000149E-006  0.1173608E+03  0.7546771E-02  0.1259963E+00
          1   -1    0    0  502    0  0.00000000000E+00  0.00000000000E+00  0.27455953028E+03  0.27455953028E+03  0.00000000000E+00 0. -1.
         -1   -1    0    0    0  501 -0.00000000000E+00 -0.00000000000E+00 -0.54166189045E+02  0.54166189045E+02  0.00000000000E+00 0.  1.
         23    2    1    2    0    0  0.94382102718E+00  0.88749205635E+00  0.69824036686E+02  0.13605336384E+03  0.11676233670E+03 0.  0.
         23    2    1    2    0    0  0.28265960975E+01 -0.24968092273E+02  0.10601866123E+03  0.14188996511E+03  0.90892301068E+02 0.  0.
        -11    1    4    4    0    0  0.10944788101E+02  0.33083873119E+02  0.48896413618E+02  0.60043237019E+02  0.00000000000E+00 0. -1.
         11    1    4    4    0    0 -0.81181920030E+01 -0.58051965392E+02  0.57122247613E+02  0.81846728094E+02  0.00000000000E+00 0.  1.
        -13    1    3    3    0    0  0.48275834062E+02 -0.27164484676E+02  0.12880997783E+02  0.56871658021E+02  0.00000000000E+00 0.  1.
         13    1    3    3    0    0 -0.47332013035E+02  0.28051976732E+02  0.56943038903E+02  0.79181705817E+02  0.00000000000E+00 0. -1.
         21    1    1    2  502  501 -0.37704171247E+01  0.24080600216E+02  0.44550643315E+02  0.50782390372E+02  0.00000000000E+00 0. -1.
<scales pt_clust_5="13000.00000" pt_clust_6="13000.00000" pt_clust_7="13000.00000" pt_clust_8="13000.00000" pt_clust_9="24.37399"></scales>
<clustering>
<clus scale="   24.374">  1  9  2 -1</clus>
<clus scale="   90.892">  5  6 -1 -1</clus>
<clus scale="   91.660">  1  5  2 -1</clus>
<clus scale="  116.762">  7  8 -1 -1</clus>
<clus scale="   24.374">  1  5  2 -1</clus>
</clustering>
</event>
<event>
 9    1  0.9000149E-006  0.2762233E+03  0.7546771E-02  0.1097879E+00
          1   -1    0    0  502    0  0.00000000000E+00  0.00000000000E+00  0.12989979687E+04  0.12989979687E+04  0.00000000000E+00 0. -1.
         -1   -1    0    0    0  501 -0.00000000000E+00 -0.00000000000E+00 -0.15871460189E+03  0.15871460189E+03  0.00000000000E+00 0.  1.
         23    2    1    2    0    0 -0.23663871072E+03  0.10675999433E+03  0.23536400829E+02  0.27624644623E+03  0.91447039817E+02 0.  0.
         23    2    1    2    0    0  0.27426201857E+03 -0.21118185520E+02  0.88734955758E+03  0.93372996694E+03  0.93791157537E+02 0.  0.
        -11    1    3    3    0    0 -0.70150564663E+02  0.77009141010E+02  0.24942866282E+02  0.10711515346E+03  0.00000000000E+00 0. -1.
         11    1    3    3    0    0 -0.16648814605E+03  0.29750853316E+02 -0.14064654524E+01  0.16913129277E+03  0.00000000000E+00 0.  1.
        -11    1    4    4    0    0  0.19489891875E+03 -0.38094307530E+02  0.73198451312E+03  0.75844452153E+03  0.00000000000E+00 0. -1.
         11    1    4    4    0    0  0.79363099814E+02  0.16976122010E+02  0.15536504447E+03  0.17528544541E+03  0.00000000000E+00 0.  1.
         21    1    1    2  502  501 -0.37623307849E+02 -0.85641808806E+02  0.22939740838E+03  0.24773615739E+03  0.00000000000E+00 0.  1.
<scales pt_clust_5="13000.00000" pt_clust_6="13000.00000" pt_clust_7="13000.00000" pt_clust_8="13000.00000" pt_clust_9="93.54161"></scales>
<clustering>
<clus scale="   91.447">  5  6 -1 -1</clus>
<clus scale="   93.542">  1  9  2 -1</clus>
<clus scale="   93.791">  7  8 -1 -1</clus>
<clus scale="  275.436">  2  5  1 -1</clus>
<clus scale="   93.542">  1  5  2 -1</clus>
</clustering>
</event>
<event>
 9    1  0.9000149E-006  0.9118745E+02  0.7546771E-02  0.1300266E+00
          3   -1    0    0  502    0  0.00000000000E+00  0.00000000000E+00  0.15043066662E+03  0.15043066662E+03  0.00000000000E+00 0. -1.
         -3   -1    0    0    0  501 -0.00000000000E+00 -0.00000000000E+00 -0.17075640903E+03  0.17075640903E+03  0.00000000000E+00 0.  1.
         23    2    1    2    0    0  0.16325401049E+01 -0.87586804999E+01 -0.11622818770E+03  0.14795424126E+03  0.91115784696E+02 0.  0.
         23    2    1    2    0    0 -0.93530601873E+01 -0.27555767940E+02  0.34121786189E+02  0.10115513026E+03  0.90671186177E+02 0.  0.
        -11    1    3    3    0    0  0.11284288226E+02  0.22799515408E+02 -0.11179952604E+03  0.11465725919E+03  0.00000000000E+00 0.  1.
         11    1    3    3    0    0 -0.96517481210E+01 -0.31558195908E+02 -0.44286616601E+01  0.33296982069E+02  0.00000000000E+00 0. -1.
        -11    1    4    4    0    0 -0.33448664099E+02  0.21251437975E+02  0.66447731194E+01  0.40181958088E+02  0.00000000000E+00 0.  1.
         11    1    4    4    0    0  0.24095603911E+02 -0.48807205914E+02  0.27477013069E+02  0.60973172168E+02  0.00000000000E+00 0. -1.
         21    1    1    2  502  501  0.77205200825E+01  0.36314448439E+02  0.61780659093E+02  0.72077704138E+02  0.00000000000E+00 0. -1.
<scales pt_clust_5="13000.00000" pt_clust_6="13000.00000" pt_clust_7="13000.00000" pt_clust_8="13000.00000" pt_clust_9="37.12608"></scales>
<clustering>
<clus scale="   37.126">  1  9  2 -1</clus>
<clus scale="   90.671">  7  8 -1 -1</clus>
<clus scale="   90.743">  1  7  2 -1</clus>
<clus scale="   91.116">  5  6 -1 -1</clus>
<clus scale="   37.126">  1  5  2 -1</clus>
</clustering>
</event>
<event>
 9    1  0.9000149E-006  0.1884265E+03  0.7546771E-02  0.1160509E+00
         -1   -1    0    0    0  501 -0.00000000000E+00  0.00000000000E+00  0.42589854150E+02  0.42589854150E+02  0.00000000000E+00 0.  1.
          1   -1    0    0  502    0  0.00000000000E+00 -0.00000000000E+00 -0.10409813008E+04  0.10409813008E+04  0.00000000000E+00 0. -1.
         23    2    1    2    0    0 -0.16366417694E+03  0.35534976049E+02 -0.30733614716E+03  0.36165352343E+03  0.91044309684E+02 0.  0.
         23    2    1    2    0    0  0.15262511994E+03 -0.11356949711E+02 -0.57164283428E+03  0.59958294884E+03  0.96440525811E+02 0.  0.
        -11    1    3    3    0    0 -0.78212693031E+02  0.63259887590E+02 -0.15417565696E+03  0.18409011904E+03  0.00000000000E+00 0.  1.
         11    1    3    3    0    0 -0.85451483906E+02 -0.27724911541E+02 -0.15316049020E+03  0.17756340439E+03  0.00000000000E+00 0. -1.
        -11    1    4    4    0    0  0.13609001267E+03  0.26413473912E+02 -0.41181237393E+03  0.43451995866E+03  0.00000000000E+00 0. -1.
         11    1    4    4    0    0  0.16535107272E+02 -0.37770423623E+02 -0.15983046035E+03  0.16506299018E+03  0.00000000000E+00 0.  1.
         21    1    1    2  502  501  0.11039056992E+02 -0.24178026338E+02 -0.11941246526E+03  0.12233468272E+03  0.00000000000E+00 0. -1.
<scales pt_clust_5="13000.00000" pt_clust_6="13000.00000" pt_clust_7="13000.00000" pt_clust_8="13000.00000" pt_clust_9="26.57890"></scales>
<clustering>
<clus scale="   26.579">  2  9  1 -1</clus>
<clus scale="   91.044">  5  6 -1 -1</clus>
<clus scale="   96.441">  7  8 -1 -1</clus>
<clus scale="  185.722">  1  5  2 -1</clus>
<clus scale="   26.579">  2  5  1 -1</clus>
</clustering>
</event>
<event>
 9    1  0.9000149E-006  0.1364821E+03  0.7546771E-02  0.1218215E+00
         -2   -1    0    0    0  501 -0.00000000000E+00  0.00000000000E+00  0.11869186702E+03  0.11869186702E+03  0.00000000000E+00 0.  1.
          2   -1    0    0  502    0  0.00000000000E+00 -0.00000000000E+00 -0.61076975095E+03  0.61076975095E+03  0.00000000000E+00 0. -1.
         23    2    1    2    0    0  0.50828273417E+02 -0.90640257071E+02  0.62869838544E+02  0.15218120482E+03  0.91691509533E+02 0.  0.
         23    2    1    2    0    0 -0.28913373205E+02  0.63474279412E+02 -0.49251249027E+03  0.50575131829E+03  0.91383125233E+02 0.  0.
        -11    1    4    4    0    0  0.26646388536E+02  0.51666118577E+02 -0.25456010679E+03  0.26111351133E+03  0.00000000000E+00 0.  1.
         11    1    4    4    0    0 -0.55559761741E+02  0.11808160835E+02 -0.23795238348E+03  0.24463780696E+03  0.00000000000E+00 0. -1.
        -11    1    3    3    0    0  0.62253802760E+02 -0.24062376626E+02  0.12463034529E+02  0.67895958323E+02  0.00000000000E+00 0.  1.
         11    1    3    3    0    0 -0.11425529344E+02 -0.66577880445E+02  0.50406804016E+02  0.84285246493E+02  0.00000000000E+00 0. -1.
         21    1    1    2  502  501 -0.21914900211E+02  0.27165977659E+02 -0.62435232193E+02  0.71529094867E+02  0.00000000000E+00 0. -1.
<scales pt_clust_5="13000.00000" pt_clust_6="13000.00000" pt_clust_7="13000.00000" pt_clust_8="13000.00000" pt_clust_9="34.90348"></scales>
<clustering>
<clus scale="   34.903">  2  9  1 -1</clus>
<clus scale="   91.383">  5  6 -1 -1</clus>
<clus scale="   91.692">  7  8 -1 -1</clus>
<clus scale="  136.275">  2  5  1 -1</clus>
<clus scale="   34.903">  2  5  1 -1</clus>
</clustering>
</event>
<event>
 9    1  0.9000149E-006  0.1074958E+03  0.7546771E-02  0.1265616E+00
         -1   -1    0    0    0  501 -0.00000000000E+00  0.00000000000E+00  0.66211535999E+02  0.66211535999E+02  0.00000000000E+00 0.  1.
          1   -1    0    0  502    0  0.00000000000E+00 -0.00000000000E+00 -0.25501367556E+03  0.25501367556E+03  0.00000000000E+00 0. -1.
         23    2    1    2    0    0 -0.38236931446E+02 -0.42670500622E+02 -0.22036463261E+02  0.10947428257E+03  0.90643136981E+02 0.  0.
         23    2    1    2    0    0  0.54592953221E+02  0.28645490516E+02 -0.13815187409E+03  0.17593235791E+03  0.89807012971E+02 0.  0.
        -11    1    4    4    0    0  0.33219068290E+02 -0.27028000279E+02 -0.29539457375E+02  0.52024982836E+02  0.00000000000E+00 0.  1.
         11    1    4    4    0    0  0.21373884931E+02  0.55673490795E+02 -0.10861241671E+03  0.12390737508E+03  0.00000000000E+00 0. -1.
        -13    1    3    3    0    0  0.18916868840E+02 -0.17355345191E+02 -0.37156217902E+02  0.45162378837E+02  0.00000000000E+00 0. -1.
         13    1    3    3    0    0 -0.57153800285E+02 -0.25315155430E+02  0.15119754641E+02  0.64311903734E+02  0.00000000000E+00 0.  1.
         21    1    1    2  502  501 -0.16356021775E+02  0.14025010106E+02 -0.28613802214E+02  0.35818571076E+02  0.00000000000E+00 0. -1.
<scales pt_clust_5="13000.00000" pt_clust_6="13000.00000" pt_clust_7="13000.00000" pt_clust_8="13000.00000" pt_clust_9="21.54577"></scales>
<clustering>
<clus scale="   21.546">  2  9  1 -1</clus>
<clus scale="   89.807">  5  6 -1 -1</clus>
<clus scale="   90.643">  7  8 -1 -1</clus>
<clus scale="  106.792">  2  5  1 -1</clus>
<clus scale="   21.546">  2  5  1 -1</clus>
</clustering>
</event>
<event>
 9    1  0.9000149E-006  0.9517810E+02  0.7546771E-02  0.1291587E+00
          1   -1    0    0  502    0  0.00000000000E+00  0.00000000000E+00  0.42158571574E+03  0.42158571574E+03  0.00000000000E+00 0. -1.
         -1   -1    0    0    0  501 -0.00000000000E+00 -0.00000000000E+00 -0.32589215369E+02  0.32589215369E+02  0.00000000000E+00 0.  1.
         23    2    1    2    0    0  0.72144949097E+01  0.32928024651E+02  0.11286083126E+03  0.14910061283E+03  0.91417294696E+02 0.  0.
         23    2    1    2    0    0 -0.27101185223E+02 -0.50634073668E+01  0.18122505938E+03  0.20417862368E+03  0.89923722606E+02 0.  0.
        -13    1    4    4    0    0 -0.23508789934E+02  0.39981972122E+02  0.11504415147E+03  0.12404184007E+03  0.00000000000E+00 0.  1.
         13    1    4    4    0    0 -0.35923952898E+01 -0.45045379488E+02  0.66180907909E+02  0.80136783619E+02  0.00000000000E+00 0. -1.
        -13    1    3    3    0    0  0.22562999315E+02 -0.25448704412E+02  0.23795108141E+02  0.41508224074E+02  0.00000000000E+00 0.  1.
         13    1    3    3    0    0 -0.15348504405E+02  0.58376729063E+02  0.89065723120E+02  0.10759238876E+03  0.00000000000E+00 0. -1.
         21    1    1    2  502  501  0.19886690314E+02 -0.27864617284E+02  0.94910609727E+02  0.10089569459E+03  0.00000000000E+00 0.  1.
<scales pt_clust_5="13000.00000" pt_clust_6="13000.00000" pt_clust_7="13000.00000" pt_clust_8="13000.00000" pt_clust_9="34.23328"></scales>
<clustering>
<clus scale="   34.233">  1  9  2 -1</clus>
<clus scale="   89.924">  5  6 -1 -1</clus>
<clus scale="   91.417">  7  8 -1 -1</clus>
<clus scale="   93.744">  1  5  2 -1</clus>
<clus scale="   34.233">  1  5  2 -1</clus>
</clustering>
</event>
<event>
 9    1  0.9000149E-006  0.1044315E+03  0.7546771E-02  0.1271705E+00
          2   -1    0    0  502    0  0.00000000000E+00  0.00000000000E+00  0.80110692579E+03  0.80110692579E+03  0.00000000000E+00 0. -1.
         -2   -1    0    0    0  501 -0.00000000000E+00 -0.00000000000E+00 -0.50772230556E+02  0.50772230556E+02  0.00000000000E+00 0.  1.
         23    2    1    2    0    0  0.40450171955E+02  0.33263987607E+02  0.47583513917E+02  0.11606954816E+03  0.92006738511E+02 0.  0.
         23    2    1    2    0    0  0.36860341151E+02 -0.79923347415E+02  0.37135973164E+03  0.39233573113E+03  0.90955205626E+02 0.  0.
        -11    1    4    4    0    0  0.60489453134E+02 -0.70265000398E+02  0.33706247928E+03  0.34958154865E+03  0.00000000000E+00 0. -1.
         11    1    4    4    0    0 -0.23629111983E+02 -0.96583470171E+01  0.34297252359E+02  0.42754182481E+02  0.00000000000E+00 0.  1.
        -13    1    3    3    0    0  0.23056000233E+02  0.65146538245E+02  0.36170580571E+02  0.77999753147E+02  0.00000000000E+00 0.  1.
         13    1    3    3    0    0  0.17394171721E+02 -0.31882550638E+02  0.11412933345E+02  0.38069795016E+02  0.00000000000E+00 0. -1.
         21    1    1    2  502  501 -0.77310513106E+02  0.46659359807E+02  0.33139144968E+03  0.34347387705E+03  0.00000000000E+00 0. -1.
<scales pt_clust_5="13000.00000" pt_clust_6="13000.00000" pt_clust_7="13000.00000" pt_clust_8="13000.00000" pt_clust_9="90.29956"></scales>
<clustering>
<clus scale="   90.300">  1  9  2 -1</clus>
<clus scale="   90.955">  5  6 -1 -1</clus>
<clus scale="   92.007">  7  8 -1 -1</clus>
<clus scale="  103.506">  1  5  2 -1</clus>
<clus scale="   90.300">  1  5  2 -1</clus>
</clustering>
</event>
<event>
 9    1  0.9000149E-006  0.1375958E+03  0.7546771E-02  0.1217146E+00
         -2   -1    0    0    0  501 -0.00000000000E+00  0.00000000000E+00  0.46446933629E+02  0.46446933629E+02  0.00000000000E+00 0.  1.
          2   -1    0    0  502    0  0.00000000000E+00 -0.00000000000E+00 -0.85144295720E+03  0.85144295720E+03  0.00000000000E+00 0. -1.
         23    2    1    2    0    0 -0.10431709843E+03  0.11236961327E+02 -0.96271225488E+02  0.16877421268E+03  0.90599446374E+02 0.  0.
         23    2    1    2    0    0  0.99292058616E+02  0.22626171203E+02 -0.60753250652E+03  0.62228945177E+03  0.88190468773E+02 0.  0.
        -11    1    4    4    0    0  0.71933120928E+02 -0.27557517450E+02 -0.37562438574E+03  0.38344161201E+03  0.00000000000E+00 0. -1.
         11    1    4    4    0    0  0.27358937688E+02  0.50183688653E+02 -0.23190812078E+03  0.23884783977E+03  0.00000000000E+00 0.  1.
        -13    1    3    3    0    0 -0.38780504598E+02  0.39948749446E+02 -0.97878906006E+01  0.56529929432E+02  0.00000000000E+00 0.  1.
         13    1    3    3    0    0 -0.65536593835E+02 -0.28711788119E+02 -0.86483334888E+02  0.11224428325E+03  0.00000000000E+00 0. -1.
         21    1    1    2  502  501  0.50250398169E+01 -0.33863132530E+02 -0.10119229157E+03  0.10682622638E+03  0.00000000000E+00 0.  1.
<scales pt_clust_5="13000.00000" pt_clust_6="13000.00000" pt_clust_7="13000.00000" pt_clust_8="13000.00000" pt_clust_9="34.23394"></scales>
<clustering>
<clus scale="   34.234">  2  9  1 -1</clus>
<clus scale="   88.190">  5  6 -1 -1</clus>
<clus scale="   90.599">  7  8 -1 -1</clus>
<clus scale="  136.022">  2  5  1 -1</clus>
<clus scale="   34.234">  2  5  1 -1</clus>
</clustering>
</event>
<event>
 9    1  0.9000149E-006  0.9761723E+02  0.7546771E-02  0.1294586E+00
          1   -1    0    0  502    0  0.00000000000E+00  0.00000000000E+00  0.53883497645E+03  0.53883497645E+03  0.00000000000E+00 0. -1.
         -1   -1    0    0    0  501 -0.00000000000E+00 -0.00000000000E+00 -0.53178083173E+02  0.53178083173E+02  0.00000000000E+00 0.  1.
         23    2    1    2    0    0  0.17594850430E+02  0.30333758450E+02  0.69981200781E+02  0.12505517630E+03  0.97528011327E+02 0.  0.
         23    2    1    2    0    0  0.22710966764E+02  0.41269646489E+02  0.86233624238E+02  0.12742337427E+03  0.81126485371E+02 0.  0.
        -11    1    3    3    0    0  0.44726354835E+02  0.51031938639E+02  0.35665222623E+02  0.76659726603E+02  0.00000000000E+00 0. -1.
         11    1    3    3    0    0 -0.27131504405E+02 -0.20698180190E+02  0.34315978158E+02  0.48395449697E+02  0.00000000000E+00 0.  1.
        -11    1    4    4    0    0 -0.30485492832E+02  0.10823917370E+02  0.26211954480E+02  0.41636390551E+02  0.00000000000E+00 0.  1.
         11    1    4    4    0    0  0.53196459597E+02  0.30445729119E+02  0.60021669758E+02  0.85786983720E+02  0.00000000000E+00 0. -1.
         21    1    1    2  502  501 -0.40305817194E+02 -0.71603404938E+02  0.32944206826E+03  0.33953450905E+03  0.00000000000E+00 0.  1.
<scales pt_clust_5="13000.00000" pt_clust_6="13000.00000" pt_clust_7="13000.00000" pt_clust_8="13000.00000" pt_clust_9="82.16816"></scales>
<clustering>
<clus scale="   81.126">  7  8 -1 -1</clus>
<clus scale="   82.168">  1  9  2 -1</clus>
<clus scale="   82.168">  1  7  2 -1</clus>
<clus scale="   97.528">  5  6 -1 -1</clus>
<clus scale="   82.168">  1  5  2 -1</clus>
</clustering>
</event>
<event>
 9    1  0.9000149E-006  0.1231181E+03  0.7546771E-02  0.1238663E+00
         -1   -1    0    0    0  501 -0.00000000000E+00  0.00000000000E+00  0.82159367375E+02  0.82159367375E+02  0.00000000000E+00 0.  1.
          1   -1    0    0  502    0  0.00000000000E+00 -0.00000000000E+00 -0.26897309847E+03  0.26897309847E+03  0.00000000000E+00 0. -1.
         23    2    1    2    0    0  0.66928818451E+02  0.30850272175E+01 -0.60478442638E+02  0.12776925976E+03  0.90434272180E+02 0.  0.
         23    2    1    2    0    0 -0.95892863722E+02 -0.19278917111E+01 -0.51067240016E+02  0.14270631551E+03  0.92509844900E+02 0.  0.
        -11    1    3    3    0    0  0.57471624479E+02 -0.38968607118E+02 -0.36570047119E+02  0.78478712447E+02  0.00000000000E+00 0.  1.
         11    1    3    3    0    0  0.94571939713E+01  0.42053634335E+02 -0.23908395519E+02  0.49290547318E+02  0.00000000000E+00 0. -1.
        -13    1    4    4    0    0 -0.71026720052E+02  0.10156937909E+02 -0.76683633963E+02  0.10501589435E+03  0.00000000000E+00 0. -1.
         13    1    4    4    0    0 -0.24866143670E+02 -0.12084829620E+02  0.25616393946E+02  0.37690421154E+02  0.00000000000E+00 0.  1.
         21    1    1    2  502  501  0.28964045271E+02 -0.11571355065E+01 -0.75268048441E+02  0.80656890575E+02  0.00000000000E+00 0.  1.
<scales pt_clust_5="13000.00000" pt_clust_6="13000.00000" pt_clust_7="13000.00000" pt_clust_8="13000.00000" pt_clust_9="28.98715"></scales>
<clustering>
<clus scale="   28.987">  2  9  1 -1</clus>
<clus scale="   90.434">  5  6 -1 -1</clus>
<clus scale="   92.510">  7  8 -1 -1</clus>
<clus scale="  121.566">  1  5  2 -1</clus>
<clus scale="   28.987">  2  5  1 -1</clus>
</clustering>
</event>
<event>
 9    1  0.9000149E-006  0.2400844E+03  0.7546771E-02  0.1119910E+00
          1   -1    0    0  502    0  0.00000000000E+00  0.00000000000E+00  0.65711266510E+03  0.65711266510E+03  0.00000000000E+00 0. -1.
         -1   -1    0    0    0  501 -0.00000000000E+00 -0.00000000000E+00 -0.17333812309E+03  0.17333812309E+03  0.00000000000E+00 0.  1.
         23    2    1    2    0    0 -0.18780268353E+03  0.11192966153E+03 -0.22162367828E+02  0.23859773602E+03  0.92949513262E+02 0.  0.
         23    2    1    2    0    0  0.20896297326E+03 -0.99352476765E+02  0.32386770124E+03  0.40812733225E+03  0.90228557514E+02 0.  0.
        -11    1    3    3    0    0 -0.13297721349E+03  0.58366160878E+02  0.26760433008E+02  0.14766742640E+03  0.00000000000E+00 0.  1.
         11    1    3    3    0    0 -0.54825470037E+02  0.53563500654E+02 -0.48922800835E+02  0.90930309626E+02  0.00000000000E+00 0. -1.
        -11    1    4    4    0    0  0.15100644212E+03 -0.24680234269E+02  0.18388753031E+03  0.23922099266E+03  0.00000000000E+00 0. -1.
         11    1    4    4    0    0  0.57956531143E+02 -0.74672242496E+02  0.13998017093E+03  0.16890633959E+03  0.00000000000E+00 0.  1.
         21    1    1    2  502  501 -0.21160289731E+02 -0.12577184767E+02  0.18206920860E+03  0.18372571991E+03  0.00000000000E+00 0. -1.
<scales pt_clust_5="13000.00000" pt_clust_6="13000.00000" pt_clust_7="13000.00000" pt_clust_8="13000.00000" pt_clust_9="24.61592"></scales>
<clustering>
<clus scale="   24.616">  1  9  2 -1</clus>
<clus scale="   90.229">  7  8 -1 -1</clus>
<clus scale="   92.950">  5  6 -1 -1</clus>
<clus scale="  239.044">  1  7  2 -1</clus>
<clus scale="   24.616">  1  5  2 -1</clus>
</clustering>
</event>
<event>
 9    1  0.9000149E-006  0.1348269E+03  0.7546771E-02  0.1221305E+00
          2   -1    0    0  502    0  0.00000000000E+00  0.00000000000E+00  0.18931398918E+03  0.18931398918E+03  0.00000000000E+00 0. -1.
         -2   -1    0    0    0  501 -0.00000000000E+00 -0.00000000000E+00 -0.19797223926E+03  0.19797223926E+03  0.00000000000E+00 0.  1.
         23    2    1    2    0    0  0.93762823001E+02  0.20337590171E+02 -0.12422141734E+03  0.18203109671E+03  0.92191513120E+02 0.  0.
         23    2    1    2    0    0 -0.10141910385E+03 -0.42877844216E+02  0.80004451737E+02  0.16246373145E+03  0.88709681486E+02 0.  0.
        -11    1    4    4    0    0 -0.11179429498E+03 -0.17185459581E+02  0.58186074395E+02  0.12719639800E+03  0.00000000000E+00 0. -1.
         11    1    4    4    0    0  0.10375191126E+02 -0.25692384635E+02  0.21818377342E+02  0.35267333454E+02  0.00000000000E+00 0.  1.
        -11    1    3    3    0    0  0.72257817639E+02 -0.17474740804E+02 -0.11597550058E+03  0.13775658064E+03  0.00000000000E+00 0.  1.
         11    1    3    3    0    0  0.21505005362E+02  0.37812330975E+02 -0.82459167605E+01  0.44274516063E+02  0.00000000000E+00 0. -1.
         21    1    1    2  502  501  0.76562808496E+01  0.22540254045E+02  0.35558715519E+02  0.42791400283E+02  0.00000000000E+00 0.  1.
<scales pt_clust_5="13000.00000" pt_clust_6="13000.00000" pt_clust_7="13000.00000" pt_clust_8="13000.00000" pt_clust_9="23.80508"></scales>
<clustering>
<clus scale="   23.805">  1  9  2 -1</clus>
<clus scale="   88.710">  5  6 -1 -1</clus>
<clus scale="   92.192">  7  8 -1 -1</clus>
<clus scale="  132.470">  1  5  2 -1</clus>
<clus scale="   23.805">  1  5  2 -1</clus>
</clustering>
</event>
<event>
 9    1  0.9000149E-006  0.9608731E+02  0.7546771E-02  0.1289308E+00
          2   -1    0    0  502    0  0.00000000000E+00  0.00000000000E+00  0.30795481594E+02  0.30795481594E+02  0.00000000000E+00 0. -1.
         -2   -1    0    0    0  501 -0.00000000000E+00 -0.00000000000E+00 -0.48912168378E+03  0.48912168378E+03  0.00000000000E+00 0.  1.
         23    2    1    2    0    0  0.48362178941E+01  0.36463090484E+01 -0.28158202418E+03  0.29654223343E+03  0.92801806525E+02 0.  0.
         23    2    1    2    0    0 -0.24135952422E+01  0.31106018670E+02 -0.10881490660E+03  0.14703372881E+03  0.93834021917E+02 0.  0.
        -11    1    4    4    0    0  0.33100870065E+02 -0.17311050726E+02 -0.54464003919E+02  0.66042923915E+02  0.00000000000E+00 0.  1.
         11    1    4    4    0    0 -0.35514465307E+02  0.48417069396E+02 -0.54350902683E+02  0.80990804894E+02  0.00000000000E+00 0. -1.
        -11    1    3    3    0    0  0.90171174741E+01 -0.39725514075E+02 -0.19945203926E+03  0.20356949880E+03  0.00000000000E+00 0.  1.
         11    1    3    3    0    0 -0.41808995800E+01  0.43371823123E+02 -0.82129984920E+02  0.92972734633E+02  0.00000000000E+00 0. -1.
         21    1    1    2  502  501 -0.24226226519E+01 -0.34752327718E+02 -0.67929271406E+02  0.76341203135E+02  0.00000000000E+00 0. -1.
<scales pt_clust_5="13000.00000" pt_clust_6="13000.00000" pt_clust_7="13000.00000" pt_clust_8="13000.00000" pt_clust_9="34.83667"></scales>
<clustering>
<clus scale="   34.837">  2  9  1 -1</clus>
<clus scale="   92.802">  7  8 -1 -1</clus>
<clus scale="   93.834">  5  6 -1 -1</clus>
<clus scale="   95.080">  2  7  1 -1</clus>
<clus scale="   96.087">  1  5  2 -1</clus>
</clustering>
</event>
<event>
 9    1  0.9000149E-006  0.1053855E+03  0.7546771E-02  0.1269460E+00
         -1   -1    0    0    0  501 -0.00000000000E+00  0.00000000000E+00  0.68757974884E+02  0.68757974884E+02  0.00000000000E+00 0.  1.
          1   -1    0    0  502    0  0.00000000000E+00 -0.00000000000E+00 -0.25674611036E+03  0.25674611036E+03  0.00000000000E+00 0. -1.
         23    2    1    2    0    0 -0.46952214965E+02  0.45002358398E+02 -0.22567125548E+02  0.11377181654E+03  0.90581611439E+02 0.  0.
         23    2    1    2    0    0  0.16024970265E+02 -0.28212422270E+02 -0.11244963616E+03  0.14813696339E+03  0.90812437514E+02 0.  0.
        -11    1    4    4    0    0  0.40028925877E+02  0.84451667765E+01 -0.19379659724E+02  0.45268167179E+02  0.00000000000E+00 0.  1.
         11    1    4    4    0    0 -0.24003955612E+02 -0.36657589047E+02 -0.93069976438E+02  0.10286879621E+03  0.00000000000E+00 0. -1.
        -13    1    3    3    0    0 -0.43002547659E+02 -0.31063303400E+01 -0.43420028734E+02  0.61189601147E+02  0.00000000000E+00 0.  1.
         13    1    3    3    0    0 -0.39496673058E+01  0.48108688738E+02  0.20852903186E+02  0.52582215389E+02  0.00000000000E+00 0. -1.
         21    1    1    2  502  501  0.30927244699E+02 -0.16789936128E+02 -0.52971373766E+02  0.63595305318E+02  0.00000000000E+00 0. -1.
<scales pt_clust_5="13000.00000" pt_clust_6="13000.00000" pt_clust_7="13000.00000" pt_clust_8="13000.00000" pt_clust_9="35.19086"></scales>
<clustering>
<clus scale="   35.191">  2  9  1 -1</clus>
<clus scale="   90.582">  7  8 -1 -1</clus>
<clus scale="   90.812">  5  6 -1 -1</clus>
<clus scale="  105.187">  1  7  2 -1</clus>
<clus scale="   35.191">  2  5  1 -1</clus>
</clustering>
</event>
<event>
 9    1  0.9000149E-006  0.9687793E+02  0.7546771E-02  0.1289768E+00
         -2   -1    0    0    0  501 -0.00000000000E+00  0.00000000000E+00  0.24708516611E+03  0.24708516611E+03  0.00000000000E+00 0.  1.
          2   -1    0    0  502    0  0.00000000000E+00 -0.00000000000E+00 -0.63336183274E+02  0.63336183274E+02  0.00000000000E+00 0. -1.
         23    2    1    2    0    0 -0.65058863339E+00 -0.47361890144E+01  0.15002891462E+03  0.17594373735E+03  0.91785994241E+02 0.  0.
         23    2    1    2    0    0 -0.25501969568E+02 -0.89186068370E+01  0.22347759009E+02  0.10285895984E+03  0.96698765690E+02 0.  0.
        -13    1    3    3    0    0 -0.23896435097E+02 -0.41476957289E+02  0.88304989784E+02  0.10044475505E+03  0.00000000000E+00 0. -1.
         13    1    3    3    0    0  0.23245846464E+02  0.36740768275E+02  0.61723924837E+02  0.75498982301E+02  0.00000000000E+00 0.  1.
        -13    1    4    4    0    0 -0.51105949677E+02 -0.96523828722E+01 -0.18026509504E+02  0.55044905598E+02  0.00000000000E+00 0. -1.
         13    1    4    4    0    0  0.25603980109E+02  0.73377603522E+00  0.40374268512E+02  0.47814054237E+02  0.00000000000E+00 0.  1.
         21    1    1    2  502  501  0.26152558201E+02  0.13654795851E+02  0.11372309210E+02  0.31618652200E+02  0.00000000000E+00 0.  1.
<scales pt_clust_5="13000.00000" pt_clust_6="13000.00000" pt_clust_7="13000.00000" pt_clust_8="13000.00000" pt_clust_9="29.50271"></scales>
<clustering>
<clus scale="   29.503">  2  9  1 -1</clus>
<clus scale="   91.786">  5  6 -1 -1</clus>
<clus scale="   91.975">  1  5  2 -1</clus>
<clus scale="   96.699">  7  8 -1 -1</clus>
<clus scale="   29.503">  2  5  1 -1</clus>
</clustering>
</event>
<event>
 9    1  0.9000149E-006  0.1163492E+03  0.7546771E-02  0.1261060E+00
         -1   -1    0    0    0  501 -0.00000000000E+00  0.00000000000E+00  0.20575925514E+03  0.20575925514E+03  0.00000000000E+00 0.  1.
          1   -1    0    0  502    0  0.00000000000E+00 -0.00000000000E+00 -0.11109439428E+03  0.11109439428E+03  0.00000000000E+00 0. -1.
         23    2    1    2    0    0  0.63208143117E+02  0.22726514817E+02  0.11184229888E+03  0.16768271777E+03  0.10534244248E+03 0.  0.
         23    2    1    2    0    0 -0.14207562851E+02  0.10731543156E+02 -0.35239614615E+02  0.87148832904E+02  0.77692134593E+02 0.  0.
        -13    1    3    3    0    0  0.85927388916E+02 -0.79756810107E+01  0.70855328476E+02  0.11165843106E+03  0.00000000000E+00 0. -1.
         13    1    3    3    0    0 -0.22719245799E+02  0.30702195828E+02  0.40986970400E+02  0.56024286706E+02  0.00000000000E+00 0.  1.
        -13    1    4    4    0    0  0.23157432386E+02 -0.20060903184E+02 -0.83087027939E+01  0.31744937445E+02  0.00000000000E+00 0. -1.
         13    1    4    4    0    0 -0.37364995237E+02  0.30792446339E+02 -0.26930911821E+02  0.55403895459E+02  0.00000000000E+00 0.  1.
         21    1    1    2  502  501 -0.49000580266E+02 -0.33458057973E+02  0.18062176602E+02  0.62022098750E+02  0.00000000000E+00 0.  1.
<scales pt_clust_5="13000.00000" pt_clust_6="13000.00000" pt_clust_7="13000.00000" pt_clust_8="13000.00000" pt_clust_9="59.33379"></scales>
<clustering>
<clus scale="   59.334">  2  9  1 -1</clus>
<clus scale="   77.692">  7  8 -1 -1</clus>
<clus scale="   92.066">  2  7  1 -1</clus>
<clus scale="  105.342">  5  6 -1 -1</clus>
<clus scale="   59.334">  2  5  1 -1</clus>
</clustering>
</event>
<event>
 9    1  0.9000149E-006  0.1107306E+03  0.7546771E-02  0.1264210E+00
          3   -1    0    0  502    0  0.00000000000E+00  0.00000000000E+00  0.20555086046E+03  0.20555086046E+03  0.00000000000E+00 0. -1.
         -3   -1    0    0    0  501 -0.00000000000E+00 -0.00000000000E+00 -0.11342501628E+03  0.11342501628E+03  0.00000000000E+00 0.  1.
         23    2    1    2    0    0 -0.62119128409E+02 -0.20993245477E+02 -0.42083072251E+02  0.11457834355E+03  0.84010174204E+02 0.  0.
         23    2    1    2    0    0  0.35632932914E+02  0.40644318462E+02  0.13105652519E+03  0.17126717262E+03  0.96098725744E+02 0.  0.
        -11    1    4    4    0    0  0.16086284129E+02  0.23545841728E+02 -0.81507528941E+01  0.29658219308E+02  0.00000000000E+00 0.  1.
         11    1    4    4    0    0  0.19546648785E+02  0.17098476734E+02  0.13920727808E+03  0.14160895331E+03  0.00000000000E+00 0. -1.
        -13    1    3    3    0    0 -0.49866601257E+02 -0.51636479201E+02 -0.38292958026E+02  0.81359415802E+02  0.00000000000E+00 0.  1.
         13    1    3    3    0    0 -0.12252527152E+02  0.30643233724E+02 -0.37901142255E+01  0.33218927745E+02  0.00000000000E+00 0. -1.
         21    1    1    2  502  501  0.26486195495E+02 -0.19651072985E+02  0.31523912416E+01  0.33130360574E+02  0.00000000000E+00 0.  1.
<scales pt_clust_5="13000.00000" pt_clust_6="13000.00000" pt_clust_7="13000.00000" pt_clust_8="13000.00000" pt_clust_9="32.98004"></scales>
<clustering>
<clus scale="   32.980">  2  9  1 -1</clus>
<clus scale="   84.010">  7  8 -1 -1</clus>
<clus scale="   96.099">  5  6 -1 -1</clus>
<clus scale="  100.419">  2  7  1 -1</clus>
<clus scale="  110.731">  1  5  2 -1</clus>
</clustering>
</event>
<event>
 9    1  0.9000149E-006  0.9695959E+02  0.7546771E-02  0.1287737E+00
         -1   -1    0    0    0  501 -0.00000000000E+00  0.00000000000E+00  0.70339171369E+02  0.70339171369E+02  0.00000000000E+00 0.  1.
          1   -1    0    0  502    0  0.00000000000E+00 -0.00000000000E+00 -0.33121958690E+03  0.33121958690E+03  0.00000000000E+00 0. -1.
         23    2    1    2    0    0  0.98280701669E+01  0.28416626872E+02 -0.15084735337E+02  0.96625744891E+02  0.90580846152E+02 0.  0.
         23    2    1    2    0    0  0.35267174187E+02 -0.29911825809E+02 -0.73279334000E+02  0.12661389946E+03  0.92318621347E+02 0.  0.
        -11    1    3    3    0    0 -0.33820129749E+02  0.34672805817E+02 -0.19704202178E+02  0.52290154168E+02  0.00000000000E+00 0. -1.
         11    1    3    3    0    0  0.43648199916E+02 -0.62561789453E+01  0.46194668405E+01  0.44335590723E+02  0.00000000000E+00 0.  1.
        -13    1    4    4    0    0 -0.29909594245E+02 -0.22927645124E+02 -0.27857573172E+02  0.46864753513E+02  0.00000000000E+00 0. -1.
         13    1    4    4    0    0  0.65176768431E+02 -0.69841806848E+01 -0.45421760829E+02  0.79749145950E+02  0.00000000000E+00 0.  1.
         21    1    1    2  502  501 -0.45095244354E+02  0.14951989372E+01 -0.17251634620E+03  0.17831911392E+03  0.00000000000E+00 0.  1.
<scales pt_clust_5="13000.00000" pt_clust_6="13000.00000" pt_clust_7="13000.00000" pt_clust_8="13000.00000" pt_clust_9="45.12003"></scales>
<clustering>
<clus scale="   45.120">  2  9  1 -1</clus>
<clus scale="   90.581">  5  6 -1 -1</clus>
<clus scale="   92.319">  7  8 -1 -1</clus>
<clus scale="   95.306">  1  5  2 -1</clus>
<clus scale="   45.120">  2  5  1 -1</clus>
</clustering>
</event>
<event>
 9    1  0.9000149E-006  0.1039798E+03  0.7546771E-02  0.1276014E+00
          1   -1    0    0  502    0  0.00000000000E+00  0.00000000000E+00  0.33836388556E+03  0.33836388556E+03  0.00000000000E+00 0. -1.
         -1   -1    0    0    0  501 -0.00000000000E+00 -0.00000000000E+00 -0.50066419121E+02  0.50066419121E+02  0.00000000000E+00 0.  1.
         23    2    1    2    0    0 -0.22689947562E+02 -0.38394585447E+02  0.59962754966E+02  0.11262864413E+03  0.84265660766E+02 0.  0.
         23    2    1    2    0    0 -0.98423763527E+01  0.58811607089E+02  0.13126558948E+03  0.17140998791E+03  0.92709500442E+02 0.  0.
        -13    1    4    4    0    0  0.38502115380E+02  0.46096148820E+02  0.66729815861E+02  0.89778261008E+02  0.00000000000E+00 0. -1.
         13    1    4    4    0    0 -0.48344491733E+02  0.12715458269E+02  0.64535773619E+02  0.81631726899E+02  0.00000000000E+00 0.  1.
        -13    1    3    3    0    0 -0.33906297174E+02 -0.55409393054E+02  0.64723888636E+02  0.91700706578E+02  0.00000000000E+00 0.  1.
         13    1    3    3    0    0  0.11216349612E+02  0.17014807607E+02 -0.47611336707E+01  0.20927937556E+02  0.00000000000E+00 0. -1.
         21    1    1    2  502  501  0.32532323915E+02 -0.20417021643E+02  0.97069121998E+02  0.10439167264E+03  0.00000000000E+00 0.  1.
<scales pt_clust_5="13000.00000" pt_clust_6="13000.00000" pt_clust_7="13000.00000" pt_clust_8="13000.00000" pt_clust_9="38.40842"></scales>
<clustering>
<clus scale="   38.408">  1  9  2 -1</clus>
<clus scale="   84.266">  7  8 -1 -1</clus>
<clus scale="   92.710">  5  6 -1 -1</clus>
<clus scale="   96.527">  2  7  1 -1</clus>
<clus scale="   38.408">  1  5  2 -1</clus>
</clustering>
</event>
<event>
 9    1  0.9000149E-006  0.1008230E+03  0.7546771E-02  0.1279090E+00
         -1   -1    0    0    0  501 -0.00000000000E+00  0.00000000000E+00  0.17308450596E+03  0.17308450596E+03  0.00000000000E+00 0.  1.
          1   -1    0    0  502    0  0.00000000000E+00 -0.00000000000E+00 -0.84610421219E+02  0.84610421219E+02  0.00000000000E+00 0. -1.
         23    2    1    2    0    0  0.17043007996E+02 -0.41614109209E+02  0.77752347328E+02  0.12719042896E+03  0.90054314149E+02 0.  0.
         23    2    1    2    0    0 -0.41138527292E+02  0.29777098324E+02  0.14303686874E+02  0.10342056869E+03  0.88950348831E+02 0.  0.
        -13    1    4    4    0    0 -0.46767302221E+02 -0.14987191194E+02 -0.12849184154E+02  0.50763155835E+02  0.00000000000E+00 0.  1.
         13    1    4    4    0    0  0.56287749287E+01  0.44764289518E+02  0.27152871028E+02  0.52657412853E+02  0.00000000000E+00 0. -1.
        -13    1    3    3    0    0  0.48406346069E+02 -0.17439234047E+02  0.16092175332E+02  0.53909733173E+02  0.00000000000E+00 0. -1.
         13    1    3    3    0    0 -0.31363338073E+02 -0.24174875162E+02  0.61660171997E+02  0.73280695786E+02  0.00000000000E+00 0.  1.
         21    1    1    2  502  501  0.24095519297E+02  0.11837010885E+02 -0.35819494627E+01  0.27083929531E+02  0.00000000000E+00 0.  1.
<scales pt_clust_5="13000.00000" pt_clust_6="13000.00000" pt_clust_7="13000.00000" pt_clust_8="13000.00000" pt_clust_9="26.84602"></scales>
<clustering>
<clus scale="   26.846">  2  9  1 -1</clus>
<clus scale="   88.950">  5  6 -1 -1</clus>
<clus scale="   90.054">  7  8 -1 -1</clus>
<clus scale="   99.838">  2  5  1 -1</clus>
<clus scale="   26.846">  2  5  1 -1</clus>
</clustering>
</event>
<event>
 9    1  0.9000149E-006  0.9568934E+02  0.7546771E-02  0.1291542E+00
         -2   -1    0    0    0  501 -0.00000000000E+00  0.00000000000E+00  0.74322100654E+02  0.74322100654E+02  0.00000000000E+00 0.  1.
          2   -1    0    0  502    0  0.00000000000E+00 -0.00000000000E+00 -0.23598913838E+03  0.23598913838E+03  0.00000000000E+00 0. -1.
         23    2    1    2    0    0 -0.10438603717E+02  0.20448077586E+02  0.89873848643E+01  0.91324083510E+02  0.87933081476E+02 0.  0.
         23    2    1    2    0    0 -0.19881736877E+02 -0.25947363444E+02 -0.15844289607E+03  0.18584071410E+03  0.91455292759E+02 0.  0.
        -13    1    4    4    0    0  0.35320932283E+02  0.22949393049E+00 -0.69128466226E+02  0.77629670665E+02  0.00000000000E+00 0.  1.
         13    1    4    4    0    0 -0.55202669160E+02 -0.26176857374E+02 -0.89314429839E+02  0.10821104344E+03  0.00000000000E+00 0. -1.
        -13    1    3    3    0    0  0.32678754146E+02  0.45841088720E+01  0.26330764426E+02  0.42216397075E+02  0.00000000000E+00 0.  1.
         13    1    3    3    0    0 -0.43117357863E+02  0.15863968714E+02 -0.17343379562E+02  0.49107686436E+02  0.00000000000E+00 0. -1.
         21    1    1    2  502  501  0.30320340593E+02  0.54992858574E+01 -0.12211526520E+02  0.33146441417E+02  0.00000000000E+00 0.  1.
<scales pt_clust_5="13000.00000" pt_clust_6="13000.00000" pt_clust_7="13000.00000" pt_clust_8="13000.00000" pt_clust_9="30.81502"></scales>
<clustering>
<clus scale="   30.815">  1  9  2 -1</clus>
<clus scale="   87.933">  7  8 -1 -1</clus>
<clus scale="   91.455">  5  6 -1 -1</clus>
<clus scale="   92.329">  1  7  2 -1</clus>
<clus scale="   95.689">  2  5  1 -1</clus>
</clustering>
</event>
<event>
 9    1  0.9000149E-006  0.9864926E+02  0.7546771E-02  0.1285945E+00
         -1   -1    0    0    0  501 -0.00000000000E+00  0.00000000000E+00  0.38838822224E+03  0.38838822224E+03  0.00000000000E+00 0.  1.
          1   -1    0    0  502    0  0.00000000000E+00 -0.00000000000E+00 -0.64979619281E+02  0.64979619281E+02  0.00000000000E+00 0. -1.
         23    2    1    2    0    0 -0.17832882516E+02  0.24471499310E+02  0.24285725390E+03  0.26100322995E+03  0.90698259594E+02 0.  0.
         23    2    1    2    0    0  0.92119196432E+01 -0.63874817685E+02  0.10108973770E+03  0.14710129411E+03  0.85175136416E+02 0.  0.
        -11    1    3    3    0    0 -0.51474090634E+02  0.19214239723E+01  0.17016401593E+03  0.17778938718E+03  0.00000000000E+00 0.  1.
         11    1    3    3    0    0  0.33641208118E+02  0.22550075338E+02  0.72693237978E+02  0.83213842773E+02  0.00000000000E+00 0. -1.
        -13    1    4    4    0    0 -0.28190470395E+01 -0.82135734466E+02  0.64489727975E+02  0.10446602757E+03  0.00000000000E+00 0. -1.
         13    1    4    4    0    0  0.12030966683E+02  0.18260916782E+02  0.36600009724E+02  0.42635266539E+02  0.00000000000E+00 0.  1.
         21    1    1    2  502  501  0.86209628729E+01  0.39403318374E+02 -0.20538388641E+02  0.45263317463E+02  0.00000000000E+00 0.  1.
<scales pt_clust_5="13000.00000" pt_clust_6="13000.00000" pt_clust_7="13000.00000" pt_clust_8="13000.00000" pt_clust_9="40.33538"></scales>
<clustering>
<clus scale="   40.335">  2  9  1 -1</clus>
<clus scale="   85.175">  7  8 -1 -1</clus>
<clus scale="   90.698">  5  6 -1 -1</clus>
<clus scale="   93.597">  2  7  1 -1</clus>
<clus scale="   40.335">  2  5  1 -1</clus>
</clustering>
</event>
<event>
 9    1  0.9000149E-006  0.9711349E+02  0.7546771E-02  0.1287097E+00
         -2   -1    0    0    0  501 -0.00000000000E+00  0.00000000000E+00  0.25056806812E+03  0.25056806812E+03  0.00000000000E+00 0.  1.
          2   -1    0    0  502    0  0.00000000000E+00 -0.00000000000E+00 -0.52147906140E+02  0.52147906140E+02  0.00000000000E+00 0. -1.
         23    2    1    2    0    0  0.31508173120E+01  0.39370254918E+02  0.10789910552E+03  0.14768252872E+03  0.92779133937E+02 0.  0.
         23    2    1    2    0    0 -0.18355701307E+02 -0.12402036285E+02  0.74695038341E+02  0.12026368622E+03  0.91614754253E+02 0.  0.
        -11    1    3    3    0    0 -0.29301401197E+02  0.46600415570E+02  0.98982968467E+02  0.11325987326E+03  0.00000000000E+00 0.  1.
         11    1    3    3    0    0  0.32452218509E+02 -0.72301606517E+01  0.89161370576E+01  0.34422655464E+02  0.00000000000E+00 0. -1.
        -13    1    4    4    0    0 -0.38841176413E+02 -0.35992859466E+02  0.71332365521E+02  0.88839345385E+02  0.00000000000E+00 0.  1.
         13    1    4    4    0    0  0.20485475105E+02  0.23590823181E+02  0.33626728207E+01  0.31424340839E+02  0.00000000000E+00 0. -1.
         21    1    1    2  502  501  0.15204883995E+02 -0.26968218633E+02  0.15826018114E+02  0.34769759316E+02  0.00000000000E+00 0. -1.
<scales pt_clust_5="13000.00000" pt_clust_6="13000.00000" pt_clust_7="13000.00000" pt_clust_8="13000.00000" pt_clust_9="30.95922"></scales>
<clustering>
<clus scale="   30.959">  2  9  1 -1</clus>
<clus scale="   91.615">  7  8 -1 -1</clus>
<clus scale="   92.779">  5  6 -1 -1</clus>
<clus scale="   96.002">  2  7  1 -1</clus>
<clus scale="   30.959">  2  5  1 -1</clus>
</clustering>
</event>
<event>
 9    1  0.9000149E-006  0.3371719E+03  0.7546771E-02  0.1118685E+00
         -2   -1    0    0    0  501 -0.00000000000E+00  0.00000000000E+00  0.25231028851E+03  0.25231028851E+03  0.00000000000E+00 0.  1.
          2   -1    0    0  502    0  0.00000000000E+00 -0.00000000000E+00 -0.79054075448E+03  0.79054075448E+03  0.00000000000E+00 0. -1.
         23    2    1    2    0    0  0.27199407591E+03 -0.16979530754E+03 -0.33249672002E+02  0.33496273963E+03  0.91012485193E+02 0.  0.
         23    2    1    2    0    0  0.82468613502E+01 -0.62040878478E+01 -0.31279084251E+03  0.32520338395E+03  0.88389073685E+02 0.  0.
        -11    1    3    3    0    0  0.84518069489E+02 -0.74960053136E+01 -0.58241482366E+00  0.84851831877E+02  0.00000000000E+00 0. -1.
         11    1    3    3    0    0  0.18747600642E+03 -0.16229930223E+03 -0.32667257178E+02  0.25011090776E+03  0.00000000000E+00 0.  1.
        -11    1    4    4    0    0  0.31451059265E+02 -0.30001612558E+02 -0.25378325876E+03  0.25747855894E+03  0.00000000000E+00 0.  1.
         11    1    4    4    0    0 -0.23204197915E+02  0.23797524710E+02 -0.59007583744E+02  0.67724825009E+02  0.00000000000E+00 0. -1.
         21    1    1    2  502  501 -0.28024093726E+03  0.17599939539E+03 -0.19218995146E+03  0.38268491940E+03  0.00000000000E+00 0. -1.
<scales pt_clust_5="13000.00000" pt_clust_6="13000.00000" pt_clust_7="13000.00000" pt_clust_8="13000.00000" pt_clust_9="324.65613"></scales>
<clustering>
<clus scale="   88.389">  7  8 -1 -1</clus>
<clus scale="   88.989">  2  7  1 -1</clus>
<clus scale="   91.012">  5  6 -1 -1</clus>
<clus scale="  324.656">  2  9  1 -1</clus>
<clus scale="   88.989">  2  5  1 -1</clus>
</clustering>
</event>
<event>
 9    1  0.9000149E-006  0.9321051E+02  0.7546771E-02  0.1309958E+00
         -2   -1    0    0    0  501 -0.00000000000E+00  0.00000000000E+00  0.94438516286E+02  0.94438516286E+02  0.00000000000E+00 0.  1.
          2   -1    0    0  502    0  0.00000000000E+00 -0.00000000000E+00 -0.28813238200E+03  0.28813238200E+03  0.00000000000E+00 0. -1.
         23    2    1    2    0    0  0.10184560198E+02 -0.23143147416E+02  0.67736521456E+02  0.98542471465E+02  0.66955595769E+02 0.  0.
         23    2    1    2    0    0  0.52882776583E+01  0.10343376032E+02 -0.20802118010E+03  0.22696892929E+03  0.90039614524E+02 0.  0.
        -13    1    3    3    0    0  0.24139031953E+02 -0.41577784127E+02  0.50325651367E+02  0.69599397857E+02  0.00000000000E+00 0.  1.
         13    1    3    3    0    0 -0.13954471755E+02  0.18434636711E+02  0.17410870089E+02  0.28943073608E+02  0.00000000000E+00 0. -1.
        -13    1    4    4    0    0 -0.33210177931E+02 -0.22178932123E+02 -0.10334431760E+03  0.11079200751E+03  0.00000000000E+00 0. -1.
         13    1    4    4    0    0  0.38498455589E+02  0.32522308155E+02 -0.10467686249E+03  0.11617692177E+03  0.00000000000E+00 0.  1.
         21    1    1    2  502  501 -0.15472837857E+02  0.12799771385E+02 -0.53409207077E+02  0.57059497539E+02  0.00000000000E+00 0. -1.
<scales pt_clust_5="13000.00000" pt_clust_6="13000.00000" pt_clust_7="13000.00000" pt_clust_8="13000.00000" pt_clust_9="20.08091"></scales>
<clustering>
<clus scale="   20.081">  2  9  1 -1</clus>
<clus scale="   66.956">  5  6 -1 -1</clus>
<clus scale="   71.163">  1  5  2 -1</clus>
<clus scale="   90.040">  7  8 -1 -1</clus>
<clus scale="   20.081">  2  5  1 -1</clus>
</clustering>
</event>
<event>
 9    1  0.9000149E-006  0.1215506E+03  0.7546771E-02  0.1243164E+00
         -2   -1    0    0    0  501 -0.00000000000E+00  0.00000000000E+00  0.84668761748E+02  0.84668761748E+02  0.00000000000E+00 0.  1.
          2   -1    0    0  502    0  0.00000000000E+00 -0.00000000000E+00 -0.34599571168E+03  0.34599571168E+03  0.00000000000E+00 0. -1.
         23    2    1    2    0    0  0.90676566714E+02 -0.10826640089E+02  0.67973856257E+01  0.12875252219E+03  0.90507191046E+02 0.  0.
         23    2    1    2    0    0 -0.50179066563E+02  0.10651176691E+02 -0.16669698697E+03  0.19269846606E+03  0.81935505537E+02 0.  0.
        -13    1    4    4    0    0  0.17401068124E+02 -0.13503696169E+02 -0.21737219649E+02  0.30945980355E+02  0.00000000000E+00 0.  1.
         13    1    4    4    0    0 -0.67580134686E+02  0.24154872860E+02 -0.14495976733E+03  0.16175248570E+03  0.00000000000E+00 0. -1.
        -13    1    3    3    0    0  0.97956703683E+02 -0.29552355911E+02 -0.96723400412E+01  0.10277359436E+03  0.00000000000E+00 0.  1.
         13    1    3    3    0    0 -0.72801369681E+01  0.18725715822E+02  0.16469725667E+02  0.25978927824E+02  0.00000000000E+00 0. -1.
         21    1    1    2  502  501 -0.40497500152E+02  0.17546339771E+00 -0.10142734858E+03  0.10921348519E+03  0.00000000000E+00 0. -1.
<scales pt_clust_5="13000.00000" pt_clust_6="13000.00000" pt_clust_7="13000.00000" pt_clust_8="13000.00000" pt_clust_9="40.49788"></scales>
<clustering>
<clus scale="   40.498">  2  9  1 -1</clus>
<clus scale="   81.936">  5  6 -1 -1</clus>
<clus scale="   90.507">  7  8 -1 -1</clus>
<clus scale="  115.310">  2  5  1 -1</clus>
<clus scale="   40.498">  2  5  1 -1</clus>
</clustering>
</event>
<event>
 9    1  0.9000149E-006  0.9751144E+02  0.7546771E-02  0.1285990E+00
         -3   -1    0    0    0  501 -0.00000000000E+00  0.00000000000E+00  0.42225317510E+02  0.42225317510E+02  0.00000000000E+00 0.  1.
          3   -1    0    0  502    0  0.00000000000E+00 -0.00000000000E+00 -0.41741099852E+03  0.41741099852E+03  0.00000000000E+00 0. -1.
         23    2    1    2    0    0  0.46788728794E+02 -0.10811966140E+02 -0.81423850214E+02  0.13072993765E+03  0.90301658125E+02 0.  0.
         23    2    1    2    0    0 -0.19475357759E+02 -0.90597610843E+01 -0.12132963550E+03  0.15319705093E+03  0.91033439632E+02 0.  0.
        -11    1    4    4    0    0 -0.47945125762E+02 -0.34461882898E+01 -0.28376195917E+02  0.55819528776E+02  0.00000000000E+00 0.  1.
         11    1    4    4    0    0  0.28469768003E+02 -0.56135727945E+01 -0.92953439586E+02  0.97377522152E+02  0.00000000000E+00 0. -1.
        -13    1    3    3    0    0  0.29232154187E+02  0.33249751662E+02 -0.68514433081E+02  0.81573846081E+02  0.00000000000E+00 0. -1.
         13    1    3    3    0    0  0.17556574607E+02 -0.44061717802E+02 -0.12909417133E+02  0.49156091569E+02  0.00000000000E+00 0.  1.
         21    1    1    2  502  501 -0.27313371035E+02  0.19871727225E+02 -0.17243219530E+03  0.17570932746E+03  0.00000000000E+00 0. -1.
<scales pt_clust_5="13000.00000" pt_clust_6="13000.00000" pt_clust_7="13000.00000" pt_clust_8="13000.00000" pt_clust_9="33.77730"></scales>
<clustering>
<clus scale="   33.777">  2  9  1 -1</clus>
<clus scale="   90.302">  7  8 -1 -1</clus>
<clus scale="   91.033">  5  6 -1 -1</clus>
<clus scale="   96.829">  1  7  2 -1</clus>
<clus scale="   33.777">  2  5  1 -1</clus>
</clustering>
</event>
<event>
 9    1  0.9000149E-006  0.1470315E+03  0.7546771E-02  0.1206790E+00
         -1   -1    0    0    0  501 -0.00000000000E+00  0.00000000000E+00  0.72650299397E+02  0.72650299397E+02  0.00000000000E+00 0.  1.
          1   -1    0    0  502    0  0.00000000000E+00 -0.00000000000E+00 -0.49641029435E+03  0.49641029435E+03  0.00000000000E+00 0. -1.
         23    2    1    2    0    0 -0.29302866131E+02 -0.66556829947E+02 -0.14080045331E+03  0.18220117273E+03  0.89911234648E+02 0.  0.
         23    2    1    2    0    0  0.29771709422E+02  0.14444522553E+03 -0.15467885953E+03  0.23678358890E+03  0.10193203877E+03 0.  0.
        -11    1    3    3    0    0  0.31118626548E+02 -0.33645119554E+02 -0.44783076917E+02  0.64077195368E+02  0.00000000000E+00 0.  1.
         11    1    3    3    0    0 -0.60421492679E+02 -0.32911710393E+02 -0.96017376397E+02  0.11812397737E+03  0.00000000000E+00 0. -1.
        -13    1    4    4    0    0 -0.33002650937E+02  0.37838347762E+02 -0.72768914104E+02  0.88409447403E+02  0.00000000000E+00 0. -1.
         13    1    4    4    0    0  0.62774360359E+02  0.10660687777E+03 -0.81909945421E+02  0.14837414150E+03  0.00000000000E+00 0.  1.
         21    1    1    2  502  501 -0.46884329090E+00 -0.77888395584E+02 -0.12828068211E+03  0.15007583211E+03  0.00000000000E+00 0. -1.
<scales pt_clust_5="13000.00000" pt_clust_6="13000.00000" pt_clust_7="13000.00000" pt_clust_8="13000.00000" pt_clust_9="77.88981"></scales>
<clustering>
<clus scale="   77.890">  2  9  1 -1</clus>
<clus scale="   89.911">  5  6 -1 -1</clus>
<clus scale="  101.932">  7  8 -1 -1</clus>
<clus scale="  138.968">  1  5  2 -1</clus>
<clus scale="   77.890">  2  5  1 -1</clus>
</clustering>
</event>
<event>
 9    1  0.9000149E-006  0.1383732E+03  0.7546771E-02  0.1216120E+00
          1   -1    0    0  502    0  0.00000000000E+00  0.00000000000E+00  0.56809080953E+02  0.56809080953E+02  0.00000000000E+00 0. -1.
         -1   -1    0    0    0  501 -0.00000000000E+00 -0.00000000000E+00 -0.87681617776E+03  0.87681617776E+03  0.00000000000E+00 0.  1.
         23    2    1    2    0    0 -0.83578295738E+02 -0.20863551311E+02 -0.34432985982E+03  0.36576453362E+03  0.88317735471E+02 0.  0.
         23    2    1    2    0    0  0.11808996794E+03  0.37895524295E+02 -0.49947390812E+03  0.52261224248E+03  0.90928872241E+02 0.  0.
        -13    1    4    4    0    0  0.62031679365E+02  0.57633048102E+02 -0.37815027138E+03  0.38751403229E+03  0.00000000000E+00 0.  1.
         13    1    4    4    0    0  0.56058288574E+02 -0.19737523807E+02 -0.12132363673E+03  0.13509821018E+03  0.00000000000E+00 0. -1.
        -13    1    3    3    0    0 -0.11213531731E+02 -0.35259655074E+02 -0.20289557373E+03  0.20624160688E+03  0.00000000000E+00 0.  1.
         13    1    3    3    0    0 -0.72364764007E+02  0.14396103763E+02 -0.14143428609E+03  0.15952292674E+03  0.00000000000E+00 0. -1.
         21    1    1    2  502  501 -0.34511672200E+02 -0.17031972984E+02  0.23796671133E+02  0.45248482614E+02  0.00000000000E+00 0. -1.
<scales pt_clust_5="13000.00000" pt_clust_6="13000.00000" pt_clust_7="13000.00000" pt_clust_8="13000.00000" pt_clust_9="38.48563"></scales>
<clustering>
<clus scale="   38.486">  1  9  2 -1</clus>
<clus scale="   88.318">  7  8 -1 -1</clus>
<clus scale="   90.929">  5  6 -1 -1</clus>
<clus scale="  136.672">  2  7  1 -1</clus>
<clus scale="   38.486">  1  5  2 -1</clus>
</clustering>
</event>
<event>
 9    1  0.9000149E-006  0.2249567E+03  0.7546771E-02  0.1130312E+00
         -2   -1    0    0    0  501 -0.00000000000E+00  0.00000000000E+00  0.11715604429E+03  0.11715604429E+03  0.00000000000E+00 0.  1.
          2   -1    0    0  502    0  0.00000000000E+00 -0.00000000000E+00 -0.70481648711E+03  0.70481648711E+03  0.00000000000E+00 0. -1.
         23    2    1    2    0    0  0.20612383412E+03  0.85305530867E+01 -0.84449762823E+02  0.24103949939E+03  0.91697723489E+02 0.  0.
         23    2    1    2    0    0 -0.20122318876E+03 -0.41084989175E+02 -0.29807779598E+03  0.37317522172E+03  0.90722795492E+02 0.  0.
        -11    1    3    3    0    0  0.29030617130E+02 -0.30077171488E+02 -0.18231539273E+01  0.41841807632E+02  0.00000000000E+00 0.  1.
         11    1    3    3    0    0  0.17709321699E+03  0.38607724575E+02 -0.82626608896E+02  0.19919769175E+03  0.00000000000E+00 0. -1.
        -11    1    4    4    0    0 -0.84072482253E+02  0.19496040632E+00 -0.55777602503E+02  0.10089282047E+03  0.00000000000E+00 0. -1.
         11    1    4    4    0    0 -0.11715070651E+03 -0.41279949581E+02 -0.24230019347E+03  0.27228240125E+03  0.00000000000E+00 0.  1.
         21    1    1    2  502  501 -0.49006453660E+01  0.32554436088E+02 -0.20513288402E+03  0.20775781029E+03  0.00000000000E+00 0. -1.
<scales pt_clust_5="13000.00000" pt_clust_6="13000.00000" pt_clust_7="13000.00000" pt_clust_8="13000.00000" pt_clust_9="32.92123"></scales>
<clustering>
<clus scale="   32.921">  2  9  1 -1</clus>
<clus scale="   90.723">  7  8 -1 -1</clus>
<clus scale="   91.698">  5  6 -1 -1</clus>
<clus scale="  224.561">  2  7  1 -1</clus>
<clus scale="   32.921">  2  5  1 -1</clus>
</clustering>
</event>
<event>
 9    1  0.9000149E-006  0.1599806E+03  0.7546771E-02  0.1188784E+00
         -3   -1    0    0    0  501 -0.00000000000E+00  0.00000000000E+00  0.91083444418E+02  0.91083444418E+02  0.00000000000E+00 0.  1.
          3   -1    0    0  502    0  0.00000000000E+00 -0.00000000000E+00 -0.37828370521E+03  0.37828370521E+03  0.00000000000E+00 0. -1.
         23    2    1    2    0    0 -0.98127883249E+02  0.77344400812E+02 -0.69097907233E+02  0.16992399456E+03  0.92132542221E+02 0.  0.
         23    2    1    2    0    0  0.90330700671E+02 -0.10888533254E+03 -0.15939812232E+03  0.23234760234E+03  0.92531053093E+02 0.  0.
        -11    1    3    3    0    0 -0.72839468154E+02  0.19820827983E+02  0.13810748901E+01  0.75500733180E+02  0.00000000000E+00 0.  1.
         11    1    3    3    0    0 -0.25288415095E+02  0.57523572829E+02 -0.70478982123E+02  0.94423261383E+02  0.00000000000E+00 0. -1.
        -13    1    4    4    0    0  0.26553008405E+02 -0.94041130624E+02 -0.64632179095E+02  0.11715850408E+03  0.00000000000E+00 0.  1.
         13    1    4    4    0    0  0.63777692266E+02 -0.14844201917E+02 -0.94765943224E+02  0.11518909825E+03  0.00000000000E+00 0. -1.
         21    1    1    2  502  501  0.77971825779E+01  0.31540931729E+02 -0.58704231240E+02  0.67095552729E+02  0.00000000000E+00 0. -1.
<scales pt_clust_5="13000.00000" pt_clust_6="13000.00000" pt_clust_7="13000.00000" pt_clust_8="13000.00000" pt_clust_9="32.49041"></scales>
<clustering>
<clus scale="   32.490">  2  9  1 -1</clus>
<clus scale="   92.133">  5  6 -1 -1</clus>
<clus scale="   92.531">  7  8 -1 -1</clus>
<clus scale="  159.750">  1  5  2 -1</clus>
<clus scale="   32.490">  2  5  1 -1</clus>
</clustering>
</event>
<event>
 9    1  0.9000149E-006  0.1368897E+03  0.7546771E-02  0.1217736E+00
          1   -1    0    0  502    0  0.00000000000E+00  0.00000000000E+00  0.19081528429E+03  0.19081528429E+03  0.00000000000E+00 0. -1.
         -1   -1    0    0    0  501 -0.00000000000E+00 -0.00000000000E+00 -0.21089035657E+03  0.21089035657E+03  0.00000000000E+00 0.  1.
         23    2    1    2    0    0  0.93515701633E+02 -0.75141784531E+02 -0.90628474557E+02  0.17665719351E+03  0.92751115270E+02 0.  0.
         23    2    1    2    0    0 -0.78036572869E+02  0.16674339926E+02 -0.11177196099E+02  0.12337280516E+03  0.93424723832E+02 0.  0.
        -11    1    4    4    0    0 -0.33095724972E+01 -0.32921592804E+02 -0.91799822846E+00  0.33100260779E+02  0.00000000000E+00 0.  1.
         11    1    4    4    0    0 -0.74727000372E+02  0.49595932730E+02 -0.10259197870E+02  0.90272544380E+02  0.00000000000E+00 0. -1.
        -11    1    3    3    0    0  0.51350478075E+02 -0.73262600180E+02 -0.99203892252E+02  0.13358777048E+03  0.00000000000E+00 0.  1.
         11    1    3    3    0    0  0.42165223558E+02 -0.18791843507E+01  0.85754176954E+01  0.43069423030E+02  0.00000000000E+00 0. -1.
         21    1    1    2  502  501 -0.15479128764E+02  0.58467444604E+02  0.81730598372E+02  0.10167564220E+03  0.00000000000E+00 0. -1.
<scales pt_clust_5="13000.00000" pt_clust_6="13000.00000" pt_clust_7="13000.00000" pt_clust_8="13000.00000" pt_clust_9="60.48178"></scales>
<clustering>
<clus scale="   60.482">  1  9  2 -1</clus>
<clus scale="   92.751">  7  8 -1 -1</clus>
<clus scale="   93.425">  5  6 -1 -1</clus>
<clus scale="  136.431">  2  7  1 -1</clus>
<clus scale="   60.482">  1  5  2 -1</clus>
</clustering>
</event>
<event>
 9    1  0.9000149E-006  0.2522055E+03  0.7546771E-02  0.1112038E+00
         -2   -1    0    0    0  501 -0.00000000000E+00  0.00000000000E+00  0.11576533846E+03  0.11576533846E+03  0.00000000000E+00 0.  1.
          2   -1    0    0  502    0  0.00000000000E+00 -0.00000000000E+00 -0.13604451615E+04  0.13604451615E+04  0.00000000000E+00 0. -1.
         23    2    1    2    0    0  0.23236132356E+03  0.49261442902E+02 -0.55889149946E+02  0.26007700461E+03  0.89988759321E+02 0.  0.
         23    2    1    2    0    0 -0.21081849402E+03 -0.45269107363E+02 -0.10939693540E+04  0.11188138427E+04  0.92096348915E+02 0.  0.
        -11    1    4    4    0    0 -0.17665160037E+03 -0.68868769989E+00 -0.76928732240E+03  0.78930934785E+03  0.00000000000E+00 0. -1.
         11    1    4    4    0    0 -0.34166893658E+02 -0.44580419663E+02 -0.32468203164E+03  0.32950449482E+03  0.00000000000E+00 0.  1.
        -13    1    3    3    0    0  0.19599614157E+03  0.56641684007E+01 -0.53537273153E+02  0.20325552866E+03  0.00000000000E+00 0.  1.
         13    1    3    3    0    0  0.36365181986E+02  0.43597274501E+02 -0.23518767931E+01  0.56821475951E+02  0.00000000000E+00 0. -1.
         21    1    1    2  502  501 -0.21542829535E+02 -0.39923355391E+01 -0.94821319046E+02  0.97319652656E+02  0.00000000000E+00 0. -1.
<scales pt_clust_5="13000.00000" pt_clust_6="13000.00000" pt_clust_7="13000.00000" pt_clust_8="13000.00000" pt_clust_9="21.90964"></scales>
<clustering>
<clus scale="   21.910">  2  9  1 -1</clus>
<clus scale="   89.989">  7  8 -1 -1</clus>
<clus scale="   92.096">  5  6 -1 -1</clus>
<clus scale="  251.444">  1  7  2 -1</clus>
<clus scale="   21.910">  2  5  1 -1</clus>
</clustering>
</event>
<event>
 9    1  0.9000149E-006  0.1115346E+03  0.7546771E-02  0.1258271E+00
          2   -1    0    0  502    0  0.00000000000E+00  0.00000000000E+00  0.60182617616E+03  0.60182617616E+03  0.00000000000E+00 0. -1.
         -2   -1    0    0    0  501 -0.00000000000E+00 -0.00000000000E+00 -0.77088799805E+02  0.77088799805E+02  0.00000000000E+00 0.  1.
         23    2    1    2    0    0  0.50045480168E+02  0.30636805379E+02 -0.12815498508E+02  0.10834024775E+03  0.90167667992E+02 0.  0.
         23    2    1    2    0    0 -0.71067567251E+02 -0.64389683196E+02  0.27803041806E+03  0.30802360845E+03  0.91547799419E+02 0.  0.
        -11    1    4    4    0    0 -0.40525828832E+02 -0.27253051852E+02  0.34505233768E+02  0.59797013263E+02  0.00000000000E+00 0.  1.
         11    1    4    4    0    0 -0.30541738419E+02 -0.37136631343E+02  0.24352518429E+03  0.24822659519E+03  0.00000000000E+00 0. -1.
        -13    1    3    3    0    0 -0.67575822290E+01  0.47683297144E+02 -0.82255622522E+01  0.48857155244E+02  0.00000000000E+00 0.  1.
         13    1    3    3    0    0  0.56803062397E+02 -0.17046491765E+02 -0.45899362556E+01  0.59483092505E+02  0.00000000000E+00 0. -1.
         21    1    1    2  502  501  0.21022087083E+02  0.33752877816E+02  0.25952245680E+03  0.26255111976E+03  0.00000000000E+00 0. -1.
<scales pt_clust_5="13000.00000" pt_clust_6="13000.00000" pt_clust_7="13000.00000" pt_clust_8="13000.00000" pt_clust_9="39.76412"></scales>
<clustering>
<clus scale="   39.764">  1  9  2 -1</clus>
<clus scale="   90.168">  7  8 -1 -1</clus>
<clus scale="   91.548">  5  6 -1 -1</clus>
<clus scale="  110.405">  2  7  1 -1</clus>
<clus scale="   39.764">  1  5  2 -1</clus>
</clustering>
</event>
<event>
 9    1  0.9000149E-006  0.9344925E+02  0.7546771E-02  0.1295459E+00
          3   -1    0    0  502    0  0.00000000000E+00  0.00000000000E+00  0.23407085006E+03  0.23407085006E+03  0.00000000000E+00 0. -1.
         -3   -1    0    0    0  501 -0.00000000000E+00 -0.00000000000E+00 -0.86814403574E+02  0.86814403574E+02  0.00000000000E+00 0.  1.
         23    2    1    2    0    0  0.66873684860E+01 -0.61312229547E+02  0.17281768169E+02  0.11066925165E+03  0.90250281780E+02 0.  0.
         23    2    1    2    0    0  0.79457582021E+01  0.34928794333E+01  0.11760502146E+03  0.14930447552E+03  0.91572649077E+02 0.  0.
        -11    1    4    4    0    0 -0.34135203540E+02  0.81553018649E+00  0.96070171255E+02  0.10195761382E+03  0.00000000000E+00 0. -1.
         11    1    4    4    0    0  0.42080961742E+02  0.26773492468E+01  0.21534850200E+02  0.47346861704E+02  0.00000000000E+00 0.  1.
        -11    1    3    3    0    0  0.41402231386E+02 -0.57663745097E+02 -0.15554586809E+01  0.71004730223E+02  0.00000000000E+00 0.  1.
         11    1    3    3    0    0 -0.34714862900E+02 -0.36484844502E+01  0.18837226850E+02  0.39664521431E+02  0.00000000000E+00 0. -1.
         21    1    1    2  502  501 -0.14633126688E+02  0.57819350114E+02  0.12369656857E+02  0.60911526454E+02  0.00000000000E+00 0. -1.
<scales pt_clust_5="13000.00000" pt_clust_6="13000.00000" pt_clust_7="13000.00000" pt_clust_8="13000.00000" pt_clust_9="59.64231"></scales>
<clustering>
<clus scale="   59.642">  2  9  1 -1</clus>
<clus scale="   90.250">  7  8 -1 -1</clus>
<clus scale="   91.573">  5  6 -1 -1</clus>
<clus scale="   92.154">  2  7  1 -1</clus>
<clus scale="   93.449">  1  5  2 -1</clus>
</clustering>
</event>
<event>
 9    1  0.9000149E-006  0.1189355E+03  0.7546771E-02  0.1244865E+00
         -1   -1    0    0    0  501 -0.00000000000E+00  0.00000000000E+00  0.14146284000E+03  0.14146284000E+03  0.00000000000E+00 0.  1.
          1   -1    0    0  502    0  0.00000000000E+00 -0.00000000000E+00 -0.40193755416E+03  0.40193755416E+03  0.00000000000E+00 0. -1.
         23    2    1    2    0    0  0.21912810413E+02 -0.72925590739E+02  0.92243612392E+02  0.15029076132E+03  0.90995142000E+02 0.  0.
         23    2    1    2    0    0 -0.55823309349E+02  0.65564154976E+02 -0.19618087976E+03  0.23277222322E+03  0.91000384818E+02 0.  0.
        -11    1    3    3    0    0 -0.35507271442E+02 -0.34853568146E+02  0.38189993117E+02  0.62721711648E+02  0.00000000000E+00 0.  1.
         11    1    3    3    0    0  0.57420081855E+02 -0.38072022593E+02  0.54053619276E+02  0.87569049677E+02  0.00000000000E+00 0. -1.
        -13    1    4    4    0    0 -0.49010241547E+02  0.88545023908E+02 -0.16234968305E+03  0.19131033590E+03  0.00000000000E+00 0. -1.
         13    1    4    4    0    0 -0.68130678019E+01 -0.22980868932E+02 -0.33831196707E+02  0.41461887323E+02  0.00000000000E+00 0.  1.
         21    1    1    2  502  501  0.33910498936E+02  0.73614357628E+01 -0.15653744679E+03  0.16033740962E+03  0.00000000000E+00 0. -1.
<scales pt_clust_5="13000.00000" pt_clust_6="13000.00000" pt_clust_7="13000.00000" pt_clust_8="13000.00000" pt_clust_9="34.70033"></scales>
<clustering>
<clus scale="   34.700">  2  9  1 -1</clus>
<clus scale="   90.995">  5  6 -1 -1</clus>
<clus scale="   91.000">  7  8 -1 -1</clus>
<clus scale="  118.931">  1  5  2 -1</clus>
<clus scale="   34.700">  2  5  1 -1</clus>
</clustering>
</event>
<event>
 9    1  0.9000149E-006  0.1025324E+03  0.7546771E-02  0.1282273E+00
         -1   -1    0    0    0  501 -0.00000000000E+00  0.00000000000E+00  0.22259658756E+03  0.22259658756E+03  0.00000000000E+00 0.  1.
          1   -1    0    0  502    0  0.00000000000E+00 -0.00000000000E+00 -0.10275970358E+03  0.10275970358E+03  0.00000000000E+00 0. -1.
         23    2    1    2    0    0 -0.33239479735E+02 -0.46175939753E+02  0.15532544857E+03  0.18812873333E+03  0.89606611955E+02 0.  0.
         23    2    1    2    0    0  0.16341876177E+02  0.31089444817E+02  0.13584168100E+02  0.83178835065E+02  0.74165884905E+02 0.  0.
        -13    1    3    3    0    0  0.11889093772E+02 -0.57108970896E+02  0.10125813516E+03  0.11685886806E+03  0.00000000000E+00 0.  1.
         13    1    3    3    0    0 -0.45128573507E+02  0.10933031143E+02  0.54067313409E+02  0.71269865273E+02  0.00000000000E+00 0. -1.
        -13    1    4    4    0    0  0.21678801641E+02 -0.19920269656E+02  0.12208717159E+02  0.31872250602E+02  0.00000000000E+00 0.  1.
         13    1    4    4    0    0 -0.53369254638E+01  0.51009714473E+02  0.13754509412E+01  0.51306584463E+02  0.00000000000E+00 0. -1.
         21    1    1    2  502  501  0.16897603558E+02  0.15086494936E+02 -0.49072732691E+02  0.54048722734E+02  0.00000000000E+00 0. -1.
<scales pt_clust_5="13000.00000" pt_clust_6="13000.00000" pt_clust_7="13000.00000" pt_clust_8="13000.00000" pt_clust_9="22.65240"></scales>
<clustering>
<clus scale="   22.652">  2  9  1 -1</clus>
<clus scale="   74.166">  7  8 -1 -1</clus>
<clus scale="   89.354">  2  7  1 -1</clus>
<clus scale="   89.607">  5  6 -1 -1</clus>
<clus scale="   22.652">  2  5  1 -1</clus>
</clustering>
</event>
<event>
 9    1  0.9000149E-006  0.1121048E+03  0.7546771E-02  0.1256758E+00
         -2   -1    0    0    0  501 -0.00000000000E+00  0.00000000000E+00  0.20347800369E+03  0.20347800369E+03  0.00000000000E+00 0.  1.
          2   -1    0    0  502    0  0.00000000000E+00 -0.00000000000E+00 -0.24767399011E+03  0.24767399011E+03  0.00000000000E+00 0. -1.
         23    2    1    2    0    0  0.58332183709E+02  0.20205472270E+02  0.13307105617E+03  0.17199778246E+03  0.89802151492E+02 0.  0.
         23    2    1    2    0    0 -0.82478678579E+02 -0.82932763763E+02 -0.10877092857E+03  0.18318815511E+03  0.89700666351E+02 0.  0.
        -11    1    4    4    0    0 -0.67946890667E+02 -0.10107351392E+03 -0.10232002140E+03  0.15906609302E+03  0.00000000000E+00 0. -1.
         11    1    4    4    0    0 -0.14531787911E+02  0.18140750158E+02 -0.64509071668E+01  0.24122062090E+02  0.00000000000E+00 0.  1.
        -11    1    3    3    0    0  0.60258517222E+02  0.46480183169E+02  0.12117684794E+03  0.14309201516E+03  0.00000000000E+00 0.  1.
         11    1    3    3    0    0 -0.19263335126E+01 -0.26274710899E+02  0.11894208237E+02  0.28905767300E+02  0.00000000000E+00 0. -1.
         21    1    1    2  502  501  0.24146494869E+02  0.62727291493E+02 -0.68496114025E+02  0.95966056234E+02  0.00000000000E+00 0. -1.
<scales pt_clust_5="13000.00000" pt_clust_6="13000.00000" pt_clust_7="13000.00000" pt_clust_8="13000.00000" pt_clust_9="67.21433"></scales>
<clustering>
<clus scale="   67.214">  2  9  1 -1</clus>
<clus scale="   89.701">  5  6 -1 -1</clus>
<clus scale="   89.802">  7  8 -1 -1</clus>
<clus scale="  112.023">  2  5  1 -1</clus>
<clus scale="   67.214">  2  5  1 -1</clus>
</clustering>
</event>
<event>
 9    1  0.9000149E-006  0.1063513E+03  0.7546771E-02  0.1268075E+00
         -1   -1    0    0    0  501 -0.00000000000E+00  0.00000000000E+00  0.42020192200E+03  0.42020192200E+03  0.00000000000E+00 0.  1.
          1   -1    0    0  502    0  0.00000000000E+00 -0.00000000000E+00 -0.45038993493E+02  0.45038993493E+02  0.00000000000E+00 0. -1.
         23    2    1    2    0    0 -0.18378497616E+02  0.56897603174E+02  0.25549699919E+03  0.27823822549E+03  0.92534788630E+02 0.  0.
         23    2    1    2    0    0  0.27727420021E+01 -0.42033336053E+02  0.12904536201E+03  0.16349822653E+03  0.91128893249E+02 0.  0.
        -13    1    3    3    0    0 -0.33241866434E+02 -0.30328130318E+00  0.28862452735E+02  0.44024480025E+02  0.00000000000E+00 0. -1.
         13    1    3    3    0    0  0.14863368818E+02  0.57200884477E+02  0.22663454646E+03  0.23421374547E+03  0.00000000000E+00 0.  1.
        -13    1    4    4    0    0  0.34685838515E+02 -0.35448398974E+02  0.27194558366E+02  0.56561828012E+02  0.00000000000E+00 0. -1.
         13    1    4    4    0    0 -0.31913096513E+02 -0.65849370798E+01  0.10185080365E+03  0.10693639852E+03  0.00000000000E+00 0.  1.
         21    1    1    2  502  501  0.15605755614E+02 -0.14864267120E+02 -0.93794326947E+01  0.23504463470E+02  0.00000000000E+00 0. -1.
<scales pt_clust_5="13000.00000" pt_clust_6="13000.00000" pt_clust_7="13000.00000" pt_clust_8="13000.00000" pt_clust_9="21.55194"></scales>
<clustering>
<clus scale="   21.552">  2  9  1 -1</clus>
<clus scale="   91.129">  7  8 -1 -1</clus>
<clus scale="   92.535">  5  6 -1 -1</clus>
<clus scale="  105.130">  2  7  1 -1</clus>
<clus scale="   21.552">  2  5  1 -1</clus>
</clustering>
</event>
<event>
 9    1  0.9000149E-006  0.2871795E+03  0.7546771E-02  0.1091891E+00
          1   -1    0    0  502    0  0.00000000000E+00  0.00000000000E+00  0.32130919034E+03  0.32130919034E+03  0.00000000000E+00 0. -1.
         -1   -1    0    0    0  501 -0.00000000000E+00 -0.00000000000E+00 -0.36953238669E+03  0.36953238669E+03  0.00000000000E+00 0.  1.
         23    2    1    2    0    0 -0.24930275238E+03 -0.11152624267E+03 -0.13017400583E+03  0.31583077893E+03  0.90630259716E+02 0.  0.
         23    2    1    2    0    0  0.25709837864E+03  0.86132767290E+02 -0.26305313398E+01  0.28635639271E+03  0.92057775622E+02 0.  0.
        -13    1    4    4    0    0  0.44673175468E+02 -0.66034870352E+01 -0.28081717010E+02  0.53177828817E+02  0.00000000000E+00 0.  1.
         13    1    4    4    0    0  0.21242520317E+03  0.92736254325E+02  0.25451185670E+02  0.23317856390E+03  0.00000000000E+00 0. -1.
        -13    1    3    3    0    0 -0.58063306767E+02 -0.56271872866E+02 -0.72453033873E+02  0.10856939433E+03  0.00000000000E+00 0.  1.
         13    1    3    3    0    0 -0.19123944561E+03 -0.55254369806E+02 -0.57720971958E+02  0.20726138459E+03  0.00000000000E+00 0. -1.
         21    1    1    2  502  501 -0.77956262638E+01  0.25393475382E+02  0.84581340815E+02  0.88654405389E+02  0.00000000000E+00 0. -1.
<scales pt_clust_5="13000.00000" pt_clust_6="13000.00000" pt_clust_7="13000.00000" pt_clust_8="13000.00000" pt_clust_9="26.56314"></scales>
<clustering>
<clus scale="   26.563">  1  9  2 -1</clus>
<clus scale="   90.630">  7  8 -1 -1</clus>
<clus scale="   92.058">  5  6 -1 -1</clus>
<clus scale="  286.725">  2  7  1 -1</clus>
<clus scale="   26.563">  1  5  2 -1</clus>
</clustering>
</event>
<event>
 9    1  0.9000149E-006  0.1480897E+03  0.7546771E-02  0.1202965E+00
         -2   -1    0    0    0  501 -0.00000000000E+00  0.00000000000E+00  0.25931644312E+03  0.25931644312E+03  0.00000000000E+00 0.  1.
          2   -1    0    0  502    0  0.00000000000E+00 -0.00000000000E+00 -0.16442989139E+03  0.16442989139E+03  0.00000000000E+00 0. -1.
         23    2    1    2    0    0 -0.10881132438E+03 -0.11977908672E+02  0.15086997444E+03  0.20720068323E+03  0.90482038735E+02 0.  0.
         23    2    1    2    0    0  0.14399032631E+03  0.23788542429E+02 -0.47076077594E+02  0.17838292020E+03  0.91132871775E+02 0.  0.
        -11    1    3    3    0    0  0.10955401914E+02 -0.18269297884E+02  0.15495829161E+02  0.26342148691E+02  0.00000000000E+00 0. -1.
         11    1    3    3    0    0 -0.11976672629E+03  0.62913892120E+01  0.13537414528E+03  0.18085853454E+03  0.00000000000E+00 0.  1.
        -11    1    4    4    0    0  0.33229204411E+02  0.41764543583E+02  0.69895742366E+01  0.53826678093E+02  0.00000000000E+00 0.  1.
         11    1    4    4    0    0  0.11076112189E+03 -0.17976001154E+02 -0.54065651831E+02  0.12455624211E+03  0.00000000000E+00 0. -1.
         21    1    1    2  502  501 -0.35179001928E+02 -0.11810633757E+02 -0.89073451225E+01  0.38162731080E+02  0.00000000000E+00 0.  1.
<scales pt_clust_5="13000.00000" pt_clust_6="13000.00000" pt_clust_7="13000.00000" pt_clust_8="13000.00000" pt_clust_9="37.10867"></scales>
<clustering>
<clus scale="   37.109">  2  9  1 -1</clus>
<clus scale="   90.482">  5  6 -1 -1</clus>
<clus scale="   91.133">  7  8 -1 -1</clus>
<clus scale="  147.690">  1  5  2 -1</clus>
<clus scale="   37.109">  2  5  1 -1</clus>
</clustering>
</event>
<event>
 9    1  0.9000149E-006  0.9115313E+02  0.7546771E-02  0.1300421E+00
          1   -1    0    0  502    0  0.00000000000E+00  0.00000000000E+00  0.15008037085E+03  0.15008037085E+03  0.00000000000E+00 0. -1.
         -1   -1    0    0    0  501 -0.00000000000E+00 -0.00000000000E+00 -0.16979233228E+03  0.16979233228E+03  0.00000000000E+00 0.  1.
         23    2    1    2    0    0  0.62990844670E+01 -0.34240261431E+01 -0.11699541612E+03  0.14816208056E+03  0.90623795450E+02 0.  0.
         23    2    1    2    0    0  0.10199664946E+02  0.41481065740E+02  0.63158561212E+02  0.11799791132E+03  0.90054379361E+02 0.  0.
        -11    1    3    3    0    0  0.28147427622E+02 -0.52954608068E+01 -0.12229362688E+03  0.12560274982E+03  0.00000000000E+00 0.  1.
         11    1    3    3    0    0 -0.21848343155E+02  0.18714346636E+01  0.52982107546E+01  0.22559330742E+02  0.00000000000E+00 0. -1.
        -13    1    4    4    0    0 -0.24623390738E+02 -0.16940821889E+02  0.94847094401E+01  0.31357017252E+02  0.00000000000E+00 0.  1.
         13    1    4    4    0    0  0.34823055685E+02  0.58421887629E+02  0.53673851772E+02  0.86640894071E+02  0.00000000000E+00 0. -1.
         21    1    1    2  502  501 -0.16498749413E+02 -0.38057039597E+02  0.34124893480E+02  0.53712711253E+02  0.00000000000E+00 0.  1.
<scales pt_clust_5="13000.00000" pt_clust_6="13000.00000" pt_clust_7="13000.00000" pt_clust_8="13000.00000" pt_clust_9="41.47948"></scales>
<clustering>
<clus scale="   41.479">  1  9  2 -1</clus>
<clus scale="   90.054">  7  8 -1 -1</clus>
<clus scale="   90.587">  1  7  2 -1</clus>
<clus scale="   90.624">  5  6 -1 -1</clus>
<clus scale="   41.479">  1  5  2 -1</clus>
</clustering>
</event>
<event>
 9    1  0.9000149E-006  0.1123835E+03  0.7546771E-02  0.1256534E+00
          1   -1    0    0  502    0  0.00000000000E+00  0.00000000000E+00  0.36696004348E+03  0.36696004348E+03  0.00000000000E+00 0. -1.
         -1   -1    0    0    0  501 -0.00000000000E+00 -0.00000000000E+00 -0.47348613085E+02  0.47348613085E+02  0.00000000000E+00 0.  1.
         23    2    1    2    0    0 -0.40197299442E+02  0.34831059466E+02  0.10048208488E+03  0.14683569078E+03  0.92924943474E+02 0.  0.
         23    2    1    2    0    0  0.45449167288E+02 -0.58202675049E+02  0.13592243606E+03  0.18088656782E+03  0.93764938030E+02 0.  0.
        -11    1    4    4    0    0 -0.26868932263E+02 -0.19627430186E+02  0.62689499310E+02  0.70972874117E+02  0.00000000000E+00 0. -1.
         11    1    4    4    0    0  0.72318099551E+02 -0.38575244862E+02  0.73232936751E+02  0.10991369371E+03  0.00000000000E+00 0.  1.
        -13    1    3    3    0    0 -0.67838417620E+02  0.33900835470E+02  0.55290298559E+02  0.93852728599E+02  0.00000000000E+00 0. -1.
         13    1    3    3    0    0  0.27641118178E+02  0.93022399581E+00  0.45191786317E+02  0.52982962180E+02  0.00000000000E+00 0.  1.
         21    1    1    2  502  501 -0.52518678462E+01  0.23371615583E+02  0.83206909463E+02  0.86586397968E+02  0.00000000000E+00 0. -1.
<scales pt_clust_5="13000.00000" pt_clust_6="13000.00000" pt_clust_7="13000.00000" pt_clust_8="13000.00000" pt_clust_9="23.95443"></scales>
<clustering>
<clus scale="   23.954">  1  9  2 -1</clus>
<clus scale="   92.925">  7  8 -1 -1</clus>
<clus scale="   93.765">  5  6 -1 -1</clus>
<clus scale="  111.684">  2  7  1 -1</clus>
<clus scale="   23.954">  1  5  2 -1</clus>
</clustering>
</event>
<event>
 9    1  0.9000149E-006  0.9483780E+02  0.7546771E-02  0.1292977E+00
         -2   -1    0    0    0  501 -0.00000000000E+00  0.00000000000E+00  0.42024098266E+02  0.42024098266E+02  0.00000000000E+00 0.  1.
          2   -1    0    0  502    0  0.00000000000E+00 -0.00000000000E+00 -0.39109311038E+03  0.39109311038E+03  0.00000000000E+00 0. -1.
         23    2    1    2    0    0 -0.38103968802E+02 -0.24594087944E+02 -0.89230792925E+02  0.13380870526E+03  0.88802328784E+02 0.  0.
         23    2    1    2    0    0  0.49323471882E+01 -0.32329833225E+01 -0.10898397359E+03  0.14236359015E+03  0.91406263846E+02 0.  0.
        -11    1    4    4    0    0  0.15906041181E+02  0.22318171613E+02  0.24469529313E+01  0.27515277736E+02  0.00000000000E+00 0.  1.
         11    1    4    4    0    0 -0.10973693993E+02 -0.25551154936E+02 -0.11143092652E+03  0.11484831241E+03  0.00000000000E+00 0. -1.
        -13    1    3    3    0    0 -0.21651508757E+02  0.32860399414E+02 -0.42691804449E+02  0.58061896698E+02  0.00000000000E+00 0.  1.
         13    1    3    3    0    0 -0.16452460045E+02 -0.57454487358E+02 -0.46538988476E+02  0.75746808563E+02  0.00000000000E+00 0. -1.
         21    1    1    2  502  501  0.33171621613E+02  0.27827071267E+02 -0.15085424560E+03  0.15694491324E+03  0.00000000000E+00 0. -1.
<scales pt_clust_5="13000.00000" pt_clust_6="13000.00000" pt_clust_7="13000.00000" pt_clust_8="13000.00000" pt_clust_9="43.29783"></scales>
<clustering>
<clus scale="   43.298">  2  9  1 -1</clus>
<clus scale="   88.802">  7  8 -1 -1</clus>
<clus scale="   91.406">  5  6 -1 -1</clus>
<clus scale="   92.331">  1  7  2 -1</clus>
<clus scale="   43.298">  2  5  1 -1</clus>
</clustering>
</event>
<event>
 9    1  0.9000149E-006  0.1029323E+03  0.7546771E-02  0.1275291E+00
          1   -1    0    0  502    0  0.00000000000E+00  0.00000000000E+00  0.30937163633E+03  0.30937163633E+03  0.00000000000E+00 0. -1.
         -1   -1    0    0    0  501 -0.00000000000E+00 -0.00000000000E+00 -0.46607870044E+02  0.46607870044E+02  0.00000000000E+00 0.  1.
         23    2    1    2    0    0 -0.33796809631E+02  0.29795522761E+02  0.71782534692E+02  0.12404323670E+03  0.90575906103E+02 0.  0.
         23    2    1    2    0    0  0.16831328264E+02 -0.43528053908E+02  0.12563000691E+03  0.16303639640E+03  0.92843862619E+02 0.  0.
        -11    1    4    4    0    0 -0.21615915720E+02 -0.58565456397E+02  0.70588829684E+02  0.94233451447E+02  0.00000000000E+00 0.  1.
         11    1    4    4    0    0  0.38447243984E+02  0.15037402489E+02  0.55041177226E+02  0.68802944952E+02  0.00000000000E+00 0. -1.
        -11    1    3    3    0    0  0.45360530544E+01 -0.24011148876E+02 -0.25814019158E+01  0.24571827028E+02  0.00000000000E+00 0.  1.
         11    1    3    3    0    0 -0.38332862686E+02  0.53806671637E+02  0.74363936608E+02  0.99471409672E+02  0.00000000000E+00 0. -1.
         21    1    1    2  502  501  0.16965481368E+02  0.13732531147E+02  0.65351224679E+02  0.68899873271E+02  0.00000000000E+00 0. -1.
<scales pt_clust_5="13000.00000" pt_clust_6="13000.00000" pt_clust_7="13000.00000" pt_clust_8="13000.00000" pt_clust_9="21.82682"></scales>
<clustering>
<clus scale="   21.827">  1  9  2 -1</clus>
<clus scale="   90.576">  7  8 -1 -1</clus>
<clus scale="   92.844">  5  6 -1 -1</clus>
<clus scale="  100.891">  2  7  1 -1</clus>
<clus scale="   21.827">  1  5  2 -1</clus>
</clustering>
</event>
<event>
 9    1  0.9000149E-006  0.1169253E+03  0.7546771E-02  0.1257089E+00
         -1   -1    0    0    0  501 -0.00000000000E+00  0.00000000000E+00  0.10216296321E+03  0.10216296321E+03  0.00000000000E+00 0.  1.
          1   -1    0    0  502    0  0.00000000000E+00 -0.00000000000E+00 -0.20085948667E+03  0.20085948667E+03  0.00000000000E+00 0. -1.
         23    2    1    2    0    0  0.45853073929E+01  0.30160557525E+02  0.21986741421E+02  0.97648447587E+02  0.90117247205E+02 0.  0.
         23    2    1    2    0    0  0.18676110697E+01 -0.62759463471E+02 -0.70549394310E+02  0.14522640215E+03  0.11032340013E+03 0.  0.
        -13    1    4    4    0    0 -0.25208085263E+02 -0.48853765175E+02  0.12841767006E+02  0.56453953929E+02  0.00000000000E+00 0.  1.
         13    1    4    4    0    0  0.27075696333E+02 -0.13905698296E+02 -0.83391161315E+02  0.88772448218E+02  0.00000000000E+00 0. -1.
        -13    1    3    3    0    0 -0.32866200890E+02  0.42181909296E+02  0.23214088750E+02  0.58295750697E+02  0.00000000000E+00 0.  1.
         13    1    3    3    0    0  0.37451508283E+02 -0.12021351772E+02 -0.12273473286E+01  0.39352696890E+02  0.00000000000E+00 0. -1.
         21    1    1    2  502  501 -0.64529184626E+01  0.32598905947E+02 -0.50133870564E+02  0.60147600146E+02  0.00000000000E+00 0.  1.
<scales pt_clust_5="13000.00000" pt_clust_6="13000.00000" pt_clust_7="13000.00000" pt_clust_8="13000.00000" pt_clust_9="33.23144"></scales>
<clustering>
<clus scale="   33.231">  2  9  1 -1</clus>
<clus scale="   90.117">  7  8 -1 -1</clus>
<clus scale="   98.089">  1  7  2 -1</clus>
<clus scale="  110.323">  5  6 -1 -1</clus>
<clus scale="   33.231">  2  5  1 -1</clus>
</clustering>
</event>
<event>
 9    1  0.9000149E-006  0.1125019E+03  0.7546771E-02  0.1256453E+00
          2   -1    0    0  502    0  0.00000000000E+00  0.00000000000E+00  0.35531787746E+02  0.35531787746E+02  0.00000000000E+00 0. -1.
         -2   -1    0    0    0  501 -0.00000000000E+00 -0.00000000000E+00 -0.74045438582E+03  0.74045438582E+03  0.00000000000E+00 0.  1.
         23    2    1    2    0    0  0.10160104342E+02 -0.10198005545E+03 -0.37594595481E+03  0.40024635471E+03  0.91425511180E+02 0.  0.
         23    2    1    2    0    0 -0.32730881654E+02  0.40396038270E+02 -0.14022911705E+03  0.17592075116E+03  0.92632364207E+02 0.  0.
        -11    1    4    4    0    0 -0.12678944780E+02  0.23770672157E+02 -0.14664121547E+03  0.14909542773E+03  0.00000000000E+00 0.  1.
         11    1    4    4    0    0 -0.20051936874E+02  0.16625366113E+02  0.64120984237E+01  0.26825323428E+02  0.00000000000E+00 0. -1.
        -13    1    3    3    0    0  0.49139191238E+02 -0.44497805095E+02 -0.21408859962E+03  0.22411747648E+03  0.00000000000E+00 0.  1.
         13    1    3    3    0    0 -0.38979086896E+02 -0.57482250357E+02 -0.16185735518E+03  0.17612887824E+03  0.00000000000E+00 0. -1.
         21    1    1    2  502  501  0.22570777312E+02  0.61584017182E+02 -0.18874752622E+03  0.19981906770E+03  0.00000000000E+00 0. -1.
<scales pt_clust_5="13000.00000" pt_clust_6="13000.00000" pt_clust_7="13000.00000" pt_clust_8="13000.00000" pt_clust_9="65.58987"></scales>
<clustering>
<clus scale="   65.590">  2  9  1 -1</clus>
<clus scale="   91.426">  7  8 -1 -1</clus>
<clus scale="   92.632">  5  6 -1 -1</clus>
<clus scale="  111.510">  2  7  1 -1</clus>
<clus scale="  112.502">  1  5  2 -1</clus>
</clustering>
</event>
<event>
 9    1  0.9000149E-006  0.1299714E+03  0.7546771E-02  0.1228550E+00
          1   -1    0    0  502    0  0.00000000000E+00  0.00000000000E+00  0.12973991809E+03  0.12973991809E+03  0.00000000000E+00 0. -1.
         -1   -1    0    0    0  501 -0.00000000000E+00 -0.00000000000E+00 -0.27513500855E+03  0.27513500855E+03  0.00000000000E+00 0.  1.
         23    2    1    2    0    0 -0.51226887534E+01 -0.98062720860E+02 -0.19806655767E+03  0.23919994241E+03  0.91343921620E+02 0.  0.
         23    2    1    2    0    0  0.20593544103E+01  0.57294940744E+02  0.19080397209E+02  0.11276226463E+03  0.95206699293E+02 0.  0.
        -13    1    3    3    0    0  0.22979306115E+02 -0.21064792483E+02 -0.79562854039E+01  0.32172604329E+02  0.00000000000E+00 0. -1.
         13    1    3    3    0    0 -0.28101994868E+02 -0.76997928378E+02 -0.19011027227E+03  0.20702733808E+03  0.00000000000E+00 0.  1.
        -13    1    4    4    0    0  0.47236427604E+02  0.26377756571E+02 -0.19011827061E+01  0.54135761103E+02  0.00000000000E+00 0. -1.
         13    1    4    4    0    0 -0.45177073193E+02  0.30917184174E+02  0.20981579916E+02  0.58626503523E+02  0.00000000000E+00 0.  1.
         21    1    1    2  502  501  0.30633343431E+01  0.40767780116E+02  0.33591070004E+02  0.52912719613E+02  0.00000000000E+00 0. -1.
<scales pt_clust_5="13000.00000" pt_clust_6="13000.00000" pt_clust_7="13000.00000" pt_clust_8="13000.00000" pt_clust_9="40.88271"></scales>
<clustering>
<clus scale="   40.883">  1  9  2 -1</clus>
<clus scale="   91.344">  5  6 -1 -1</clus>
<clus scale="   95.207">  7  8 -1 -1</clus>
<clus scale="  127.169">  2  5  1 -1</clus>
<clus scale="   40.883">  1  5  2 -1</clus>
</clustering>
</event>
<event>
 9    1  0.9000149E-006  0.9267708E+02  0.7546771E-02  0.1307368E+00
         -1   -1    0    0    0  501 -0.00000000000E+00  0.00000000000E+00  0.63389741660E+02  0.63389741660E+02  0.00000000000E+00 0.  1.
          1   -1    0    0  502    0  0.00000000000E+00 -0.00000000000E+00 -0.15167840154E+03  0.15167840154E+03  0.00000000000E+00 0. -1.
         23    2    1    2    0    0  0.15544318476E+02 -0.10849318392E+02 -0.20410774984E+02  0.80181604065E+02  0.75187474678E+02 0.  0.
         23    2    1    2    0    0  0.44221266116E+00 -0.71241761856E+01 -0.56389360795E+02  0.10822942243E+03  0.92102651588E+02 0.  0.
        -13    1    4    4    0    0 -0.41565279931E+02  0.31297479041E+01 -0.64632766245E+01  0.42181059285E+02  0.00000000000E+00 0.  1.
         13    1    4    4    0    0  0.42007492592E+02 -0.10253924090E+02 -0.49926084170E+02  0.66048363141E+02  0.00000000000E+00 0. -1.
        -13    1    3    3    0    0  0.38953628692E+02  0.11804283760E+02 -0.24251852259E+02  0.47380150288E+02  0.00000000000E+00 0. -1.
         13    1    3    3    0    0 -0.23409310215E+02 -0.22653602152E+02  0.38410772747E+01  0.32801453777E+02  0.00000000000E+00 0.  1.
         21    1    1    2  502  501 -0.15986531137E+02  0.17973494578E+02 -0.11488524097E+02  0.26657116706E+02  0.00000000000E+00 0.  1.
<scales pt_clust_5="13000.00000" pt_clust_6="13000.00000" pt_clust_7="13000.00000" pt_clust_8="13000.00000" pt_clust_9="24.05443"></scales>
<clustering>
<clus scale="   24.054">  2  9  1 -1</clus>
<clus scale="   75.187">  7  8 -1 -1</clus>
<clus scale="   75.890">  1  7  2 -1</clus>
<clus scale="   92.103">  5  6 -1 -1</clus>
<clus scale="   24.054">  2  5  1 -1</clus>
</clustering>
</event>
<event>
 9    1  0.9000149E-006  0.1226279E+03  0.7546771E-02  0.1239233E+00
          1   -1    0    0  502    0  0.00000000000E+00  0.00000000000E+00  0.53813754864E+03  0.53813754864E+03  0.00000000000E+00 0. -1.
         -1   -1    0    0    0  501 -0.00000000000E+00 -0.00000000000E+00 -0.45959711236E+02  0.45959711236E+02  0.00000000000E+00 0.  1.
         23    2    1    2    0    0 -0.82226494277E+02  0.32762495898E+02  0.11093043580E+03  0.16799917222E+03  0.89908746972E+02 0.  0.
         23    2    1    2    0    0  0.44817044550E+02 -0.61594990103E+02  0.28791864752E+03  0.31149868043E+03  0.91278529987E+02 0.  0.
        -11    1    3    3    0    0 -0.18783222537E+02  0.27338424908E+02 -0.70705642213E+01  0.33914477790E+02  0.00000000000E+00 0.  1.
         11    1    3    3    0    0 -0.63443271740E+02  0.54240709901E+01  0.11800100002E+03  0.13408469443E+03  0.00000000000E+00 0. -1.
        -11    1    4    4    0    0  0.25969159860E+02  0.13212244315E+02  0.28138891469E+02  0.40506269598E+02  0.00000000000E+00 0.  1.
         11    1    4    4    0    0  0.18847884690E+02 -0.74807234418E+02  0.25977975605E+03  0.27099241084E+03  0.00000000000E+00 0. -1.
         21    1    1    2  502  501  0.37409449728E+02  0.28832494205E+02  0.93328754094E+02  0.10459940722E+03  0.00000000000E+00 0. -1.
<scales pt_clust_5="13000.00000" pt_clust_6="13000.00000" pt_clust_7="13000.00000" pt_clust_8="13000.00000" pt_clust_9="47.23113"></scales>
<clustering>
<clus scale="   47.231">  1  9  2 -1</clus>
<clus scale="   89.909">  5  6 -1 -1</clus>
<clus scale="   91.279">  7  8 -1 -1</clus>
<clus scale="  121.612">  2  5  1 -1</clus>
<clus scale="   47.231">  1  5  2 -1</clus>
</clustering>
</event>
<event>
 9    1  0.9000149E-006  0.9350316E+02  0.7546771E-02  0.1298872E+00
         -1   -1    0    0    0  501 -0.00000000000E+00  0.00000000000E+00  0.22497216194E+03  0.22497216194E+03  0.00000000000E+00 0.  1.
          1   -1    0    0  502    0  0.00000000000E+00 -0.00000000000E+00 -0.53146917889E+02  0.53146917889E+02  0.00000000000E+00 0. -1.
         23    2    1    2    0    0  0.15254527504E+02  0.32456201203E+02  0.12127044238E+03  0.15527277399E+03  0.90094442350E+02 0.  0.
         23    2    1    2    0    0 -0.73714722808E+01 -0.71154970987E+01  0.48132231308E+02  0.96197427975E+02  0.82657513607E+02 0.  0.
        -13    1    3    3    0    0 -0.25708811068E+02 -0.11161986766E+02  0.73638134651E+02  0.78791546438E+02  0.00000000000E+00 0.  1.
         13    1    3    3    0    0  0.40963338572E+02  0.43618187969E+02  0.47632307728E+02  0.76481227554E+02  0.00000000000E+00 0. -1.
        -13    1    4    4    0    0 -0.38579140966E+01  0.35656513986E+02  0.65833009398E+01  0.36463822374E+02  0.00000000000E+00 0.  1.
         13    1    4    4    0    0 -0.35135581842E+01 -0.42772011085E+02  0.41548930368E+02  0.59733605601E+02  0.00000000000E+00 0. -1.
         21    1    1    2  502  501 -0.78830552228E+01 -0.25340704104E+02  0.24225703636E+01  0.26648877862E+02  0.00000000000E+00 0.  1.
<scales pt_clust_5="13000.00000" pt_clust_6="13000.00000" pt_clust_7="13000.00000" pt_clust_8="13000.00000" pt_clust_9="26.53854"></scales>
<clustering>
<clus scale="   26.539">  2  9  1 -1</clus>
<clus scale="   82.658">  7  8 -1 -1</clus>
<clus scale="   86.360">  2  7  1 -1</clus>
<clus scale="   90.094">  5  6 -1 -1</clus>
<clus scale="   26.539">  2  5  1 -1</clus>
</clustering>
</event>
<event>
 9    1  0.9000149E-006  0.9152296E+02  0.7546771E-02  0.1300607E+00
         -1   -1    0    0    0  501 -0.00000000000E+00  0.00000000000E+00  0.66641068149E+03  0.66641068149E+03  0.00000000000E+00 0.  1.
          1   -1    0    0  502    0  0.00000000000E+00 -0.00000000000E+00 -0.67138933575E+02  0.67138933575E+02  0.00000000000E+00 0. -1.
         23    2    1    2    0    0 -0.12837733326E+02 -0.14859808214E+02  0.36416594377E+03  0.37530204369E+03  0.88595530932E+02 0.  0.
         23    2    1    2    0    0 -0.54988645598E+01  0.17974337559E+01  0.28729911568E+03  0.30140570110E+03  0.90945843822E+02 0.  0.
        -11    1    3    3    0    0  0.36625180742E+02 -0.13251315849E+02  0.20323910866E+03  0.20693751841E+03  0.00000000000E+00 0. -1.
         11    1    3    3    0    0 -0.49462914068E+02 -0.16084923651E+01  0.16092683511E+03  0.16836452529E+03  0.00000000000E+00 0.  1.
        -13    1    4    4    0    0 -0.18441755455E+02 -0.41763990690E+02  0.14795373896E+03  0.15483745714E+03  0.00000000000E+00 0.  1.
         13    1    4    4    0    0  0.12942890895E+02  0.43561424446E+02  0.13934537672E+03  0.14656824396E+03  0.00000000000E+00 0. -1.
         21    1    1    2  502  501  0.18336597886E+02  0.13062374458E+02 -0.52193311526E+02  0.56841870277E+02  0.00000000000E+00 0. -1.
<scales pt_clust_5="13000.00000" pt_clust_6="13000.00000" pt_clust_7="13000.00000" pt_clust_8="13000.00000" pt_clust_9="22.51347"></scales>
<clustering>
<clus scale="   22.513">  2  9  1 -1</clus>
<clus scale="   88.596">  5  6 -1 -1</clus>
<clus scale="   89.188">  1  5  2 -1</clus>
<clus scale="   90.946">  7  8 -1 -1</clus>
<clus scale="   22.513">  2  5  1 -1</clus>
</clustering>
</event>
<event>
 9    1  0.9000149E-006  0.2261900E+03  0.7546771E-02  0.1129479E+00
         -1   -1    0    0    0  501 -0.00000000000E+00  0.00000000000E+00  0.84164134097E+02  0.84164134097E+02  0.00000000000E+00 0.  1.
          1   -1    0    0  502    0  0.00000000000E+00 -0.00000000000E+00 -0.92232437808E+03  0.92232437808E+03  0.00000000000E+00 0. -1.
         23    2    1    2    0    0 -0.22245498840E+03  0.65517882256E+01 -0.20303711592E+03  0.31538618216E+03  0.93355373005E+02 0.  0.
         23    2    1    2    0    0  0.19823856273E+03  0.33451367597E+02 -0.56653949814E+03  0.60809388441E+03  0.91616851916E+02 0.  0.
        -13    1    3    3    0    0 -0.14852277735E+03 -0.31199402883E+02 -0.94644471914E+02  0.17885746894E+03  0.00000000000E+00 0.  1.
         13    1    3    3    0    0 -0.73932211042E+02  0.37751191108E+02 -0.10839264400E+03  0.13652871322E+03  0.00000000000E+00 0. -1.
        -13    1    4    4    0    0  0.12091198184E+03  0.65165220294E+02 -0.35303498454E+03  0.37881382445E+03  0.00000000000E+00 0. -1.
         13    1    4    4    0    0  0.77326580893E+02 -0.31713852698E+02 -0.21350451361E+03  0.22928005996E+03  0.00000000000E+00 0.  1.
         21    1    1    2  502  501  0.24216425666E+02 -0.40003155822E+02 -0.68583629919E+02  0.83008445598E+02  0.00000000000E+00 0.  1.
<scales pt_clust_5="13000.00000" pt_clust_6="13000.00000" pt_clust_7="13000.00000" pt_clust_8="13000.00000" pt_clust_9="46.76203"></scales>
<clustering>
<clus scale="   46.762">  1  9  2 -1</clus>
<clus scale="   91.617">  7  8 -1 -1</clus>
<clus scale="   93.355">  5  6 -1 -1</clus>
<clus scale="  225.478">  2  7  1 -1</clus>
<clus scale="  225.478">  2  5  1 -1</clus>
</clustering>
</event>
<event>
 9    1  0.9000149E-006  0.9281497E+02  0.7546771E-02  0.1301841E+00
         -1   -1    0    0    0  501 -0.00000000000E+00  0.00000000000E+00  0.91022621051E+02  0.91022621051E+02  0.00000000000E+00 0.  1.
          1   -1    0    0  502    0  0.00000000000E+00 -0.00000000000E+00 -0.28436311571E+03  0.28436311571E+03  0.00000000000E+00 0. -1.
         23    2    1    2    0    0 -0.49134913100E+01  0.13620203091E+02  0.45977770612E+02  0.94668376443E+02  0.81476952439E+02 0.  0.
         23    2    1    2    0    0  0.18784926569E+02 -0.36718247953E+02 -0.10968604685E+03  0.14831476047E+03  0.90912793941E+02 0.  0.
        -13    1    4    4    0    0 -0.22730804817E+01 -0.21222841115E+02  0.11565681191E+02  0.24276343656E+02  0.00000000000E+00 0.  1.
         13    1    4    4    0    0  0.21058007051E+02 -0.15495406838E+02 -0.12125172804E+03  0.12403841682E+03  0.00000000000E+00 0. -1.
        -13    1    3    3    0    0  0.18705193732E+02  0.40582127712E+02  0.36216892758E+02  0.57519185350E+02  0.00000000000E+00 0.  1.
         13    1    3    3    0    0 -0.23618685042E+02 -0.26961924621E+02  0.97608778541E+01  0.37149191093E+02  0.00000000000E+00 0. -1.
         21    1    1    2  502  501 -0.13871435259E+02  0.23098044862E+02 -0.12963221842E+03  0.13240259985E+03  0.00000000000E+00 0. -1.
<scales pt_clust_5="13000.00000" pt_clust_6="13000.00000" pt_clust_7="13000.00000" pt_clust_8="13000.00000" pt_clust_9="26.94321"></scales>
<clustering>
<clus scale="   26.943">  2  9  1 -1</clus>
<clus scale="   81.477">  7  8 -1 -1</clus>
<clus scale="   83.594">  1  7  2 -1</clus>
<clus scale="   90.913">  5  6 -1 -1</clus>
<clus scale="   26.943">  2  5  1 -1</clus>
</clustering>
</event>
<event>
 9    1  0.9000149E-006  0.1144034E+03  0.7546771E-02  0.1252772E+00
          1   -1    0    0  502    0  0.00000000000E+00  0.00000000000E+00  0.16334575088E+03  0.16334575088E+03  0.00000000000E+00 0. -1.
         -1   -1    0    0    0  501 -0.00000000000E+00 -0.00000000000E+00 -0.13223721044E+03  0.13223721044E+03  0.00000000000E+00 0.  1.
         23    2    1    2    0    0  0.18004867929E+02 -0.72241526978E+02 -0.45913953119E+02  0.12456180554E+03  0.88682235076E+02 0.  0.
         23    2    1    2    0    0 -0.48480752952E+02  0.52259207070E+02  0.70107947012E+02  0.13392825038E+03  0.89108046131E+02 0.  0.
        -11    1    3    3    0    0  0.42455799021E+02 -0.72474159668E+02 -0.52734623801E+02  0.99176303811E+02  0.00000000000E+00 0.  1.
         11    1    3    3    0    0 -0.24450931093E+02  0.23263269028E+00  0.68206706822E+01  0.25385501725E+02  0.00000000000E+00 0. -1.
        -11    1    4    4    0    0 -0.43079059489E+02  0.76427636641E+02  0.44760001056E+02  0.98490845785E+02  0.00000000000E+00 0. -1.
         11    1    4    4    0    0 -0.54016934632E+01 -0.24168429572E+02  0.25347945956E+02  0.35437404595E+02  0.00000000000E+00 0.  1.
         21    1    1    2  502  501  0.30475885023E+02  0.19982319908E+02  0.69145465466E+01  0.37092905397E+02  0.00000000000E+00 0. -1.
<scales pt_clust_5="13000.00000" pt_clust_6="13000.00000" pt_clust_7="13000.00000" pt_clust_8="13000.00000" pt_clust_9="36.44273"></scales>
<clustering>
<clus scale="   36.443">  1  9  2 -1</clus>
<clus scale="   88.682">  5  6 -1 -1</clus>
<clus scale="   89.108">  7  8 -1 -1</clus>
<clus scale="  114.072">  2  5  1 -1</clus>
<clus scale="   36.443">  1  5  2 -1</clus>
</clustering>
</event>
<event>
 9    1  0.9000149E-006  0.9136159E+02  0.7546771E-02  0.1301568E+00
          1   -1    0    0  502    0  0.00000000000E+00  0.00000000000E+00  0.21263817071E+02  0.21263817071E+02  0.00000000000E+00 0. -1.
         -1   -1    0    0    0  501 -0.00000000000E+00 -0.00000000000E+00 -0.50056095331E+03  0.50056095331E+03  0.00000000000E+00 0.  1.
         23    2    1    2    0    0 -0.66084964988E+00  0.40574184224E+01 -0.22470163110E+03  0.24120701890E+03  0.87596253232E+02 0.  0.
         23    2    1    2    0    0 -0.11492874861E+02  0.16877696646E+02 -0.18927766951E+03  0.21095849715E+03  0.90887339764E+02 0.  0.
        -11    1    3    3    0    0  0.19120113922E+01  0.44418562347E+02 -0.14748054432E+03  0.15403627956E+03  0.00000000000E+00 0. -1.
         11    1    3    3    0    0 -0.25728610421E+01 -0.40361143925E+02 -0.77221086781E+02  0.87170739337E+02  0.00000000000E+00 0.  1.
        -13    1    4    4    0    0 -0.46134642794E+02  0.23461861951E+02 -0.73248576540E+02  0.89689565709E+02  0.00000000000E+00 0. -1.
         13    1    4    4    0    0  0.34641767933E+02 -0.65841653054E+01 -0.11602909297E+03  0.12126893144E+03  0.00000000000E+00 0.  1.
         21    1    1    2  502  501  0.12153724511E+02 -0.20935115069E+02 -0.65317835627E+02  0.69659254327E+02  0.00000000000E+00 0.  1.
<scales pt_clust_5="13000.00000" pt_clust_6="13000.00000" pt_clust_7="13000.00000" pt_clust_8="13000.00000" pt_clust_9="24.20727"></scales>
<clustering>
<clus scale="   24.207">  2  9  1 -1</clus>
<clus scale="   87.596">  5  6 -1 -1</clus>
<clus scale="   88.088">  2  5  1 -1</clus>
<clus scale="   90.887">  7  8 -1 -1</clus>
<clus scale="   91.362">  1  5  2 -1</clus>
</clustering>
</event>
<event>
 9    1  0.9000149E-006  0.1219611E+03  0.7546771E-02  0.1240701E+00
          1   -1    0    0  502    0  0.00000000000E+00  0.00000000000E+00  0.27777960433E+03  0.27777960433E+03  0.00000000000E+00 0. -1.
         -1   -1    0    0    0  501 -0.00000000000E+00 -0.00000000000E+00 -0.11677584393E+03  0.11677584393E+03  0.00000000000E+00 0.  1.
         23    2    1    2    0    0 -0.40237224049E+02 -0.90284818246E+02 -0.59067426811E+01  0.13477733779E+03  0.91431168473E+02 0.  0.
         23    2    1    2    0    0  0.32765663192E+02  0.52932870391E+02  0.22908064180E+02  0.11082276602E+03  0.88777410475E+02 0.  0.
        -11    1    3    3    0    0  0.38198519414E+01 -0.87578354219E+02  0.91546413245E+01  0.88138339298E+02  0.00000000000E+00 0.  1.
         11    1    3    3    0    0 -0.44057075990E+02 -0.27064640275E+01 -0.15061384006E+02  0.46638998494E+02  0.00000000000E+00 0. -1.
        -13    1    4    4    0    0 -0.19503058003E+02  0.52205443627E+02  0.69132215646E+01  0.56156658093E+02  0.00000000000E+00 0.  1.
         13    1    4    4    0    0  0.52268721195E+02  0.72742676413E+00  0.15994842615E+02  0.54666107922E+02  0.00000000000E+00 0. -1.
         21    1    1    2  502  501  0.74715608568E+01  0.37351947855E+02  0.14400243890E+03  0.14895534445E+03  0.00000000000E+00 0. -1.
<scales pt_clust_5="13000.00000" pt_clust_6="13000.00000" pt_clust_7="13000.00000" pt_clust_8="13000.00000" pt_clust_9="38.09189"></scales>
<clustering>
<clus scale="   38.092">  1  9  2 -1</clus>
<clus scale="   88.777">  7  8 -1 -1</clus>
<clus scale="   91.431">  5  6 -1 -1</clus>
<clus scale="  119.985">  1  7  2 -1</clus>
<clus scale="   38.092">  1  5  2 -1</clus>
</clustering>
</event>
<event>
 9    1  0.9000149E-006  0.1137531E+03  0.7546771E-02  0.1254634E+00
         -1   -1    0    0    0  501 -0.00000000000E+00  0.00000000000E+00  0.27833225882E+03  0.27833225882E+03  0.00000000000E+00 0.  1.
          1   -1    0    0  502    0  0.00000000000E+00 -0.00000000000E+00 -0.13680110178E+03  0.13680110178E+03  0.00000000000E+00 0. -1.
         23    2    1    2    0    0 -0.59266491051E+02 -0.58066445423E+02  0.18571465956E+03  0.22266117514E+03  0.90575024669E+02 0.  0.
         23    2    1    2    0    0  0.38581477799E+02 -0.15124088536E+02  0.50207186372E+01  0.10188642821E+03  0.92942821967E+02 0.  0.
        -13    1    3    3    0    0 -0.72227961535E+02 -0.33188312758E+02  0.78045554918E+02  0.11139771620E+03  0.00000000000E+00 0.  1.
         13    1    3    3    0    0  0.12961470483E+02 -0.24878132665E+02  0.10766910464E+03  0.11126345894E+03  0.00000000000E+00 0. -1.
        -13    1    4    4    0    0  0.69539767215E+02 -0.89356790692E+01  0.15867872297E+01  0.70129476530E+02  0.00000000000E+00 0. -1.
         13    1    4    4    0    0 -0.30958289416E+02 -0.61884094670E+01  0.34339314075E+01  0.31756951683E+02  0.00000000000E+00 0.  1.
         21    1    1    2  502  501  0.20685013252E+02  0.73190533960E+02 -0.49204221157E+02  0.90585757237E+02  0.00000000000E+00 0. -1.
<scales pt_clust_5="13000.00000" pt_clust_6="13000.00000" pt_clust_7="13000.00000" pt_clust_8="13000.00000" pt_clust_9="76.05737"></scales>
<clustering>
<clus scale="   76.057">  2  9  1 -1</clus>
<clus scale="   90.575">  5  6 -1 -1</clus>
<clus scale="   92.943">  7  8 -1 -1</clus>
<clus scale="  111.827">  1  5  2 -1</clus>
<clus scale="   76.057">  2  5  1 -1</clus>
</clustering>
</event>
<event>
 9    1  0.9000149E-006  0.1863930E+03  0.7546771E-02  0.1161825E+00
          1   -1    0    0  502    0  0.00000000000E+00  0.00000000000E+00  0.29859348409E+03  0.29859348409E+03  0.00000000000E+00 0. -1.
         -1   -1    0    0    0  501 -0.00000000000E+00 -0.00000000000E+00 -0.13639687594E+03  0.13639687594E+03  0.00000000000E+00 0.  1.
         23    2    1    2    0    0 -0.15519772743E+03 -0.73883970976E+02  0.64760965084E+02  0.20512762381E+03  0.91313655519E+02 0.  0.
         23    2    1    2    0    0  0.12955235633E+03  0.85011520514E+02  0.86276721341E+02  0.19976242140E+03  0.91927040148E+02 0.  0.
        -11    1    3    3    0    0 -0.53625359035E+02 -0.45272088733E+02  0.70461075222E+02  0.99448500599E+02  0.00000000000E+00 0. -1.
         11    1    3    3    0    0 -0.10157236840E+03 -0.28611882243E+02 -0.57001101375E+01  0.10567912321E+03  0.00000000000E+00 0.  1.
        -13    1    4    4    0    0  0.10822630538E+03  0.10186882934E+03  0.87642925866E+02  0.17254412196E+03  0.00000000000E+00 0.  1.
         13    1    4    4    0    0  0.21326050942E+02 -0.16857308831E+02 -0.13662045247E+01  0.27218299443E+02  0.00000000000E+00 0. -1.
         21    1    1    2  502  501  0.25645371106E+02 -0.11127549538E+02  0.11158921724E+02  0.30100314815E+02  0.00000000000E+00 0. -1.
<scales pt_clust_5="13000.00000" pt_clust_6="13000.00000" pt_clust_7="13000.00000" pt_clust_8="13000.00000" pt_clust_9="27.95545"></scales>
<clustering>
<clus scale="   27.955">  2  9  1 -1</clus>
<clus scale="   91.314">  5  6 -1 -1</clus>
<clus scale="   91.927">  7  8 -1 -1</clus>
<clus scale="  186.091">  2  5  1 -1</clus>
<clus scale="  186.393">  1  5  2 -1</clus>
</clustering>
</event>
<event>
 9    1  0.9000149E-006  0.1200537E+03  0.7546771E-02  0.1243412E+00
          2   -1    0    0  502    0  0.00000000000E+00  0.00000000000E+00  0.64944002003E+02  0.64944002003E+02  0.00000000000E+00 0. -1.
         -2   -1    0    0    0  501 -0.00000000000E+00 -0.00000000000E+00 -0.27710305449E+03  0.27710305449E+03  0.00000000000E+00 0.  1.
         23    2    1    2    0    0 -0.15979503847E+01  0.74354244309E+02 -0.12118820172E+03  0.16897716306E+03  0.91299475945E+02 0.  0.
         23    2    1    2    0    0 -0.19286260617E+02 -0.78353409952E+02 -0.89110851560E+02  0.15172503007E+03  0.92566323168E+02 0.  0.
        -11    1    3    3    0    0 -0.18943144932E+02  0.89389217843E+02 -0.11124727307E+03  0.14396260199E+03  0.00000000000E+00 0. -1.
         11    1    3    3    0    0  0.17345194547E+02 -0.15034973535E+02 -0.99409286492E+01  0.25014561069E+02  0.00000000000E+00 0.  1.
        -11    1    4    4    0    0  0.24221605830E+01 -0.92719881263E+02 -0.84126831737E+02  0.12522047381E+03  0.00000000000E+00 0.  1.
         11    1    4    4    0    0 -0.21708421200E+02  0.14366471312E+02 -0.49840198231E+01  0.26504556260E+02  0.00000000000E+00 0. -1.
         21    1    1    2  502  501  0.20884211002E+02  0.39991656428E+01 -0.18599992133E+01  0.21344863365E+02  0.00000000000E+00 0. -1.
<scales pt_clust_5="13000.00000" pt_clust_6="13000.00000" pt_clust_7="13000.00000" pt_clust_8="13000.00000" pt_clust_9="21.26367"></scales>
<clustering>
<clus scale="   21.264">  1  9  2 -1</clus>
<clus scale="   91.299">  5  6 -1 -1</clus>
<clus scale="   92.566">  7  8 -1 -1</clus>
<clus scale="  119.080">  2  5  1 -1</clus>
<clus scale="   21.264">  1  5  2 -1</clus>
</clustering>
</event>
<event>
 9    1  0.9000149E-006  0.1771614E+03  0.7546771E-02  0.1170724E+00
         -2   -1    0    0    0  501 -0.00000000000E+00  0.00000000000E+00  0.13209644988E+03  0.13209644988E+03  0.00000000000E+00 0.  1.
          2   -1    0    0  502    0  0.00000000000E+00 -0.00000000000E+00 -0.62857181523E+03  0.62857181523E+03  0.00000000000E+00 0. -1.
         23    2    1    2    0    0  0.99984292003E+02  0.11084056117E+03  0.35254232168E+02  0.17850647799E+03  0.91319292313E+02 0.  0.
         23    2    1    2    0    0 -0.84124056359E+02 -0.14721094517E+03 -0.38608097603E+03  0.43120526079E+03  0.90175038878E+02 0.  0.
        -11    1    4    4    0    0 -0.28277588480E+01 -0.86549869722E+02 -0.13473717871E+03  0.16016548785E+03  0.00000000000E+00 0.  1.
         11    1    4    4    0    0 -0.81296297511E+02 -0.60661075449E+02 -0.25134379732E+03  0.27103977294E+03  0.00000000000E+00 0. -1.
        -11    1    3    3    0    0  0.21485737894E+02  0.88093924089E+02  0.33784298513E+02  0.96765465018E+02  0.00000000000E+00 0.  1.
         11    1    3    3    0    0  0.78498554110E+02  0.22746637085E+02  0.14699336543E+01  0.81741012968E+02  0.00000000000E+00 0. -1.
         21    1    1    2  502  501 -0.15860235644E+02  0.36370383998E+02 -0.14564862148E+03  0.15095652634E+03  0.00000000000E+00 0. -1.
<scales pt_clust_5="13000.00000" pt_clust_6="13000.00000" pt_clust_7="13000.00000" pt_clust_8="13000.00000" pt_clust_9="39.67810"></scales>
<clustering>
<clus scale="   39.678">  2  9  1 -1</clus>
<clus scale="   90.175">  5  6 -1 -1</clus>
<clus scale="   91.319">  7  8 -1 -1</clus>
<clus scale="  176.574">  2  5  1 -1</clus>
<clus scale="   39.678">  2  5  1 -1</clus>
</clustering>
</event>
<event>
 9    1  0.9000149E-006  0.1094927E+03  0.7546771E-02  0.1262299E+00
          2   -1    0    0  502    0  0.00000000000E+00  0.00000000000E+00  0.20756668559E+03  0.20756668559E+03  0.00000000000E+00 0. -1.
         -2   -1    0    0    0  501 -0.00000000000E+00 -0.00000000000E+00 -0.10433879112E+03  0.10433879112E+03  0.00000000000E+00 0.  1.
         23    2    1    2    0    0  0.32794171444E+02  0.39616905323E+02 -0.95750971417E+01  0.10447961093E+03  0.90439757552E+02 0.  0.
         23    2    1    2    0    0 -0.29933311748E+02 -0.76994152174E+02  0.43391745693E+02  0.12853883161E+03  0.88404100670E+02 0.  0.
        -13    1    4    4    0    0 -0.38507717114E+02 -0.30640599447E+02 -0.16876914901E+02  0.52024233472E+02  0.00000000000E+00 0.  1.
         13    1    4    4    0    0  0.85744053659E+01 -0.46353552728E+02  0.60268660594E+02  0.76514598135E+02  0.00000000000E+00 0. -1.
        -13    1    3    3    0    0  0.59990365407E+02  0.40581783032E+02  0.67565273964E+01  0.72741842967E+02  0.00000000000E+00 0. -1.
         13    1    3    3    0    0 -0.27196193963E+02 -0.96487770942E+00 -0.16331624538E+02  0.31737767960E+02  0.00000000000E+00 0.  1.
         21    1    1    2  502  501 -0.28608596964E+01  0.37377246851E+02  0.69411245922E+02  0.78887034175E+02  0.00000000000E+00 0. -1.
<scales pt_clust_5="13000.00000" pt_clust_6="13000.00000" pt_clust_7="13000.00000" pt_clust_8="13000.00000" pt_clust_9="37.48657"></scales>
<clustering>
<clus scale="   37.487">  1  9  2 -1</clus>
<clus scale="   88.404">  5  6 -1 -1</clus>
<clus scale="   90.440">  7  8 -1 -1</clus>
<clus scale="  107.817">  1  5  2 -1</clus>
<clus scale="   37.487">  1  5  2 -1</clus>
</clustering>
</event>
<event>
 9    1  0.9000149E-006  0.1106999E+03  0.7546771E-02  0.1259611E+00
          2   -1    0    0  502    0  0.00000000000E+00  0.00000000000E+00  0.22966811069E+03  0.22966811069E+03  0.00000000000E+00 0. -1.
         -2   -1    0    0    0  501 -0.00000000000E+00 -0.00000000000E+00 -0.21610802373E+03  0.21610802373E+03  0.00000000000E+00 0.  1.
         23    2    1    2    0    0 -0.32931698893E+02 -0.48422416038E+02 -0.14592583600E+03  0.18170537943E+03  0.91067382387E+02 0.  0.
         23    2    1    2    0    0  0.58558765646E+02  0.48442009226E+02  0.18417979900E+02  0.12069393855E+03  0.91935017955E+02 0.  0.
        -11    1    4    4    0    0  0.71864346735E+02  0.23970786184E+02  0.39803346723E+02  0.85576803705E+02  0.00000000000E+00 0.  1.
         11    1    4    4    0    0 -0.13305581089E+02  0.24471223042E+02 -0.21385366824E+02  0.35117134841E+02  0.00000000000E+00 0. -1.
        -13    1    3    3    0    0  0.13529418361E+02 -0.27752154513E+02 -0.12136958471E+03  0.12523499245E+03  0.00000000000E+00 0.  1.
         13    1    3    3    0    0 -0.46461117254E+02 -0.20670261525E+02 -0.24556251284E+02  0.56470386975E+02  0.00000000000E+00 0. -1.
         21    1    1    2  502  501 -0.25627066753E+02 -0.19593188248E-01  0.14106794306E+03  0.14337681645E+03  0.00000000000E+00 0. -1.
<scales pt_clust_5="13000.00000" pt_clust_6="13000.00000" pt_clust_7="13000.00000" pt_clust_8="13000.00000" pt_clust_9="25.62707"></scales>
<clustering>
<clus scale="   25.627">  1  9  2 -1</clus>
<clus scale="   91.067">  7  8 -1 -1</clus>
<clus scale="   91.935">  5  6 -1 -1</clus>
<clus scale="  109.980">  2  7  1 -1</clus>
<clus scale="   25.627">  1  5  2 -1</clus>
</clustering>
</event>
<event>
 9    1  0.9000149E-006  0.1525302E+03  0.7546771E-02  0.1198439E+00
         -1   -1    0    0    0  501 -0.00000000000E+00  0.00000000000E+00  0.22980523442E+03  0.22980523442E+03  0.00000000000E+00 0.  1.
          1   -1    0    0  502    0  0.00000000000E+00 -0.00000000000E+00 -0.45620490752E+03  0.45620490752E+03  0.00000000000E+00 0. -1.
         23    2    1    2    0    0 -0.86543035332E+02  0.78883434574E+02  0.17461552199E+03  0.23120620751E+03  0.96194784985E+02 0.  0.
         23    2    1    2    0    0  0.11347104309E+03 -0.67440469265E+02 -0.22381829209E+03  0.27520771650E+03  0.90668433510E+02 0.  0.
        -11    1    3    3    0    0 -0.54914249086E+02  0.31672019757E+02  0.19991941831E+02  0.66470815598E+02  0.00000000000E+00 0. -1.
         11    1    3    3    0    0 -0.31628786247E+02  0.47211414818E+02  0.15462358016E+03  0.16473539192E+03  0.00000000000E+00 0.  1.
        -11    1    4    4    0    0  0.81571538519E+02 -0.89625831576E+02 -0.16534558362E+03  0.20500211609E+03  0.00000000000E+00 0. -1.
         11    1    4    4    0    0  0.31899504569E+02  0.22185362310E+02 -0.58472708475E+02  0.70205600410E+02  0.00000000000E+00 0.  1.
         21    1    1    2  502  501 -0.26928007755E+02 -0.11442965309E+02 -0.17719690300E+03  0.17959621791E+03  0.00000000000E+00 0.  1.
<scales pt_clust_5="13000.00000" pt_clust_6="13000.00000" pt_clust_7="13000.00000" pt_clust_8="13000.00000" pt_clust_9="29.25849"></scales>
<clustering>
<clus scale="   29.258">  2  9  1 -1</clus>
<clus scale="   90.668">  7  8 -1 -1</clus>
<clus scale="   96.195">  5  6 -1 -1</clus>
<clus scale="  149.107">  2  7  1 -1</clus>
<clus scale="   29.258">  2  5  1 -1</clus>
</clustering>
</event>
<event>
 9    1  0.9000149E-006  0.1069387E+03  0.7546771E-02  0.1266525E+00
         -1   -1    0    0    0  501 -0.00000000000E+00  0.00000000000E+00  0.86030512104E+02  0.86030512104E+02  0.00000000000E+00 0.  1.
          1   -1    0    0  502    0  0.00000000000E+00 -0.00000000000E+00 -0.37970878091E+03  0.37970878091E+03  0.00000000000E+00 0. -1.
         23    2    1    2    0    0  0.47459798916E+02 -0.36323450629E+02  0.31406335446E+02  0.11331583783E+03  0.91007118499E+02 0.  0.
         23    2    1    2    0    0 -0.33867925349E+02  0.12827146903E+02 -0.18285985097E+03  0.20763155015E+03  0.91441584955E+02 0.  0.
        -11    1    4    4    0    0  0.28807026299E+01  0.22032712806E+02 -0.14054858079E+01  0.22264641735E+02  0.00000000000E+00 0.  1.
         11    1    4    4    0    0 -0.36748627979E+02 -0.92055659032E+01 -0.18145436516E+03  0.18536690842E+03  0.00000000000E+00 0. -1.
        -11    1    3    3    0    0  0.67499595275E+02 -0.49991484870E+02  0.19208278759E+02  0.86164388785E+02  0.00000000000E+00 0.  1.
         11    1    3    3    0    0 -0.20039796359E+02  0.13668034241E+02  0.12198056686E+02  0.27151449041E+02  0.00000000000E+00 0. -1.
         21    1    1    2  502  501 -0.13591873568E+02  0.23496303727E+02 -0.14222475328E+03  0.14479190503E+03  0.00000000000E+00 0. -1.
<scales pt_clust_5="13000.00000" pt_clust_6="13000.00000" pt_clust_7="13000.00000" pt_clust_8="13000.00000" pt_clust_9="27.14434"></scales>
<clustering>
<clus scale="   27.144">  2  9  1 -1</clus>
<clus scale="   91.007">  7  8 -1 -1</clus>
<clus scale="   91.442">  5  6 -1 -1</clus>
<clus scale="  106.567">  1  7  2 -1</clus>
<clus scale="   27.144">  2  5  1 -1</clus>
</clustering>
</event>
<event>
 9    1  0.9000149E-006  0.9892256E+02  0.7546771E-02  0.1284274E+00
          2   -1    0    0  502    0  0.00000000000E+00  0.00000000000E+00  0.27030311852E+03  0.27030311852E+03  0.00000000000E+00 0. -1.
         -2   -1    0    0    0  501 -0.00000000000E+00 -0.00000000000E+00 -0.11835625507E+03  0.11835625507E+03  0.00000000000E+00 0.  1.
         23    2    1    2    0    0  0.29473941792E+02  0.86696065392E+01 -0.66459557781E+02  0.11511712415E+03  0.88832449760E+02 0.  0.
         23    2    1    2    0    0 -0.69364019516E+02  0.55074891841E+01  0.12072143674E+03  0.16707833753E+03  0.92194392138E+02 0.  0.
        -13    1    4    4    0    0 -0.77955262520E+02  0.34397422742E+02  0.85254660466E+02  0.12053448792E+03  0.00000000000E+00 0.  1.
         13    1    4    4    0    0  0.85912430045E+01 -0.28889933558E+02  0.35466776276E+02  0.46543849613E+02  0.00000000000E+00 0. -1.
        -13    1    3    3    0    0  0.19402027751E+02  0.46024599129E+02 -0.56002426667E+02  0.75039817420E+02  0.00000000000E+00 0.  1.
         13    1    3    3    0    0  0.10071914041E+02 -0.37354992589E+02 -0.10457131114E+02  0.40077306733E+02  0.00000000000E+00 0. -1.
         21    1    1    2  502  501  0.39890077724E+02 -0.14177095723E+02  0.97684984484E+02  0.10646391190E+03  0.00000000000E+00 0. -1.
<scales pt_clust_5="13000.00000" pt_clust_6="13000.00000" pt_clust_7="13000.00000" pt_clust_8="13000.00000" pt_clust_9="42.33448"></scales>
<clustering>
<clus scale="   42.334">  1  9  2 -1</clus>
<clus scale="   88.832">  7  8 -1 -1</clus>
<clus scale="   92.194">  5  6 -1 -1</clus>
<clus scale="   95.797">  2  7  1 -1</clus>
<clus scale="   42.334">  1  5  2 -1</clus>
</clustering>
</event>
<event>
 9    1  0.9000149E-006  0.9293405E+02  0.7546771E-02  0.1297120E+00
         -2   -1    0    0    0  501 -0.00000000000E+00  0.00000000000E+00  0.13754981684E+03  0.13754981684E+03  0.00000000000E+00 0.  1.
          2   -1    0    0  502    0  0.00000000000E+00 -0.00000000000E+00 -0.95750680575E+02  0.95750680575E+02  0.00000000000E+00 0. -1.
         23    2    1    2    0    0 -0.51275114417E+01  0.22717513773E+02  0.42101933030E+02  0.10400142484E+03  0.92202748326E+02 0.  0.
         23    2    1    2    0    0 -0.17355949439E+02  0.68875303272E+01 -0.25761456739E+01  0.92054841281E+02  0.90104329651E+02 0.  0.
        -13    1    3    3    0    0  0.42039007571E+02  0.23022665678E+02  0.21405847244E+02  0.52493157542E+02  0.00000000000E+00 0. -1.
         13    1    3    3    0    0 -0.47166519013E+02 -0.30515190525E+00  0.20696085787E+02  0.51508267301E+02  0.00000000000E+00 0.  1.
        -13    1    4    4    0    0  0.17277572119E+02  0.36626621952E+02 -0.17373770907E+02  0.44066675045E+02  0.00000000000E+00 0. -1.
         13    1    4    4    0    0 -0.34633521558E+02 -0.29739091625E+02  0.14797625233E+02  0.47988166237E+02  0.00000000000E+00 0.  1.
         21    1    1    2  502  501  0.22483460881E+02 -0.29605044100E+02  0.22733489126E+01  0.37244231294E+02  0.00000000000E+00 0. -1.
<scales pt_clust_5="13000.00000" pt_clust_6="13000.00000" pt_clust_7="13000.00000" pt_clust_8="13000.00000" pt_clust_9="37.17479"></scales>
<clustering>
<clus scale="   37.175">  2  9  1 -1</clus>
<clus scale="   90.104">  7  8 -1 -1</clus>
<clus scale="   90.853">  2  7  1 -1</clus>
<clus scale="   92.203">  5  6 -1 -1</clus>
<clus scale="   37.175">  2  5  1 -1</clus>
</clustering>
</event>
<event>
 9    1  0.9000149E-006  0.9818267E+02  0.7546771E-02  0.1286311E+00
         -1   -1    0    0    0  501 -0.00000000000E+00  0.00000000000E+00  0.87901738489E+02  0.87901738489E+02  0.00000000000E+00 0.  1.
          1   -1    0    0  502    0  0.00000000000E+00 -0.00000000000E+00 -0.34418079636E+03  0.34418079636E+03  0.00000000000E+00 0. -1.
         23    2    1    2    0    0  0.64645280965E+01  0.20186544562E+02  0.45005709280E+02  0.10413388982E+03  0.91482601824E+02 0.  0.
         23    2    1    2    0    0  0.73245377424E+01 -0.38204606264E+02 -0.21087397343E+03  0.23473437303E+03  0.95494253310E+02 0.  0.
        -11    1    3    3    0    0  0.46510965431E+02  0.26001688787E+02  0.22616753061E+02  0.57886744978E+02  0.00000000000E+00 0.  1.
         11    1    3    3    0    0 -0.40046437334E+02 -0.58151442249E+01  0.22388956219E+02  0.46247144843E+02  0.00000000000E+00 0. -1.
        -11    1    4    4    0    0 -0.17738568638E+02 -0.32787026922E+02 -0.20508714438E+03  0.20844755394E+03  0.00000000000E+00 0. -1.
         11    1    4    4    0    0  0.25063106380E+02 -0.54175793417E+01 -0.57868290525E+01  0.26286819089E+02  0.00000000000E+00 0.  1.
         21    1    1    2  502  501 -0.13789065839E+02  0.18018061701E+02 -0.90410793716E+02  0.93214272001E+02  0.00000000000E+00 0. -1.
<scales pt_clust_5="13000.00000" pt_clust_6="13000.00000" pt_clust_7="13000.00000" pt_clust_8="13000.00000" pt_clust_9="22.68896"></scales>
<clustering>
<clus scale="   22.689">  2  9  1 -1</clus>
<clus scale="   91.483">  5  6 -1 -1</clus>
<clus scale="   94.285">  1  5  2 -1</clus>
<clus scale="   95.494">  7  8 -1 -1</clus>
<clus scale="   22.689">  2  5  1 -1</clus>
</clustering>
</event>
<event>
 9    1  0.9000149E-006  0.1178235E+03  0.7546771E-02  0.1247198E+00
         -1   -1    0    0    0  501 -0.00000000000E+00  0.00000000000E+00  0.29781813474E+03  0.29781813474E+03  0.00000000000E+00 0.  1.
          1   -1    0    0  502    0  0.00000000000E+00 -0.00000000000E+00 -0.15477163326E+03  0.15477163326E+03  0.00000000000E+00 0. -1.
         23    2    1    2    0    0 -0.49255753412E+02 -0.59392665596E+02  0.16598386808E+03  0.20465812371E+03  0.91546082205E+02 0.  0.
         23    2    1    2    0    0  0.10177042773E+03 -0.20105561292E+02 -0.54101065849E+02  0.14768726665E+03  0.90128518516E+02 0.  0.
        -11    1    4    4    0    0  0.10598726928E+03  0.17469177407E+01 -0.63458070009E+02  0.12354464626E+03  0.00000000000E+00 0. -1.
         11    1    4    4    0    0 -0.42168415459E+01 -0.21852479033E+02  0.93570041602E+01  0.24142620391E+02  0.00000000000E+00 0.  1.
        -13    1    3    3    0    0 -0.27848207929E+02 -0.82861203122E+02  0.13002432583E+03  0.15667746160E+03  0.00000000000E+00 0.  1.
         13    1    3    3    0    0 -0.21407545484E+02  0.23468537525E+02  0.35959542253E+02  0.47980662107E+02  0.00000000000E+00 0. -1.
         21    1    1    2  502  501 -0.52514674321E+02  0.79498226889E+02  0.31163699254E+02  0.10024437764E+03  0.00000000000E+00 0. -1.
<scales pt_clust_5="13000.00000" pt_clust_6="13000.00000" pt_clust_7="13000.00000" pt_clust_8="13000.00000" pt_clust_9="95.27727"></scales>
<clustering>
<clus scale="   90.129">  5  6 -1 -1</clus>
<clus scale="   91.546">  7  8 -1 -1</clus>
<clus scale="   95.277">  2  9  1 -1</clus>
<clus scale="  116.725">  2  5  1 -1</clus>
<clus scale="   95.277">  2  5  1 -1</clus>
</clustering>
</event>
<event>
 9    1  0.9000149E-006  0.1355367E+03  0.7546771E-02  0.1219802E+00
          1   -1    0    0  502    0  0.00000000000E+00  0.00000000000E+00  0.54428408834E+03  0.54428408834E+03  0.00000000000E+00 0. -1.
         -1   -1    0    0    0  501 -0.00000000000E+00 -0.00000000000E+00 -0.77779328407E+02  0.77779328407E+02  0.00000000000E+00 0.  1.
         23    2    1    2    0    0 -0.75167424353E+02 -0.31623022917E+02  0.94301021243E+02  0.15430639137E+03  0.90926467814E+02 0.  0.
         23    2    1    2    0    0  0.15220067924E+03 -0.36515050772E+02  0.22931610238E+03  0.29170647566E+03  0.89489649874E+02 0.  0.
        -13    1    3    3    0    0 -0.18293514914E+01 -0.46704508187E+02  0.43292808773E+02  0.63709692381E+02  0.00000000000E+00 0.  1.
         13    1    3    3    0    0 -0.73338072862E+02  0.15081485269E+02  0.51008212470E+02  0.90596698993E+02  0.00000000000E+00 0. -1.
        -13    1    4    4    0    0  0.97079428538E+02 -0.49282699316E+02  0.89712775946E+02  0.14107296717E+03  0.00000000000E+00 0.  1.
         13    1    4    4    0    0  0.55121250705E+02  0.12767648543E+02  0.13960332644E+03  0.15063350849E+03  0.00000000000E+00 0. -1.
         21    1    1    2  502  501 -0.77033254890E+02  0.68138073690E+02  0.14288763631E+03  0.17605054971E+03  0.00000000000E+00 0. -1.
<scales pt_clust_5="13000.00000" pt_clust_6="13000.00000" pt_clust_7="13000.00000" pt_clust_8="13000.00000" pt_clust_9="102.84415"></scales>
<clustering>
<clus scale="   89.490">  7  8 -1 -1</clus>
<clus scale="   90.926">  5  6 -1 -1</clus>
<clus scale="  102.844">  1  9  2 -1</clus>
<clus scale="  134.577">  1  7  2 -1</clus>
<clus scale="  102.844">  1  5  2 -1</clus>
</clustering>
</event>
<event>
 9    1  0.9000149E-006  0.9864595E+02  0.7546771E-02  0.1283292E+00
          1   -1    0    0  502    0  0.00000000000E+00  0.00000000000E+00  0.69019478953E+02  0.69019478953E+02  0.00000000000E+00 0. -1.
         -1   -1    0    0    0  501 -0.00000000000E+00 -0.00000000000E+00 -0.35803470665E+03  0.35803470665E+03  0.00000000000E+00 0.  1.
         23    2    1    2    0    0  0.37771374933E+02 -0.56747783537E+02 -0.19502479552E+03  0.22603845013E+03  0.91715442375E+02 0.  0.
         23    2    1    2    0    0 -0.44747191436E+01 -0.15910056575E+02 -0.73521183431E+02  0.11851228608E+03  0.91469363877E+02 0.  0.
        -11    1    4    4    0    0  0.28171364355E+02 -0.42357905869E+02 -0.42465456344E+02  0.66265624133E+02  0.00000000000E+00 0.  1.
         11    1    4    4    0    0 -0.32646083499E+02  0.26447849294E+02 -0.31055727087E+02  0.52246661951E+02  0.00000000000E+00 0. -1.
        -11    1    3    3    0    0  0.51150279971E+02  0.47059459929E+01 -0.89511495937E+02  0.10320273724E+03  0.00000000000E+00 0.  1.
         11    1    3    3    0    0 -0.13378905037E+02 -0.61453729530E+02 -0.10551329958E+03  0.12283571289E+03  0.00000000000E+00 0. -1.
         21    1    1    2  502  501 -0.33296655790E+02  0.72657840112E+02 -0.20469248746E+02  0.82503449387E+02  0.00000000000E+00 0. -1.
<scales pt_clust_5="13000.00000" pt_clust_6="13000.00000" pt_clust_7="13000.00000" pt_clust_8="13000.00000" pt_clust_9="79.92390"></scales>
<clustering>
<clus scale="   79.924">  1  9  2 -1</clus>
<clus scale="   91.469">  5  6 -1 -1</clus>
<clus scale="   91.715">  7  8 -1 -1</clus>
<clus scale="   98.417">  1  5  2 -1</clus>
<clus scale="   79.924">  1  5  2 -1</clus>
</clustering>
</event>
<event>
 9    1  0.9000149E-006  0.1330524E+03  0.7546771E-02  0.1223012E+00
         -2   -1    0    0    0  501 -0.00000000000E+00  0.00000000000E+00  0.52198935951E+02  0.52198935951E+02  0.00000000000E+00 0.  1.
          2   -1    0    0  502    0  0.00000000000E+00 -0.00000000000E+00 -0.65908719994E+03  0.65908719994E+03  0.00000000000E+00 0. -1.
         23    2    1    2    0    0  0.63565620548E+02 -0.79680580706E+02 -0.67453436782E+02  0.15233906942E+03  0.90926579618E+02 0.  0.
         23    2    1    2    0    0 -0.45058087792E+02  0.65008983997E+02 -0.40822461958E+03  0.42562826395E+03  0.90860771346E+02 0.  0.
        -11    1    4    4    0    0 -0.59214750432E+02  0.73159666773E+01 -0.17223710378E+03  0.18227871504E+03  0.00000000000E+00 0.  1.
         11    1    4    4    0    0  0.14156662640E+02  0.57693017320E+02 -0.23598751580E+03  0.24334954891E+03  0.00000000000E+00 0. -1.
        -13    1    3    3    0    0  0.34882055576E+02  0.14510522487E+02 -0.13900147886E+02  0.40255771951E+02  0.00000000000E+00 0. -1.
         13    1    3    3    0    0  0.28683564972E+02 -0.94191103193E+02 -0.53553288896E+02  0.11208329747E+03  0.00000000000E+00 0.  1.
         21    1    1    2  502  501 -0.18507532756E+02  0.14671596709E+02 -0.13121020764E+03  0.13331880253E+03  0.00000000000E+00 0.  1.
<scales pt_clust_5="13000.00000" pt_clust_6="13000.00000" pt_clust_7="13000.00000" pt_clust_8="13000.00000" pt_clust_9="23.61746"></scales>
<clustering>
<clus scale="   23.617">  2  9  1 -1</clus>
<clus scale="   90.861">  5  6 -1 -1</clus>
<clus scale="   90.927">  7  8 -1 -1</clus>
<clus scale="  133.007">  2  5  1 -1</clus>
<clus scale="   23.617">  2  5  1 -1</clus>
</clustering>
</event>
<event>
 9    1  0.9000149E-006  0.1237640E+03  0.7546771E-02  0.1239012E+00
          1   -1    0    0  502    0  0.00000000000E+00  0.00000000000E+00  0.70646917102E+03  0.70646917102E+03  0.00000000000E+00 0. -1.
         -1   -1    0    0    0  501 -0.00000000000E+00 -0.00000000000E+00 -0.53047989838E+02  0.53047989838E+02  0.00000000000E+00 0.  1.
         23    2    1    2    0    0 -0.33235299633E+00  0.71410673090E+02  0.71377262301E+02  0.13669147640E+03  0.92142560514E+02 0.  0.
         23    2    1    2    0    0  0.62090258519E+02 -0.77567763736E+02  0.26374715282E+03  0.29853448823E+03  0.98429273449E+02 0.  0.
        -11    1    3    3    0    0  0.39658507178E+02  0.12729340293E+02  0.43991894337E+02  0.60581515854E+02  0.00000000000E+00 0.  1.
         11    1    3    3    0    0 -0.39990860174E+02  0.58681332797E+02  0.27385367964E+02  0.76109960549E+02  0.00000000000E+00 0. -1.
        -13    1    4    4    0    0 -0.40556257550E+00 -0.69153124035E+02  0.18593187058E+03  0.19837585423E+03  0.00000000000E+00 0. -1.
         13    1    4    4    0    0  0.62495821095E+02 -0.84146397018E+01  0.77815282241E+02  0.10015863401E+03  0.00000000000E+00 0.  1.
         21    1    1    2  502  501 -0.61757905523E+02  0.61570906466E+01  0.31829676606E+03  0.32429119622E+03  0.00000000000E+00 0.  1.
<scales pt_clust_5="13000.00000" pt_clust_6="13000.00000" pt_clust_7="13000.00000" pt_clust_8="13000.00000" pt_clust_9="62.06407"></scales>
<clustering>
<clus scale="   62.064">  1  9  2 -1</clus>
<clus scale="   92.143">  5  6 -1 -1</clus>
<clus scale="   98.429">  7  8 -1 -1</clus>
<clus scale="  118.825">  2  5  1 -1</clus>
<clus scale="   62.064">  1  5  2 -1</clus>
</clustering>
</event>
<event>
 9    1  0.9000149E-006  0.2084456E+03  0.7546771E-02  0.1142919E+00
         -1   -1    0    0    0  501 -0.00000000000E+00  0.00000000000E+00  0.32166736066E+03  0.32166736066E+03  0.00000000000E+00 0.  1.
          1   -1    0    0  502    0  0.00000000000E+00 -0.00000000000E+00 -0.17112548048E+03  0.17112548048E+03  0.00000000000E+00 0. -1.
         23    2    1    2    0    0  0.25620421883E+02  0.18635090663E+03  0.13593896745E+03  0.24934529096E+03  0.91162518808E+02 0.  0.
         23    2    1    2    0    0 -0.59136600469E+02 -0.17879325627E+03  0.12089988397E+02  0.20899806405E+03  0.89832382536E+02 0.  0.
        -11    1    3    3    0    0  0.42572256552E+02  0.14419382153E+03  0.62145572891E+02  0.16268474860E+03  0.00000000000E+00 0.  1.
         11    1    3    3    0    0 -0.16951834669E+02  0.42157085094E+02  0.73793394563E+02  0.86660542368E+02  0.00000000000E+00 0. -1.
        -13    1    4    4    0    0 -0.20786174692E+02 -0.10099438670E+03  0.49692025117E+02  0.11446059830E+03  0.00000000000E+00 0.  1.
         13    1    4    4    0    0 -0.38350425778E+02 -0.77798869575E+02 -0.37602036720E+02  0.94537465747E+02  0.00000000000E+00 0. -1.
         21    1    1    2  502  501  0.33516178586E+02 -0.75576503522E+01  0.25129243217E+01  0.34449486129E+02  0.00000000000E+00 0. -1.
<scales pt_clust_5="13000.00000" pt_clust_6="13000.00000" pt_clust_7="13000.00000" pt_clust_8="13000.00000" pt_clust_9="34.35771"></scales>
<clustering>
<clus scale="   34.358">  2  9  1 -1</clus>
<clus scale="   89.832">  7  8 -1 -1</clus>
<clus scale="   91.163">  5  6 -1 -1</clus>
<clus scale="  207.867">  2  7  1 -1</clus>
<clus scale="   34.358">  2  5  1 -1</clus>
</clustering>
</event>
<event>
 9    1  0.9000149E-006  0.1303678E+03  0.7546771E-02  0.1228520E+00
         -2   -1    0    0    0  501 -0.00000000000E+00  0.00000000000E+00  0.18697914986E+02  0.18697914986E+02  0.00000000000E+00 0.  1.
          2   -1    0    0  502    0  0.00000000000E+00 -0.00000000000E+00 -0.15467353469E+04  0.15467353469E+04  0.00000000000E+00 0. -1.
         23    2    1    2    0    0  0.57783043677E+02  0.16927180821E+02 -0.48292613418E+03  0.49632600869E+03  0.97449711301E+02 0.  0.
         23    2    1    2    0    0 -0.12063927905E+03  0.21351752722E+01 -0.58375408923E+03  0.60309786104E+03  0.91650415592E+02 0.  0.
        -11    1    3    3    0    0  0.78945537720E+02  0.82523353057E+01 -0.44510471866E+03  0.45212687328E+03  0.00000000000E+00 0. -1.
         11    1    3    3    0    0 -0.21162494042E+02  0.86748455154E+01 -0.37821415524E+02  0.44199135410E+02  0.00000000000E+00 0.  1.
        -13    1    4    4    0    0 -0.55000919707E+02  0.45753165960E+02 -0.24067972087E+03  0.25108799534E+03  0.00000000000E+00 0.  1.
         13    1    4    4    0    0 -0.65638359341E+02 -0.43617990688E+02 -0.34307436835E+03  0.35200986570E+03  0.00000000000E+00 0. -1.
         21    1    1    2  502  501  0.62856235372E+02 -0.19062356093E+02 -0.46135720849E+03  0.46600939214E+03  0.00000000000E+00 0. -1.
<scales pt_clust_5="13000.00000" pt_clust_6="13000.00000" pt_clust_7="13000.00000" pt_clust_8="13000.00000" pt_clust_9="65.68318"></scales>
<clustering>
<clus scale="   65.683">  2  9  1 -1</clus>
<clus scale="   91.650">  7  8 -1 -1</clus>
<clus scale="   97.450">  5  6 -1 -1</clus>
<clus scale="  126.092">  2  7  1 -1</clus>
<clus scale="   65.683">  2  5  1 -1</clus>
</clustering>
</event>
<event>
 9    1  0.9000149E-006  0.1475143E+03  0.7546771E-02  0.1206070E+00
         -4   -1    0    0    0  501 -0.00000000000E+00  0.00000000000E+00  0.82608466508E+03  0.82608466508E+03  0.00000000000E+00 0.  1.
          4   -1    0    0  502    0  0.00000000000E+00 -0.00000000000E+00 -0.28720751436E+02  0.28720751436E+02  0.00000000000E+00 0. -1.
         23    2    1    2    0    0 -0.18539513372E+02  0.11211735373E+03  0.39046116037E+03  0.41627003215E+03  0.88920230234E+02 0.  0.
         23    2    1    2    0    0  0.11394074531E+01 -0.10223912515E+03  0.35990106322E+03  0.38745209988E+03  0.10067878344E+03 0.  0.
        -11    1    4    4    0    0  0.11318655738E+02 -0.12107279907E+03  0.31655728670E+03  0.33910949619E+03  0.00000000000E+00 0. -1.
         11    1    4    4    0    0 -0.10179248285E+02  0.18833673919E+02  0.43343776523E+02  0.48342603697E+02  0.00000000000E+00 0.  1.
        -11    1    3    3    0    0  0.17759886893E+02  0.71092069707E+02  0.12230803256E+03  0.14257892827E+03  0.00000000000E+00 0.  1.
         11    1    3    3    0    0 -0.36299400265E+02  0.41025284019E+02  0.26815312781E+03  0.27369110388E+03  0.00000000000E+00 0. -1.
         21    1    1    2  502  501  0.17400105918E+02 -0.98782285737E+01  0.47001690047E+02  0.51083284478E+02  0.00000000000E+00 0. -1.
<scales pt_clust_5="13000.00000" pt_clust_6="13000.00000" pt_clust_7="13000.00000" pt_clust_8="13000.00000" pt_clust_9="20.00858"></scales>
<clustering>
<clus scale="   20.009">  2  9  1 -1</clus>
<clus scale="   88.920">  7  8 -1 -1</clus>
<clus scale="  100.679">  5  6 -1 -1</clus>
<clus scale="  139.754">  1  7  2 -1</clus>
<clus scale="   20.009">  2  5  1 -1</clus>
</clustering>
</event>
<event>
 9    1  0.9000149E-006  0.1653362E+03  0.7546771E-02  0.1183463E+00
         -1   -1    0    0    0  501 -0.00000000000E+00  0.00000000000E+00  0.11918613052E+03  0.11918613052E+03  0.00000000000E+00 0.  1.
          1   -1    0    0  502    0  0.00000000000E+00 -0.00000000000E+00 -0.29183412170E+03  0.29183412170E+03  0.00000000000E+00 0. -1.
         23    2    1    2    0    0  0.13463963799E+03  0.38622869774E+02 -0.18140799067E+02  0.16838315698E+03  0.91674646302E+02 0.  0.
         23    2    1    2    0    0 -0.13403534530E+03 -0.12094149063E+02 -0.13618151789E+03  0.21038855221E+03  0.87213501559E+02 0.  0.
        -13    1    3    3    0    0  0.10351138850E+03 -0.10946436439E+02 -0.30693168103E+02  0.10851959541E+03  0.00000000000E+00 0. -1.
         13    1    3    3    0    0  0.31128249491E+02  0.49569306213E+02  0.12552369037E+02  0.59863561565E+02  0.00000000000E+00 0.  1.
        -13    1    4    4    0    0 -0.10727011406E+03 -0.21362238343E+01 -0.47707796694E+02  0.11742007787E+03  0.00000000000E+00 0.  1.
         13    1    4    4    0    0 -0.26765231248E+02 -0.99579252290E+01 -0.88473721199E+02  0.92968474342E+02  0.00000000000E+00 0. -1.
         21    1    1    2  502  501 -0.60429268895E+00 -0.26528720711E+02 -0.18325674220E+02  0.32248543034E+02  0.00000000000E+00 0.  1.
<scales pt_clust_5="13000.00000" pt_clust_6="13000.00000" pt_clust_7="13000.00000" pt_clust_8="13000.00000" pt_clust_9="26.53560"></scales>
<clustering>
<clus scale="   26.536">  2  9  1 -1</clus>
<clus scale="   87.214">  7  8 -1 -1</clus>
<clus scale="   91.675">  5  6 -1 -1</clus>
<clus scale="  162.905">  2  7  1 -1</clus>
<clus scale="   26.536">  2  5  1 -1</clus>
</clustering>
</event>
<event>
 9    1  0.9000149E-006  0.9873797E+02  0.7546771E-02  0.1283176E+00
         -2   -1    0    0    0  501 -0.00000000000E+00  0.00000000000E+00  0.11274996176E+03  0.11274996176E+03  0.00000000000E+00 0.  1.
          2   -1    0    0  502    0  0.00000000000E+00 -0.00000000000E+00 -0.14349333026E+03  0.14349333026E+03  0.00000000000E+00 0. -1.
         23    2    1    2    0    0 -0.23107901783E+02 -0.14433011419E+02  0.40990218578E+02  0.10413521840E+03  0.91769595993E+02 0.  0.
         23    2    1    2    0    0  0.40947979739E+02 -0.34595906967E+01 -0.76936117264E+02  0.12631117629E+03  0.91359954590E+02 0.  0.
        -11    1    4    4    0    0  0.52133152759E+02  0.15464184915E+02 -0.86632927568E+02  0.10228524219E+03  0.00000000000E+00 0. -1.
         11    1    4    4    0    0 -0.11185173021E+02 -0.18923775611E+02  0.96968103045E+01  0.24025934092E+02  0.00000000000E+00 0.  1.
        -13    1    3    3    0    0 -0.46566010950E+02  0.22685649372E+02  0.23260623449E+02  0.56781059046E+02  0.00000000000E+00 0.  1.
         13    1    3    3    0    0  0.23458109167E+02 -0.37118660792E+02  0.17729595129E+02  0.47354159354E+02  0.00000000000E+00 0. -1.
         21    1    1    2  502  501 -0.17840077956E+02  0.17892602116E+02  0.52025301837E+01  0.25796897338E+02  0.00000000000E+00 0. -1.
<scales pt_clust_5="13000.00000" pt_clust_6="13000.00000" pt_clust_7="13000.00000" pt_clust_8="13000.00000" pt_clust_9="25.26685"></scales>
<clustering>
<clus scale="   25.267">  1  9  2 -1</clus>
<clus scale="   91.360">  5  6 -1 -1</clus>
<clus scale="   91.770">  7  8 -1 -1</clus>
<clus scale="   98.357">  2  5  1 -1</clus>
<clus scale="   98.357">  2  5  1 -1</clus>
</clustering>
</event>
<event>
 9    1  0.9000149E-006  0.1453108E+03  0.7546771E-02  0.1210611E+00
          1   -1    0    0  502    0  0.00000000000E+00  0.00000000000E+00  0.46573173751E+03  0.46573173751E+03  0.00000000000E+00 0. -1.
         -1   -1    0    0    0  501 -0.00000000000E+00 -0.00000000000E+00 -0.11262104047E+03  0.11262104047E+03  0.00000000000E+00 0.  1.
         23    2    1    2    0    0 -0.43244936636E+02 -0.82690812993E+02 -0.45376897553E+02  0.13846470838E+03  0.91681609592E+02 0.  0.
         23    2    1    2    0    0  0.47045782672E+02  0.10713660670E+03  0.36205213948E+03  0.39584734243E+03  0.10918703512E+03 0.  0.
        -13    1    4    4    0    0  0.78726577811E+02  0.61173749579E+02  0.18434615969E+03  0.20957959892E+03  0.00000000000E+00 0.  1.
         13    1    4    4    0    0 -0.31680795138E+02  0.45962857120E+02  0.17770597980E+03  0.18626774351E+03  0.00000000000E+00 0. -1.
        -13    1    3    3    0    0 -0.48839217736E+02 -0.57536235127E+02 -0.69917843100E+02  0.10287950391E+03  0.00000000000E+00 0.  1.
         13    1    3    3    0    0  0.55942810999E+01 -0.25154577866E+02  0.24540945547E+02  0.35585204468E+02  0.00000000000E+00 0. -1.
         21    1    1    2  502  501 -0.38008460361E+01 -0.24445793706E+02  0.36435455110E+02  0.44040727169E+02  0.00000000000E+00 0. -1.
<scales pt_clust_5="13000.00000" pt_clust_6="13000.00000" pt_clust_7="13000.00000" pt_clust_8="13000.00000" pt_clust_9="24.73951"></scales>
<clustering>
<clus scale="   24.740">  1  9  2 -1</clus>
<clus scale="   91.682">  7  8 -1 -1</clus>
<clus scale="  109.187">  5  6 -1 -1</clus>
<clus scale="  132.661">  2  7  1 -1</clus>
<clus scale="   24.740">  1  5  2 -1</clus>
</clustering>
</event>
<event>
 9    1  0.9000149E-006  0.1020261E+03  0.7546771E-02  0.1277192E+00
         -1   -1    0    0    0  501 -0.00000000000E+00  0.00000000000E+00  0.18904521553E+03  0.18904521553E+03  0.00000000000E+00 0.  1.
          1   -1    0    0  502    0  0.00000000000E+00 -0.00000000000E+00 -0.78538709103E+02  0.78538709103E+02  0.00000000000E+00 0. -1.
         23    2    1    2    0    0 -0.10931650210E+02 -0.42359855710E+02  0.10196162796E+03  0.14291417238E+03  0.90080123994E+02 0.  0.
         23    2    1    2    0    0 -0.94372510995E+01  0.44220863430E+02  0.11036114314E+01  0.10290446003E+03  0.92431398699E+02 0.  0.
        -11    1    3    3    0    0 -0.46408496105E+02 -0.25554164245E+02  0.29848984732E+02  0.60808927885E+02  0.00000000000E+00 0. -1.
         11    1    3    3    0    0  0.35476845895E+02 -0.16805691465E+02  0.72112643228E+02  0.82105244495E+02  0.00000000000E+00 0.  1.
        -13    1    4    4    0    0 -0.82951829470E+01  0.70907360977E+02 -0.13205890350E+02  0.72602062235E+02  0.00000000000E+00 0. -1.
         13    1    4    4    0    0 -0.11420681525E+01 -0.26686497547E+02  0.14309501782E+02  0.30302397797E+02  0.00000000000E+00 0.  1.
         21    1    1    2  502  501  0.20368901310E+02 -0.18610077191E+01  0.74412670332E+01  0.21765292219E+02  0.00000000000E+00 0.  1.
<scales pt_clust_5="13000.00000" pt_clust_6="13000.00000" pt_clust_7="13000.00000" pt_clust_8="13000.00000" pt_clust_9="20.45374"></scales>
<clustering>
<clus scale="   20.454">  2  9  1 -1</clus>
<clus scale="   90.080">  5  6 -1 -1</clus>
<clus scale="   92.431">  7  8 -1 -1</clus>
<clus scale="   99.901">  1  5  2 -1</clus>
<clus scale="   20.454">  2  5  1 -1</clus>
</clustering>
</event>
<event>
 9    1  0.9000149E-006  0.9727673E+02  0.7546771E-02  0.1302461E+00
          2   -1    0    0  502    0  0.00000000000E+00  0.00000000000E+00  0.70808561414E+03  0.70808561414E+03  0.00000000000E+00 0. -1.
         -2   -1    0    0    0  501 -0.00000000000E+00 -0.00000000000E+00 -0.17282047001E+02  0.17282047001E+02  0.00000000000E+00 0.  1.
         23    2    1    2    0    0  0.20098861747E+01 -0.16006384486E+02  0.23967387435E+03  0.25670336249E+03  0.90514121992E+02 0.  0.
         23    2    1    2    0    0 -0.45988337064E+02  0.20314122227E+02  0.33434121822E+03  0.34379553339E+03  0.62319562481E+02 0.  0.
        -11    1    4    4    0    0 -0.36318222916E+02 -0.18014115128E+02  0.16840224945E+03  0.17321327686E+03  0.00000000000E+00 0.  1.
         11    1    4    4    0    0 -0.96701141486E+01  0.38328237355E+02  0.16593896877E+03  0.17058225653E+03  0.00000000000E+00 0. -1.
        -11    1    3    3    0    0 -0.42538775907E+02 -0.11177645328E+01  0.85032276542E+02  0.95085671408E+02  0.00000000000E+00 0.  1.
         11    1    3    3    0    0  0.44548662082E+02 -0.14888619953E+02  0.15464159781E+03  0.16161769108E+03  0.00000000000E+00 0. -1.
         21    1    1    2  502  501  0.43978450890E+02 -0.43077377411E+01  0.11678847456E+03  0.12486876526E+03  0.00000000000E+00 0. -1.
<scales pt_clust_5="13000.00000" pt_clust_6="13000.00000" pt_clust_7="13000.00000" pt_clust_8="13000.00000" pt_clust_9="44.18892"></scales>
<clustering>
<clus scale="   44.189">  2  9  1 -1</clus>
<clus scale="   62.320">  5  6 -1 -1</clus>
<clus scale="   71.789">  1  5  2 -1</clus>
<clus scale="   90.514">  7  8 -1 -1</clus>
<clus scale="   71.789">  1  5  2 -1</clus>
</clustering>
</event>
<event>
 9    1  0.9000149E-006  0.1175583E+03  0.7546771E-02  0.1247210E+00
          1   -1    0    0  502    0  0.00000000000E+00  0.00000000000E+00  0.20607583353E+03  0.20607583353E+03  0.00000000000E+00 0. -1.
         -1   -1    0    0    0  501 -0.00000000000E+00 -0.00000000000E+00 -0.89899848360E+02  0.89899848360E+02  0.00000000000E+00 0.  1.
         23    2    1    2    0    0 -0.45836375092E+02 -0.42349435123E+02  0.34019730103E+02  0.11560849466E+03  0.91178583367E+02 0.  0.
         23    2    1    2    0    0  0.60555692635E+02  0.64087287000E+02  0.44531644204E+02  0.13448904586E+03  0.91269183486E+02 0.  0.
        -11    1    4    4    0    0  0.26679925600E+02  0.29907542970E+02 -0.26965273618E+02  0.48305336535E+02  0.00000000000E+00 0.  1.
         11    1    4    4    0    0  0.33875767036E+02  0.34179744030E+02  0.71496917822E+02  0.86183709321E+02  0.00000000000E+00 0. -1.
        -13    1    3    3    0    0  0.73631058780E+01  0.22071782093E+02 -0.43504198157E+01  0.23670763518E+02  0.00000000000E+00 0.  1.
         13    1    3    3    0    0 -0.53199480970E+02 -0.64421217216E+02  0.38370149919E+02  0.91937731144E+02  0.00000000000E+00 0. -1.
         21    1    1    2  502  501 -0.14719317543E+02 -0.21737851877E+02  0.37624610861E+02  0.45878141370E+02  0.00000000000E+00 0.  1.
<scales pt_clust_5="13000.00000" pt_clust_6="13000.00000" pt_clust_7="13000.00000" pt_clust_8="13000.00000" pt_clust_9="26.25248"></scales>
<clustering>
<clus scale="   26.252">  1  9  2 -1</clus>
<clus scale="   91.179">  7  8 -1 -1</clus>
<clus scale="   91.269">  5  6 -1 -1</clus>
<clus scale="  117.488">  2  7  1 -1</clus>
<clus scale="   26.252">  1  5  2 -1</clus>
</clustering>
</event>
<event>
 9    1  0.9000149E-006  0.1333745E+03  0.7546771E-02  0.1222819E+00
          1   -1    0    0  502    0  0.00000000000E+00  0.00000000000E+00  0.32144923771E+03  0.32144923771E+03  0.00000000000E+00 0. -1.
         -1   -1    0    0    0  501 -0.00000000000E+00 -0.00000000000E+00 -0.14208272784E+03  0.14208272784E+03  0.00000000000E+00 0.  1.
         23    2    1    2    0    0  0.92926765222E+02  0.79429045335E+01 -0.67495614190E+02  0.14557573879E+03  0.89096376818E+02 0.  0.
         23    2    1    2    0    0 -0.12441565588E+03  0.19687777072E+02  0.16736397705E+03  0.22809544456E+03  0.90277167772E+02 0.  0.
        -11    1    3    3    0    0  0.45344509994E+02  0.19743367916E+02  0.13171553284E+02  0.51180220586E+02  0.00000000000E+00 0. -1.
         11    1    3    3    0    0  0.47582255228E+02 -0.11800463383E+02 -0.80667167474E+02  0.94395518204E+02  0.00000000000E+00 0.  1.
        -11    1    4    4    0    0 -0.25977423633E+02 -0.28299831873E+02  0.77247123396E+02  0.86271809390E+02  0.00000000000E+00 0.  1.
         11    1    4    4    0    0 -0.98438232246E+02  0.47987608944E+02  0.90116853653E+02  0.14182363517E+03  0.00000000000E+00 0. -1.
         21    1    1    2  502  501  0.31488890657E+02 -0.27630681605E+02  0.79498147012E+02  0.89860782208E+02  0.00000000000E+00 0.  1.
<scales pt_clust_5="13000.00000" pt_clust_6="13000.00000" pt_clust_7="13000.00000" pt_clust_8="13000.00000" pt_clust_9="41.89278"></scales>
<clustering>
<clus scale="   41.893">  1  9  2 -1</clus>
<clus scale="   89.096">  5  6 -1 -1</clus>
<clus scale="   90.277">  7  8 -1 -1</clus>
<clus scale="  132.578">  2  5  1 -1</clus>
<clus scale="   41.893">  1  5  2 -1</clus>
</clustering>
</event>
<event>
 9    1  0.9000149E-006  0.1080136E+03  0.7546771E-02  0.1265016E+00
         -1   -1    0    0    0  501 -0.00000000000E+00  0.00000000000E+00  0.61939065618E+03  0.61939065618E+03  0.00000000000E+00 0.  1.
          1   -1    0    0  502    0  0.00000000000E+00 -0.00000000000E+00 -0.71721145096E+02  0.71721145096E+02  0.00000000000E+00 0. -1.
         23    2    1    2    0    0  0.11321426806E+02  0.50841154450E+02  0.45234505224E+03  0.46473098569E+03  0.92983036517E+02 0.  0.
         23    2    1    2    0    0  0.43121855036E+02 -0.86615755689E+02  0.34795131606E+02  0.13745560832E+03  0.91222582517E+02 0.  0.
        -11    1    3    3    0    0  0.49219620480E+02  0.12004955253E+02  0.25937859628E+03  0.26428005259E+03  0.00000000000E+00 0.  1.
         11    1    3    3    0    0 -0.37898193673E+02  0.38836199197E+02  0.19296645596E+03  0.20045093310E+03  0.00000000000E+00 0. -1.
        -11    1    4    4    0    0 -0.27889901887E+02 -0.27282087795E+02  0.12794778793E+01  0.39035829764E+02  0.00000000000E+00 0.  1.
         11    1    4    4    0    0  0.71011756923E+02 -0.59333667894E+02  0.33515653726E+02  0.98419778560E+02  0.00000000000E+00 0. -1.
         21    1    1    2  502  501 -0.54443281842E+02  0.35774601239E+02  0.60529327241E+02  0.88925207269E+02  0.00000000000E+00 0.  1.
<scales pt_clust_5="13000.00000" pt_clust_6="13000.00000" pt_clust_7="13000.00000" pt_clust_8="13000.00000" pt_clust_9="65.14517"></scales>
<clustering>
<clus scale="   65.145">  2  9  1 -1</clus>
<clus scale="   91.223">  7  8 -1 -1</clus>
<clus scale="   92.983">  5  6 -1 -1</clus>
<clus scale="  106.502">  2  7  1 -1</clus>
<clus scale="   65.145">  2  5  1 -1</clus>
</clustering>
</event>
<event>
 9    1  0.9000149E-006  0.1314252E+03  0.7546771E-02  0.1225711E+00
          2   -1    0    0  502    0  0.00000000000E+00  0.00000000000E+00  0.67304869137E+03  0.67304869137E+03  0.00000000000E+00 0. -1.
         -2   -1    0    0    0  501 -0.00000000000E+00 -0.00000000000E+00 -0.30546679119E+02  0.30546679119E+02  0.00000000000E+00 0.  1.
         23    2    1    2    0    0  0.64654402805E+02  0.62033508435E+02  0.24146441664E+03  0.27291771059E+03  0.90281029456E+02 0.  0.
         23    2    1    2    0    0 -0.84174237262E+02 -0.56543783178E+02  0.34606862600E+03  0.37208799664E+03  0.91670506205E+02 0.  0.
        -11    1    4    4    0    0  0.16369378782E+02 -0.26238793393E+02  0.96229107522E+02  0.10107656491E+03  0.00000000000E+00 0. -1.
         11    1    4    4    0    0 -0.10054361604E+03 -0.30304989785E+02  0.24983951847E+03  0.27101143172E+03  0.00000000000E+00 0.  1.
        -13    1    3    3    0    0  0.48177538299E+02  0.82326650533E+02  0.21732312572E+03  0.23733540309E+03  0.00000000000E+00 0. -1.
         13    1    3    3    0    0  0.16476864506E+02 -0.20293142098E+02  0.24141290921E+02  0.35582307506E+02  0.00000000000E+00 0.  1.
         21    1    1    2  502  501  0.19519834457E+02 -0.54897252573E+01  0.54968969607E+02  0.58589663255E+02  0.00000000000E+00 0. -1.
<scales pt_clust_5="13000.00000" pt_clust_6="13000.00000" pt_clust_7="13000.00000" pt_clust_8="13000.00000" pt_clust_9="20.27711"></scales>
<clustering>
<clus scale="   20.277">  1  9  2 -1</clus>
<clus scale="   90.281">  7  8 -1 -1</clus>
<clus scale="   91.671">  5  6 -1 -1</clus>
<clus scale="  130.460">  2  7  1 -1</clus>
<clus scale="   20.277">  1  5  2 -1</clus>
</clustering>
</event>
<event>
 9    1  0.1101410E-005  0.2546480E+03  0.7546771E-02  0.1110483E+00
          2   -1    0    0  502    0  0.00000000000E+00  0.00000000000E+00  0.32695873797E+03  0.32695873797E+03  0.00000000000E+00 0. -1.
         -2   -1    0    0    0  501 -0.00000000000E+00 -0.00000000000E+00 -0.67977432812E+03  0.67977432812E+03  0.00000000000E+00 0.  1.
         23    2    1    2    0    0 -0.14569737983E+03 -0.19043449837E+03 -0.56512064909E+03  0.62053368548E+03  0.90596258883E+02 0.  0.
         23    2    1    2    0    0  0.18445511489E+03  0.13627268428E+03  0.20295386676E+03  0.31894531807E+03  0.89117394466E+02 0.  0.
        -11    1    3    3    0    0 -0.90755558321E+02 -0.46084174488E+02 -0.21678593498E+03  0.23949209613E+03  0.00000000000E+00 0. -1.
         11    1    3    3    0    0 -0.54941821504E+02 -0.14435032388E+03 -0.34833471411E+03  0.38104158935E+03  0.00000000000E+00 0.  1.
        -11    1    4    4    0    0  0.69329077642E+02  0.28025485957E+01  0.49355218676E+02  0.85148769197E+02  0.00000000000E+00 0.  1.
         11    1    4    4    0    0  0.11512603725E+03  0.13347013568E+03  0.15359864809E+03  0.23379654887E+03  0.00000000000E+00 0. -1.
         21    1    1    2  502  501 -0.38757735064E+02  0.54161814094E+02  0.93511921710E+01  0.67254062541E+02  0.00000000000E+00 0. -1.
<scales pt_clust_5="13000.00000" pt_clust_6="13000.00000" pt_clust_7="13000.00000" pt_clust_8="13000.00000" pt_clust_9="66.60078"></scales>
<clustering>
<clus scale="   66.601">  1  9  2 -1</clus>
<clus scale="   89.117">  7  8 -1 -1</clus>
<clus scale="   90.596">  5  6 -1 -1</clus>
<clus scale="  254.126">  1  7  2 -1</clus>
<clus scale="   66.601">  1  5  2 -1</clus>
</clustering>
</event>
<event>
 9    1  0.9000149E-006  0.1014343E+03  0.7546771E-02  0.1279082E+00
          2   -1    0    0  502    0  0.00000000000E+00  0.00000000000E+00  0.54347874861E+02  0.54347874861E+02  0.00000000000E+00 0. -1.
         -2   -1    0    0    0  501 -0.00000000000E+00 -0.00000000000E+00 -0.32293884565E+03  0.32293884565E+03  0.00000000000E+00 0.  1.
         23    2    1    2    0    0  0.39440647268E+01  0.26282416705E+02 -0.10347558861E+03  0.13954142834E+03  0.89767988223E+02 0.  0.
         23    2    1    2    0    0  0.46384118046E+02 -0.42822942222E+02 -0.13805224374E+03  0.17825639886E+03  0.93443196350E+02 0.  0.
        -11    1    3    3    0    0 -0.31031508772E+02  0.81545212460E+01 -0.37335165188E+01  0.32301546387E+02  0.00000000000E+00 0. -1.
         11    1    3    3    0    0  0.34975573499E+02  0.18127895459E+02 -0.99742072096E+02  0.10723988195E+03  0.00000000000E+00 0.  1.
        -13    1    4    4    0    0  0.54386312967E+02  0.12863562050E+02 -0.59437224858E+02  0.81585084210E+02  0.00000000000E+00 0.  1.
         13    1    4    4    0    0 -0.80021949212E+01 -0.55686504272E+02 -0.78615018881E+02  0.96671314645E+02  0.00000000000E+00 0. -1.
         21    1    1    2  502  501 -0.50328182773E+02  0.16540525517E+02 -0.27063138431E+02  0.59488893310E+02  0.00000000000E+00 0. -1.
<scales pt_clust_5="13000.00000" pt_clust_6="13000.00000" pt_clust_7="13000.00000" pt_clust_8="13000.00000" pt_clust_9="52.97655"></scales>
<clustering>
<clus scale="   52.977">  1  9  2 -1</clus>
<clus scale="   89.768">  5  6 -1 -1</clus>
<clus scale="   93.443">  7  8 -1 -1</clus>
<clus scale="   98.059">  2  5  1 -1</clus>
<clus scale="   52.977">  1  5  2 -1</clus>
</clustering>
</event>
<event>
 9    1  0.9000149E-006  0.9362008E+02  0.7546771E-02  0.1296493E+00
         -1   -1    0    0    0  501 -0.00000000000E+00  0.00000000000E+00  0.49576807657E+02  0.49576807657E+02  0.00000000000E+00 0.  1.
          1   -1    0    0  502    0  0.00000000000E+00 -0.00000000000E+00 -0.25456186239E+03  0.25456186239E+03  0.00000000000E+00 0. -1.
         23    2    1    2    0    0  0.10760375716E+02 -0.14392066242E+01 -0.43250885572E+02  0.10189048315E+03  0.91614269923E+02 0.  0.
         23    2    1    2    0    0 -0.36126596864E+02  0.60590220434E+01 -0.13439554421E+03  0.16466909318E+03  0.87817453831E+02 0.  0.
        -13    1    4    4    0    0 -0.49230280259E+02 -0.15006191153E+02 -0.12954092522E+03  0.13939030660E+03  0.00000000000E+00 0. -1.
         13    1    4    4    0    0  0.13103683395E+02  0.21065213197E+02 -0.48546189876E+01  0.25278786582E+02  0.00000000000E+00 0.  1.
        -13    1    3    3    0    0  0.47306456882E+02  0.46683845409E+01 -0.36776262106E+01  0.47678292875E+02  0.00000000000E+00 0.  1.
         13    1    3    3    0    0 -0.36546081166E+02 -0.61075911651E+01 -0.39573259361E+02  0.54212190280E+02  0.00000000000E+00 0. -1.
         21    1    1    2  502  501  0.25366221148E+02 -0.46198154192E+01 -0.27338624957E+02  0.37579093715E+02  0.00000000000E+00 0. -1.
<scales pt_clust_5="13000.00000" pt_clust_6="13000.00000" pt_clust_7="13000.00000" pt_clust_8="13000.00000" pt_clust_9="25.78348"></scales>
<clustering>
<clus scale="   25.783">  2  9  1 -1</clus>
<clus scale="   87.817">  5  6 -1 -1</clus>
<clus scale="   89.908">  2  5  1 -1</clus>
<clus scale="   91.614">  7  8 -1 -1</clus>
<clus scale="   25.783">  2  5  1 -1</clus>
</clustering>
</event>
<event>
 9    1  0.9000149E-006  0.1030043E+03  0.7546771E-02  0.1274470E+00
         -1   -1    0    0    0  501 -0.00000000000E+00  0.00000000000E+00  0.18246960778E+03  0.18246960778E+03  0.00000000000E+00 0.  1.
          1   -1    0    0  502    0  0.00000000000E+00 -0.00000000000E+00 -0.16977674284E+03  0.16977674284E+03  0.00000000000E+00 0. -1.
         23    2    1    2    0    0 -0.58007848497E+02 -0.10517565191E+02  0.98796835521E+02  0.14642012736E+03  0.90567705737E+02 0.  0.
         23    2    1    2    0    0  0.74013731426E+01 -0.41850443399E+02 -0.88428119347E+02  0.13296453690E+03  0.89742943148E+02 0.  0.
        -11    1    4    4    0    0 -0.31333047652E+02 -0.38945363876E+02 -0.19126214510E+02  0.53519279928E+02  0.00000000000E+00 0.  1.
         11    1    4    4    0    0  0.38734420795E+02 -0.29050795239E+01 -0.69301904837E+02  0.79445256972E+02  0.00000000000E+00 0. -1.
        -13    1    3    3    0    0 -0.50925407476E+02  0.33023209380E+02  0.39124161396E+02  0.72212391522E+02  0.00000000000E+00 0.  1.
         13    1    3    3    0    0 -0.70824410205E+01 -0.43540774571E+02  0.59672674125E+02  0.74207735838E+02  0.00000000000E+00 0. -1.
         21    1    1    2  502  501  0.50606475354E+02  0.52368008590E+02  0.23241487724E+01  0.72861686358E+02  0.00000000000E+00 0. -1.
<scales pt_clust_5="13000.00000" pt_clust_6="13000.00000" pt_clust_7="13000.00000" pt_clust_8="13000.00000" pt_clust_9="72.82461"></scales>
<clustering>
<clus scale="   72.825">  2  9  1 -1</clus>
<clus scale="   89.743">  5  6 -1 -1</clus>
<clus scale="   90.568">  7  8 -1 -1</clus>
<clus scale="  102.280">  2  5  1 -1</clus>
<clus scale="   72.825">  2  5  1 -1</clus>
</clustering>
</event>
<event>
 9    1  0.9000149E-006  0.1539109E+03  0.7546771E-02  0.1195834E+00
          2   -1    0    0  502    0  0.00000000000E+00  0.00000000000E+00  0.72103446333E+03  0.72103446333E+03  0.00000000000E+00 0. -1.
         -2   -1    0    0    0  501 -0.00000000000E+00 -0.00000000000E+00 -0.69719239631E+02  0.69719239631E+02  0.00000000000E+00 0.  1.
         23    2    1    2    0    0 -0.20760565075E+02 -0.12486977226E+03  0.44474513962E+02  0.16175305310E+03  0.90347145536E+02 0.  0.
         23    2    1    2    0    0  0.31915837790E+02  0.10774108509E+03  0.54713382834E+03  0.56589166699E+03  0.90836064058E+02 0.  0.
        -11    1    4    4    0    0 -0.24970190932E+02  0.19830822133E+02  0.63548842149E+02  0.71100121520E+02  0.00000000000E+00 0.  1.
         11    1    4    4    0    0  0.56886028722E+02  0.87910262959E+02  0.48358498619E+03  0.49479154547E+03  0.00000000000E+00 0. -1.
        -11    1    3    3    0    0  0.27845609681E+02 -0.75593482639E+02  0.45520122010E+02  0.92530179421E+02  0.00000000000E+00 0. -1.
         11    1    3    3    0    0 -0.48606174756E+02 -0.49276289625E+02 -0.10456080481E+01  0.69222873675E+02  0.00000000000E+00 0.  1.
         21    1    1    2  502  501 -0.11155272715E+02  0.17128687172E+02  0.59706881396E+02  0.63108982875E+02  0.00000000000E+00 0. -1.
<scales pt_clust_5="13000.00000" pt_clust_6="13000.00000" pt_clust_7="13000.00000" pt_clust_8="13000.00000" pt_clust_9="20.44094"></scales>
<clustering>
<clus scale="   20.441">  1  9  2 -1</clus>
<clus scale="   90.347">  7  8 -1 -1</clus>
<clus scale="   90.836">  5  6 -1 -1</clus>
<clus scale="  153.623">  2  7  1 -1</clus>
<clus scale="   20.441">  1  5  2 -1</clus>
</clustering>
</event>
<event>
 9    1  0.9000149E-006  0.9957245E+02  0.7546771E-02  0.1282201E+00
          3   -1    0    0  502    0  0.00000000000E+00  0.00000000000E+00  0.25404059076E+03  0.25404059076E+03  0.00000000000E+00 0. -1.
         -3   -1    0    0    0  501 -0.00000000000E+00 -0.00000000000E+00 -0.13404696553E+03  0.13404696553E+03  0.00000000000E+00 0.  1.
         23    2    1    2    0    0  0.35517402227E+02  0.16576535719E+01 -0.82062737519E+02  0.12946191268E+03  0.93604809004E+02 0.  0.
         23    2    1    2    0    0 -0.18119211609E+02 -0.47970615374E+02  0.98945650987E+02  0.14426041137E+03  0.91604250283E+02 0.  0.
        -13    1    3    3    0    0 -0.12098210930E+02 -0.30224799207E+02 -0.59600898399E+02  0.67912975821E+02  0.00000000000E+00 0.  1.
         13    1    3    3    0    0  0.47615613157E+02  0.31882452779E+02 -0.22461839120E+02  0.61548936857E+02  0.00000000000E+00 0. -1.
        -13    1    4    4    0    0 -0.46489095303E+01  0.23405829289E+02  0.31946089822E+01  0.24075936764E+02  0.00000000000E+00 0. -1.
         13    1    4    4    0    0 -0.13470302078E+02 -0.71376444662E+02  0.95751042005E+02  0.12018447460E+03  0.00000000000E+00 0.  1.
         21    1    1    2  502  501 -0.17398190619E+02  0.46312961802E+02  0.10311071176E+03  0.11436523225E+03  0.00000000000E+00 0. -1.
<scales pt_clust_5="13000.00000" pt_clust_6="13000.00000" pt_clust_7="13000.00000" pt_clust_8="13000.00000" pt_clust_9="49.47310"></scales>
<clustering>
<clus scale="   49.473">  1  9  2 -1</clus>
<clus scale="   91.604">  7  8 -1 -1</clus>
<clus scale="   93.605">  5  6 -1 -1</clus>
<clus scale="   97.694">  1  7  2 -1</clus>
<clus scale="   49.473">  1  5  2 -1</clus>
</clustering>
</event>
<event>
 9    1  0.9000149E-006  0.1225552E+03  0.7546771E-02  0.1240457E+00
          2   -1    0    0  502    0  0.00000000000E+00  0.00000000000E+00  0.31388417656E+02  0.31388417656E+02  0.00000000000E+00 0. -1.
         -2   -1    0    0    0  501 -0.00000000000E+00 -0.00000000000E+00 -0.76264419949E+03  0.76264419949E+03  0.00000000000E+00 0.  1.
         23    2    1    2    0    0 -0.18467667322E+02 -0.10141944678E+03 -0.42592728716E+03  0.44678217640E+03  0.87024710734E+02 0.  0.
         23    2    1    2    0    0  0.10021137181E+02  0.71272094565E+02 -0.15729099301E+03  0.19593848281E+03  0.92039654000E+02 0.  0.
        -11    1    4    4    0    0 -0.36787588276E+02  0.75954156460E+01 -0.44856833634E+02  0.58507713283E+02  0.00000000000E+00 0.  1.
         11    1    4    4    0    0  0.46808725457E+02  0.63676678919E+02 -0.11243415938E+03  0.13743076953E+03  0.00000000000E+00 0. -1.
        -11    1    3    3    0    0 -0.31653701362E+01 -0.76460425154E+02 -0.40128089886E+03  0.40851263870E+03  0.00000000000E+00 0.  1.
         11    1    3    3    0    0 -0.15302297186E+02 -0.24959021630E+02 -0.24646388298E+02  0.38269537703E+02  0.00000000000E+00 0. -1.
         21    1    1    2  502  501  0.84465301410E+01  0.30147352220E+02 -0.14803750166E+03  0.15131195794E+03  0.00000000000E+00 0.  1.
<scales pt_clust_5="13000.00000" pt_clust_6="13000.00000" pt_clust_7="13000.00000" pt_clust_8="13000.00000" pt_clust_9="31.30825"></scales>
<clustering>
<clus scale="   31.308">  2  9  1 -1</clus>
<clus scale="   87.025">  7  8 -1 -1</clus>
<clus scale="   92.040">  5  6 -1 -1</clus>
<clus scale="  118.835">  2  7  1 -1</clus>
<clus scale="  122.555">  1  5  2 -1</clus>
</clustering>
</event>
<event>
 9    1  0.9000149E-006  0.1284995E+03  0.7546771E-02  0.1233848E+00
         -2   -1    0    0    0  501 -0.00000000000E+00  0.00000000000E+00  0.33703018181E+03  0.33703018181E+03  0.00000000000E+00 0.  1.
          2   -1    0    0  502    0  0.00000000000E+00 -0.00000000000E+00 -0.82281601620E+02  0.82281601620E+02  0.00000000000E+00 0. -1.
         23    2    1    2    0    0  0.46027842540E+02  0.55450803170E+02  0.22902565692E+03  0.25652215142E+03  0.90318928145E+02 0.  0.
         23    2    1    2    0    0 -0.58387901569E+02 -0.72398373147E+02  0.18042551577E+02  0.14045178752E+03  0.10368461537E+03 0.  0.
        -11    1    3    3    0    0  0.23510300104E+02  0.78756402816E+02  0.17824777625E+03  0.19628442356E+03  0.00000000000E+00 0.  1.
         11    1    3    3    0    0  0.22517542436E+02 -0.23305599646E+02  0.50777880671E+02  0.60237727860E+02  0.00000000000E+00 0. -1.
        -13    1    4    4    0    0  0.21888879571E+02 -0.42378053171E+02  0.26093476884E+02  0.54368115429E+02  0.00000000000E+00 0. -1.
         13    1    4    4    0    0 -0.80276781140E+02 -0.30020319976E+02 -0.80509253070E+01  0.86083672087E+02  0.00000000000E+00 0.  1.
         21    1    1    2  502  501  0.12360059030E+02  0.16947569977E+02  0.76803716964E+01  0.22337844496E+02  0.00000000000E+00 0.  1.
<scales pt_clust_5="13000.00000" pt_clust_6="13000.00000" pt_clust_7="13000.00000" pt_clust_8="13000.00000" pt_clust_9="20.97597"></scales>
<clustering>
<clus scale="   20.976">  2  9  1 -1</clus>
<clus scale="   90.319">  5  6 -1 -1</clus>
<clus scale="  103.685">  7  8 -1 -1</clus>
<clus scale="  117.979">  1  5  2 -1</clus>
<clus scale="   20.976">  2  5  1 -1</clus>
</clustering>
</event>
<event>
 9    1  0.9000149E-006  0.1004445E+03  0.7546771E-02  0.1280020E+00
          1   -1    0    0  502    0  0.00000000000E+00  0.00000000000E+00  0.13162393274E+03  0.13162393274E+03  0.00000000000E+00 0. -1.
         -1   -1    0    0    0  501 -0.00000000000E+00 -0.00000000000E+00 -0.17267404189E+03  0.17267404189E+03  0.00000000000E+00 0.  1.
         23    2    1    2    0    0 -0.24601192605E+02  0.28692003377E+02 -0.11623278227E+03  0.15285293483E+03  0.91790578372E+02 0.  0.
         23    2    1    2    0    0  0.42760944844E+02 -0.38987875750E+02  0.74285288419E+02  0.13055037807E+03  0.90424246086E+02 0.  0.
        -11    1    3    3    0    0  0.27816741672E+02  0.20380636332E+01 -0.69362146002E+01  0.28740840169E+02  0.00000000000E+00 0. -1.
         11    1    3    3    0    0 -0.52417934278E+02  0.26653939744E+02 -0.10929656767E+03  0.12411209467E+03  0.00000000000E+00 0.  1.
        -13    1    4    4    0    0  0.21267230578E+02 -0.61392118992E+02  0.19941224944E+02  0.67962782632E+02  0.00000000000E+00 0. -1.
         13    1    4    4    0    0  0.21493714266E+02  0.22404243242E+02  0.54344063475E+02  0.62587595442E+02  0.00000000000E+00 0.  1.
         21    1    1    2  502  501 -0.18159752239E+02  0.10295872373E+02  0.89738469985E+00  0.20894661725E+02  0.00000000000E+00 0.  1.
<scales pt_clust_5="13000.00000" pt_clust_6="13000.00000" pt_clust_7="13000.00000" pt_clust_8="13000.00000" pt_clust_9="20.87538"></scales>
<clustering>
<clus scale="   20.875">  1  9  2 -1</clus>
<clus scale="   90.424">  7  8 -1 -1</clus>
<clus scale="   91.791">  5  6 -1 -1</clus>
<clus scale="   99.197">  1  7  2 -1</clus>
<clus scale="   20.875">  1  5  2 -1</clus>
</clustering>
</event>
<event>
 9    1  0.9000149E-006  0.1232778E+03  0.7546771E-02  0.1241326E+00
         -2   -1    0    0    0  501 -0.00000000000E+00  0.00000000000E+00  0.57750838970E+02  0.57750838970E+02  0.00000000000E+00 0.  1.
          2   -1    0    0  502    0  0.00000000000E+00 -0.00000000000E+00 -0.58442357004E+03  0.58442357004E+03  0.00000000000E+00 0. -1.
         23    2    1    2    0    0  0.30085107088E+02 -0.59347361291E+02 -0.41665206347E+02  0.12764664949E+03  0.10065016019E+03 0.  0.
         23    2    1    2    0    0 -0.16061160245E+02  0.89316347946E+02 -0.29245539428E+03  0.31915341580E+03  0.89963182997E+02 0.  0.
        -11    1    4    4    0    0  0.23352758852E+02  0.21207875180E+02 -0.24673401716E+02  0.40048746146E+02  0.00000000000E+00 0.  1.
         11    1    4    4    0    0 -0.39413919098E+02  0.68108472766E+02 -0.26778199257E+03  0.27910466966E+03  0.00000000000E+00 0. -1.
        -11    1    3    3    0    0 -0.90294661964E+01 -0.75450173989E+02 -0.38615254732E+02  0.85237303529E+02  0.00000000000E+00 0.  1.
         11    1    3    3    0    0  0.39114573284E+02  0.16102812698E+02 -0.30499516148E+01  0.42409345961E+02  0.00000000000E+00 0. -1.
         21    1    1    2  502  501 -0.14023946842E+02 -0.29968986655E+02 -0.19255213044E+03  0.19537434372E+03  0.00000000000E+00 0.  1.
<scales pt_clust_5="13000.00000" pt_clust_6="13000.00000" pt_clust_7="13000.00000" pt_clust_8="13000.00000" pt_clust_9="33.08793"></scales>
<clustering>
<clus scale="   33.088">  2  9  1 -1</clus>
<clus scale="   89.963">  5  6 -1 -1</clus>
<clus scale="  100.650">  7  8 -1 -1</clus>
<clus scale="  114.719">  2  5  1 -1</clus>
<clus scale="   33.088">  2  5  1 -1</clus>
</clustering>
</event>
<event>
 9    1  0.9000149E-006  0.1083308E+03  0.7546771E-02  0.1266714E+00
         -1   -1    0    0    0  501 -0.00000000000E+00  0.00000000000E+00  0.15036769644E+03  0.15036769644E+03  0.00000000000E+00 0.  1.
          1   -1    0    0  502    0  0.00000000000E+00 -0.00000000000E+00 -0.42711252385E+03  0.42711252385E+03  0.00000000000E+00 0. -1.
         23    2    1    2    0    0 -0.29323468861E+02  0.14075708399E+02  0.58877793086E+02  0.11277754646E+03  0.90521760222E+02 0.  0.
         23    2    1    2    0    0  0.84805660611E+02 -0.14975598173E+02 -0.57361540630E+01  0.13018187607E+03  0.97458446428E+02 0.  0.
        -11    1    4    4    0    0  0.10006476964E+03 -0.28887887116E+02 -0.18677166374E+02  0.10581259229E+03  0.00000000000E+00 0. -1.
         11    1    4    4    0    0 -0.15259109025E+02  0.13912288943E+02  0.12941012311E+02  0.24369283771E+02  0.00000000000E+00 0.  1.
        -11    1    3    3    0    0 -0.68555851016E+01 -0.37409641538E+02  0.35182867095E+02  0.51810370237E+02  0.00000000000E+00 0. -1.
         11    1    3    3    0    0 -0.22467883759E+02  0.51485349937E+02  0.23694925991E+02  0.60967176222E+02  0.00000000000E+00 0.  1.
         21    1    1    2  502  501 -0.55482191750E+02  0.89988977368E+00 -0.32988646643E+03  0.33452079776E+03  0.00000000000E+00 0. -1.
<scales pt_clust_5="13000.00000" pt_clust_6="13000.00000" pt_clust_7="13000.00000" pt_clust_8="13000.00000" pt_clust_9="55.48949"></scales>
<clustering>
<clus scale="   55.489">  2  9  1 -1</clus>
<clus scale="   90.522">  7  8 -1 -1</clus>
<clus scale="   97.458">  5  6 -1 -1</clus>
<clus scale="  102.135">  1  7  2 -1</clus>
<clus scale="   55.489">  2  5  1 -1</clus>
</clustering>
</event>
<event>
 9    1  0.9000149E-006  0.1508899E+03  0.7546771E-02  0.1200573E+00
         -1   -1    0    0    0  501 -0.00000000000E+00  0.00000000000E+00  0.38254360995E+03  0.38254360995E+03  0.00000000000E+00 0.  1.
          1   -1    0    0  502    0  0.00000000000E+00 -0.00000000000E+00 -0.13406681804E+03  0.13406681804E+03  0.00000000000E+00 0. -1.
         23    2    1    2    0    0 -0.39637653448E+00  0.13277414718E+03  0.27881697630E+03  0.32262671678E+03  0.93380730529E+02 0.  0.
         23    2    1    2    0    0  0.29893907362E+02 -0.80303653366E+02  0.83686648337E+01  0.12241813252E+03  0.87027824152E+02 0.  0.
        -11    1    4    4    0    0 -0.23347961616E+02 -0.24142633791E+02  0.26681268424E+02  0.42893870922E+02  0.00000000000E+00 0.  1.
         11    1    4    4    0    0  0.53241868978E+02 -0.56161019575E+02 -0.18312603590E+02  0.79524261595E+02  0.00000000000E+00 0. -1.
        -13    1    3    3    0    0  0.29086074792E+02  0.34821929664E+02  0.32199694505E+02  0.55636200972E+02  0.00000000000E+00 0. -1.
         13    1    3    3    0    0 -0.29482451326E+02  0.97952217516E+02  0.24661728179E+03  0.26699051581E+03  0.00000000000E+00 0.  1.
         21    1    1    2  502  501 -0.29497530827E+02 -0.52470493815E+02 -0.38708849225E+02  0.71565578698E+02  0.00000000000E+00 0. -1.
<scales pt_clust_5="13000.00000" pt_clust_6="13000.00000" pt_clust_7="13000.00000" pt_clust_8="13000.00000" pt_clust_9="60.19350"></scales>
<clustering>
<clus scale="   60.193">  2  9  1 -1</clus>
<clus scale="   87.028">  5  6 -1 -1</clus>
<clus scale="   93.381">  7  8 -1 -1</clus>
<clus scale="  147.043">  2  5  1 -1</clus>
<clus scale="   60.193">  2  5  1 -1</clus>
</clustering>
</event>
<event>
 9    1  0.9000149E-006  0.1487047E+03  0.7546771E-02  0.1203960E+00
          1   -1    0    0  502    0  0.00000000000E+00  0.00000000000E+00  0.81278507178E+03  0.81278507178E+03  0.00000000000E+00 0. -1.
         -1   -1    0    0    0  501 -0.00000000000E+00 -0.00000000000E+00 -0.44253524500E+02  0.44253524500E+02  0.00000000000E+00 0.  1.
         23    2    1    2    0    0 -0.74565507898E+02  0.46845757003E+02  0.14937114874E+03  0.19977850206E+03  0.99222829484E+02 0.  0.
         23    2    1    2    0    0  0.12007355945E+03 -0.21608492705E+02  0.55110210065E+03  0.57158726203E+03  0.90077112162E+02 0.  0.
        -11    1    3    3    0    0 -0.47943826476E+02  0.35580046307E+02  0.13957343016E+02  0.61313600583E+02  0.00000000000E+00 0.  1.
         11    1    3    3    0    0 -0.26621681422E+02  0.11265710696E+02  0.13541380573E+03  0.13846490148E+03  0.00000000000E+00 0. -1.
        -11    1    4    4    0    0  0.89049235886E+01  0.26248649202E+02  0.15310930062E+03  0.15559803079E+03  0.00000000000E+00 0.  1.
         11    1    4    4    0    0  0.11116863586E+03 -0.47857141908E+02  0.39799280003E+03  0.41598923123E+03  0.00000000000E+00 0. -1.
         21    1    1    2  502  501 -0.45508051549E+02 -0.25237264298E+02  0.68058297886E+02  0.85672832194E+02  0.00000000000E+00 0.  1.
<scales pt_clust_5="13000.00000" pt_clust_6="13000.00000" pt_clust_7="13000.00000" pt_clust_8="13000.00000" pt_clust_9="52.03751"></scales>
<clustering>
<clus scale="   52.038">  2  9  1 -1</clus>
<clus scale="   90.077">  7  8 -1 -1</clus>
<clus scale="   99.223">  5  6 -1 -1</clus>
<clus scale="  142.765">  1  7  2 -1</clus>
<clus scale="  142.765">  1  5  2 -1</clus>
</clustering>
</event>
<event>
 9    1  0.9000149E-006  0.1100950E+03  0.7546771E-02  0.1261071E+00
          1   -1    0    0  502    0  0.00000000000E+00  0.00000000000E+00  0.31527991179E+03  0.31527991179E+03  0.00000000000E+00 0. -1.
         -1   -1    0    0    0  501 -0.00000000000E+00 -0.00000000000E+00 -0.11066405948E+03  0.11066405948E+03  0.00000000000E+00 0.  1.
         23    2    1    2    0    0  0.43367542209E+02 -0.43588524153E+02 -0.58087574545E+02  0.12368696236E+03  0.90241870476E+02 0.  0.
         23    2    1    2    0    0 -0.61214557653E+02  0.12720395197E+02  0.22084191703E+03  0.24726843419E+03  0.91986388695E+02 0.  0.
        -13    1    3    3    0    0  0.99687215870E+01 -0.52912873437E+02  0.24741228170E+01  0.53900546093E+02  0.00000000000E+00 0. -1.
         13    1    3    3    0    0  0.33398820622E+02  0.93243492832E+01 -0.60561697362E+02  0.69786416270E+02  0.00000000000E+00 0.  1.
        -13    1    4    4    0    0 -0.30624552055E+02 -0.21745450647E+02  0.22805786936E+02  0.43941230413E+02  0.00000000000E+00 0.  1.
         13    1    4    4    0    0 -0.30590005598E+02  0.34465845844E+02  0.19803613009E+03  0.20332720377E+03  0.00000000000E+00 0. -1.
         21    1    1    2  502  501  0.17847015444E+02  0.30868128956E+02  0.41861509821E+02  0.54988574722E+02  0.00000000000E+00 0. -1.
<scales pt_clust_5="13000.00000" pt_clust_6="13000.00000" pt_clust_7="13000.00000" pt_clust_8="13000.00000" pt_clust_9="35.65610"></scales>
<clustering>
<clus scale="   35.656">  1  9  2 -1</clus>
<clus scale="   90.242">  5  6 -1 -1</clus>
<clus scale="   91.986">  7  8 -1 -1</clus>
<clus scale="  108.642">  2  5  1 -1</clus>
<clus scale="   35.656">  1  5  2 -1</clus>
</clustering>
</event>
<event>
 9    1  0.9000149E-006  0.1254974E+03  0.7546771E-02  0.1234572E+00
         -1   -1    0    0    0  501 -0.00000000000E+00  0.00000000000E+00  0.21404294453E+03  0.21404294453E+03  0.00000000000E+00 0.  1.
          1   -1    0    0  502    0  0.00000000000E+00 -0.00000000000E+00 -0.17739557860E+03  0.17739557860E+03  0.00000000000E+00 0. -1.
         23    2    1    2    0    0  0.56060501717E+02  0.40313731776E+02  0.54403511352E+02  0.12713737740E+03  0.91848755371E+02 0.  0.
         23    2    1    2    0    0 -0.13802697513E+03  0.87748595318E+01  0.68951429363E+01  0.16563058995E+03  0.90870816595E+02 0.  0.
        -11    1    3    3    0    0  0.78739383449E+02  0.13883901119E+02  0.35102318449E+02  0.87320249523E+02  0.00000000000E+00 0.  1.
         11    1    3    3    0    0 -0.22678881733E+02  0.26429830657E+02  0.19301192903E+02  0.39817127881E+02  0.00000000000E+00 0. -1.
        -13    1    4    4    0    0 -0.80955691066E+01 -0.25536486442E+02  0.15535390774E+02  0.30967704879E+02  0.00000000000E+00 0.  1.
         13    1    4    4    0    0 -0.12993140602E+03  0.34311345974E+02 -0.86402478378E+01  0.13466288507E+03  0.00000000000E+00 0. -1.
         21    1    1    2  502  501  0.81966473414E+02 -0.49088591308E+02 -0.24651288357E+02  0.98670555781E+02  0.00000000000E+00 0.  1.
<scales pt_clust_5="13000.00000" pt_clust_6="13000.00000" pt_clust_7="13000.00000" pt_clust_8="13000.00000" pt_clust_9="95.54158"></scales>
<clustering>
<clus scale="   90.871">  7  8 -1 -1</clus>
<clus scale="   91.849">  5  6 -1 -1</clus>
<clus scale="   95.542">  2  9  1 -1</clus>
<clus scale="  124.783">  2  7  1 -1</clus>
<clus scale="   95.542">  2  5  1 -1</clus>
</clustering>
</event>
<event>
 9    1  0.9000149E-006  0.9646989E+02  0.7546771E-02  0.1288314E+00
          2   -1    0    0  502    0  0.00000000000E+00  0.00000000000E+00  0.31747619260E+02  0.31747619260E+02  0.00000000000E+00 0. -1.
         -2   -1    0    0    0  501 -0.00000000000E+00 -0.00000000000E+00 -0.40000270977E+03  0.40000270977E+03  0.00000000000E+00 0.  1.
         23    2    1    2    0    0 -0.22890277454E+02  0.92592849985E+01 -0.17876342550E+03  0.20234486184E+03  0.91528037527E+02 0.  0.
         23    2    1    2    0    0  0.24058090919E+02 -0.30281132525E+02 -0.18208731335E+03  0.20708717234E+03  0.90739013327E+02 0.  0.
        -13    1    4    4    0    0  0.41115715449E+02  0.19110920640E+02 -0.69751267132E+02  0.83192359091E+02  0.00000000000E+00 0.  1.
         13    1    4    4    0    0 -0.17057624530E+02 -0.49392053165E+02 -0.11233604622E+03  0.12389481325E+03  0.00000000000E+00 0. -1.
        -13    1    3    3    0    0 -0.18090040102E+02  0.46629047358E+02 -0.13825322587E+03  0.14702201220E+03  0.00000000000E+00 0. -1.
         13    1    3    3    0    0 -0.48002373525E+01 -0.37369762359E+02 -0.40510199633E+02  0.55322849635E+02  0.00000000000E+00 0.  1.
         21    1    1    2  502  501 -0.11678134644E+01  0.21021847526E+02 -0.74043516580E+01  0.22318294854E+02  0.00000000000E+00 0.  1.
<scales pt_clust_5="13000.00000" pt_clust_6="13000.00000" pt_clust_7="13000.00000" pt_clust_8="13000.00000" pt_clust_9="21.05426"></scales>
<clustering>
<clus scale="   21.054">  1  9  2 -1</clus>
<clus scale="   90.739">  5  6 -1 -1</clus>
<clus scale="   91.528">  7  8 -1 -1</clus>
<clus scale="   95.722">  1  5  2 -1</clus>
<clus scale="   21.054">  1  5  2 -1</clus>
</clustering>
</event>
<event>
 9    1  0.9000149E-006  0.1075754E+03  0.7546771E-02  0.1265242E+00
          1   -1    0    0  502    0  0.00000000000E+00  0.00000000000E+00  0.16457772681E+03  0.16457772681E+03  0.00000000000E+00 0. -1.
         -1   -1    0    0    0  501 -0.00000000000E+00 -0.00000000000E+00 -0.13054547124E+03  0.13054547124E+03  0.00000000000E+00 0.  1.
         23    2    1    2    0    0  0.87442035797E+02  0.80858388283E+01  0.21170921466E+02  0.12800361430E+03  0.90693036915E+02 0.  0.
         23    2    1    2    0    0 -0.31880650052E+02  0.26414295906E+02  0.17815168108E+02  0.10153096161E+03  0.90978376958E+02 0.  0.
        -11    1    4    4    0    0 -0.83771033925E+01 -0.30731911093E+02  0.23346806245E+02  0.39493032075E+02  0.00000000000E+00 0. -1.
         11    1    4    4    0    0 -0.23503546659E+02  0.57146206999E+02 -0.55316381370E+01  0.62037929530E+02  0.00000000000E+00 0.  1.
        -13    1    3    3    0    0  0.50134962177E+02 -0.59545040505E+01 -0.33318407609E+02  0.60490386315E+02  0.00000000000E+00 0.  1.
         13    1    3    3    0    0  0.37307073620E+02  0.14040342879E+02  0.54489329075E+02  0.67513227987E+02  0.00000000000E+00 0. -1.
         21    1    1    2  502  501 -0.55561385745E+02 -0.34500134734E+02 -0.49538340041E+01  0.65588622138E+02  0.00000000000E+00 0.  1.
<scales pt_clust_5="13000.00000" pt_clust_6="13000.00000" pt_clust_7="13000.00000" pt_clust_8="13000.00000" pt_clust_9="65.40128"></scales>
<clustering>
<clus scale="   65.401">  2  9  1 -1</clus>
<clus scale="   90.693">  7  8 -1 -1</clus>
<clus scale="   90.978">  5  6 -1 -1</clus>
<clus scale="  107.334">  2  7  1 -1</clus>
<clus scale="  107.575">  1  5  2 -1</clus>
</clustering>
</event>
<event>
 9    1  0.9000149E-006  0.1037140E+03  0.7546771E-02  0.1279189E+00
          3   -1    0    0  502    0  0.00000000000E+00  0.00000000000E+00  0.18047746021E+03  0.18047746021E+03  0.00000000000E+00 0. -1.
         -3   -1    0    0    0  501 -0.00000000000E+00 -0.00000000000E+00 -0.70357684932E+02  0.70357684932E+02  0.00000000000E+00 0.  1.
         23    2    1    2    0    0  0.23307416638E+02  0.98110616193E+01  0.38768170991E+02  0.10176056127E+03  0.90624213911E+02 0.  0.
         23    2    1    2    0    0  0.22550107789E+01 -0.18504283752E+01  0.48150709269E+02  0.11364732168E+03  0.10290147600E+03 0.  0.
        -11    1    3    3    0    0 -0.28712871082E+02  0.24918327453E+02  0.61036045142E+01  0.38504623059E+02  0.00000000000E+00 0.  1.
         11    1    3    3    0    0  0.52020287721E+02 -0.15107265834E+02  0.32664566476E+02  0.63255938208E+02  0.00000000000E+00 0. -1.
        -11    1    4    4    0    0  0.25557892391E+02  0.24418364255E+02  0.65538423358E+02  0.74463060054E+02  0.00000000000E+00 0. -1.
         11    1    4    4    0    0 -0.23302881612E+02 -0.26268792630E+02 -0.17387714089E+02  0.39184261623E+02  0.00000000000E+00 0.  1.
         21    1    1    2  502  501 -0.25562427417E+02 -0.79606332441E+01  0.23200895018E+02  0.35427262197E+02  0.00000000000E+00 0. -1.
<scales pt_clust_5="13000.00000" pt_clust_6="13000.00000" pt_clust_7="13000.00000" pt_clust_8="13000.00000" pt_clust_9="26.77330"></scales>
<clustering>
<clus scale="   26.773">  1  9  2 -1</clus>
<clus scale="   90.624">  5  6 -1 -1</clus>
<clus scale="   91.546">  2  5  1 -1</clus>
<clus scale="  102.901">  7  8 -1 -1</clus>
<clus scale="   26.773">  1  5  2 -1</clus>
</clustering>
</event>
<event>
 9    1  0.9000149E-006  0.9938052E+02  0.7546771E-02  0.1281672E+00
          1   -1    0    0  502    0  0.00000000000E+00  0.00000000000E+00  0.51452523666E+03  0.51452523666E+03  0.00000000000E+00 0. -1.
         -1   -1    0    0    0  501 -0.00000000000E+00 -0.00000000000E+00 -0.45879692430E+02  0.45879692430E+02  0.00000000000E+00 0.  1.
         23    2    1    2    0    0 -0.33240524419E+02  0.13732999417E+02  0.31610855407E+02  0.10338112198E+03  0.91623591209E+02 0.  0.
         23    2    1    2    0    0  0.54190037753E+02  0.81367749594E+00  0.37752972030E+03  0.39228333138E+03  0.91762193240E+02 0.  0.
        -13    1    4    4    0    0  0.66549532495E+02 -0.30059299910E+02  0.27250278908E+03  0.28211730156E+03  0.00000000000E+00 0.  1.
         13    1    4    4    0    0 -0.12359494742E+02  0.30872977406E+02  0.10502693122E+03  0.11016602982E+03  0.00000000000E+00 0. -1.
        -13    1    3    3    0    0 -0.27328614172E+02 -0.35207612294E+02 -0.45798853932E+00  0.44571727244E+02  0.00000000000E+00 0.  1.
         13    1    3    3    0    0 -0.59119102469E+01  0.48940611711E+02  0.32068843946E+02  0.58809394738E+02  0.00000000000E+00 0. -1.
         21    1    1    2  502  501 -0.20949513334E+02 -0.14546676913E+02  0.59504968524E+02  0.64740475725E+02  0.00000000000E+00 0. -1.
<scales pt_clust_5="13000.00000" pt_clust_6="13000.00000" pt_clust_7="13000.00000" pt_clust_8="13000.00000" pt_clust_9="25.50466"></scales>
<clustering>
<clus scale="   25.505">  1  9  2 -1</clus>
<clus scale="   91.624">  7  8 -1 -1</clus>
<clus scale="   91.762">  5  6 -1 -1</clus>
<clus scale="   99.253">  2  7  1 -1</clus>
<clus scale="   25.505">  1  5  2 -1</clus>
</clustering>
</event>
<event>
 9    1  0.9000149E-006  0.1094064E+03  0.7546771E-02  0.1269138E+00
          1   -1    0    0  502    0  0.00000000000E+00  0.00000000000E+00  0.10139778359E+03  0.10139778359E+03  0.00000000000E+00 0. -1.
         -1   -1    0    0    0  501 -0.00000000000E+00 -0.00000000000E+00 -0.28714915160E+03  0.28714915160E+03  0.00000000000E+00 0.  1.
         23    2    1    2    0    0  0.13673176915E+02 -0.57352958996E+01 -0.14696860448E+03  0.18243704507E+03  0.10706846093E+03 0.  0.
         23    2    1    2    0    0 -0.59812840324E+01  0.36907122297E+02 -0.97560762050E+02  0.13913451339E+03  0.91882528754E+02 0.  0.
        -11    1    4    4    0    0 -0.27037922397E+02  0.15454711237E+02 -0.10385404472E+03  0.10842306005E+03  0.00000000000E+00 0.  1.
         11    1    4    4    0    0  0.21056638364E+02  0.21452411060E+02  0.62932826682E+01  0.30711453340E+02  0.00000000000E+00 0. -1.
        -13    1    3    3    0    0  0.29667666620E+02 -0.51419720301E+02 -0.87915926759E+02  0.10608189410E+03  0.00000000000E+00 0.  1.
         13    1    3    3    0    0 -0.15994489705E+02  0.45684424402E+02 -0.59052677720E+02  0.76355150971E+02  0.00000000000E+00 0. -1.
         21    1    1    2  502  501 -0.76918928828E+01 -0.31171826398E+02  0.58777998518E+02  0.66975376720E+02  0.00000000000E+00 0. -1.
<scales pt_clust_5="13000.00000" pt_clust_6="13000.00000" pt_clust_7="13000.00000" pt_clust_8="13000.00000" pt_clust_9="32.10682"></scales>
<clustering>
<clus scale="   32.107">  1  9  2 -1</clus>
<clus scale="   91.883">  5  6 -1 -1</clus>
<clus scale="   94.597">  1  5  2 -1</clus>
<clus scale="  107.068">  7  8 -1 -1</clus>
<clus scale="   32.107">  1  5  2 -1</clus>
</clustering>
</event>
<event>
 9    1  0.9000149E-006  0.9224656E+02  0.7546771E-02  0.1298498E+00
         -1   -1    0    0    0  501 -0.00000000000E+00  0.00000000000E+00  0.13264826790E+03  0.13264826790E+03  0.00000000000E+00 0.  1.
          1   -1    0    0  502    0  0.00000000000E+00 -0.00000000000E+00 -0.95026814813E+02  0.95026814813E+02  0.00000000000E+00 0. -1.
         23    2    1    2    0    0  0.53528812766E+01 -0.16810412610E+02  0.30393543528E+02  0.97661566877E+02  0.91119541518E+02 0.  0.
         23    2    1    2    0    0 -0.20889798975E+02 -0.49865342269E+01  0.28008214939E+02  0.96126589226E+02  0.89412593226E+02 0.  0.
        -11    1    4    4    0    0  0.10990094158E+02  0.22668936642E+02 -0.20028433788E+02  0.32183862697E+02  0.00000000000E+00 0. -1.
         11    1    4    4    0    0 -0.31879893132E+02 -0.27655470869E+02  0.48036648727E+02  0.63942726530E+02  0.00000000000E+00 0.  1.
        -13    1    3    3    0    0 -0.87195606051E+01  0.22739291138E+02 -0.20398068743E+02  0.31767708558E+02  0.00000000000E+00 0.  1.
         13    1    3    3    0    0  0.14072441882E+02 -0.39549703748E+02  0.50791612271E+02  0.65893858319E+02  0.00000000000E+00 0. -1.
         21    1    1    2  502  501  0.15536917698E+02  0.21796946837E+02 -0.20780305383E+02  0.33886926606E+02  0.00000000000E+00 0. -1.
<scales pt_clust_5="13000.00000" pt_clust_6="13000.00000" pt_clust_7="13000.00000" pt_clust_8="13000.00000" pt_clust_9="26.76757"></scales>
<clustering>
<clus scale="   26.768">  2  9  1 -1</clus>
<clus scale="   89.413">  5  6 -1 -1</clus>
<clus scale="   90.561">  2  5  1 -1</clus>
<clus scale="   91.120">  7  8 -1 -1</clus>
<clus scale="   26.768">  2  5  1 -1</clus>
</clustering>
</event>
<event>
 9    1  0.9000149E-006  0.1051208E+03  0.7546771E-02  0.1273603E+00
         -2   -1    0    0    0  501 -0.00000000000E+00  0.00000000000E+00  0.24666668514E+03  0.24666668514E+03  0.00000000000E+00 0.  1.
          2   -1    0    0  502    0  0.00000000000E+00 -0.00000000000E+00 -0.57821585958E+02  0.57821585958E+02  0.00000000000E+00 0. -1.
         23    2    1    2    0    0 -0.23194386196E+02  0.68647104625E+01  0.11209270187E+03  0.14626514368E+03  0.90794353587E+02 0.  0.
         23    2    1    2    0    0  0.31734013280E+02 -0.33757009755E+02  0.52103225294E+02  0.12075710717E+03  0.98594875826E+02 0.  0.
        -11    1    4    4    0    0  0.38634873581E+01 -0.57914626305E+02  0.14028002621E+01  0.58060299028E+02  0.00000000000E+00 0. -1.
         11    1    4    4    0    0  0.27870525922E+02  0.24157616550E+02  0.50700425032E+02  0.62696808140E+02  0.00000000000E+00 0.  1.
        -11    1    3    3    0    0  0.30283097530E+02 -0.16711277011E+02  0.32032609502E+02  0.47142558764E+02  0.00000000000E+00 0. -1.
         11    1    3    3    0    0 -0.53477483726E+02  0.23575987473E+02  0.80060092369E+02  0.99122584919E+02  0.00000000000E+00 0.  1.
         21    1    1    2  502  501 -0.85396270848E+01  0.26892299293E+02  0.24649172021E+02  0.37466020249E+02  0.00000000000E+00 0.  1.
<scales pt_clust_5="13000.00000" pt_clust_6="13000.00000" pt_clust_7="13000.00000" pt_clust_8="13000.00000" pt_clust_9="28.21562"></scales>
<clustering>
<clus scale="   28.216">  1  9  2 -1</clus>
<clus scale="   90.794">  7  8 -1 -1</clus>
<clus scale="   97.842">  1  7  2 -1</clus>
<clus scale="   98.595">  5  6 -1 -1</clus>
<clus scale="  105.121">  2  5  1 -1</clus>
</clustering>
</event>
<event>
 9    1  0.9000149E-006  0.9580472E+02  0.7546771E-02  0.1290094E+00
         -1   -1    0    0    0  501 -0.00000000000E+00  0.00000000000E+00  0.23970550383E+03  0.23970550383E+03  0.00000000000E+00 0.  1.
          1   -1    0    0  502    0  0.00000000000E+00 -0.00000000000E+00 -0.88671410404E+02  0.88671410404E+02  0.00000000000E+00 0. -1.
         23    2    1    2    0    0  0.19583587693E+02  0.92921256103E+01  0.11892512508E+03  0.15205112175E+03  0.92230676815E+02 0.  0.
         23    2    1    2    0    0  0.27736645560E+02  0.18619672413E+02 -0.19180195596E+02  0.10116695214E+03  0.93546023934E+02 0.  0.
        -11    1    3    3    0    0 -0.20076906751E+02  0.24657469151E+02  0.10101456120E+03  0.10590096574E+03  0.00000000000E+00 0.  1.
         11    1    3    3    0    0  0.39660494444E+02 -0.15365343540E+02  0.17910563877E+02  0.46150156014E+02  0.00000000000E+00 0. -1.
        -13    1    4    4    0    0 -0.23496286434E+02 -0.23236842597E+02 -0.88277977581E+01  0.34204624590E+02  0.00000000000E+00 0.  1.
         13    1    4    4    0    0  0.51232931994E+02  0.41856515010E+02 -0.10352397838E+02  0.66962327547E+02  0.00000000000E+00 0. -1.
         21    1    1    2  502  501 -0.47320233253E+02 -0.27911798023E+02  0.51289163944E+02  0.75158840345E+02  0.00000000000E+00 0.  1.
<scales pt_clust_5="13000.00000" pt_clust_6="13000.00000" pt_clust_7="13000.00000" pt_clust_8="13000.00000" pt_clust_9="54.93881"></scales>
<clustering>
<clus scale="   54.939">  1  9  2 -1</clus>
<clus scale="   92.231">  5  6 -1 -1</clus>
<clus scale="   93.546">  7  8 -1 -1</clus>
<clus scale="   94.521">  1  5  2 -1</clus>
<clus scale="   95.805">  2  5  1 -1</clus>
</clustering>
</event>
<event>
 9    1  0.9000149E-006  0.3208188E+03  0.7546771E-02  0.1075428E+00
         -4   -1    0    0    0  501 -0.00000000000E+00  0.00000000000E+00  0.53349081980E+03  0.53349081980E+03  0.00000000000E+00 0.  1.
          4   -1    0    0  502    0  0.00000000000E+00 -0.00000000000E+00 -0.29339393341E+03  0.29339393341E+03  0.00000000000E+00 0. -1.
         23    2    1    2    0    0 -0.27505073243E+03  0.14286990181E+03  0.34896031998E+03  0.47615926208E+03  0.94284800953E+02 0.  0.
         23    2    1    2    0    0  0.27099036344E+03 -0.11959388626E+03 -0.97134806413E+02  0.32434708723E+03  0.89595690026E+02 0.  0.
        -13    1    4    4    0    0  0.16599037680E+03 -0.85547164020E+02 -0.10401163496E+03  0.21375112320E+03  0.00000000000E+00 0. -1.
         13    1    4    4    0    0  0.10499998664E+03 -0.34046722242E+02  0.68768285460E+01  0.11059596403E+03  0.00000000000E+00 0.  1.
        -13    1    3    3    0    0 -0.19060018618E+03  0.14253042799E+03  0.27705162286E+03  0.36524095554E+03  0.00000000000E+00 0.  1.
         13    1    3    3    0    0 -0.84450546250E+02  0.33947382403E+00  0.71908697120E+02  0.11091830654E+03  0.00000000000E+00 0. -1.
         21    1    1    2  502  501  0.40603689930E+01 -0.23276015551E+02 -0.11728627179E+02  0.26378403890E+02  0.00000000000E+00 0.  1.
<scales pt_clust_5="13000.00000" pt_clust_6="13000.00000" pt_clust_7="13000.00000" pt_clust_8="13000.00000" pt_clust_9="23.62752"></scales>
<clustering>
<clus scale="   23.628">  2  9  1 -1</clus>
<clus scale="   89.596">  5  6 -1 -1</clus>
<clus scale="   94.285">  7  8 -1 -1</clus>
<clus scale="  319.472">  2  5  1 -1</clus>
<clus scale="   23.628">  2  5  1 -1</clus>
</clustering>
</event>
<event>
 9    1  0.9000149E-006  0.1291348E+03  0.7546771E-02  0.1229184E+00
          2   -1    0    0  502    0  0.00000000000E+00  0.00000000000E+00  0.30857275244E+03  0.30857275244E+03  0.00000000000E+00 0. -1.
         -2   -1    0    0    0  501 -0.00000000000E+00 -0.00000000000E+00 -0.18378423628E+03  0.18378423628E+03  0.00000000000E+00 0.  1.
         23    2    1    2    0    0 -0.29029422509E+01  0.10578931508E+03 -0.11338665272E+03  0.17843084191E+03  0.88211258196E+02 0.  0.
         23    2    1    2    0    0 -0.14425505018E+02 -0.58548412344E+02  0.50176603002E+02  0.11931001502E+03  0.89895363690E+02 0.  0.
        -13    1    4    4    0    0  0.22299612320E+02 -0.29682341346E+02  0.60954871114E+02  0.71370935330E+02  0.00000000000E+00 0.  1.
         13    1    4    4    0    0 -0.36725117338E+02 -0.28866070998E+02 -0.10778268112E+02  0.47939079693E+02  0.00000000000E+00 0. -1.
        -13    1    3    3    0    0 -0.40303932219E+02  0.76774876350E+02 -0.52712263773E+02  0.10147596436E+03  0.00000000000E+00 0.  1.
         13    1    3    3    0    0  0.37400989968E+02  0.29014438731E+02 -0.60674388943E+02  0.76954877553E+02  0.00000000000E+00 0. -1.
         21    1    1    2  502  501  0.17328447269E+02 -0.47240902737E+02  0.18799856588E+03  0.19461613178E+03  0.00000000000E+00 0. -1.
<scales pt_clust_5="13000.00000" pt_clust_6="13000.00000" pt_clust_7="13000.00000" pt_clust_8="13000.00000" pt_clust_9="50.31876"></scales>
<clustering>
<clus scale="   50.319">  1  9  2 -1</clus>
<clus scale="   88.211">  7  8 -1 -1</clus>
<clus scale="   89.895">  5  6 -1 -1</clus>
<clus scale="  127.968">  2  7  1 -1</clus>
<clus scale="   50.319">  1  5  2 -1</clus>
</clustering>
</event>
<event>
 9    1  0.9000149E-006  0.1108466E+03  0.7546771E-02  0.1266947E+00
          2   -1    0    0  502    0  0.00000000000E+00  0.00000000000E+00  0.31266224633E+03  0.31266224633E+03  0.00000000000E+00 0. -1.
         -2   -1    0    0    0  501 -0.00000000000E+00 -0.00000000000E+00 -0.57302290147E+02  0.57302290147E+02  0.00000000000E+00 0.  1.
         23    2    1    2    0    0  0.60946268806E+01 -0.35213986117E+02  0.34403727700E+02  0.11796358357E+03  0.10702626442E+03 0.  0.
         23    2    1    2    0    0  0.10406090199E+02  0.15523165022E+02  0.14579716321E+03  0.17257244925E+03  0.90416713472E+02 0.  0.
        -11    1    3    3    0    0  0.11481494458E+02 -0.72640551772E+02  0.13543813349E+02  0.74779070312E+02  0.00000000000E+00 0.  1.
         11    1    3    3    0    0 -0.53868675774E+01  0.37426565655E+02  0.20859914351E+02  0.43184513263E+02  0.00000000000E+00 0. -1.
        -11    1    4    4    0    0  0.28953190822E+02  0.30462621769E+02  0.23852366775E+02  0.48323844886E+02  0.00000000000E+00 0.  1.
         11    1    4    4    0    0 -0.18547100623E+02 -0.14939456747E+02  0.12194479643E+03  0.12424860436E+03  0.00000000000E+00 0. -1.
         21    1    1    2  502  501 -0.16500717079E+02  0.19690821095E+02  0.75159065271E+02  0.79428503649E+02  0.00000000000E+00 0.  1.
<scales pt_clust_5="13000.00000" pt_clust_6="13000.00000" pt_clust_7="13000.00000" pt_clust_8="13000.00000" pt_clust_9="25.69051"></scales>
<clustering>
<clus scale="   25.691">  1  9  2 -1</clus>
<clus scale="   90.417">  7  8 -1 -1</clus>
<clus scale="   94.908">  1  7  2 -1</clus>
<clus scale="  107.026">  5  6 -1 -1</clus>
<clus scale="   25.691">  1  5  2 -1</clus>
</clustering>
</event>
<event>
 9    1  0.9000149E-006  0.1038791E+03  0.7546771E-02  0.1277551E+00
          3   -1    0    0  502    0  0.00000000000E+00  0.00000000000E+00  0.10965056168E+03  0.10965056168E+03  0.00000000000E+00 0. -1.
         -3   -1    0    0    0  501 -0.00000000000E+00 -0.00000000000E+00 -0.16026083880E+03  0.16026083880E+03  0.00000000000E+00 0.  1.
         23    2    1    2    0    0  0.22653153566E+02 -0.16930894005E+02 -0.94303939447E+02  0.13982754153E+03  0.99290925245E+02 0.  0.
         23    2    1    2    0    0 -0.39684303025E+02  0.50317928095E+01  0.21793840006E+02  0.99896926697E+02  0.88905914629E+02 0.  0.
        -11    1    3    3    0    0  0.26552079035E+02 -0.36848989516E+02 -0.10675607491E+03  0.11601603535E+03  0.00000000000E+00 0.  1.
         11    1    3    3    0    0 -0.38989254690E+01  0.19918095512E+02  0.12452135462E+02  0.23811506172E+02  0.00000000000E+00 0. -1.
        -13    1    4    4    0    0 -0.29982309495E+01  0.41844683582E+02 -0.34985820546E+01  0.42097589115E+02  0.00000000000E+00 0.  1.
         13    1    4    4    0    0 -0.36686072075E+02 -0.36812890772E+02  0.25292422060E+02  0.57799337583E+02  0.00000000000E+00 0. -1.
         21    1    1    2  502  501  0.17031149459E+02  0.11899101195E+02  0.21899822327E+02  0.30186932257E+02  0.00000000000E+00 0. -1.
<scales pt_clust_5="13000.00000" pt_clust_6="13000.00000" pt_clust_7="13000.00000" pt_clust_8="13000.00000" pt_clust_9="20.77616"></scales>
<clustering>
<clus scale="   20.776">  1  9  2 -1</clus>
<clus scale="   88.906">  7  8 -1 -1</clus>
<clus scale="   94.002">  1  7  2 -1</clus>
<clus scale="   99.291">  5  6 -1 -1</clus>
<clus scale="   20.776">  1  5  2 -1</clus>
</clustering>
</event>
<event>
 9    1  0.9000149E-006  0.1049235E+03  0.7546771E-02  0.1270781E+00
         -1   -1    0    0    0  501 -0.00000000000E+00  0.00000000000E+00  0.86980169593E+02  0.86980169593E+02  0.00000000000E+00 0.  1.
          1   -1    0    0  502    0  0.00000000000E+00 -0.00000000000E+00 -0.28922834668E+03  0.28922834668E+03  0.00000000000E+00 0. -1.
         23    2    1    2    0    0 -0.23665264789E+02 -0.34805905935E+01  0.28678665059E+02  0.10110854788E+03  0.93959104705E+02 0.  0.
         23    2    1    2    0    0  0.40935137434E+02  0.31491321408E+02 -0.21205260301E+03  0.23716467552E+03  0.92808340529E+02 0.  0.
        -11    1    4    4    0    0  0.67929333255E+01 -0.27367171718E+02 -0.11647719327E+03  0.11984173974E+03  0.00000000000E+00 0.  1.
         11    1    4    4    0    0  0.34142204108E+02  0.58858493126E+02 -0.95575409737E+02  0.11732293578E+03  0.00000000000E+00 0. -1.
        -13    1    3    3    0    0 -0.56351037942E+02 -0.12866018431E+02  0.33429028100E+02  0.66771804133E+02  0.00000000000E+00 0. -1.
         13    1    3    3    0    0  0.32685773153E+02  0.93854278377E+01 -0.47503630407E+01  0.34336743750E+02  0.00000000000E+00 0.  1.
         21    1    1    2  502  501 -0.17269872645E+02 -0.28010730815E+02 -0.18874239134E+02  0.37935292866E+02  0.00000000000E+00 0. -1.
<scales pt_clust_5="13000.00000" pt_clust_6="13000.00000" pt_clust_7="13000.00000" pt_clust_8="13000.00000" pt_clust_9="32.90668"></scales>
<clustering>
<clus scale="   32.907">  1  9  2 -1</clus>
<clus scale="   92.808">  5  6 -1 -1</clus>
<clus scale="   93.959">  7  8 -1 -1</clus>
<clus scale="  103.894">  2  5  1 -1</clus>
<clus scale="  103.894">  2  5  1 -1</clus>
</clustering>
</event>
<event>
 9    1  0.9000149E-006  0.1162275E+03  0.7546771E-02  0.1249459E+00
          1   -1    0    0  502    0  0.00000000000E+00  0.00000000000E+00  0.63626268495E+03  0.63626268495E+03  0.00000000000E+00 0. -1.
         -1   -1    0    0    0  501 -0.00000000000E+00 -0.00000000000E+00 -0.39105663339E+02  0.39105663339E+02  0.00000000000E+00 0.  1.
         23    2    1    2    0    0 -0.39773070031E+02  0.45325853145E+02  0.13178438101E+03  0.17135554382E+03  0.91429039476E+02 0.  0.
         23    2    1    2    0    0  0.94515894806E+02 -0.43482283416E+02  0.34479627163E+03  0.37157853258E+03  0.91444921150E+02 0.  0.
        -11    1    3    3    0    0 -0.61948319995E+02  0.33952724833E+01  0.72114898328E+02  0.95129810188E+02  0.00000000000E+00 0. -1.
         11    1    3    3    0    0  0.22175249964E+02  0.41930580661E+02  0.59669482677E+02  0.76225733637E+02  0.00000000000E+00 0.  1.
        -11    1    4    4    0    0  0.59523682027E+02 -0.71945490631E+02  0.22880204446E+03  0.24712263735E+03  0.00000000000E+00 0. -1.
         11    1    4    4    0    0  0.34992212778E+02  0.28463207215E+02  0.11599422717E+03  0.12445589523E+03  0.00000000000E+00 0.  1.
         21    1    1    2  502  501 -0.54742824775E+02 -0.18435697282E+01  0.12057636897E+03  0.13243427188E+03  0.00000000000E+00 0. -1.
<scales pt_clust_5="13000.00000" pt_clust_6="13000.00000" pt_clust_7="13000.00000" pt_clust_8="13000.00000" pt_clust_9="54.77386"></scales>
<clustering>
<clus scale="   54.774">  1  9  2 -1</clus>
<clus scale="   91.429">  5  6 -1 -1</clus>
<clus scale="   91.445">  7  8 -1 -1</clus>
<clus scale="  116.215">  2  5  1 -1</clus>
<clus scale="   54.774">  1  5  2 -1</clus>
</clustering>
</event>
<event>
 9    1  0.9000149E-006  0.1086806E+03  0.7546771E-02  0.1263607E+00
         -1   -1    0    0    0  501 -0.00000000000E+00  0.00000000000E+00  0.23657165707E+03  0.23657165707E+03  0.00000000000E+00 0.  1.
          1   -1    0    0  502    0  0.00000000000E+00 -0.00000000000E+00 -0.11439063817E+03  0.11439063817E+03  0.00000000000E+00 0. -1.
         23    2    1    2    0    0 -0.64010086633E+02  0.37531126464E+02  0.15002793081E+03  0.18987467176E+03  0.89655642911E+02 0.  0.
         23    2    1    2    0    0  0.24888920724E+02 -0.28918505457E+02  0.20559272518E+02  0.98256090365E+02  0.88180708063E+02 0.  0.
        -11    1    4    4    0    0 -0.13427131973E+02 -0.40596127405E+02  0.35428394399E+02  0.55529312647E+02  0.00000000000E+00 0.  1.
         11    1    4    4    0    0  0.38316052697E+02  0.11677621948E+02 -0.14869121881E+02  0.42726777718E+02  0.00000000000E+00 0. -1.
        -13    1    3    3    0    0  0.45224634297E+01 -0.21532447060E+02  0.52078753372E+02  0.56535789591E+02  0.00000000000E+00 0.  1.
         13    1    3    3    0    0 -0.68532550062E+02  0.59063573524E+02  0.97949177442E+02  0.13333888216E+03  0.00000000000E+00 0. -1.
         21    1    1    2  502  501  0.39121165909E+02 -0.86126210065E+01 -0.48406184428E+02  0.62831533115E+02  0.00000000000E+00 0. -1.
<scales pt_clust_5="13000.00000" pt_clust_6="13000.00000" pt_clust_7="13000.00000" pt_clust_8="13000.00000" pt_clust_9="40.05799"></scales>
<clustering>
<clus scale="   40.058">  2  9  1 -1</clus>
<clus scale="   88.181">  5  6 -1 -1</clus>
<clus scale="   89.656">  7  8 -1 -1</clus>
<clus scale="  107.467">  2  5  1 -1</clus>
<clus scale="   40.058">  2  5  1 -1</clus>
</clustering>
</event>
<event>
 9    1  0.9000149E-006  0.9626377E+02  0.7546771E-02  0.1288546E+00
         -1   -1    0    0    0  501 -0.00000000000E+00  0.00000000000E+00  0.19948168161E+03  0.19948168161E+03  0.00000000000E+00 0.  1.
          1   -1    0    0  502    0  0.00000000000E+00 -0.00000000000E+00 -0.90594982710E+02  0.90594982710E+02  0.00000000000E+00 0. -1.
         23    2    1    2    0    0  0.35964199918E+02  0.11083517572E+02  0.11789790701E+03  0.15353859768E+03  0.90873078870E+02 0.  0.
         23    2    1    2    0    0 -0.18346237214E+02  0.52714974228E+01  0.23476369614E+02  0.96123690084E+02  0.91237332052E+02 0.  0.
        -11    1    4    4    0    0 -0.55564571692E+02  0.35010752145E+01  0.17683674687E+02  0.58415678592E+02  0.00000000000E+00 0.  1.
         11    1    4    4    0    0  0.37218334478E+02  0.17704222083E+01  0.57926949274E+01  0.37708011491E+02  0.00000000000E+00 0. -1.
        -13    1    3    3    0    0  0.51697616837E+02  0.39930775634E+02  0.74044717407E+02  0.98740724148E+02  0.00000000000E+00 0. -1.
         13    1    3    3    0    0 -0.15733416918E+02 -0.28847258061E+02  0.43853189602E+02  0.54797873534E+02  0.00000000000E+00 0.  1.
         21    1    1    2  502  501 -0.17617962704E+02 -0.16355014995E+02 -0.32487577727E+02  0.40414376550E+02  0.00000000000E+00 0.  1.
<scales pt_clust_5="13000.00000" pt_clust_6="13000.00000" pt_clust_7="13000.00000" pt_clust_8="13000.00000" pt_clust_9="24.03912"></scales>
<clustering>
<clus scale="   24.039">  2  9  1 -1</clus>
<clus scale="   90.873">  7  8 -1 -1</clus>
<clus scale="   91.237">  5  6 -1 -1</clus>
<clus scale="   95.919">  1  7  2 -1</clus>
<clus scale="   24.039">  2  5  1 -1</clus>
</clustering>
</event>
<event>
 9    1  0.9000149E-006  0.9695842E+02  0.7546771E-02  0.1288404E+00
          1   -1    0    0  502    0  0.00000000000E+00  0.00000000000E+00  0.44504479541E+03  0.44504479541E+03  0.00000000000E+00 0. -1.
         -1   -1    0    0    0  501 -0.00000000000E+00 -0.00000000000E+00 -0.31378010636E+02  0.31378010636E+02  0.00000000000E+00 0.  1.
         23    2    1    2    0    0 -0.22461741672E+02 -0.21087315242E+02  0.93629107591E+02  0.13398608327E+03  0.90756024691E+02 0.  0.
         23    2    1    2    0    0  0.14415442176E+02  0.42488280748E+02  0.24791214022E+03  0.26677406790E+03  0.87720664982E+02 0.  0.
        -13    1    3    3    0    0 -0.12125577137E+00 -0.55051277060E+02  0.50275295459E+02  0.74553760082E+02  0.00000000000E+00 0.  1.
         13    1    3    3    0    0 -0.22340485901E+02  0.33963961818E+02  0.43353812132E+02  0.59432323184E+02  0.00000000000E+00 0. -1.
        -13    1    4    4    0    0  0.42719335384E+02  0.20731185664E+02  0.65498079669E+02  0.80899456827E+02  0.00000000000E+00 0.  1.
         13    1    4    4    0    0 -0.28303893207E+02  0.21757095084E+02  0.18241406055E+03  0.18587461107E+03  0.00000000000E+00 0. -1.
         21    1    1    2  502  501  0.80462994958E+01 -0.21400965506E+02  0.72125536964E+02  0.75662654873E+02  0.00000000000E+00 0.  1.
<scales pt_clust_5="13000.00000" pt_clust_6="13000.00000" pt_clust_7="13000.00000" pt_clust_8="13000.00000" pt_clust_9="22.86360"></scales>
<clustering>
<clus scale="   22.864">  1  9  2 -1</clus>
<clus scale="   87.721">  7  8 -1 -1</clus>
<clus scale="   90.756">  5  6 -1 -1</clus>
<clus scale="   94.123">  1  7  2 -1</clus>
<clus scale="   22.864">  1  5  2 -1</clus>
</clustering>
</event>
<event>
 9    1  0.9000149E-006  0.9290142E+02  0.7546771E-02  0.1297041E+00
         -1   -1    0    0    0  501 -0.00000000000E+00  0.00000000000E+00  0.25211107164E+02  0.25211107164E+02  0.00000000000E+00 0.  1.
          1   -1    0    0  502    0  0.00000000000E+00 -0.00000000000E+00 -0.63667043985E+03  0.63667043985E+03  0.00000000000E+00 0. -1.
         23    2    1    2    0    0  0.57946287999E+01  0.20146367137E+02 -0.16784225418E+03  0.19210910364E+03  0.91079259886E+02 0.  0.
         23    2    1    2    0    0  0.83673405913E+01  0.24066949343E+02 -0.20273121855E+03  0.22445351574E+03  0.92898887570E+02 0.  0.
        -13    1    3    3    0    0  0.21262581448E+02 -0.30150365795E+02 -0.43174210814E+02  0.56790442919E+02  0.00000000000E+00 0. -1.
         13    1    3    3    0    0 -0.15467952649E+02  0.50296732932E+02 -0.12466804337E+03  0.13531866072E+03  0.00000000000E+00 0.  1.
        -13    1    4    4    0    0 -0.29210301128E+02 -0.22125865175E+02 -0.71455483758E+02  0.80303684603E+02  0.00000000000E+00 0.  1.
         13    1    4    4    0    0  0.37577641719E+02  0.46192814518E+02 -0.13127573479E+03  0.14414983113E+03  0.00000000000E+00 0. -1.
         21    1    1    2  502  501 -0.14161969391E+02 -0.44213316480E+02 -0.24088585996E+03  0.24531892764E+03  0.00000000000E+00 0. -1.
<scales pt_clust_5="13000.00000" pt_clust_6="13000.00000" pt_clust_7="13000.00000" pt_clust_8="13000.00000" pt_clust_9="46.42606"></scales>
<clustering>
<clus scale="   46.426">  2  9  1 -1</clus>
<clus scale="   91.079">  5  6 -1 -1</clus>
<clus scale="   91.082">  1  5  2 -1</clus>
<clus scale="   92.899">  7  8 -1 -1</clus>
<clus scale="   46.426">  2  5  1 -1</clus>
</clustering>
</event>
<event>
 9    1  0.9000149E-006  0.1393235E+03  0.7546771E-02  0.1214294E+00
          3   -1    0    0  502    0  0.00000000000E+00  0.00000000000E+00  0.51535343195E+02  0.51535343195E+02  0.00000000000E+00 0. -1.
         -3   -1    0    0    0  501 -0.00000000000E+00 -0.00000000000E+00 -0.53380438282E+03  0.53380438282E+03  0.00000000000E+00 0.  1.
         23    2    1    2    0    0 -0.10931134036E+03  0.10366128345E+02 -0.27874190579E+03  0.31314916924E+03  0.91153312648E+02 0.  0.
         23    2    1    2    0    0  0.93372260962E+02 -0.43606627158E+02 -0.18628861604E+03  0.23149471535E+03  0.90919952258E+02 0.  0.
        -11    1    3    3    0    0 -0.61786016897E+02  0.51911151983E+01 -0.24954422919E+03  0.25713183755E+03  0.00000000000E+00 0.  1.
         11    1    3    3    0    0 -0.47525323461E+02  0.51750131464E+01 -0.29197676604E+02  0.56017331695E+02  0.00000000000E+00 0. -1.
        -13    1    4    4    0    0  0.34066734944E+02 -0.36252740328E+02 -0.15748532337E+03  0.16515577704E+03  0.00000000000E+00 0.  1.
         13    1    4    4    0    0  0.59305526019E+02 -0.73538868304E+01 -0.28803292669E+02  0.66338938313E+02  0.00000000000E+00 0. -1.
         21    1    1    2  502  501  0.15939079396E+02  0.33240498814E+02 -0.17238517794E+02  0.40695841422E+02  0.00000000000E+00 0. -1.
<scales pt_clust_5="13000.00000" pt_clust_6="13000.00000" pt_clust_7="13000.00000" pt_clust_8="13000.00000" pt_clust_9="36.86441"></scales>
<clustering>
<clus scale="   36.864">  1  9  2 -1</clus>
<clus scale="   90.920">  7  8 -1 -1</clus>
<clus scale="   91.153">  5  6 -1 -1</clus>
<clus scale="  139.171">  1  7  2 -1</clus>
<clus scale="   36.864">  1  5  2 -1</clus>
</clustering>
</event>
<event>
 9    1  0.9000149E-006  0.1950783E+03  0.7546771E-02  0.1153994E+00
          1   -1    0    0  502    0  0.00000000000E+00  0.00000000000E+00  0.89807776875E+02  0.89807776875E+02  0.00000000000E+00 0. -1.
         -1   -1    0    0    0  501 -0.00000000000E+00 -0.00000000000E+00 -0.54610200774E+03  0.54610200774E+03  0.00000000000E+00 0.  1.
         23    2    1    2    0    0 -0.11582219904E+02 -0.17723920394E+03 -0.35460611233E+03  0.40739965020E+03  0.93172403920E+02 0.  0.
         23    2    1    2    0    0  0.36691822741E+01  0.15835377781E+03 -0.96367121285E+02  0.20735384702E+03  0.92841876122E+02 0.  0.
        -11    1    4    4    0    0 -0.30590212592E+01  0.74653941923E+02 -0.98164666242E+02  0.12336478571E+03  0.00000000000E+00 0.  1.
         11    1    4    4    0    0  0.67282035333E+01  0.83699835889E+02  0.17975449576E+01  0.83989061303E+02  0.00000000000E+00 0. -1.
        -13    1    3    3    0    0 -0.40363478131E+02 -0.16291087006E+03 -0.30834096677E+03  0.35106027081E+03  0.00000000000E+00 0.  1.
         13    1    3    3    0    0  0.28781258227E+02 -0.14328333876E+02 -0.46265145564E+02  0.56339379397E+02  0.00000000000E+00 0. -1.
         21    1    1    2  502  501  0.79130376300E+01  0.18885426128E+02 -0.53209972490E+01  0.21156287394E+02  0.00000000000E+00 0. -1.
<scales pt_clust_5="13000.00000" pt_clust_6="13000.00000" pt_clust_7="13000.00000" pt_clust_8="13000.00000" pt_clust_9="20.47622"></scales>
<clustering>
<clus scale="   20.476">  1  9  2 -1</clus>
<clus scale="   92.842">  5  6 -1 -1</clus>
<clus scale="   93.172">  7  8 -1 -1</clus>
<clus scale="  194.921">  1  5  2 -1</clus>
<clus scale="   20.476">  1  5  2 -1</clus>
</clustering>
</event>
<event>
 9    1  0.9000149E-006  0.9672133E+02  0.7546771E-02  0.1287812E+00
         -1   -1    0    0    0  501 -0.00000000000E+00  0.00000000000E+00  0.21318111379E+03  0.21318111379E+03  0.00000000000E+00 0.  1.
          1   -1    0    0  502    0  0.00000000000E+00 -0.00000000000E+00 -0.93624842071E+02  0.93624842071E+02  0.00000000000E+00 0. -1.
         23    2    1    2    0    0 -0.13150922845E+02 -0.82829872735E+01  0.12772792254E+03  0.15927701238E+03  0.93878590892E+02 0.  0.
         23    2    1    2    0    0  0.39779933044E+02 -0.22482746337E+02  0.33569475185E+01  0.10523777267E+03  0.94740713230E+02 0.  0.
        -13    1    3    3    0    0 -0.25208337567E+01 -0.34789692186E+02  0.74664326626E+01  0.35671065332E+02  0.00000000000E+00 0.  1.
         13    1    3    3    0    0 -0.10630089088E+02  0.26506704912E+02  0.12026148988E+03  0.12360594705E+03  0.00000000000E+00 0. -1.
        -13    1    4    4    0    0 -0.89702243877E+01 -0.38697271377E+02  0.27658820000E+02  0.48404070711E+02  0.00000000000E+00 0.  1.
         13    1    4    4    0    0  0.48750157432E+02  0.16214525040E+02 -0.24301872481E+02  0.56833701956E+02  0.00000000000E+00 0. -1.
         21    1    1    2  502  501 -0.26629010200E+02  0.30765733610E+02 -0.11528598339E+02  0.42291170810E+02  0.00000000000E+00 0. -1.
<scales pt_clust_5="13000.00000" pt_clust_6="13000.00000" pt_clust_7="13000.00000" pt_clust_8="13000.00000" pt_clust_9="40.68949"></scales>
<clustering>
<clus scale="   40.689">  2  9  1 -1</clus>
<clus scale="   93.879">  5  6 -1 -1</clus>
<clus scale="   94.741">  7  8 -1 -1</clus>
<clus scale="   95.877">  1  5  2 -1</clus>
<clus scale="   40.689">  2  5  1 -1</clus>
</clustering>
</event>
<event>
 9    1  0.9000149E-006  0.1288409E+03  0.7546771E-02  0.1230565E+00
         -1   -1    0    0    0  501 -0.00000000000E+00  0.00000000000E+00  0.11020416676E+03  0.11020416676E+03  0.00000000000E+00 0.  1.
          1   -1    0    0  502    0  0.00000000000E+00 -0.00000000000E+00 -0.32974969984E+03  0.32974969984E+03  0.00000000000E+00 0. -1.
         23    2    1    2    0    0 -0.82679446320E+02  0.15352076608E+02  0.25530049222E+02  0.12171265008E+03  0.84205752042E+02 0.  0.
         23    2    1    2    0    0  0.12504625950E+03 -0.25657127474E+02 -0.16458567205E+03  0.22670015150E+03  0.89496704066E+02 0.  0.
        -11    1    3    3    0    0 -0.65864977655E+02  0.46398356436E+02  0.46663628319E+01  0.80701782530E+02  0.00000000000E+00 0.  1.
         11    1    3    3    0    0 -0.16814468665E+02 -0.31046279828E+02  0.20863686391E+02  0.41010867553E+02  0.00000000000E+00 0. -1.
        -13    1    4    4    0    0  0.32715772555E+01  0.24110378027E+02 -0.26877141045E+02  0.36254575671E+02  0.00000000000E+00 0.  1.
         13    1    4    4    0    0  0.12177468224E+03 -0.49767505500E+02 -0.13770853101E+03  0.19044557583E+03  0.00000000000E+00 0. -1.
         21    1    1    2  502  501 -0.42366813178E+02  0.10305050866E+02 -0.80489910251E+02  0.91541065017E+02  0.00000000000E+00 0.  1.
<scales pt_clust_5="13000.00000" pt_clust_6="13000.00000" pt_clust_7="13000.00000" pt_clust_8="13000.00000" pt_clust_9="43.60207"></scales>
<clustering>
<clus scale="   43.602">  2  9  1 -1</clus>
<clus scale="   84.206">  5  6 -1 -1</clus>
<clus scale="   89.497">  7  8 -1 -1</clus>
<clus scale="  125.224">  1  5  2 -1</clus>
<clus scale="   43.602">  2  5  1 -1</clus>
</clustering>
</event>
<event>
 9    1  0.9000149E-006  0.1169799E+03  0.7546771E-02  0.1251078E+00
          1   -1    0    0  502    0  0.00000000000E+00  0.00000000000E+00  0.74961478180E+02  0.74961478180E+02  0.00000000000E+00 0. -1.
         -1   -1    0    0    0  501 -0.00000000000E+00 -0.00000000000E+00 -0.28414492168E+03  0.28414492168E+03  0.00000000000E+00 0.  1.
         23    2    1    2    0    0 -0.55944071068E+02  0.48700261969E+02 -0.13340318587E+03  0.17938837164E+03  0.94246078314E+02 0.  0.
         23    2    1    2    0    0  0.28311901716E+02 -0.26438298586E+02 -0.90111766916E+02  0.14144892899E+03  0.10191722899E+03 0.  0.
        -13    1    4    4    0    0  0.57274969279E+02  0.14082966972E+02 -0.53527931024E+02  0.79649177424E+02  0.00000000000E+00 0. -1.
         13    1    4    4    0    0 -0.28963067563E+02 -0.40521265558E+02 -0.36583835892E+02  0.61799751566E+02  0.00000000000E+00 0.  1.
        -13    1    3    3    0    0  0.50395594431E+01  0.51607952568E+02 -0.31725060888E+02  0.60788629003E+02  0.00000000000E+00 0. -1.
         13    1    3    3    0    0 -0.60983630511E+02 -0.29076905995E+01 -0.10167812498E+03  0.11859974264E+03  0.00000000000E+00 0.  1.
         21    1    1    2  502  501  0.27632169352E+02 -0.22261963383E+02  0.14331509289E+02  0.38269099222E+02  0.00000000000E+00 0.  1.
<scales pt_clust_5="13000.00000" pt_clust_6="13000.00000" pt_clust_7="13000.00000" pt_clust_8="13000.00000" pt_clust_9="35.48425"></scales>
<clustering>
<clus scale="   35.484">  1  9  2 -1</clus>
<clus scale="   94.246">  7  8 -1 -1</clus>
<clus scale="  101.917">  5  6 -1 -1</clus>
<clus scale="  110.361">  2  7  1 -1</clus>
<clus scale="   35.484">  1  5  2 -1</clus>
</clustering>
</event>
<event>
 9    1  0.9000149E-006  0.1090267E+03  0.7546771E-02  0.1262385E+00
          2   -1    0    0  502    0  0.00000000000E+00  0.00000000000E+00  0.64317862409E+03  0.64317862409E+03  0.00000000000E+00 0. -1.
         -2   -1    0    0    0  501 -0.00000000000E+00 -0.00000000000E+00 -0.66022158983E+02  0.66022158983E+02  0.00000000000E+00 0.  1.
         23    2    1    2    0    0 -0.67803284548E+02  0.19112309084E+02  0.62515248207E+01  0.11557760758E+03  0.91414091132E+02 0.  0.
         23    2    1    2    0    0  0.77537690367E+01 -0.19344045925E+02  0.24691210619E+03  0.26411239484E+03  0.91408182796E+02 0.  0.
        -11    1    3    3    0    0 -0.46503134175E+02 -0.34318025768E+02  0.80350952122E+00  0.57800640206E+02  0.00000000000E+00 0. -1.
         11    1    3    3    0    0 -0.21300150374E+02  0.53430334852E+02  0.54480152995E+01  0.57776967375E+02  0.00000000000E+00 0.  1.
        -13    1    4    4    0    0  0.26194308697E+02  0.23476152224E+02  0.46254961186E+02  0.58110179535E+02  0.00000000000E+00 0.  1.
         13    1    4    4    0    0 -0.18440539660E+02 -0.42820198149E+02  0.20065714500E+03  0.20600221531E+03  0.00000000000E+00 0. -1.
         21    1    1    2  502  501  0.60049515512E+02  0.23173684084E+00  0.32399283410E+03  0.32951078065E+03  0.00000000000E+00 0. -1.
<scales pt_clust_5="13000.00000" pt_clust_6="13000.00000" pt_clust_7="13000.00000" pt_clust_8="13000.00000" pt_clust_9="60.04996"></scales>
<clustering>
<clus scale="   60.050">  1  9  2 -1</clus>
<clus scale="   91.408">  7  8 -1 -1</clus>
<clus scale="   91.414">  5  6 -1 -1</clus>
<clus scale="  109.022">  1  7  2 -1</clus>
<clus scale="   60.050">  1  5  2 -1</clus>
</clustering>
</event>
<event>
 9    1  0.9000149E-006  0.9419333E+02  0.7546771E-02  0.1293412E+00
         -3   -1    0    0    0  501 -0.00000000000E+00  0.00000000000E+00  0.24014591626E+03  0.24014591626E+03  0.00000000000E+00 0.  1.
          3   -1    0    0  502    0  0.00000000000E+00 -0.00000000000E+00 -0.58542968435E+02  0.58542968435E+02  0.00000000000E+00 0. -1.
         23    2    1    2    0    0 -0.11504242414E+02  0.14665196149E+02  0.14405263559E+03  0.17183438250E+03  0.91806740582E+02 0.  0.
         23    2    1    2    0    0 -0.31020496749E+01 -0.31900160362E+02  0.39198730387E+02  0.10420268015E+03  0.91073679745E+02 0.  0.
        -11    1    3    3    0    0 -0.34951781780E+02 -0.27822705931E+02  0.77735889945E+02  0.89658232196E+02  0.00000000000E+00 0.  1.
         11    1    3    3    0    0  0.23447539365E+02  0.42487902080E+02  0.66316745644E+02  0.82176150300E+02  0.00000000000E+00 0. -1.
        -13    1    4    4    0    0  0.40953590025E+02 -0.30327981555E+02  0.30112154783E+02  0.59192270330E+02  0.00000000000E+00 0.  1.
         13    1    4    4    0    0 -0.44055639700E+02 -0.15721788072E+01  0.90865756042E+01  0.45010409816E+02  0.00000000000E+00 0. -1.
         21    1    1    2  502  501  0.14606292089E+02  0.17234964214E+02 -0.16484181469E+01  0.22651822056E+02  0.00000000000E+00 0.  1.
<scales pt_clust_5="13000.00000" pt_clust_6="13000.00000" pt_clust_7="13000.00000" pt_clust_8="13000.00000" pt_clust_9="22.59176"></scales>
<clustering>
<clus scale="   22.592">  2  9  1 -1</clus>
<clus scale="   91.074">  7  8 -1 -1</clus>
<clus scale="   91.807">  5  6 -1 -1</clus>
<clus scale="   93.479">  2  7  1 -1</clus>
<clus scale="   22.592">  2  5  1 -1</clus>
</clustering>
</event>
<event>
 9    1  0.9000149E-006  0.1835223E+03  0.7546771E-02  0.1164615E+00
          1   -1    0    0  502    0  0.00000000000E+00  0.00000000000E+00  0.34337914593E+03  0.34337914593E+03  0.00000000000E+00 0. -1.
         -1   -1    0    0    0  501 -0.00000000000E+00 -0.00000000000E+00 -0.11428967068E+03  0.11428967068E+03  0.00000000000E+00 0.  1.
         23    2    1    2    0    0  0.15449404483E+03  0.11055957081E+02  0.89457176274E+02  0.20153202322E+03  0.92854326350E+02 0.  0.
         23    2    1    2    0    0 -0.15941849312E+03 -0.32369586706E+02  0.10205610051E+03  0.21265700855E+03  0.91353760425E+02 0.  0.
        -11    1    4    4    0    0 -0.10415449865E+03  0.24549195042E+02  0.53419966702E+02  0.11960148582E+03  0.00000000000E+00 0. -1.
         11    1    4    4    0    0 -0.55263994463E+02 -0.56918781748E+02  0.48636133812E+02  0.93055522737E+02  0.00000000000E+00 0.  1.
        -13    1    3    3    0    0  0.54273396367E+02 -0.35844819540E+02  0.11190022835E+02  0.65997494287E+02  0.00000000000E+00 0.  1.
         13    1    3    3    0    0  0.10022064846E+03  0.46900776622E+02  0.78267153440E+02  0.13553452893E+03  0.00000000000E+00 0. -1.
         21    1    1    2  502  501  0.49244482885E+01  0.21313629624E+02  0.37576198455E+02  0.43479784832E+02  0.00000000000E+00 0. -1.
<scales pt_clust_5="13000.00000" pt_clust_6="13000.00000" pt_clust_7="13000.00000" pt_clust_8="13000.00000" pt_clust_9="21.87512"></scales>
<clustering>
<clus scale="   21.875">  1  9  2 -1</clus>
<clus scale="   91.354">  5  6 -1 -1</clus>
<clus scale="   92.854">  7  8 -1 -1</clus>
<clus scale="  182.768">  1  5  2 -1</clus>
<clus scale="   21.875">  1  5  2 -1</clus>
</clustering>
</event>
<event>
 9    1  0.9000149E-006  0.9683148E+02  0.7546771E-02  0.1287163E+00
         -2   -1    0    0    0  501 -0.00000000000E+00  0.00000000000E+00  0.12035116709E+03  0.12035116709E+03  0.00000000000E+00 0.  1.
          2   -1    0    0  502    0  0.00000000000E+00 -0.00000000000E+00 -0.27841917055E+03  0.27841917055E+03  0.00000000000E+00 0. -1.
         23    2    1    2    0    0  0.22101796753E+02  0.22396851375E+02  0.74387622906E+02  0.12080178287E+03  0.89830083671E+02 0.  0.
         23    2    1    2    0    0 -0.51052294618E+02 -0.45986939131E+02 -0.15444893692E+03  0.19148348573E+03  0.89946182990E+02 0.  0.
        -11    1    4    4    0    0 -0.59635172758E+02  0.22650545083E+01 -0.57604929238E+02  0.82944633186E+02  0.00000000000E+00 0.  1.
         11    1    4    4    0    0  0.85828781405E+01 -0.48251993640E+02 -0.96844007679E+02  0.10853885254E+03  0.00000000000E+00 0. -1.
        -11    1    3    3    0    0  0.46882266773E+02 -0.27846066576E+01  0.11003835656E+02  0.48236763688E+02  0.00000000000E+00 0. -1.
         11    1    3    3    0    0 -0.24780470019E+02  0.25181458033E+02  0.63383787250E+02  0.72565019184E+02  0.00000000000E+00 0.  1.
         21    1    1    2  502  501  0.28950497865E+02  0.23590087756E+02 -0.78006689449E+02  0.86485069033E+02  0.00000000000E+00 0.  1.
<scales pt_clust_5="13000.00000" pt_clust_6="13000.00000" pt_clust_7="13000.00000" pt_clust_8="13000.00000" pt_clust_9="37.34466"></scales>
<clustering>
<clus scale="   37.345">  2  9  1 -1</clus>
<clus scale="   89.830">  7  8 -1 -1</clus>
<clus scale="   89.946">  5  6 -1 -1</clus>
<clus scale="   96.724">  1  7  2 -1</clus>
<clus scale="   37.345">  2  5  1 -1</clus>
</clustering>
</event>
<event>
 9    1  0.9000149E-006  0.9204750E+02  0.7546771E-02  0.1298476E+00
          1   -1    0    0  502    0  0.00000000000E+00  0.00000000000E+00  0.33582969659E+03  0.33582969659E+03  0.00000000000E+00 0. -1.
         -1   -1    0    0    0  501 -0.00000000000E+00 -0.00000000000E+00 -0.85228487359E+02  0.85228487359E+02  0.00000000000E+00 0.  1.
         23    2    1    2    0    0  0.88394678305E+00  0.10720850413E+02 -0.37595632110E+02  0.99038200920E+02  0.90991294595E+02 0.  0.
         23    2    1    2    0    0  0.33490309044E+02 -0.28300824052E+02  0.16640407975E+03  0.19425409669E+03  0.90121023523E+02 0.  0.
        -13    1    3    3    0    0  0.40637387312E+02  0.83830643419E+01 -0.41919106009E+02  0.58982069003E+02  0.00000000000E+00 0.  1.
         13    1    3    3    0    0 -0.39753440529E+02  0.23377860713E+01  0.43234738989E+01  0.40056131917E+02  0.00000000000E+00 0. -1.
        -13    1    4    4    0    0  0.58301870650E+02  0.51450224414E+01  0.94224889712E+02  0.11092298778E+03  0.00000000000E+00 0.  1.
         13    1    4    4    0    0 -0.24811561606E+02 -0.33445846493E+02  0.72179190035E+02  0.83331108904E+02  0.00000000000E+00 0. -1.
         21    1    1    2  502  501 -0.34374255827E+02  0.17579973638E+02  0.12179276159E+03  0.12776588634E+03  0.00000000000E+00 0. -1.
<scales pt_clust_5="13000.00000" pt_clust_6="13000.00000" pt_clust_7="13000.00000" pt_clust_8="13000.00000" pt_clust_9="38.60887"></scales>
<clustering>
<clus scale="   38.609">  1  9  2 -1</clus>
<clus scale="   90.121">  7  8 -1 -1</clus>
<clus scale="   90.991">  5  6 -1 -1</clus>
<clus scale="   91.187">  1  7  2 -1</clus>
<clus scale="   38.609">  1  5  2 -1</clus>
</clustering>
</event>
<event>
 9    1  0.9000149E-006  0.1196922E+03  0.7546771E-02  0.1250632E+00
         -3   -1    0    0    0  501 -0.00000000000E+00  0.00000000000E+00  0.23757985320E+03  0.23757985320E+03  0.00000000000E+00 0.  1.
          3   -1    0    0  502    0  0.00000000000E+00 -0.00000000000E+00 -0.19645279872E+03  0.19645279872E+03  0.00000000000E+00 0. -1.
         23    2    1    2    0    0  0.30647459898E+02  0.67220763383E+02  0.15626506785E+03  0.18610922906E+03  0.68992578467E+02 0.  0.
         23    2    1    2    0    0 -0.81228177599E+02 -0.69695219964E+02 -0.22403255733E+02  0.14226232684E+03  0.91001226625E+02 0.  0.
        -13    1    3    3    0    0 -0.21393267816E+02  0.23611278997E+02  0.64672939903E+02  0.72095447564E+02  0.00000000000E+00 0.  1.
         13    1    3    3    0    0  0.52040727714E+02  0.43609484386E+02  0.91592127947E+02  0.11401378150E+03  0.00000000000E+00 0. -1.
        -13    1    4    4    0    0 -0.33689500651E+02 -0.10745654926E+02  0.33048826716E+02  0.48401203509E+02  0.00000000000E+00 0.  1.
         13    1    4    4    0    0 -0.47538676949E+02 -0.58949565038E+02 -0.55452082448E+02  0.93861123326E+02  0.00000000000E+00 0. -1.
         21    1    1    2  502  501  0.50580717702E+02  0.24744565809E+01 -0.92734757635E+02  0.10566109602E+03  0.00000000000E+00 0. -1.
<scales pt_clust_5="13000.00000" pt_clust_6="13000.00000" pt_clust_7="13000.00000" pt_clust_8="13000.00000" pt_clust_9="50.64121"></scales>
<clustering>
<clus scale="   50.641">  2  9  1 -1</clus>
<clus scale="   68.993">  5  6 -1 -1</clus>
<clus scale="   91.001">  7  8 -1 -1</clus>
<clus scale="  103.947">  1  5  2 -1</clus>
<clus scale="   50.641">  2  5  1 -1</clus>
</clustering>
</event>
<event>
 9    1  0.9000149E-006  0.9627181E+02  0.7546771E-02  0.1289484E+00
          1   -1    0    0  502    0  0.00000000000E+00  0.00000000000E+00  0.13857441776E+03  0.13857441776E+03  0.00000000000E+00 0. -1.
         -1   -1    0    0    0  501 -0.00000000000E+00 -0.00000000000E+00 -0.21048393229E+03  0.21048393229E+03  0.00000000000E+00 0.  1.
         23    2    1    2    0    0 -0.16543933333E+02 -0.24015167200E+02 -0.15113119207E+03  0.17906971444E+03  0.91514454744E+02 0.  0.
         23    2    1    2    0    0  0.51512137898E+02  0.33803316554E+01  0.78018521373E+02  0.12936820536E+03  0.89354999238E+02 0.  0.
        -11    1    4    4    0    0  0.13213531948E+02 -0.31236957813E+02 -0.21839638107E+01  0.33986977769E+02  0.00000000000E+00 0. -1.
         11    1    4    4    0    0  0.38298605950E+02  0.34617289468E+02  0.80202485184E+02  0.95381227595E+02  0.00000000000E+00 0.  1.
        -11    1    3    3    0    0 -0.51133974681E+02 -0.17351968563E+02 -0.56776887823E+02  0.78354254323E+02  0.00000000000E+00 0. -1.
         11    1    3    3    0    0  0.34590041348E+02 -0.66631986362E+01 -0.94354304245E+02  0.10071546011E+03  0.00000000000E+00 0.  1.
         21    1    1    2  502  501 -0.34968204565E+02  0.20634835544E+02  0.12031561686E+01  0.40620430244E+02  0.00000000000E+00 0. -1.
<scales pt_clust_5="13000.00000" pt_clust_6="13000.00000" pt_clust_7="13000.00000" pt_clust_8="13000.00000" pt_clust_9="40.60261"></scales>
<clustering>
<clus scale="   40.603">  1  9  2 -1</clus>
<clus scale="   89.355">  5  6 -1 -1</clus>
<clus scale="   91.514">  7  8 -1 -1</clus>
<clus scale="   94.221">  1  5  2 -1</clus>
<clus scale="   40.603">  1  5  2 -1</clus>
</clustering>
</event>
<event>
 9    1  0.9000149E-006  0.1038640E+03  0.7546771E-02  0.1273333E+00
          2   -1    0    0  502    0  0.00000000000E+00  0.00000000000E+00  0.32207387885E+03  0.32207387885E+03  0.00000000000E+00 0. -1.
         -2   -1    0    0    0  501 -0.00000000000E+00 -0.00000000000E+00 -0.12565572101E+03  0.12565572101E+03  0.00000000000E+00 0.  1.
         23    2    1    2    0    0 -0.24320145294E+02  0.14583389047E+02 -0.12702093844E+02  0.98245009224E+02  0.93201898833E+02 0.  0.
         23    2    1    2    0    0  0.65523796391E+02 -0.10447200492E+02 -0.21889520253E+02  0.11479252932E+03  0.91080523709E+02 0.  0.
        -11    1    4    4    0    0 -0.22165976591E+02 -0.11446601769E+02 -0.35256748013E+01  0.25194951739E+02  0.00000000000E+00 0. -1.
         11    1    4    4    0    0  0.87689772982E+02  0.99940127785E+00 -0.18363845451E+02  0.89597577581E+02  0.00000000000E+00 0.  1.
        -13    1    3    3    0    0  0.59237114929E+01 -0.34818596707E+02  0.89008596838E+01  0.36423211523E+02  0.00000000000E+00 0.  1.
         13    1    3    3    0    0 -0.30243856787E+02  0.49401985754E+02 -0.21602953528E+02  0.61821797701E+02  0.00000000000E+00 0. -1.
         21    1    1    2  502  501 -0.41203651096E+02 -0.41361885555E+01  0.23100977193E+03  0.23469206132E+03  0.00000000000E+00 0. -1.
<scales pt_clust_5="13000.00000" pt_clust_6="13000.00000" pt_clust_7="13000.00000" pt_clust_8="13000.00000" pt_clust_9="41.41073"></scales>
<clustering>
<clus scale="   41.411">  1  9  2 -1</clus>
<clus scale="   91.081">  5  6 -1 -1</clus>
<clus scale="   93.202">  7  8 -1 -1</clus>
<clus scale="  101.965">  1  5  2 -1</clus>
<clus scale="   41.411">  1  5  2 -1</clus>
</clustering>
</event>
<event>
 9    1  0.9000149E-006  0.1424938E+03  0.7546771E-02  0.1215326E+00
         -1   -1    0    0    0  501 -0.00000000000E+00  0.00000000000E+00  0.39787401696E+03  0.39787401696E+03  0.00000000000E+00 0.  1.
          1   -1    0    0  502    0  0.00000000000E+00 -0.00000000000E+00 -0.82764662081E+02  0.82764662081E+02  0.00000000000E+00 0. -1.
         23    2    1    2    0    0  0.84542207095E+02  0.22761008203E+02  0.25780600198E+03  0.28634864024E+03  0.88691379729E+02 0.  0.
         23    2    1    2    0    0 -0.94209702142E+02 -0.51371784961E+02  0.58567127465E+02  0.16406365739E+03  0.10941776359E+03 0.  0.
        -11    1    3    3    0    0 -0.98483186374E+01 -0.18484066703E+02  0.55668108664E+02  0.59477629610E+02  0.00000000000E+00 0. -1.
         11    1    3    3    0    0  0.94390525732E+02  0.41245074906E+02  0.20213789331E+03  0.22687101063E+03  0.00000000000E+00 0.  1.
        -13    1    4    4    0    0 -0.95414363158E+01  0.26946335480E+02 -0.95205132754E+01  0.30129456945E+02  0.00000000000E+00 0.  1.
         13    1    4    4    0    0 -0.84668265826E+02 -0.78318120441E+02  0.68087640740E+02  0.13393420045E+03  0.00000000000E+00 0. -1.
         21    1    1    2  502  501  0.96674950473E+01  0.28610776758E+02 -0.12637745578E+01  0.30226381413E+02  0.00000000000E+00 0. -1.
<scales pt_clust_5="13000.00000" pt_clust_6="13000.00000" pt_clust_7="13000.00000" pt_clust_8="13000.00000" pt_clust_9="30.19995"></scales>
<clustering>
<clus scale="   30.200">  2  9  1 -1</clus>
<clus scale="   88.691">  5  6 -1 -1</clus>
<clus scale="  109.418">  7  8 -1 -1</clus>
<clus scale="  127.273">  1  5  2 -1</clus>
<clus scale="   30.200">  2  5  1 -1</clus>
</clustering>
</event>
<event>
 9    1  0.9000149E-006  0.9887234E+02  0.7546771E-02  0.1286126E+00
         -2   -1    0    0    0  501 -0.00000000000E+00  0.00000000000E+00  0.29082420462E+03  0.29082420462E+03  0.00000000000E+00 0.  1.
          2   -1    0    0  502    0  0.00000000000E+00 -0.00000000000E+00 -0.60292788688E+02  0.60292788688E+02  0.00000000000E+00 0. -1.
         23    2    1    2    0    0 -0.89200191053E+01  0.13486723114E+02  0.21403554207E+03  0.23599136732E+03  0.98077794310E+02 0.  0.
         23    2    1    2    0    0 -0.93573999020E+01 -0.51027083969E+01  0.20399401460E+02  0.94641649914E+02  0.91800369022E+02 0.  0.
        -11    1    4    4    0    0  0.12703904114E+02 -0.42431576933E+02  0.25293346462E+02  0.51005698466E+02  0.00000000000E+00 0.  1.
         11    1    4    4    0    0 -0.22061304016E+02  0.37328868536E+02 -0.48939450019E+01  0.43635951448E+02  0.00000000000E+00 0. -1.
        -11    1    3    3    0    0  0.16286745228E+02  0.29181509109E+02  0.20066085763E+03  0.20342467483E+03  0.00000000000E+00 0. -1.
         11    1    3    3    0    0 -0.25206764334E+02 -0.15694785995E+02  0.13374684438E+02  0.32566692485E+02  0.00000000000E+00 0.  1.
         21    1    1    2  502  501  0.18277419007E+02 -0.83840147171E+01 -0.39035275977E+01  0.20483976080E+02  0.00000000000E+00 0.  1.
<scales pt_clust_5="13000.00000" pt_clust_6="13000.00000" pt_clust_7="13000.00000" pt_clust_8="13000.00000" pt_clust_9="20.10860"></scales>
<clustering>
<clus scale="   20.109">  2  9  1 -1</clus>
<clus scale="   91.800">  5  6 -1 -1</clus>
<clus scale="   92.649">  2  5  1 -1</clus>
<clus scale="   98.078">  7  8 -1 -1</clus>
<clus scale="   20.109">  2  5  1 -1</clus>
</clustering>
</event>
<event>
 9    1  0.9000149E-006  0.1212685E+03  0.7546771E-02  0.1241389E+00
          1   -1    0    0  502    0  0.00000000000E+00  0.00000000000E+00  0.46105256165E+02  0.46105256165E+02  0.00000000000E+00 0. -1.
         -1   -1    0    0    0  501 -0.00000000000E+00 -0.00000000000E+00 -0.56411204564E+03  0.56411204564E+03  0.00000000000E+00 0.  1.
         23    2    1    2    0    0  0.53226598358E+02  0.58349364972E+02 -0.27160532258E+03  0.29771433705E+03  0.92879793633E+02 0.  0.
         23    2    1    2    0    0 -0.65884434783E+02 -0.42290925536E+02 -0.26091695000E+03  0.28742720854E+03  0.91692225856E+02 0.  0.
        -11    1    3    3    0    0  0.30270115484E+02  0.79285152217E+02 -0.15145289107E+03  0.17360988874E+03  0.00000000000E+00 0.  1.
         11    1    3    3    0    0  0.22956482874E+02 -0.20935787245E+02 -0.12015243150E+03  0.12410444831E+03  0.00000000000E+00 0. -1.
        -13    1    4    4    0    0 -0.59978500357E+02  0.59744035675E+01 -0.20323223912E+03  0.21198220920E+03  0.00000000000E+00 0.  1.
         13    1    4    4    0    0 -0.59059344266E+01 -0.48265329103E+02 -0.57684710881E+02  0.75444999333E+02  0.00000000000E+00 0. -1.
         21    1    1    2  502  501  0.12657836425E+02 -0.16058439436E+02  0.14515483105E+02  0.25075756217E+02  0.00000000000E+00 0. -1.
<scales pt_clust_5="13000.00000" pt_clust_6="13000.00000" pt_clust_7="13000.00000" pt_clust_8="13000.00000" pt_clust_9="20.44735"></scales>
<clustering>
<clus scale="   20.447">  1  9  2 -1</clus>
<clus scale="   91.692">  7  8 -1 -1</clus>
<clus scale="   92.880">  5  6 -1 -1</clus>
<clus scale="  120.361">  1  7  2 -1</clus>
<clus scale="   20.447">  1  5  2 -1</clus>
</clustering>
</event>
<event>
 9    1  0.9000149E-006  0.1027208E+03  0.7546771E-02  0.1278225E+00
         -2   -1    0    0    0  501 -0.00000000000E+00  0.00000000000E+00  0.23863443004E+02  0.23863443004E+02  0.00000000000E+00 0.  1.
          2   -1    0    0  502    0  0.00000000000E+00 -0.00000000000E+00 -0.69628953556E+03  0.69628953556E+03  0.00000000000E+00 0. -1.
         23    2    1    2    0    0  0.35890885677E+02  0.52994074268E+02 -0.22510242412E+03  0.25140737443E+03  0.91858799200E+02 0.  0.
         23    2    1    2    0    0 -0.40494462915E+02 -0.10858651246E+02 -0.35315227210E+03  0.36547489829E+03  0.84247624070E+02 0.  0.
        -11    1    3    3    0    0 -0.10015691815E+02 -0.20338063081E+02 -0.27122861232E+02  0.35349688737E+02  0.00000000000E+00 0. -1.
         11    1    3    3    0    0  0.45906577492E+02  0.73332137349E+02 -0.19797956289E+03  0.21605768569E+03  0.00000000000E+00 0.  1.
        -13    1    4    4    0    0  0.24197379505E+02 -0.12525701468E+02 -0.14344133843E+03  0.14600624624E+03  0.00000000000E+00 0.  1.
         13    1    4    4    0    0 -0.64691842420E+02  0.16670502222E+01 -0.20971093367E+03  0.21946865205E+03  0.00000000000E+00 0. -1.
         21    1    1    2  502  501  0.46035772383E+01 -0.42135423022E+02 -0.94171396345E+02  0.10327070585E+03  0.00000000000E+00 0.  1.
<scales pt_clust_5="13000.00000" pt_clust_6="13000.00000" pt_clust_7="13000.00000" pt_clust_8="13000.00000" pt_clust_9="42.38616"></scales>
<clustering>
<clus scale="   42.386">  1  9  2 -1</clus>
<clus scale="   84.248">  7  8 -1 -1</clus>
<clus scale="   91.859">  5  6 -1 -1</clus>
<clus scale="   95.975">  2  7  1 -1</clus>
<clus scale="   95.975">  2  5  1 -1</clus>
</clustering>
</event>
<event>
 9    1  0.9000149E-006  0.1354935E+03  0.7546771E-02  0.1236203E+00
          1   -1    0    0  502    0  0.00000000000E+00  0.00000000000E+00  0.78559671091E+03  0.78559671091E+03  0.00000000000E+00 0. -1.
         -1   -1    0    0    0  501 -0.00000000000E+00 -0.00000000000E+00 -0.28852946335E+03  0.28852946335E+03  0.00000000000E+00 0.  1.
         23    2    1    2    0    0  0.32529115158E+02  0.36241371120E+02 -0.18701716095E+03  0.21017142697E+03  0.82613739257E+02 0.  0.
         23    2    1    2    0    0  0.67398569985E+02 -0.19002278221E+02 -0.48041359731E+02  0.12483982450E+03  0.91506042000E+02 0.  0.
        -11    1    4    4    0    0  0.89716410483E+02 -0.22820607932E+02 -0.39267119552E+02  0.10055705412E+03  0.00000000000E+00 0.  1.
         11    1    4    4    0    0 -0.22317840499E+02  0.38183297107E+01 -0.87742401789E+01  0.24282770374E+02  0.00000000000E+00 0. -1.
        -13    1    3    3    0    0 -0.18732057488E+02 -0.12429190671E+02 -0.26313362445E+02  0.34608782146E+02  0.00000000000E+00 0. -1.
         13    1    3    3    0    0  0.51261172646E+02  0.48670561792E+02 -0.16070379850E+03  0.17556264483E+03  0.00000000000E+00 0.  1.
         21    1    1    2  502  501 -0.99927685143E+02 -0.17239092900E+02  0.73212576824E+03  0.73911492280E+03  0.00000000000E+00 0. -1.
<scales pt_clust_5="13000.00000" pt_clust_6="13000.00000" pt_clust_7="13000.00000" pt_clust_8="13000.00000" pt_clust_9="99.92570"></scales>
<clustering>
<clus scale="   82.614">  7  8 -1 -1</clus>
<clus scale="   91.506">  5  6 -1 -1</clus>
<clus scale="   95.899">  2  7  1 -1</clus>
<clus scale="   99.926">  1  9  2 -1</clus>
<clus scale="   99.926">  1  5  2 -1</clus>
</clustering>
</event>
<event>
 9    1  0.9000149E-006  0.9925454E+02  0.7546771E-02  0.1283650E+00
         -3   -1    0    0    0  501 -0.00000000000E+00  0.00000000000E+00  0.34018799104E+03  0.34018799104E+03  0.00000000000E+00 0.  1.
          3   -1    0    0  502    0  0.00000000000E+00 -0.00000000000E+00 -0.54610468197E+02  0.54610468197E+02  0.00000000000E+00 0. -1.
         23    2    1    2    0    0  0.24684327266E+02 -0.32354125833E+02  0.16706368197E+03  0.19532525694E+03  0.92658387055E+02 0.  0.
         23    2    1    2    0    0 -0.60475989867E+00  0.33972798076E+02  0.13847982907E+03  0.16815090435E+03  0.89126577575E+02 0.  0.
        -11    1    3    3    0    0  0.14884019730E+02 -0.65221957325E+02  0.11132722215E+03  0.12988143883E+03  0.00000000000E+00 0. -1.
         11    1    3    3    0    0  0.98003075358E+01  0.32867831492E+02  0.55736459827E+02  0.65443818110E+02  0.00000000000E+00 0.  1.
        -13    1    4    4    0    0  0.23940466382E+02  0.46091010235E+02  0.12919743110E+03  0.13924619692E+03  0.00000000000E+00 0.  1.
         13    1    4    4    0    0 -0.24545226281E+02 -0.12118212160E+02  0.92823979682E+01  0.28904707422E+02  0.00000000000E+00 0. -1.
         21    1    1    2  502  501 -0.24079567367E+02 -0.16186722425E+01 -0.19965988199E+02  0.31322297955E+02  0.00000000000E+00 0. -1.
<scales pt_clust_5="13000.00000" pt_clust_6="13000.00000" pt_clust_7="13000.00000" pt_clust_8="13000.00000" pt_clust_9="24.13391"></scales>
<clustering>
<clus scale="   24.134">  2  9  1 -1</clus>
<clus scale="   89.127">  7  8 -1 -1</clus>
<clus scale="   92.658">  5  6 -1 -1</clus>
<clus scale="   95.966">  2  7  1 -1</clus>
<clus scale="   24.134">  2  5  1 -1</clus>
</clustering>
</event>
<event>
 9    1  0.9000149E-006  0.1255414E+03  0.7546771E-02  0.1237589E+00
         -1   -1    0    0    0  501 -0.00000000000E+00  0.00000000000E+00  0.14271931717E+03  0.14271931717E+03  0.00000000000E+00 0.  1.
          1   -1    0    0  502    0  0.00000000000E+00 -0.00000000000E+00 -0.26729939669E+03  0.26729939669E+03  0.00000000000E+00 0. -1.
         23    2    1    2    0    0 -0.11420068615E+02  0.74599029152E+02  0.31815902987E+02  0.12264113198E+03  0.91286156963E+02 0.  0.
         23    2    1    2    0    0  0.67941659452E+02 -0.89594723419E+02 -0.20171164562E+02  0.13913196777E+03  0.79420054284E+02 0.  0.
        -11    1    4    4    0    0  0.83296018323E+02 -0.55913600017E+02 -0.18947619132E+02  0.10209588437E+03  0.00000000000E+00 0.  1.
         11    1    4    4    0    0 -0.15354358871E+02 -0.33681123402E+02 -0.12235454300E+01  0.37036083397E+02  0.00000000000E+00 0. -1.
        -13    1    3    3    0    0  0.32932542389E+02  0.17815070629E+02  0.33970804197E+02  0.50556351011E+02  0.00000000000E+00 0.  1.
         13    1    3    3    0    0 -0.44352611003E+02  0.56783958523E+02 -0.21549012099E+01  0.72084780970E+02  0.00000000000E+00 0. -1.
         21    1    1    2  502  501 -0.56521590837E+02  0.14995694267E+02 -0.13622481794E+03  0.14824561410E+03  0.00000000000E+00 0. -1.
<scales pt_clust_5="13000.00000" pt_clust_6="13000.00000" pt_clust_7="13000.00000" pt_clust_8="13000.00000" pt_clust_9="58.47701"></scales>
<clustering>
<clus scale="   58.477">  2  9  1 -1</clus>
<clus scale="   79.420">  5  6 -1 -1</clus>
<clus scale="   91.286">  7  8 -1 -1</clus>
<clus scale="  117.197">  2  5  1 -1</clus>
<clus scale="   58.477">  2  5  1 -1</clus>
</clustering>
</event>
<event>
 9    1  0.9000149E-006  0.2117279E+03  0.7546771E-02  0.1140306E+00
          1   -1    0    0  502    0  0.00000000000E+00  0.00000000000E+00  0.97971614138E+03  0.97971614138E+03  0.00000000000E+00 0. -1.
         -1   -1    0    0    0  501 -0.00000000000E+00 -0.00000000000E+00 -0.12993160452E+03  0.12993160452E+03  0.00000000000E+00 0.  1.
         23    2    1    2    0    0  0.17553324229E+03  0.77512780549E+02 -0.55724477248E+01  0.21281570584E+03  0.91865783500E+02 0.  0.
         23    2    1    2    0    0 -0.18391836918E+03 -0.32620112790E+02  0.79178038364E+03  0.81855275699E+03  0.90677460184E+02 0.  0.
        -11    1    3    3    0    0  0.47858431948E+02  0.40553694272E+02  0.37512468703E+02  0.73090470896E+02  0.00000000000E+00 0. -1.
         11    1    3    3    0    0  0.12767481035E+03  0.36959086277E+02 -0.43084916428E+02  0.13972523494E+03  0.00000000000E+00 0.  1.
        -13    1    4    4    0    0 -0.14048591427E+03  0.16442915014E+02  0.50971153747E+03  0.52897307397E+03  0.00000000000E+00 0. -1.
         13    1    4    4    0    0 -0.43432454911E+02 -0.49063027805E+02  0.28206884617E+03  0.28957968302E+03  0.00000000000E+00 0.  1.
         21    1    1    2  502  501  0.83851268839E+01 -0.44892667759E+02  0.63576600943E+02  0.78279283075E+02  0.00000000000E+00 0. -1.
<scales pt_clust_5="13000.00000" pt_clust_6="13000.00000" pt_clust_7="13000.00000" pt_clust_8="13000.00000" pt_clust_9="45.66905"></scales>
<clustering>
<clus scale="   45.669">  1  9  2 -1</clus>
<clus scale="   90.677">  7  8 -1 -1</clus>
<clus scale="   91.866">  5  6 -1 -1</clus>
<clus scale="  211.215">  1  7  2 -1</clus>
<clus scale="   45.669">  1  5  2 -1</clus>
</clustering>
</event>
<event>
 9    1  0.9000149E-006  0.1001061E+03  0.7546771E-02  0.1282967E+00
          3   -1    0    0  502    0  0.00000000000E+00  0.00000000000E+00  0.80389148579E+02  0.80389148579E+02  0.00000000000E+00 0. -1.
         -3   -1    0    0    0  501 -0.00000000000E+00 -0.00000000000E+00 -0.34862585964E+03  0.34862585964E+03  0.00000000000E+00 0.  1.
         23    2    1    2    0    0  0.80074571121E+01 -0.44283250634E+02 -0.24777058498E+03  0.26843379282E+03  0.92958661190E+02 0.  0.
         23    2    1    2    0    0  0.78524187127E+01  0.20510049910E+02 -0.62691112012E+02  0.10959445074E+03  0.87169062634E+02 0.  0.
        -13    1    4    4    0    0 -0.22467221458E+02  0.32346280453E+02 -0.48349332977E+00  0.39386440116E+02  0.00000000000E+00 0. -1.
         13    1    4    4    0    0  0.30319640171E+02 -0.11836230542E+02 -0.62207618682E+02  0.70208010623E+02  0.00000000000E+00 0.  1.
        -13    1    3    3    0    0 -0.19204277413E+02 -0.63396727469E+02 -0.19611464262E+03  0.20699976419E+03  0.00000000000E+00 0.  1.
         13    1    3    3    0    0  0.27211734525E+02  0.19113476835E+02 -0.51655942358E+02  0.61434028628E+02  0.00000000000E+00 0. -1.
         21    1    1    2  502  501 -0.15859875825E+02  0.23773200724E+02  0.42224985930E+02  0.50986764662E+02  0.00000000000E+00 0. -1.
<scales pt_clust_5="13000.00000" pt_clust_6="13000.00000" pt_clust_7="13000.00000" pt_clust_8="13000.00000" pt_clust_9="28.57798"></scales>
<clustering>
<clus scale="   28.578">  1  9  2 -1</clus>
<clus scale="   87.169">  5  6 -1 -1</clus>
<clus scale="   92.959">  7  8 -1 -1</clus>
<clus scale="   94.754">  1  5  2 -1</clus>
<clus scale="   28.578">  1  5  2 -1</clus>
</clustering>
</event>
<event>
 9    1  0.9000149E-006  0.1142806E+03  0.7546771E-02  0.1253155E+00
         -1   -1    0    0    0  501 -0.00000000000E+00  0.00000000000E+00  0.18640363052E+03  0.18640363052E+03  0.00000000000E+00 0.  1.
          1   -1    0    0  502    0  0.00000000000E+00 -0.00000000000E+00 -0.15526195454E+03  0.15526195454E+03  0.00000000000E+00 0. -1.
         23    2    1    2    0    0  0.81979860590E+01 -0.71108450707E+02  0.13404657300E+03  0.17666405830E+03  0.90100427432E+02 0.  0.
         23    2    1    2    0    0  0.71389073434E+01  0.57823714944E+02 -0.80251527553E+02  0.13458969270E+03  0.90991932049E+02 0.  0.
        -11    1    4    4    0    0  0.46201632045E+02  0.23535388916E+02 -0.21459184401E+02  0.56115968585E+02  0.00000000000E+00 0.  1.
         11    1    4    4    0    0 -0.39062724702E+02  0.34288326028E+02 -0.58792343153E+02  0.78473724114E+02  0.00000000000E+00 0. -1.
        -11    1    3    3    0    0 -0.53360210146E+01 -0.90857626122E+02  0.10281587074E+03  0.13731236150E+03  0.00000000000E+00 0.  1.
         11    1    3    3    0    0  0.13534007074E+02  0.19749175416E+02  0.31230702261E+02  0.39351696796E+02  0.00000000000E+00 0. -1.
         21    1    1    2  502  501 -0.15336893402E+02  0.13284735762E+02 -0.22653369456E+02  0.30411834065E+02  0.00000000000E+00 0. -1.
<scales pt_clust_5="13000.00000" pt_clust_6="13000.00000" pt_clust_7="13000.00000" pt_clust_8="13000.00000" pt_clust_9="20.29050"></scales>
<clustering>
<clus scale="   20.291">  2  9  1 -1</clus>
<clus scale="   90.100">  7  8 -1 -1</clus>
<clus scale="   90.992">  5  6 -1 -1</clus>
<clus scale="  113.572">  1  7  2 -1</clus>
<clus scale="   20.291">  2  5  1 -1</clus>
</clustering>
</event>
<event>
 9    1  0.9772811E-006  0.9130804E+02  0.7546771E-02  0.1300861E+00
          2   -1    0    0  502    0  0.00000000000E+00  0.00000000000E+00  0.16532038731E+03  0.16532038731E+03  0.00000000000E+00 0. -1.
         -2   -1    0    0    0  501 -0.00000000000E+00 -0.00000000000E+00 -0.11141676505E+03  0.11141676505E+03  0.00000000000E+00 0.  1.
         23    2    1    2    0    0 -0.34514471949E+01  0.34070537936E+01 -0.65930663564E+02  0.11266139088E+03  0.91226180966E+02 0.  0.
         23    2    1    2    0    0 -0.17260830447E+02 -0.61420252408E+01  0.98158812067E+02  0.13397086692E+03  0.89316180247E+02 0.  0.
        -11    1    4    4    0    0  0.12317120599E+02 -0.22447762725E+02 -0.44121222762E+01  0.25982308100E+02  0.00000000000E+00 0.  1.
         11    1    4    4    0    0 -0.29577951046E+02  0.16305737484E+02  0.10257093434E+03  0.10798855882E+03  0.00000000000E+00 0. -1.
        -11    1    3    3    0    0 -0.17582939756E+01 -0.43886585839E+02 -0.34491560412E+02  0.55846143591E+02  0.00000000000E+00 0.  1.
         11    1    3    3    0    0 -0.16931532193E+01  0.47293639633E+02 -0.31439103152E+02  0.56815247289E+02  0.00000000000E+00 0. -1.
         21    1    1    2  502  501  0.20712277642E+02  0.27349714471E+01  0.21675473765E+02  0.30104894567E+02  0.00000000000E+00 0. -1.
<scales pt_clust_5="13000.00000" pt_clust_6="13000.00000" pt_clust_7="13000.00000" pt_clust_8="13000.00000" pt_clust_9="20.89207"></scales>
<clustering>
<clus scale="   20.892">  1  9  2 -1</clus>
<clus scale="   89.316">  5  6 -1 -1</clus>
<clus scale="   89.400">  1  5  2 -1</clus>
<clus scale="   91.226">  7  8 -1 -1</clus>
<clus scale="   20.892">  1  5  2 -1</clus>
</clustering>
</event>
<event>
 9    1  0.9000149E-006  0.1121627E+03  0.7546771E-02  0.1257991E+00
          1   -1    0    0  502    0  0.00000000000E+00  0.00000000000E+00  0.21096684920E+03  0.21096684920E+03  0.00000000000E+00 0. -1.
         -1   -1    0    0    0  501 -0.00000000000E+00 -0.00000000000E+00 -0.10363874430E+03  0.10363874430E+03  0.00000000000E+00 0.  1.
         23    2    1    2    0    0 -0.65242281730E+00 -0.60308324610E+02 -0.35240518302E+02  0.11258714242E+03  0.88297513189E+02 0.  0.
         23    2    1    2    0    0  0.96343661933E+01  0.79152435869E+02  0.12743182672E+03  0.17623282634E+03  0.91984833004E+02 0.  0.
        -13    1    3    3    0    0  0.29271929934E+00 -0.83534718857E+02 -0.25088475635E+02  0.87221365208E+02  0.00000000000E+00 0.  1.
         13    1    3    3    0    0 -0.94514211665E+00  0.23226394246E+02 -0.10152042668E+02  0.25365777213E+02  0.00000000000E+00 0. -1.
        -13    1    4    4    0    0 -0.22133049391E+02 -0.93203768207E+01  0.10526133749E+02  0.26220999049E+02  0.00000000000E+00 0.  1.
         13    1    4    4    0    0  0.31767415585E+02  0.88472812690E+02  0.11690569297E+03  0.15001182729E+03  0.00000000000E+00 0. -1.
         21    1    1    2  502  501 -0.89819433760E+01 -0.18844111259E+02  0.15136796481E+02  0.25785624748E+02  0.00000000000E+00 0. -1.
<scales pt_clust_5="13000.00000" pt_clust_6="13000.00000" pt_clust_7="13000.00000" pt_clust_8="13000.00000" pt_clust_9="20.87524"></scales>
<clustering>
<clus scale="   20.875">  1  9  2 -1</clus>
<clus scale="   88.298">  5  6 -1 -1</clus>
<clus scale="   91.985">  7  8 -1 -1</clus>
<clus scale="  109.159">  2  5  1 -1</clus>
<clus scale="   20.875">  1  5  2 -1</clus>
</clustering>
</event>
<event>
 9    1  0.9000149E-006  0.1140920E+03  0.7546771E-02  0.1253736E+00
         -2   -1    0    0    0  501 -0.00000000000E+00  0.00000000000E+00  0.94981655435E+02  0.94981655435E+02  0.00000000000E+00 0.  1.
          2   -1    0    0  502    0  0.00000000000E+00 -0.00000000000E+00 -0.27596783803E+03  0.27596783803E+03  0.00000000000E+00 0. -1.
         23    2    1    2    0    0  0.67302316100E+02 -0.75897390564E+02 -0.24505123860E+02  0.13773210882E+03  0.89886690103E+02 0.  0.
         23    2    1    2    0    0 -0.18680551864E+02  0.14435956647E+02 -0.89277434697E+02  0.12998022612E+03  0.91471520012E+02 0.  0.
        -11    1    3    3    0    0  0.62063877578E+02 -0.55609448316E+02  0.22458701361E+02  0.86306018961E+02  0.00000000000E+00 0.  1.
         11    1    3    3    0    0  0.52384385228E+01 -0.20287942248E+02 -0.46963825221E+02  0.51426089859E+02  0.00000000000E+00 0. -1.
        -13    1    4    4    0    0  0.25646453680E+02  0.20400140092E+02 -0.31370185066E+01  0.32920315722E+02  0.00000000000E+00 0.  1.
         13    1    4    4    0    0 -0.44327005543E+02 -0.59641834453E+01 -0.86140416190E+02  0.97059910396E+02  0.00000000000E+00 0. -1.
         21    1    1    2  502  501 -0.48621764237E+02  0.61461433917E+02 -0.67203624037E+02  0.10323715853E+03  0.00000000000E+00 0. -1.
<scales pt_clust_5="13000.00000" pt_clust_6="13000.00000" pt_clust_7="13000.00000" pt_clust_8="13000.00000" pt_clust_9="78.36826"></scales>
<clustering>
<clus scale="   78.368">  2  9  1 -1</clus>
<clus scale="   89.887">  5  6 -1 -1</clus>
<clus scale="   91.472">  7  8 -1 -1</clus>
<clus scale="  112.825">  1  5  2 -1</clus>
<clus scale="   78.368">  2  5  1 -1</clus>
</clustering>
</event>
<event>
 9    1  0.9000149E-006  0.1029507E+03  0.7546771E-02  0.1274856E+00
         -2   -1    0    0    0  501 -0.00000000000E+00  0.00000000000E+00  0.46967595411E+02  0.46967595411E+02  0.00000000000E+00 0.  1.
          2   -1    0    0  502    0  0.00000000000E+00 -0.00000000000E+00 -0.45433197336E+03  0.45433197336E+03  0.00000000000E+00 0. -1.
         23    2    1    2    0    0  0.32797930946E+02  0.62341773551E+02 -0.99430930232E+02  0.15194117059E+03  0.90760169842E+02 0.  0.
         23    2    1    2    0    0  0.28039330309E+01 -0.23083273624E+02 -0.11463008932E+03  0.14892159791E+03  0.92178551653E+02 0.  0.
        -11    1    4    4    0    0  0.66622381072E+01  0.29755532664E+02 -0.10786112357E+02  0.32343737578E+02  0.00000000000E+00 0.  1.
         11    1    4    4    0    0 -0.38583050763E+01 -0.52838806288E+02 -0.10384397696E+03  0.11657786033E+03  0.00000000000E+00 0. -1.
        -11    1    3    3    0    0  0.24821288284E+02 -0.48745027694E+01  0.66041949057E+01  0.26143307360E+02  0.00000000000E+00 0. -1.
         11    1    3    3    0    0  0.79766426618E+01  0.67216276320E+02 -0.10603512514E+03  0.12579786323E+03  0.00000000000E+00 0.  1.
         21    1    1    2  502  501 -0.35601863977E+02 -0.39258499927E+02 -0.19330335840E+03  0.20043680027E+03  0.00000000000E+00 0.  1.
<scales pt_clust_5="13000.00000" pt_clust_6="13000.00000" pt_clust_7="13000.00000" pt_clust_8="13000.00000" pt_clust_9="52.99738"></scales>
<clustering>
<clus scale="   52.997">  2  9  1 -1</clus>
<clus scale="   90.760">  7  8 -1 -1</clus>
<clus scale="   92.179">  5  6 -1 -1</clus>
<clus scale="  101.683">  1  7  2 -1</clus>
<clus scale="   52.997">  2  5  1 -1</clus>
</clustering>
</event>
<event>
 9    1  0.9000149E-006  0.1545943E+03  0.7546771E-02  0.1195410E+00
          2   -1    0    0  502    0  0.00000000000E+00  0.00000000000E+00  0.19605185013E+03  0.19605185013E+03  0.00000000000E+00 0.  1.
         -2   -1    0    0    0  501 -0.00000000000E+00 -0.00000000000E+00 -0.19196478208E+03  0.19196478208E+03  0.00000000000E+00 0. -1.
         23    2    1    2    0    0  0.12228091420E+03 -0.38122101605E+02 -0.94419301687E+02  0.18446137999E+03  0.93301015891E+02 0.  0.
         23    2    1    2    0    0 -0.11196242821E+03  0.65237793769E+01  0.86804233072E+02  0.16831514547E+03  0.90646943077E+02 0.  0.
        -11    1    4    4    0    0 -0.10323135051E+03  0.39144488431E+02  0.67963750896E+02  0.12964595689E+03  0.00000000000E+00 0. -1.
         11    1    4    4    0    0 -0.87310776988E+01 -0.32620709055E+02  0.18840482177E+02  0.38669188583E+02  0.00000000000E+00 0.  1.
        -11    1    3    3    0    0  0.86601956404E+01 -0.40587970885E+02 -0.94559231334E+01  0.42565207053E+02  0.00000000000E+00 0.  1.
         11    1    3    3    0    0  0.11362071856E+03  0.24658692801E+01 -0.84963378554E+02  0.14189617294E+03  0.00000000000E+00 0. -1.
         21    1    1    2  502  501 -0.10318485997E+02  0.31598322228E+02  0.11702136660E+02  0.35240106744E+02  0.00000000000E+00 0. -1.
<scales pt_clust_5="13000.00000" pt_clust_6="13000.00000" pt_clust_7="13000.00000" pt_clust_8="13000.00000" pt_clust_9="33.24041"></scales>
<clustering>
<clus scale="   33.240">  1  9  2 -1</clus>
<clus scale="   90.647">  5  6 -1 -1</clus>
<clus scale="   93.301">  7  8 -1 -1</clus>
<clus scale="  153.007">  1  5  2 -1</clus>
<clus scale="   33.240">  1  5  2 -1</clus>
</clustering>
</event>
<event>
 9    1  0.9000149E-006  0.9843352E+02  0.7546771E-02  0.1283720E+00
         -2   -1    0    0    0  501 -0.00000000000E+00  0.00000000000E+00  0.17688519229E+03  0.17688519229E+03  0.00000000000E+00 0.  1.
          2   -1    0    0  502    0  0.00000000000E+00 -0.00000000000E+00 -0.18923642144E+03  0.18923642144E+03  0.00000000000E+00 0. -1.
         23    2    1    2    0    0 -0.37246477967E+02 -0.40464345933E+01  0.13539384815E+03  0.16709851214E+03  0.90480632670E+02 0.  0.
         23    2    1    2    0    0  0.40931652744E+02  0.26426144125E+02 -0.89080969217E+02  0.13612708034E+03  0.90672055426E+02 0.  0.
        -11    1    4    4    0    0  0.35650550818E+02 -0.75494172942E+01  0.42271424463E+01  0.36685476804E+02  0.00000000000E+00 0.  1.
         11    1    4    4    0    0  0.52811019263E+01  0.33975561420E+02 -0.93308111663E+02  0.99441603535E+02  0.00000000000E+00 0. -1.
        -13    1    3    3    0    0  0.29506699116E+02 -0.40795096305E+01  0.29516444928E+02  0.41934570615E+02  0.00000000000E+00 0. -1.
         13    1    3    3    0    0 -0.66753177083E+02  0.33075037116E-01  0.10587740322E+03  0.12516394152E+03  0.00000000000E+00 0.  1.
         21    1    1    2  502  501 -0.36851747773E+01 -0.22379709532E+02 -0.58664108088E+02  0.62896021254E+02  0.00000000000E+00 0. -1.
<scales pt_clust_5="13000.00000" pt_clust_6="13000.00000" pt_clust_7="13000.00000" pt_clust_8="13000.00000" pt_clust_9="22.68109"></scales>
<clustering>
<clus scale="   22.681">  2  9  1 -1</clus>
<clus scale="   90.481">  7  8 -1 -1</clus>
<clus scale="   90.672">  5  6 -1 -1</clus>
<clus scale="   98.257">  1  7  2 -1</clus>
<clus scale="   22.681">  2  5  1 -1</clus>
</clustering>
</event>
<event>
 9    1  0.9000149E-006  0.9958805E+02  0.7546771E-02  0.1283187E+00
          4   -1    0    0  502    0  0.00000000000E+00  0.00000000000E+00  0.21652055476E+03  0.21652055476E+03  0.00000000000E+00 0. -1.
         -4   -1    0    0    0  501 -0.00000000000E+00 -0.00000000000E+00 -0.77550151571E+02  0.77550151571E+02  0.00000000000E+00 0.  1.
         23    2    1    2    0    0 -0.37754775889E+02  0.55728318560E+01  0.45052902779E+01  0.97597290336E+02  0.89713175638E+02 0.  0.
         23    2    1    2    0    0  0.13772792764E+02 -0.35142994293E+02  0.11702097525E+03  0.15459468679E+03  0.93706396081E+02 0.  0.
        -11    1    3    3    0    0  0.19609278930E+01 -0.38278650353E+02  0.20036358703E+01  0.38381178562E+02  0.00000000000E+00 0. -1.
         11    1    3    3    0    0 -0.39715703782E+02  0.43851482209E+02  0.25016544076E+01  0.59216111774E+02  0.00000000000E+00 0.  1.
        -13    1    4    4    0    0 -0.33476597508E+02 -0.68766724935E+01  0.12373281388E+02  0.36346516994E+02  0.00000000000E+00 0.  1.
         13    1    4    4    0    0  0.47249390272E+02 -0.28266321800E+02  0.10464769386E+03  0.11824816979E+03  0.00000000000E+00 0. -1.
         21    1    1    2  502  501  0.23981983125E+02  0.29570162437E+02  0.17444137662E+02  0.41878729207E+02  0.00000000000E+00 0. -1.
<scales pt_clust_5="13000.00000" pt_clust_6="13000.00000" pt_clust_7="13000.00000" pt_clust_8="13000.00000" pt_clust_9="38.07269"></scales>
<clustering>
<clus scale="   38.073">  2  9  1 -1</clus>
<clus scale="   89.713">  5  6 -1 -1</clus>
<clus scale="   93.706">  7  8 -1 -1</clus>
<clus scale="   95.840">  2  5  1 -1</clus>
<clus scale="   99.588">  1  5  2 -1</clus>
</clustering>
</event>
<event>
 9    1  0.9000149E-006  0.1247219E+03  0.7546771E-02  0.1236005E+00
         -3   -1    0    0    0  501 -0.00000000000E+00  0.00000000000E+00  0.46040867185E+03  0.46040867185E+03  0.00000000000E+00 0.  1.
          3   -1    0    0  502    0  0.00000000000E+00 -0.00000000000E+00 -0.10814524029E+03  0.10814524029E+03  0.00000000000E+00 0. -1.
         23    2    1    2    0    0 -0.47482537948E+01  0.81158876186E+02  0.36004517523E+03  0.38042307752E+03  0.92086267180E+02 0.  0.
         23    2    1    2    0    0  0.24794597408E+02 -0.97017377338E+02  0.34050227104E+02  0.13910776118E+03  0.90357111995E+02 0.  0.
        -11    1    3    3    0    0 -0.30627188613E+02  0.89644201537E+02  0.29713961880E+03  0.31187507213E+03  0.00000000000E+00 0.  1.
         11    1    3    3    0    0  0.25878934818E+02 -0.84853253512E+01  0.62905556428E+02  0.68548005392E+02  0.00000000000E+00 0. -1.
        -11    1    4    4    0    0  0.32320497767E+02 -0.71465345276E+01 -0.15117945194E+02  0.36390105779E+02  0.00000000000E+00 0.  1.
         11    1    4    4    0    0 -0.75259003589E+01 -0.89870842811E+02  0.49168172298E+02  0.10271765540E+03  0.00000000000E+00 0. -1.
         21    1    1    2  502  501 -0.20046343614E+02  0.15858501153E+02 -0.41831970779E+02  0.49023073449E+02  0.00000000000E+00 0. -1.
<scales pt_clust_5="13000.00000" pt_clust_6="13000.00000" pt_clust_7="13000.00000" pt_clust_8="13000.00000" pt_clust_9="25.56067"></scales>
<clustering>
<clus scale="   25.561">  2  9  1 -1</clus>
<clus scale="   90.357">  7  8 -1 -1</clus>
<clus scale="   92.086">  5  6 -1 -1</clus>
<clus scale="  123.451">  2  7  1 -1</clus>
<clus scale="   25.561">  2  5  1 -1</clus>
</clustering>
</event>
<event>
 9    1  0.9000149E-006  0.9513240E+02  0.7546771E-02  0.1294351E+00
         -1   -1    0    0    0  501 -0.00000000000E+00  0.00000000000E+00  0.52502179613E+03  0.52502179613E+03  0.00000000000E+00 0.  1.
          1   -1    0    0  502    0  0.00000000000E+00 -0.00000000000E+00 -0.33912973260E+02  0.33912973260E+02  0.00000000000E+00 0. -1.
         23    2    1    2    0    0 -0.11382069918E+02 -0.89586114307E+00  0.23745560333E+03  0.25577652932E+03  0.94372216881E+02 0.  0.
         23    2    1    2    0    0 -0.35935383836E+02  0.88287574774E+00  0.23254181766E+03  0.25134479695E+03  0.88353713613E+02 0.  0.
        -13    1    4    4    0    0 -0.64046009645E+02  0.19263337840E+01  0.18843708828E+03  0.19903300820E+03  0.00000000000E+00 0. -1.
         13    1    4    4    0    0  0.28110625809E+02 -0.10434580362E+01  0.44104729384E+02  0.52311788749E+02  0.00000000000E+00 0.  1.
        -13    1    3    3    0    0 -0.18413779469E+02  0.41639174028E+02  0.75359327848E+02  0.88044967952E+02  0.00000000000E+00 0. -1.
         13    1    3    3    0    0  0.70317095506E+01 -0.42535035171E+02  0.16209627548E+03  0.16773156137E+03  0.00000000000E+00 0.  1.
         21    1    1    2  502  501  0.47317453755E+02  0.12985395323E-01  0.21111401880E+02  0.51813443118E+02  0.00000000000E+00 0.  1.
<scales pt_clust_5="13000.00000" pt_clust_6="13000.00000" pt_clust_7="13000.00000" pt_clust_8="13000.00000" pt_clust_9="47.31746"></scales>
<clustering>
<clus scale="   47.317">  2  9  1 -1</clus>
<clus scale="   88.354">  5  6 -1 -1</clus>
<clus scale="   89.165">  2  5  1 -1</clus>
<clus scale="   94.372">  7  8 -1 -1</clus>
<clus scale="   47.317">  2  5  1 -1</clus>
</clustering>
</event>
<event>
 9    1  0.9000149E-006  0.1107730E+03  0.7546771E-02  0.1259346E+00
         -1   -1    0    0    0  501 -0.00000000000E+00  0.00000000000E+00  0.28997212989E+03  0.28997212989E+03  0.00000000000E+00 0.  1.
          1   -1    0    0  502    0  0.00000000000E+00 -0.00000000000E+00 -0.64589514715E+02  0.64589514715E+02  0.00000000000E+00 0. -1.
         23    2    1    2    0    0 -0.56993233175E+02  0.66411417376E+02  0.13672872887E+03  0.18630544652E+03  0.91412631068E+02 0.  0.
         23    2    1    2    0    0  0.32036764943E+02 -0.37622082385E+02  0.53714401177E+02  0.11656075596E+03  0.90881227680E+02 0.  0.
        -13    1    4    4    0    0  0.17246772463E+02  0.29756131899E+02  0.19919221253E+02  0.39744860313E+02  0.00000000000E+00 0.  1.
         13    1    4    4    0    0  0.14789992480E+02 -0.67378214284E+02  0.33795179923E+02  0.76815895645E+02  0.00000000000E+00 0. -1.
        -13    1    3    3    0    0  0.13521245336E+02  0.19408757649E+02  0.82195372871E+02  0.85531299945E+02  0.00000000000E+00 0.  1.
         13    1    3    3    0    0 -0.70514478511E+02  0.47002659727E+02  0.54533355995E+02  0.10077414657E+03  0.00000000000E+00 0. -1.
         21    1    1    2  502  501  0.24956468232E+02 -0.28789334991E+02  0.34939485136E+02  0.51695442134E+02  0.00000000000E+00 0.  1.
<scales pt_clust_5="13000.00000" pt_clust_6="13000.00000" pt_clust_7="13000.00000" pt_clust_8="13000.00000" pt_clust_9="38.10054"></scales>
<clustering>
<clus scale="   38.101">  1  9  2 -1</clus>
<clus scale="   90.881">  5  6 -1 -1</clus>
<clus scale="   91.413">  7  8 -1 -1</clus>
<clus scale="  110.335">  2  5  1 -1</clus>
<clus scale="  110.335">  2  5  1 -1</clus>
</clustering>
</event>
<event>
 9    1  0.9000149E-006  0.1188556E+03  0.7546771E-02  0.1246194E+00
         -1   -1    0    0    0  501 -0.00000000000E+00  0.00000000000E+00  0.21352737868E+03  0.21352737868E+03  0.00000000000E+00 0.  1.
          1   -1    0    0  502    0  0.00000000000E+00 -0.00000000000E+00 -0.24376007522E+03  0.24376007522E+03  0.00000000000E+00 0. -1.
         23    2    1    2    0    0 -0.70631741436E+02  0.30300409397E+02  0.16448348668E+03  0.20590771211E+03  0.97140160625E+02 0.  0.
         23    2    1    2    0    0  0.25763971179E+02 -0.84567719440E+01 -0.79454205744E+02  0.12577884705E+03  0.93659213921E+02 0.  0.
        -11    1    4    4    0    0  0.53096886052E+02  0.19471382772E+02 -0.34641080554E+02  0.66320573862E+02  0.00000000000E+00 0. -1.
         11    1    4    4    0    0 -0.27332914872E+02 -0.27928154716E+02 -0.44813125190E+02  0.59458273189E+02  0.00000000000E+00 0.  1.
        -11    1    3    3    0    0 -0.54248955277E+02 -0.37965385359E+01  0.15854955931E+03  0.16761660303E+03  0.00000000000E+00 0.  1.
         11    1    3    3    0    0 -0.16382786159E+02  0.34096947933E+02  0.59339273773E+01  0.38291109083E+02  0.00000000000E+00 0. -1.
         21    1    1    2  502  501  0.44867770256E+02 -0.21843637453E+02 -0.11526197748E+03  0.12560089473E+03  0.00000000000E+00 0. -1.
<scales pt_clust_5="13000.00000" pt_clust_6="13000.00000" pt_clust_7="13000.00000" pt_clust_8="13000.00000" pt_clust_9="49.90252"></scales>
<clustering>
<clus scale="   49.903">  2  9  1 -1</clus>
<clus scale="   93.659">  5  6 -1 -1</clus>
<clus scale="   97.140">  7  8 -1 -1</clus>
<clus scale="  116.028">  2  5  1 -1</clus>
<clus scale="   49.903">  2  5  1 -1</clus>
</clustering>
</event>
<event>
 9    1  0.9000149E-006  0.9336244E+02  0.7546771E-02  0.1297110E+00
         -1   -1    0    0    0  501 -0.00000000000E+00  0.00000000000E+00  0.96887654802E+02  0.96887654802E+02  0.00000000000E+00 0.  1.
          1   -1    0    0  502    0  0.00000000000E+00 -0.00000000000E+00 -0.61292505119E+03  0.61292505119E+03  0.00000000000E+00 0. -1.
         23    2    1    2    0    0 -0.49716465495E+01  0.19497959357E+02  0.58978570896E+02  0.11125077983E+03  0.92159516598E+02 0.  0.
         23    2    1    2    0    0  0.17303373047E+00  0.43215279503E+02 -0.27610728084E+03  0.29310754357E+03  0.88369741664E+02 0.  0.
        -13    1    4    4    0    0 -0.42606177656E+02  0.32174983681E+02 -0.13230643954E+03  0.14267273704E+03  0.00000000000E+00 0.  1.
         13    1    4    4    0    0  0.42779211387E+02  0.11040295822E+02 -0.14380084130E+03  0.15043480654E+03  0.00000000000E+00 0. -1.
        -13    1    3    3    0    0 -0.71575736136E+00 -0.20714930415E+02  0.66906433955E+02  0.70043497595E+02  0.00000000000E+00 0.  1.
         13    1    3    3    0    0 -0.42558891882E+01  0.40212889772E+02 -0.79278630594E+01  0.41207282236E+02  0.00000000000E+00 0. -1.
         21    1    1    2  502  501  0.47986128191E+01 -0.62713238860E+02 -0.29890868644E+03  0.30545438259E+03  0.00000000000E+00 0. -1.
<scales pt_clust_5="13000.00000" pt_clust_6="13000.00000" pt_clust_7="13000.00000" pt_clust_8="13000.00000" pt_clust_9="62.89656"></scales>
<clustering>
<clus scale="   62.897">  2  9  1 -1</clus>
<clus scale="   88.370">  5  6 -1 -1</clus>
<clus scale="   89.624">  2  5  1 -1</clus>
<clus scale="   92.160">  7  8 -1 -1</clus>
<clus scale="   62.897">  2  5  1 -1</clus>
</clustering>
</event>
<event>
 9    1  0.9000149E-006  0.9362247E+02  0.7546771E-02  0.1294771E+00
         -2   -1    0    0    0  501 -0.00000000000E+00  0.00000000000E+00  0.42525268515E+02  0.42525268515E+02  0.00000000000E+00 0.  1.
          2   -1    0    0  502    0  0.00000000000E+00 -0.00000000000E+00 -0.40263800290E+03  0.40263800290E+03  0.00000000000E+00 0. -1.
         23    2    1    2    0    0  0.12876662374E+02 -0.93635477414E+01 -0.57920502092E+02  0.10917573499E+03  0.91165081521E+02 0.  0.
         23    2    1    2    0    0  0.76768657627E+01  0.48367356910E+02 -0.20983703591E+03  0.23364875127E+03  0.90342801848E+02 0.  0.
        -11    1    3    3    0    0  0.25265846956E+01 -0.49995434296E+02 -0.37442057623E+02  0.62512676792E+02  0.00000000000E+00 0.  1.
         11    1    3    3    0    0  0.10350077678E+02  0.40631886554E+02 -0.20478444469E+02  0.46663058202E+02  0.00000000000E+00 0. -1.
        -11    1    4    4    0    0  0.34667803453E+02  0.61341785032E+02 -0.16818571854E+03  0.18234886100E+03  0.00000000000E+00 0. -1.
         11    1    4    4    0    0 -0.26990937690E+02 -0.12974428123E+02 -0.41651317371E+02  0.51299890265E+02  0.00000000000E+00 0.  1.
         21    1    1    2  502  501 -0.20553528136E+02 -0.39003809168E+02 -0.92355196379E+02  0.10233878515E+03  0.00000000000E+00 0.  1.
<scales pt_clust_5="13000.00000" pt_clust_6="13000.00000" pt_clust_7="13000.00000" pt_clust_8="13000.00000" pt_clust_9="44.08792"></scales>
<clustering>
<clus scale="   44.088">  2  9  1 -1</clus>
<clus scale="   90.343">  7  8 -1 -1</clus>
<clus scale="   91.165">  5  6 -1 -1</clus>
<clus scale="   92.822">  2  7  1 -1</clus>
<clus scale="   44.088">  2  5  1 -1</clus>
</clustering>
</event>
<event>
 9    1  0.9000149E-006  0.1243751E+03  0.7546771E-02  0.1236369E+00
         -2   -1    0    0    0  501 -0.00000000000E+00  0.00000000000E+00  0.13304007093E+03  0.13304007093E+03  0.00000000000E+00 0.  1.
          2   -1    0    0  502    0  0.00000000000E+00 -0.00000000000E+00 -0.30212921020E+03  0.30212921020E+03  0.00000000000E+00 0. -1.
         23    2    1    2    0    0 -0.23667278216E+02 -0.78775236092E+02  0.65753261528E+02  0.13900490722E+03  0.90736954711E+02 0.  0.
         23    2    1    2    0    0  0.53128169708E+02  0.77555413820E+02 -0.12126003421E+03  0.17881708552E+03  0.91837408218E+02 0.  0.
        -13    1    4    4    0    0  0.69515087673E+02  0.38249369296E+02 -0.44331294903E+02  0.90887982559E+02  0.00000000000E+00 0. -1.
         13    1    4    4    0    0 -0.16386917966E+02  0.39306044524E+02 -0.76928739302E+02  0.87929102959E+02  0.00000000000E+00 0.  1.
        -13    1    3    3    0    0  0.24053066322E+02  0.54267458227E+01  0.20939286969E+02  0.32348930562E+02  0.00000000000E+00 0. -1.
         13    1    3    3    0    0 -0.47720344538E+02 -0.84201981915E+02  0.44813974559E+02  0.10665597666E+03  0.00000000000E+00 0.  1.
         21    1    1    2  502  501 -0.29460891492E+02  0.12198222724E+01 -0.11358236659E+03  0.11734728839E+03  0.00000000000E+00 0.  1.
<scales pt_clust_5="13000.00000" pt_clust_6="13000.00000" pt_clust_7="13000.00000" pt_clust_8="13000.00000" pt_clust_9="29.48613"></scales>
<clustering>
<clus scale="   29.486">  2  9  1 -1</clus>
<clus scale="   90.737">  7  8 -1 -1</clus>
<clus scale="   91.837">  5  6 -1 -1</clus>
<clus scale="  123.565">  1  7  2 -1</clus>
<clus scale="   29.486">  2  5  1 -1</clus>
</clustering>
</event>
<event>
 9    1  0.9000149E-006  0.1091609E+03  0.7546771E-02  0.1262357E+00
         -2   -1    0    0    0  501 -0.00000000000E+00  0.00000000000E+00  0.53249625941E+02  0.53249625941E+02  0.00000000000E+00 0.  1.
          2   -1    0    0  502    0  0.00000000000E+00 -0.00000000000E+00 -0.39840735212E+03  0.39840735212E+03  0.00000000000E+00 0. -1.
         23    2    1    2    0    0 -0.12789685407E+02 -0.51407500070E+02 -0.45482612289E+02  0.11472648240E+03  0.91034008082E+02 0.  0.
         23    2    1    2    0    0  0.31271764545E+02  0.75272944431E+02 -0.25584004012E+03  0.28370775262E+03  0.91607987363E+02 0.  0.
        -11    1    4    4    0    0 -0.31468140426E+02  0.38514033130E+02 -0.96626399116E+02  0.10867490794E+03  0.00000000000E+00 0.  1.
         11    1    4    4    0    0  0.62739904971E+02  0.36758911302E+02 -0.15921364101E+03  0.17503284468E+03  0.00000000000E+00 0. -1.
        -13    1    3    3    0    0 -0.45919305859E+02 -0.39385772433E+02 -0.44847562165E+01  0.60662465818E+02  0.00000000000E+00 0.  1.
         13    1    3    3    0    0  0.33129620452E+02 -0.12021727636E+02 -0.40997856072E+02  0.54064016584E+02  0.00000000000E+00 0. -1.
         21    1    1    2  502  501 -0.18482079139E+02 -0.23865444362E+02 -0.43835073767E+02  0.53222743033E+02  0.00000000000E+00 0.  1.
<scales pt_clust_5="13000.00000" pt_clust_6="13000.00000" pt_clust_7="13000.00000" pt_clust_8="13000.00000" pt_clust_9="30.18521"></scales>
<clustering>
<clus scale="   30.185">  2  9  1 -1</clus>
<clus scale="   91.034">  7  8 -1 -1</clus>
<clus scale="   91.608">  5  6 -1 -1</clus>
<clus scale="  108.680">  1  7  2 -1</clus>
<clus scale="   30.185">  2  5  1 -1</clus>
</clustering>
</event>
<event>
 9    1  0.9000149E-006  0.4971022E+03  0.7546771E-02  0.1014550E+00
          2   -1    0    0  502    0  0.00000000000E+00  0.00000000000E+00  0.49812449257E+03  0.49812449257E+03  0.00000000000E+00 0. -1.
         -2   -1    0    0    0  501 -0.00000000000E+00 -0.00000000000E+00 -0.58028677070E+03  0.58028677070E+03  0.00000000000E+00 0.  1.
         23    2    1    2    0    0  0.43398575014E+03  0.19022254797E+03 -0.61801121560E+02  0.48651026806E+03  0.91348854515E+02 0.  0.
         23    2    1    2    0    0 -0.45475310898E+03 -0.21700840738E+03 -0.84997944955E+02  0.51891688823E+03  0.90316373066E+02 0.  0.
        -11    1    4    4    0    0 -0.39110182392E+02  0.20559922939E+01 -0.21868805794E+02  0.44856193974E+02  0.00000000000E+00 0.  1.
         11    1    4    4    0    0 -0.41564292659E+03 -0.21906439967E+03 -0.63129139161E+02  0.47406069426E+03  0.00000000000E+00 0. -1.
        -11    1    3    3    0    0  0.86600792665E+02  0.35242583862E+02  0.24079002072E+02  0.96548098626E+02  0.00000000000E+00 0. -1.
         11    1    3    3    0    0  0.34738495747E+03  0.15497996410E+03 -0.85880123632E+02  0.38996216943E+03  0.00000000000E+00 0.  1.
         21    1    1    2  502  501  0.20767358843E+02  0.26785859415E+02  0.64636788386E+02  0.72984106974E+02  0.00000000000E+00 0. -1.
<scales pt_clust_5="13000.00000" pt_clust_6="13000.00000" pt_clust_7="13000.00000" pt_clust_8="13000.00000" pt_clust_9="33.89344"></scales>
<clustering>
<clus scale="   33.893">  1  9  2 -1</clus>
<clus scale="   90.316">  5  6 -1 -1</clus>
<clus scale="   91.349">  7  8 -1 -1</clus>
<clus scale="  496.914">  1  5  2 -1</clus>
<clus scale="   33.893">  1  5  2 -1</clus>
</clustering>
</event>
<event>
 9    1  0.9000149E-006  0.9713518E+02  0.7546771E-02  0.1292003E+00
         -2   -1    0    0    0  501 -0.00000000000E+00  0.00000000000E+00  0.42137703394E+02  0.42137703394E+02  0.00000000000E+00 0.  1.
          2   -1    0    0  502    0  0.00000000000E+00 -0.00000000000E+00 -0.30568065977E+03  0.30568065977E+03  0.00000000000E+00 0. -1.
         23    2    1    2    0    0 -0.41844202495E+01 -0.11833215291E+02 -0.97973946037E+02  0.13170839222E+03  0.87124463401E+02 0.  0.
         23    2    1    2    0    0 -0.19208995284E+02 -0.11716739828E+02 -0.14877621612E+03  0.17890983366E+03  0.96788938442E+02 0.  0.
        -11    1    4    4    0    0  0.15630822779E+02  0.30145497416E+02 -0.20786211134E+02  0.39813819316E+02  0.00000000000E+00 0.  1.
         11    1    4    4    0    0 -0.34839818063E+02 -0.41862237244E+02 -0.12799000498E+03  0.13909601434E+03  0.00000000000E+00 0. -1.
        -13    1    3    3    0    0 -0.34292568783E+02  0.22504195952E+02 -0.57863596944E+02  0.70926828214E+02  0.00000000000E+00 0.  1.
         13    1    3    3    0    0  0.30108148534E+02 -0.34337411243E+02 -0.40110349093E+02  0.60781564009E+02  0.00000000000E+00 0. -1.
         21    1    1    2  502  501  0.23393415534E+02  0.23549955119E+02 -0.16792794226E+02  0.37200137289E+02  0.00000000000E+00 0.  1.
<scales pt_clust_5="13000.00000" pt_clust_6="13000.00000" pt_clust_7="13000.00000" pt_clust_8="13000.00000" pt_clust_9="33.19416"></scales>
<clustering>
<clus scale="   33.194">  1  9  2 -1</clus>
<clus scale="   87.124">  7  8 -1 -1</clus>
<clus scale="   87.509">  1  7  2 -1</clus>
<clus scale="   96.789">  5  6 -1 -1</clus>
<clus scale="   97.135">  2  5  1 -1</clus>
</clustering>
</event>
<event>
 9    1  0.9000149E-006  0.1008267E+03  0.7546771E-02  0.1278846E+00
         -2   -1    0    0    0  501 -0.00000000000E+00  0.00000000000E+00  0.13011904171E+03  0.13011904171E+03  0.00000000000E+00 0.  1.
          2   -1    0    0  502    0  0.00000000000E+00 -0.00000000000E+00 -0.28245040582E+03  0.28245040582E+03  0.00000000000E+00 0. -1.
         23    2    1    2    0    0  0.75119757049E+01  0.14749428901E+02  0.87514700653E+02  0.12779147322E+03  0.91639851404E+02 0.  0.
         23    2    1    2    0    0 -0.40384139712E+02 -0.19695991745E+02 -0.22783064040E+03  0.24943086590E+03  0.91050235187E+02 0.  0.
        -11    1    3    3    0    0  0.15667171507E+02 -0.13312908557E+02  0.95345664055E+02  0.97537118326E+02  0.00000000000E+00 0.  1.
         11    1    3    3    0    0 -0.81551958023E+01  0.28062337458E+02 -0.78309634027E+01  0.30254354893E+02  0.00000000000E+00 0. -1.
        -13    1    4    4    0    0 -0.47419851909E+02 -0.44212109194E+02 -0.20565678950E+03  0.21563410681E+03  0.00000000000E+00 0. -1.
         13    1    4    4    0    0  0.70357121968E+01  0.24516117450E+02 -0.22173850899E+02  0.33796759084E+02  0.00000000000E+00 0.  1.
         21    1    1    2  502  501  0.32872164007E+02  0.49465628442E+01 -0.12015424368E+02  0.35347108414E+02  0.00000000000E+00 0.  1.
<scales pt_clust_5="13000.00000" pt_clust_6="13000.00000" pt_clust_7="13000.00000" pt_clust_8="13000.00000" pt_clust_9="33.24226"></scales>
<clustering>
<clus scale="   33.242">  1  9  2 -1</clus>
<clus scale="   91.050">  7  8 -1 -1</clus>
<clus scale="   91.640">  5  6 -1 -1</clus>
<clus scale="  100.291">  2  7  1 -1</clus>
<clus scale="  100.291">  2  5  1 -1</clus>
</clustering>
</event>
<event>
 9    1  0.9000149E-006  0.1242676E+03  0.7546771E-02  0.1240498E+00
          1   -1    0    0  502    0  0.00000000000E+00  0.00000000000E+00  0.12159400821E+04  0.12159400821E+04  0.00000000000E+00 0. -1.
         -1   -1    0    0    0  501 -0.00000000000E+00 -0.00000000000E+00 -0.27172483802E+02  0.27172483802E+02  0.00000000000E+00 0.  1.
         23    2    1    2    0    0 -0.33539497212E+02  0.52532002522E+02  0.14395354757E+03  0.18150336547E+03  0.91303552266E+02 0.  0.
         23    2    1    2    0    0  0.24611805066E+02 -0.95467640296E+02  0.75153251444E+03  0.76506707491E+03  0.10395526716E+03 0.  0.
        -13    1    3    3    0    0 -0.42208525836E+02  0.41272332923E+01  0.11905745673E+03  0.12638540941E+03  0.00000000000E+00 0. -1.
         13    1    3    3    0    0  0.86690286242E+01  0.48404769230E+02  0.24896090842E+02  0.55117956064E+02  0.00000000000E+00 0.  1.
        -13    1    4    4    0    0  0.38775429568E+02 -0.11372268143E+03  0.62634313609E+03  0.63776336233E+03  0.00000000000E+00 0. -1.
         13    1    4    4    0    0 -0.14163624502E+02  0.18255041133E+02  0.12518937835E+03  0.12730371258E+03  0.00000000000E+00 0.  1.
         21    1    1    2  502  501  0.89276921458E+01  0.42935637774E+02  0.29328153631E+03  0.29654212554E+03  0.00000000000E+00 0.  1.
<scales pt_clust_5="13000.00000" pt_clust_6="13000.00000" pt_clust_7="13000.00000" pt_clust_8="13000.00000" pt_clust_9="43.85399"></scales>
<clustering>
<clus scale="   43.854">  1  9  2 -1</clus>
<clus scale="   91.304">  5  6 -1 -1</clus>
<clus scale="  103.955">  7  8 -1 -1</clus>
<clus scale="  113.895">  2  5  1 -1</clus>
<clus scale="   43.854">  1  5  2 -1</clus>
</clustering>
</event>
<event>
 9    1  0.9000149E-006  0.1085064E+03  0.7546771E-02  0.1263692E+00
          1   -1    0    0  502    0  0.00000000000E+00  0.00000000000E+00  0.19393972991E+03  0.19393972991E+03  0.00000000000E+00 0. -1.
         -1   -1    0    0    0  501 -0.00000000000E+00 -0.00000000000E+00 -0.21117243349E+03  0.21117243349E+03  0.00000000000E+00 0.  1.
         23    2    1    2    0    0 -0.45945252393E+02  0.45448003259E+02 -0.10008271726E+03  0.15019326496E+03  0.91460260923E+02 0.  0.
         23    2    1    2    0    0  0.64972408616E+02  0.20096976847E+02 -0.34020528734E+02  0.11957895322E+03  0.92284491207E+02 0.  0.
        -11    1    4    4    0    0  0.39472010032E+02  0.55481373446E+02 -0.74230908577E+01  0.68493245311E+02  0.00000000000E+00 0.  1.
         11    1    4    4    0    0  0.25500398584E+02 -0.35384396599E+02 -0.26597437877E+02  0.51085707905E+02  0.00000000000E+00 0. -1.
        -11    1    3    3    0    0 -0.66982467643E+02  0.42326025938E+02 -0.10163240469E+03  0.12886927146E+03  0.00000000000E+00 0.  1.
         11    1    3    3    0    0  0.21037215250E+02  0.31219773208E+01  0.15496874286E+01  0.21323993504E+02  0.00000000000E+00 0. -1.
         21    1    1    2  502  501 -0.19027156222E+02 -0.65544980106E+02  0.11687054241E+03  0.13533994523E+03  0.00000000000E+00 0. -1.
<scales pt_clust_5="13000.00000" pt_clust_6="13000.00000" pt_clust_7="13000.00000" pt_clust_8="13000.00000" pt_clust_9="68.25084"></scales>
<clustering>
<clus scale="   68.251">  1  9  2 -1</clus>
<clus scale="   91.460">  7  8 -1 -1</clus>
<clus scale="   92.284">  5  6 -1 -1</clus>
<clus scale="  107.806">  2  7  1 -1</clus>
<clus scale="   68.251">  1  5  2 -1</clus>
</clustering>
</event>
<event>
 9    1  0.9000149E-006  0.9849200E+02  0.7546771E-02  0.1285155E+00
          1   -1    0    0  502    0  0.00000000000E+00  0.00000000000E+00  0.72729254263E+02  0.72729254263E+02  0.00000000000E+00 0. -1.
         -1   -1    0    0    0  501 -0.00000000000E+00 -0.00000000000E+00 -0.29926874657E+03  0.29926874657E+03  0.00000000000E+00 0.  1.
         23    2    1    2    0    0  0.36006588718E+02 -0.97636850991E+01 -0.22453842647E+03  0.24430699007E+03  0.88750191294E+02 0.  0.
         23    2    1    2    0    0 -0.19948350165E+02  0.24251227670E+02 -0.20355538898E+02  0.99324787959E+02  0.92005471693E+02 0.  0.
        -13    1    3    3    0    0  0.52378023065E+02 -0.35738562917E+02 -0.12535406532E+03  0.14047898018E+03  0.00000000000E+00 0.  1.
         13    1    3    3    0    0 -0.16371434347E+02  0.25974877817E+02 -0.99184361150E+02  0.10382800989E+03  0.00000000000E+00 0. -1.
        -13    1    4    4    0    0  0.79644633114E+01  0.51514440909E+02 -0.28582935100E+02  0.59448755050E+02  0.00000000000E+00 0.  1.
         13    1    4    4    0    0 -0.27912813476E+02 -0.27263213240E+02  0.82273962018E+01  0.39876032909E+02  0.00000000000E+00 0. -1.
         21    1    1    2  502  501 -0.16058238554E+02 -0.14487542570E+02  0.18354473061E+02  0.28366222810E+02  0.00000000000E+00 0.  1.
<scales pt_clust_5="13000.00000" pt_clust_6="13000.00000" pt_clust_7="13000.00000" pt_clust_8="13000.00000" pt_clust_9="21.62767"></scales>
<clustering>
<clus scale="   21.628">  1  9  2 -1</clus>
<clus scale="   88.750">  5  6 -1 -1</clus>
<clus scale="   92.005">  7  8 -1 -1</clus>
<clus scale="   95.458">  2  5  1 -1</clus>
<clus scale="   21.628">  1  5  2 -1</clus>
</clustering>
</event>
<event>
 9    1  0.9000149E-006  0.1043613E+03  0.7546771E-02  0.1271654E+00
         -2   -1    0    0    0  501 -0.00000000000E+00  0.00000000000E+00  0.88714878769E+03  0.88714878769E+03  0.00000000000E+00 0.  1.
          2   -1    0    0  502    0  0.00000000000E+00 -0.00000000000E+00 -0.24871765385E+02  0.24871765385E+02  0.00000000000E+00 0. -1.
         23    2    1    2    0    0 -0.26641866586E+01 -0.43109655594E+02  0.48456093564E+03  0.49517186719E+03  0.92359825765E+02 0.  0.
         23    2    1    2    0    0 -0.24425615203E+02  0.51986259245E+02  0.37207120154E+03  0.38778812523E+03  0.92970259930E+02 0.  0.
        -11    1    4    4    0    0  0.25357540934E+02  0.43727206525E+02  0.11217186232E+03  0.12303495507E+03  0.00000000000E+00 0.  1.
         11    1    4    4    0    0 -0.49783156137E+02  0.82590527198E+01  0.25989933922E+03  0.26475317016E+03  0.00000000000E+00 0. -1.
        -13    1    3    3    0    0  0.42949141842E+02 -0.31949337336E+02  0.29950032579E+03  0.30424633784E+03  0.00000000000E+00 0. -1.
         13    1    3    3    0    0 -0.45613328500E+02 -0.11160318258E+02  0.18506060985E+03  0.19092552935E+03  0.00000000000E+00 0.  1.
         21    1    1    2  502  501  0.27089801862E+02 -0.88766036509E+01  0.56448851344E+01  0.29060560653E+02  0.00000000000E+00 0.  1.
<scales pt_clust_5="13000.00000" pt_clust_6="13000.00000" pt_clust_7="13000.00000" pt_clust_8="13000.00000" pt_clust_9="28.50704"></scales>
<clustering>
<clus scale="   28.507">  2  9  1 -1</clus>
<clus scale="   92.360">  7  8 -1 -1</clus>
<clus scale="   92.970">  5  6 -1 -1</clus>
<clus scale="  103.818">  1  7  2 -1</clus>
<clus scale="   28.507">  2  5  1 -1</clus>
</clustering>
</event>
<event>
 9    1  0.9000149E-006  0.1007499E+03  0.7546771E-02  0.1280830E+00
          2   -1    0    0  502    0  0.00000000000E+00  0.00000000000E+00  0.53538330521E+03  0.53538330521E+03  0.00000000000E+00 0. -1.
         -2   -1    0    0    0  501 -0.00000000000E+00 -0.00000000000E+00 -0.36955254838E+02  0.36955254838E+02  0.00000000000E+00 0.  1.
         23    2    1    2    0    0  0.14005424045E+02 -0.18743896197E+02  0.11116474780E+03  0.14552005239E+03  0.90945032556E+02 0.  0.
         23    2    1    2    0    0  0.38940234236E+01  0.49393932930E+02  0.13674908183E+03  0.17380232287E+03  0.95142062333E+02 0.  0.
        -11    1    3    3    0    0  0.40857158018E+02 -0.31877458253E+01  0.10653345860E+03  0.11414397438E+03  0.00000000000E+00 0.  1.
         11    1    3    3    0    0 -0.26851733973E+02 -0.15556150372E+02  0.46312891969E+01  0.31376078012E+02  0.00000000000E+00 0. -1.
        -13    1    4    4    0    0 -0.30969756412E+02  0.35300297756E+02  0.12633767462E+03  0.13478295464E+03  0.00000000000E+00 0. -1.
         13    1    4    4    0    0  0.34863779836E+02  0.14093635174E+02  0.10411407212E+02  0.39019368229E+02  0.00000000000E+00 0.  1.
         21    1    1    2  502  501 -0.17899447468E+02 -0.30650036732E+02  0.25051422074E+03  0.25301618479E+03  0.00000000000E+00 0. -1.
<scales pt_clust_5="13000.00000" pt_clust_6="13000.00000" pt_clust_7="13000.00000" pt_clust_8="13000.00000" pt_clust_9="35.49387"></scales>
<clustering>
<clus scale="   35.494">  1  9  2 -1</clus>
<clus scale="   90.945">  5  6 -1 -1</clus>
<clus scale="   95.142">  7  8 -1 -1</clus>
<clus scale="   96.796">  2  5  1 -1</clus>
<clus scale="   35.494">  1  5  2 -1</clus>
</clustering>
</event>
<event>
 9    1  0.9000149E-006  0.1089651E+03  0.7546771E-02  0.1264921E+00
         -1   -1    0    0    0  501 -0.00000000000E+00  0.00000000000E+00  0.41903408233E+03  0.41903408233E+03  0.00000000000E+00 0.  1.
          1   -1    0    0  502    0  0.00000000000E+00 -0.00000000000E+00 -0.52086200023E+02  0.52086200023E+02  0.00000000000E+00 0. -1.
         23    2    1    2    0    0 -0.72080379867E+01 -0.39936682222E+01  0.17586990395E+03  0.19870086069E+03  0.92108108903E+02 0.  0.
         23    2    1    2    0    0  0.67216410208E+02  0.32624103842E+02  0.94376851329E+02  0.15506604698E+03  0.97755362552E+02 0.  0.
        -13    1    4    4    0    0  0.76236499061E+02  0.20316799355E+00  0.94494426088E+02  0.12141351501E+03  0.00000000000E+00 0. -1.
         13    1    4    4    0    0 -0.90200888534E+01  0.32420935848E+02 -0.11757475845E+00  0.33652531970E+02  0.00000000000E+00 0.  1.
        -13    1    3    3    0    0  0.87056957249E+01  0.35276588409E+02  0.31002205146E+02  0.47763621635E+02  0.00000000000E+00 0.  1.
         13    1    3    3    0    0 -0.15913733712E+02 -0.39270256631E+02  0.14486769880E+03  0.15093723905E+03  0.00000000000E+00 0. -1.
         21    1    1    2  502  501 -0.60008372221E+02 -0.28630435620E+02  0.96701127036E+02  0.11735337469E+03  0.00000000000E+00 0.  1.
<scales pt_clust_5="13000.00000" pt_clust_6="13000.00000" pt_clust_7="13000.00000" pt_clust_8="13000.00000" pt_clust_9="66.48839"></scales>
<clustering>
<clus scale="   66.488">  1  9  2 -1</clus>
<clus scale="   92.108">  7  8 -1 -1</clus>
<clus scale="   97.755">  5  6 -1 -1</clus>
<clus scale="  103.929">  1  7  2 -1</clus>
<clus scale="  108.965">  2  5  1 -1</clus>
</clustering>
</event>
<event>
 9    1  0.9000149E-006  0.1038579E+03  0.7546771E-02  0.1277445E+00
          1   -1    0    0  502    0  0.00000000000E+00  0.00000000000E+00  0.47229843080E+02  0.47229843080E+02  0.00000000000E+00 0. -1.
         -1   -1    0    0    0  501 -0.00000000000E+00 -0.00000000000E+00 -0.34657081046E+03  0.34657081046E+03  0.00000000000E+00 0.  1.
         23    2    1    2    0    0  0.15335198151E+02  0.35181584885E+02 -0.19951652345E+03  0.22658377859E+03  0.10030181141E+03 0.  0.
         23    2    1    2    0    0 -0.19878622729E+02 -0.43619816320E+00 -0.93684340404E+02  0.13164180676E+03  0.90318656658E+02 0.  0.
        -11    1    3    3    0    0  0.93443366599E+01 -0.33512527176E+02 -0.96856726298E+02  0.10291565252E+03  0.00000000000E+00 0.  1.
         11    1    3    3    0    0  0.59908614915E+01  0.68694112061E+02 -0.10265979716E+03  0.12366812607E+03  0.00000000000E+00 0. -1.
        -11    1    4    4    0    0  0.26325231731E+02 -0.72354729367E+00 -0.78822786522E+02  0.83105794151E+02  0.00000000000E+00 0.  1.
         11    1    4    4    0    0 -0.46203854460E+02  0.28734913047E+00 -0.14861553882E+02  0.48536012612E+02  0.00000000000E+00 0. -1.
         21    1    1    2  502  501  0.45434245779E+01 -0.34745386721E+02 -0.61401035277E+01  0.35575068189E+02  0.00000000000E+00 0. -1.
<scales pt_clust_5="13000.00000" pt_clust_6="13000.00000" pt_clust_7="13000.00000" pt_clust_8="13000.00000" pt_clust_9="35.04118"></scales>
<clustering>
<clus scale="   35.041">  1  9  2 -1</clus>
<clus scale="   90.319">  7  8 -1 -1</clus>
<clus scale="   94.252">  1  7  2 -1</clus>
<clus scale="  100.302">  5  6 -1 -1</clus>
<clus scale="   35.041">  1  5  2 -1</clus>
</clustering>
</event>
<event>
 9    1  0.9000149E-006  0.9461564E+02  0.7546771E-02  0.1292328E+00
         -1   -1    0    0    0  501 -0.00000000000E+00  0.00000000000E+00  0.18491880442E+03  0.18491880442E+03  0.00000000000E+00 0.  1.
          1   -1    0    0  502    0  0.00000000000E+00 -0.00000000000E+00 -0.29826647053E+03  0.29826647053E+03  0.00000000000E+00 0. -1.
         23    2    1    2    0    0 -0.22862950032E+02  0.74410993443E+01  0.15143410821E+03  0.17809230831E+03  0.90589716350E+02 0.  0.
         23    2    1    2    0    0  0.29629295272E+02 -0.47250826177E+02 -0.15610736501E+03  0.18915882578E+03  0.91109912992E+02 0.  0.
        -11    1    4    4    0    0  0.11290599520E+02 -0.63917367267E+02 -0.55052146011E+02  0.85109613184E+02  0.00000000000E+00 0.  1.
         11    1    4    4    0    0  0.18338695752E+02  0.16666541090E+02 -0.10105521900E+03  0.10404921259E+03  0.00000000000E+00 0. -1.
        -13    1    3    3    0    0 -0.41559583277E+02 -0.55397510426E+01  0.14947863841E+03  0.15524738692E+03  0.00000000000E+00 0.  1.
         13    1    3    3    0    0  0.18696633245E+02  0.12980850387E+02  0.19554697967E+01  0.22844921396E+02  0.00000000000E+00 0. -1.
         21    1    1    2  502  501 -0.67663452397E+01  0.39809726833E+02 -0.10867440931E+03  0.11593414086E+03  0.00000000000E+00 0. -1.
<scales pt_clust_5="13000.00000" pt_clust_6="13000.00000" pt_clust_7="13000.00000" pt_clust_8="13000.00000" pt_clust_9="40.38066"></scales>
<clustering>
<clus scale="   40.381">  2  9  1 -1</clus>
<clus scale="   90.590">  7  8 -1 -1</clus>
<clus scale="   91.110">  5  6 -1 -1</clus>
<clus scale="   94.115">  1  7  2 -1</clus>
<clus scale="   40.381">  2  5  1 -1</clus>
</clustering>
</event>
<event>
 9    1  0.9000149E-006  0.1399380E+03  0.7546771E-02  0.1213522E+00
          2   -1    0    0  502    0  0.00000000000E+00  0.00000000000E+00  0.34138711218E+03  0.34138711218E+03  0.00000000000E+00 0. -1.
         -2   -1    0    0    0  501 -0.00000000000E+00 -0.00000000000E+00 -0.10238114304E+03  0.10238114304E+03  0.00000000000E+00 0.  1.
         23    2    1    2    0    0  0.10852130873E+03 -0.22494881310E+02 -0.15383686883E+02  0.14354216644E+03  0.89915524744E+02 0.  0.
         23    2    1    2    0    0 -0.95060879663E+02  0.99438610239E+00  0.18886937359E+03  0.22996684132E+03  0.90418737990E+02 0.  0.
        -11    1    4    4    0    0 -0.10880302558E+03 -0.14403411192E+02  0.16753481993E+03  0.20028348039E+03  0.00000000000E+00 0. -1.
         11    1    4    4    0    0  0.13742145918E+02  0.15397797295E+02  0.21334553662E+02  0.29683360927E+02  0.00000000000E+00 0.  1.
        -13    1    3    3    0    0  0.19429486975E+02 -0.33863269204E+02  0.23613532441E+02  0.45627019184E+02  0.00000000000E+00 0. -1.
         13    1    3    3    0    0  0.89091821752E+02  0.11368387894E+02 -0.38997219324E+02  0.97915147252E+02  0.00000000000E+00 0.  1.
         21    1    1    2  502  501 -0.13460429063E+02  0.21500495208E+02  0.65520282427E+02  0.70259247463E+02  0.00000000000E+00 0. -1.
<scales pt_clust_5="13000.00000" pt_clust_6="13000.00000" pt_clust_7="13000.00000" pt_clust_8="13000.00000" pt_clust_9="25.36640"></scales>
<clustering>
<clus scale="   25.366">  1  9  2 -1</clus>
<clus scale="   89.916">  7  8 -1 -1</clus>
<clus scale="   90.419">  5  6 -1 -1</clus>
<clus scale="  139.613">  2  7  1 -1</clus>
<clus scale="   25.366">  1  5  2 -1</clus>
</clustering>
</event>
<event>
 9    1  0.9000149E-006  0.1025364E+03  0.7546771E-02  0.1275634E+00
         -1   -1    0    0    0  501 -0.00000000000E+00  0.00000000000E+00  0.44054871792E+02  0.44054871792E+02  0.00000000000E+00 0.  1.
          1   -1    0    0  502    0  0.00000000000E+00 -0.00000000000E+00 -0.60370819254E+03  0.60370819254E+03  0.00000000000E+00 0. -1.
         23    2    1    2    0    0 -0.40939853692E+02  0.37012503435E+01 -0.41102735775E+02  0.10868853481E+03  0.91836767348E+02 0.  0.
         23    2    1    2    0    0  0.67744389494E+02  0.87061024849E+01 -0.34901266816E+03  0.36698289468E+03  0.90562155038E+02 0.  0.
        -13    1    4    4    0    0  0.73204358164E+02  0.37353808943E+02 -0.28552638093E+03  0.29711866200E+03  0.00000000000E+00 0.  1.
         13    1    4    4    0    0 -0.54599686699E+01 -0.28647706458E+02 -0.63486287223E+02  0.69864232684E+02  0.00000000000E+00 0. -1.
        -13    1    3    3    0    0 -0.10203436252E+02 -0.36352434609E+02 -0.44168869439E+02  0.58107647009E+02  0.00000000000E+00 0. -1.
         13    1    3    3    0    0 -0.30736417440E+02  0.40053684952E+02  0.30661336643E+01  0.50580887803E+02  0.00000000000E+00 0.  1.
         21    1    1    2  502  501 -0.26804535801E+02 -0.12407352828E+02 -0.16953791681E+03  0.17209163484E+03  0.00000000000E+00 0. -1.
<scales pt_clust_5="13000.00000" pt_clust_6="13000.00000" pt_clust_7="13000.00000" pt_clust_8="13000.00000" pt_clust_9="29.53685"></scales>
<clustering>
<clus scale="   29.537">  2  9  1 -1</clus>
<clus scale="   90.562">  5  6 -1 -1</clus>
<clus scale="   91.837">  7  8 -1 -1</clus>
<clus scale="  101.396">  2  5  1 -1</clus>
<clus scale="   29.537">  2  5  1 -1</clus>
</clustering>
</event>
<event>
 9    1  0.9000149E-006  0.1472695E+03  0.7546771E-02  0.1205251E+00
         -2   -1    0    0    0  501 -0.00000000000E+00  0.00000000000E+00  0.47680617003E+02  0.47680617003E+02  0.00000000000E+00 0.  1.
          2   -1    0    0  502    0  0.00000000000E+00 -0.00000000000E+00 -0.65094850034E+03  0.65094850034E+03  0.00000000000E+00 0. -1.
         23    2    1    2    0    0  0.93006044498E+02  0.65516208145E+02 -0.13170850224E+03  0.19325579960E+03  0.84012955385E+02 0.  0.
         23    2    1    2    0    0 -0.11321952865E+03 -0.47474278633E+02 -0.42259332268E+03  0.44941108907E+03  0.91174238708E+02 0.  0.
        -11    1    3    3    0    0  0.81481769782E+02  0.85644377296E+02 -0.11121284935E+03  0.16230383862E+03  0.00000000000E+00 0.  1.
         11    1    3    3    0    0  0.11524274715E+02 -0.20128169151E+02 -0.20495652894E+02  0.30951960982E+02  0.00000000000E+00 0. -1.
        -11    1    4    4    0    0 -0.97786204210E+02 -0.30770011898E+02 -0.41155711792E+03  0.42413228677E+03  0.00000000000E+00 0. -1.
         11    1    4    4    0    0 -0.15433324436E+02 -0.16704266735E+02 -0.11036204759E+02  0.25278802301E+02  0.00000000000E+00 0.  1.
         21    1    1    2  502  501  0.20213484148E+02 -0.18041929512E+02 -0.48966058409E+02  0.55962228673E+02  0.00000000000E+00 0. -1.
<scales pt_clust_5="13000.00000" pt_clust_6="13000.00000" pt_clust_7="13000.00000" pt_clust_8="13000.00000" pt_clust_9="27.09421"></scales>
<clustering>
<clus scale="   27.094">  2  9  1 -1</clus>
<clus scale="   84.013">  5  6 -1 -1</clus>
<clus scale="   91.174">  7  8 -1 -1</clus>
<clus scale="  142.947">  1  5  2 -1</clus>
<clus scale="   27.094">  2  5  1 -1</clus>
</clustering>
</event>
<event>
 9    1  0.9000149E-006  0.1019630E+03  0.7546771E-02  0.1277021E+00
          2   -1    0    0  502    0  0.00000000000E+00  0.00000000000E+00  0.52807028778E+03  0.52807028778E+03  0.00000000000E+00 0. -1.
         -2   -1    0    0    0  501 -0.00000000000E+00 -0.00000000000E+00 -0.45872441082E+02  0.45872441082E+02  0.00000000000E+00 0.  1.
         23    2    1    2    0    0  0.30850888251E+02  0.43478878997E+02  0.49745200197E+02  0.11575978910E+03  0.89908584713E+02 0.  0.
         23    2    1    2    0    0 -0.35635806751E+02  0.56886211661E+01  0.23840660720E+03  0.25794756855E+03  0.91634964010E+02 0.  0.
        -11    1    4    4    0    0 -0.21757991623E+01 -0.30367545884E+02  0.26362819755E+02  0.40273070536E+02  0.00000000000E+00 0.  1.
         11    1    4    4    0    0 -0.33460007589E+02  0.36056167050E+02  0.21204378744E+03  0.21767449801E+03  0.00000000000E+00 0. -1.
        -11    1    3    3    0    0  0.21103103239E+02 -0.22659507594E+02  0.36042789493E+02  0.47517122442E+02  0.00000000000E+00 0.  1.
         11    1    3    3    0    0  0.97477850127E+01  0.66138386591E+02  0.13702410704E+02  0.68242666658E+02  0.00000000000E+00 0. -1.
         21    1    1    2  502  501  0.47849184994E+01 -0.49167500163E+02  0.19404603930E+03  0.20023537122E+03  0.00000000000E+00 0.  1.
<scales pt_clust_5="13000.00000" pt_clust_6="13000.00000" pt_clust_7="13000.00000" pt_clust_8="13000.00000" pt_clust_9="49.39978"></scales>
<clustering>
<clus scale="   49.400">  1  9  2 -1</clus>
<clus scale="   89.909">  7  8 -1 -1</clus>
<clus scale="   91.635">  5  6 -1 -1</clus>
<clus scale="  100.414">  2  7  1 -1</clus>
<clus scale="   49.400">  1  5  2 -1</clus>
</clustering>
</event>
<event>
 9    1  0.9000149E-006  0.1593218E+03  0.7546771E-02  0.1190676E+00
          2   -1    0    0  502    0  0.00000000000E+00  0.00000000000E+00  0.77296317752E+02  0.77296317752E+02  0.00000000000E+00 0. -1.
         -2   -1    0    0    0  501 -0.00000000000E+00 -0.00000000000E+00 -0.56286822131E+03  0.56286822131E+03  0.00000000000E+00 0.  1.
         23    2    1    2    0    0 -0.11050461866E+03 -0.34047646257E+02 -0.21505900828E+03  0.26291542095E+03  0.97486555848E+02 0.  0.
         23    2    1    2    0    0  0.14452993266E+03 -0.34837982374E+02 -0.23548890148E+03  0.29281197009E+03  0.90450210912E+02 0.  0.
        -11    1    3    3    0    0 -0.81472178909E+01 -0.47016937845E+02 -0.59891747732E+02  0.76576700439E+02  0.00000000000E+00 0.  1.
         11    1    3    3    0    0 -0.10235740077E+03  0.12969291588E+02 -0.15516726055E+03  0.18633872051E+03  0.00000000000E+00 0. -1.
        -11    1    4    4    0    0  0.90264766482E+02 -0.42504201083E+02 -0.79800448714E+02  0.12775933153E+03  0.00000000000E+00 0. -1.
         11    1    4    4    0    0  0.54265166181E+02  0.76662187085E+01 -0.15568845277E+03  0.16505263856E+03  0.00000000000E+00 0.  1.
         21    1    1    2  502  501 -0.34025314004E+02  0.68885628632E+02 -0.35023993798E+02  0.84437148025E+02  0.00000000000E+00 0. -1.
<scales pt_clust_5="13000.00000" pt_clust_6="13000.00000" pt_clust_7="13000.00000" pt_clust_8="13000.00000" pt_clust_9="76.83067"></scales>
<clustering>
<clus scale="   76.831">  1  9  2 -1</clus>
<clus scale="   90.450">  7  8 -1 -1</clus>
<clus scale="   97.487">  5  6 -1 -1</clus>
<clus scale="  155.116">  1  7  2 -1</clus>
<clus scale="   76.831">  1  5  2 -1</clus>
</clustering>
</event>
<event>
 9    1  0.9000149E-006  0.9944380E+02  0.7546771E-02  0.1283542E+00
          1   -1    0    0  502    0  0.00000000000E+00  0.00000000000E+00  0.40895630472E+02  0.40895630472E+02  0.00000000000E+00 0. -1.
         -1   -1    0    0    0  501 -0.00000000000E+00 -0.00000000000E+00 -0.52797670809E+03  0.52797670809E+03  0.00000000000E+00 0.  1.
         23    2    1    2    0    0  0.31437853130E+02 -0.27719714412E+02 -0.38226743687E+03  0.39370022240E+03  0.84348981327E+02 0.  0.
         23    2    1    2    0    0 -0.30835467175E+02  0.49843096705E+02 -0.10944435200E+03  0.15256126922E+03  0.88666309026E+02 0.  0.
        -13    1    3    3    0    0  0.48725895441E+01 -0.50518547277E+02 -0.30047398626E+03  0.30473017929E+03  0.00000000000E+00 0.  1.
         13    1    3    3    0    0  0.26565263586E+02  0.22798832865E+02 -0.81793450605E+02  0.88970043111E+02  0.00000000000E+00 0. -1.
        -13    1    4    4    0    0  0.27566266648E+02  0.35034664807E+02 -0.59216043328E+02  0.74120621843E+02  0.00000000000E+00 0.  1.
         13    1    4    4    0    0 -0.58401733823E+02  0.14808431898E+02 -0.50228308672E+02  0.78440647377E+02  0.00000000000E+00 0. -1.
         21    1    1    2  502  501 -0.60238595456E+00 -0.22123382292E+02  0.46307112486E+01  0.22610846945E+02  0.00000000000E+00 0. -1.
<scales pt_clust_5="13000.00000" pt_clust_6="13000.00000" pt_clust_7="13000.00000" pt_clust_8="13000.00000" pt_clust_9="22.13158"></scales>
<clustering>
<clus scale="   22.132">  1  9  2 -1</clus>
<clus scale="   84.349">  5  6 -1 -1</clus>
<clus scale="   88.666">  7  8 -1 -1</clus>
<clus scale="   95.614">  2  5  1 -1</clus>
<clus scale="   22.132">  1  5  2 -1</clus>
</clustering>
</event>
<event>
 9    1  0.9000149E-006  0.1454090E+03  0.7546771E-02  0.1207200E+00
         -3   -1    0    0    0  501 -0.00000000000E+00  0.00000000000E+00  0.56256322759E+03  0.56256322759E+03  0.00000000000E+00 0.  1.
          3   -1    0    0  502    0  0.00000000000E+00 -0.00000000000E+00 -0.92719774311E+02  0.92719774311E+02  0.00000000000E+00 0. -1.
         23    2    1    2    0    0  0.90423881439E+02 -0.56529825356E+02  0.29451165979E+03  0.32617690922E+03  0.91006367190E+02 0.  0.
         23    2    1    2    0    0 -0.90142435476E+02  0.86253741412E+02  0.22494647897E+03  0.27126832462E+03  0.86140692831E+02 0.  0.
        -11    1    4    4    0    0 -0.86403085738E+02  0.29501826089E+02  0.10947891271E+03  0.14255344014E+03  0.00000000000E+00 0. -1.
         11    1    4    4    0    0 -0.37393497378E+01  0.56751915324E+02  0.11546756626E+03  0.12871488448E+03  0.00000000000E+00 0.  1.
        -13    1    3    3    0    0  0.50401122653E+01 -0.37849702779E+02  0.33075171749E+02  0.50517024044E+02  0.00000000000E+00 0. -1.
         13    1    3    3    0    0  0.85383769174E+02 -0.18680122578E+02  0.26143648804E+03  0.27565988518E+03  0.00000000000E+00 0.  1.
         21    1    1    2  502  501 -0.28144596315E+00 -0.29723916056E+02 -0.49614685484E+02  0.57837768052E+02  0.00000000000E+00 0. -1.
<scales pt_clust_5="13000.00000" pt_clust_6="13000.00000" pt_clust_7="13000.00000" pt_clust_8="13000.00000" pt_clust_9="29.72525"></scales>
<clustering>
<clus scale="   29.725">  2  9  1 -1</clus>
<clus scale="   86.141">  5  6 -1 -1</clus>
<clus scale="   91.006">  7  8 -1 -1</clus>
<clus scale="  142.414">  2  5  1 -1</clus>
<clus scale="   29.725">  2  5  1 -1</clus>
</clustering>
</event>
<event>
 9    1  0.9000149E-006  0.1560276E+03  0.7546771E-02  0.1203960E+00
         -1   -1    0    0    0  501 -0.00000000000E+00  0.00000000000E+00  0.41014665643E+03  0.41014665643E+03  0.00000000000E+00 0.  1.
          1   -1    0    0  502    0  0.00000000000E+00 -0.00000000000E+00 -0.19497076278E+03  0.19497076278E+03  0.00000000000E+00 0. -1.
         23    2    1    2    0    0 -0.47308937565E+02 -0.67298482403E+02  0.22995409290E+03  0.26106304628E+03  0.92237779611E+02 0.  0.
         23    2    1    2    0    0  0.35522950737E+02 -0.10580448510E+03 -0.71863997150E+02  0.16140077958E+03  0.91811265462E+02 0.  0.
        -11    1    4    4    0    0 -0.77315368981E+01 -0.33242168218E+02  0.17562564280E+02  0.38383096211E+02  0.00000000000E+00 0.  1.
         11    1    4    4    0    0  0.43254487635E+02 -0.72562316881E+02 -0.89426561430E+02  0.12301768337E+03  0.00000000000E+00 0. -1.
        -13    1    3    3    0    0 -0.15414418684E+02  0.23014392965E+02  0.47037135301E+02  0.54587165929E+02  0.00000000000E+00 0.  1.
         13    1    3    3    0    0 -0.31894518881E+02 -0.90312875368E+02  0.18291695760E+03  0.20647588036E+03  0.00000000000E+00 0. -1.
         21    1    1    2  502  501  0.11785986828E+02  0.17310296750E+03  0.57085797904E+02  0.18265359336E+03  0.00000000000E+00 0.  1.
<scales pt_clust_5="13000.00000" pt_clust_6="13000.00000" pt_clust_7="13000.00000" pt_clust_8="13000.00000" pt_clust_9="126.15582"></scales>
<clustering>
<clus scale="   91.811">  5  6 -1 -1</clus>
<clus scale="   92.238">  7  8 -1 -1</clus>
<clus scale="  123.592">  1  7  2 -1</clus>
<clus scale="  126.156">  1  9  2 -1</clus>
<clus scale="  156.028">  2  5  1 -1</clus>
</clustering>
</event>
<event>
 9    1  0.9000149E-006  0.9232380E+02  0.7546771E-02  0.1297812E+00
         -3   -1    0    0    0  501 -0.00000000000E+00  0.00000000000E+00  0.34374308069E+03  0.34374308069E+03  0.00000000000E+00 0.  1.
          3   -1    0    0  502    0  0.00000000000E+00 -0.00000000000E+00 -0.54148189377E+02  0.54148189377E+02  0.00000000000E+00 0. -1.
         23    2    1    2    0    0  0.57928705213E+01  0.11744419741E+02  0.22738393901E+03  0.24503130064E+03  0.90362568744E+02 0.  0.
         23    2    1    2    0    0  0.30771161605E+02 -0.24202596835E+02  0.33599649776E+02  0.10478979932E+03  0.91210391386E+02 0.  0.
        -11    1    4    4    0    0  0.18333475101E+02 -0.54715749506E+02 -0.33338034025E-01  0.57705551420E+02  0.00000000000E+00 0. -1.
         11    1    4    4    0    0  0.12437686505E+02  0.30513152670E+02  0.33632987810E+02  0.47084247902E+02  0.00000000000E+00 0.  1.
        -13    1    3    3    0    0 -0.18038050223E+02  0.45255456850E+02  0.10119384219E+03  0.11231037943E+03  0.00000000000E+00 0.  1.
         13    1    3    3    0    0  0.23830920744E+02 -0.33511037108E+02  0.12619009682E+03  0.13272092121E+03  0.00000000000E+00 0. -1.
         21    1    1    2  502  501 -0.36564032127E+02  0.12458177094E+02  0.28611302536E+02  0.48070170113E+02  0.00000000000E+00 0. -1.
<scales pt_clust_5="13000.00000" pt_clust_6="13000.00000" pt_clust_7="13000.00000" pt_clust_8="13000.00000" pt_clust_9="38.62816"></scales>
<clustering>
<clus scale="   38.628">  2  9  1 -1</clus>
<clus scale="   90.363">  7  8 -1 -1</clus>
<clus scale="   91.210">  5  6 -1 -1</clus>
<clus scale="   91.486">  1  7  2 -1</clus>
<clus scale="   38.628">  2  5  1 -1</clus>
</clustering>
</event>
<event>
 9    1  0.9000149E-006  0.1125564E+03  0.7546771E-02  0.1257328E+00
         -1   -1    0    0    0  501 -0.00000000000E+00  0.00000000000E+00  0.59093965764E+02  0.59093965764E+02  0.00000000000E+00 0.  1.
          1   -1    0    0  502    0  0.00000000000E+00 -0.00000000000E+00 -0.46963425092E+03  0.46963425092E+03  0.00000000000E+00 0. -1.
         23    2    1    2    0    0 -0.81812876285E+02  0.36773410316E+02 -0.95433072582E+02  0.15837975694E+03  0.89056418258E+02 0.  0.
         23    2    1    2    0    0  0.41936152869E+02  0.33020739909E+02 -0.12929500305E+03  0.16789462875E+03  0.92856870336E+02 0.  0.
        -11    1    4    4    0    0 -0.98796716157E+00  0.32564911471E+02 -0.11950422794E+03  0.12386569353E+03  0.00000000000E+00 0. -1.
         11    1    4    4    0    0  0.42924120030E+02  0.45582843725E+00 -0.97907751176E+01  0.44028935228E+02  0.00000000000E+00 0.  1.
        -11    1    3    3    0    0 -0.16478756299E+02 -0.19902435617E+02  0.44868535980E+01  0.26225716536E+02  0.00000000000E+00 0.  1.
         11    1    3    3    0    0 -0.65334119987E+02  0.56675845933E+02 -0.99919926180E+02  0.13215404040E+03  0.00000000000E+00 0. -1.
         21    1    1    2  502  501  0.39876723417E+02 -0.69794150224E+02 -0.18581220952E+03  0.20245383099E+03  0.00000000000E+00 0.  1.
<scales pt_clust_5="13000.00000" pt_clust_6="13000.00000" pt_clust_7="13000.00000" pt_clust_8="13000.00000" pt_clust_9="80.38269"></scales>
<clustering>
<clus scale="   80.383">  2  9  1 -1</clus>
<clus scale="   89.056">  7  8 -1 -1</clus>
<clus scale="   92.857">  5  6 -1 -1</clus>
<clus scale="  109.442">  1  7  2 -1</clus>
<clus scale="   80.383">  2  5  1 -1</clus>
</clustering>
</event>
<event>
 9    1  0.9000149E-006  0.1193530E+03  0.7546771E-02  0.1244517E+00
          1   -1    0    0  502    0  0.00000000000E+00  0.00000000000E+00  0.33016275595E+03  0.33016275595E+03  0.00000000000E+00 0. -1.
         -1   -1    0    0    0  501 -0.00000000000E+00 -0.00000000000E+00 -0.53155473788E+02  0.53155473788E+02  0.00000000000E+00 0.  1.
         23    2    1    2    0    0 -0.77204520142E+02 -0.17793245920E+02  0.96259156712E+02  0.15468914989E+03  0.91573851679E+02 0.  0.
         23    2    1    2    0    0  0.74615417719E+02 -0.46027077949E+01  0.14851439126E+03  0.18929339867E+03  0.90481052648E+02 0.  0.
        -11    1    4    4    0    0  0.81198266808E+02 -0.32995171620E+02  0.11921505316E+03  0.14796644479E+03  0.00000000000E+00 0.  1.
         11    1    4    4    0    0 -0.65828490892E+01  0.28392463825E+02  0.29299338103E+02  0.41326953886E+02  0.00000000000E+00 0. -1.
        -11    1    3    3    0    0 -0.51231783228E+02 -0.29767211903E+01 -0.26226017347E+01  0.51385158574E+02  0.00000000000E+00 0.  1.
         11    1    3    3    0    0 -0.25972736914E+02 -0.14816524729E+02  0.98881758447E+02  0.10330399131E+03  0.00000000000E+00 0. -1.
         21    1    1    2  502  501  0.25891024229E+01  0.22395953714E+02  0.32233734188E+02  0.39335681179E+02  0.00000000000E+00 0.  1.
<scales pt_clust_5="13000.00000" pt_clust_6="13000.00000" pt_clust_7="13000.00000" pt_clust_8="13000.00000" pt_clust_9="22.54511"></scales>
<clustering>
<clus scale="   22.545">  1  9  2 -1</clus>
<clus scale="   90.481">  5  6 -1 -1</clus>
<clus scale="   91.574">  7  8 -1 -1</clus>
<clus scale="  118.517">  1  5  2 -1</clus>
<clus scale="   22.545">  1  5  2 -1</clus>
</clustering>
</event>
<event>
 9    1  0.9000149E-006  0.9741759E+02  0.7546771E-02  0.1287194E+00
         -1   -1    0    0    0  501 -0.00000000000E+00  0.00000000000E+00  0.22248455735E+03  0.22248455735E+03  0.00000000000E+00 0.  1.
          1   -1    0    0  502    0  0.00000000000E+00 -0.00000000000E+00 -0.71164074744E+02  0.71164074744E+02  0.00000000000E+00 0. -1.
         23    2    1    2    0    0  0.26961019394E+02  0.15147890113E+02  0.13038765944E+03  0.16333817434E+03  0.93391982101E+02 0.  0.
         23    2    1    2    0    0 -0.56039877873E+00 -0.31865595576E+02  0.23182802045E+02  0.98980969253E+02  0.90796804654E+02 0.  0.
        -11    1    4    4    0    0  0.36659638950E+02 -0.54348267341E+01  0.35895323618E+02  0.51593998946E+02  0.00000000000E+00 0.  1.
         11    1    4    4    0    0 -0.37220037729E+02 -0.26430768841E+02 -0.12712521573E+02  0.47386970307E+02  0.00000000000E+00 0. -1.
        -13    1    3    3    0    0  0.17128639340E+02 -0.36488915837E+02  0.30799993499E+02  0.50729388565E+02  0.00000000000E+00 0. -1.
         13    1    3    3    0    0  0.98323800537E+01  0.51636805950E+02  0.99587665942E+02  0.11260878578E+03  0.00000000000E+00 0.  1.
         21    1    1    2  502  501 -0.26400620615E+02  0.16717705462E+02 -0.22499788781E+01  0.31329488501E+02  0.00000000000E+00 0.  1.
<scales pt_clust_5="13000.00000" pt_clust_6="13000.00000" pt_clust_7="13000.00000" pt_clust_8="13000.00000" pt_clust_9="31.24859"></scales>
<clustering>
<clus scale="   31.249">  2  9  1 -1</clus>
<clus scale="   90.797">  5  6 -1 -1</clus>
<clus scale="   93.392">  7  8 -1 -1</clus>
<clus scale="   94.933">  2  5  1 -1</clus>
<clus scale="   31.249">  2  5  1 -1</clus>
</clustering>
</event>
<event>
 9    1  0.9000149E-006  0.1007276E+03  0.7546771E-02  0.1286465E+00
         -1   -1    0    0    0  501 -0.00000000000E+00  0.00000000000E+00  0.45816617972E+03  0.45816617972E+03  0.00000000000E+00 0.  1.
          1   -1    0    0  502    0  0.00000000000E+00 -0.00000000000E+00 -0.25865464106E+02  0.25865464106E+02  0.00000000000E+00 0. -1.
         23    2    1    2    0    0 -0.23463260245E+02 -0.34569109796E+02  0.25673210059E+03  0.27518599934E+03  0.89835487570E+02 0.  0.
         23    2    1    2    0    0  0.44483634123E+02  0.29052467144E+02  0.14540084156E+03  0.17166521926E+03  0.74193687235E+02 0.  0.
        -11    1    3    3    0    0  0.50817794770E+01 -0.45391583971E+02  0.23036006761E+03  0.23484458930E+03  0.00000000000E+00 0.  1.
         11    1    3    3    0    0 -0.28545039722E+02  0.10822474175E+02  0.26372032979E+02  0.40341410033E+02  0.00000000000E+00 0. -1.
        -13    1    4    4    0    0  0.48346696213E+02 -0.43215159601E+01  0.12031143015E+03  0.12973403084E+03  0.00000000000E+00 0.  1.
         13    1    4    4    0    0 -0.38630620904E+01  0.33373983104E+02  0.25089411410E+02  0.41931188414E+02  0.00000000000E+00 0. -1.
         21    1    1    2  502  501 -0.21020373878E+02  0.55166426516E+01  0.30167773475E+02  0.37180425234E+02  0.00000000000E+00 0.  1.
<scales pt_clust_5="13000.00000" pt_clust_6="13000.00000" pt_clust_7="13000.00000" pt_clust_8="13000.00000" pt_clust_9="21.73222"></scales>
<clustering>
<clus scale="   21.732">  2  9  1 -1</clus>
<clus scale="   74.194">  7  8 -1 -1</clus>
<clus scale="   87.065">  2  7  1 -1</clus>
<clus scale="   89.835">  5  6 -1 -1</clus>
<clus scale="   21.732">  2  5  1 -1</clus>
</clustering>
</event>
<event>
 9    1  0.9000149E-006  0.9982720E+02  0.7546771E-02  0.1280901E+00
          3   -1    0    0  502    0  0.00000000000E+00  0.00000000000E+00  0.11264722770E+03  0.11264722770E+03  0.00000000000E+00 0. -1.
         -3   -1    0    0    0  501 -0.00000000000E+00 -0.00000000000E+00 -0.12248794904E+03  0.12248794904E+03  0.00000000000E+00 0.  1.
         23    2    1    2    0    0 -0.24227052636E+02 -0.30837974636E+02 -0.89894110827E+01  0.98023347182E+02  0.89385884356E+02 0.  0.
         23    2    1    2    0    0  0.50317246329E+02  0.17716755197E+02 -0.14870086736E+02  0.10471752913E+03  0.88875940137E+02 0.  0.
        -13    1    4    4    0    0 -0.12649589284E+02  0.19094849296E+02  0.21981933296E+02  0.31746350501E+02  0.00000000000E+00 0. -1.
         13    1    4    4    0    0  0.62966835613E+02 -0.13780940998E+01 -0.36852020032E+02  0.72971178632E+02  0.00000000000E+00 0.  1.
        -13    1    3    3    0    0 -0.58122216694E+02 -0.18638863814E+02 -0.10657534308E+02  0.61961135846E+02  0.00000000000E+00 0.  1.
         13    1    3    3    0    0  0.33895164058E+02 -0.12199110822E+02  0.16681232248E+01  0.36062211337E+02  0.00000000000E+00 0. -1.
         21    1    1    2  502  501 -0.26090193693E+02  0.13121219440E+02  0.14018776477E+02  0.32394300431E+02  0.00000000000E+00 0. -1.
<scales pt_clust_5="13000.00000" pt_clust_6="13000.00000" pt_clust_7="13000.00000" pt_clust_8="13000.00000" pt_clust_9="29.20385"></scales>
<clustering>
<clus scale="   29.204">  1  9  2 -1</clus>
<clus scale="   88.876">  5  6 -1 -1</clus>
<clus scale="   89.386">  7  8 -1 -1</clus>
<clus scale="   99.371">  1  5  2 -1</clus>
<clus scale="   29.204">  1  5  2 -1</clus>
</clustering>
</event>
<event>
 9    1  0.9000149E-006  0.1040902E+03  0.7546771E-02  0.1272847E+00
         -2   -1    0    0    0  501 -0.00000000000E+00  0.00000000000E+00  0.60687401335E+02  0.60687401335E+02  0.00000000000E+00 0.  1.
          2   -1    0    0  502    0  0.00000000000E+00 -0.00000000000E+00 -0.47235223698E+03  0.47235223698E+03  0.00000000000E+00 0. -1.
         23    2    1    2    0    0 -0.12598067409E+02  0.47157214263E+02 -0.51546577322E+01  0.10164945582E+03  0.89014196692E+02 0.  0.
         23    2    1    2    0    0 -0.62159231295E+01 -0.64238027186E+02 -0.37287759088E+03  0.38923723099E+03  0.91119495010E+02 0.  0.
        -11    1    4    4    0    0  0.19094127977E+02  0.17617752228E+02 -0.86438539284E+02  0.90258473232E+02  0.00000000000E+00 0.  1.
         11    1    4    4    0    0 -0.25310051106E+02 -0.81855779414E+02 -0.28643905160E+03  0.29897875776E+03  0.00000000000E+00 0. -1.
        -11    1    3    3    0    0 -0.20096203591E+02  0.70625997326E+02  0.77493140145E+01  0.73837258649E+02  0.00000000000E+00 0.  1.
         11    1    3    3    0    0  0.74981361821E+01 -0.23468783063E+02 -0.12903971747E+02  0.27812197171E+02  0.00000000000E+00 0. -1.
         21    1    1    2  502  501  0.18813990539E+02  0.17080812923E+02 -0.33632587031E+02  0.42152951504E+02  0.00000000000E+00 0.  1.
<scales pt_clust_5="13000.00000" pt_clust_6="13000.00000" pt_clust_7="13000.00000" pt_clust_8="13000.00000" pt_clust_9="25.41103"></scales>
<clustering>
<clus scale="   25.411">  2  9  1 -1</clus>
<clus scale="   89.014">  7  8 -1 -1</clus>
<clus scale="   91.119">  5  6 -1 -1</clus>
<clus scale="  102.252">  1  7  2 -1</clus>
<clus scale="   25.411">  2  5  1 -1</clus>
</clustering>
</event>
<event>
 9    1  0.9000149E-006  0.1029992E+03  0.7546771E-02  0.1276129E+00
          4   -1    0    0  502    0  0.00000000000E+00  0.00000000000E+00  0.72544734658E+02  0.72544734658E+02  0.00000000000E+00 0. -1.
         -4   -1    0    0    0  501 -0.00000000000E+00 -0.00000000000E+00 -0.20499701178E+03  0.20499701178E+03  0.00000000000E+00 0.  1.
         23    2    1    2    0    0 -0.85478902867E+01 -0.31510911796E+02 -0.75279837610E+02  0.12227939952E+03  0.90659768402E+02 0.  0.
         23    2    1    2    0    0  0.42131545648E+02  0.37128333300E+02 -0.44734207313E+02  0.11901145793E+03  0.94915739177E+02 0.  0.
        -11    1    4    4    0    0 -0.10426108647E+02 -0.21011811646E+02 -0.31895906536E+02  0.39592282378E+02  0.00000000000E+00 0.  1.
         11    1    4    4    0    0  0.52557654296E+02  0.58140144945E+02 -0.12838300777E+02  0.79419175557E+02  0.00000000000E+00 0. -1.
        -11    1    3    3    0    0  0.59053496959E+01 -0.52298640920E+02 -0.11801126841E+02  0.53937812264E+02  0.00000000000E+00 0.  1.
         11    1    3    3    0    0 -0.14453239983E+02  0.20787729125E+02 -0.63478710770E+02  0.68341587259E+02  0.00000000000E+00 0. -1.
         21    1    1    2  502  501 -0.33583655362E+02 -0.56174215038E+01 -0.12438232203E+02  0.36250888984E+02  0.00000000000E+00 0. -1.
<scales pt_clust_5="13000.00000" pt_clust_6="13000.00000" pt_clust_7="13000.00000" pt_clust_8="13000.00000" pt_clust_9="34.05022"></scales>
<clustering>
<clus scale="   34.050">  1  9  2 -1</clus>
<clus scale="   90.660">  7  8 -1 -1</clus>
<clus scale="   94.916">  5  6 -1 -1</clus>
<clus scale="   99.091">  2  7  1 -1</clus>
<clus scale="   34.050">  1  5  2 -1</clus>
</clustering>
</event>
<event>
 9    1  0.9000149E-006  0.9162932E+02  0.7546771E-02  0.1315338E+00
          4   -1    0    0  502    0  0.00000000000E+00  0.00000000000E+00  0.35024895001E+03  0.35024895001E+03  0.00000000000E+00 0. -1.
         -4   -1    0    0    0  501 -0.00000000000E+00 -0.00000000000E+00 -0.51791741007E+02  0.51791741007E+02  0.00000000000E+00 0.  1.
         23    2    1    2    0    0  0.12461609776E+02 -0.16584467474E+02  0.25695031744E+02  0.96243511752E+02  0.90400456959E+02 0.  0.
         23    2    1    2    0    0  0.40984489440E+02  0.91263341685E+01  0.11640322790E+03  0.14038789803E+03  0.66302579875E+02 0.  0.
        -11    1    3    3    0    0  0.11120550629E+02  0.28010145289E+02  0.39369492572E+02  0.49580155614E+02  0.00000000000E+00 0. -1.
         11    1    3    3    0    0  0.13410591473E+01 -0.44594612763E+02 -0.13674460827E+02  0.46663356138E+02  0.00000000000E+00 0.  1.
        -13    1    4    4    0    0 -0.26895388027E+01 -0.21043749723E+02  0.15165414468E+02  0.26078014060E+02  0.00000000000E+00 0.  1.
         13    1    4    4    0    0  0.43674028243E+02  0.30170083891E+02  0.10123781343E+03  0.11430988397E+03  0.00000000000E+00 0. -1.
         21    1    1    2  502  501 -0.53446099216E+02  0.74581333059E+01  0.15635894937E+03  0.16540928124E+03  0.00000000000E+00 0.  1.
<scales pt_clust_5="13000.00000" pt_clust_6="13000.00000" pt_clust_7="13000.00000" pt_clust_8="13000.00000" pt_clust_9="53.96396"></scales>
<clustering>
<clus scale="   53.964">  1  9  2 -1</clus>
<clus scale="   66.303">  7  8 -1 -1</clus>
<clus scale="   67.969">  1  7  2 -1</clus>
<clus scale="   90.400">  5  6 -1 -1</clus>
<clus scale="   53.964">  1  5  2 -1</clus>
</clustering>
</event>
<event>
 9    1  0.9000149E-006  0.9141318E+02  0.7546771E-02  0.1301062E+00
          2   -1    0    0  502    0  0.00000000000E+00  0.00000000000E+00  0.16565714925E+03  0.16565714925E+03  0.00000000000E+00 0. -1.
         -2   -1    0    0    0  501 -0.00000000000E+00 -0.00000000000E+00 -0.20018885526E+03  0.20018885526E+03  0.00000000000E+00 0.  1.
         23    2    1    2    0    0 -0.60593328534E+00  0.99371252264E+00 -0.16097984581E+03  0.18508568881E+03  0.91328236728E+02 0.  0.
         23    2    1    2    0    0  0.68124178861E+01 -0.32668339244E+02  0.10765716248E+03  0.14341191202E+03  0.88675151249E+02 0.  0.
        -13    1    3    3    0    0  0.76568073040E+00  0.45254416346E+02 -0.99580435070E+02  0.10938378086E+03  0.00000000000E+00 0.  1.
         13    1    3    3    0    0 -0.13716140157E+01 -0.44260703823E+02 -0.61399410744E+02  0.75701907952E+02  0.00000000000E+00 0. -1.
        -13    1    4    4    0    0  0.27128371416E+02 -0.17566949630E+02  0.11300799785E+03  0.11753873333E+03  0.00000000000E+00 0. -1.
         13    1    4    4    0    0 -0.20315953530E+02 -0.15101389614E+02 -0.53508353718E+01  0.25873178686E+02  0.00000000000E+00 0.  1.
         21    1    1    2  502  501 -0.62064846008E+01  0.31674626722E+02  0.18790977331E+02  0.37348403689E+02  0.00000000000E+00 0.  1.
<scales pt_clust_5="13000.00000" pt_clust_6="13000.00000" pt_clust_7="13000.00000" pt_clust_8="13000.00000" pt_clust_9="32.27696"></scales>
<clustering>
<clus scale="   32.277">  1  9  2 -1</clus>
<clus scale="   88.675">  7  8 -1 -1</clus>
<clus scale="   88.763">  1  7  2 -1</clus>
<clus scale="   91.328">  5  6 -1 -1</clus>
<clus scale="   32.277">  1  5  2 -1</clus>
</clustering>
</event>
<event>
 9    1  0.9000149E-006  0.9574038E+02  0.7546771E-02  0.1289776E+00
          2   -1    0    0  502    0  0.00000000000E+00  0.00000000000E+00  0.22361713678E+03  0.22361713678E+03  0.00000000000E+00 0. -1.
         -2   -1    0    0    0  501 -0.00000000000E+00 -0.00000000000E+00 -0.56283575854E+02  0.56283575854E+02  0.00000000000E+00 0.  1.
         23    2    1    2    0    0 -0.33422616748E+02  0.22467749794E+02  0.39001553913E+02  0.10615205489E+03  0.90140259924E+02 0.  0.
         23    2    1    2    0    0  0.15554171446E+02 -0.56026921437E+01  0.94925419781E+02  0.13227925242E+03  0.90629150343E+02 0.  0.
        -11    1    3    3    0    0 -0.49968837199E+02 -0.14457330719E+02  0.31870592650E+01  0.52115798462E+02  0.00000000000E+00 0.  1.
         11    1    3    3    0    0  0.16546220451E+02  0.36925080514E+02  0.35814494648E+02  0.54036256431E+02  0.00000000000E+00 0. -1.
        -11    1    4    4    0    0 -0.30285017882E+02  0.21653299575E+02  0.51260143296E+02  0.63353373875E+02  0.00000000000E+00 0.  1.
         11    1    4    4    0    0  0.45839189329E+02 -0.27255991718E+02  0.43665276485E+02  0.68925878547E+02  0.00000000000E+00 0. -1.
         21    1    1    2  502  501  0.17868445302E+02 -0.16865057651E+02  0.33406587234E+02  0.41469405321E+02  0.00000000000E+00 0. -1.
<scales pt_clust_5="13000.00000" pt_clust_6="13000.00000" pt_clust_7="13000.00000" pt_clust_8="13000.00000" pt_clust_9="24.57054"></scales>
<clustering>
<clus scale="   24.571">  1  9  2 -1</clus>
<clus scale="   90.140">  5  6 -1 -1</clus>
<clus scale="   90.629">  7  8 -1 -1</clus>
<clus scale="   95.278">  2  5  1 -1</clus>
<clus scale="   24.571">  1  5  2 -1</clus>
</clustering>
</event>
<event>
 9    1  0.9000149E-006  0.1037711E+03  0.7546771E-02  0.1272561E+00
          2   -1    0    0  502    0  0.00000000000E+00  0.00000000000E+00  0.24633536892E+03  0.24633536892E+03  0.00000000000E+00 0. -1.
         -2   -1    0    0    0  501 -0.00000000000E+00 -0.00000000000E+00 -0.10192061983E+03  0.10192061983E+03  0.00000000000E+00 0.  1.
         23    2    1    2    0    0  0.47923794827E+02 -0.31534085455E+00 -0.47051162659E+02  0.11325085989E+03  0.91187476160E+02 0.  0.
         23    2    1    2    0    0 -0.58286109439E+02 -0.20026667389E+02  0.17546053507E+03  0.20712418651E+03  0.91190412384E+02 0.  0.
        -11    1    3    3    0    0  0.61740736932E+02 -0.31192187200E+02 -0.32479928939E+02  0.76418694853E+02  0.00000000000E+00 0.  1.
         11    1    3    3    0    0 -0.13816942105E+02  0.30876846346E+02 -0.14571233720E+02  0.36832165040E+02  0.00000000000E+00 0. -1.
        -13    1    4    4    0    0 -0.51348757884E+01  0.19860163456E+02  0.11647835890E+03  0.11827088033E+03  0.00000000000E+00 0. -1.
         13    1    4    4    0    0 -0.53151233651E+02 -0.39886830845E+02  0.58982176163E+02  0.88853306176E+02  0.00000000000E+00 0.  1.
         21    1    1    2  502  501  0.10362314612E+02  0.20342008243E+02  0.16005376677E+02  0.27880942345E+02  0.00000000000E+00 0.  1.
<scales pt_clust_5="13000.00000" pt_clust_6="13000.00000" pt_clust_7="13000.00000" pt_clust_8="13000.00000" pt_clust_9="22.82925"></scales>
<clustering>
<clus scale="   22.829">  1  9  2 -1</clus>
<clus scale="   91.187">  5  6 -1 -1</clus>
<clus scale="   91.190">  7  8 -1 -1</clus>
<clus scale="  103.768">  2  5  1 -1</clus>
<clus scale="   22.829">  1  5  2 -1</clus>
</clustering>
</event>
<event>
 9    1  0.9000149E-006  0.2117406E+03  0.7546771E-02  0.1140199E+00
         -1   -1    0    0    0  501 -0.00000000000E+00  0.00000000000E+00  0.23214952806E+03  0.23214952806E+03  0.00000000000E+00 0.  1.
          1   -1    0    0  502    0  0.00000000000E+00 -0.00000000000E+00 -0.25146894098E+03  0.25146894098E+03  0.00000000000E+00 0. -1.
         23    2    1    2    0    0  0.18009206753E+03 -0.49563008063E+02  0.25124425955E+02  0.20928068738E+03  0.90980903348E+02 0.  0.
         23    2    1    2    0    0 -0.19573228925E+03  0.24781080711E+02  0.44582377243E+01  0.21732748825E+03  0.91028183816E+02 0.  0.
        -11    1    3    3    0    0  0.66686220250E+01  0.18934342358E+02  0.93763925402E+01  0.22156185983E+02  0.00000000000E+00 0.  1.
         11    1    3    3    0    0  0.17342344550E+03 -0.68497350422E+02  0.15748033415E+02  0.18712450139E+03  0.00000000000E+00 0. -1.
        -11    1    4    4    0    0 -0.10683239734E+03 -0.77501165801E+01 -0.37896319867E+02  0.11361934909E+03  0.00000000000E+00 0. -1.
         11    1    4    4    0    0 -0.88899891904E+02  0.32531197291E+02  0.42354557592E+02  0.10370813915E+03  0.00000000000E+00 0.  1.
         21    1    1    2  502  501  0.15640221718E+02  0.24781927352E+02 -0.48902076604E+02  0.57010293412E+02  0.00000000000E+00 0. -1.
<scales pt_clust_5="13000.00000" pt_clust_6="13000.00000" pt_clust_7="13000.00000" pt_clust_8="13000.00000" pt_clust_9="29.30461"></scales>
<clustering>
<clus scale="   29.305">  2  9  1 -1</clus>
<clus scale="   90.981">  5  6 -1 -1</clus>
<clus scale="   91.028">  7  8 -1 -1</clus>
<clus scale="  211.720">  1  5  2 -1</clus>
<clus scale="   29.305">  2  5  1 -1</clus>
</clustering>
</event>
<event>
 9    1  0.9000149E-006  0.9656327E+02  0.7546771E-02  0.1289631E+00
          1   -1    0    0  502    0  0.00000000000E+00  0.00000000000E+00  0.62184971390E+03  0.62184971390E+03  0.00000000000E+00 0. -1.
         -1   -1    0    0    0  501 -0.00000000000E+00 -0.00000000000E+00 -0.47599658972E+02  0.47599658972E+02  0.00000000000E+00 0.  1.
         23    2    1    2    0    0 -0.19484697897E+02 -0.92279056356E+01  0.75344502475E+02  0.12384782549E+03  0.95899333316E+02 0.  0.
         23    2    1    2    0    0 -0.32122432395E+02  0.11317170222E+02  0.89934535894E+02  0.13338200235E+03  0.92426234367E+02 0.  0.
        -11    1    3    3    0    0 -0.48036375614E+02  0.49499418591E+01  0.74766119367E+01  0.48866092872E+02  0.00000000000E+00 0.  1.
         11    1    3    3    0    0  0.28551677717E+02 -0.14177847495E+02  0.67867890539E+02  0.74981732617E+02  0.00000000000E+00 0. -1.
        -13    1    4    4    0    0 -0.33967777753E+02  0.45158961757E+02  0.80221489706E+02  0.98125578536E+02  0.00000000000E+00 0.  1.
         13    1    4    4    0    0  0.18453453580E+01 -0.33841791535E+02  0.97130461886E+01  0.35256423812E+02  0.00000000000E+00 0. -1.
         21    1    1    2  502  501  0.51607130292E+02 -0.20892645867E+01  0.40897101655E+03  0.41221954503E+03  0.00000000000E+00 0. -1.
<scales pt_clust_5="13000.00000" pt_clust_6="13000.00000" pt_clust_7="13000.00000" pt_clust_8="13000.00000" pt_clust_9="51.64940"></scales>
<clustering>
<clus scale="   51.649">  1  9  2 -1</clus>
<clus scale="   92.426">  7  8 -1 -1</clus>
<clus scale="   93.115">  1  7  2 -1</clus>
<clus scale="   95.899">  5  6 -1 -1</clus>
<clus scale="   51.649">  1  5  2 -1</clus>
</clustering>
</event>
<event>
 9    1  0.9000149E-006  0.9258251E+02  0.7546771E-02  0.1297714E+00
         -1   -1    0    0    0  501 -0.00000000000E+00  0.00000000000E+00  0.76039572157E+02  0.76039572157E+02  0.00000000000E+00 0.  1.
          1   -1    0    0  502    0  0.00000000000E+00 -0.00000000000E+00 -0.26213058571E+03  0.26213058571E+03  0.00000000000E+00 0. -1.
         23    2    1    2    0    0  0.87797447630E+01 -0.34651814046E+01 -0.49725764136E+01  0.89824018899E+02  0.89188208048E+02 0.  0.
         23    2    1    2    0    0  0.12820208818E+02  0.43018818079E+02 -0.57041360899E+02  0.11633792325E+03  0.90916550033E+02 0.  0.
        -11    1    4    4    0    0 -0.46685696327E+01  0.69028892008E+02 -0.46107607732E+02  0.83142618224E+02  0.00000000000E+00 0.  1.
         11    1    4    4    0    0  0.17488778450E+02 -0.26010073929E+02 -0.10933753167E+02  0.33195305026E+02  0.00000000000E+00 0. -1.
        -11    1    3    3    0    0 -0.10048207478E+02 -0.22970463648E+02  0.34064618778E+02  0.42296653841E+02  0.00000000000E+00 0.  1.
         11    1    3    3    0    0  0.18827952241E+02  0.19505282243E+02 -0.39037195191E+02  0.47527365058E+02  0.00000000000E+00 0. -1.
         21    1    1    2  502  501 -0.21599953581E+02 -0.39553636675E+02 -0.12407707624E+03  0.13200821572E+03  0.00000000000E+00 0.  1.
<scales pt_clust_5="13000.00000" pt_clust_6="13000.00000" pt_clust_7="13000.00000" pt_clust_8="13000.00000" pt_clust_9="45.06715"></scales>
<clustering>
<clus scale="   45.067">  2  9  1 -1</clus>
<clus scale="   89.188">  7  8 -1 -1</clus>
<clus scale="   90.886">  1  7  2 -1</clus>
<clus scale="   90.917">  5  6 -1 -1</clus>
<clus scale="   45.067">  2  5  1 -1</clus>
</clustering>
</event>
<event>
 9    1  0.9000149E-006  0.1266434E+03  0.7546771E-02  0.1242057E+00
          2   -1    0    0  502    0  0.00000000000E+00  0.00000000000E+00  0.71490964949E+03  0.71490964949E+03  0.00000000000E+00 0. -1.
         -2   -1    0    0    0  501 -0.00000000000E+00 -0.00000000000E+00 -0.55643083865E+02  0.55643083865E+02  0.00000000000E+00 0.  1.
         23    2    1    2    0    0  0.97252850867E+01  0.75207242992E+02  0.68131621624E+02  0.13779255505E+03  0.92704691323E+02 0.  0.
         23    2    1    2    0    0  0.38740589133E+02  0.35780724148E+02  0.29091008059E+03  0.30902843995E+03  0.89937802049E+02 0.  0.
        -11    1    3    3    0    0 -0.15625855050E+02  0.89162680036E+02  0.47287141127E+02  0.10212847092E+03  0.00000000000E+00 0.  1.
         11    1    3    3    0    0  0.25351140136E+02 -0.13955437044E+02  0.20844480497E+02  0.35664084125E+02  0.00000000000E+00 0. -1.
        -13    1    4    4    0    0  0.55174198082E+02  0.36848299816E+01  0.95795259589E+02  0.11060968251E+03  0.00000000000E+00 0.  1.
         13    1    4    4    0    0 -0.16433608949E+02  0.32095894167E+02  0.19511482100E+03  0.19841875743E+03  0.00000000000E+00 0. -1.
         21    1    1    2  502  501 -0.48465874220E+02 -0.11098796714E+03  0.30022486341E+03  0.32373173836E+03  0.00000000000E+00 0. -1.
<scales pt_clust_5="13000.00000" pt_clust_6="13000.00000" pt_clust_7="13000.00000" pt_clust_8="13000.00000" pt_clust_9="86.28085"></scales>
<clustering>
<clus scale="   89.938">  7  8 -1 -1</clus>
<clus scale="   92.705">  5  6 -1 -1</clus>
<clus scale="  104.259">  1  7  2 -1</clus>
<clus scale="   86.281">  1  9  2 -1</clus>
<clus scale="  104.259">  1  5  2 -1</clus>
</clustering>
</event>
<event>
 9    1  0.9000149E-006  0.1073678E+03  0.7546771E-02  0.1270813E+00
         -2   -1    0    0    0  501 -0.00000000000E+00  0.00000000000E+00  0.44154678263E+02  0.44154678263E+02  0.00000000000E+00 0.  1.
          2   -1    0    0  502    0  0.00000000000E+00 -0.00000000000E+00 -0.58736515812E+03  0.58736515812E+03  0.00000000000E+00 0. -1.
         23    2    1    2    0    0 -0.28455552836E+02 -0.24255247554E-01 -0.50812868054E+02  0.11694830015E+03  0.10141616376E+03 0.  0.
         23    2    1    2    0    0  0.58676474889E+02 -0.13132413809E+01 -0.27921045690E+03  0.29924885735E+03  0.90259326799E+02 0.  0.
        -11    1    3    3    0    0 -0.33910869320E+02  0.40786277904E+02 -0.53947261264E+02  0.75655631127E+02  0.00000000000E+00 0. -1.
         11    1    3    3    0    0  0.54553164833E+01 -0.40810533152E+02  0.31343932100E+01  0.41292669021E+02  0.00000000000E+00 0.  1.
        -13    1    4    4    0    0 -0.15998582409E+02 -0.19972993548E+02 -0.36142217147E+02  0.44284703574E+02  0.00000000000E+00 0.  1.
         13    1    4    4    0    0  0.74675057298E+02  0.18659752167E+02 -0.24306823976E+03  0.25496415378E+03  0.00000000000E+00 0. -1.
         21    1    1    2  502  501 -0.30220922052E+02  0.13374966284E+01 -0.21318715490E+03  0.21532267889E+03  0.00000000000E+00 0.  1.
<scales pt_clust_5="13000.00000" pt_clust_6="13000.00000" pt_clust_7="13000.00000" pt_clust_8="13000.00000" pt_clust_9="30.25050"></scales>
<clustering>
<clus scale="   30.251">  2  9  1 -1</clus>
<clus scale="   90.259">  7  8 -1 -1</clus>
<clus scale="   96.899">  2  7  1 -1</clus>
<clus scale="  101.416">  5  6 -1 -1</clus>
<clus scale="   30.251">  2  5  1 -1</clus>
</clustering>
</event>
<event>
 9    1  0.9000149E-006  0.9294763E+02  0.7546771E-02  0.1300080E+00
         -2   -1    0    0    0  501 -0.00000000000E+00  0.00000000000E+00  0.21269586775E+03  0.21269586775E+03  0.00000000000E+00 0.  1.
          2   -1    0    0  502    0  0.00000000000E+00 -0.00000000000E+00 -0.77372195154E+02  0.77372195154E+02  0.00000000000E+00 0. -1.
         23    2    1    2    0    0 -0.14164761385E+02 -0.38081623377E+01  0.14075380429E+03  0.16499561782E+03  0.84833825272E+02 0.  0.
         23    2    1    2    0    0  0.12814732800E+02 -0.22322832632E+02  0.78162765871E+01  0.95744662905E+02  0.91888084438E+02 0.  0.
        -11    1    4    4    0    0 -0.20634910049E+02 -0.28119405300E+02 -0.29222139140E+02  0.45502020648E+02  0.00000000000E+00 0. -1.
         11    1    4    4    0    0  0.33449642849E+02  0.57965726674E+01  0.37038415727E+02  0.50242642257E+02  0.00000000000E+00 0.  1.
        -13    1    3    3    0    0 -0.99036732381E+01  0.38576949712E+02  0.92012987702E+02  0.10026292285E+03  0.00000000000E+00 0.  1.
         13    1    3    3    0    0 -0.42610881470E+01 -0.42385112050E+02  0.48740816593E+02  0.64732694968E+02  0.00000000000E+00 0. -1.
         21    1    1    2  502  501  0.13500285849E+01  0.26130994970E+02 -0.13246408285E+02  0.29327782182E+02  0.00000000000E+00 0.  1.
<scales pt_clust_5="13000.00000" pt_clust_6="13000.00000" pt_clust_7="13000.00000" pt_clust_8="13000.00000" pt_clust_9="26.16585"></scales>
<clustering>
<clus scale="   26.166">  2  9  1 -1</clus>
<clus scale="   84.834">  7  8 -1 -1</clus>
<clus scale="   85.980">  1  7  2 -1</clus>
<clus scale="   91.888">  5  6 -1 -1</clus>
<clus scale="   26.166">  2  5  1 -1</clus>
</clustering>
</event>
<event>
 9    1  0.9000149E-006  0.1145255E+03  0.7546771E-02  0.1252425E+00
          1   -1    0    0  502    0  0.00000000000E+00  0.00000000000E+00  0.15404584882E+03  0.15404584882E+03  0.00000000000E+00 0. -1.
         -1   -1    0    0    0  501 -0.00000000000E+00 -0.00000000000E+00 -0.42117961029E+03  0.42117961029E+03  0.00000000000E+00 0.  1.
         23    2    1    2    0    0 -0.59685769969E+02 -0.30866840104E+02 -0.37352366786E+03  0.39054465756E+03  0.92141446376E+02 0.  0.
         23    2    1    2    0    0  0.58236797811E+02  0.55687021468E+02  0.71314006338E+02  0.14168708471E+03  0.92179029582E+02 0.  0.
        -11    1    4    4    0    0  0.55464539621E+01  0.67957702128E+02  0.36296536684E+02  0.77242805525E+02  0.00000000000E+00 0.  1.
         11    1    4    4    0    0  0.52690343849E+02 -0.12270680661E+02  0.35017469654E+02  0.64444279186E+02  0.00000000000E+00 0. -1.
        -11    1    3    3    0    0 -0.79478329838E+02 -0.39969269411E+02 -0.25595781000E+03  0.27097739373E+03  0.00000000000E+00 0. -1.
         11    1    3    3    0    0  0.19792559870E+02  0.91024293064E+01 -0.11756585786E+03  0.11956726383E+03  0.00000000000E+00 0.  1.
         21    1    1    2  502  501  0.14489721575E+01 -0.24820181363E+02  0.35075900055E+02  0.42993716842E+02  0.00000000000E+00 0. -1.
<scales pt_clust_5="13000.00000" pt_clust_6="13000.00000" pt_clust_7="13000.00000" pt_clust_8="13000.00000" pt_clust_9="24.86244"></scales>
<clustering>
<clus scale="   24.862">  1  9  2 -1</clus>
<clus scale="   92.141">  7  8 -1 -1</clus>
<clus scale="   92.179">  5  6 -1 -1</clus>
<clus scale="  114.495">  2  7  1 -1</clus>
<clus scale="   24.862">  1  5  2 -1</clus>
</clustering>
</event>
<event>
 9    1  0.9000149E-006  0.1425267E+03  0.7546771E-02  0.1210250E+00
         -2   -1    0    0    0  501 -0.00000000000E+00  0.00000000000E+00  0.31834456876E+02  0.31834456876E+02  0.00000000000E+00 0.  1.
          2   -1    0    0  502    0  0.00000000000E+00 -0.00000000000E+00 -0.82508220275E+03  0.82508220275E+03  0.00000000000E+00 0. -1.
         23    2    1    2    0    0 -0.10655250611E+03  0.33943758787E+02 -0.25486527928E+03  0.29246109440E+03  0.89841893574E+02 0.  0.
         23    2    1    2    0    0  0.10747842045E+03 -0.81747909957E+01 -0.41347366578E+03  0.43691300158E+03  0.91181470637E+02 0.  0.
        -13    1    4    4    0    0  0.62489652523E+02  0.45237867818E+01 -0.36199413417E+03  0.36737606685E+03  0.00000000000E+00 0. -1.
         13    1    4    4    0    0  0.44988767930E+02 -0.12698577777E+02 -0.51479531609E+02  0.69536934733E+02  0.00000000000E+00 0.  1.
        -13    1    3    3    0    0 -0.75019301268E+02 -0.96447828806E+01 -0.82637088086E+02  0.11202591543E+03  0.00000000000E+00 0.  1.
         13    1    3    3    0    0 -0.31533204837E+02  0.43588541667E+02 -0.17222819119E+03  0.18043517898E+03  0.00000000000E+00 0. -1.
         21    1    1    2  502  501 -0.92591434746E+00 -0.25768967791E+02 -0.12490880082E+03  0.12754256364E+03  0.00000000000E+00 0.  1.
<scales pt_clust_5="13000.00000" pt_clust_6="13000.00000" pt_clust_7="13000.00000" pt_clust_8="13000.00000" pt_clust_9="25.78560"></scales>
<clustering>
<clus scale="   25.786">  2  9  1 -1</clus>
<clus scale="   89.842">  7  8 -1 -1</clus>
<clus scale="   91.181">  5  6 -1 -1</clus>
<clus scale="  141.673">  1  7  2 -1</clus>
<clus scale="   25.786">  2  5  1 -1</clus>
</clustering>
</event>
<event>
 9    1  0.9000149E-006  0.9691036E+02  0.7546771E-02  0.1293725E+00
          3   -1    0    0  502    0  0.00000000000E+00  0.00000000000E+00  0.13055790327E+03  0.13055790327E+03  0.00000000000E+00 0. -1.
         -3   -1    0    0    0  501 -0.00000000000E+00 -0.00000000000E+00 -0.21276510835E+03  0.21276510835E+03  0.00000000000E+00 0.  1.
         23    2    1    2    0    0  0.30887874913E+02  0.12818564248E+02 -0.16949731245E+03  0.19533658266E+03  0.91151879795E+02 0.  0.
         23    2    1    2    0    0 -0.18603283221E+02 -0.30869382576E+02  0.38960963870E+02  0.94953897929E+02  0.78735538984E+02 0.  0.
        -11    1    3    3    0    0 -0.12885466820E+01 -0.30134683919E+02 -0.11484223262E+03  0.11873709580E+03  0.00000000000E+00 0.  1.
         11    1    3    3    0    0  0.32176421595E+02  0.42953248167E+02 -0.54655079837E+02  0.76599486857E+02  0.00000000000E+00 0. -1.
        -13    1    4    4    0    0  0.25326912898E+02  0.82274121546E-01 -0.46441557313E+01  0.25749319766E+02  0.00000000000E+00 0.  1.
         13    1    4    4    0    0 -0.43930196118E+02 -0.30951656698E+02  0.43605119601E+02  0.69204578163E+02  0.00000000000E+00 0. -1.
         21    1    1    2  502  501 -0.12284591692E+02  0.18050818328E+02  0.48329143502E+02  0.53032531025E+02  0.00000000000E+00 0. -1.
<scales pt_clust_5="13000.00000" pt_clust_6="13000.00000" pt_clust_7="13000.00000" pt_clust_8="13000.00000" pt_clust_9="21.83445"></scales>
<clustering>
<clus scale="   21.834">  1  9  2 -1</clus>
<clus scale="   78.736">  7  8 -1 -1</clus>
<clus scale="   85.336">  1  7  2 -1</clus>
<clus scale="   91.152">  5  6 -1 -1</clus>
<clus scale="   21.834">  1  5  2 -1</clus>
</clustering>
</event>
<event>
 9    1  0.9000149E-006  0.1547268E+03  0.7546771E-02  0.1194976E+00
          1   -1    0    0  502    0  0.00000000000E+00  0.00000000000E+00  0.65450086596E+03  0.65450086596E+03  0.00000000000E+00 0. -1.
         -1   -1    0    0    0  501 -0.00000000000E+00 -0.00000000000E+00 -0.12658852905E+03  0.12658852905E+03  0.00000000000E+00 0.  1.
         23    2    1    2    0    0 -0.42620121627E+02 -0.11829810561E+03 -0.55649714656E+02  0.16496779643E+03  0.91140367344E+02 0.  0.
         23    2    1    2    0    0  0.73780736937E+02  0.10014825490E+03  0.38829019563E+03  0.41754793783E+03  0.90020743475E+02 0.  0.
        -13    1    3    3    0    0 -0.69882251299E+02 -0.10127872495E+03 -0.41571944027E+02  0.12988123692E+03  0.00000000000E+00 0.  1.
         13    1    3    3    0    0  0.27262129671E+02 -0.17019380656E+02 -0.14077770629E+02  0.35086559507E+02  0.00000000000E+00 0. -1.
        -13    1    4    4    0    0 -0.10757931541E+02  0.52071874979E+02  0.17967567896E+03  0.18737812803E+03  0.00000000000E+00 0.  1.
         13    1    4    4    0    0  0.84538668478E+02  0.48076379925E+02  0.20861451668E+03  0.23016980980E+03  0.00000000000E+00 0. -1.
         21    1    1    2  502  501 -0.31160615310E+02  0.18149850704E+02  0.19527185593E+03  0.19857366076E+03  0.00000000000E+00 0. -1.
<scales pt_clust_5="13000.00000" pt_clust_6="13000.00000" pt_clust_7="13000.00000" pt_clust_8="13000.00000" pt_clust_9="36.06107"></scales>
<clustering>
<clus scale="   36.061">  1  9  2 -1</clus>
<clus scale="   90.021">  7  8 -1 -1</clus>
<clus scale="   91.140">  5  6 -1 -1</clus>
<clus scale="  154.070">  1  7  2 -1</clus>
<clus scale="   36.061">  1  5  2 -1</clus>
</clustering>
</event>
<event>
 9    1  0.9000149E-006  0.1021154E+03  0.7546771E-02  0.1277096E+00
          1   -1    0    0  502    0  0.00000000000E+00  0.00000000000E+00  0.50490469643E+03  0.50490469643E+03  0.00000000000E+00 0. -1.
         -1   -1    0    0    0  501 -0.00000000000E+00 -0.00000000000E+00 -0.31757579777E+02  0.31757579777E+02  0.00000000000E+00 0.  1.
         23    2    1    2    0    0  0.42663392111E+02 -0.35345920760E+02  0.97259980925E+02  0.14308424580E+03  0.89129671635E+02 0.  0.
         23    2    1    2    0    0 -0.20794955168E+02  0.30655842614E+02  0.29383436594E+03  0.30853167600E+03  0.86492483166E+02 0.  0.
        -11    1    4    4    0    0 -0.52481130843E+02  0.19029153791E+02  0.22562311488E+03  0.23242669329E+03  0.00000000000E+00 0. -1.
         11    1    4    4    0    0  0.31686175675E+02  0.11626688823E+02  0.68211251062E+02  0.76104982711E+02  0.00000000000E+00 0.  1.
        -11    1    3    3    0    0  0.43954971848E+02 -0.63227280868E+02  0.72876772562E+02  0.10602241544E+03  0.00000000000E+00 0.  1.
         11    1    3    3    0    0 -0.12915797374E+01  0.27881360108E+02  0.24383208362E+02  0.37061830361E+02  0.00000000000E+00 0. -1.
         21    1    1    2  502  501 -0.21868436942E+02  0.46900781456E+01  0.82052769788E+02  0.85046354403E+02  0.00000000000E+00 0. -1.
<scales pt_clust_5="13000.00000" pt_clust_6="13000.00000" pt_clust_7="13000.00000" pt_clust_8="13000.00000" pt_clust_9="22.36572"></scales>
<clustering>
<clus scale="   22.366">  1  9  2 -1</clus>
<clus scale="   86.492">  5  6 -1 -1</clus>
<clus scale="   89.130">  7  8 -1 -1</clus>
<clus scale="   99.822">  1  5  2 -1</clus>
<clus scale="   22.366">  1  5  2 -1</clus>
</clustering>
</event>
<event>
 9    1  0.1714916E-005  0.9882704E+02  0.7546771E-02  0.1284467E+00
          2   -1    0    0  502    0  0.00000000000E+00  0.00000000000E+00  0.36094280512E+03  0.36094280512E+03  0.00000000000E+00 0. -1.
         -2   -1    0    0    0  501 -0.00000000000E+00 -0.00000000000E+00 -0.88924835238E+02  0.88924835238E+02  0.00000000000E+00 0.  1.
         23    2    1    2    0    0  0.27254235508E+02 -0.83621478280E+01 -0.46685601009E+02  0.10964236020E+03  0.95022012916E+02 0.  0.
         23    2    1    2    0    0 -0.18098040987E+02 -0.10890987118E+02  0.28665220880E+03  0.30173100896E+03  0.91793029534E+02 0.  0.
        -11    1    4    4    0    0  0.26115988080E+02 -0.24415726355E+02  0.55631965540E+02  0.66129328718E+02  0.00000000000E+00 0.  1.
         11    1    4    4    0    0 -0.44214029067E+02  0.13524739237E+02  0.23102024326E+03  0.23560168025E+03  0.00000000000E+00 0. -1.
        -13    1    3    3    0    0  0.58169045983E+02 -0.87102714714E+01 -0.51714581252E+02  0.78319248297E+02  0.00000000000E+00 0.  1.
         13    1    3    3    0    0 -0.30914810476E+02  0.34812364338E+00  0.50289802439E+01  0.31323111900E+02  0.00000000000E+00 0. -1.
         21    1    1    2  502  501 -0.91561945204E+01  0.19253134946E+02  0.32051362094E+02  0.38494271203E+02  0.00000000000E+00 0. -1.
<scales pt_clust_5="13000.00000" pt_clust_6="13000.00000" pt_clust_7="13000.00000" pt_clust_8="13000.00000" pt_clust_9="21.31945"></scales>
<clustering>
<clus scale="   21.319">  1  9  2 -1</clus>
<clus scale="   91.793">  5  6 -1 -1</clus>
<clus scale="   95.022">  7  8 -1 -1</clus>
<clus scale="   95.726">  1  5  2 -1</clus>
<clus scale="   21.319">  1  5  2 -1</clus>
</clustering>
</event>
<event>
 9    1  0.9000149E-006  0.1344431E+03  0.7546771E-02  0.1228765E+00
         -2   -1    0    0    0  501 -0.00000000000E+00  0.00000000000E+00  0.21593490420E+03  0.21593490420E+03  0.00000000000E+00 0.  1.
          2   -1    0    0  502    0  0.00000000000E+00 -0.00000000000E+00 -0.14052924507E+03  0.14052924507E+03  0.00000000000E+00 0. -1.
         23    2    1    2    0    0 -0.54501633215E+02  0.43678878635E+02  0.12941916950E+03  0.18666522170E+03  0.11496221595E+03 0.  0.
         23    2    1    2    0    0  0.69325991749E+02 -0.21973151351E+02 -0.76524424407E+01  0.11650494272E+03  0.90696908935E+02 0.  0.
        -11    1    3    3    0    0 -0.87729455547E+02  0.30557122042E+02  0.11573897153E+03  0.14841059466E+03  0.00000000000E+00 0. -1.
         11    1    3    3    0    0  0.33227822332E+02  0.13121756592E+02  0.13680197972E+02  0.38254627035E+02  0.00000000000E+00 0.  1.
        -11    1    4    4    0    0  0.21002394089E+02 -0.25582194818E+02 -0.44619715594E+02  0.55555992196E+02  0.00000000000E+00 0. -1.
         11    1    4    4    0    0  0.48323597660E+02  0.36090434674E+01  0.36967273153E+02  0.60948950524E+02  0.00000000000E+00 0.  1.
         21    1    1    2  502  501 -0.14824358534E+02 -0.21705727284E+02 -0.46361067928E+02  0.53293984861E+02  0.00000000000E+00 0.  1.
<scales pt_clust_5="13000.00000" pt_clust_6="13000.00000" pt_clust_7="13000.00000" pt_clust_8="13000.00000" pt_clust_9="26.28498"></scales>
<clustering>
<clus scale="   26.285">  2  9  1 -1</clus>
<clus scale="   90.697">  7  8 -1 -1</clus>
<clus scale="  114.388">  2  7  1 -1</clus>
<clus scale="  114.962">  5  6 -1 -1</clus>
<clus scale="   26.285">  2  5  1 -1</clus>
</clustering>
</event>
<event>
 9    1  0.9000149E-006  0.1573222E+03  0.7546771E-02  0.1193242E+00
          2   -1    0    0  502    0  0.00000000000E+00  0.00000000000E+00  0.28553477620E+03  0.28553477620E+03  0.00000000000E+00 0. -1.
         -2   -1    0    0    0  501 -0.00000000000E+00 -0.00000000000E+00 -0.12285083136E+03  0.12285083136E+03  0.00000000000E+00 0.  1.
         23    2    1    2    0    0 -0.96758742708E+02  0.81345602332E+02 -0.32720824954E+01  0.15758326478E+03  0.94034129475E+02 0.  0.
         23    2    1    2    0    0  0.75840336583E+02 -0.77418519294E+02  0.94669862082E+02  0.17640665035E+03  0.10203695272E+03 0.  0.
        -11    1    3    3    0    0 -0.10650349031E+03  0.38553476099E+02  0.26505114562E+01  0.11329778982E+03  0.00000000000E+00 0.  1.
         11    1    3    3    0    0  0.97447476007E+01  0.42792126234E+02 -0.59225939516E+01  0.44285474961E+02  0.00000000000E+00 0. -1.
        -11    1    4    4    0    0 -0.76784419865E+01 -0.52365959335E+02  0.81123118313E+01  0.53544017142E+02  0.00000000000E+00 0.  1.
         11    1    4    4    0    0  0.83518778570E+02 -0.25052559958E+02  0.86557550250E+02  0.12286263321E+03  0.00000000000E+00 0. -1.
         21    1    1    2  502  501  0.20918406125E+02 -0.39270830385E+01  0.71286165255E+02  0.74395692434E+02  0.00000000000E+00 0. -1.
<scales pt_clust_5="13000.00000" pt_clust_6="13000.00000" pt_clust_7="13000.00000" pt_clust_8="13000.00000" pt_clust_9="21.28384"></scales>
<clustering>
<clus scale="   21.284">  1  9  2 -1</clus>
<clus scale="   94.034">  5  6 -1 -1</clus>
<clus scale="  102.037">  7  8 -1 -1</clus>
<clus scale="  152.254">  2  5  1 -1</clus>
<clus scale="   21.284">  1  5  2 -1</clus>
</clustering>
</event>
<event>
 9    1  0.9000149E-006  0.9963393E+02  0.7546771E-02  0.1282581E+00
          2   -1    0    0  502    0  0.00000000000E+00  0.00000000000E+00  0.74809334876E+03  0.74809334876E+03  0.00000000000E+00 0. -1.
         -2   -1    0    0    0  501 -0.00000000000E+00 -0.00000000000E+00 -0.36596506215E+02  0.36596506215E+02  0.00000000000E+00 0.  1.
         23    2    1    2    0    0  0.96565803706E+01 -0.64044064641E+02  0.31021216474E+03  0.32908490315E+03  0.88715244291E+02 0.  0.
         23    2    1    2    0    0  0.22190044991E+02 -0.31882567919E+02  0.27362975772E+03  0.29278018404E+03  0.96633822356E+02 0.  0.
        -11    1    3    3    0    0 -0.13379207196E+01  0.22319513868E+02  0.75737226113E+02  0.78968842909E+02  0.00000000000E+00 0.  1.
         11    1    3    3    0    0  0.10994501090E+02 -0.86363578509E+02  0.23447493863E+03  0.25011606024E+03  0.00000000000E+00 0. -1.
        -13    1    4    4    0    0  0.45005393730E+02  0.17831570513E+02  0.10803377711E+03  0.11838389827E+03  0.00000000000E+00 0.  1.
         13    1    4    4    0    0 -0.22815348739E+02 -0.49714138433E+02  0.16559598060E+03  0.17439628577E+03  0.00000000000E+00 0. -1.
         21    1    1    2  502  501 -0.31846625362E+02  0.95926632560E+02  0.12765492009E+03  0.16282476778E+03  0.00000000000E+00 0.  1.
<scales pt_clust_5="13000.00000" pt_clust_6="13000.00000" pt_clust_7="13000.00000" pt_clust_8="13000.00000" pt_clust_9="101.07486"></scales>
<clustering>
<clus scale="   88.715">  5  6 -1 -1</clus>
<clus scale="   96.634">  7  8 -1 -1</clus>
<clus scale="  101.075">  2  9  1 -1</clus>
<clus scale="  101.075">  2  5  1 -1</clus>
<clus scale="   98.214">  1  5  2 -1</clus>
</clustering>
</event>
<event>
 9    1  0.9000149E-006  0.9629034E+02  0.7546771E-02  0.1291115E+00
         -1   -1    0    0    0  501 -0.00000000000E+00  0.00000000000E+00  0.37305324742E+03  0.37305324742E+03  0.00000000000E+00 0.  1.
          1   -1    0    0  502    0  0.00000000000E+00 -0.00000000000E+00 -0.47518862197E+02  0.47518862197E+02  0.00000000000E+00 0. -1.
         23    2    1    2    0    0 -0.29393531743E+01 -0.37626540173E+01  0.22982819880E+03  0.24915165195E+03  0.96087186153E+02 0.  0.
         23    2    1    2    0    0 -0.17549742120E+02  0.52224319124E+01  0.11175500701E+03  0.14535326334E+03  0.91121470179E+02 0.  0.
        -11    1    3    3    0    0  0.16903227825E+02 -0.45835014758E+02  0.10129302963E+03  0.11245819464E+03  0.00000000000E+00 0.  1.
         11    1    3    3    0    0 -0.19842581000E+02  0.42072360741E+02  0.12853516917E+03  0.13669345731E+03  0.00000000000E+00 0. -1.
        -13    1    4    4    0    0 -0.37506440463E+02 -0.27128027939E+02  0.29907581110E+02  0.55110129594E+02  0.00000000000E+00 0. -1.
         13    1    4    4    0    0  0.19956698343E+02  0.32350459851E+02  0.81847425904E+02  0.90243133747E+02  0.00000000000E+00 0.  1.
         21    1    1    2  502  501  0.20489095294E+02 -0.14597778951E+01 -0.16048820594E+02  0.26067194324E+02  0.00000000000E+00 0. -1.
<scales pt_clust_5="13000.00000" pt_clust_6="13000.00000" pt_clust_7="13000.00000" pt_clust_8="13000.00000" pt_clust_9="20.54103"></scales>
<clustering>
<clus scale="   20.541">  2  9  1 -1</clus>
<clus scale="   91.121">  7  8 -1 -1</clus>
<clus scale="   91.336">  2  7  1 -1</clus>
<clus scale="   96.087">  5  6 -1 -1</clus>
<clus scale="   20.541">  2  5  1 -1</clus>
</clustering>
</event>
<event>
 9    1  0.9000149E-006  0.1091638E+03  0.7546771E-02  0.1266257E+00
         -1   -1    0    0    0  501 -0.00000000000E+00  0.00000000000E+00  0.28468291318E+02  0.28468291318E+02  0.00000000000E+00 0.  1.
          1   -1    0    0  502    0  0.00000000000E+00 -0.00000000000E+00 -0.74523142445E+03  0.74523142445E+03  0.00000000000E+00 0. -1.
         23    2    1    2    0    0 -0.46641337202E+02 -0.19527370012E+02 -0.18233735419E+03  0.21256232449E+03  0.96845746121E+02 0.  0.
         23    2    1    2    0    0 -0.13815000544E+01 -0.12781835492E+01 -0.24175561470E+03  0.26382461155E+03  0.10561300168E+03 0.  0.
        -11    1    3    3    0    0  0.30057380972E+02 -0.93627860965E+01 -0.44769997072E+02  0.54730800764E+02  0.00000000000E+00 0. -1.
         11    1    3    3    0    0 -0.76698718174E+02 -0.10164583915E+02 -0.13756735712E+03  0.15783152372E+03  0.00000000000E+00 0.  1.
        -13    1    4    4    0    0  0.95336770336E+01  0.50526277570E+02 -0.98762753831E+02  0.11134575550E+03  0.00000000000E+00 0. -1.
         13    1    4    4    0    0 -0.10915177088E+02 -0.51804461119E+02 -0.14299286087E+03  0.15247885605E+03  0.00000000000E+00 0.  1.
         21    1    1    2  502  501  0.48022837257E+02  0.20805553561E+02 -0.29267016423E+03  0.29731277973E+03  0.00000000000E+00 0. -1.
<scales pt_clust_5="13000.00000" pt_clust_6="13000.00000" pt_clust_7="13000.00000" pt_clust_8="13000.00000" pt_clust_9="52.33607"></scales>
<clustering>
<clus scale="   52.336">  2  9  1 -1</clus>
<clus scale="   96.846">  5  6 -1 -1</clus>
<clus scale="  100.706">  1  5  2 -1</clus>
<clus scale="  105.613">  7  8 -1 -1</clus>
<clus scale="   52.336">  2  5  1 -1</clus>
</clustering>
</event>
<event>
 9    1  0.9000149E-006  0.9558579E+02  0.7546771E-02  0.1290872E+00
         -1   -1    0    0    0  501 -0.00000000000E+00  0.00000000000E+00  0.72855081799E+02  0.72855081799E+02  0.00000000000E+00 0.  1.
          1   -1    0    0  502    0  0.00000000000E+00 -0.00000000000E+00 -0.27892505025E+03  0.27892505025E+03  0.00000000000E+00 0. -1.
         23    2    1    2    0    0  0.28273089451E+02  0.37206382251E+01  0.15384030878E+02  0.96655927003E+02  0.91063104948E+02 0.  0.
         23    2    1    2    0    0 -0.25168663501E+02 -0.29678431632E+02 -0.14766889619E+03  0.17684466785E+03  0.89183309633E+02 0.  0.
        -13    1    4    4    0    0  0.18581767420E+02 -0.45923097425E+02 -0.62770120500E+02  0.79964373224E+02  0.00000000000E+00 0.  1.
         13    1    4    4    0    0 -0.43750430920E+02  0.16244665793E+02 -0.84898775694E+02  0.96880294625E+02  0.00000000000E+00 0. -1.
        -13    1    3    3    0    0 -0.33064228378E+02  0.76326944150E+01  0.43513941023E+01  0.34211633298E+02  0.00000000000E+00 0. -1.
         13    1    3    3    0    0  0.61337317829E+02 -0.39120561899E+01  0.11032636776E+02  0.62444293705E+02  0.00000000000E+00 0.  1.
         21    1    1    2  502  501 -0.31044259499E+01  0.25957793407E+02 -0.73785103131E+02  0.78279537193E+02  0.00000000000E+00 0. -1.
<scales pt_clust_5="13000.00000" pt_clust_6="13000.00000" pt_clust_7="13000.00000" pt_clust_8="13000.00000" pt_clust_9="26.14277"></scales>
<clustering>
<clus scale="   26.143">  2  9  1 -1</clus>
<clus scale="   89.183">  5  6 -1 -1</clus>
<clus scale="   91.063">  7  8 -1 -1</clus>
<clus scale="   93.797">  2  5  1 -1</clus>
<clus scale="   26.143">  2  5  1 -1</clus>
</clustering>
</event>
<event>
 9    1  0.9000149E-006  0.9557596E+02  0.7546771E-02  0.1290101E+00
          1   -1    0    0  502    0  0.00000000000E+00  0.00000000000E+00  0.96677774601E+02  0.96677774601E+02  0.00000000000E+00 0. -1.
         -1   -1    0    0    0  501 -0.00000000000E+00 -0.00000000000E+00 -0.26018701686E+03  0.26018701686E+03  0.00000000000E+00 0.  1.
         23    2    1    2    0    0  0.30083741383E+02  0.19390512398E+02 -0.15678016849E+03  0.18485817264E+03  0.91167424512E+02 0.  0.
         23    2    1    2    0    0 -0.17404494230E+01 -0.17506308259E+02 -0.60527956524E+02  0.11116903002E+03  0.91571937412E+02 0.  0.
        -13    1    4    4    0    0  0.18325789605E+02  0.25112695919E+02  0.39266208656E+01  0.31335290207E+02  0.00000000000E+00 0.  1.
         13    1    4    4    0    0 -0.20066239028E+02 -0.42619004178E+02 -0.64454577390E+02  0.79833739812E+02  0.00000000000E+00 0. -1.
        -13    1    3    3    0    0 -0.18243174803E+02  0.30355463149E+02 -0.11405692572E+03  0.11942884859E+03  0.00000000000E+00 0. -1.
         13    1    3    3    0    0  0.48326916186E+02 -0.10964950750E+02 -0.42723242772E+02  0.65429324052E+02  0.00000000000E+00 0.  1.
         21    1    1    2  502  501 -0.28343291960E+02 -0.18842041392E+01  0.53798882763E+02  0.60837588799E+02  0.00000000000E+00 0. -1.
<scales pt_clust_5="13000.00000" pt_clust_6="13000.00000" pt_clust_7="13000.00000" pt_clust_8="13000.00000" pt_clust_9="28.40585"></scales>
<clustering>
<clus scale="   28.406">  1  9  2 -1</clus>
<clus scale="   91.167">  7  8 -1 -1</clus>
<clus scale="   91.572">  5  6 -1 -1</clus>
<clus scale="   95.188">  2  7  1 -1</clus>
<clus scale="   28.406">  1  5  2 -1</clus>
</clustering>
</event>
<event>
 9    1  0.9000149E-006  0.1216431E+03  0.7546771E-02  0.1240748E+00
         -2   -1    0    0    0  501 -0.00000000000E+00  0.00000000000E+00  0.35970435681E+02  0.35970435681E+02  0.00000000000E+00 0.  1.
          2   -1    0    0  502    0  0.00000000000E+00 -0.00000000000E+00 -0.62926644189E+03  0.62926644189E+03  0.00000000000E+00 0. -1.
         23    2    1    2    0    0 -0.77437564680E+02  0.50877789066E+02 -0.15058333612E+03  0.19904777087E+03  0.91430564524E+02 0.  0.
         23    2    1    2    0    0  0.54256066616E+02 -0.19651092672E+02 -0.32514767811E+03  0.34235851371E+03  0.90324155805E+02 0.  0.
        -13    1    4    4    0    0  0.44696809689E+02 -0.53583682628E+02 -0.24619954997E+03  0.25589692113E+03  0.00000000000E+00 0.  1.
         13    1    4    4    0    0  0.95592569277E+01  0.33932589956E+02 -0.78948128141E+02  0.86461592578E+02  0.00000000000E+00 0. -1.
        -13    1    3    3    0    0 -0.22803954165E+02  0.58894308188E+02 -0.12079078068E+03  0.13630470483E+03  0.00000000000E+00 0. -1.
         13    1    3    3    0    0 -0.54633610515E+02 -0.80165191220E+01 -0.29792555443E+02  0.62743066044E+02  0.00000000000E+00 0.  1.
         21    1    1    2  502  501  0.23181498064E+02 -0.31226696394E+02 -0.11756499198E+03  0.12383059299E+03  0.00000000000E+00 0.  1.
<scales pt_clust_5="13000.00000" pt_clust_6="13000.00000" pt_clust_7="13000.00000" pt_clust_8="13000.00000" pt_clust_9="38.89072"></scales>
<clustering>
<clus scale="   38.891">  2  9  1 -1</clus>
<clus scale="   90.324">  5  6 -1 -1</clus>
<clus scale="   91.431">  7  8 -1 -1</clus>
<clus scale="  120.814">  2  5  1 -1</clus>
<clus scale="   38.891">  2  5  1 -1</clus>
</clustering>
</event>
<event>
 9    1  0.9000149E-006  0.9011881E+02  0.7546771E-02  0.1304910E+00
         -1   -1    0    0    0  501 -0.00000000000E+00  0.00000000000E+00  0.43046814410E+02  0.43046814410E+02  0.00000000000E+00 0.  1.
          1   -1    0    0  502    0  0.00000000000E+00 -0.00000000000E+00 -0.30781938425E+03  0.30781938425E+03  0.00000000000E+00 0. -1.
         23    2    1    2    0    0  0.12468859381E+02  0.72674562165E+01 -0.60737431676E+02  0.10870723318E+03  0.88994036680E+02 0.  0.
         23    2    1    2    0    0  0.12460991028E+01  0.22819330241E+02 -0.18255352037E+03  0.20272833388E+03  0.85151130129E+02 0.  0.
        -11    1    3    3    0    0 -0.36007270922E+02 -0.27944173913E+01 -0.42910822743E+02  0.56086282068E+02  0.00000000000E+00 0. -1.
         11    1    3    3    0    0  0.48476130303E+02  0.10061873608E+02 -0.17826608933E+02  0.52620951110E+02  0.00000000000E+00 0.  1.
        -13    1    4    4    0    0 -0.17079235018E+02 -0.24330708608E+02 -0.30975556227E+02  0.42932141034E+02  0.00000000000E+00 0.  1.
         13    1    4    4    0    0  0.18325334120E+02  0.47150038849E+02 -0.15157796415E+03  0.15979619285E+03  0.00000000000E+00 0. -1.
         21    1    1    2  502  501 -0.13714958484E+02 -0.30086786457E+02 -0.21481617794E+02  0.39430631603E+02  0.00000000000E+00 0.  1.
<scales pt_clust_5="13000.00000" pt_clust_6="13000.00000" pt_clust_7="13000.00000" pt_clust_8="13000.00000" pt_clust_9="33.06531"></scales>
<clustering>
<clus scale="   33.065">  1  9  2 -1</clus>
<clus scale="   85.151">  7  8 -1 -1</clus>
<clus scale="   86.326">  2  7  1 -1</clus>
<clus scale="   88.994">  5  6 -1 -1</clus>
<clus scale="   86.326">  2  5  1 -1</clus>
</clustering>
</event>
<event>
 9    1  0.9000149E-006  0.9621522E+02  0.7546771E-02  0.1288902E+00
          1   -1    0    0  502    0  0.00000000000E+00  0.00000000000E+00  0.12108754925E+03  0.12108754925E+03  0.00000000000E+00 0. -1.
         -1   -1    0    0    0  501 -0.00000000000E+00 -0.00000000000E+00 -0.18969142904E+03  0.18969142904E+03  0.00000000000E+00 0.  1.
         23    2    1    2    0    0  0.34810605098E-01  0.34691735522E+01 -0.12048189293E+03  0.15157857932E+03  0.91913779203E+02 0.  0.
         23    2    1    2    0    0 -0.29045765606E+02 -0.16083633404E+02  0.72830303455E+02  0.12125624822E+03  0.91085041953E+02 0.  0.
        -11    1    3    3    0    0 -0.15053499568E+02  0.45123874070E+02 -0.66037227905E+02  0.81386038912E+02  0.00000000000E+00 0.  1.
         11    1    3    3    0    0  0.15088310173E+02 -0.41654700518E+02 -0.54444665023E+02  0.70192540405E+02  0.00000000000E+00 0. -1.
        -13    1    4    4    0    0 -0.24040669353E+02 -0.48914834041E+02  0.68844155618E+02  0.87807360369E+02  0.00000000000E+00 0. -1.
         13    1    4    4    0    0 -0.50050962532E+01  0.32831200637E+02  0.39861478368E+01  0.33448887849E+02  0.00000000000E+00 0.  1.
         21    1    1    2  502  501  0.29010955001E+02  0.12614459852E+02 -0.20952290309E+02  0.37944150757E+02  0.00000000000E+00 0.  1.
<scales pt_clust_5="13000.00000" pt_clust_6="13000.00000" pt_clust_7="13000.00000" pt_clust_8="13000.00000" pt_clust_9="31.63479"></scales>
<clustering>
<clus scale="   31.635">  2  9  1 -1</clus>
<clus scale="   91.085">  7  8 -1 -1</clus>
<clus scale="   91.914">  5  6 -1 -1</clus>
<clus scale="   95.424">  1  7  2 -1</clus>
<clus scale="   95.424">  1  5  2 -1</clus>
</clustering>
</event>
<event>
 9    1  0.9000149E-006  0.1055290E+03  0.7546771E-02  0.1270126E+00
          2   -1    0    0  502    0  0.00000000000E+00  0.00000000000E+00  0.16644261055E+03  0.16644261055E+03  0.00000000000E+00 0.  1.
         -2   -1    0    0    0  501 -0.00000000000E+00 -0.00000000000E+00 -0.84087961349E+02  0.84087961349E+02  0.00000000000E+00 0. -1.
         23    2    1    2    0    0  0.41181485142E+02  0.15038404708E+02  0.15405524506E+02  0.10375394461E+03  0.92765739916E+02 0.  0.
         23    2    1    2    0    0 -0.50626411434E+02 -0.34259795806E+02  0.58161882158E+02  0.12362745582E+03  0.90355830757E+02 0.  0.
        -13    1    3    3    0    0  0.86616143621E+01  0.47786955490E+02  0.27809461832E+02  0.55964121058E+02  0.00000000000E+00 0.  1.
         13    1    3    3    0    0  0.32519870780E+02 -0.32748550783E+02 -0.12403937327E+02  0.47789823552E+02  0.00000000000E+00 0. -1.
        -13    1    4    4    0    0 -0.71770763461E+02 -0.64454859046E+01  0.50117818230E+02  0.87774611822E+02  0.00000000000E+00 0.  1.
         13    1    4    4    0    0  0.21144352027E+02 -0.27814309902E+02  0.80440639282E+01  0.35852843994E+02  0.00000000000E+00 0. -1.
         21    1    1    2  502  501  0.94449262920E+01  0.19221391099E+02  0.87872425339E+01  0.23149171471E+02  0.00000000000E+00 0.  1.
<scales pt_clust_5="13000.00000" pt_clust_6="13000.00000" pt_clust_7="13000.00000" pt_clust_8="13000.00000" pt_clust_9="21.41655"></scales>
<clustering>
<clus scale="   21.417">  1  9  2 -1</clus>
<clus scale="   90.356">  7  8 -1 -1</clus>
<clus scale="   92.766">  5  6 -1 -1</clus>
<clus scale="  103.417">  1  7  2 -1</clus>
<clus scale="   21.417">  1  5  2 -1</clus>
</clustering>
</event>
<event>
 9    1  0.9000149E-006  0.9740728E+02  0.7546771E-02  0.1288666E+00
          1   -1    0    0  502    0  0.00000000000E+00  0.00000000000E+00  0.27710306036E+03  0.27710306036E+03  0.00000000000E+00 0. -1.
         -1   -1    0    0    0  501 -0.00000000000E+00 -0.00000000000E+00 -0.31498072317E+03  0.31498072317E+03  0.00000000000E+00 0.  1.
         23    2    1    2    0    0  0.11106233799E+02  0.12933490994E+02 -0.19350781539E+03  0.21689837714E+03  0.96483199435E+02 0.  0.
         23    2    1    2    0    0 -0.44683055143E+01  0.78879078297E+02 -0.64236379029E+02  0.13682663962E+03  0.91396620136E+02 0.  0.
        -11    1    3    3    0    0 -0.36915272920E+02  0.80127842580E+01 -0.13921347156E+03  0.14424747051E+03  0.00000000000E+00 0. -1.
         11    1    3    3    0    0  0.48021506719E+02  0.49207067356E+01 -0.54294343826E+02  0.72650906628E+02  0.00000000000E+00 0.  1.
        -13    1    4    4    0    0 -0.16744842080E+02  0.60818664626E+02  0.59115864690E+01  0.63358082024E+02  0.00000000000E+00 0. -1.
         13    1    4    4    0    0  0.12276536565E+02  0.18060413671E+02 -0.70147965498E+02  0.73468557598E+02  0.00000000000E+00 0.  1.
         21    1    1    2  502  501 -0.66379282842E+01 -0.91812569291E+02  0.21986653161E+03  0.23835876676E+03  0.00000000000E+00 0. -1.
<scales pt_clust_5="13000.00000" pt_clust_6="13000.00000" pt_clust_7="13000.00000" pt_clust_8="13000.00000" pt_clust_9="92.05221"></scales>
<clustering>
<clus scale="   91.397">  7  8 -1 -1</clus>
<clus scale="   92.052">  1  9  2 -1</clus>
<clus scale="   92.372">  1  7  2 -1</clus>
<clus scale="   96.483">  5  6 -1 -1</clus>
<clus scale="   92.052">  1  5  2 -1</clus>
</clustering>
</event>
<event>
 9    1  0.9000149E-006  0.1480383E+03  0.7546771E-02  0.1203920E+00
          1   -1    0    0  502    0  0.00000000000E+00  0.00000000000E+00  0.51040061958E+03  0.51040061958E+03  0.00000000000E+00 0. -1.
         -1   -1    0    0    0  501 -0.00000000000E+00 -0.00000000000E+00 -0.56742754936E+02  0.56742754936E+02  0.00000000000E+00 0.  1.
         23    2    1    2    0    0  0.77526819498E+02 -0.68901070510E+02  0.11637111369E+03  0.18053333546E+03  0.91061978084E+02 0.  0.
         23    2    1    2    0    0 -0.10556130236E+03  0.65329057673E+02  0.31919052888E+03  0.35305166069E+03  0.85742679307E+02 0.  0.
        -11    1    4    4    0    0 -0.24842806672E+02 -0.20391285777E+02  0.53007172301E+02  0.61989756367E+02  0.00000000000E+00 0.  1.
         11    1    4    4    0    0 -0.80718495689E+02  0.85720343450E+02  0.26618335658E+03  0.29106190432E+03  0.00000000000E+00 0. -1.
        -11    1    3    3    0    0 -0.86668626237E+01 -0.26190602174E+02  0.66894995482E+02  0.72360227822E+02  0.00000000000E+00 0. -1.
         11    1    3    3    0    0  0.86193682122E+02 -0.42710468337E+02  0.49476118204E+02  0.10817310764E+03  0.00000000000E+00 0.  1.
         21    1    1    2  502  501  0.28034482863E+02  0.35720128370E+01  0.18096222072E+02  0.33558378364E+02  0.00000000000E+00 0.  1.
<scales pt_clust_5="13000.00000" pt_clust_6="13000.00000" pt_clust_7="13000.00000" pt_clust_8="13000.00000" pt_clust_9="28.26113"></scales>
<clustering>
<clus scale="   28.261">  2  9  1 -1</clus>
<clus scale="   85.743">  5  6 -1 -1</clus>
<clus scale="   91.062">  7  8 -1 -1</clus>
<clus scale="  144.827">  1  5  2 -1</clus>
<clus scale="  144.827">  1  5  2 -1</clus>
</clustering>
</event>
<event>
 9    1  0.9000149E-006  0.1083566E+03  0.7546771E-02  0.1268556E+00
          1   -1    0    0  502    0  0.00000000000E+00  0.00000000000E+00  0.10055324443E+03  0.10055324443E+03  0.00000000000E+00 0. -1.
         -1   -1    0    0    0  501 -0.00000000000E+00 -0.00000000000E+00 -0.37630252749E+03  0.37630252749E+03  0.00000000000E+00 0.  1.
         23    2    1    2    0    0  0.22620518768E+02 -0.42712440822E+02 -0.24067340553E+03  0.26595482093E+03  0.10233395416E+03 0.  0.
         23    2    1    2    0    0 -0.37468125947E+01  0.17342664591E+02 -0.10108912806E+03  0.13770538024E+03  0.91809331320E+02 0.  0.
        -11    1    3    3    0    0  0.38230436410E+02 -0.70908930405E+02 -0.16162303685E+03  0.18058695612E+03  0.00000000000E+00 0.  1.
         11    1    3    3    0    0 -0.15609917641E+02  0.28196489583E+02 -0.79050368681E+02  0.85367864810E+02  0.00000000000E+00 0. -1.
        -13    1    4    4    0    0  0.28014610075E+02 -0.41667116260E+01 -0.94665826768E+02  0.98811935621E+02  0.00000000000E+00 0.  1.
         13    1    4    4    0    0 -0.31761422670E+02  0.21509376217E+02 -0.64233012879E+01  0.38893444624E+02  0.00000000000E+00 0. -1.
         21    1    1    2  502  501 -0.18873706174E+02  0.25369776232E+02  0.66013250534E+02  0.73195570746E+02  0.00000000000E+00 0. -1.
<scales pt_clust_5="13000.00000" pt_clust_6="13000.00000" pt_clust_7="13000.00000" pt_clust_8="13000.00000" pt_clust_9="31.62028"></scales>
<clustering>
<clus scale="   31.620">  1  9  2 -1</clus>
<clus scale="   91.809">  7  8 -1 -1</clus>
<clus scale="   98.478">  1  7  2 -1</clus>
<clus scale="  102.334">  5  6 -1 -1</clus>
<clus scale="   31.620">  1  5  2 -1</clus>
</clustering>
</event>
<event>
 9    1  0.9000149E-006  0.9136705E+02  0.7546771E-02  0.1302933E+00
         -1   -1    0    0    0  501 -0.00000000000E+00  0.00000000000E+00  0.30873285540E+03  0.30873285540E+03  0.00000000000E+00 0.  1.
          1   -1    0    0  502    0  0.00000000000E+00 -0.00000000000E+00 -0.96330848878E+02  0.96330848878E+02  0.00000000000E+00 0. -1.
         23    2    1    2    0    0 -0.23409720520E+02  0.26005426868E+01  0.23725007851E+03  0.25470126792E+03  0.89612266413E+02 0.  0.
         23    2    1    2    0    0 -0.26454894216E+02  0.87541571779E+01 -0.39831708164E+02  0.97071551911E+02  0.84022761912E+02 0.  0.
        -13    1    4    4    0    0 -0.23331875725E+02  0.29550475405E+02  0.13298660098E+02  0.39930707255E+02  0.00000000000E+00 0.  1.
         13    1    4    4    0    0 -0.31230184916E+01 -0.20796318227E+02 -0.53130368262E+02  0.57140844656E+02  0.00000000000E+00 0. -1.
        -13    1    3    3    0    0 -0.38469586633E+02 -0.31546108065E+02  0.90424095829E+02  0.10320650724E+03  0.00000000000E+00 0. -1.
         13    1    3    3    0    0  0.15059866113E+02  0.34146650752E+02  0.14682598268E+03  0.15149476068E+03  0.00000000000E+00 0.  1.
         21    1    1    2  502  501  0.49864614736E+02 -0.11354699865E+02  0.14983636177E+02  0.53290884444E+02  0.00000000000E+00 0.  1.
<scales pt_clust_5="13000.00000" pt_clust_6="13000.00000" pt_clust_7="13000.00000" pt_clust_8="13000.00000" pt_clust_9="51.14107"></scales>
<clustering>
<clus scale="   51.141">  2  9  1 -1</clus>
<clus scale="   84.023">  5  6 -1 -1</clus>
<clus scale="   85.892">  2  5  1 -1</clus>
<clus scale="   89.612">  7  8 -1 -1</clus>
<clus scale="   51.141">  2  5  1 -1</clus>
</clustering>
</event>
<event>
 9    1  0.9000149E-006  0.9615856E+02  0.7546771E-02  0.1289273E+00
         -1   -1    0    0    0  501 -0.00000000000E+00  0.00000000000E+00  0.12360159348E+03  0.12360159348E+03  0.00000000000E+00 0.  1.
          1   -1    0    0  502    0  0.00000000000E+00 -0.00000000000E+00 -0.24370068477E+03  0.24370068477E+03  0.00000000000E+00 0. -1.
         23    2    1    2    0    0 -0.22341785808E+02 -0.25305592974E+02  0.76022275217E+02  0.12269367856E+03  0.90193259177E+02 0.  0.
         23    2    1    2    0    0  0.91566443951E+00  0.16172452589E+02 -0.69928565272E+02  0.11628433849E+03  0.91485826626E+02 0.  0.
        -11    1    3    3    0    0  0.14368952809E+02  0.21244474527E+02  0.53400572832E+02  0.59240321417E+02  0.00000000000E+00 0.  1.
         11    1    3    3    0    0 -0.36710738616E+02 -0.46550067502E+02  0.22621702385E+02  0.63453357145E+02  0.00000000000E+00 0. -1.
        -13    1    4    4    0    0  0.37033623477E+02 -0.80024116828E+01 -0.50926899419E+01  0.38229090382E+02  0.00000000000E+00 0. -1.
         13    1    4    4    0    0 -0.36117959038E+02  0.24174864272E+02 -0.64835875331E+02  0.78055248110E+02  0.00000000000E+00 0.  1.
         21    1    1    2  502  501  0.21426121368E+02  0.91331403850E+01 -0.12619280123E+03  0.12832426120E+03  0.00000000000E+00 0. -1.
<scales pt_clust_5="13000.00000" pt_clust_6="13000.00000" pt_clust_7="13000.00000" pt_clust_8="13000.00000" pt_clust_9="23.29148"></scales>
<clustering>
<clus scale="   23.291">  2  9  1 -1</clus>
<clus scale="   90.193">  5  6 -1 -1</clus>
<clus scale="   91.486">  7  8 -1 -1</clus>
<clus scale="   94.930">  1  5  2 -1</clus>
<clus scale="   23.291">  2  5  1 -1</clus>
</clustering>
</event>
<event>
 9    1  0.9000149E-006  0.9567484E+02  0.7546771E-02  0.1290171E+00
          1   -1    0    0  502    0  0.00000000000E+00  0.00000000000E+00  0.17569500196E+03  0.17569500196E+03  0.00000000000E+00 0. -1.
         -1   -1    0    0    0  501 -0.00000000000E+00 -0.00000000000E+00 -0.13964346317E+03  0.13964346317E+03  0.00000000000E+00 0.  1.
         23    2    1    2    0    0  0.30437474673E+02  0.52886485386E+01 -0.66525389934E+02  0.11661029521E+03  0.90652764854E+02 0.  0.
         23    2    1    2    0    0 -0.20709176741E+02  0.24640185261E+02  0.61367202782E+01  0.97283166701E+02  0.91598834363E+02 0.  0.
        -11    1    3    3    0    0  0.56447156378E+02  0.25587771090E+02 -0.50425673274E+02  0.79898460671E+02  0.00000000000E+00 0.  1.
         11    1    3    3    0    0 -0.26009681706E+02 -0.20299122551E+02 -0.16099716660E+02  0.36711834540E+02  0.00000000000E+00 0. -1.
        -13    1    4    4    0    0  0.16643396174E+02 -0.18097349554E+02  0.27269103668E+02  0.36716763364E+02  0.00000000000E+00 0. -1.
         13    1    4    4    0    0 -0.37352572915E+02  0.42737534815E+02 -0.21132383390E+02  0.60566403337E+02  0.00000000000E+00 0.  1.
         21    1    1    2  502  501 -0.97282979319E+01 -0.29928833799E+02  0.96440208443E+02  0.10144500322E+03  0.00000000000E+00 0. -1.
<scales pt_clust_5="13000.00000" pt_clust_6="13000.00000" pt_clust_7="13000.00000" pt_clust_8="13000.00000" pt_clust_9="31.47022"></scales>
<clustering>
<clus scale="   31.470">  1  9  2 -1</clus>
<clus scale="   90.653">  5  6 -1 -1</clus>
<clus scale="   91.599">  7  8 -1 -1</clus>
<clus scale="   94.769">  2  5  1 -1</clus>
<clus scale="   31.470">  1  5  2 -1</clus>
</clustering>
</event>
<event>
 9    1  0.9000149E-006  0.1237229E+03  0.7546771E-02  0.1240879E+00
         -2   -1    0    0    0  501 -0.00000000000E+00  0.00000000000E+00  0.96884157661E+02  0.96884157661E+02  0.00000000000E+00 0.  1.
          2   -1    0    0  502    0  0.00000000000E+00 -0.00000000000E+00 -0.64723905667E+03  0.64723905667E+03  0.00000000000E+00 0. -1.
         23    2    1    2    0    0 -0.53218471911E+02 -0.57140703353E+02  0.30865751295E+02  0.12002181060E+03  0.85762898067E+02 0.  0.
         23    2    1    2    0    0 -0.22563484004E+02  0.89179656236E+02 -0.44660745446E+03  0.46633540029E+03  0.97715737184E+02 0.  0.
        -13    1    3    3    0    0  0.22760501262E+02 -0.21310867507E+02  0.21824105355E+01  0.31256301882E+02  0.00000000000E+00 0. -1.
         13    1    3    3    0    0 -0.75978973173E+02 -0.35829835846E+02  0.28683340760E+02  0.88765508720E+02  0.00000000000E+00 0.  1.
        -13    1    4    4    0    0  0.36703733728E+02  0.24241818341E+02 -0.11085419274E+03  0.11926223993E+03  0.00000000000E+00 0. -1.
         13    1    4    4    0    0 -0.59267217731E+02  0.64937837895E+02 -0.33575326172E+03  0.34707316037E+03  0.00000000000E+00 0.  1.
         21    1    1    2  502  501  0.75781955915E+02 -0.32038952883E+02 -0.13461319584E+03  0.15776600343E+03  0.00000000000E+00 0. -1.
<scales pt_clust_5="13000.00000" pt_clust_6="13000.00000" pt_clust_7="13000.00000" pt_clust_8="13000.00000" pt_clust_9="82.27636"></scales>
<clustering>
<clus scale="   82.276">  2  9  1 -1</clus>
<clus scale="   85.763">  5  6 -1 -1</clus>
<clus scale="   97.716">  7  8 -1 -1</clus>
<clus scale="  114.517">  1  5  2 -1</clus>
<clus scale="   82.276">  2  5  1 -1</clus>
</clustering>
</event>
<event>
 9    1  0.9000149E-006  0.9928658E+02  0.7546771E-02  0.1284766E+00
         -1   -1    0    0    0  501 -0.00000000000E+00  0.00000000000E+00  0.83933614705E+02  0.83933614705E+02  0.00000000000E+00 0.  1.
          1   -1    0    0  502    0  0.00000000000E+00 -0.00000000000E+00 -0.29240884951E+03  0.29240884951E+03  0.00000000000E+00 0. -1.
         23    2    1    2    0    0 -0.14000898559E+02  0.89064879415E+01  0.27307672271E+02  0.96930793772E+02  0.91512398769E+02 0.  0.
         23    2    1    2    0    0  0.51412314540E+02  0.51543064018E+01 -0.17364510807E+03  0.20553050878E+03  0.97058608697E+02 0.  0.
        -13    1    3    3    0    0  0.22416558271E+02 -0.14939206953E+02 -0.19313790592E+02  0.33146711694E+02  0.00000000000E+00 0.  1.
         13    1    3    3    0    0 -0.36417456830E+02  0.23845694895E+02  0.46621462864E+02  0.63784082078E+02  0.00000000000E+00 0. -1.
        -13    1    4    4    0    0  0.48519906124E+02 -0.38239633620E+02 -0.12991935950E+03  0.14385927444E+03  0.00000000000E+00 0.  1.
         13    1    4    4    0    0  0.28924084161E+01  0.43393940022E+02 -0.43725748570E+02  0.61671234340E+02  0.00000000000E+00 0. -1.
         21    1    1    2  502  501 -0.37411415982E+02 -0.14060794343E+02 -0.62137799008E+02  0.73881161664E+02  0.00000000000E+00 0.  1.
<scales pt_clust_5="13000.00000" pt_clust_6="13000.00000" pt_clust_7="13000.00000" pt_clust_8="13000.00000" pt_clust_9="39.96649"></scales>
<clustering>
<clus scale="   39.966">  2  9  1 -1</clus>
<clus scale="   91.512">  5  6 -1 -1</clus>
<clus scale="   93.872">  1  5  2 -1</clus>
<clus scale="   97.059">  7  8 -1 -1</clus>
<clus scale="   39.966">  2  5  1 -1</clus>
</clustering>
</event>
<event>
 9    1  0.9000149E-006  0.1229121E+03  0.7546771E-02  0.1240403E+00
          2   -1    0    0  502    0  0.00000000000E+00  0.00000000000E+00  0.28192031569E+03  0.28192031569E+03  0.00000000000E+00 0. -1.
         -2   -1    0    0    0  501 -0.00000000000E+00 -0.00000000000E+00 -0.11410626474E+03  0.11410626474E+03  0.00000000000E+00 0.  1.
         23    2    1    2    0    0 -0.92345683097E+01 -0.75323588866E+02 -0.34172103519E+02  0.12403079850E+03  0.91961872670E+02 0.  0.
         23    2    1    2    0    0 -0.78066471658E+01  0.98932285207E+02  0.96427818820E+02  0.16249539019E+03  0.85193232086E+02 0.  0.
        -11    1    3    3    0    0  0.21447967197E+02 -0.79436078850E+02 -0.65480196217E+01  0.82540792829E+02  0.00000000000E+00 0.  1.
         11    1    3    3    0    0 -0.30682535507E+02  0.41124899839E+01 -0.27624083897E+02  0.41490005666E+02  0.00000000000E+00 0. -1.
        -13    1    4    4    0    0  0.15628313733E+02  0.34208491069E+02 -0.69997181726E+01  0.38255210179E+02  0.00000000000E+00 0.  1.
         13    1    4    4    0    0 -0.23434960899E+02  0.64723794138E+02  0.10342753699E+03  0.12424018001E+03  0.00000000000E+00 0. -1.
         21    1    1    2  502  501  0.17041215476E+02 -0.23608696341E+02  0.10555833565E+03  0.10950039175E+03  0.00000000000E+00 0.  1.
<scales pt_clust_5="13000.00000" pt_clust_6="13000.00000" pt_clust_7="13000.00000" pt_clust_8="13000.00000" pt_clust_9="29.11655"></scales>
<clustering>
<clus scale="   29.117">  1  9  2 -1</clus>
<clus scale="   85.193">  7  8 -1 -1</clus>
<clus scale="   91.962">  5  6 -1 -1</clus>
<clus scale="  117.933">  1  7  2 -1</clus>
<clus scale="   29.117">  1  5  2 -1</clus>
</clustering>
</event>
<event>
 9    1  0.9000149E-006  0.1275500E+03  0.7546771E-02  0.1231501E+00
         -1   -1    0    0    0  501 -0.00000000000E+00  0.00000000000E+00  0.14996681548E+03  0.14996681548E+03  0.00000000000E+00 0.  1.
          1   -1    0    0  502    0  0.00000000000E+00 -0.00000000000E+00 -0.35301203519E+03  0.35301203519E+03  0.00000000000E+00 0. -1.
         23    2    1    2    0    0 -0.82974769141E+02 -0.38741858971E+02  0.10224353179E+03  0.16466955052E+03  0.90975695253E+02 0.  0.
         23    2    1    2    0    0  0.72381032351E+02  0.19211755058E+02 -0.20834502429E+03  0.23885208090E+03  0.89635718471E+02 0.  0.
        -11    1    4    4    0    0  0.46726945428E+02 -0.38220940523E+01 -0.26677075433E+02  0.53941469999E+02  0.00000000000E+00 0.  1.
         11    1    4    4    0    0  0.25654086923E+02  0.23033849110E+02 -0.18166794886E+03  0.18491061090E+03  0.00000000000E+00 0. -1.
        -11    1    3    3    0    0 -0.22571762223E+02  0.30015447327E+02  0.30482430528E+02  0.48369309474E+02  0.00000000000E+00 0. -1.
         11    1    3    3    0    0 -0.60403006917E+02 -0.68757306298E+02  0.71761101257E+02  0.11630024105E+03  0.00000000000E+00 0.  1.
         21    1    1    2  502  501  0.10593736790E+02  0.19530103913E+02 -0.96943727199E+02  0.99457219252E+02  0.00000000000E+00 0. -1.
<scales pt_clust_5="13000.00000" pt_clust_6="13000.00000" pt_clust_7="13000.00000" pt_clust_8="13000.00000" pt_clust_9="22.21829"></scales>
<clustering>
<clus scale="   22.218">  2  9  1 -1</clus>
<clus scale="   89.636">  5  6 -1 -1</clus>
<clus scale="   90.976">  7  8 -1 -1</clus>
<clus scale="  126.598">  2  5  1 -1</clus>
<clus scale="   22.218">  2  5  1 -1</clus>
</clustering>
</event>
<event>
 9    1  0.9000149E-006  0.9778793E+02  0.7546771E-02  0.1287582E+00
         -1   -1    0    0    0  501 -0.00000000000E+00  0.00000000000E+00  0.14001279918E+03  0.14001279918E+03  0.00000000000E+00 0.  1.
          1   -1    0    0  502    0  0.00000000000E+00 -0.00000000000E+00 -0.42194297398E+03  0.42194297398E+03  0.00000000000E+00 0. -1.
         23    2    1    2    0    0  0.14642434975E+02  0.16731153685E+02  0.87662883107E+02  0.13170083207E+03  0.95739206639E+02 0.  0.
         23    2    1    2    0    0  0.54674588528E+02 -0.34802720112E+02 -0.95608218610E+02  0.14706044358E+03  0.91023637816E+02 0.  0.
        -11    1    4    4    0    0  0.32791669679E+02  0.25694549096E+01  0.87811509379E+01  0.34044152371E+02  0.00000000000E+00 0.  1.
         11    1    4    4    0    0  0.21882918849E+02 -0.37372175021E+02 -0.10438936955E+03  0.11301629121E+03  0.00000000000E+00 0. -1.
        -11    1    3    3    0    0  0.51290024420E+02  0.28915510126E+02  0.44652438769E+02  0.73895964835E+02  0.00000000000E+00 0.  1.
         11    1    3    3    0    0 -0.36647589445E+02 -0.12184356441E+02  0.43010444338E+02  0.57804867236E+02  0.00000000000E+00 0. -1.
         21    1    1    2  502  501 -0.69317023503E+02  0.18071566427E+02 -0.27398483929E+03  0.28319449751E+03  0.00000000000E+00 0. -1.
<scales pt_clust_5="13000.00000" pt_clust_6="13000.00000" pt_clust_7="13000.00000" pt_clust_8="13000.00000" pt_clust_9="71.63401"></scales>
<clustering>
<clus scale="   71.634">  2  9  1 -1</clus>
<clus scale="   91.024">  5  6 -1 -1</clus>
<clus scale="   93.176">  2  5  1 -1</clus>
<clus scale="   95.739">  7  8 -1 -1</clus>
<clus scale="   71.634">  2  5  1 -1</clus>
</clustering>
</event>
<event>
 9    1  0.9000149E-006  0.1276156E+03  0.7546771E-02  0.1232548E+00
          1   -1    0    0  502    0  0.00000000000E+00  0.00000000000E+00  0.19575650313E+03  0.19575650313E+03  0.00000000000E+00 0. -1.
         -1   -1    0    0    0  501 -0.00000000000E+00 -0.00000000000E+00 -0.13883348446E+03  0.13883348446E+03  0.00000000000E+00 0.  1.
         23    2    1    2    0    0  0.50162759164E+02 -0.52697182044E+02  0.23079616760E+02  0.12072121828E+03  0.93528864157E+02 0.  0.
         23    2    1    2    0    0 -0.18581908775E+02  0.92026608053E+02  0.68730919219E+02  0.15253939034E+03  0.98641484307E+02 0.  0.
        -11    1    3    3    0    0 -0.22868670072E+01 -0.37738513766E+02 -0.27172432740E+02  0.46559277088E+02  0.00000000000E+00 0.  1.
         11    1    3    3    0    0  0.52449626171E+02 -0.14958668279E+02  0.50252049500E+02  0.74161941190E+02  0.00000000000E+00 0. -1.
        -11    1    4    4    0    0 -0.10147997425E+02 -0.18933715039E+02  0.25033292293E+02  0.32986863142E+02  0.00000000000E+00 0.  1.
         11    1    4    4    0    0 -0.84339113501E+01  0.11096032309E+03  0.43697626926E+02  0.11955252720E+03  0.00000000000E+00 0. -1.
         21    1    1    2  502  501 -0.31580850389E+02 -0.39329426009E+02 -0.34887517307E+02  0.61329378974E+02  0.00000000000E+00 0. -1.
<scales pt_clust_5="13000.00000" pt_clust_6="13000.00000" pt_clust_7="13000.00000" pt_clust_8="13000.00000" pt_clust_9="50.43961"></scales>
<clustering>
<clus scale="   50.440">  2  9  1 -1</clus>
<clus scale="   93.529">  5  6 -1 -1</clus>
<clus scale="   98.641">  7  8 -1 -1</clus>
<clus scale="  123.706">  2  5  1 -1</clus>
<clus scale="  127.616">  1  5  2 -1</clus>
</clustering>
</event>
<event>
 9    1  0.9000149E-006  0.1004372E+03  0.7546771E-02  0.1280375E+00
         -1   -1    0    0    0  501 -0.00000000000E+00  0.00000000000E+00  0.13231205694E+03  0.13231205694E+03  0.00000000000E+00 0.  1.
          1   -1    0    0  502    0  0.00000000000E+00 -0.00000000000E+00 -0.18090654942E+03  0.18090654942E+03  0.00000000000E+00 0. -1.
         23    2    1    2    0    0 -0.25957046022E+02  0.27296478103E+02  0.80096933416E+02  0.12809029219E+03  0.92589082813E+02 0.  0.
         23    2    1    2    0    0  0.50421396881E+02 -0.12263300960E+02 -0.99845131054E+02  0.14442684485E+03  0.90539259461E+02 0.  0.
        -13    1    3    3    0    0 -0.56595793746E+02  0.39437102906E+01  0.27915605221E+02  0.63229089314E+02  0.00000000000E+00 0. -1.
         13    1    3    3    0    0  0.30638747724E+02  0.23352767812E+02  0.52181328195E+02  0.64861202878E+02  0.00000000000E+00 0.  1.
        -13    1    4    4    0    0  0.23373499908E+02  0.35967143354E+02 -0.68617000170E+02  0.80921249443E+02  0.00000000000E+00 0.  1.
         13    1    4    4    0    0  0.27047896972E+02 -0.48230444314E+02 -0.31228130884E+02  0.63505595406E+02  0.00000000000E+00 0. -1.
         21    1    1    2  502  501 -0.24464350858E+02 -0.15033177143E+02 -0.28846294843E+02  0.40701469311E+02  0.00000000000E+00 0. -1.
<scales pt_clust_5="13000.00000" pt_clust_6="13000.00000" pt_clust_7="13000.00000" pt_clust_8="13000.00000" pt_clust_9="28.71412"></scales>
<clustering>
<clus scale="   28.714">  2  9  1 -1</clus>
<clus scale="   90.539">  7  8 -1 -1</clus>
<clus scale="   92.589">  5  6 -1 -1</clus>
<clus scale="   98.551">  2  7  1 -1</clus>
<clus scale="   28.714">  2  5  1 -1</clus>
</clustering>
</event>
<event>
 9    1  0.9000149E-006  0.9837679E+02  0.7546771E-02  0.1302152E+00
         -1   -1    0    0    0  501 -0.00000000000E+00  0.00000000000E+00  0.82533364800E+02  0.82533364800E+02  0.00000000000E+00 0.  1.
          1   -1    0    0  502    0  0.00000000000E+00 -0.00000000000E+00 -0.32012453887E+03  0.32012453887E+03  0.00000000000E+00 0. -1.
         23    2    1    2    0    0  0.30022317895E+02 -0.21514075614E+02  0.35701020299E+02  0.10447336868E+03  0.90972121509E+02 0.  0.
         23    2    1    2    0    0 -0.48916494380E+02 -0.54041874714E+01 -0.12830789084E+03  0.14951701647E+03  0.58910055999E+02 0.  0.
        -11    1    3    3    0    0  0.59281773298E+02 -0.12619636282E+02  0.44883956307E+01  0.60776060752E+02  0.00000000000E+00 0.  1.
         11    1    3    3    0    0 -0.29259455403E+02 -0.88944393326E+01  0.31212624669E+02  0.43697307929E+02  0.00000000000E+00 0. -1.
        -13    1    4    4    0    0 -0.20174227447E+02 -0.30849980114E+02 -0.77673324938E+02  0.85975962530E+02  0.00000000000E+00 0.  1.
         13    1    4    4    0    0 -0.28742266933E+02  0.25445792643E+02 -0.50634565898E+02  0.63541053936E+02  0.00000000000E+00 0. -1.
         21    1    1    2  502  501  0.18894176485E+02  0.26918263086E+02 -0.14498430353E+03  0.14866751852E+03  0.00000000000E+00 0. -1.
<scales pt_clust_5="13000.00000" pt_clust_6="13000.00000" pt_clust_7="13000.00000" pt_clust_8="13000.00000" pt_clust_9="32.88743"></scales>
<clustering>
<clus scale="   32.887">  2  9  1 -1</clus>
<clus scale="   58.910">  7  8 -1 -1</clus>
<clus scale="   69.803">  2  7  1 -1</clus>
<clus scale="   90.972">  5  6 -1 -1</clus>
<clus scale="   32.887">  2  5  1 -1</clus>
</clustering>
</event>
<event>
 9    1  0.9000149E-006  0.1501711E+03  0.7546771E-02  0.1201404E+00
         -2   -1    0    0    0  501 -0.00000000000E+00  0.00000000000E+00  0.14015484112E+03  0.14015484112E+03  0.00000000000E+00 0.  1.
          2   -1    0    0  502    0  0.00000000000E+00 -0.00000000000E+00 -0.35526261200E+03  0.35526261200E+03  0.00000000000E+00 0. -1.
         23    2    1    2    0    0  0.38575401459E+02 -0.10393327665E+03  0.46329905826E+02  0.14719246896E+03  0.85023380027E+02 0.  0.
         23    2    1    2    0    0 -0.48865860671E+02  0.14670267309E+03 -0.17231385304E+03  0.24883599702E+03  0.91201660252E+02 0.  0.
        -11    1    3    3    0    0  0.61369991128E+02 -0.47202807911E+02  0.16488040256E+02  0.79159562639E+02  0.00000000000E+00 0.  1.
         11    1    3    3    0    0 -0.22794589669E+02 -0.56730468736E+02  0.29841865570E+02  0.68032906316E+02  0.00000000000E+00 0. -1.
        -13    1    4    4    0    0  0.55750069483E+00  0.35880008089E+02  0.25715186899E+01  0.35976360237E+02  0.00000000000E+00 0.  1.
         13    1    4    4    0    0 -0.49423361366E+02  0.11082266500E+03 -0.17488537173E+03  0.21285963678E+03  0.00000000000E+00 0. -1.
         21    1    1    2  502  501  0.10290459212E+02 -0.42769396442E+02 -0.89123823667E+02  0.99388987155E+02  0.00000000000E+00 0.  1.
<scales pt_clust_5="13000.00000" pt_clust_6="13000.00000" pt_clust_7="13000.00000" pt_clust_8="13000.00000" pt_clust_9="43.98994"></scales>
<clustering>
<clus scale="   43.990">  2  9  1 -1</clus>
<clus scale="   85.023">  5  6 -1 -1</clus>
<clus scale="   91.202">  7  8 -1 -1</clus>
<clus scale="  146.501">  1  5  2 -1</clus>
<clus scale="   43.990">  2  5  1 -1</clus>
</clustering>
</event>
<event>
 9    1  0.9000149E-006  0.1017653E+03  0.7546771E-02  0.1280971E+00
          2   -1    0    0  502    0  0.00000000000E+00  0.00000000000E+00  0.14378976688E+03  0.14378976688E+03  0.00000000000E+00 0. -1.
         -2   -1    0    0    0  501 -0.00000000000E+00 -0.00000000000E+00 -0.13394878508E+03  0.13394878508E+03  0.00000000000E+00 0.  1.
         23    2    1    2    0    0 -0.14131720217E+01  0.26932332829E+02 -0.51828470016E+02  0.11500272487E+03  0.99055988296E+02 0.  0.
         23    2    1    2    0    0 -0.30478003630E+02 -0.10593624178E+02  0.59340721111E+01  0.96475484231E+02  0.90725808166E+02 0.  0.
        -11    1    3    3    0    0  0.72074648795E+01 -0.21092275422E+02  0.18800056580E+02  0.29159454039E+02  0.00000000000E+00 0. -1.
         11    1    3    3    0    0 -0.86206369012E+01  0.48024608252E+02 -0.70628526596E+02  0.85843270834E+02  0.00000000000E+00 0.  1.
        -13    1    4    4    0    0  0.20564111018E+02  0.87235014588E+01 -0.25174977125E+02  0.33656524076E+02  0.00000000000E+00 0.  1.
         13    1    4    4    0    0 -0.51042114648E+02 -0.19317125637E+02  0.31109049236E+02  0.62818960155E+02  0.00000000000E+00 0. -1.
         21    1    1    2  502  501  0.31891175651E+02 -0.16338708652E+02  0.55735379705E+02  0.66260342858E+02  0.00000000000E+00 0. -1.
<scales pt_clust_5="13000.00000" pt_clust_6="13000.00000" pt_clust_7="13000.00000" pt_clust_8="13000.00000" pt_clust_9="35.83295"></scales>
<clustering>
<clus scale="   35.833">  1  9  2 -1</clus>
<clus scale="   90.726">  7  8 -1 -1</clus>
<clus scale="   93.676">  1  7  2 -1</clus>
<clus scale="   99.056">  5  6 -1 -1</clus>
<clus scale="   35.833">  1  5  2 -1</clus>
</clustering>
</event>
<event>
 9    1  0.9000149E-006  0.1094995E+03  0.7546771E-02  0.1261702E+00
         -2   -1    0    0    0  501 -0.00000000000E+00  0.00000000000E+00  0.19322672343E+03  0.19322672343E+03  0.00000000000E+00 0.  1.
          2   -1    0    0  502    0  0.00000000000E+00 -0.00000000000E+00 -0.99713929201E+02  0.99713929201E+02  0.00000000000E+00 0. -1.
         23    2    1    2    0    0 -0.35872709824E+02 -0.43045195197E+02  0.96604693956E+02  0.14422742658E+03  0.91265237329E+02 0.  0.
         23    2    1    2    0    0  0.58216221706E+02  0.23982866097E+02 -0.22441292242E+02  0.11354215975E+03  0.91781828847E+02 0.  0.
        -11    1    4    4    0    0  0.81180839384E+02  0.52322229440E+01 -0.12694371562E+02  0.82333783524E+02  0.00000000000E+00 0.  1.
         11    1    4    4    0    0 -0.22964617677E+02  0.18750643153E+02 -0.97469206801E+01  0.31208376223E+02  0.00000000000E+00 0. -1.
        -13    1    3    3    0    0  0.20824373581E+02 -0.30528749847E+01  0.64367918061E+02  0.67721513983E+02  0.00000000000E+00 0.  1.
         13    1    3    3    0    0 -0.56697083405E+02 -0.39992320212E+02  0.32236775895E+02  0.76505912600E+02  0.00000000000E+00 0. -1.
         21    1    1    2  502  501 -0.22343511882E+02  0.19062329099E+02  0.19349392510E+02  0.35171066297E+02  0.00000000000E+00 0.  1.
<scales pt_clust_5="13000.00000" pt_clust_6="13000.00000" pt_clust_7="13000.00000" pt_clust_8="13000.00000" pt_clust_9="29.37014"></scales>
<clustering>
<clus scale="   29.370">  1  9  2 -1</clus>
<clus scale="   91.265">  7  8 -1 -1</clus>
<clus scale="   91.782">  5  6 -1 -1</clus>
<clus scale="  109.067">  1  7  2 -1</clus>
<clus scale="  109.499">  2  5  1 -1</clus>
</clustering>
</event>
<event>
 9    1  0.9000149E-006  0.1071846E+03  0.7546771E-02  0.1266788E+00
         -2   -1    0    0    0  501 -0.00000000000E+00  0.00000000000E+00  0.26949615922E+03  0.26949615922E+03  0.00000000000E+00 0.  1.
          2   -1    0    0  502    0  0.00000000000E+00 -0.00000000000E+00 -0.83278592070E+02  0.83278592070E+02  0.00000000000E+00 0. -1.
         23    2    1    2    0    0  0.19091682707E+02  0.15855941517E+02  0.92855633914E+02  0.13318539026E+03  0.92196942460E+02 0.  0.
         23    2    1    2    0    0 -0.69035435585E+02  0.22354210466E+02  0.16315944274E+02  0.12013847576E+03  0.94347449505E+02 0.  0.
        -11    1    3    3    0    0  0.53945662434E+02  0.24756438501E+02  0.61412209295E+02  0.85407699847E+02  0.00000000000E+00 0.  1.
         11    1    3    3    0    0 -0.34853979727E+02 -0.89004969836E+01  0.31443424619E+02  0.47777690412E+02  0.00000000000E+00 0. -1.
        -11    1    4    4    0    0 -0.79207119887E+02 -0.14172753033E+02  0.16884091234E+02  0.82217439184E+02  0.00000000000E+00 0.  1.
         11    1    4    4    0    0  0.10171684301E+02  0.36526963498E+02 -0.56814695986E+00  0.37921036575E+02  0.00000000000E+00 0. -1.
         21    1    1    2  502  501  0.49943752878E+02 -0.38210151983E+02  0.77045988962E+02  0.99450885271E+02  0.00000000000E+00 0.  1.
<scales pt_clust_5="13000.00000" pt_clust_6="13000.00000" pt_clust_7="13000.00000" pt_clust_8="13000.00000" pt_clust_9="62.88397"></scales>
<clustering>
<clus scale="   62.884">  1  9  2 -1</clus>
<clus scale="   92.197">  5  6 -1 -1</clus>
<clus scale="   94.347">  7  8 -1 -1</clus>
<clus scale="  105.297">  1  5  2 -1</clus>
<clus scale="  107.185">  2  5  1 -1</clus>
</clustering>
</event>
<event>
 9    1  0.9000149E-006  0.1144336E+03  0.7546771E-02  0.1253112E+00
         -1   -1    0    0    0  501 -0.00000000000E+00  0.00000000000E+00  0.10617103015E+03  0.10617103015E+03  0.00000000000E+00 0.  1.
          1   -1    0    0  502    0  0.00000000000E+00 -0.00000000000E+00 -0.29273199840E+03  0.29273199840E+03  0.00000000000E+00 0. -1.
         23    2    1    2    0    0  0.78366657527E+02  0.10043900518E+02  0.38123513259E+02  0.12728325613E+03  0.92224791017E+02 0.  0.
         23    2    1    2    0    0 -0.35591415618E+02 -0.12556695827E+02 -0.10178842221E+03  0.14146802694E+03  0.90707774051E+02 0.  0.
        -13    1    4    4    0    0 -0.48030292017E+02 -0.35862848816E+02 -0.97860959869E+02  0.11475983767E+03  0.00000000000E+00 0. -1.
         13    1    4    4    0    0  0.12438876399E+02  0.23306152989E+02 -0.39274623403E+01  0.26708189262E+02  0.00000000000E+00 0.  1.
        -13    1    3    3    0    0 -0.80757645693E+00  0.37574306893E+02  0.10439972435E+02  0.39006073151E+02  0.00000000000E+00 0. -1.
         13    1    3    3    0    0  0.79174233984E+02 -0.27530406374E+02  0.27683540824E+02  0.88277182979E+02  0.00000000000E+00 0.  1.
         21    1    1    2  502  501 -0.42775241909E+02  0.25127953090E+01 -0.12289605931E+03  0.13015174549E+03  0.00000000000E+00 0. -1.
<scales pt_clust_5="13000.00000" pt_clust_6="13000.00000" pt_clust_7="13000.00000" pt_clust_8="13000.00000" pt_clust_9="42.84898"></scales>
<clustering>
<clus scale="   42.849">  2  9  1 -1</clus>
<clus scale="   90.708">  5  6 -1 -1</clus>
<clus scale="   92.225">  7  8 -1 -1</clus>
<clus scale="  113.215">  2  5  1 -1</clus>
<clus scale="   42.849">  2  5  1 -1</clus>
</clustering>
</event>
<event>
 9    1  0.9000149E-006  0.9926436E+02  0.7546771E-02  0.1281917E+00
          1   -1    0    0  502    0  0.00000000000E+00  0.00000000000E+00  0.18013442057E+03  0.18013442057E+03  0.00000000000E+00 0. -1.
         -1   -1    0    0    0  501 -0.00000000000E+00 -0.00000000000E+00 -0.18381246412E+03  0.18381246412E+03  0.00000000000E+00 0.  1.
         23    2    1    2    0    0 -0.26485165689E+02  0.31732320146E+02 -0.14147330843E+03  0.17367114773E+03  0.91861669971E+02 0.  0.
         23    2    1    2    0    0  0.22596287529E+02  0.20587897594E+01  0.82928082564E+02  0.12572056538E+03  0.91726565712E+02 0.  0.
        -11    1    4    4    0    0  0.20170006252E+02  0.42093787486E+02  0.68915132321E+02  0.83234677629E+02  0.00000000000E+00 0.  1.
         11    1    4    4    0    0  0.24262812773E+01 -0.40034997727E+02  0.14012950243E+02  0.42485887755E+02  0.00000000000E+00 0. -1.
        -13    1    3    3    0    0 -0.43731914522E+02  0.75343434015E+01 -0.20105042667E+02  0.48718163131E+02  0.00000000000E+00 0. -1.
         13    1    3    3    0    0  0.17246748833E+02  0.24197976745E+02 -0.12136826577E+03  0.12495298459E+03  0.00000000000E+00 0.  1.
         21    1    1    2  502  501  0.38888781595E+01 -0.33791109906E+02  0.54867182319E+02  0.64555171579E+02  0.00000000000E+00 0. -1.
<scales pt_clust_5="13000.00000" pt_clust_6="13000.00000" pt_clust_7="13000.00000" pt_clust_8="13000.00000" pt_clust_9="34.01415"></scales>
<clustering>
<clus scale="   34.014">  1  9  2 -1</clus>
<clus scale="   91.727">  5  6 -1 -1</clus>
<clus scale="   91.862">  7  8 -1 -1</clus>
<clus scale="   99.139">  1  5  2 -1</clus>
<clus scale="   34.014">  1  5  2 -1</clus>
</clustering>
</event>
<event>
 9    1  0.9000149E-006  0.1063012E+03  0.7546771E-02  0.1268752E+00
          2   -1    0    0  502    0  0.00000000000E+00  0.00000000000E+00  0.17937412295E+03  0.17937412295E+03  0.00000000000E+00 0. -1.
         -2   -1    0    0    0  501 -0.00000000000E+00 -0.00000000000E+00 -0.39632256998E+03  0.39632256998E+03  0.00000000000E+00 0.  1.
         23    2    1    2    0    0 -0.14453129769E+02 -0.45475866739E+02 -0.35665610242E+03  0.37215448522E+03  0.94965457207E+02 0.  0.
         23    2    1    2    0    0 -0.20208776827E+02  0.56397381412E+02  0.91027303057E+02  0.14279268956E+03  0.92275256702E+02 0.  0.
        -13    1    4    4    0    0 -0.47351237671E+02  0.32702378806E+02  0.16264179188E+02  0.59800575359E+02  0.00000000000E+00 0.  1.
         13    1    4    4    0    0  0.27142460844E+02  0.23695002606E+02  0.74763123869E+02  0.82992114203E+02  0.00000000000E+00 0. -1.
        -13    1    3    3    0    0 -0.31800632723E+02  0.44997456474E+01 -0.40928160303E+02  0.52025400126E+02  0.00000000000E+00 0. -1.
         13    1    3    3    0    0  0.17347502954E+02 -0.49975612386E+02 -0.31572794211E+03  0.32012908509E+03  0.00000000000E+00 0.  1.
         21    1    1    2  502  501  0.34661906596E+02 -0.10921514673E+02  0.48680352328E+02  0.60749518141E+02  0.00000000000E+00 0.  1.
<scales pt_clust_5="13000.00000" pt_clust_6="13000.00000" pt_clust_7="13000.00000" pt_clust_8="13000.00000" pt_clust_9="36.34181"></scales>
<clustering>
<clus scale="   36.342">  1  9  2 -1</clus>
<clus scale="   92.275">  5  6 -1 -1</clus>
<clus scale="   94.965">  7  8 -1 -1</clus>
<clus scale="  103.905">  1  5  2 -1</clus>
<clus scale="   36.342">  1  5  2 -1</clus>
</clustering>
</event>
<event>
 9    1  0.9000149E-006  0.9496578E+02  0.7546771E-02  0.1291558E+00
          1   -1    0    0  502    0  0.00000000000E+00  0.00000000000E+00  0.18553956521E+02  0.18553956521E+02  0.00000000000E+00 0. -1.
         -1   -1    0    0    0  501 -0.00000000000E+00 -0.00000000000E+00 -0.69021928154E+03  0.69021928154E+03  0.00000000000E+00 0.  1.
         23    2    1    2    0    0 -0.22424968438E+01  0.32098126190E+02 -0.42619978161E+03  0.43714245676E+03  0.91716711443E+02 0.  0.
         23    2    1    2    0    0  0.89153643774E+01 -0.88960047724E+01 -0.18862758251E+03  0.20987789151E+03  0.91157785383E+02 0.  0.
        -11    1    4    4    0    0 -0.59673318529E+01  0.35281823996E+02 -0.37975539633E+02  0.52178134926E+02  0.00000000000E+00 0. -1.
         11    1    4    4    0    0  0.14882696230E+02 -0.44177828769E+02 -0.15065204288E+03  0.15769975658E+03  0.00000000000E+00 0.  1.
        -13    1    3    3    0    0 -0.44649532573E+02  0.11077175899E+02 -0.14930300585E+03  0.15622954952E+03  0.00000000000E+00 0.  1.
         13    1    3    3    0    0  0.42407035729E+02  0.21020950291E+02 -0.27689677576E+03  0.28091290724E+03  0.00000000000E+00 0. -1.
         21    1    1    2  502  501 -0.66728675337E+01 -0.23202121417E+02 -0.56837960890E+02  0.61752889791E+02  0.00000000000E+00 0. -1.
<scales pt_clust_5="13000.00000" pt_clust_6="13000.00000" pt_clust_7="13000.00000" pt_clust_8="13000.00000" pt_clust_9="24.14261"></scales>
<clustering>
<clus scale="   24.143">  1  9  2 -1</clus>
<clus scale="   91.158">  5  6 -1 -1</clus>
<clus scale="   91.717">  7  8 -1 -1</clus>
<clus scale="   94.426">  1  5  2 -1</clus>
<clus scale="   24.143">  1  5  2 -1</clus>
</clustering>
</event>
<event>
 9    1  0.9000149E-006  0.1256666E+03  0.7546771E-02  0.1234407E+00
         -1   -1    0    0    0  501 -0.00000000000E+00  0.00000000000E+00  0.65743287061E+02  0.65743287061E+02  0.00000000000E+00 0.  1.
          1   -1    0    0  502    0  0.00000000000E+00 -0.00000000000E+00 -0.38296227433E+03  0.38296227433E+03  0.00000000000E+00 0. -1.
         23    2    1    2    0    0 -0.80026114725E+02 -0.45542511547E+02 -0.76900824237E+02  0.15019125533E+03  0.90362475694E+02 0.  0.
         23    2    1    2    0    0  0.80745502223E+02  0.11914330384E+02 -0.11306556564E+03  0.16689137633E+03  0.91690359159E+02 0.  0.
        -11    1    4    4    0    0  0.51710808258E+02 -0.38238019890E+02 -0.51997942958E+02  0.82703929336E+02  0.00000000000E+00 0.  1.
         11    1    4    4    0    0  0.29034693965E+02  0.50152350274E+02 -0.61067622678E+02  0.84187446993E+02  0.00000000000E+00 0. -1.
        -13    1    3    3    0    0  0.58623983074E+01 -0.42106136423E+02 -0.19088370254E+02  0.46601076354E+02  0.00000000000E+00 0. -1.
         13    1    3    3    0    0 -0.85888513033E+02 -0.34363751236E+01 -0.57812453983E+02  0.10359017898E+03  0.00000000000E+00 0.  1.
         21    1    1    2  502  501 -0.71938749759E+00  0.33628181162E+02 -0.12725259739E+03  0.13162292973E+03  0.00000000000E+00 0. -1.
<scales pt_clust_5="13000.00000" pt_clust_6="13000.00000" pt_clust_7="13000.00000" pt_clust_8="13000.00000" pt_clust_9="33.63587"></scales>
<clustering>
<clus scale="   33.636">  2  9  1 -1</clus>
<clus scale="   90.362">  7  8 -1 -1</clus>
<clus scale="   91.690">  5  6 -1 -1</clus>
<clus scale="  124.701">  1  7  2 -1</clus>
<clus scale="   33.636">  2  5  1 -1</clus>
</clustering>
</event>
<event>
 9    1  0.9000149E-006  0.1240754E+03  0.7546771E-02  0.1238325E+00
         -1   -1    0    0    0  501 -0.00000000000E+00  0.00000000000E+00  0.39592180197E+03  0.39592180197E+03  0.00000000000E+00 0.  1.
          1   -1    0    0  502    0  0.00000000000E+00 -0.00000000000E+00 -0.31240511686E+03  0.31240511686E+03  0.00000000000E+00 0. -1.
         23    2    1    2    0    0  0.16905470976E+02 -0.13389058612E+03  0.27880172182E+03  0.32504348179E+03  0.98541265304E+02 0.  0.
         23    2    1    2    0    0 -0.68600215787E+02  0.31325674582E+02 -0.23340573877E+03  0.26226651405E+03  0.92834250183E+02 0.  0.
        -13    1    3    3    0    0 -0.16710716860E+02 -0.13042387543E+03  0.23940556908E+03  0.27313853966E+03  0.00000000000E+00 0.  1.
         13    1    3    3    0    0  0.33616187836E+02 -0.34667106915E+01  0.39396152737E+02  0.51904942136E+02  0.00000000000E+00 0. -1.
        -13    1    4    4    0    0 -0.32263832274E+02 -0.73558758311E+01 -0.19232999848E+03  0.19515607113E+03  0.00000000000E+00 0.  1.
         13    1    4    4    0    0 -0.36336383513E+02  0.38681550413E+02 -0.41075740295E+02  0.67110442928E+02  0.00000000000E+00 0. -1.
         21    1    1    2  502  501  0.51694744811E+02  0.10256491154E+03  0.38120702074E+02  0.12101692298E+03  0.00000000000E+00 0. -1.
<scales pt_clust_5="13000.00000" pt_clust_6="13000.00000" pt_clust_7="13000.00000" pt_clust_8="13000.00000" pt_clust_9="114.85603"></scales>
<clustering>
<clus scale="   92.834">  7  8 -1 -1</clus>
<clus scale="   98.541">  5  6 -1 -1</clus>
<clus scale="  114.856">  1  9  2 -1</clus>
<clus scale="  119.593">  2  7  1 -1</clus>
<clus scale="  119.593">  2  5  1 -1</clus>
</clustering>
</event>
<event>
 9    1  0.9000149E-006  0.1180475E+03  0.7546771E-02  0.1247467E+00
         -3   -1    0    0    0  501 -0.00000000000E+00  0.00000000000E+00  0.31100933991E+03  0.31100933991E+03  0.00000000000E+00 0.  1.
          3   -1    0    0  502    0  0.00000000000E+00 -0.00000000000E+00 -0.24465349518E+03  0.24465349518E+03  0.00000000000E+00 0. -1.
         23    2    1    2    0    0 -0.58609570717E+02  0.98399775588E+01  0.12831084590E+02  0.10626507492E+03  0.87153442148E+02 0.  0.
         23    2    1    2    0    0  0.11619240535E+02 -0.95658615310E+02 -0.16411814022E+03  0.21077386826E+03  0.90583012532E+02 0.  0.
        -11    1    4    4    0    0  0.30700299636E+02 -0.62078469120E+02 -0.15686959807E+03  0.17147686586E+03  0.00000000000E+00 0. -1.
         11    1    4    4    0    0 -0.19081059101E+02 -0.33580146189E+02 -0.72485421481E+01  0.39297002402E+02  0.00000000000E+00 0.  1.
        -13    1    3    3    0    0 -0.79867870992E+02  0.19093098099E+02  0.12598100838E+02  0.83079090971E+02  0.00000000000E+00 0.  1.
         13    1    3    3    0    0  0.21258300275E+02 -0.92531205404E+01  0.23298375125E+00  0.23185983950E+02  0.00000000000E+00 0. -1.
         21    1    1    2  502  501  0.46990330182E+02  0.85818637751E+02  0.21764290035E+03  0.23862389191E+03  0.00000000000E+00 0.  1.
<scales pt_clust_5="13000.00000" pt_clust_6="13000.00000" pt_clust_7="13000.00000" pt_clust_8="13000.00000" pt_clust_9="97.84135"></scales>
<clustering>
<clus scale="   87.153">  7  8 -1 -1</clus>
<clus scale="   90.583">  5  6 -1 -1</clus>
<clus scale="   97.841">  1  9  2 -1</clus>
<clus scale="  115.437">  1  7  2 -1</clus>
<clus scale="  118.047">  2  5  1 -1</clus>
</clustering>
</event>
<event>
 9    1  0.9000149E-006  0.1400018E+03  0.7546771E-02  0.1218417E+00
         -2   -1    0    0    0  501 -0.00000000000E+00  0.00000000000E+00  0.14863223068E+03  0.14863223068E+03  0.00000000000E+00 0.  1.
          2   -1    0    0  502    0  0.00000000000E+00 -0.00000000000E+00 -0.24665996375E+03  0.24665996375E+03  0.00000000000E+00 0. -1.
         23    2    1    2    0    0  0.42980972439E+02 -0.68661992915E+02  0.62082766103E+02  0.13722634103E+03  0.91733121409E+02 0.  0.
         23    2    1    2    0    0 -0.67979397521E+02  0.77316943573E+02 -0.74389045253E+02  0.16835522364E+03  0.11050177837E+03 0.  0.
        -11    1    3    3    0    0 -0.27576524730E+02 -0.32160262634E+02  0.15349491613E+02  0.45059450747E+02  0.00000000000E+00 0. -1.
         11    1    3    3    0    0  0.70557497169E+02 -0.36501730282E+02  0.46733274490E+02  0.92166890286E+02  0.00000000000E+00 0.  1.
        -13    1    4    4    0    0  0.27770198545E+02  0.20674193638E+02 -0.37764511316E+02  0.51232455775E+02  0.00000000000E+00 0.  1.
         13    1    4    4    0    0 -0.95749596065E+02  0.56642749936E+02 -0.36624533937E+02  0.11712276787E+03  0.00000000000E+00 0. -1.
         21    1    1    2  502  501  0.24998425082E+02 -0.86549506578E+01 -0.85721453925E+02  0.89710629752E+02  0.00000000000E+00 0.  1.
<scales pt_clust_5="13000.00000" pt_clust_6="13000.00000" pt_clust_7="13000.00000" pt_clust_8="13000.00000" pt_clust_9="26.45429"></scales>
<clustering>
<clus scale="   26.454">  2  9  1 -1</clus>
<clus scale="   91.733">  5  6 -1 -1</clus>
<clus scale="  110.502">  7  8 -1 -1</clus>
<clus scale="  125.717">  1  5  2 -1</clus>
<clus scale="   26.454">  2  5  1 -1</clus>
</clustering>
</event>
<event>
 9    1  0.9000149E-006  0.1265987E+03  0.7546771E-02  0.1249259E+00
          2   -1    0    0  502    0  0.00000000000E+00  0.00000000000E+00  0.37031636857E+03  0.37031636857E+03  0.00000000000E+00 0. -1.
         -2   -1    0    0    0  501 -0.00000000000E+00 -0.00000000000E+00 -0.12001413101E+03  0.12001413101E+03  0.00000000000E+00 0.  1.
         23    2    1    2    0    0 -0.25262334494E+02  0.82304162828E+02  0.46149217148E+01  0.12412358306E+03  0.89292808251E+02 0.  0.
         23    2    1    2    0    0 -0.11211814134E+02  0.24177404111E+01  0.25781973352E+03  0.27317272944E+03  0.89558778875E+02 0.  0.
        -11    1    4    4    0    0  0.25665355079E+02 -0.25486735287E+02  0.60339863811E+02  0.70350432064E+02  0.00000000000E+00 0.  1.
         11    1    4    4    0    0 -0.36877169214E+02  0.27904475698E+02  0.19747986971E+03  0.20282229738E+03  0.00000000000E+00 0. -1.
        -13    1    3    3    0    0  0.28341658601E+02  0.18895145683E+02  0.20258849262E+02  0.39632021347E+02  0.00000000000E+00 0.  1.
         13    1    3    3    0    0 -0.53603993095E+02  0.63409017145E+02 -0.15643927547E+02  0.84491561710E+02  0.00000000000E+00 0. -1.
         21    1    1    2  502  501  0.36474148629E+02 -0.84721903239E+02 -0.12132417675E+02  0.93034187078E+02  0.00000000000E+00 0.  1.
<scales pt_clust_5="13000.00000" pt_clust_6="13000.00000" pt_clust_7="13000.00000" pt_clust_8="13000.00000" pt_clust_9="89.74427"></scales>
<clustering>
<clus scale="   89.293">  7  8 -1 -1</clus>
<clus scale="   89.559">  5  6 -1 -1</clus>
<clus scale="   90.290">  1  5  2 -1</clus>
<clus scale="   89.744">  2  9  1 -1</clus>
<clus scale="   90.290">  1  5  2 -1</clus>
</clustering>
</event>
<event>
 9    1  0.9000149E-006  0.1285833E+03  0.7546771E-02  0.1230225E+00
         -2   -1    0    0    0  501 -0.00000000000E+00  0.00000000000E+00  0.33812407789E+03  0.33812407789E+03  0.00000000000E+00 0.  1.
          2   -1    0    0  502    0  0.00000000000E+00 -0.00000000000E+00 -0.11070205846E+03  0.11070205846E+03  0.00000000000E+00 0. -1.
         23    2    1    2    0    0  0.10191653683E+03 -0.11384989845E+02  0.21296823943E+03  0.25297805174E+03  0.90143359056E+02 0.  0.
         23    2    1    2    0    0 -0.54780383478E+02  0.47949944665E+02  0.48285108135E+02  0.12726695281E+03  0.92549111307E+02 0.  0.
        -11    1    4    4    0    0  0.68799461076E+01  0.43884600331E+02  0.48098362594E+02  0.65472469702E+02  0.00000000000E+00 0.  1.
         11    1    4    4    0    0 -0.61660329586E+02  0.40653443339E+01  0.18674554047E+00  0.61794483112E+02  0.00000000000E+00 0. -1.
        -13    1    3    3    0    0 -0.31762938354E+01 -0.25355438084E+02  0.73324407727E+02  0.77649570839E+02  0.00000000000E+00 0. -1.
         13    1    3    3    0    0  0.10509283067E+03  0.13970448239E+02  0.13964383171E+03  0.17532848090E+03  0.00000000000E+00 0.  1.
         21    1    1    2  502  501 -0.47136153356E+02 -0.36564954821E+02 -0.33831328144E+02  0.68581131795E+02  0.00000000000E+00 0. -1.
<scales pt_clust_5="13000.00000" pt_clust_6="13000.00000" pt_clust_7="13000.00000" pt_clust_8="13000.00000" pt_clust_9="59.65579"></scales>
<clustering>
<clus scale="   59.656">  2  9  1 -1</clus>
<clus scale="   90.143">  7  8 -1 -1</clus>
<clus scale="   92.549">  5  6 -1 -1</clus>
<clus scale="  126.863">  1  7  2 -1</clus>
<clus scale="   59.656">  2  5  1 -1</clus>
</clustering>
</event>
<event>
 9    1  0.9000149E-006  0.1590665E+03  0.7546771E-02  0.1191678E+00
          1   -1    0    0  502    0  0.00000000000E+00  0.00000000000E+00  0.21344685286E+03  0.21344685286E+03  0.00000000000E+00 0. -1.
         -1   -1    0    0    0  501 -0.00000000000E+00 -0.00000000000E+00 -0.26911588583E+03  0.26911588583E+03  0.00000000000E+00 0.  1.
         23    2    1    2    0    0 -0.78047715903E+02 -0.10409297116E+03 -0.11450937390E+03  0.19072873866E+03  0.79613205176E+02 0.  0.
         23    2    1    2    0    0  0.15258917662E+03  0.34048092696E+02  0.19585005548E+02  0.18227262124E+03  0.91635181971E+02 0.  0.
        -13    1    3    3    0    0 -0.20786676699E+02  0.10794115887E+02 -0.24864245105E+02  0.34158886846E+02  0.00000000000E+00 0. -1.
         13    1    3    3    0    0 -0.57261039204E+02 -0.11488708705E+03 -0.89645128792E+02  0.15656985182E+03  0.00000000000E+00 0.  1.
        -13    1    4    4    0    0  0.11099288073E+03 -0.20229228826E+02  0.13242307420E+02  0.11359577447E+03  0.00000000000E+00 0.  1.
         13    1    4    4    0    0  0.41596295891E+02  0.54277321521E+02  0.63426981282E+01  0.68676846775E+02  0.00000000000E+00 0. -1.
         21    1    1    2  502  501 -0.74541460716E+02  0.70044878466E+02  0.39255335375E+02  0.10956137878E+03  0.00000000000E+00 0. -1.
<scales pt_clust_5="13000.00000" pt_clust_6="13000.00000" pt_clust_7="13000.00000" pt_clust_8="13000.00000" pt_clust_9="102.28741"></scales>
<clustering>
<clus scale="   79.613">  5  6 -1 -1</clus>
<clus scale="   91.635">  7  8 -1 -1</clus>
<clus scale="  102.287">  1  9  2 -1</clus>
<clus scale="  152.458">  2  5  1 -1</clus>
<clus scale="  102.287">  1  5  2 -1</clus>
</clustering>
</event>
<event>
 9    1  0.9000149E-006  0.1052097E+03  0.7546771E-02  0.1270560E+00
          1   -1    0    0  502    0  0.00000000000E+00  0.00000000000E+00  0.51748826346E+02  0.51748826346E+02  0.00000000000E+00 0. -1.
         -1   -1    0    0    0  501 -0.00000000000E+00 -0.00000000000E+00 -0.56563808688E+03  0.56563808688E+03  0.00000000000E+00 0.  1.
         23    2    1    2    0    0  0.37150735322E+02 -0.27371952201E+02 -0.41332288971E+03  0.42603104786E+03  0.92397195194E+02 0.  0.
         23    2    1    2    0    0 -0.73334666158E+02  0.12203939141E+02 -0.96866550783E+02  0.15194731123E+03  0.90432003949E+02 0.  0.
        -13    1    4    4    0    0 -0.19503645970E+02 -0.36438323090E+02 -0.18902027747E+02  0.45447004837E+02  0.00000000000E+00 0.  1.
         13    1    4    4    0    0 -0.53831020188E+02  0.48642262231E+02 -0.77964523036E+02  0.10650030639E+03  0.00000000000E+00 0. -1.
        -13    1    3    3    0    0 -0.21948862401E+02  0.35637115262E+01 -0.32306723999E+02  0.39219599897E+02  0.00000000000E+00 0. -1.
         13    1    3    3    0    0  0.59099597724E+02 -0.30935663728E+02 -0.38101616571E+03  0.38681144796E+03  0.00000000000E+00 0.  1.
         21    1    1    2  502  501  0.36183930836E+02  0.15168013060E+02 -0.36998200424E+01  0.39408554138E+02  0.00000000000E+00 0.  1.
<scales pt_clust_5="13000.00000" pt_clust_6="13000.00000" pt_clust_7="13000.00000" pt_clust_8="13000.00000" pt_clust_9="39.23449"></scales>
<clustering>
<clus scale="   39.234">  1  9  2 -1</clus>
<clus scale="   90.432">  5  6 -1 -1</clus>
<clus scale="   92.397">  7  8 -1 -1</clus>
<clus scale="  103.488">  1  5  2 -1</clus>
<clus scale="   39.234">  1  5  2 -1</clus>
</clustering>
</event>
<event>
 9    1  0.9000149E-006  0.1155779E+03  0.7546771E-02  0.1250743E+00
         -1   -1    0    0    0  501 -0.00000000000E+00  0.00000000000E+00  0.24281352044E+02  0.24281352044E+02  0.00000000000E+00 0.  1.
          1   -1    0    0  502    0  0.00000000000E+00 -0.00000000000E+00 -0.81465813370E+03  0.81465813370E+03  0.00000000000E+00 0. -1.
         23    2    1    2    0    0 -0.85832672972E+02  0.12206934606E+02 -0.23853381186E+03  0.27002202492E+03  0.92180570284E+02 0.  0.
         23    2    1    2    0    0  0.62884801431E+02 -0.46623961620E+01 -0.49101820938E+03  0.50347148044E+03  0.91697401755E+02 0.  0.
        -11    1    4    4    0    0  0.57265572900E+01 -0.39593896554E+02 -0.12110016077E+03  0.12753712809E+03  0.00000000000E+00 0.  1.
         11    1    4    4    0    0  0.57158244141E+02  0.34931500392E+02 -0.36991804861E+03  0.37593435236E+03  0.00000000000E+00 0. -1.
        -11    1    3    3    0    0  0.16963162054E+02  0.16415009632E+02 -0.41412051127E+02  0.47667173051E+02  0.00000000000E+00 0. -1.
         11    1    3    3    0    0 -0.10279583503E+03 -0.42080750258E+01 -0.19712176074E+03  0.22235485187E+03  0.00000000000E+00 0.  1.
         21    1    1    2  502  501  0.22947871541E+02 -0.75445384444E+01 -0.60824760420E+02  0.65445980387E+02  0.00000000000E+00 0. -1.
<scales pt_clust_5="13000.00000" pt_clust_6="13000.00000" pt_clust_7="13000.00000" pt_clust_8="13000.00000" pt_clust_9="24.15626"></scales>
<clustering>
<clus scale="   24.156">  1  9  2 -1</clus>
<clus scale="   91.697">  5  6 -1 -1</clus>
<clus scale="   92.181">  7  8 -1 -1</clus>
<clus scale="  115.193">  2  5  1 -1</clus>
<clus scale="  115.193">  2  5  1 -1</clus>
</clustering>
</event>
<event>
 9    1  0.9000149E-006  0.9723007E+02  0.7546771E-02  0.1288587E+00
          1   -1    0    0  502    0  0.00000000000E+00  0.00000000000E+00  0.80189951149E+02  0.80189951149E+02  0.00000000000E+00 0. -1.
         -1   -1    0    0    0  501 -0.00000000000E+00 -0.00000000000E+00 -0.32689672174E+03  0.32689672174E+03  0.00000000000E+00 0.  1.
         23    2    1    2    0    0  0.53551277806E+02  0.23825159712E+02 -0.57719649054E+02  0.12326557722E+03  0.91801236653E+02 0.  0.
         23    2    1    2    0    0 -0.91824866334E+01  0.44707476915E+02 -0.26591449178E+02  0.10205843087E+03  0.87325492207E+02 0.  0.
        -11    1    4    4    0    0  0.12695443365E+02  0.17879304003E+02 -0.53755019683E+02  0.58055541811E+02  0.00000000000E+00 0.  1.
         11    1    4    4    0    0 -0.21877929999E+02  0.26828172911E+02  0.27163570505E+02  0.44002889057E+02  0.00000000000E+00 0. -1.
        -11    1    3    3    0    0  0.75253678130E+02  0.15304479219E+02 -0.63035630004E+02  0.99352069965E+02  0.00000000000E+00 0.  1.
         11    1    3    3    0    0 -0.21702400324E+02  0.85206804924E+01  0.53159809499E+01  0.23913507257E+02  0.00000000000E+00 0. -1.
         21    1    1    2  502  501 -0.44368791173E+02 -0.68532636626E+02 -0.16239567236E+03  0.18176266479E+03  0.00000000000E+00 0.  1.
<scales pt_clust_5="13000.00000" pt_clust_6="13000.00000" pt_clust_7="13000.00000" pt_clust_8="13000.00000" pt_clust_9="81.64136"></scales>
<clustering>
<clus scale="   81.641">  2  9  1 -1</clus>
<clus scale="   87.325">  5  6 -1 -1</clus>
<clus scale="   91.801">  7  8 -1 -1</clus>
<clus scale="   93.016">  1  5  2 -1</clus>
<clus scale="   93.016">  1  5  2 -1</clus>
</clustering>
</event>
<event>
 9    1  0.9000149E-006  0.1123015E+03  0.7546771E-02  0.1257370E+00
          2   -1    0    0  502    0  0.00000000000E+00  0.00000000000E+00  0.85843657173E+03  0.85843657173E+03  0.00000000000E+00 0. -1.
         -2   -1    0    0    0  501 -0.00000000000E+00 -0.00000000000E+00 -0.21429733327E+02  0.21429733327E+02  0.00000000000E+00 0.  1.
         23    2    1    2    0    0 -0.56946708815E+02 -0.50961883166E+01  0.20208685567E+03  0.23049511180E+03  0.94973683458E+02 0.  0.
         23    2    1    2    0    0  0.67434777642E+02 -0.13226902247E+02  0.53801806149E+03  0.55019600697E+03  0.92356978134E+02 0.  0.
        -11    1    4    4    0    0  0.87195430271E+02  0.53182157413E+01  0.38393018733E+03  0.39374320975E+03  0.00000000000E+00 0. -1.
         11    1    4    4    0    0 -0.19760652629E+02 -0.18545117988E+02  0.15408787416E+03  0.15645279722E+03  0.00000000000E+00 0.  1.
        -13    1    3    3    0    0 -0.13811474028E+01  0.38980150541E+02  0.86430663925E+02  0.94824149724E+02  0.00000000000E+00 0. -1.
         13    1    3    3    0    0 -0.55565561412E+02 -0.44076338857E+02  0.11565619175E+03  0.13567096208E+03  0.00000000000E+00 0.  1.
         21    1    1    2  502  501 -0.10488068827E+02  0.18323090563E+02  0.96901921233E+02  0.99175186282E+02  0.00000000000E+00 0. -1.
<scales pt_clust_5="13000.00000" pt_clust_6="13000.00000" pt_clust_7="13000.00000" pt_clust_8="13000.00000" pt_clust_9="21.11244"></scales>
<clustering>
<clus scale="   21.112">  1  9  2 -1</clus>
<clus scale="   92.357">  5  6 -1 -1</clus>
<clus scale="   94.974">  7  8 -1 -1</clus>
<clus scale="  110.097">  1  5  2 -1</clus>
<clus scale="   21.112">  1  5  2 -1</clus>
</clustering>
</event>
<event>
 9    1  0.9000149E-006  0.9883875E+02  0.7546771E-02  0.1285920E+00
         -2   -1    0    0    0  501 -0.00000000000E+00  0.00000000000E+00  0.39820658180E+03  0.39820658180E+03  0.00000000000E+00 0.  1.
          2   -1    0    0  502    0  0.00000000000E+00 -0.00000000000E+00 -0.14107327765E+03  0.14107327765E+03  0.00000000000E+00 0. -1.
         23    2    1    2    0    0  0.76995143542E+00  0.37780790913E+02  0.32436479973E+03  0.33945972628E+03  0.92695207383E+02 0.  0.
         23    2    1    2    0    0  0.64223987519E+02 -0.19465276059E+00 -0.16079836421E+02  0.10897178637E+03  0.86553628598E+02 0.  0.
        -11    1    4    4    0    0  0.77910232445E+02  0.22121660450E+02 -0.17090190660E+02  0.82773466748E+02  0.00000000000E+00 0.  1.
         11    1    4    4    0    0 -0.13686244926E+02 -0.22316313211E+02  0.10103542393E+01  0.26198319625E+02  0.00000000000E+00 0. -1.
        -11    1    3    3    0    0 -0.30217661872E+02 -0.12133980097E+02  0.19059659396E+03  0.19335822246E+03  0.00000000000E+00 0. -1.
         11    1    3    3    0    0  0.30987613308E+02  0.49914771009E+02  0.13376820577E+03  0.14610150382E+03  0.00000000000E+00 0.  1.
         21    1    1    2  502  501 -0.64993938955E+02 -0.37586138152E+02 -0.51151659154E+02  0.90848346800E+02  0.00000000000E+00 0. -1.
<scales pt_clust_5="13000.00000" pt_clust_6="13000.00000" pt_clust_7="13000.00000" pt_clust_8="13000.00000" pt_clust_9="75.07949"></scales>
<clustering>
<clus scale="   75.079">  2  9  1 -1</clus>
<clus scale="   86.554">  5  6 -1 -1</clus>
<clus scale="   92.695">  7  8 -1 -1</clus>
<clus scale="   93.103">  2  5  1 -1</clus>
<clus scale="   75.079">  2  5  1 -1</clus>
</clustering>
</event>
<event>
 9    1  0.9000149E-006  0.9898015E+02  0.7546771E-02  0.1282468E+00
          2   -1    0    0  502    0  0.00000000000E+00  0.00000000000E+00  0.33400571421E+03  0.33400571421E+03  0.00000000000E+00 0. -1.
         -2   -1    0    0    0  501 -0.00000000000E+00 -0.00000000000E+00 -0.36391004636E+02  0.36391004636E+02  0.00000000000E+00 0.  1.
         23    2    1    2    0    0  0.23913576004E+01  0.32283739737E+02  0.11653952515E+03  0.15185320078E+03  0.91814896524E+02 0.  0.
         23    2    1    2    0    0  0.17033599052E+02 -0.39131928448E+02  0.15737033630E+03  0.18714054919E+03  0.91840683158E+02 0.  0.
        -13    1    4    4    0    0 -0.20541086220E+02  0.18114350203E+02  0.76042146754E+02  0.80823721699E+02  0.00000000000E+00 0.  1.
         13    1    4    4    0    0  0.37574685271E+02 -0.57246278651E+02  0.81328189546E+02  0.10631682749E+03  0.00000000000E+00 0. -1.
        -13    1    3    3    0    0 -0.35931789478E+02 -0.11004891840E+02  0.31572644607E+02  0.49081901216E+02  0.00000000000E+00 0.  1.
         13    1    3    3    0    0  0.38323147078E+02  0.43288631577E+02  0.84966880539E+02  0.10277129957E+03  0.00000000000E+00 0. -1.
         21    1    1    2  502  501 -0.19424956652E+02  0.68481887108E+01  0.23704848131E+02  0.31402968880E+02  0.00000000000E+00 0. -1.
<scales pt_clust_5="13000.00000" pt_clust_6="13000.00000" pt_clust_7="13000.00000" pt_clust_8="13000.00000" pt_clust_9="20.59676"></scales>
<clustering>
<clus scale="   20.597">  2  9  1 -1</clus>
<clus scale="   91.815">  7  8 -1 -1</clus>
<clus scale="   91.841">  5  6 -1 -1</clus>
<clus scale="   98.956">  2  7  1 -1</clus>
<clus scale="   98.980">  1  5  2 -1</clus>
</clustering>
</event>
<event>
 9    1  0.9000149E-006  0.9882150E+02  0.7546771E-02  0.1282928E+00
         -1   -1    0    0    0  501 -0.00000000000E+00  0.00000000000E+00  0.12845972632E+03  0.12845972632E+03  0.00000000000E+00 0.  1.
          1   -1    0    0  502    0  0.00000000000E+00 -0.00000000000E+00 -0.21067780521E+03  0.21067780521E+03  0.00000000000E+00 0. -1.
         23    2    1    2    0    0 -0.10392208633E+02 -0.33269499467E+02  0.69192126646E+02  0.11928586268E+03  0.90701207542E+02 0.  0.
         23    2    1    2    0    0 -0.45692869932E+01  0.57580732954E+02 -0.57578627356E+02  0.12177390639E+03  0.90427688012E+02 0.  0.
        -11    1    3    3    0    0  0.22845081135E+02 -0.51371191512E+02  0.26256592320E+02  0.62050831499E+02  0.00000000000E+00 0.  1.
         11    1    3    3    0    0 -0.33237289768E+02  0.18101692045E+02  0.42935534326E+02  0.57235031177E+02  0.00000000000E+00 0. -1.
        -11    1    4    4    0    0 -0.40903976870E+02  0.57250708788E+02 -0.31751793459E+02  0.77194270308E+02  0.00000000000E+00 0. -1.
         11    1    4    4    0    0  0.36334689877E+02  0.33002416651E+00 -0.25826833898E+02  0.44579636087E+02  0.00000000000E+00 0.  1.
         21    1    1    2  502  501  0.14961495626E+02 -0.24311233487E+02 -0.93831578185E+02  0.98077762463E+02  0.00000000000E+00 0.  1.
<scales pt_clust_5="13000.00000" pt_clust_6="13000.00000" pt_clust_7="13000.00000" pt_clust_8="13000.00000" pt_clust_9="28.54615"></scales>
<clustering>
<clus scale="   28.546">  2  9  1 -1</clus>
<clus scale="   90.428">  7  8 -1 -1</clus>
<clus scale="   90.701">  5  6 -1 -1</clus>
<clus scale="   98.571">  2  7  1 -1</clus>
<clus scale="   28.546">  2  5  1 -1</clus>
</clustering>
</event>
<event>
 9    1  0.9000149E-006  0.1018480E+03  0.7546771E-02  0.1276489E+00
          2   -1    0    0  502    0  0.00000000000E+00  0.00000000000E+00  0.46935858478E+03  0.46935858478E+03  0.00000000000E+00 0. -1.
         -2   -1    0    0    0  501 -0.00000000000E+00 -0.00000000000E+00 -0.75371493731E+02  0.75371493731E+02  0.00000000000E+00 0.  1.
         23    2    1    2    0    0  0.16665992879E+02 -0.60701568146E+02  0.70577198384E+00  0.11180897102E+03  0.92402988011E+02 0.  0.
         23    2    1    2    0    0  0.26072529247E+01 -0.18622913773E+02  0.15899598099E+03  0.18482142778E+03  0.92334324655E+02 0.  0.
        -11    1    3    3    0    0  0.36691969415E+02 -0.29517773057E+02  0.37036729088E+02  0.59910924274E+02  0.00000000000E+00 0. -1.
         11    1    3    3    0    0 -0.20025976536E+02 -0.31183795088E+02 -0.36330957105E+02  0.51898046750E+02  0.00000000000E+00 0.  1.
        -13    1    4    4    0    0 -0.94163248302E+01 -0.45500872206E+02  0.37214241429E+02  0.59530633374E+02  0.00000000000E+00 0.  1.
         13    1    4    4    0    0  0.12023577755E+02  0.26877958433E+02  0.12178173956E+03  0.12529079441E+03  0.00000000000E+00 0. -1.
         21    1    1    2  502  501 -0.19273245804E+02  0.79324481918E+02  0.23428533807E+03  0.24809967971E+03  0.00000000000E+00 0. -1.
<scales pt_clust_5="13000.00000" pt_clust_6="13000.00000" pt_clust_7="13000.00000" pt_clust_8="13000.00000" pt_clust_9="81.63229"></scales>
<clustering>
<clus scale="   81.632">  1  9  2 -1</clus>
<clus scale="   92.334">  7  8 -1 -1</clus>
<clus scale="   92.403">  5  6 -1 -1</clus>
<clus scale="  101.786">  1  7  2 -1</clus>
<clus scale="   81.632">  1  5  2 -1</clus>
</clustering>
</event>
<event>
 9    1  0.9000149E-006  0.9392012E+02  0.7546771E-02  0.1293866E+00
         -1   -1    0    0    0  501 -0.00000000000E+00  0.00000000000E+00  0.24529863108E+03  0.24529863108E+03  0.00000000000E+00 0.  1.
          1   -1    0    0  502    0  0.00000000000E+00 -0.00000000000E+00 -0.13836935994E+03  0.13836935994E+03  0.00000000000E+00 0. -1.
         23    2    1    2    0    0  0.23479205997E+02  0.32526315905E+01  0.16294992358E+03  0.18872430550E+03  0.92208097070E+02 0.  0.
         23    2    1    2    0    0 -0.13973203360E+01 -0.10277345701E+02  0.36685525705E+02  0.99385369573E+02  0.91782610282E+02 0.  0.
        -11    1    4    4    0    0 -0.19680968975E+02 -0.28533265914E+02  0.56868294241E+02  0.66599479678E+02  0.00000000000E+00 0.  1.
         11    1    4    4    0    0  0.18283648639E+02  0.18255920213E+02 -0.20182768537E+02  0.32785889894E+02  0.00000000000E+00 0. -1.
        -11    1    3    3    0    0 -0.30704696680E+02  0.77200167807E+01  0.10317196453E+03  0.10792048611E+03  0.00000000000E+00 0.  1.
         11    1    3    3    0    0  0.54183902677E+02 -0.44673851902E+01  0.59777959047E+02  0.80803819388E+02  0.00000000000E+00 0. -1.
         21    1    1    2  502  501 -0.22081885661E+02  0.70247141108E+01 -0.92706178137E+02  0.95558315951E+02  0.00000000000E+00 0. -1.
<scales pt_clust_5="13000.00000" pt_clust_6="13000.00000" pt_clust_7="13000.00000" pt_clust_8="13000.00000" pt_clust_9="23.17232"></scales>
<clustering>
<clus scale="   23.172">  2  9  1 -1</clus>
<clus scale="   91.783">  5  6 -1 -1</clus>
<clus scale="   92.208">  7  8 -1 -1</clus>
<clus scale="   93.502">  2  5  1 -1</clus>
<clus scale="   23.172">  2  5  1 -1</clus>
</clustering>
</event>
<event>
 9    1  0.9000149E-006  0.9353054E+02  0.7546771E-02  0.1295221E+00
         -1   -1    0    0    0  501 -0.00000000000E+00  0.00000000000E+00  0.20446881462E+02  0.20446881462E+02  0.00000000000E+00 0.  1.
          1   -1    0    0  502    0  0.00000000000E+00 -0.00000000000E+00 -0.57860334939E+03  0.57860334939E+03  0.00000000000E+00 0. -1.
         23    2    1    2    0    0 -0.16852856982E+02  0.17301426908E+00 -0.21064172543E+03  0.23055835394E+03  0.92212631206E+02 0.  0.
         23    2    1    2    0    0  0.35014297617E+01 -0.24816954157E+02 -0.25996114301E+03  0.27656137510E+03  0.90984927850E+02 0.  0.
        -11    1    4    4    0    0 -0.18261430722E+02  0.26385970597E+02 -0.50462422250E+02  0.59800964505E+02  0.00000000000E+00 0.  1.
         11    1    4    4    0    0  0.21762860484E+02 -0.51202924753E+02 -0.20949872076E+03  0.21676041059E+03  0.00000000000E+00 0. -1.
        -11    1    3    3    0    0 -0.46006308249E+02 -0.26770759890E+02 -0.13539471231E+03  0.14548189615E+03  0.00000000000E+00 0. -1.
         11    1    3    3    0    0  0.29153451267E+02  0.26943774159E+02 -0.75247013121E+02  0.85076457791E+02  0.00000000000E+00 0.  1.
         21    1    1    2  502  501  0.13351427220E+02  0.24643939888E+02 -0.87553599479E+02  0.91930501814E+02  0.00000000000E+00 0. -1.
<scales pt_clust_5="13000.00000" pt_clust_6="13000.00000" pt_clust_7="13000.00000" pt_clust_8="13000.00000" pt_clust_9="28.02828"></scales>
<clustering>
<clus scale="   28.028">  2  9  1 -1</clus>
<clus scale="   90.985">  5  6 -1 -1</clus>
<clus scale="   92.213">  7  8 -1 -1</clus>
<clus scale="   92.320">  2  5  1 -1</clus>
<clus scale="   28.028">  2  5  1 -1</clus>
</clustering>
</event>
<event>
 9    1  0.9000149E-006  0.1060910E+03  0.7546771E-02  0.1270984E+00
          2   -1    0    0  502    0  0.00000000000E+00  0.00000000000E+00  0.35610720656E+03  0.35610720656E+03  0.00000000000E+00 0. -1.
         -2   -1    0    0    0  501 -0.00000000000E+00 -0.00000000000E+00 -0.56987264282E+02  0.56987264282E+02  0.00000000000E+00 0.  1.
         23    2    1    2    0    0 -0.26364475222E+01 -0.29386804704E+02  0.50694830620E+02  0.11579819273E+03  0.99843479714E+02 0.  0.
         23    2    1    2    0    0 -0.45703713523E+02  0.43764250605E+02  0.17315292337E+03  0.20669062459E+03  0.93460902851E+02 0.  0.
        -13    1    4    4    0    0 -0.65696605398E+02  0.88348685345E+01  0.13864123252E+03  0.15367332305E+03  0.00000000000E+00 0.  1.
         13    1    4    4    0    0  0.19992891875E+02  0.34929382070E+02  0.34511690850E+02  0.53017301541E+02  0.00000000000E+00 0. -1.
        -13    1    3    3    0    0  0.38083703266E+02 -0.21365314980E+02  0.59070646807E+02  0.73458739799E+02  0.00000000000E+00 0. -1.
         13    1    3    3    0    0 -0.40720150788E+02 -0.80214897234E+01 -0.83758161866E+01  0.42339452930E+02  0.00000000000E+00 0.  1.
         21    1    1    2  502  501  0.48340161045E+02 -0.14377445901E+02  0.75272188282E+02  0.90605653518E+02  0.00000000000E+00 0.  1.
<scales pt_clust_5="13000.00000" pt_clust_6="13000.00000" pt_clust_7="13000.00000" pt_clust_8="13000.00000" pt_clust_9="50.43295"></scales>
<clustering>
<clus scale="   50.433">  1  9  2 -1</clus>
<clus scale="   93.461">  5  6 -1 -1</clus>
<clus scale="   99.843">  7  8 -1 -1</clus>
<clus scale="  100.108">  1  5  2 -1</clus>
<clus scale="   50.433">  1  5  2 -1</clus>
</clustering>
</event>
<event>
 9    1  0.9000149E-006  0.1487208E+03  0.7546771E-02  0.1215978E+00
          1   -1    0    0  502    0  0.00000000000E+00  0.00000000000E+00  0.50286304402E+03  0.50286304402E+03  0.00000000000E+00 0. -1.
         -1   -1    0    0    0  501 -0.00000000000E+00 -0.00000000000E+00 -0.11421285834E+03  0.11421285834E+03  0.00000000000E+00 0.  1.
         23    2    1    2    0    0  0.39357522789E+02  0.13457062332E+03 -0.93484282642E+01  0.15469356544E+03  0.64687238424E+02 0.  0.
         23    2    1    2    0    0  0.38686427703E+02 -0.44213951855E+02  0.14170372032E+03  0.17964171589E+03  0.93486301182E+02 0.  0.
        -13    1    3    3    0    0  0.45453643131E+02  0.47139369126E+02 -0.13857314144E+02  0.66934138903E+02  0.00000000000E+00 0.  1.
         13    1    3    3    0    0 -0.60961203417E+01  0.87431254195E+02  0.45088858796E+01  0.87759426532E+02  0.00000000000E+00 0. -1.
        -13    1    4    4    0    0  0.55484308164E+02  0.72701328234E+01  0.65389596832E+02  0.86064874703E+02  0.00000000000E+00 0.  1.
         13    1    4    4    0    0 -0.16797880460E+02 -0.51484084678E+02  0.76314123485E+02  0.93576841186E+02  0.00000000000E+00 0. -1.
         21    1    1    2  502  501 -0.78043950492E+02 -0.90356671466E+02  0.25629489362E+03  0.28274062103E+03  0.00000000000E+00 0. -1.
<scales pt_clust_5="13000.00000" pt_clust_6="13000.00000" pt_clust_7="13000.00000" pt_clust_8="13000.00000" pt_clust_9="133.91583"></scales>
<clustering>
<clus scale="   64.687">  5  6 -1 -1</clus>
<clus scale="   93.486">  7  8 -1 -1</clus>
<clus scale="  110.414">  1  7  2 -1</clus>
<clus scale="  133.916">  1  9  2 -1</clus>
<clus scale="  110.414">  1  5  2 -1</clus>
</clustering>
</event>
<event>
 9    1  0.9000149E-006  0.1235963E+03  0.7546771E-02  0.1237811E+00
          3   -1    0    0  502    0  0.00000000000E+00  0.00000000000E+00  0.12868058827E+03  0.12868058827E+03  0.00000000000E+00 0. -1.
         -3   -1    0    0    0  501 -0.00000000000E+00 -0.00000000000E+00 -0.18532159498E+03  0.18532159498E+03  0.00000000000E+00 0.  1.
         23    2    1    2    0    0  0.16506908083E+02 -0.78929523085E+02 -0.74945178190E+02  0.14398258307E+03  0.92800090861E+02 0.  0.
         23    2    1    2    0    0 -0.45643457983E+02  0.73411972069E+02 -0.13838248100E+02  0.12628726609E+03  0.91018314451E+02 0.  0.
        -13    1    4    4    0    0  0.24833179140E+02  0.40738103909E+02 -0.24349516100E+01  0.47772469955E+02  0.00000000000E+00 0.  1.
         13    1    4    4    0    0 -0.70476637123E+02  0.32673868160E+02 -0.11403296490E+02  0.78514796132E+02  0.00000000000E+00 0. -1.
        -13    1    3    3    0    0  0.36577463281E+02  0.36988614802E+01 -0.31912228119E+02  0.48682468095E+02  0.00000000000E+00 0.  1.
         13    1    3    3    0    0 -0.20070555198E+02 -0.82628384565E+02 -0.43032950071E+02  0.95300114972E+02  0.00000000000E+00 0. -1.
         21    1    1    2  502  501  0.29136549900E+02  0.55175510158E+01  0.32142419584E+02  0.43732334102E+02  0.00000000000E+00 0. -1.
<scales pt_clust_5="13000.00000" pt_clust_6="13000.00000" pt_clust_7="13000.00000" pt_clust_8="13000.00000" pt_clust_9="29.65437"></scales>
<clustering>
<clus scale="   29.654">  1  9  2 -1</clus>
<clus scale="   91.018">  5  6 -1 -1</clus>
<clus scale="   92.800">  7  8 -1 -1</clus>
<clus scale="  122.264">  1  5  2 -1</clus>
<clus scale="   29.654">  1  5  2 -1</clus>
</clustering>
</event>
<event>
 9    1  0.9000149E-006  0.9285458E+02  0.7546771E-02  0.1296555E+00
          1   -1    0    0  502    0  0.00000000000E+00  0.00000000000E+00  0.95559065319E+02  0.95559065319E+02  0.00000000000E+00 0. -1.
         -1   -1    0    0    0  501 -0.00000000000E+00 -0.00000000000E+00 -0.23589522767E+03  0.23589522767E+03  0.00000000000E+00 0.  1.
         23    2    1    2    0    0  0.13258162523E+02  0.19619062964E+02 -0.13612064028E+03  0.16571922610E+03  0.91505992614E+02 0.  0.
         23    2    1    2    0    0 -0.15708898008E+02  0.16556766830E+02 -0.51023538754E+02  0.10652622302E+03  0.90683728857E+02 0.  0.
        -11    1    4    4    0    0  0.18119023730E+02 -0.28383801414E+02 -0.33770283347E+02  0.47690368430E+02  0.00000000000E+00 0. -1.
         11    1    4    4    0    0 -0.33827921738E+02  0.44940568244E+02 -0.17253255406E+02  0.58835854590E+02  0.00000000000E+00 0.  1.
        -13    1    3    3    0    0 -0.25517834653E+02 -0.99283296878E+01 -0.78309541488E+01  0.28479035423E+02  0.00000000000E+00 0. -1.
         13    1    3    3    0    0  0.38775997176E+02  0.29547392652E+02 -0.12828968614E+03  0.13724019068E+03  0.00000000000E+00 0.  1.
         21    1    1    2  502  501  0.24507354845E+01 -0.36175829795E+02  0.46808016686E+02  0.59208843865E+02  0.00000000000E+00 0. -1.
<scales pt_clust_5="13000.00000" pt_clust_6="13000.00000" pt_clust_7="13000.00000" pt_clust_8="13000.00000" pt_clust_9="36.25875"></scales>
<clustering>
<clus scale="   36.259">  1  9  2 -1</clus>
<clus scale="   90.684">  5  6 -1 -1</clus>
<clus scale="   91.506">  7  8 -1 -1</clus>
<clus scale="   92.044">  1  5  2 -1</clus>
<clus scale="   36.259">  1  5  2 -1</clus>
</clustering>
</event>
<event>
 9    1  0.9000149E-006  0.1260216E+03  0.7546771E-02  0.1236553E+00
          1   -1    0    0  502    0  0.00000000000E+00  0.00000000000E+00  0.89207287124E+03  0.89207287124E+03  0.00000000000E+00 0. -1.
         -1   -1    0    0    0  501 -0.00000000000E+00 -0.00000000000E+00 -0.31739064227E+02  0.31739064227E+02  0.00000000000E+00 0.  1.
         23    2    1    2    0    0  0.75642174887E+02 -0.36397314806E+02  0.17636580697E+03  0.21087840238E+03  0.79487732223E+02 0.  0.
         23    2    1    2    0    0 -0.57105675045E+02  0.88613203741E+02  0.39571192422E+03  0.41940045807E+03  0.90528775850E+02 0.  0.
        -13    1    4    4    0    0 -0.66567108915E+02  0.20673063310E+02  0.21979340196E+03  0.23058121147E+03  0.00000000000E+00 0.  1.
         13    1    4    4    0    0  0.94614338700E+01  0.67940140432E+02  0.17591852226E+03  0.18881924660E+03  0.00000000000E+00 0. -1.
        -13    1    3    3    0    0  0.46542371951E+02 -0.42251651759E+02  0.16897608068E+03  0.18028951801E+03  0.00000000000E+00 0. -1.
         13    1    3    3    0    0  0.29099802936E+02  0.58543369532E+01  0.73897262919E+01  0.30588884366E+02  0.00000000000E+00 0.  1.
         21    1    1    2  502  501 -0.18536499843E+02 -0.52215888936E+02  0.28825607583E+03  0.29353307503E+03  0.00000000000E+00 0. -1.
<scales pt_clust_5="13000.00000" pt_clust_6="13000.00000" pt_clust_7="13000.00000" pt_clust_8="13000.00000" pt_clust_9="55.40849"></scales>
<clustering>
<clus scale="   55.408">  1  9  2 -1</clus>
<clus scale="   79.488">  7  8 -1 -1</clus>
<clus scale="   90.529">  5  6 -1 -1</clus>
<clus scale="  118.340">  2  7  1 -1</clus>
<clus scale="   55.408">  1  5  2 -1</clus>
</clustering>
</event>
<event>
 9    1  0.9000149E-006  0.1067320E+03  0.7546771E-02  0.1272917E+00
         -1   -1    0    0    0  501 -0.00000000000E+00  0.00000000000E+00  0.59739126949E+02  0.59739126949E+02  0.00000000000E+00 0.  1.
          1   -1    0    0  502    0  0.00000000000E+00 -0.00000000000E+00 -0.29044673793E+03  0.29044673793E+03  0.00000000000E+00 0. -1.
         23    2    1    2    0    0  0.59778209987E+02 -0.15890479849E+02 -0.42493132492E+02  0.12407624723E+03  0.98809448325E+02 0.  0.
         23    2    1    2    0    0 -0.33750246959E+02  0.52918244604E+01 -0.16740697056E+03  0.19114193626E+03  0.85691676549E+02 0.  0.
        -11    1    4    4    0    0 -0.49695617552E+01  0.41574445256E+02 -0.51814688487E+02  0.66617512603E+02  0.00000000000E+00 0. -1.
         11    1    4    4    0    0 -0.28780685204E+02 -0.36282620796E+02 -0.11559228208E+03  0.12452442366E+03  0.00000000000E+00 0.  1.
        -13    1    3    3    0    0 -0.24401404479E+01 -0.46142809790E+02 -0.84608547605E+01  0.46975517496E+02  0.00000000000E+00 0.  1.
         13    1    3    3    0    0  0.62218350435E+02  0.30252329941E+02 -0.34032277731E+02  0.77100729733E+02  0.00000000000E+00 0. -1.
         21    1    1    2  502  501 -0.26027963028E+02  0.10598655389E+02 -0.20807507926E+02  0.34967681387E+02  0.00000000000E+00 0. -1.
<scales pt_clust_5="13000.00000" pt_clust_6="13000.00000" pt_clust_7="13000.00000" pt_clust_8="13000.00000" pt_clust_9="28.10314"></scales>
<clustering>
<clus scale="   28.103">  1  9  2 -1</clus>
<clus scale="   85.692">  5  6 -1 -1</clus>
<clus scale="   94.718">  2  5  1 -1</clus>
<clus scale="   98.809">  7  8 -1 -1</clus>
<clus scale="   94.718">  2  5  1 -1</clus>
</clustering>
</event>
<event>
 9    1  0.9000149E-006  0.1582227E+03  0.7546771E-02  0.1191577E+00
         -2   -1    0    0    0  501 -0.00000000000E+00  0.00000000000E+00  0.50957763138E+02  0.50957763138E+02  0.00000000000E+00 0.  1.
          2   -1    0    0  502    0  0.00000000000E+00 -0.00000000000E+00 -0.11195984129E+04  0.11195984129E+04  0.00000000000E+00 0. -1.
         23    2    1    2    0    0  0.92182727756E+02 -0.82920170903E+02 -0.10682522078E+03  0.18951329349E+03  0.95552344689E+02 0.  0.
         23    2    1    2    0    0 -0.11724424567E+03  0.76387463526E+02 -0.85855598517E+03  0.87458505671E+03  0.90550450135E+02 0.  0.
        -11    1    3    3    0    0  0.27297307249E+02  0.20527604201E+02 -0.18857221969E+02  0.39014360659E+02  0.00000000000E+00 0. -1.
         11    1    3    3    0    0  0.64885420508E+02 -0.10344777510E+03 -0.87967998814E+02  0.15049893283E+03  0.00000000000E+00 0.  1.
        -13    1    4    4    0    0 -0.49577915982E+02 -0.15877984765E+02 -0.24909172041E+03  0.25447350614E+03  0.00000000000E+00 0.  1.
         13    1    4    4    0    0 -0.67666329692E+02  0.92265448291E+02 -0.60946426477E+03  0.62011155057E+03  0.00000000000E+00 0. -1.
         21    1    1    2  502  501  0.25061517918E+02  0.65327073772E+01 -0.10325944376E+03  0.10645782578E+03  0.00000000000E+00 0.  1.
<scales pt_clust_5="13000.00000" pt_clust_6="13000.00000" pt_clust_7="13000.00000" pt_clust_8="13000.00000" pt_clust_9="25.89896"></scales>
<clustering>
<clus scale="   25.899">  2  9  1 -1</clus>
<clus scale="   90.550">  7  8 -1 -1</clus>
<clus scale="   95.552">  5  6 -1 -1</clus>
<clus scale="  155.253">  2  7  1 -1</clus>
<clus scale="   25.899">  2  5  1 -1</clus>
</clustering>
</event>
<event>
 9    1  0.9000149E-006  0.9318283E+02  0.7546771E-02  0.1297442E+00
         -2   -1    0    0    0  501 -0.00000000000E+00  0.00000000000E+00  0.51122464883E+02  0.51122464883E+02  0.00000000000E+00 0.  1.
          2   -1    0    0  502    0  0.00000000000E+00 -0.00000000000E+00 -0.36108131885E+03  0.36108131885E+03  0.00000000000E+00 0. -1.
         23    2    1    2    0    0 -0.20728046513E+02 -0.24458990159E+02 -0.13231992251E+03  0.16205985389E+03  0.87903016090E+02 0.  0.
         23    2    1    2    0    0  0.37498778849E+01  0.62883571171E+01 -0.19782796547E+03  0.21811227036E+03  0.91561201071E+02 0.  0.
        -13    1    4    4    0    0 -0.32569390927E+02 -0.20404228506E+02 -0.47107331554E+02  0.60796368743E+02  0.00000000000E+00 0. -1.
         13    1    4    4    0    0  0.36319268812E+02  0.26692585623E+02 -0.15072063391E+03  0.15731590162E+03  0.00000000000E+00 0.  1.
        -13    1    3    3    0    0  0.22610197462E+02 -0.22521355896E+02 -0.11892065605E+02  0.34056625274E+02  0.00000000000E+00 0.  1.
         13    1    3    3    0    0 -0.43338243975E+02 -0.19376342630E+01 -0.12042785690E+03  0.12800322861E+03  0.00000000000E+00 0. -1.
         21    1    1    2  502  501  0.16978168628E+02  0.18170633042E+02  0.20189034009E+02  0.32031659484E+02  0.00000000000E+00 0.  1.
<scales pt_clust_5="13000.00000" pt_clust_6="13000.00000" pt_clust_7="13000.00000" pt_clust_8="13000.00000" pt_clust_9="24.86826"></scales>
<clustering>
<clus scale="   24.868">  1  9  2 -1</clus>
<clus scale="   87.903">  7  8 -1 -1</clus>
<clus scale="   89.591">  1  7  2 -1</clus>
<clus scale="   91.561">  5  6 -1 -1</clus>
<clus scale="   93.183">  2  5  1 -1</clus>
</clustering>
</event>
<event>
 9    1  0.9000149E-006  0.9995151E+02  0.7546771E-02  0.1284115E+00
         -3   -1    0    0    0  501 -0.00000000000E+00  0.00000000000E+00  0.11457027229E+03  0.11457027229E+03  0.00000000000E+00 0.  1.
          3   -1    0    0  502    0  0.00000000000E+00 -0.00000000000E+00 -0.13382580079E+03  0.13382580079E+03  0.00000000000E+00 0. -1.
         23    2    1    2    0    0  0.12409224110E+02 -0.80453129383E+01  0.28720430921E+02  0.95283572389E+02  0.89640281747E+02 0.  0.
         23    2    1    2    0    0 -0.46281999326E+02  0.92937002529E+01 -0.20621852923E+02  0.10955597978E+03  0.96689480102E+02 0.  0.
        -13    1    3    3    0    0 -0.22464643678E+02  0.18390798389E+02  0.40624285313E+02  0.49932096272E+02  0.00000000000E+00 0. -1.
         13    1    3    3    0    0  0.34873867788E+02 -0.26436111327E+02 -0.11903854392E+02  0.45351476117E+02  0.00000000000E+00 0.  1.
        -13    1    4    4    0    0 -0.52803230762E+01 -0.26472467968E+02  0.26315614449E+02  0.37698606552E+02  0.00000000000E+00 0.  1.
         13    1    4    4    0    0 -0.41001676250E+02  0.35766168221E+02 -0.46937467372E+02  0.71857373232E+02  0.00000000000E+00 0. -1.
         21    1    1    2  502  501  0.33872775216E+02 -0.12483873146E+01 -0.27354106495E+02  0.43556520910E+02  0.00000000000E+00 0.  1.
<scales pt_clust_5="13000.00000" pt_clust_6="13000.00000" pt_clust_7="13000.00000" pt_clust_8="13000.00000" pt_clust_9="33.89577"></scales>
<clustering>
<clus scale="   33.896">  2  9  1 -1</clus>
<clus scale="   89.640">  5  6 -1 -1</clus>
<clus scale="   93.149">  1  5  2 -1</clus>
<clus scale="   96.689">  7  8 -1 -1</clus>
<clus scale="   33.896">  2  5  1 -1</clus>
</clustering>
</event>
<event>
 9    1  0.9000149E-006  0.8487842E+02  0.7546771E-02  0.1316874E+00
         -2   -1    0    0    0  501 -0.00000000000E+00  0.00000000000E+00  0.42197018975E+03  0.42197018975E+03  0.00000000000E+00 0.  1.
          2   -1    0    0  502    0  0.00000000000E+00 -0.00000000000E+00 -0.46705558893E+02  0.46705558893E+02  0.00000000000E+00 0. -1.
         23    2    1    2    0    0 -0.47498781310E+01 -0.66345821647E-01  0.27681688685E+03  0.28899445402E+03  0.82871224593E+02 0.  0.
         23    2    1    2    0    0 -0.30933775902E+02  0.22990914823E+02  0.10091963246E+03  0.13719636480E+03  0.84572984125E+02 0.  0.
        -11    1    4    4    0    0 -0.53641036068E+02  0.37732141471E+02  0.66408662695E+02  0.93333733084E+02  0.00000000000E+00 0.  1.
         11    1    4    4    0    0  0.22707260166E+02 -0.14741226648E+02  0.34510969761E+02  0.43862631717E+02  0.00000000000E+00 0. -1.
        -13    1    3    3    0    0  0.31448829151E+02  0.17279614271E+02  0.18984507564E+03  0.19320653889E+03  0.00000000000E+00 0. -1.
         13    1    3    3    0    0 -0.36198707282E+02 -0.17345960093E+02  0.86971811214E+02  0.95787915137E+02  0.00000000000E+00 0.  1.
         21    1    1    2  502  501  0.35683654033E+02 -0.22924569001E+02 -0.24718884519E+01  0.42484929817E+02  0.00000000000E+00 0. -1.
<scales pt_clust_5="13000.00000" pt_clust_6="13000.00000" pt_clust_7="13000.00000" pt_clust_8="13000.00000" pt_clust_9="42.41296"></scales>
<clustering>
<clus scale="   42.413">  2  9  1 -1</clus>
<clus scale="   82.871">  7  8 -1 -1</clus>
<clus scale="   83.183">  1  7  2 -1</clus>
<clus scale="   84.573">  5  6 -1 -1</clus>
<clus scale="   42.413">  2  5  1 -1</clus>
</clustering>
</event>
<event>
 9    1  0.9000149E-006  0.1012860E+03  0.7546771E-02  0.1278589E+00
         -1   -1    0    0    0  501 -0.00000000000E+00  0.00000000000E+00  0.22407205229E+02  0.22407205229E+02  0.00000000000E+00 0.  1.
          1   -1    0    0  502    0  0.00000000000E+00 -0.00000000000E+00 -0.84674034276E+03  0.84674034276E+03  0.00000000000E+00 0. -1.
         23    2    1    2    0    0 -0.11760339231E+02  0.42743468742E+02 -0.17301396415E+03  0.20031978179E+03  0.90713138435E+02 0.  0.
         23    2    1    2    0    0  0.47838469898E+02 -0.12829059683E+02 -0.45481324191E+03  0.46681023111E+03  0.92755608342E+02 0.  0.
        -11    1    3    3    0    0  0.18395552915E+02 -0.11141530747E+02 -0.11004352679E+03  0.11212541132E+03  0.00000000000E+00 0. -1.
         11    1    3    3    0    0 -0.30155892146E+02  0.53884999489E+02 -0.62970437358E+02  0.88194370467E+02  0.00000000000E+00 0.  1.
        -13    1    4    4    0    0  0.71436897481E+02  0.72792906621E+01 -0.35881866325E+03  0.36593312434E+03  0.00000000000E+00 0.  1.
         13    1    4    4    0    0 -0.23598427583E+02 -0.20108350345E+02 -0.95994578660E+02  0.10087710677E+03  0.00000000000E+00 0. -1.
         21    1    1    2  502  501 -0.36078130667E+02 -0.29914409058E+02 -0.19650593147E+03  0.20201753509E+03  0.00000000000E+00 0. -1.
<scales pt_clust_5="13000.00000" pt_clust_6="13000.00000" pt_clust_7="13000.00000" pt_clust_8="13000.00000" pt_clust_9="46.86687"></scales>
<clustering>
<clus scale="   46.867">  2  9  1 -1</clus>
<clus scale="   90.713">  5  6 -1 -1</clus>
<clus scale="   92.756">  7  8 -1 -1</clus>
<clus scale="   99.419">  1  5  2 -1</clus>
<clus scale="   46.867">  2  5  1 -1</clus>
</clustering>
</event>
<event>
 9    1  0.9000149E-006  0.1024915E+03  0.7546771E-02  0.1275781E+00
         -3   -1    0    0    0  501 -0.00000000000E+00  0.00000000000E+00  0.13112846982E+03  0.13112846982E+03  0.00000000000E+00 0.  1.
          3   -1    0    0  502    0  0.00000000000E+00 -0.00000000000E+00 -0.19845402400E+03  0.19845402400E+03  0.00000000000E+00 0. -1.
         23    2    1    2    0    0 -0.57753927676E+01  0.86786898100E+02  0.33580701280E+02  0.12949913297E+03  0.89872360030E+02 0.  0.
         23    2    1    2    0    0 -0.23417622536E+02 -0.31909051013E+02 -0.95140234579E+02  0.13765694625E+03  0.91275396643E+02 0.  0.
        -11    1    4    4    0    0 -0.47034013684E+02 -0.13832898779E+02 -0.13622271162E+02  0.50883335223E+02  0.00000000000E+00 0.  1.
         11    1    4    4    0    0  0.23616391147E+02 -0.18076152234E+02 -0.81517963417E+02  0.86773611023E+02  0.00000000000E+00 0. -1.
        -13    1    3    3    0    0 -0.24360715560E+02  0.43387501729E+02  0.57939996420E+02  0.76373836842E+02  0.00000000000E+00 0.  1.
         13    1    3    3    0    0  0.18585322792E+02  0.43399396371E+02 -0.24359295140E+02  0.53125296125E+02  0.00000000000E+00 0. -1.
         21    1    1    2  502  501  0.29193015304E+02 -0.54877847086E+02 -0.57660208863E+01  0.62426414603E+02  0.00000000000E+00 0.  1.
<scales pt_clust_5="13000.00000" pt_clust_6="13000.00000" pt_clust_7="13000.00000" pt_clust_8="13000.00000" pt_clust_9="62.15955"></scales>
<clustering>
<clus scale="   62.160">  1  9  2 -1</clus>
<clus scale="   89.872">  7  8 -1 -1</clus>
<clus scale="   91.275">  5  6 -1 -1</clus>
<clus scale="  101.244">  1  7  2 -1</clus>
<clus scale="  102.491">  2  5  1 -1</clus>
</clustering>
</event>
<event>
 9    1  0.9000149E-006  0.1036281E+03  0.7546771E-02  0.1273284E+00
         -1   -1    0    0    0  501 -0.00000000000E+00  0.00000000000E+00  0.19688973427E+03  0.19688973427E+03  0.00000000000E+00 0.  1.
          1   -1    0    0  502    0  0.00000000000E+00 -0.00000000000E+00 -0.13075904360E+03  0.13075904360E+03  0.00000000000E+00 0. -1.
         23    2    1    2    0    0  0.37174079031E+02  0.36141822737E+02  0.10287145106E+03  0.14766511592E+03  0.92381315817E+02 0.  0.
         23    2    1    2    0    0 -0.42488963619E+02 -0.88686788747E+01  0.31765518828E+02  0.10605678818E+03  0.91405845753E+02 0.  0.
        -11    1    3    3    0    0  0.46514481115E+02  0.14507253916E+02  0.73446736572E+01  0.49274756221E+02  0.00000000000E+00 0. -1.
         11    1    3    3    0    0 -0.93404020838E+01  0.21634568821E+02  0.95526777408E+02  0.98390359696E+02  0.00000000000E+00 0.  1.
        -11    1    4    4    0    0 -0.66351133224E+02  0.85243718011E+01  0.65305462920E+01  0.67214476340E+02  0.00000000000E+00 0.  1.
         11    1    4    4    0    0  0.23862169605E+02 -0.17393050676E+02  0.25234972536E+02  0.38842311838E+02  0.00000000000E+00 0. -1.
         21    1    1    2  502  501  0.53148845882E+01 -0.27273143862E+02 -0.68506279216E+02  0.73926873776E+02  0.00000000000E+00 0. -1.
<scales pt_clust_5="13000.00000" pt_clust_6="13000.00000" pt_clust_7="13000.00000" pt_clust_8="13000.00000" pt_clust_9="27.78619"></scales>
<clustering>
<clus scale="   27.786">  2  9  1 -1</clus>
<clus scale="   91.406">  7  8 -1 -1</clus>
<clus scale="   92.381">  5  6 -1 -1</clus>
<clus scale="  102.759">  2  7  1 -1</clus>
<clus scale="   27.786">  2  5  1 -1</clus>
</clustering>
</event>
<event>
 9    1  0.9000149E-006  0.9189161E+02  0.7546771E-02  0.1299415E+00
         -2   -1    0    0    0  501 -0.00000000000E+00  0.00000000000E+00  0.53515780939E+02  0.53515780939E+02  0.00000000000E+00 0.  1.
          2   -1    0    0  502    0  0.00000000000E+00 -0.00000000000E+00 -0.32292297439E+03  0.32292297439E+03  0.00000000000E+00 0. -1.
         23    2    1    2    0    0  0.58124181117E+01 -0.24239184374E+02 -0.63145377619E+02  0.11362312610E+03  0.91112863008E+02 0.  0.
         23    2    1    2    0    0  0.30399684881E+02 -0.17829561776E+02 -0.80222858721E+02  0.12509520767E+03  0.89280847929E+02 0.  0.
        -13    1    3    3    0    0 -0.28975216720E+02 -0.37057107289E+02 -0.88311831710E+01  0.47862116343E+02  0.00000000000E+00 0.  1.
         13    1    3    3    0    0  0.34787634832E+02  0.12817922915E+02 -0.54314194448E+02  0.65761009752E+02  0.00000000000E+00 0. -1.
        -13    1    4    4    0    0  0.20649747373E+02 -0.52906688118E+02 -0.62998156436E+02  0.84819204361E+02  0.00000000000E+00 0.  1.
         13    1    4    4    0    0  0.97499375082E+01  0.35077126342E+02 -0.17224702286E+02  0.40276003310E+02  0.00000000000E+00 0. -1.
         21    1    1    2  502  501 -0.36212102993E+02  0.42068746150E+02 -0.12603895711E+03  0.13772042156E+03  0.00000000000E+00 0.  1.
<scales pt_clust_5="13000.00000" pt_clust_6="13000.00000" pt_clust_7="13000.00000" pt_clust_8="13000.00000" pt_clust_9="55.50762"></scales>
<clustering>
<clus scale="   55.508">  2  9  1 -1</clus>
<clus scale="   89.281">  7  8 -1 -1</clus>
<clus scale="   90.075">  2  7  1 -1</clus>
<clus scale="   91.113">  5  6 -1 -1</clus>
<clus scale="   55.508">  2  5  1 -1</clus>
</clustering>
</event>
<event>
 9    1  0.9000149E-006  0.1054828E+03  0.7546771E-02  0.1269459E+00
          1   -1    0    0  502    0  0.00000000000E+00  0.00000000000E+00  0.78321168405E+03  0.78321168405E+03  0.00000000000E+00 0. -1.
         -1   -1    0    0    0  501 -0.00000000000E+00 -0.00000000000E+00 -0.21298149168E+02  0.21298149168E+02  0.00000000000E+00 0.  1.
         23    2    1    2    0    0  0.61994436506E+02  0.43793551729E+02  0.29889943047E+03  0.32131338705E+03  0.90223266579E+02 0.  0.
         23    2    1    2    0    0 -0.26948069436E+02 -0.30427933634E+02  0.36191369170E+03  0.37536240218E+03  0.90902998520E+02 0.  0.
        -13    1    4    4    0    0 -0.56767387053E+02 -0.85918506934E+01  0.27478137198E+03  0.28071544047E+03  0.00000000000E+00 0.  1.
         13    1    4    4    0    0  0.29819317618E+02 -0.21836082941E+02  0.87132319720E+02  0.94646961711E+02  0.00000000000E+00 0. -1.
        -13    1    3    3    0    0  0.19388637504E+02  0.41858113620E+02  0.25844390547E+03  0.26252861409E+03  0.00000000000E+00 0. -1.
         13    1    3    3    0    0  0.42605799002E+02  0.19354381090E+01  0.40455524998E+02  0.58784772962E+02  0.00000000000E+00 0.  1.
         21    1    1    2  502  501 -0.35046367071E+02 -0.13365618095E+02  0.10110041271E+03  0.10783404399E+03  0.00000000000E+00 0. -1.
<scales pt_clust_5="13000.00000" pt_clust_6="13000.00000" pt_clust_7="13000.00000" pt_clust_8="13000.00000" pt_clust_9="37.50850"></scales>
<clustering>
<clus scale="   37.509">  2  9  1 -1</clus>
<clus scale="   90.223">  7  8 -1 -1</clus>
<clus scale="   90.903">  5  6 -1 -1</clus>
<clus scale="  104.898">  2  7  1 -1</clus>
<clus scale="  105.483">  1  5  2 -1</clus>
</clustering>
</event>
<event>
 9    1  0.9000149E-006  0.9332778E+02  0.7546771E-02  0.1295088E+00
          1   -1    0    0  502    0  0.00000000000E+00  0.00000000000E+00  0.20572060401E+03  0.20572060401E+03  0.00000000000E+00 0. -1.
         -1   -1    0    0    0  501 -0.00000000000E+00 -0.00000000000E+00 -0.67469126741E+02  0.67469126741E+02  0.00000000000E+00 0.  1.
         23    2    1    2    0    0 -0.13355888767E+01  0.57339950619E+01  0.13828704224E+02  0.94031827146E+02  0.92822890274E+02 0.  0.
         23    2    1    2    0    0 -0.28793298843E+02 -0.60505933946E+01  0.10608378968E+03  0.14388513195E+03  0.92647164144E+02 0.  0.
        -11    1    4    4    0    0 -0.25037655844E+02  0.31808003930E+02  0.11722598333E+02  0.42143239503E+02  0.00000000000E+00 0.  1.
         11    1    4    4    0    0 -0.37556429996E+01 -0.37858597324E+02  0.94361191347E+02  0.10174189244E+03  0.00000000000E+00 0. -1.
        -13    1    3    3    0    0 -0.11097143557E+02  0.47212467821E+02  0.16775475118E+02  0.51318420458E+02  0.00000000000E+00 0.  1.
         13    1    3    3    0    0  0.97615546801E+01 -0.41478472759E+02 -0.29467708941E+01  0.42713406688E+02  0.00000000000E+00 0. -1.
         21    1    1    2  502  501  0.30128887720E+02  0.31659833278E+00  0.18338983369E+02  0.35272771663E+02  0.00000000000E+00 0.  1.
<scales pt_clust_5="13000.00000" pt_clust_6="13000.00000" pt_clust_7="13000.00000" pt_clust_8="13000.00000" pt_clust_9="30.13055"></scales>
<clustering>
<clus scale="   30.131">  1  9  2 -1</clus>
<clus scale="   92.647">  5  6 -1 -1</clus>
<clus scale="   92.823">  7  8 -1 -1</clus>
<clus scale="   93.153">  1  5  2 -1</clus>
<clus scale="   30.131">  1  5  2 -1</clus>
</clustering>
</event>
<event>
 9    1  0.9000149E-006  0.1396545E+03  0.7546771E-02  0.1213957E+00
          3   -1    0    0  502    0  0.00000000000E+00  0.00000000000E+00  0.72484669130E+02  0.72484669130E+02  0.00000000000E+00 0. -1.
         -3   -1    0    0    0  501 -0.00000000000E+00 -0.00000000000E+00 -0.72220612542E+03  0.72220612542E+03  0.00000000000E+00 0.  1.
         23    2    1    2    0    0 -0.85254343314E+02 -0.82260708779E+02 -0.59760159921E+03  0.61586265502E+03  0.90133296847E+02 0.  0.
         23    2    1    2    0    0  0.41623210410E+02  0.33000785831E+02 -0.31862631460E+02  0.10997633522E+03  0.90873667888E+02 0.  0.
        -11    1    4    4    0    0 -0.13564725121E+02  0.37682443421E+02 -0.36775338641E+02  0.54372730683E+02  0.00000000000E+00 0.  1.
         11    1    4    4    0    0  0.55187935531E+02 -0.46816575908E+01  0.49127071809E+01  0.55603604540E+02  0.00000000000E+00 0. -1.
        -11    1    3    3    0    0  0.10185032423E+02 -0.35904053298E+02 -0.92649836418E+02  0.99884073390E+02  0.00000000000E+00 0. -1.
         11    1    3    3    0    0 -0.95439375737E+02 -0.46356655481E+02 -0.50495176279E+03  0.51597858163E+03  0.00000000000E+00 0.  1.
         21    1    1    2  502  501  0.43631132904E+02  0.49259922948E+02 -0.20257225621E+02  0.68851804313E+02  0.00000000000E+00 0.  1.
<scales pt_clust_5="13000.00000" pt_clust_6="13000.00000" pt_clust_7="13000.00000" pt_clust_8="13000.00000" pt_clust_9="65.80437"></scales>
<clustering>
<clus scale="   65.804">  1  9  2 -1</clus>
<clus scale="   90.133">  7  8 -1 -1</clus>
<clus scale="   90.874">  5  6 -1 -1</clus>
<clus scale="  139.174">  2  7  1 -1</clus>
<clus scale="   65.804">  1  5  2 -1</clus>
</clustering>
</event>
<event>
 9    1  0.9000149E-006  0.1026668E+03  0.7546771E-02  0.1275304E+00
          1   -1    0    0  502    0  0.00000000000E+00  0.00000000000E+00  0.38716735379E+03  0.38716735379E+03  0.00000000000E+00 0. -1.
         -1   -1    0    0    0  501 -0.00000000000E+00 -0.00000000000E+00 -0.38847126742E+02  0.38847126742E+02  0.00000000000E+00 0.  1.
         23    2    1    2    0    0  0.19769301617E+02  0.35028603693E+02  0.12212924597E+03  0.15839826487E+03  0.92502049866E+02 0.  0.
         23    2    1    2    0    0 -0.51200132337E+02 -0.21122275391E+02  0.15141286011E+03  0.18531767094E+03  0.91373852328E+02 0.  0.
        -11    1    4    4    0    0 -0.42232324299E+02  0.27510279679E+02  0.43362543905E+02  0.66488306623E+02  0.00000000000E+00 0.  1.
         11    1    4    4    0    0 -0.89678080387E+01 -0.48632555070E+02  0.10805031620E+03  0.11882936432E+03  0.00000000000E+00 0. -1.
        -13    1    3    3    0    0 -0.27367233279E+02  0.20546275594E+02  0.96056867850E+01  0.35544115079E+02  0.00000000000E+00 0.  1.
         13    1    3    3    0    0  0.47136534896E+02  0.14482328099E+02  0.11252355918E+03  0.12285414979E+03  0.00000000000E+00 0. -1.
         21    1    1    2  502  501  0.31430830721E+02 -0.13906328302E+02  0.74778120971E+02  0.82298544717E+02  0.00000000000E+00 0.  1.
<scales pt_clust_5="13000.00000" pt_clust_6="13000.00000" pt_clust_7="13000.00000" pt_clust_8="13000.00000" pt_clust_9="34.36980"></scales>
<clustering>
<clus scale="   34.370">  1  9  2 -1</clus>
<clus scale="   91.374">  5  6 -1 -1</clus>
<clus scale="   92.502">  7  8 -1 -1</clus>
<clus scale="  101.651">  1  5  2 -1</clus>
<clus scale="   34.370">  1  5  2 -1</clus>
</clustering>
</event>
<event>
 9    1  0.9000149E-006  0.1337853E+03  0.7546771E-02  0.1225883E+00
          3   -1    0    0  502    0  0.00000000000E+00  0.00000000000E+00  0.11533774771E+03  0.11533774771E+03  0.00000000000E+00 0. -1.
         -3   -1    0    0    0  501 -0.00000000000E+00 -0.00000000000E+00 -0.18329610337E+03  0.18329610337E+03  0.00000000000E+00 0.  1.
         23    2    1    2    0    0  0.44898967736E+02 -0.84830658324E+02 -0.56956871771E+02  0.15337235925E+03  0.10519903727E+03 0.  0.
         23    2    1    2    0    0 -0.23845704533E+02  0.65052078410E+02 -0.16438649519E+02  0.11586770193E+03  0.91404073334E+02 0.  0.
        -11    1    3    3    0    0  0.53390582571E+02 -0.73556516555E+01  0.45505628640E+01  0.54086666942E+02  0.00000000000E+00 0.  1.
         11    1    3    3    0    0 -0.84916148355E+01 -0.77475006668E+02 -0.61507434635E+02  0.99285692303E+02  0.00000000000E+00 0. -1.
        -11    1    4    4    0    0  0.78444363837E+01  0.79474915564E+02 -0.12355685118E+02  0.80811263701E+02  0.00000000000E+00 0. -1.
         11    1    4    4    0    0 -0.31690140917E+02 -0.14422837154E+02 -0.40829644011E+01  0.35056438228E+02  0.00000000000E+00 0.  1.
         21    1    1    2  502  501 -0.21053263202E+02  0.19778579914E+02  0.54371656317E+01  0.29393789905E+02  0.00000000000E+00 0. -1.
<scales pt_clust_5="13000.00000" pt_clust_6="13000.00000" pt_clust_7="13000.00000" pt_clust_8="13000.00000" pt_clust_9="28.88654"></scales>
<clustering>
<clus scale="   28.887">  1  9  2 -1</clus>
<clus scale="   91.404">  7  8 -1 -1</clus>
<clus scale="  105.199">  5  6 -1 -1</clus>
<clus scale="  123.233">  1  7  2 -1</clus>
<clus scale="   28.887">  1  5  2 -1</clus>
</clustering>
</event>
<event>
 9    1  0.9000149E-006  0.1159724E+03  0.7546771E-02  0.1255462E+00
         -1   -1    0    0    0  501 -0.00000000000E+00  0.00000000000E+00  0.15256578989E+03  0.15256578989E+03  0.00000000000E+00 0.  1.
          1   -1    0    0  502    0  0.00000000000E+00 -0.00000000000E+00 -0.32596849258E+03  0.32596849258E+03  0.00000000000E+00 0. -1.
         23    2    1    2    0    0 -0.47231308993E+02 -0.41896104920E+02  0.98003491280E+02  0.15499011897E+03  0.10213311176E+03 0.  0.
         23    2    1    2    0    0  0.34811545239E+02  0.12015376246E+01 -0.70222325605E+02  0.11791039383E+03  0.88081772145E+02 0.  0.
        -11    1    4    4    0    0 -0.27291235525E+02 -0.12276027047E+02 -0.31719812828E+02  0.43608014199E+02  0.00000000000E+00 0.  1.
         11    1    4    4    0    0  0.62102780763E+02  0.13477564672E+02 -0.38502512777E+02  0.74302379627E+02  0.00000000000E+00 0. -1.
        -13    1    3    3    0    0 -0.76785256991E+02 -0.26361499620E+02  0.88882687426E+02  0.12037872103E+03  0.00000000000E+00 0.  1.
         13    1    3    3    0    0  0.29553947998E+02 -0.15534605301E+02  0.91208038541E+01  0.34611397936E+02  0.00000000000E+00 0. -1.
         21    1    1    2  502  501  0.12419763754E+02  0.40694567296E+02 -0.20118386837E+03  0.20563376968E+03  0.00000000000E+00 0. -1.
<scales pt_clust_5="13000.00000" pt_clust_6="13000.00000" pt_clust_7="13000.00000" pt_clust_8="13000.00000" pt_clust_9="42.54760"></scales>
<clustering>
<clus scale="   42.548">  2  9  1 -1</clus>
<clus scale="   88.082">  5  6 -1 -1</clus>
<clus scale="  102.133">  7  8 -1 -1</clus>
<clus scale="  103.811">  2  5  1 -1</clus>
<clus scale="   42.548">  2  5  1 -1</clus>
</clustering>
</event>
<event>
 9    1  0.9000149E-006  0.1480997E+03  0.7546771E-02  0.1204922E+00
         -1   -1    0    0    0  501 -0.00000000000E+00  0.00000000000E+00  0.16263582826E+03  0.16263582826E+03  0.00000000000E+00 0.  1.
          1   -1    0    0  502    0  0.00000000000E+00 -0.00000000000E+00 -0.16618356841E+03  0.16618356841E+03  0.00000000000E+00 0. -1.
         23    2    1    2    0    0 -0.77347642460E+02  0.88799203623E+02  0.22173118511E+02  0.15707142209E+03  0.10154717178E+03 0.  0.
         23    2    1    2    0    0  0.72050465766E+02 -0.67081397985E+02  0.39193412254E+01  0.13462298823E+03  0.91743142257E+02 0.  0.
        -11    1    4    4    0    0  0.91284553024E+02 -0.60303018573E+02  0.16528913164E+02  0.11064596079E+03  0.00000000000E+00 0.  1.
         11    1    4    4    0    0 -0.19234087258E+02 -0.67783794128E+01 -0.12609571939E+02  0.23977027434E+02  0.00000000000E+00 0. -1.
        -13    1    3    3    0    0 -0.24119870733E+02  0.97166579633E+01  0.51198390302E+02  0.57423486272E+02  0.00000000000E+00 0.  1.
         13    1    3    3    0    0 -0.53227771727E+02  0.79082545659E+02 -0.29025271790E+02  0.99647935821E+02  0.00000000000E+00 0. -1.
         21    1    1    2  502  501  0.52971766937E+01 -0.21717805637E+02 -0.29640199886E+02  0.37124986355E+02  0.00000000000E+00 0.  1.
<scales pt_clust_5="13000.00000" pt_clust_6="13000.00000" pt_clust_7="13000.00000" pt_clust_8="13000.00000" pt_clust_9="22.35449"></scales>
<clustering>
<clus scale="   22.354">  2  9  1 -1</clus>
<clus scale="   91.743">  5  6 -1 -1</clus>
<clus scale="  101.547">  7  8 -1 -1</clus>
<clus scale="  141.557">  2  5  1 -1</clus>
<clus scale="   22.354">  2  5  1 -1</clus>
</clustering>
</event>
<event>
 9    1  0.9000149E-006  0.3868289E+03  0.7546771E-02  0.1048467E+00
          2   -1    0    0  502    0  0.00000000000E+00  0.00000000000E+00  0.34329204956E+03  0.34329204956E+03  0.00000000000E+00 0. -1.
         -2   -1    0    0    0  501 -0.00000000000E+00 -0.00000000000E+00 -0.47399942835E+03  0.47399942835E+03  0.00000000000E+00 0.  1.
         23    2    1    2    0    0 -0.27952104334E+02  0.36857552963E+03 -0.10838448615E+03  0.39547233279E+03  0.89565216342E+02 0.  0.
         23    2    1    2    0    0  0.74225371452E+01 -0.38453299528E+03 -0.21850469869E+02  0.39581285700E+03  0.90937650187E+02 0.  0.
        -11    1    3    3    0    0  0.23378443107E+02  0.42859875818E+02 -0.27210355601E+02  0.55892074655E+02  0.00000000000E+00 0. -1.
         11    1    3    3    0    0 -0.51330547441E+02  0.32571565382E+03 -0.81174130551E+02  0.33958025813E+03  0.00000000000E+00 0.  1.
        -13    1    4    4    0    0  0.30280712245E+02 -0.35727046562E+03 -0.11400399014E+02  0.35873259712E+03  0.00000000000E+00 0. -1.
         13    1    4    4    0    0 -0.22858175100E+02 -0.27262529655E+02 -0.10450070855E+02  0.37080259883E+02  0.00000000000E+00 0.  1.
         21    1    1    2  502  501  0.20529567189E+02  0.15957465641E+02 -0.47242276752E+00  0.26006288122E+02  0.00000000000E+00 0. -1.
<scales pt_clust_5="13000.00000" pt_clust_6="13000.00000" pt_clust_7="13000.00000" pt_clust_8="13000.00000" pt_clust_9="26.00200"></scales>
<clustering>
<clus scale="   26.002">  1  9  2 -1</clus>
<clus scale="   89.565">  5  6 -1 -1</clus>
<clus scale="   90.938">  7  8 -1 -1</clus>
<clus scale="  386.509">  2  5  1 -1</clus>
<clus scale="   26.002">  1  5  2 -1</clus>
</clustering>
</event>
<event>
 9    1  0.9000149E-006  0.9667338E+02  0.7546771E-02  0.1288917E+00
          1   -1    0    0  502    0  0.00000000000E+00  0.00000000000E+00  0.37589825090E+03  0.37589825090E+03  0.00000000000E+00 0. -1.
         -1   -1    0    0    0  501 -0.00000000000E+00 -0.00000000000E+00 -0.41253636564E+02  0.41253636564E+02  0.00000000000E+00 0.  1.
         23    2    1    2    0    0  0.28107442238E+02 -0.11640716438E+02  0.57628911921E+02  0.11020201498E+03  0.88869893823E+02 0.  0.
         23    2    1    2    0    0 -0.37311920330E+02 -0.16698103000E+02  0.23414048572E+03  0.25473784982E+03  0.91643870693E+02 0.  0.
        -11    1    4    4    0    0 -0.86443686802E+01  0.31926147974E+02  0.36783437974E+02  0.49467416989E+02  0.00000000000E+00 0.  1.
         11    1    4    4    0    0 -0.28667551649E+02 -0.48624250973E+02  0.19735704774E+03  0.20527043283E+03  0.00000000000E+00 0. -1.
        -11    1    3    3    0    0  0.13194119723E+02 -0.50461156530E+02  0.35520980604E+02  0.63104303948E+02  0.00000000000E+00 0.  1.
         11    1    3    3    0    0  0.14913322515E+02  0.38820440092E+02  0.22107931317E+02  0.47097711033E+02  0.00000000000E+00 0. -1.
         21    1    1    2  502  501  0.92044780914E+01  0.28338819438E+02  0.42875216701E+02  0.52212022670E+02  0.00000000000E+00 0.  1.
<scales pt_clust_5="13000.00000" pt_clust_6="13000.00000" pt_clust_7="13000.00000" pt_clust_8="13000.00000" pt_clust_9="29.79616"></scales>
<clustering>
<clus scale="   29.796">  1  9  2 -1</clus>
<clus scale="   88.870">  7  8 -1 -1</clus>
<clus scale="   91.644">  5  6 -1 -1</clus>
<clus scale="   94.048">  2  7  1 -1</clus>
<clus scale="   29.796">  1  5  2 -1</clus>
</clustering>
</event>
<event>
 9    1  0.9000149E-006  0.1219576E+03  0.7546771E-02  0.1248128E+00
         -2   -1    0    0    0  501 -0.00000000000E+00  0.00000000000E+00  0.26134309951E+03  0.26134309951E+03  0.00000000000E+00 0.  1.
          2   -1    0    0  502    0  0.00000000000E+00 -0.00000000000E+00 -0.94443522575E+02  0.94443522575E+02  0.00000000000E+00 0. -1.
         23    2    1    2    0    0  0.28199145666E+02 -0.59337394907E+02  0.19742118912E+03  0.23323148307E+03  0.10538349270E+03 0.  0.
         23    2    1    2    0    0 -0.91289020192E+01  0.46629710630E+02 -0.26132017019E+02  0.99222158534E+02  0.83093246808E+02 0.  0.
        -11    1    3    3    0    0 -0.13548962257E+02 -0.63777842501E+02  0.56784517475E+02  0.86461951153E+02  0.00000000000E+00 0.  1.
         11    1    3    3    0    0  0.41748107923E+02  0.44404475933E+01  0.14063667164E+03  0.14676953192E+03  0.00000000000E+00 0. -1.
        -13    1    4    4    0    0 -0.33319109291E+02 -0.58354918538E+01 -0.23877652869E+02  0.41404810296E+02  0.00000000000E+00 0.  1.
         13    1    4    4    0    0  0.24190207272E+02  0.52465202484E+02 -0.22543641501E+01  0.57817348238E+02  0.00000000000E+00 0. -1.
         21    1    1    2  502  501 -0.19070243647E+02  0.12707684277E+02 -0.43895951594E+01  0.23332980480E+02  0.00000000000E+00 0.  1.
<scales pt_clust_5="13000.00000" pt_clust_6="13000.00000" pt_clust_7="13000.00000" pt_clust_8="13000.00000" pt_clust_9="22.91636"></scales>
<clustering>
<clus scale="   22.916">  2  9  1 -1</clus>
<clus scale="   83.093">  7  8 -1 -1</clus>
<clus scale="  103.308">  2  7  1 -1</clus>
<clus scale="  105.383">  5  6 -1 -1</clus>
<clus scale="   22.916">  2  5  1 -1</clus>
</clustering>
</event>
<event>
 9    1  0.9000149E-006  0.1220696E+03  0.7546771E-02  0.1239860E+00
         -1   -1    0    0    0  501 -0.00000000000E+00  0.00000000000E+00  0.60743324036E+02  0.60743324036E+02  0.00000000000E+00 0.  1.
          1   -1    0    0  502    0  0.00000000000E+00 -0.00000000000E+00 -0.35441524477E+03  0.35441524477E+03  0.00000000000E+00 0. -1.
         23    2    1    2    0    0 -0.46640741205E+02  0.76124088823E+02 -0.54042976898E+02  0.13883891917E+03  0.91571646727E+02 0.  0.
         23    2    1    2    0    0  0.35497909791E+02 -0.51878740547E+02 -0.18678357826E+03  0.21711971495E+03  0.91111800499E+02 0.  0.
        -13    1    3    3    0    0 -0.38599145266E+02  0.56127846759E+02 -0.80018263517E+02  0.10508640109E+03  0.00000000000E+00 0. -1.
         13    1    3    3    0    0 -0.80415959393E+01  0.19996242063E+02  0.25975286618E+02  0.33752518081E+02  0.00000000000E+00 0.  1.
        -13    1    4    4    0    0  0.55880864838E+02 -0.20839120067E+02 -0.58391895624E+02  0.83465881981E+02  0.00000000000E+00 0.  1.
         13    1    4    4    0    0 -0.20382955048E+02 -0.31039620479E+02 -0.12839168264E+03  0.13365383297E+03  0.00000000000E+00 0. -1.
         21    1    1    2  502  501  0.11142831415E+02 -0.24245348276E+02 -0.52845365579E+02  0.59199934697E+02  0.00000000000E+00 0. -1.
<scales pt_clust_5="13000.00000" pt_clust_6="13000.00000" pt_clust_7="13000.00000" pt_clust_8="13000.00000" pt_clust_9="26.68332"></scales>
<clustering>
<clus scale="   26.683">  2  9  1 -1</clus>
<clus scale="   91.112">  7  8 -1 -1</clus>
<clus scale="   91.572">  5  6 -1 -1</clus>
<clus scale="  121.725">  2  7  1 -1</clus>
<clus scale="   26.683">  2  5  1 -1</clus>
</clustering>
</event>
<event>
 9    1  0.9000149E-006  0.9050726E+02  0.7546771E-02  0.1302032E+00
         -1   -1    0    0    0  501 -0.00000000000E+00  0.00000000000E+00  0.88452246236E+02  0.88452246236E+02  0.00000000000E+00 0.  1.
          1   -1    0    0  502    0  0.00000000000E+00 -0.00000000000E+00 -0.20103970398E+03  0.20103970398E+03  0.00000000000E+00 0. -1.
         23    2    1    2    0    0  0.24010718188E+01 -0.26415648418E+01  0.39984355405E+02  0.98995878547E+02  0.90491393410E+02 0.  0.
         23    2    1    2    0    0  0.16535123476E+02 -0.49976670963E+01 -0.10840416846E+03  0.14183686705E+03  0.89821189762E+02 0.  0.
        -11    1    3    3    0    0 -0.19311249594E+02 -0.36577001798E+02 -0.12056837989E+01  0.41379404235E+02  0.00000000000E+00 0.  1.
         11    1    3    3    0    0  0.21712321413E+02  0.33935436956E+02  0.41190039204E+02  0.57616474312E+02  0.00000000000E+00 0. -1.
        -13    1    4    4    0    0  0.14211554181E+02 -0.43164100299E+02 -0.86653079246E+02  0.97846123938E+02  0.00000000000E+00 0.  1.
         13    1    4    4    0    0  0.23235692948E+01  0.38166433203E+02 -0.21751089218E+02  0.43990743116E+02  0.00000000000E+00 0. -1.
         21    1    1    2  502  501 -0.18936195295E+02  0.76392319381E+01 -0.44167644685E+02  0.48659204616E+02  0.00000000000E+00 0.  1.
<scales pt_clust_5="13000.00000" pt_clust_6="13000.00000" pt_clust_7="13000.00000" pt_clust_8="13000.00000" pt_clust_9="20.41904"></scales>
<clustering>
<clus scale="   20.419">  2  9  1 -1</clus>
<clus scale="   89.821">  7  8 -1 -1</clus>
<clus scale="   89.837">  2  7  1 -1</clus>
<clus scale="   90.491">  5  6 -1 -1</clus>
<clus scale="   20.419">  2  5  1 -1</clus>
</clustering>
</event>
<event>
 9    1  0.9000149E-006  0.1093257E+03  0.7546771E-02  0.1262094E+00
          1   -1    0    0  502    0  0.00000000000E+00  0.00000000000E+00  0.23327541237E+03  0.23327541237E+03  0.00000000000E+00 0. -1.
         -1   -1    0    0    0  501 -0.00000000000E+00 -0.00000000000E+00 -0.95491921726E+02  0.95491921726E+02  0.00000000000E+00 0.  1.
         23    2    1    2    0    0 -0.81800491912E+02  0.29049855201E+01  0.36287284450E+02  0.12781461022E+03  0.91214297974E+02 0.  0.
         23    2    1    2    0    0  0.26957856223E+02 -0.44691500285E+02  0.61307498863E+02  0.12114696154E+03  0.90520277639E+02 0.  0.
        -11    1    4    4    0    0  0.57525532952E+01 -0.67617586567E+02  0.58843025817E+02  0.89820552046E+02  0.00000000000E+00 0.  1.
         11    1    4    4    0    0  0.21205302928E+02  0.22926086282E+02  0.24644730468E+01  0.31326409495E+02  0.00000000000E+00 0. -1.
        -13    1    3    3    0    0 -0.53435920206E+02  0.20142400284E+02 -0.21626206939E+02  0.61063955686E+02  0.00000000000E+00 0.  1.
         13    1    3    3    0    0 -0.28364571706E+02 -0.17237414764E+02  0.57913491389E+02  0.66750654534E+02  0.00000000000E+00 0. -1.
         21    1    1    2  502  501  0.54842635689E+02  0.41786514765E+02  0.40188707335E+02  0.79805762341E+02  0.00000000000E+00 0. -1.
<scales pt_clust_5="13000.00000" pt_clust_6="13000.00000" pt_clust_7="13000.00000" pt_clust_8="13000.00000" pt_clust_9="68.94801"></scales>
<clustering>
<clus scale="   68.948">  1  9  2 -1</clus>
<clus scale="   90.520">  5  6 -1 -1</clus>
<clus scale="   91.214">  7  8 -1 -1</clus>
<clus scale="  108.747">  1  5  2 -1</clus>
<clus scale="   68.948">  1  5  2 -1</clus>
</clustering>
</event>
<event>
 9    1  0.9000149E-006  0.1324456E+03  0.7546771E-02  0.1236763E+00
         -1   -1    0    0    0  501 -0.00000000000E+00  0.00000000000E+00  0.33089048389E+02  0.33089048389E+02  0.00000000000E+00 0.  1.
          1   -1    0    0  502    0  0.00000000000E+00 -0.00000000000E+00 -0.11530597547E+04  0.11530597547E+04  0.00000000000E+00 0. -1.
         23    2    1    2    0    0 -0.53657373748E+01 -0.43652150502E+02 -0.17945571950E+03  0.20617419758E+03  0.91483020863E+02 0.  0.
         23    2    1    2    0    0  0.51846779904E+02 -0.47066424370E+02 -0.18756268735E+03  0.22015389481E+03  0.91567673471E+02 0.  0.
        -11    1    4    4    0    0  0.11509828115E+02  0.26603611977E+02 -0.30710483198E+02  0.42229872031E+02  0.00000000000E+00 0. -1.
         11    1    4    4    0    0  0.40336951789E+02 -0.73670036346E+02 -0.15685220415E+03  0.17792402278E+03  0.00000000000E+00 0.  1.
        -11    1    3    3    0    0 -0.43526663479E+02 -0.21966699135E+02 -0.51583061644E+02  0.70978296352E+02  0.00000000000E+00 0.  1.
         11    1    3    3    0    0  0.38160926104E+02 -0.21685451367E+02 -0.12787265786E+03  0.13519590123E+03  0.00000000000E+00 0. -1.
         21    1    1    2  502  501 -0.46481042529E+02  0.90718574872E+02 -0.75295229944E+03  0.75982071068E+03  0.00000000000E+00 0. -1.
<scales pt_clust_5="13000.00000" pt_clust_6="13000.00000" pt_clust_7="13000.00000" pt_clust_8="13000.00000" pt_clust_9="95.69318"></scales>
<clustering>
<clus scale="   91.483">  7  8 -1 -1</clus>
<clus scale="   91.568">  5  6 -1 -1</clus>
<clus scale="  101.506">  1  7  2 -1</clus>
<clus scale="   95.693">  2  9  1 -1</clus>
<clus scale="   95.693">  2  5  1 -1</clus>
</clustering>
</event>
<event>
 9    1  0.9000149E-006  0.1147933E+03  0.7546771E-02  0.1252528E+00
         -1   -1    0    0    0  501 -0.00000000000E+00  0.00000000000E+00  0.24685054941E+03  0.24685054941E+03  0.00000000000E+00 0.  1.
          1   -1    0    0  502    0  0.00000000000E+00 -0.00000000000E+00 -0.85914249078E+02  0.85914249078E+02  0.00000000000E+00 0. -1.
         23    2    1    2    0    0 -0.58256559516E+02  0.65848816233E+00  0.12375505567E+03  0.16597996512E+03  0.94020075976E+02 0.  0.
         23    2    1    2    0    0  0.79802779289E+02  0.18351729107E+02  0.52578264181E+02  0.13418581256E+03  0.92390956728E+02 0.  0.
        -11    1    4    4    0    0  0.45106029753E+02  0.28219034388E+02  0.74818835044E+02  0.91808092776E+02  0.00000000000E+00 0.  1.
         11    1    4    4    0    0  0.34696749536E+02 -0.98673052808E+01 -0.22240570863E+02  0.42377719785E+02  0.00000000000E+00 0. -1.
        -13    1    3    3    0    0 -0.24851603982E+01 -0.34889029086E+02  0.78217972934E+02  0.85682388287E+02  0.00000000000E+00 0. -1.
         13    1    3    3    0    0 -0.55771399118E+02  0.35547517248E+02  0.45537082732E+02  0.80297576836E+02  0.00000000000E+00 0.  1.
         21    1    1    2  502  501 -0.21546219773E+02 -0.19010217270E+02 -0.15397019517E+02  0.32599020801E+02  0.00000000000E+00 0.  1.
<scales pt_clust_5="13000.00000" pt_clust_6="13000.00000" pt_clust_7="13000.00000" pt_clust_8="13000.00000" pt_clust_9="28.73374"></scales>
<clustering>
<clus scale="   28.734">  2  9  1 -1</clus>
<clus scale="   92.391">  5  6 -1 -1</clus>
<clus scale="   94.020">  7  8 -1 -1</clus>
<clus scale="  113.463">  2  5  1 -1</clus>
<clus scale="   28.734">  2  5  1 -1</clus>
</clustering>
</event>
<event>
 9    1  0.9000149E-006  0.9448238E+02  0.7546771E-02  0.1295022E+00
          2   -1    0    0  502    0  0.00000000000E+00  0.00000000000E+00  0.15643800675E+03  0.15643800675E+03  0.00000000000E+00 0. -1.
         -2   -1    0    0    0  501 -0.00000000000E+00 -0.00000000000E+00 -0.51049607554E+03  0.51049607554E+03  0.00000000000E+00 0.  1.
         23    2    1    2    0    0 -0.26497830010E+02 -0.18510379860E+02 -0.42638494961E+03  0.43625673293E+03  0.86435193168E+02 0.  0.
         23    2    1    2    0    0 -0.18248183572E+02 -0.12085655481E+02 -0.43051396448E+02  0.10320001814E+03  0.91201763886E+02 0.  0.
        -11    1    3    3    0    0 -0.25390808251E+02  0.32370604293E+02 -0.17484595675E+03  0.17962087228E+03  0.00000000000E+00 0. -1.
         11    1    3    3    0    0 -0.11070217594E+01 -0.50880984153E+02 -0.25153899286E+03  0.25663586065E+03  0.00000000000E+00 0.  1.
        -11    1    4    4    0    0  0.21788371072E+02 -0.33629297037E+02 -0.41530076923E+02  0.57709704750E+02  0.00000000000E+00 0. -1.
         11    1    4    4    0    0 -0.40036554644E+02  0.21543641555E+02 -0.15213195251E+01  0.45490313390E+02  0.00000000000E+00 0.  1.
         21    1    1    2  502  501  0.44746013582E+02  0.30596035341E+02  0.11537827726E+03  0.12747733121E+03  0.00000000000E+00 0. -1.
<scales pt_clust_5="13000.00000" pt_clust_6="13000.00000" pt_clust_7="13000.00000" pt_clust_8="13000.00000" pt_clust_9="54.20630"></scales>
<clustering>
<clus scale="   54.206">  1  9  2 -1</clus>
<clus scale="   86.435">  5  6 -1 -1</clus>
<clus scale="   89.890">  2  5  1 -1</clus>
<clus scale="   91.202">  7  8 -1 -1</clus>
<clus scale="   54.206">  1  5  2 -1</clus>
</clustering>
</event>
<event>
 9    1  0.9000149E-006  0.1021245E+03  0.7546771E-02  0.1276209E+00
         -3   -1    0    0    0  501 -0.00000000000E+00  0.00000000000E+00  0.59405640000E+03  0.59405640000E+03  0.00000000000E+00 0.  1.
          3   -1    0    0  502    0  0.00000000000E+00 -0.00000000000E+00 -0.25021921441E+02  0.25021921441E+02  0.00000000000E+00 0. -1.
         23    2    1    2    0    0  0.36901576580E+02  0.33941871728E+02  0.39432918989E+03  0.40786049745E+03  0.91328518934E+02 0.  0.
         23    2    1    2    0    0 -0.35416303349E+02 -0.13679652927E+02  0.14829344989E+03  0.17789592766E+03  0.90634244914E+02 0.  0.
        -11    1    4    4    0    0 -0.34931707193E+02  0.20177557735E+02  0.13602566747E+03  0.14188143012E+03  0.00000000000E+00 0.  1.
         11    1    4    4    0    0 -0.48459615556E+00 -0.33857210662E+02  0.12267782418E+02  0.36014497535E+02  0.00000000000E+00 0. -1.
        -11    1    3    3    0    0  0.37856650606E+02  0.55437392797E+02  0.36694181905E+03  0.37303180706E+03  0.00000000000E+00 0.  1.
         11    1    3    3    0    0 -0.95507402616E+00 -0.21495521069E+02  0.27387370845E+02  0.34828690389E+02  0.00000000000E+00 0. -1.
         21    1    1    2  502  501 -0.14852732312E+01 -0.20262218801E+02  0.26411838779E+02  0.33321896330E+02  0.00000000000E+00 0. -1.
<scales pt_clust_5="13000.00000" pt_clust_6="13000.00000" pt_clust_7="13000.00000" pt_clust_8="13000.00000" pt_clust_9="20.31658"></scales>
<clustering>
<clus scale="   20.317">  2  9  1 -1</clus>
<clus scale="   90.634">  5  6 -1 -1</clus>
<clus scale="   91.329">  7  8 -1 -1</clus>
<clus scale="  101.504">  2  5  1 -1</clus>
<clus scale="   20.317">  2  5  1 -1</clus>
</clustering>
</event>
<event>
 9    1  0.9000149E-006  0.1078545E+03  0.7546771E-02  0.1264826E+00
         -3   -1    0    0    0  501 -0.00000000000E+00  0.00000000000E+00  0.35906351540E+03  0.35906351540E+03  0.00000000000E+00 0.  1.
          3   -1    0    0  502    0  0.00000000000E+00 -0.00000000000E+00 -0.43853159693E+02  0.43853159693E+02  0.00000000000E+00 0. -1.
         23    2    1    2    0    0 -0.46773550540E+02 -0.50963919954E+02  0.18790394644E+03  0.22028660244E+03  0.91832499473E+02 0.  0.
         23    2    1    2    0    0  0.31828542480E+02  0.27235803028E+02  0.11292372034E+03  0.15111438545E+03  0.91263058209E+02 0.  0.
        -13    1    4    4    0    0  0.43459868178E+02 -0.22715041123E+02  0.51951266698E+02  0.71439956234E+02  0.00000000000E+00 0.  1.
         13    1    4    4    0    0 -0.11631325698E+02  0.49950844150E+02  0.60972453639E+02  0.79674429221E+02  0.00000000000E+00 0. -1.
        -13    1    3    3    0    0 -0.72414416675E+02 -0.38561217190E+02  0.10918429407E+03  0.13657241773E+03  0.00000000000E+00 0. -1.
         13    1    3    3    0    0  0.25640866135E+02 -0.12402702764E+02  0.78719652372E+02  0.83714184710E+02  0.00000000000E+00 0.  1.
         21    1    1    2  502  501  0.14945008059E+02  0.23728116926E+02  0.14382688932E+02  0.31515687200E+02  0.00000000000E+00 0. -1.
<scales pt_clust_5="13000.00000" pt_clust_6="13000.00000" pt_clust_7="13000.00000" pt_clust_8="13000.00000" pt_clust_9="28.04241"></scales>
<clustering>
<clus scale="   28.042">  2  9  1 -1</clus>
<clus scale="   91.263">  5  6 -1 -1</clus>
<clus scale="   91.832">  7  8 -1 -1</clus>
<clus scale="  107.370">  2  5  1 -1</clus>
<clus scale="   28.042">  2  5  1 -1</clus>
</clustering>
</event>
<event>
 9    1  0.9000149E-006  0.2301237E+03  0.7546771E-02  0.1127576E+00
          2   -1    0    0  502    0  0.00000000000E+00  0.00000000000E+00  0.83963538424E+03  0.83963538424E+03  0.00000000000E+00 0.  1.
         -2   -1    0    0    0  501 -0.00000000000E+00 -0.00000000000E+00 -0.25725469101E+03  0.25725469101E+03  0.00000000000E+00 0. -1.
         23    2    1    2    0    0  0.95057165201E+02  0.22584383713E+03 -0.10521914789E+03  0.28621461156E+03  0.10395398676E+03 0.  0.
         23    2    1    2    0    0 -0.74980337483E+02 -0.12816661069E+03  0.73961200531E+02  0.18898719712E+03  0.90538226100E+02 0.  0.
        -13    1    4    4    0    0 -0.10921723166E+02 -0.63846035728E+02  0.73820238908E+02  0.98209103384E+02  0.00000000000E+00 0.  1.
         13    1    4    4    0    0 -0.64058614317E+02 -0.64320574964E+02  0.14096162392E+00  0.90778093735E+02  0.00000000000E+00 0. -1.
        -13    1    3    3    0    0  0.52837777902E+02  0.23897193845E+02 -0.94416145733E+01  0.58754155028E+02  0.00000000000E+00 0.  1.
         13    1    3    3    0    0  0.42219387298E+02  0.20194664328E+03 -0.95777533313E+02  0.22746045653E+03  0.00000000000E+00 0. -1.
         21    1    1    2  502  501 -0.20076827717E+02 -0.97677226437E+02  0.61363864058E+03  0.62168826657E+03  0.00000000000E+00 0.  1.
<scales pt_clust_5="13000.00000" pt_clust_6="13000.00000" pt_clust_7="13000.00000" pt_clust_8="13000.00000" pt_clust_9="99.71920"></scales>
<clustering>
<clus scale="   90.538">  5  6 -1 -1</clus>
<clus scale="   99.719">  1  9  2 -1</clus>
<clus scale="  103.954">  7  8 -1 -1</clus>
<clus scale="  224.383">  1  5  2 -1</clus>
<clus scale="   99.719">  1  5  2 -1</clus>
</clustering>
</event>
<event>
 9    1  0.9000149E-006  0.1557635E+03  0.7546771E-02  0.1193993E+00
          1   -1    0    0  502    0  0.00000000000E+00  0.00000000000E+00  0.20785185384E+03  0.20785185384E+03  0.00000000000E+00 0. -1.
         -1   -1    0    0    0  501 -0.00000000000E+00 -0.00000000000E+00 -0.24434454852E+03  0.24434454852E+03  0.00000000000E+00 0.  1.
         23    2    1    2    0    0  0.55615771683E+01  0.10952594456E+03 -0.70088469982E+02  0.15855315891E+03  0.90553006055E+02 0.  0.
         23    2    1    2    0    0  0.92341223906E+01 -0.15033308217E+03 -0.64800415919E+02  0.18609815685E+03  0.88023437052E+02 0.  0.
        -13    1    3    3    0    0 -0.13730286308E+02  0.77221354479E+02 -0.87143383527E+02  0.11724174872E+03  0.00000000000E+00 0.  1.
         13    1    3    3    0    0  0.19291863476E+02  0.32304590077E+02  0.17054913545E+02  0.41311410197E+02  0.00000000000E+00 0. -1.
        -13    1    4    4    0    0  0.39781727275E+02 -0.30135874784E+02 -0.25214247133E+02  0.55915248658E+02  0.00000000000E+00 0. -1.
         13    1    4    4    0    0 -0.30547604885E+02 -0.12019720738E+03 -0.39586168786E+02  0.13018290819E+03  0.00000000000E+00 0.  1.
         21    1    1    2  502  501 -0.14795699559E+02  0.40807137611E+02  0.98396191218E+02  0.10754508660E+03  0.00000000000E+00 0. -1.
<scales pt_clust_5="13000.00000" pt_clust_6="13000.00000" pt_clust_7="13000.00000" pt_clust_8="13000.00000" pt_clust_9="43.40663"></scales>
<clustering>
<clus scale="   43.407">  1  9  2 -1</clus>
<clus scale="   88.023">  7  8 -1 -1</clus>
<clus scale="   90.553">  5  6 -1 -1</clus>
<clus scale="  154.307">  1  7  2 -1</clus>
<clus scale="   43.407">  1  5  2 -1</clus>
</clustering>
</event>
<event>
 9    1  0.9000149E-006  0.9673266E+02  0.7546771E-02  0.1289806E+00
          1   -1    0    0  502    0  0.00000000000E+00  0.00000000000E+00  0.32153262805E+02  0.32153262805E+02  0.00000000000E+00 0. -1.
         -1   -1    0    0    0  501 -0.00000000000E+00 -0.00000000000E+00 -0.48466930172E+03  0.48466930172E+03  0.00000000000E+00 0.  1.
         23    2    1    2    0    0  0.29884666873E+02 -0.95343075508E+00 -0.26902992896E+03  0.28558915594E+03  0.91049771966E+02 0.  0.
         23    2    1    2    0    0 -0.46134349373E+00 -0.17782658854E+02 -0.94000415751E+02  0.13518934328E+03  0.95517771018E+02 0.  0.
        -11    1    3    3    0    0  0.60372779545E+02  0.10836183871E+02 -0.20031154475E+03  0.20949226799E+03  0.00000000000E+00 0.  1.
         11    1    3    3    0    0 -0.30488112672E+02 -0.11789614626E+02 -0.68718384209E+02  0.76096887950E+02  0.00000000000E+00 0. -1.
        -13    1    4    4    0    0 -0.17285416797E+02 -0.49648818445E+02 -0.81623012285E+02  0.97088140065E+02  0.00000000000E+00 0.  1.
         13    1    4    4    0    0  0.16824073303E+02  0.31866159590E+02 -0.12377403466E+02  0.38101203211E+02  0.00000000000E+00 0. -1.
         21    1    1    2  502  501 -0.29423323379E+02  0.18736089609E+02 -0.89485694210E+02  0.96044065307E+02  0.00000000000E+00 0. -1.
<scales pt_clust_5="13000.00000" pt_clust_6="13000.00000" pt_clust_7="13000.00000" pt_clust_8="13000.00000" pt_clust_9="34.88227"></scales>
<clustering>
<clus scale="   34.882">  2  9  1 -1</clus>
<clus scale="   91.050">  5  6 -1 -1</clus>
<clus scale="   92.323">  2  5  1 -1</clus>
<clus scale="   95.518">  7  8 -1 -1</clus>
<clus scale="   96.733">  1  5  2 -1</clus>
</clustering>
</event>
<event>
 9    1  0.9000149E-006  0.9771246E+02  0.7546771E-02  0.1285324E+00
          1   -1    0    0  502    0  0.00000000000E+00  0.00000000000E+00  0.64929648432E+02  0.64929648432E+02  0.00000000000E+00 0. -1.
         -1   -1    0    0    0  501 -0.00000000000E+00 -0.00000000000E+00 -0.32842647872E+03  0.32842647872E+03  0.00000000000E+00 0.  1.
         23    2    1    2    0    0 -0.22490388639E+02 -0.11917346016E+02 -0.17479168913E+03  0.19816377876E+03  0.89827100064E+02 0.  0.
         23    2    1    2    0    0  0.68015044370E+02  0.11364608782E+02 -0.96975604049E+02  0.14891924222E+03  0.89540339126E+02 0.  0.
        -11    1    3    3    0    0  0.26529677986E+02  0.15646997031E+02 -0.99688493798E+02  0.10433814320E+03  0.00000000000E+00 0.  1.
         11    1    3    3    0    0 -0.49020066625E+02 -0.27564343047E+02 -0.75103195336E+02  0.93825635565E+02  0.00000000000E+00 0. -1.
        -13    1    4    4    0    0  0.13849342827E+02 -0.23618783424E+02 -0.76521196666E+02  0.81272041726E+02  0.00000000000E+00 0.  1.
         13    1    4    4    0    0  0.54165701543E+02  0.34983392206E+02 -0.20454407383E+02  0.67647200499E+02  0.00000000000E+00 0. -1.
         21    1    1    2  502  501 -0.45524655731E+02  0.55273723359E+00  0.82704628929E+01  0.46273106167E+02  0.00000000000E+00 0. -1.
<scales pt_clust_5="13000.00000" pt_clust_6="13000.00000" pt_clust_7="13000.00000" pt_clust_8="13000.00000" pt_clust_9="45.52801"></scales>
<clustering>
<clus scale="   45.528">  1  9  2 -1</clus>
<clus scale="   89.540">  7  8 -1 -1</clus>
<clus scale="   89.827">  5  6 -1 -1</clus>
<clus scale="   97.449">  1  7  2 -1</clus>
<clus scale="   45.528">  1  5  2 -1</clus>
</clustering>
</event>
<event>
 9    1  0.9000149E-006  0.1205670E+03  0.7546771E-02  0.1242488E+00
         -2   -1    0    0    0  501 -0.00000000000E+00  0.00000000000E+00  0.27183120594E+03  0.27183120594E+03  0.00000000000E+00 0.  1.
          2   -1    0    0  502    0  0.00000000000E+00 -0.00000000000E+00 -0.10232623022E+03  0.10232623022E+03  0.00000000000E+00 0. -1.
         23    2    1    2    0    0  0.63845186955E+02 -0.20830595619E+02  0.97357398775E+02  0.14792487578E+03  0.88843593840E+02 0.  0.
         23    2    1    2    0    0 -0.97369726356E+02  0.80613653563E+01  0.11121279749E+03  0.17319446614E+03  0.89900987505E+02 0.  0.
        -11    1    4    4    0    0 -0.61024270173E+02  0.48822623428E+02  0.64564610495E+02  0.10137158890E+03  0.00000000000E+00 0. -1.
         11    1    4    4    0    0 -0.36345456183E+02 -0.40761258072E+02  0.46648186999E+02  0.71822877240E+02  0.00000000000E+00 0.  1.
        -11    1    3    3    0    0  0.37019265325E+02 -0.50870174232E+02  0.85091666775E+02  0.10582434685E+03  0.00000000000E+00 0.  1.
         11    1    3    3    0    0  0.26825921631E+02  0.30039578612E+02  0.12265732000E+02  0.42100528928E+02  0.00000000000E+00 0. -1.
         21    1    1    2  502  501  0.33524539400E+02  0.12769230263E+02 -0.39065220552E+02  0.53038094237E+02  0.00000000000E+00 0. -1.
<scales pt_clust_5="13000.00000" pt_clust_6="13000.00000" pt_clust_7="13000.00000" pt_clust_8="13000.00000" pt_clust_9="35.87406"></scales>
<clustering>
<clus scale="   35.874">  2  9  1 -1</clus>
<clus scale="   88.844">  7  8 -1 -1</clus>
<clus scale="   89.901">  5  6 -1 -1</clus>
<clus scale="  119.781">  1  7  2 -1</clus>
<clus scale="   35.874">  2  5  1 -1</clus>
</clustering>
</event>
<event>
 9    1  0.9000149E-006  0.1161960E+03  0.7546771E-02  0.1257785E+00
          2   -1    0    0  502    0  0.00000000000E+00  0.00000000000E+00  0.31676713619E+03  0.31676713619E+03  0.00000000000E+00 0. -1.
         -2   -1    0    0    0  501 -0.00000000000E+00 -0.00000000000E+00 -0.10761419955E+03  0.10761419955E+03  0.00000000000E+00 0.  1.
         23    2    1    2    0    0 -0.48742757101E+02  0.12805099963E+02 -0.59920166082E+02  0.11721746237E+03  0.87233481114E+02 0.  0.
         23    2    1    2    0    0  0.89023367878E+01 -0.10436561405E+02  0.20831935212E+03  0.23447352134E+03  0.10673662131E+03 0.  0.
        -13    1    4    4    0    0 -0.47124656076E+02  0.37320090126E+01  0.68963893340E+02  0.83610284572E+02  0.00000000000E+00 0.  1.
         13    1    4    4    0    0  0.56026992864E+02 -0.14168570418E+02  0.13935545878E+03  0.15086323677E+03  0.00000000000E+00 0. -1.
        -13    1    3    3    0    0 -0.72340381243E+02  0.12966627425E+02 -0.30673031341E+02  0.79637296770E+02  0.00000000000E+00 0.  1.
         13    1    3    3    0    0  0.23597624142E+02 -0.16152746230E+00 -0.29247134740E+02  0.37580165604E+02  0.00000000000E+00 0. -1.
         21    1    1    2  502  501  0.39840420313E+02 -0.23685385572E+01  0.60753750604E+02  0.72690352029E+02  0.00000000000E+00 0. -1.
<scales pt_clust_5="13000.00000" pt_clust_6="13000.00000" pt_clust_7="13000.00000" pt_clust_8="13000.00000" pt_clust_9="39.91076"></scales>
<clustering>
<clus scale="   39.911">  1  9  2 -1</clus>
<clus scale="   87.233">  7  8 -1 -1</clus>
<clus scale="   98.582">  2  7  1 -1</clus>
<clus scale="  106.737">  5  6 -1 -1</clus>
<clus scale="   39.911">  1  5  2 -1</clus>
</clustering>
</event>
<event>
 9    1  0.9000149E-006  0.3471224E+03  0.7546771E-02  0.1063813E+00
         -1   -1    0    0    0  501 -0.00000000000E+00  0.00000000000E+00  0.87897403587E+03  0.87897403587E+03  0.00000000000E+00 0.  1.
          1   -1    0    0  502    0  0.00000000000E+00 -0.00000000000E+00 -0.26142436137E+03  0.26142436137E+03  0.00000000000E+00 0. -1.
         23    2    1    2    0    0  0.17797962878E+03  0.27663979490E+03  0.64071457459E+03  0.72595438953E+03  0.91040019785E+02 0.  0.
         23    2    1    2    0    0 -0.17757486455E+03 -0.31545194024E+03 -0.10147483783E+02  0.37350503376E+03  0.91434565110E+02 0.  0.
        -11    1    3    3    0    0  0.25682636692E+02  0.11916395789E+03  0.24476490545E+03  0.27344013171E+03  0.00000000000E+00 0.  1.
         11    1    3    3    0    0  0.15229699209E+03  0.15747583700E+03  0.39594966914E+03  0.45251425782E+03  0.00000000000E+00 0. -1.
        -13    1    4    4    0    0 -0.10530308638E+03 -0.17189174808E+03  0.39232597357E+02  0.20536482112E+03  0.00000000000E+00 0.  1.
         13    1    4    4    0    0 -0.72271778164E+02 -0.14356019217E+03 -0.49380081140E+02  0.16814021264E+03  0.00000000000E+00 0. -1.
         21    1    1    2  502  501 -0.40476423586E+00  0.38812145346E+02 -0.13017416315E+02  0.40938973949E+02  0.00000000000E+00 0.  1.
<scales pt_clust_5="13000.00000" pt_clust_6="13000.00000" pt_clust_7="13000.00000" pt_clust_8="13000.00000" pt_clust_9="38.81426"></scales>
<clustering>
<clus scale="   38.814">  2  9  1 -1</clus>
<clus scale="   91.040">  5  6 -1 -1</clus>
<clus scale="   91.435">  7  8 -1 -1</clus>
<clus scale="  347.019">  1  5  2 -1</clus>
<clus scale="   38.814">  2  5  1 -1</clus>
</clustering>
</event>
<event>
 9    1  0.9000149E-006  0.1423641E+03  0.7546771E-02  0.1210813E+00
          1   -1    0    0  502    0  0.00000000000E+00  0.00000000000E+00  0.58607546745E+02  0.58607546745E+02  0.00000000000E+00 0. -1.
         -1   -1    0    0    0  501 -0.00000000000E+00 -0.00000000000E+00 -0.69923065928E+03  0.69923065928E+03  0.00000000000E+00 0.  1.
         23    2    1    2    0    0  0.75366256267E+02  0.67497043146E+02 -0.39618038342E+03  0.41819676494E+03  0.87713822067E+02 0.  0.
         23    2    1    2    0    0 -0.11354596532E+03 -0.61823181295E+02 -0.25470476411E+03  0.29970158312E+03  0.90728882280E+02 0.  0.
        -11    1    4    4    0    0 -0.99163801031E+02 -0.78882900780E+02 -0.24402954816E+03  0.27496616491E+03  0.00000000000E+00 0. -1.
         11    1    4    4    0    0 -0.14382164292E+02  0.17059719485E+02 -0.10675215952E+02  0.24735418214E+02  0.00000000000E+00 0.  1.
        -13    1    3    3    0    0  0.67954675800E+02  0.88451150252E+02 -0.33705900414E+03  0.35503551402E+03  0.00000000000E+00 0.  1.
         13    1    3    3    0    0  0.74115804670E+01 -0.20954107106E+02 -0.59121379277E+02  0.63161250916E+02  0.00000000000E+00 0. -1.
         21    1    1    2  502  501  0.38179709056E+02 -0.56738618507E+01  0.10262034993E+02  0.39939857963E+02  0.00000000000E+00 0.  1.
<scales pt_clust_5="13000.00000" pt_clust_6="13000.00000" pt_clust_7="13000.00000" pt_clust_8="13000.00000" pt_clust_9="38.59900"></scales>
<clustering>
<clus scale="   38.599">  1  9  2 -1</clus>
<clus scale="   87.714">  7  8 -1 -1</clus>
<clus scale="   90.729">  5  6 -1 -1</clus>
<clus scale="  140.462">  2  7  1 -1</clus>
<clus scale="   38.599">  1  5  2 -1</clus>
</clustering>
</event>
<event>
 9    1  0.9000149E-006  0.2357088E+03  0.7546771E-02  0.1122895E+00
          2   -1    0    0  502    0  0.00000000000E+00  0.00000000000E+00  0.48057960151E+03  0.48057960151E+03  0.00000000000E+00 0. -1.
         -2   -1    0    0    0  501 -0.00000000000E+00 -0.00000000000E+00 -0.14619055416E+03  0.14619055416E+03  0.00000000000E+00 0.  1.
         23    2    1    2    0    0  0.20406947135E+03  0.37426240313E+02  0.57509995415E+02  0.23575206621E+03  0.96055007925E+02 0.  0.
         23    2    1    2    0    0 -0.22661463590E+03 -0.40678316506E+02  0.22806789962E+03  0.33715354606E+03  0.92998000777E+02 0.  0.
        -11    1    4    4    0    0 -0.30661531771E+02  0.14922940084E+02  0.39890541382E+01  0.34332728179E+02  0.00000000000E+00 0.  1.
         11    1    4    4    0    0 -0.19595310413E+03 -0.55601256590E+02  0.22407884548E+03  0.30282081788E+03  0.00000000000E+00 0. -1.
        -11    1    3    3    0    0  0.13109389430E+03  0.17946355313E+02  0.82813686517E+02  0.15609544345E+03  0.00000000000E+00 0. -1.
         11    1    3    3    0    0  0.72975577053E+02  0.19479885000E+02 -0.25303691103E+02  0.79656622758E+02  0.00000000000E+00 0.  1.
         21    1    1    2  502  501  0.22545164553E+02  0.32520761933E+01  0.48811152324E+02  0.53864543398E+02  0.00000000000E+00 0. -1.
<scales pt_clust_5="13000.00000" pt_clust_6="13000.00000" pt_clust_7="13000.00000" pt_clust_8="13000.00000" pt_clust_9="22.77851"></scales>
<clustering>
<clus scale="   22.779">  1  9  2 -1</clus>
<clus scale="   92.998">  5  6 -1 -1</clus>
<clus scale="   96.055">  7  8 -1 -1</clus>
<clus scale="  234.480">  1  5  2 -1</clus>
<clus scale="   22.779">  1  5  2 -1</clus>
</clustering>
</event>
<event>
 9    1  0.9000149E-006  0.1091515E+03  0.7546771E-02  0.1263657E+00
          1   -1    0    0  502    0  0.00000000000E+00  0.00000000000E+00  0.19929090990E+03  0.19929090990E+03  0.00000000000E+00 0. -1.
         -1   -1    0    0    0  501 -0.00000000000E+00 -0.00000000000E+00 -0.90871444781E+02  0.90871444781E+02  0.00000000000E+00 0.  1.
         23    2    1    2    0    0  0.40958735220E+01 -0.44093188729E+02  0.13566766686E+02  0.10468761944E+03  0.93885329173E+02 0.  0.
         23    2    1    2    0    0 -0.70615006921E+01  0.70131979777E+02  0.34285863593E+02  0.11948113656E+03  0.90176838336E+02 0.  0.
        -13    1    4    4    0    0  0.26136502704E+02 -0.32476162126E+01 -0.92661151305E+01  0.27919969096E+02  0.00000000000E+00 0.  1.
         13    1    4    4    0    0 -0.33198003397E+02  0.73379595990E+02  0.43551978723E+02  0.91561167466E+02  0.00000000000E+00 0. -1.
        -13    1    3    3    0    0 -0.21937395094E+02  0.14270836310E+02  0.28877771696E+02  0.38972192273E+02  0.00000000000E+00 0.  1.
         13    1    3    3    0    0  0.26033268616E+02 -0.58364025039E+02 -0.15311005010E+02  0.65715427169E+02  0.00000000000E+00 0. -1.
         21    1    1    2  502  501  0.29656271701E+01 -0.26038791048E+02  0.60566834842E+02  0.65993598678E+02  0.00000000000E+00 0. -1.
<scales pt_clust_5="13000.00000" pt_clust_6="13000.00000" pt_clust_7="13000.00000" pt_clust_8="13000.00000" pt_clust_9="26.20713"></scales>
<clustering>
<clus scale="   26.207">  1  9  2 -1</clus>
<clus scale="   90.177">  5  6 -1 -1</clus>
<clus scale="   93.885">  7  8 -1 -1</clus>
<clus scale="  105.979">  1  5  2 -1</clus>
<clus scale="   26.207">  1  5  2 -1</clus>
</clustering>
</event>
<event>
 9    1  0.9000149E-006  0.9525653E+02  0.7546771E-02  0.1291201E+00
          1   -1    0    0  502    0  0.00000000000E+00  0.00000000000E+00  0.45891793427E+03  0.45891793427E+03  0.00000000000E+00 0. -1.
         -1   -1    0    0    0  501 -0.00000000000E+00 -0.00000000000E+00 -0.81858210362E+02  0.81858210362E+02  0.00000000000E+00 0.  1.
         23    2    1    2    0    0  0.18152493127E+02 -0.20167131377E+02 -0.40308485641E+02  0.10226011671E+03  0.89978504431E+02 0.  0.
         23    2    1    2    0    0  0.10152225236E+01  0.45888385766E+02  0.30139272054E+03  0.31818607196E+03  0.91093522119E+02 0.  0.
        -11    1    4    4    0    0 -0.26164377843E+02 -0.10116036332E+02  0.36265275675E+02  0.45848435947E+02  0.00000000000E+00 0.  1.
         11    1    4    4    0    0  0.27179600366E+02  0.56004422098E+02  0.26512744487E+03  0.27233763602E+03  0.00000000000E+00 0. -1.
        -11    1    3    3    0    0  0.47311734310E+02  0.16854391934E+01 -0.45248409791E+02  0.65487857632E+02  0.00000000000E+00 0.  1.
         11    1    3    3    0    0 -0.29159241183E+02 -0.21852570570E+02  0.49399241501E+01  0.36772259075E+02  0.00000000000E+00 0. -1.
         21    1    1    2  502  501 -0.19167715651E+02 -0.25721254389E+02  0.11597548901E+03  0.12032995596E+03  0.00000000000E+00 0.  1.
<scales pt_clust_5="13000.00000" pt_clust_6="13000.00000" pt_clust_7="13000.00000" pt_clust_8="13000.00000" pt_clust_9="32.07778"></scales>
<clustering>
<clus scale="   32.078">  1  9  2 -1</clus>
<clus scale="   89.979">  7  8 -1 -1</clus>
<clus scale="   91.094">  5  6 -1 -1</clus>
<clus scale="   94.191">  2  7  1 -1</clus>
<clus scale="   32.078">  1  5  2 -1</clus>
</clustering>
</event>
<event>
 9    1  0.9000149E-006  0.1675247E+03  0.7546771E-02  0.1183568E+00
         -2   -1    0    0    0  501 -0.00000000000E+00  0.00000000000E+00  0.40657822676E+02  0.40657822676E+02  0.00000000000E+00 0.  1.
          2   -1    0    0  502    0  0.00000000000E+00 -0.00000000000E+00 -0.10498940401E+04  0.10498940401E+04  0.00000000000E+00 0. -1.
         23    2    1    2    0    0 -0.12027342773E+03 -0.26771974151E+02 -0.17634191748E+03  0.23316512166E+03  0.89928116208E+02 0.  0.
         23    2    1    2    0    0  0.13994943234E+03  0.30548468812E+02 -0.68561821346E+03  0.70875413123E+03  0.10835603971E+03 0.  0.
        -13    1    3    3    0    0 -0.24431674840E+02 -0.18277939634E+02  0.19427117819E+01  0.30573909495E+02  0.00000000000E+00 0.  1.
         13    1    3    3    0    0 -0.95841752888E+02 -0.84940345167E+01 -0.17828462926E+03  0.20259121217E+03  0.00000000000E+00 0. -1.
        -13    1    4    4    0    0  0.14686441910E+03  0.51857701433E+02 -0.62543094795E+03  0.64453258214E+03  0.00000000000E+00 0. -1.
         13    1    4    4    0    0 -0.69149867530E+01 -0.21309232621E+02 -0.60187265513E+02  0.64221549083E+02  0.00000000000E+00 0.  1.
         21    1    1    2  502  501 -0.19676004614E+02 -0.37764946618E+01 -0.14727608646E+03  0.14863260985E+03  0.00000000000E+00 0.  1.
<scales pt_clust_5="13000.00000" pt_clust_6="13000.00000" pt_clust_7="13000.00000" pt_clust_8="13000.00000" pt_clust_9="20.03515"></scales>
<clustering>
<clus scale="   20.035">  2  9  1 -1</clus>
<clus scale="   89.928">  5  6 -1 -1</clus>
<clus scale="  108.356">  7  8 -1 -1</clus>
<clus scale="  156.239">  1  5  2 -1</clus>
<clus scale="   20.035">  2  5  1 -1</clus>
</clustering>
</event>
<event>
 9    1  0.9000149E-006  0.1887902E+03  0.7546771E-02  0.1159851E+00
         -1   -1    0    0    0  501 -0.00000000000E+00  0.00000000000E+00  0.11007252890E+03  0.11007252890E+03  0.00000000000E+00 0.  1.
          1   -1    0    0  502    0  0.00000000000E+00 -0.00000000000E+00 -0.50368801297E+03  0.50368801297E+03  0.00000000000E+00 0. -1.
         23    2    1    2    0    0  0.15638115824E+03  0.36599435646E+02 -0.72367971981E+02  0.19719015126E+03  0.88612905614E+02 0.  0.
         23    2    1    2    0    0 -0.15249582753E+03 -0.97342990373E+02 -0.22615751773E+03  0.30366785626E+03  0.91303389385E+02 0.  0.
        -11    1    3    3    0    0  0.68865932573E+02  0.38020373517E+02 -0.76281220166E+02  0.10957595549E+03  0.00000000000E+00 0. -1.
         11    1    3    3    0    0  0.87515225672E+02 -0.14209378718E+01  0.39132481848E+01  0.87614195769E+02  0.00000000000E+00 0.  1.
        -13    1    4    4    0    0 -0.87796478768E+02 -0.47903039588E+02 -0.18970321791E+03  0.21445333705E+03  0.00000000000E+00 0. -1.
         13    1    4    4    0    0 -0.64699348757E+02 -0.49439950785E+02 -0.36454299824E+02  0.89214519216E+02  0.00000000000E+00 0.  1.
         21    1    1    2  502  501 -0.38853307193E+01  0.60743554727E+02 -0.95089994352E+02  0.11290253435E+03  0.00000000000E+00 0.  1.
<scales pt_clust_5="13000.00000" pt_clust_6="13000.00000" pt_clust_7="13000.00000" pt_clust_8="13000.00000" pt_clust_9="60.86769"></scales>
<clustering>
<clus scale="   60.868">  2  9  1 -1</clus>
<clus scale="   88.613">  5  6 -1 -1</clus>
<clus scale="   91.303">  7  8 -1 -1</clus>
<clus scale="  187.504">  1  5  2 -1</clus>
<clus scale="   60.868">  2  5  1 -1</clus>
</clustering>
</event>
<event>
 9    1  0.9000149E-006  0.1087707E+03  0.7546771E-02  0.1263784E+00
         -1   -1    0    0    0  501 -0.00000000000E+00  0.00000000000E+00  0.75846002808E+02  0.75846002808E+02  0.00000000000E+00 0.  1.
          1   -1    0    0  502    0  0.00000000000E+00 -0.00000000000E+00 -0.24012191659E+03  0.24012191659E+03  0.00000000000E+00 0. -1.
         23    2    1    2    0    0 -0.41908038166E+02 -0.24442314437E+02 -0.30401958207E+02  0.10742158814E+03  0.90892288662E+02 0.  0.
         23    2    1    2    0    0  0.70733181202E+02  0.65097030992E+01 -0.70715112754E+02  0.13684202980E+03  0.93164128241E+02 0.  0.
        -13    1    3    3    0    0 -0.38634189321E+01 -0.43585598226E+02  0.13955595083E+02  0.45928085228E+02  0.00000000000E+00 0. -1.
         13    1    3    3    0    0 -0.38044619234E+02  0.19143283789E+02 -0.44357553290E+02  0.61493502914E+02  0.00000000000E+00 0.  1.
        -13    1    4    4    0    0  0.90790311758E+02  0.10591399700E+02 -0.71964794636E+02  0.11633567864E+03  0.00000000000E+00 0. -1.
         13    1    4    4    0    0 -0.20057130556E+02 -0.40816966005E+01  0.12496818824E+01  0.20506351165E+02  0.00000000000E+00 0.  1.
         21    1    1    2  502  501 -0.28825143036E+02  0.17932611338E+02 -0.63158842824E+02  0.71704301456E+02  0.00000000000E+00 0.  1.
<scales pt_clust_5="13000.00000" pt_clust_6="13000.00000" pt_clust_7="13000.00000" pt_clust_8="13000.00000" pt_clust_9="33.94801"></scales>
<clustering>
<clus scale="   33.948">  2  9  1 -1</clus>
<clus scale="   90.892">  5  6 -1 -1</clus>
<clus scale="   93.164">  7  8 -1 -1</clus>
<clus scale="  106.831">  1  5  2 -1</clus>
<clus scale="   33.948">  2  5  1 -1</clus>
</clustering>
</event>
<event>
 9    1  0.9000149E-006  0.5879970E+03  0.7546771E-02  0.9930682E-01
         -2   -1    0    0    0  501 -0.00000000000E+00  0.00000000000E+00  0.10105738670E+04  0.10105738670E+04  0.00000000000E+00 0.  1.
          2   -1    0    0  502    0  0.00000000000E+00 -0.00000000000E+00 -0.41650522821E+03  0.41650522821E+03  0.00000000000E+00 0. -1.
         23    2    1    2    0    0  0.56452691207E+03 -0.13350576881E+03  0.53874068770E+03  0.79678098591E+03  0.90022142722E+02 0.  0.
         23    2    1    2    0    0 -0.57431352570E+03  0.10214561391E+03  0.69707625727E+02  0.59443709753E+03  0.90700372604E+02 0.  0.
        -13    1    4    4    0    0 -0.55444281142E+02 -0.15535493995E+02  0.15539003136E+02  0.59639588392E+02  0.00000000000E+00 0.  1.
         13    1    4    4    0    0 -0.51886924456E+03  0.11768110790E+03  0.54168622591E+02  0.53479750914E+03  0.00000000000E+00 0. -1.
        -13    1    3    3    0    0  0.92353974149E+02 -0.85735319843E+01  0.13114219017E+03  0.16062700905E+03  0.00000000000E+00 0. -1.
         13    1    3    3    0    0  0.47217293792E+03 -0.12493223683E+03  0.40759849752E+03  0.63615397687E+03  0.00000000000E+00 0.  1.
         21    1    1    2  502  501  0.97866136354E+01  0.31360154909E+02 -0.14379674637E+02  0.35861011768E+02  0.00000000000E+00 0. -1.
<scales pt_clust_5="13000.00000" pt_clust_6="13000.00000" pt_clust_7="13000.00000" pt_clust_8="13000.00000" pt_clust_9="32.85174"></scales>
<clustering>
<clus scale="   32.852">  2  9  1 -1</clus>
<clus scale="   90.022">  7  8 -1 -1</clus>
<clus scale="   90.700">  5  6 -1 -1</clus>
<clus scale="  587.893">  1  7  2 -1</clus>
<clus scale="   32.852">  2  5  1 -1</clus>
</clustering>
</event>
<event>
 9    1  0.9000149E-006  0.9446706E+02  0.7546771E-02  0.1302141E+00
          1   -1    0    0  502    0  0.00000000000E+00  0.00000000000E+00  0.10909184924E+03  0.10909184924E+03  0.00000000000E+00 0. -1.
         -1   -1    0    0    0  501 -0.00000000000E+00 -0.00000000000E+00 -0.10715070682E+03  0.10715070682E+03  0.00000000000E+00 0.  1.
         23    2    1    2    0    0  0.64137264394E+01 -0.90788317786E+01 -0.20328623196E+02  0.79119415227E+02  0.75650960810E+02 0.  0.
         23    2    1    2    0    0 -0.20321815385E+02  0.39063662504E+02  0.12120234066E+02  0.10254658804E+03  0.91814795849E+02 0.  0.
        -11    1    3    3    0    0  0.13397382378E+02  0.31264445355E+02 -0.14808898959E+01  0.34046269000E+02  0.00000000000E+00 0.  1.
         11    1    3    3    0    0 -0.69836559390E+01 -0.40343277134E+02 -0.18847733300E+02  0.45073146226E+02  0.00000000000E+00 0. -1.
        -13    1    4    4    0    0  0.34479280508E+02  0.25376518983E+01  0.12278415484E+02  0.36688144520E+02  0.00000000000E+00 0.  1.
         13    1    4    4    0    0 -0.54801095894E+02  0.36526010605E+02 -0.15818141831E+00  0.65858443523E+02  0.00000000000E+00 0. -1.
         21    1    1    2  502  501  0.13908088946E+02 -0.29984830725E+02  0.10149531549E+02  0.34576552784E+02  0.00000000000E+00 0.  1.
<scales pt_clust_5="13000.00000" pt_clust_6="13000.00000" pt_clust_7="13000.00000" pt_clust_8="13000.00000" pt_clust_9="33.05337"></scales>
<clustering>
<clus scale="   33.053">  1  9  2 -1</clus>
<clus scale="   75.651">  5  6 -1 -1</clus>
<clus scale="   78.849">  2  5  1 -1</clus>
<clus scale="   91.815">  7  8 -1 -1</clus>
<clus scale="   33.053">  1  5  2 -1</clus>
</clustering>
</event>
<event>
 9    1  0.9000149E-006  0.1120117E+03  0.7546771E-02  0.1259471E+00
          2   -1    0    0  502    0  0.00000000000E+00  0.00000000000E+00  0.64486862787E+02  0.64486862787E+02  0.00000000000E+00 0. -1.
         -2   -1    0    0    0  501 -0.00000000000E+00 -0.00000000000E+00 -0.33108364464E+03  0.33108364464E+03  0.00000000000E+00 0.  1.
         23    2    1    2    0    0 -0.45647179785E+02  0.41689098061E+02 -0.19146048540E+03  0.22082150225E+03  0.91013034595E+02 0.  0.
         23    2    1    2    0    0  0.16056383027E+02 -0.44892549758E+02 -0.90472425333E+02  0.14126655896E+03  0.97456823651E+02 0.  0.
        -13    1    4    4    0    0  0.27974004567E+02 -0.14614062654E+00 -0.90745451313E+02  0.94959482005E+02  0.00000000000E+00 0.  1.
         13    1    4    4    0    0 -0.11917621540E+02 -0.44746409131E+02  0.27302597989E+00  0.46307076959E+02  0.00000000000E+00 0. -1.
        -13    1    3    3    0    0 -0.41990013872E+02 -0.16710982804E+02 -0.12140197561E+03  0.12954095064E+03  0.00000000000E+00 0. -1.
         13    1    3    3    0    0 -0.36571659134E+01  0.58400080864E+02 -0.70058509786E+02  0.91280551603E+02  0.00000000000E+00 0.  1.
         21    1    1    2  502  501  0.29590796758E+02  0.32034516969E+01  0.15336128880E+02  0.33482446216E+02  0.00000000000E+00 0. -1.
<scales pt_clust_5="13000.00000" pt_clust_6="13000.00000" pt_clust_7="13000.00000" pt_clust_8="13000.00000" pt_clust_9="29.76369"></scales>
<clustering>
<clus scale="   29.764">  1  9  2 -1</clus>
<clus scale="   91.013">  7  8 -1 -1</clus>
<clus scale="   97.457">  5  6 -1 -1</clus>
<clus scale="  106.453">  2  7  1 -1</clus>
<clus scale="   29.764">  1  5  2 -1</clus>
</clustering>
</event>
<event>
 9    1  0.9000149E-006  0.1128967E+03  0.7546771E-02  0.1256125E+00
          1   -1    0    0  502    0  0.00000000000E+00  0.00000000000E+00  0.23528896600E+03  0.23528896600E+03  0.00000000000E+00 0. -1.
         -1   -1    0    0    0  501 -0.00000000000E+00 -0.00000000000E+00 -0.78792296587E+02  0.78792296587E+02  0.00000000000E+00 0.  1.
         23    2    1    2    0    0 -0.24046147249E+02 -0.60041312948E+02  0.17729416799E+02  0.11167963743E+03  0.89301919004E+02 0.  0.
         23    2    1    2    0    0  0.47088583490E+02  0.49209556054E+02  0.13481845020E+03  0.17663587530E+03  0.91571299133E+02 0.  0.
        -13    1    3    3    0    0  0.10542698217E+02 -0.65098833834E+02  0.32751422664E+02  0.73631938306E+02  0.00000000000E+00 0.  1.
         13    1    3    3    0    0 -0.34588845466E+02  0.50575208861E+01 -0.15022005865E+02  0.38047699121E+02  0.00000000000E+00 0. -1.
        -13    1    4    4    0    0  0.50120023598E+02 -0.65552313826E+01  0.32574706280E+02  0.60134011285E+02  0.00000000000E+00 0.  1.
         13    1    4    4    0    0 -0.30314401086E+01  0.55764787437E+02  0.10224374392E+03  0.11650186401E+03  0.00000000000E+00 0. -1.
         21    1    1    2  502  501 -0.23042436240E+02  0.10831756893E+02  0.39488024068E+01  0.25765749858E+02  0.00000000000E+00 0. -1.
<scales pt_clust_5="13000.00000" pt_clust_6="13000.00000" pt_clust_7="13000.00000" pt_clust_8="13000.00000" pt_clust_9="25.46136"></scales>
<clustering>
<clus scale="   25.461">  2  9  1 -1</clus>
<clus scale="   89.302">  5  6 -1 -1</clus>
<clus scale="   91.571">  7  8 -1 -1</clus>
<clus scale="  111.064">  2  5  1 -1</clus>
<clus scale="  112.897">  1  5  2 -1</clus>
</clustering>
</event>
<event>
 9    1  0.9000149E-006  0.1059486E+03  0.7546771E-02  0.1268701E+00
         -3   -1    0    0    0  501 -0.00000000000E+00  0.00000000000E+00  0.11374556031E+03  0.11374556031E+03  0.00000000000E+00 0.  1.
          3   -1    0    0  502    0  0.00000000000E+00 -0.00000000000E+00 -0.21524745779E+03  0.21524745779E+03  0.00000000000E+00 0. -1.
         23    2    1    2    0    0  0.60766806232E+02 -0.94355197064E+01  0.54548488570E+02  0.12316675833E+03  0.91721747583E+02 0.  0.
         23    2    1    2    0    0 -0.21802109693E+02  0.13487909801E+02 -0.99623566346E+02  0.13713378985E+03  0.90683877566E+02 0.  0.
        -11    1    3    3    0    0  0.20342338195E+02  0.15804296600E+02 -0.21409950421E+02  0.33495857823E+02  0.00000000000E+00 0. -1.
         11    1    3    3    0    0  0.40424468037E+02 -0.25239816306E+02  0.75958438991E+02  0.89670900504E+02  0.00000000000E+00 0.  1.
        -11    1    4    4    0    0 -0.24744115010E+02  0.48928237138E+02 -0.40599577684E+02  0.68224404176E+02  0.00000000000E+00 0. -1.
         11    1    4    4    0    0  0.29420053174E+01 -0.35440327336E+02 -0.59023988662E+02  0.68909385678E+02  0.00000000000E+00 0.  1.
         21    1    1    2  502  501 -0.38964696539E+02 -0.40523900951E+01 -0.56426819707E+02  0.68692469923E+02  0.00000000000E+00 0.  1.
<scales pt_clust_5="13000.00000" pt_clust_6="13000.00000" pt_clust_7="13000.00000" pt_clust_8="13000.00000" pt_clust_9="39.17486"></scales>
<clustering>
<clus scale="   39.175">  2  9  1 -1</clus>
<clus scale="   90.684">  7  8 -1 -1</clus>
<clus scale="   91.722">  5  6 -1 -1</clus>
<clus scale="  105.051">  2  7  1 -1</clus>
<clus scale="   39.175">  2  5  1 -1</clus>
</clustering>
</event>
<event>
 9    1  0.9000149E-006  0.1768086E+03  0.7546771E-02  0.1171059E+00
          1   -1    0    0  502    0  0.00000000000E+00  0.00000000000E+00  0.27326188158E+03  0.27326188158E+03  0.00000000000E+00 0. -1.
         -1   -1    0    0    0  501 -0.00000000000E+00 -0.00000000000E+00 -0.16460089180E+03  0.16460089180E+03  0.00000000000E+00 0.  1.
         23    2    1    2    0    0 -0.89332057135E+02 -0.10266138013E+03 -0.63458370712E+01  0.16349715605E+03  0.90396211132E+02 0.  0.
         23    2    1    2    0    0  0.11313023584E+03  0.14143743444E+03  0.85651121036E+02  0.22022050526E+03  0.91421869820E+02 0.  0.
        -11    1    4    4    0    0 -0.77028227559E+01  0.44107100063E+02  0.41677096631E+01  0.44968206081E+02  0.00000000000E+00 0.  1.
         11    1    4    4    0    0  0.12083305859E+03  0.97330334374E+02  0.81483411373E+02  0.17525229918E+03  0.00000000000E+00 0. -1.
        -11    1    3    3    0    0 -0.59321664616E+02 -0.94453158849E+01  0.17772728587E+02  0.62642986570E+02  0.00000000000E+00 0.  1.
         11    1    3    3    0    0 -0.30010392519E+02 -0.93216064246E+02 -0.24118565658E+02  0.10085416948E+03  0.00000000000E+00 0. -1.
         21    1    1    2  502  501 -0.23798178700E+02 -0.38776054306E+02  0.29355705817E+02  0.54145112069E+02  0.00000000000E+00 0. -1.
<scales pt_clust_5="13000.00000" pt_clust_6="13000.00000" pt_clust_7="13000.00000" pt_clust_8="13000.00000" pt_clust_9="45.49655"></scales>
<clustering>
<clus scale="   45.497">  1  9  2 -1</clus>
<clus scale="   90.396">  7  8 -1 -1</clus>
<clus scale="   91.422">  5  6 -1 -1</clus>
<clus scale="  176.280">  2  7  1 -1</clus>
<clus scale="   45.497">  1  5  2 -1</clus>
</clustering>
</event>
<event>
 9    1  0.9000149E-006  0.1040583E+03  0.7546771E-02  0.1272196E+00
          1   -1    0    0  502    0  0.00000000000E+00  0.00000000000E+00  0.59972201129E+03  0.59972201129E+03  0.00000000000E+00 0. -1.
         -1   -1    0    0    0  501 -0.00000000000E+00 -0.00000000000E+00 -0.29367016778E+02  0.29367016778E+02  0.00000000000E+00 0.  1.
         23    2    1    2    0    0 -0.39520246916E+02  0.42988628417E+02  0.22512678401E+03  0.24990891517E+03  0.91446841990E+02 0.  0.
         23    2    1    2    0    0 -0.10523530434E+02 -0.50643335919E+02  0.24976914891E+03  0.27112731730E+03  0.91923349983E+02 0.  0.
        -11    1    3    3    0    0 -0.15716324072E+02 -0.23654909208E+02  0.11906802689E+03  0.12240813944E+03  0.00000000000E+00 0.  1.
         11    1    3    3    0    0 -0.23803922844E+02  0.66643537625E+02  0.10605875712E+03  0.12750077573E+03  0.00000000000E+00 0. -1.
        -11    1    4    4    0    0 -0.50682497159E+02 -0.20893403565E+02  0.14591984312E+03  0.15587767783E+03  0.00000000000E+00 0. -1.
         11    1    4    4    0    0  0.40158966725E+02 -0.29749932354E+02  0.10384930579E+03  0.11524963947E+03  0.00000000000E+00 0.  1.
         21    1    1    2  502  501  0.50043777350E+02  0.76547075020E+01  0.95459061590E+02  0.10805279561E+03  0.00000000000E+00 0. -1.
<scales pt_clust_5="13000.00000" pt_clust_6="13000.00000" pt_clust_7="13000.00000" pt_clust_8="13000.00000" pt_clust_9="50.62583"></scales>
<clustering>
<clus scale="   50.626">  2  9  1 -1</clus>
<clus scale="   91.447">  5  6 -1 -1</clus>
<clus scale="   91.923">  7  8 -1 -1</clus>
<clus scale="  103.638">  2  5  1 -1</clus>
<clus scale="  104.058">  1  5  2 -1</clus>
</clustering>
</event>
<event>
 9    1  0.9000149E-006  0.1240935E+03  0.7546771E-02  0.1243573E+00
          1   -1    0    0  502    0  0.00000000000E+00  0.00000000000E+00  0.31275289260E+03  0.31275289260E+03  0.00000000000E+00 0. -1.
         -1   -1    0    0    0  501 -0.00000000000E+00 -0.00000000000E+00 -0.70337242243E+02  0.70337242243E+02  0.00000000000E+00 0.  1.
         23    2    1    2    0    0  0.20529748680E+02  0.29886628344E+02  0.74469510844E+02  0.12263143616E+03  0.90432737191E+02 0.  0.
         23    2    1    2    0    0 -0.51855661538E+02 -0.66923747075E+02  0.79897229272E+02  0.15993172929E+03  0.10966673712E+03 0.  0.
        -11    1    3    3    0    0 -0.11654178015E+02 -0.25278795475E+02  0.43519033639E+02  0.51659884386E+02  0.00000000000E+00 0.  1.
         11    1    3    3    0    0  0.32183926695E+02  0.55165423819E+02  0.30950477206E+02  0.70971551779E+02  0.00000000000E+00 0. -1.
        -11    1    4    4    0    0 -0.38530139413E+02 -0.96827879179E+02  0.49960900913E+02  0.11556946590E+03  0.00000000000E+00 0.  1.
         11    1    4    4    0    0 -0.13325522125E+02  0.29904132104E+02  0.29936328359E+02  0.44362263383E+02  0.00000000000E+00 0. -1.
         21    1    1    2  502  501  0.31325912858E+02  0.37037118731E+02  0.88048910245E+02  0.10052696939E+03  0.00000000000E+00 0. -1.
<scales pt_clust_5="13000.00000" pt_clust_6="13000.00000" pt_clust_7="13000.00000" pt_clust_8="13000.00000" pt_clust_9="48.50836"></scales>
<clustering>
<clus scale="   48.508">  1  9  2 -1</clus>
<clus scale="   90.433">  5  6 -1 -1</clus>
<clus scale="  107.473">  2  5  1 -1</clus>
<clus scale="  109.667">  7  8 -1 -1</clus>
<clus scale="   48.508">  1  5  2 -1</clus>
</clustering>
</event>
<event>
 9    1  0.9000149E-006  0.1238901E+03  0.7546771E-02  0.1237049E+00
          1   -1    0    0  502    0  0.00000000000E+00  0.00000000000E+00  0.99221422941E+02  0.99221422941E+02  0.00000000000E+00 0. -1.
         -1   -1    0    0    0  501 -0.00000000000E+00 -0.00000000000E+00 -0.56080295248E+03  0.56080295248E+03  0.00000000000E+00 0.  1.
         23    2    1    2    0    0 -0.95461227812E+02  0.16052363676E+01 -0.42587451489E+03  0.44634029786E+03  0.93461950847E+02 0.  0.
         23    2    1    2    0    0  0.20319618424E+02  0.59432758123E+02 -0.33462771019E+02  0.11684950284E+03  0.92676370446E+02 0.  0.
        -11    1    4    4    0    0  0.54809608630E+02  0.33382132538E+02 -0.35262430546E+01  0.64272034051E+02  0.00000000000E+00 0. -1.
         11    1    4    4    0    0 -0.34489990206E+02  0.26050625585E+02 -0.29936527965E+02  0.52577468790E+02  0.00000000000E+00 0.  1.
        -11    1    3    3    0    0  0.16168256380E+02  0.12539699838E+02 -0.48224280586E+02  0.52385473410E+02  0.00000000000E+00 0. -1.
         11    1    3    3    0    0 -0.11162948419E+03 -0.10934463470E+02 -0.37765023431E+03  0.39395482445E+03  0.00000000000E+00 0.  1.
         21    1    1    2  502  501  0.75141609388E+02 -0.61037994490E+02 -0.22442436302E+01  0.96834574726E+02  0.00000000000E+00 0. -1.
<scales pt_clust_5="13000.00000" pt_clust_6="13000.00000" pt_clust_7="13000.00000" pt_clust_8="13000.00000" pt_clust_9="96.80856"></scales>
<clustering>
<clus scale="   92.676">  5  6 -1 -1</clus>
<clus scale="   93.462">  7  8 -1 -1</clus>
<clus scale="   96.809">  1  9  2 -1</clus>
<clus scale="  123.299">  1  5  2 -1</clus>
<clus scale="   96.809">  1  5  2 -1</clus>
</clustering>
</event>
<event>
 9    1  0.9000149E-006  0.1270378E+03  0.7546771E-02  0.1231936E+00
         -1   -1    0    0    0  501 -0.00000000000E+00  0.00000000000E+00  0.58492442669E+02  0.58492442669E+02  0.00000000000E+00 0.  1.
          1   -1    0    0  502    0  0.00000000000E+00 -0.00000000000E+00 -0.51658813647E+03  0.51658813647E+03  0.00000000000E+00 0. -1.
         23    2    1    2    0    0  0.80252819154E+02  0.65224432002E+02 -0.88875541582E+02  0.16406174176E+03  0.91228568470E+02 0.  0.
         23    2    1    2    0    0 -0.47605537637E+02 -0.49724942449E+02 -0.14847647140E+03  0.18733635754E+03  0.91163540856E+02 0.  0.
        -13    1    4    4    0    0 -0.19203475305E+02 -0.55747616269E+02 -0.14686398443E+03  0.15825801751E+03  0.00000000000E+00 0. -1.
         13    1    4    4    0    0 -0.28402062332E+02  0.60226738199E+01 -0.16124869701E+01  0.29078340030E+02  0.00000000000E+00 0.  1.
        -13    1    3    3    0    0  0.52265529788E+02 -0.98800158035E+01 -0.56560836567E+02  0.77642955569E+02  0.00000000000E+00 0. -1.
         13    1    3    3    0    0  0.27987289366E+02  0.75104447805E+02 -0.32314705015E+02  0.86418786189E+02  0.00000000000E+00 0.  1.
         21    1    1    2  502  501 -0.32647281518E+02 -0.15499489553E+02 -0.22074368081E+03  0.22368247984E+03  0.00000000000E+00 0. -1.
<scales pt_clust_5="13000.00000" pt_clust_6="13000.00000" pt_clust_7="13000.00000" pt_clust_8="13000.00000" pt_clust_9="36.13972"></scales>
<clustering>
<clus scale="   36.140">  2  9  1 -1</clus>
<clus scale="   91.164">  5  6 -1 -1</clus>
<clus scale="   91.229">  7  8 -1 -1</clus>
<clus scale="  126.991">  2  5  1 -1</clus>
<clus scale="   36.140">  2  5  1 -1</clus>
</clustering>
</event>
<event>
 9    1  0.9000149E-006  0.1073355E+03  0.7546771E-02  0.1266191E+00
         -1   -1    0    0    0  501 -0.00000000000E+00  0.00000000000E+00  0.17092162146E+03  0.17092162146E+03  0.00000000000E+00 0.  1.
          1   -1    0    0  502    0  0.00000000000E+00 -0.00000000000E+00 -0.34678235152E+03  0.34678235152E+03  0.00000000000E+00 0. -1.
         23    2    1    2    0    0  0.41881975870E+02  0.35841755288E+02  0.12879824777E+03  0.16712694658E+03  0.91124619721E+02 0.  0.
         23    2    1    2    0    0 -0.11254725856E+02 -0.58507144273E+02 -0.12349004124E+03  0.16544482529E+03  0.92587499939E+02 0.  0.
        -13    1    4    4    0    0 -0.17654096983E+02  0.17416764913E+02 -0.64443086296E+02  0.69050142735E+02  0.00000000000E+00 0. -1.
         13    1    4    4    0    0  0.63993711273E+01 -0.75923909186E+02 -0.59046954946E+02  0.96394682557E+02  0.00000000000E+00 0.  1.
        -13    1    3    3    0    0  0.68677441573E+02  0.37113950830E+02  0.10760670848E+03  0.13294073882E+03  0.00000000000E+00 0.  1.
         13    1    3    3    0    0 -0.26795465703E+02 -0.12721955419E+01  0.21191539290E+02  0.34186207763E+02  0.00000000000E+00 0. -1.
         21    1    1    2  502  501 -0.30627250014E+02  0.22665388984E+02 -0.18116893659E+03  0.18513220111E+03  0.00000000000E+00 0. -1.
<scales pt_clust_5="13000.00000" pt_clust_6="13000.00000" pt_clust_7="13000.00000" pt_clust_8="13000.00000" pt_clust_9="38.10181"></scales>
<clustering>
<clus scale="   38.102">  2  9  1 -1</clus>
<clus scale="   91.125">  7  8 -1 -1</clus>
<clus scale="   92.587">  5  6 -1 -1</clus>
<clus scale="  106.076">  1  7  2 -1</clus>
<clus scale="   38.102">  2  5  1 -1</clus>
</clustering>
</event>
<event>
 9    1  0.9000149E-006  0.1004231E+03  0.7546771E-02  0.1279721E+00
          1   -1    0    0  502    0  0.00000000000E+00  0.00000000000E+00  0.14994130973E+03  0.14994130973E+03  0.00000000000E+00 0. -1.
         -1   -1    0    0    0  501 -0.00000000000E+00 -0.00000000000E+00 -0.16466359421E+03  0.16466359421E+03  0.00000000000E+00 0.  1.
         23    2    1    2    0    0 -0.58450173752E+02 -0.59844095129E+01 -0.49644302742E+02  0.12030970111E+03  0.92507466823E+02 0.  0.
         23    2    1    2    0    0  0.17757806449E+01 -0.48558282814E+02  0.46314228714E+02  0.11481769293E+03  0.93150601730E+02 0.  0.
        -11    1    4    4    0    0 -0.11082397294E+02 -0.74894868827E+02  0.34873400776E+02  0.83355953525E+02  0.00000000000E+00 0.  1.
         11    1    4    4    0    0  0.12858177939E+02  0.26336586013E+02  0.11440827938E+02  0.31461739409E+02  0.00000000000E+00 0. -1.
        -11    1    3    3    0    0 -0.56690222205E+02 -0.26317404912E+02 -0.68355037736E+02  0.92621802395E+02  0.00000000000E+00 0.  1.
         11    1    3    3    0    0 -0.17599515469E+01  0.20332995399E+02  0.18710734994E+02  0.27687898717E+02  0.00000000000E+00 0. -1.
         21    1    1    2  502  501  0.56674393107E+02  0.54542692327E+02 -0.11392210455E+02  0.79477509897E+02  0.00000000000E+00 0. -1.
<scales pt_clust_5="13000.00000" pt_clust_6="13000.00000" pt_clust_7="13000.00000" pt_clust_8="13000.00000" pt_clust_9="78.65680"></scales>
<clustering>
<clus scale="   78.657">  2  9  1 -1</clus>
<clus scale="   92.507">  7  8 -1 -1</clus>
<clus scale="   93.151">  5  6 -1 -1</clus>
<clus scale="   99.827">  2  7  1 -1</clus>
<clus scale="  100.423">  1  5  2 -1</clus>
</clustering>
</event>
<event>
 9    1  0.9000149E-006  0.1497455E+03  0.7546771E-02  0.1202363E+00
         -1   -1    0    0    0  501 -0.00000000000E+00  0.00000000000E+00  0.14158901628E+03  0.14158901628E+03  0.00000000000E+00 0.  1.
          1   -1    0    0  502    0  0.00000000000E+00 -0.00000000000E+00 -0.22570408369E+03  0.22570408369E+03  0.00000000000E+00 0. -1.
         23    2    1    2    0    0  0.10117660383E+03  0.71219126910E+02  0.44744189460E+02  0.15548729432E+03  0.82857630939E+02 0.  0.
         23    2    1    2    0    0 -0.77553624714E+02 -0.74417517610E+02 -0.93769820163E+02  0.16938478005E+03  0.91355858623E+02 0.  0.
        -11    1    3    3    0    0  0.43862929390E+01  0.31723126919E+02  0.39453350559E+02  0.50814990088E+02  0.00000000000E+00 0. -1.
         11    1    3    3    0    0  0.96790310889E+02  0.39495999991E+02  0.52908389010E+01  0.10467230423E+03  0.00000000000E+00 0.  1.
        -13    1    4    4    0    0 -0.73328575581E+02 -0.15672225031E+02 -0.25457805889E+02  0.79188373609E+02  0.00000000000E+00 0.  1.
         13    1    4    4    0    0 -0.42250491339E+01 -0.58745292579E+02 -0.68312014273E+02  0.90196406439E+02  0.00000000000E+00 0. -1.
         21    1    1    2  502  501 -0.23622979113E+02  0.31983906999E+01 -0.35089436707E+02  0.42421025608E+02  0.00000000000E+00 0.  1.
<scales pt_clust_5="13000.00000" pt_clust_6="13000.00000" pt_clust_7="13000.00000" pt_clust_8="13000.00000" pt_clust_9="23.83852"></scales>
<clustering>
<clus scale="   23.839">  2  9  1 -1</clus>
<clus scale="   82.858">  5  6 -1 -1</clus>
<clus scale="   91.356">  7  8 -1 -1</clus>
<clus scale="  144.718">  1  5  2 -1</clus>
<clus scale="   23.839">  2  5  1 -1</clus>
</clustering>
</event>
<event>
 9    1  0.9000149E-006  0.1054347E+03  0.7546771E-02  0.1269855E+00
          1   -1    0    0  502    0  0.00000000000E+00  0.00000000000E+00  0.10955802408E+03  0.10955802408E+03  0.00000000000E+00 0. -1.
         -1   -1    0    0    0  501 -0.00000000000E+00 -0.00000000000E+00 -0.24288321604E+03  0.24288321604E+03  0.00000000000E+00 0.  1.
         23    2    1    2    0    0 -0.51598480921E+02 -0.29883522265E+02 -0.13025318575E+03  0.17013037439E+03  0.91777032840E+02 0.  0.
         23    2    1    2    0    0  0.40927368317E+02 -0.10338810941E+02 -0.54727432878E+02  0.11597843145E+03  0.93134119217E+02 0.  0.
        -11    1    4    4    0    0  0.24385153718E+02  0.20910544797E+02 -0.70339460188E+02  0.77327396601E+02  0.00000000000E+00 0.  1.
         11    1    4    4    0    0  0.16542214599E+02 -0.31249355738E+02  0.15612027310E+02  0.38651034845E+02  0.00000000000E+00 0. -1.
        -13    1    3    3    0    0 -0.20710809431E+02  0.25038925601E+02 -0.89175653317E+02  0.94911445922E+02  0.00000000000E+00 0.  1.
         13    1    3    3    0    0 -0.30887671489E+02 -0.54922447866E+02 -0.41077532435E+02  0.75218928473E+02  0.00000000000E+00 0. -1.
         21    1    1    2  502  501  0.10671112603E+02  0.40222333206E+02  0.51655426672E+02  0.66332434280E+02  0.00000000000E+00 0. -1.
<scales pt_clust_5="13000.00000" pt_clust_6="13000.00000" pt_clust_7="13000.00000" pt_clust_8="13000.00000" pt_clust_9="41.61380"></scales>
<clustering>
<clus scale="   41.614">  1  9  2 -1</clus>
<clus scale="   91.777">  7  8 -1 -1</clus>
<clus scale="   93.134">  5  6 -1 -1</clus>
<clus scale="  104.238">  2  7  1 -1</clus>
<clus scale="   41.614">  1  5  2 -1</clus>
</clustering>
</event>
<event>
 9    1  0.9000149E-006  0.9718694E+02  0.7546771E-02  0.1287430E+00
         -1   -1    0    0    0  501 -0.00000000000E+00  0.00000000000E+00  0.12750676500E+03  0.12750676500E+03  0.00000000000E+00 0.  1.
          1   -1    0    0  502    0  0.00000000000E+00 -0.00000000000E+00 -0.12068016521E+03  0.12068016521E+03  0.00000000000E+00 0. -1.
         23    2    1    2    0    0 -0.84589710757E+01  0.13353983244E+02  0.31379119757E+02  0.99208519017E+02  0.92778219582E+02 0.  0.
         23    2    1    2    0    0  0.12145464652E+02 -0.53792575618E+02 -0.21234858760E+02  0.10823682478E+03  0.90681516905E+02 0.  0.
        -11    1    3    3    0    0  0.25492743551E+02  0.11477516938E+02 -0.22234558971E+02  0.35720987969E+02  0.00000000000E+00 0. -1.
         11    1    3    3    0    0 -0.33951714626E+02  0.18764663059E+01  0.53613678728E+02  0.63487531049E+02  0.00000000000E+00 0.  1.
        -13    1    4    4    0    0 -0.25071210497E+02 -0.39341037882E+02  0.20075664041E+02  0.50786958405E+02  0.00000000000E+00 0.  1.
         13    1    4    4    0    0  0.37216675149E+02 -0.14451537737E+02 -0.41310522801E+02  0.57449866372E+02  0.00000000000E+00 0. -1.
         21    1    1    2  502  501 -0.36864935766E+01  0.40438592374E+02 -0.33176612106E+01  0.40741586420E+02  0.00000000000E+00 0. -1.
<scales pt_clust_5="13000.00000" pt_clust_6="13000.00000" pt_clust_7="13000.00000" pt_clust_8="13000.00000" pt_clust_9="40.60628"></scales>
<clustering>
<clus scale="   40.606">  2  9  1 -1</clus>
<clus scale="   90.682">  7  8 -1 -1</clus>
<clus scale="   92.778">  5  6 -1 -1</clus>
<clus scale="   95.187">  2  7  1 -1</clus>
<clus scale="   40.606">  2  5  1 -1</clus>
</clustering>
</event>
<event>
 9    1  0.9000149E-006  0.1306876E+03  0.7546771E-02  0.1229400E+00
          1   -1    0    0  502    0  0.00000000000E+00  0.00000000000E+00  0.68485871993E+03  0.68485871993E+03  0.00000000000E+00 0. -1.
         -1   -1    0    0    0  501 -0.00000000000E+00 -0.00000000000E+00 -0.66838098604E+02  0.66838098604E+02  0.00000000000E+00 0.  1.
         23    2    1    2    0    0 -0.34853151751E+02 -0.77722611082E+02  0.12766666609E+02  0.12553053729E+03  0.91320214383E+02 0.  0.
         23    2    1    2    0    0  0.28565013019E+01  0.63803595810E+02  0.52707264537E+03  0.54055178623E+03  0.10154605683E+03 0.  0.
        -13    1    3    3    0    0 -0.55047307942E+02 -0.13819839179E+02 -0.24448907491E+01  0.56808199737E+02  0.00000000000E+00 0.  1.
         13    1    3    3    0    0  0.20194156190E+02 -0.63902771903E+02  0.15211557358E+02  0.68722337551E+02  0.00000000000E+00 0. -1.
        -13    1    4    4    0    0 -0.27696873337E+02 -0.10786978997E+02  0.64636731439E+02  0.71143395756E+02  0.00000000000E+00 0.  1.
         13    1    4    4    0    0  0.30553374639E+02  0.74590574807E+02  0.46243591393E+03  0.46940839047E+03  0.00000000000E+00 0. -1.
         21    1    1    2  502  501  0.31996650449E+02  0.13919015273E+02  0.78181309349E+02  0.85614495021E+02  0.00000000000E+00 0. -1.
<scales pt_clust_5="13000.00000" pt_clust_6="13000.00000" pt_clust_7="13000.00000" pt_clust_8="13000.00000" pt_clust_9="34.89305"></scales>
<clustering>
<clus scale="   34.893">  1  9  2 -1</clus>
<clus scale="   91.320">  5  6 -1 -1</clus>
<clus scale="  101.546">  7  8 -1 -1</clus>
<clus scale="  122.911">  2  5  1 -1</clus>
<clus scale="   34.893">  1  5  2 -1</clus>
</clustering>
</event>
<event>
 9    1  0.9000149E-006  0.9639082E+02  0.7546771E-02  0.1291819E+00
          1   -1    0    0  502    0  0.00000000000E+00  0.00000000000E+00  0.36567844212E+03  0.36567844212E+03  0.00000000000E+00 0. -1.
         -1   -1    0    0    0  501 -0.00000000000E+00 -0.00000000000E+00 -0.13388789192E+03  0.13388789192E+03  0.00000000000E+00 0.  1.
         23    2    1    2    0    0  0.51478169649E+01  0.66269773727E+01 -0.10680452521E+03  0.13964243334E+03  0.89567771738E+02 0.  0.
         23    2    1    2    0    0  0.15678628378E+02  0.17182500170E+01  0.24442272802E+03  0.26311576748E+03  0.96117976225E+02 0.  0.
        -11    1    4    4    0    0 -0.17674573341E+02  0.36028954140E+02  0.57190775281E+02  0.69866020758E+02  0.00000000000E+00 0.  1.
         11    1    4    4    0    0  0.33353201719E+02 -0.34310704123E+02  0.18723195274E+03  0.19324974673E+03  0.00000000000E+00 0. -1.
        -13    1    3    3    0    0  0.30639580043E+02  0.35699794711E+02 -0.79253294116E+02  0.92164764611E+02  0.00000000000E+00 0.  1.
         13    1    3    3    0    0 -0.25491763078E+02 -0.29072817338E+02 -0.27551231093E+02  0.47477668725E+02  0.00000000000E+00 0. -1.
         21    1    1    2  502  501 -0.20826445343E+02 -0.83452273897E+01  0.94172347387E+02  0.96808133224E+02  0.00000000000E+00 0. -1.
<scales pt_clust_5="13000.00000" pt_clust_6="13000.00000" pt_clust_7="13000.00000" pt_clust_8="13000.00000" pt_clust_9="22.43621"></scales>
<clustering>
<clus scale="   22.436">  1  9  2 -1</clus>
<clus scale="   89.568">  7  8 -1 -1</clus>
<clus scale="   89.861">  2  7  1 -1</clus>
<clus scale="   96.118">  5  6 -1 -1</clus>
<clus scale="   22.436">  1  5  2 -1</clus>
</clustering>
</event>
<event>
 9    1  0.9000149E-006  0.1678177E+03  0.7546771E-02  0.1180849E+00
          1   -1    0    0  502    0  0.00000000000E+00  0.00000000000E+00  0.37484937571E+03  0.37484937571E+03  0.00000000000E+00 0. -1.
         -1   -1    0    0    0  501 -0.00000000000E+00 -0.00000000000E+00 -0.45960853034E+03  0.45960853034E+03  0.00000000000E+00 0.  1.
         23    2    1    2    0    0 -0.53599475830E+02  0.12843906503E+03 -0.41697041457E+03  0.44989957058E+03  0.95790394822E+02 0.  0.
         23    2    1    2    0    0  0.34443496601E+02 -0.11446674038E+03  0.19963945107E+03  0.24988294090E+03  0.91085589506E+02 0.  0.
        -11    1    4    4    0    0 -0.26795383149E+02 -0.29076742632E+02  0.88509454583E+02  0.96940048849E+02  0.00000000000E+00 0.  1.
         11    1    4    4    0    0  0.61238879750E+02 -0.85389997749E+02  0.11112999649E+03  0.15294289205E+03  0.00000000000E+00 0. -1.
        -13    1    3    3    0    0 -0.29884086095E+02  0.13311041318E+03 -0.39237583877E+03  0.41541574302E+03  0.00000000000E+00 0.  1.
         13    1    3    3    0    0 -0.23715389735E+02 -0.46713481542E+01 -0.24594575803E+02  0.34483827554E+02  0.00000000000E+00 0. -1.
         21    1    1    2  502  501  0.19155979229E+02 -0.13972324648E+02  0.13257180887E+03  0.13467539458E+03  0.00000000000E+00 0. -1.
<scales pt_clust_5="13000.00000" pt_clust_6="13000.00000" pt_clust_7="13000.00000" pt_clust_8="13000.00000" pt_clust_9="23.71028"></scales>
<clustering>
<clus scale="   23.710">  1  9  2 -1</clus>
<clus scale="   91.086">  5  6 -1 -1</clus>
<clus scale="   95.790">  7  8 -1 -1</clus>
<clus scale="  165.177">  1  5  2 -1</clus>
<clus scale="   23.710">  1  5  2 -1</clus>
</clustering>
</event>
<event>
 9    1  0.9000149E-006  0.1093569E+03  0.7546771E-02  0.1276682E+00
          1   -1    0    0  502    0  0.00000000000E+00  0.00000000000E+00  0.28324090082E+03  0.28324090082E+03  0.00000000000E+00 0. -1.
         -1   -1    0    0    0  501 -0.00000000000E+00 -0.00000000000E+00 -0.54077347013E+02  0.54077347013E+02  0.00000000000E+00 0.  1.
         23    2    1    2    0    0  0.46429899176E+02 -0.22113577497E+02  0.34446299050E+02  0.11184788107E+03  0.93159299776E+02 0.  0.
         23    2    1    2    0    0 -0.58338207568E+02  0.38869762045E+02  0.14155811919E+03  0.16847500534E+03  0.58574068082E+02 0.  0.
        -11    1    3    3    0    0 -0.83054513883E+01 -0.45929595875E+02  0.13507448242E+02  0.48589705268E+02  0.00000000000E+00 0. -1.
         11    1    3    3    0    0  0.54735350565E+02  0.23816018378E+02  0.20938850807E+02  0.63258175803E+02  0.00000000000E+00 0.  1.
        -11    1    4    4    0    0 -0.20915188301E+02  0.28488126150E+02  0.11770984703E+03  0.12290088088E+03  0.00000000000E+00 0. -1.
         11    1    4    4    0    0 -0.37423019268E+02  0.10381635896E+02  0.23848272153E+02  0.45574124453E+02  0.00000000000E+00 0.  1.
         21    1    1    2  502  501  0.11908308392E+02 -0.16756184548E+02  0.53159135568E+02  0.56995361423E+02  0.00000000000E+00 0. -1.
<scales pt_clust_5="13000.00000" pt_clust_6="13000.00000" pt_clust_7="13000.00000" pt_clust_8="13000.00000" pt_clust_9="20.55669"></scales>
<clustering>
<clus scale="   20.557">  1  9  2 -1</clus>
<clus scale="   58.574">  7  8 -1 -1</clus>
<clus scale="   81.922">  1  7  2 -1</clus>
<clus scale="   93.159">  5  6 -1 -1</clus>
<clus scale="   20.557">  1  5  2 -1</clus>
</clustering>
</event>
<event>
 9    1  0.9000149E-006  0.9212424E+02  0.7546771E-02  0.1299008E+00
          1   -1    0    0  502    0  0.00000000000E+00  0.00000000000E+00  0.45769414255E+03  0.45769414255E+03  0.00000000000E+00 0. -1.
         -1   -1    0    0    0  501 -0.00000000000E+00 -0.00000000000E+00 -0.82364673645E+02  0.82364673645E+02  0.00000000000E+00 0.  1.
         23    2    1    2    0    0 -0.16413913329E+02  0.73274698357E+01 -0.42493682586E+02  0.10186815738E+03  0.90820152297E+02 0.  0.
         23    2    1    2    0    0 -0.18393815208E+02 -0.19018478649E+02  0.25535862825E+03  0.27162842130E+03  0.88735197475E+02 0.  0.
        -11    1    3    3    0    0 -0.34513692586E+02 -0.23234754307E+02 -0.50525840277E+02  0.65451579961E+02  0.00000000000E+00 0.  1.
         11    1    3    3    0    0  0.18099779257E+02  0.30562224143E+02  0.80321576915E+01  0.36416577419E+02  0.00000000000E+00 0. -1.
        -13    1    4    4    0    0 -0.27335563306E+02 -0.39257358556E+02  0.23993444820E+03  0.24465672412E+03  0.00000000000E+00 0.  1.
         13    1    4    4    0    0  0.89417480977E+01  0.20238879907E+02  0.15424180044E+02  0.26971697184E+02  0.00000000000E+00 0. -1.
         21    1    1    2  502  501  0.34807728537E+02  0.11691008814E+02  0.16246452324E+03  0.16656223751E+03  0.00000000000E+00 0.  1.
<scales pt_clust_5="13000.00000" pt_clust_6="13000.00000" pt_clust_7="13000.00000" pt_clust_8="13000.00000" pt_clust_9="36.71863"></scales>
<clustering>
<clus scale="   36.719">  1  9  2 -1</clus>
<clus scale="   88.735">  7  8 -1 -1</clus>
<clus scale="   90.069">  1  7  2 -1</clus>
<clus scale="   90.820">  5  6 -1 -1</clus>
<clus scale="   36.719">  1  5  2 -1</clus>
</clustering>
</event>
<event>
 9    1  0.9000149E-006  0.1149012E+03  0.7546771E-02  0.1254096E+00
          2   -1    0    0  502    0  0.00000000000E+00  0.00000000000E+00  0.16436977249E+03  0.16436977249E+03  0.00000000000E+00 0. -1.
         -2   -1    0    0    0  501 -0.00000000000E+00 -0.00000000000E+00 -0.31151326134E+03  0.31151326134E+03  0.00000000000E+00 0.  1.
         23    2    1    2    0    0 -0.30378324201E+02  0.58066431815E+02 -0.19551238857E+03  0.22326113858E+03  0.85591406293E+02 0.  0.
         23    2    1    2    0    0  0.18338313798E+02 -0.75899961254E+02 -0.65024148122E+02  0.13720534566E+03  0.92195819688E+02 0.  0.
        -11    1    3    3    0    0 -0.49802672870E+02  0.27950874672E+02 -0.58958848662E+02  0.82083515126E+02  0.00000000000E+00 0. -1.
         11    1    3    3    0    0  0.19424348668E+02  0.30115557144E+02 -0.13655353990E+03  0.14117762345E+03  0.00000000000E+00 0.  1.
        -13    1    4    4    0    0 -0.64733599935E+01  0.19951702574E+02 -0.17794300875E+02  0.27506580464E+02  0.00000000000E+00 0.  1.
         13    1    4    4    0    0  0.24811673791E+02 -0.95851663828E+02 -0.47229847246E+02  0.10969876520E+03  0.00000000000E+00 0. -1.
         21    1    1    2  502  501  0.12040010403E+02  0.17833529438E+02  0.11339304784E+03  0.11541654959E+03  0.00000000000E+00 0. -1.
<scales pt_clust_5="13000.00000" pt_clust_6="13000.00000" pt_clust_7="13000.00000" pt_clust_8="13000.00000" pt_clust_9="21.51736"></scales>
<clustering>
<clus scale="   21.517">  1  9  2 -1</clus>
<clus scale="   85.591">  5  6 -1 -1</clus>
<clus scale="   92.196">  7  8 -1 -1</clus>
<clus scale="  109.673">  2  5  1 -1</clus>
<clus scale="   21.517">  1  5  2 -1</clus>
</clustering>
</event>
<event>
 9    1  0.9000149E-006  0.1473886E+03  0.7546771E-02  0.1204220E+00
         -2   -1    0    0    0  501 -0.00000000000E+00  0.00000000000E+00  0.27916185225E+03  0.27916185225E+03  0.00000000000E+00 0. -1.
          2   -1    0    0  502    0  0.00000000000E+00 -0.00000000000E+00 -0.28147752264E+03  0.28147752264E+03  0.00000000000E+00 0.  1.
         23    2    1    2    0    0 -0.61186973927E+02 -0.98707356672E+02  0.22944453369E+03  0.27273937418E+03  0.90856943298E+02 0.  0.
         23    2    1    2    0    0  0.42867196341E+02  0.10886117013E+03 -0.18037593942E+03  0.23241075100E+03  0.88266226687E+02 0.  0.
        -11    1    3    3    0    0 -0.15636011207E+02  0.15767231053E+02  0.53706083683E+02  0.58115693630E+02  0.00000000000E+00 0.  1.
         11    1    3    3    0    0 -0.45550962720E+02 -0.11447458773E+03  0.17573845001E+03  0.21462368055E+03  0.00000000000E+00 0. -1.
        -13    1    4    4    0    0  0.19979099060E+02  0.11810555835E+03 -0.13299527358E+03  0.17898555838E+03  0.00000000000E+00 0.  1.
         13    1    4    4    0    0  0.22888097280E+02 -0.92443882267E+01 -0.47380665845E+02  0.53425192622E+02  0.00000000000E+00 0. -1.
         21    1    1    2  502  501  0.18319777586E+02 -0.10153813454E+02 -0.51384264662E+02  0.55489249709E+02  0.00000000000E+00 0. -1.
<scales pt_clust_5="13000.00000" pt_clust_6="13000.00000" pt_clust_7="13000.00000" pt_clust_8="13000.00000" pt_clust_9="20.94550"></scales>
<clustering>
<clus scale="   20.946">  2  9  1 -1</clus>
<clus scale="   88.266">  7  8 -1 -1</clus>
<clus scale="   90.857">  5  6 -1 -1</clus>
<clus scale="  145.806">  2  7  1 -1</clus>
<clus scale="   20.946">  2  5  1 -1</clus>
</clustering>
</event>
<event>
 9    1  0.9000149E-006  0.2307781E+03  0.7546771E-02  0.1126528E+00
          2   -1    0    0  502    0  0.00000000000E+00  0.00000000000E+00  0.65099193054E+03  0.65099193054E+03  0.00000000000E+00 0. -1.
         -2   -1    0    0    0  501 -0.00000000000E+00 -0.00000000000E+00 -0.21125668686E+03  0.21125668686E+03  0.00000000000E+00 0.  1.
         23    2    1    2    0    0 -0.18432919886E+03 -0.13568817460E+03 -0.94156889238E+02  0.26364703207E+03  0.90860901665E+02 0.  0.
         23    2    1    2    0    0  0.12615820868E+03  0.64388644052E+02  0.27837585700E+03  0.32702092620E+03  0.96890542950E+02 0.  0.
        -11    1    3    3    0    0 -0.16712920441E+03 -0.14946996771E+03 -0.86084222683E+02  0.24017480220E+03  0.00000000000E+00 0.  1.
         11    1    3    3    0    0 -0.17199994443E+02  0.13781793106E+02 -0.80726665554E+01  0.23472229876E+02  0.00000000000E+00 0. -1.
        -13    1    4    4    0    0  0.73820078839E+02 -0.11545151429E+02  0.16305347863E+03  0.17935755199E+03  0.00000000000E+00 0. -1.
         13    1    4    4    0    0  0.52338129836E+02  0.75933795481E+02  0.11532237836E+03  0.14766337421E+03  0.00000000000E+00 0.  1.
         21    1    1    2  502  501  0.58170990181E+02  0.71299530552E+02  0.25551627592E+03  0.27158065913E+03  0.00000000000E+00 0. -1.
<scales pt_clust_5="13000.00000" pt_clust_6="13000.00000" pt_clust_7="13000.00000" pt_clust_8="13000.00000" pt_clust_9="92.01895"></scales>
<clustering>
<clus scale="   90.861">  5  6 -1 -1</clus>
<clus scale="   92.019">  1  9  2 -1</clus>
<clus scale="   96.891">  7  8 -1 -1</clus>
<clus scale="  228.312">  2  5  1 -1</clus>
<clus scale="   92.019">  1  5  2 -1</clus>
</clustering>
</event>
<event>
 9    1  0.9000149E-006  0.1055945E+03  0.7546771E-02  0.1269349E+00
         -1   -1    0    0    0  501 -0.00000000000E+00  0.00000000000E+00  0.10448823193E+03  0.10448823193E+03  0.00000000000E+00 0.  1.
          1   -1    0    0  502    0  0.00000000000E+00 -0.00000000000E+00 -0.18962720096E+03  0.18962720096E+03  0.00000000000E+00 0. -1.
         23    2    1    2    0    0 -0.45304250437E+02  0.24311149779E+02 -0.15084370106E+02  0.10615062456E+03  0.91634653712E+02 0.  0.
         23    2    1    2    0    0  0.11941578932E+02 -0.59745605203E+02 -0.10873811662E+02  0.11134213504E+03  0.92556429306E+02 0.  0.
        -11    1    3    3    0    0  0.24324033952E+01  0.32368938798E+02 -0.40153442782E+02  0.51632971563E+02  0.00000000000E+00 0. -1.
         11    1    3    3    0    0 -0.47736653832E+02 -0.80577890190E+01  0.25069072677E+02  0.54517652992E+02  0.00000000000E+00 0.  1.
        -13    1    4    4    0    0  0.11888614495E+02 -0.20321925156E+02 -0.50330607498E+02  0.55565185574E+02  0.00000000000E+00 0. -1.
         13    1    4    4    0    0  0.52964437142E-01 -0.39423680046E+02  0.39456795837E+02  0.55776949462E+02  0.00000000000E+00 0.  1.
         21    1    1    2  502  501  0.33362671505E+02  0.35434455424E+02 -0.59180787267E+02  0.76622673294E+02  0.00000000000E+00 0. -1.
<scales pt_clust_5="13000.00000" pt_clust_6="13000.00000" pt_clust_7="13000.00000" pt_clust_8="13000.00000" pt_clust_9="48.66897"></scales>
<clustering>
<clus scale="   48.669">  2  9  1 -1</clus>
<clus scale="   91.635">  5  6 -1 -1</clus>
<clus scale="   92.556">  7  8 -1 -1</clus>
<clus scale="  104.788">  1  5  2 -1</clus>
<clus scale="   48.669">  2  5  1 -1</clus>
</clustering>
</event>
<event>
 9    1  0.9000149E-006  0.1873184E+03  0.7546771E-02  0.1161017E+00
         -1   -1    0    0    0  501 -0.00000000000E+00  0.00000000000E+00  0.37200862128E+03  0.37200862128E+03  0.00000000000E+00 0.  1.
          1   -1    0    0  502    0  0.00000000000E+00 -0.00000000000E+00 -0.62064635640E+03  0.62064635640E+03  0.00000000000E+00 0. -1.
         23    2    1    2    0    0 -0.17574920650E+03  0.13683859414E+02  0.26498696912E+03  0.33076771783E+03  0.90078619891E+02 0.  0.
         23    2    1    2    0    0  0.12586545672E+03  0.65101884618E+02 -0.32203924223E+02  0.17151847069E+03  0.91110506939E+02 0.  0.
        -11    1    3    3    0    0 -0.13078093872E+03  0.18288219338E+02  0.25071348659E+03  0.28336436836E+03  0.00000000000E+00 0.  1.
         11    1    3    3    0    0 -0.44968267780E+02 -0.46043599243E+01  0.14273482533E+02  0.47403349471E+02  0.00000000000E+00 0. -1.
        -11    1    4    4    0    0  0.31976664980E+02 -0.14420764461E+02  0.17029785420E+02  0.38993321766E+02  0.00000000000E+00 0.  1.
         11    1    4    4    0    0  0.93888791741E+02  0.79522649079E+02 -0.49233709643E+02  0.13252514892E+03  0.00000000000E+00 0. -1.
         21    1    1    2  502  501  0.49883749776E+02 -0.78785744032E+02 -0.48142078002E+03  0.49036878917E+03  0.00000000000E+00 0. -1.
<scales pt_clust_5="13000.00000" pt_clust_6="13000.00000" pt_clust_7="13000.00000" pt_clust_8="13000.00000" pt_clust_9="93.25010"></scales>
<clustering>
<clus scale="   90.079">  5  6 -1 -1</clus>
<clus scale="   91.111">  7  8 -1 -1</clus>
<clus scale="   93.250">  2  9  1 -1</clus>
<clus scale="  186.819">  1  5  2 -1</clus>
<clus scale="   93.250">  2  5  1 -1</clus>
</clustering>
</event>
<event>
 9    1  0.9000149E-006  0.1252792E+03  0.7546771E-02  0.1236934E+00
         -1   -1    0    0    0  501 -0.00000000000E+00  0.00000000000E+00  0.36902724319E+03  0.36902724319E+03  0.00000000000E+00 0.  1.
          1   -1    0    0  502    0  0.00000000000E+00 -0.00000000000E+00 -0.59729400744E+02  0.59729400744E+02  0.00000000000E+00 0. -1.
         23    2    1    2    0    0 -0.81886531425E+02 -0.22665834336E+02  0.22393282546E+03  0.25607120996E+03  0.90594757980E+02 0.  0.
         23    2    1    2    0    0  0.79032608762E+02  0.46836125318E+02  0.81809029480E+02  0.14808883080E+03  0.82448824258E+02 0.  0.
        -11    1    3    3    0    0 -0.75862908374E+02  0.14202524458E+02  0.19197756757E+03  0.20691128296E+03  0.00000000000E+00 0.  1.
         11    1    3    3    0    0 -0.60236230518E+01 -0.36868358794E+02  0.31955257894E+02  0.49159926993E+02  0.00000000000E+00 0. -1.
        -13    1    4    4    0    0  0.96123907748E+02  0.35987070811E+02  0.62852032126E+02  0.12035469600E+03  0.00000000000E+00 0. -1.
         13    1    4    4    0    0 -0.17091298986E+02  0.10849054507E+02  0.18956997354E+02  0.27734134805E+02  0.00000000000E+00 0.  1.
         21    1    1    2  502  501  0.28539226632E+01 -0.24170290982E+02  0.35559875045E+01  0.24596603177E+02  0.00000000000E+00 0. -1.
<scales pt_clust_5="13000.00000" pt_clust_6="13000.00000" pt_clust_7="13000.00000" pt_clust_8="13000.00000" pt_clust_9="24.33820"></scales>
<clustering>
<clus scale="   24.338">  2  9  1 -1</clus>
<clus scale="   82.449">  7  8 -1 -1</clus>
<clus scale="   90.595">  5  6 -1 -1</clus>
<clus scale="  119.521">  2  7  1 -1</clus>
<clus scale="   24.338">  2  5  1 -1</clus>
</clustering>
</event>
<event>
 9    1  0.9000149E-006  0.1426622E+03  0.7546771E-02  0.1209911E+00
          3   -1    0    0  502    0  0.00000000000E+00  0.00000000000E+00  0.73239829605E+03  0.73239829605E+03  0.00000000000E+00 0. -1.
         -3   -1    0    0    0  501 -0.00000000000E+00 -0.00000000000E+00 -0.21741718831E+03  0.21741718831E+03  0.00000000000E+00 0.  1.
         23    2    1    2    0    0 -0.90151334689E+02  0.59236782602E+02 -0.17659161538E+03  0.22653896756E+03  0.92190268705E+02 0.  0.
         23    2    1    2    0    0  0.10390151389E+03 -0.88383623582E+02  0.65123124732E+03  0.67164280264E+03  0.91622744723E+02 0.  0.
        -11    1    3    3    0    0 -0.59788913120E+02  0.75509174153E+02 -0.16335693420E+03  0.18963606583E+03  0.00000000000E+00 0.  1.
         11    1    3    3    0    0 -0.30362421569E+02 -0.16272391551E+02 -0.13234681178E+02  0.36902901732E+02  0.00000000000E+00 0. -1.
        -11    1    4    4    0    0  0.52571863168E+02  0.97710159294E+01  0.22224205765E+03  0.22858435148E+03  0.00000000000E+00 0.  1.
         11    1    4    4    0    0  0.51329650722E+02 -0.98154639511E+02  0.42898918967E+03  0.44305845117E+03  0.00000000000E+00 0. -1.
         21    1    1    2  502  501 -0.13750179200E+02  0.29146840980E+02  0.40341475801E+02  0.51633714151E+02  0.00000000000E+00 0.  1.
<scales pt_clust_5="13000.00000" pt_clust_6="13000.00000" pt_clust_7="13000.00000" pt_clust_8="13000.00000" pt_clust_9="32.22741"></scales>
<clustering>
<clus scale="   32.227">  1  9  2 -1</clus>
<clus scale="   91.623">  7  8 -1 -1</clus>
<clus scale="   92.190">  5  6 -1 -1</clus>
<clus scale="  142.296">  1  7  2 -1</clus>
<clus scale="   32.227">  1  5  2 -1</clus>
</clustering>
</event>
<event>
 9    1  0.9000149E-006  0.1230197E+03  0.7546771E-02  0.1240887E+00
         -2   -1    0    0    0  501 -0.00000000000E+00  0.00000000000E+00  0.22026366685E+02  0.22026366685E+02  0.00000000000E+00 0.  1.
          2   -1    0    0  502    0  0.00000000000E+00 -0.00000000000E+00 -0.10828306442E+04  0.10828306442E+04  0.00000000000E+00 0. -1.
         23    2    1    2    0    0  0.40685115724E+02 -0.50119225346E+02 -0.25572295027E+03  0.28164218090E+03  0.98797142540E+02 0.  0.
         23    2    1    2    0    0 -0.38423179239E+02  0.88872214186E+02 -0.64700037252E+03  0.66043737840E+03  0.90517609252E+02 0.  0.
        -11    1    4    4    0    0  0.19547478343E+01  0.92010077724E+02 -0.44483552080E+03  0.45425578258E+03  0.00000000000E+00 0.  1.
         11    1    4    4    0    0 -0.40377927074E+02 -0.31378635386E+01 -0.20216485172E+03  0.20618159582E+03  0.00000000000E+00 0. -1.
        -11    1    3    3    0    0  0.14208422999E+02 -0.76457043060E+02 -0.14139781267E+03  0.16137193109E+03  0.00000000000E+00 0. -1.
         11    1    3    3    0    0  0.26476692725E+02  0.26337817714E+02 -0.11432513760E+03  0.12027024980E+03  0.00000000000E+00 0.  1.
         21    1    1    2  502  501 -0.22619364849E+01 -0.38752988840E+02 -0.15808095476E+03  0.16277745163E+03  0.00000000000E+00 0. -1.
<scales pt_clust_5="13000.00000" pt_clust_6="13000.00000" pt_clust_7="13000.00000" pt_clust_8="13000.00000" pt_clust_9="38.81895"></scales>
<clustering>
<clus scale="   38.819">  2  9  1 -1</clus>
<clus scale="   90.518">  5  6 -1 -1</clus>
<clus scale="   98.797">  7  8 -1 -1</clus>
<clus scale="  116.475">  2  5  1 -1</clus>
<clus scale="   38.819">  2  5  1 -1</clus>
</clustering>
</event>
<event>
 9    1  0.9000149E-006  0.1548083E+03  0.7546771E-02  0.1217771E+00
         -2   -1    0    0    0  501 -0.00000000000E+00  0.00000000000E+00  0.73134404499E+02  0.73134404499E+02  0.00000000000E+00 0.  1.
          2   -1    0    0  502    0  0.00000000000E+00 -0.00000000000E+00 -0.50278645284E+03  0.50278645284E+03  0.00000000000E+00 0. -1.
         23    2    1    2    0    0  0.43163974004E+01  0.24291527782E+02 -0.80296165800E+02  0.12382215479E+03  0.90971106211E+02 0.  0.
         23    2    1    2    0    0  0.11837119484E+03 -0.49794139630E+02 -0.15282682728E+03  0.21901867753E+03  0.90121838983E+02 0.  0.
        -11    1    4    4    0    0  0.17570070361E+02  0.11834256946E+02 -0.74039298320E+02  0.77010224683E+02  0.00000000000E+00 0.  1.
         11    1    4    4    0    0  0.10080112448E+03 -0.61628396576E+02 -0.78787528963E+02  0.14200845285E+03  0.00000000000E+00 0. -1.
        -13    1    3    3    0    0 -0.42762979530E+02  0.52823185100E+01 -0.42547367402E+02  0.60554552100E+02  0.00000000000E+00 0. -1.
         13    1    3    3    0    0  0.47079376930E+02  0.19009209271E+02 -0.37748798398E+02  0.63267602687E+02  0.00000000000E+00 0.  1.
         21    1    1    2  502  501 -0.12268759224E+03  0.25502611848E+02 -0.19652905526E+03  0.23308002502E+03  0.00000000000E+00 0. -1.
<scales pt_clust_5="13000.00000" pt_clust_6="13000.00000" pt_clust_7="13000.00000" pt_clust_8="13000.00000" pt_clust_9="125.87157"></scales>
<clustering>
<clus scale="   90.122">  5  6 -1 -1</clus>
<clus scale="   90.971">  7  8 -1 -1</clus>
<clus scale="   94.257">  1  7  2 -1</clus>
<clus scale="  125.872">  2  9  1 -1</clus>
<clus scale="  125.872">  2  5  1 -1</clus>
</clustering>
</event>
<event>
 9    1  0.9000149E-006  0.1544141E+03  0.7546771E-02  0.1218496E+00
          1   -1    0    0  502    0  0.00000000000E+00  0.00000000000E+00  0.56331987525E+03  0.56331987525E+03  0.00000000000E+00 0. -1.
         -1   -1    0    0    0  501 -0.00000000000E+00 -0.00000000000E+00 -0.15564799275E+03  0.15564799275E+03  0.00000000000E+00 0.  1.
         23    2    1    2    0    0  0.99584509809E+01  0.13900158113E+02 -0.10110517584E+03  0.13774060311E+03  0.91966472270E+02 0.  0.
         23    2    1    2    0    0  0.26631297662E+02  0.11193703011E+03  0.30030116721E+03  0.33498347344E+03  0.93776392140E+02 0.  0.
        -13    1    3    3    0    0 -0.47121158257E+01  0.52186442503E+02 -0.52923886223E+02  0.74475274754E+02  0.00000000000E+00 0. -1.
         13    1    3    3    0    0  0.14670566807E+02 -0.38286284390E+02 -0.48181289615E+02  0.63265328355E+02  0.00000000000E+00 0.  1.
        -13    1    4    4    0    0 -0.28869677204E+01  0.11805648049E+03  0.24595987093E+03  0.27284047587E+03  0.00000000000E+00 0. -1.
         13    1    4    4    0    0  0.29518265382E+02 -0.61194503852E+01  0.54341296286E+02  0.62142997564E+02  0.00000000000E+00 0.  1.
         21    1    1    2  502  501 -0.36589748643E+02 -0.12583718822E+03  0.20847589113E+03  0.24624379145E+03  0.00000000000E+00 0.  1.
<scales pt_clust_5="13000.00000" pt_clust_6="13000.00000" pt_clust_7="13000.00000" pt_clust_8="13000.00000" pt_clust_9="122.67728"></scales>
<clustering>
<clus scale="   91.966">  5  6 -1 -1</clus>
<clus scale="   93.543">  2  5  1 -1</clus>
<clus scale="   93.776">  7  8 -1 -1</clus>
<clus scale="  122.677">  2  9  1 -1</clus>
<clus scale="  154.414">  1  5  2 -1</clus>
</clustering>
</event>
<event>
 9    1  0.9000149E-006  0.1409123E+03  0.7546771E-02  0.1212350E+00
          1   -1    0    0  502    0  0.00000000000E+00  0.00000000000E+00  0.38406619764E+03  0.38406619764E+03  0.00000000000E+00 0. -1.
         -1   -1    0    0    0  501 -0.00000000000E+00 -0.00000000000E+00 -0.87476175787E+02  0.87476175787E+02  0.00000000000E+00 0.  1.
         23    2    1    2    0    0 -0.99127491594E+02  0.45287962358E+02  0.21768542141E+02  0.14463058175E+03  0.92557423399E+02 0.  0.
         23    2    1    2    0    0  0.10311505360E+03 -0.93046674911E+01  0.19204791235E+03  0.23656710941E+03  0.91445642329E+02 0.  0.
        -11    1    3    3    0    0 -0.83318226191E+01 -0.19295158076E+02 -0.16605743985E+02  0.26785688840E+02  0.00000000000E+00 0.  1.
         11    1    3    3    0    0 -0.90795668975E+02  0.64583120433E+02  0.38374286126E+02  0.11784489291E+03  0.00000000000E+00 0. -1.
        -13    1    4    4    0    0  0.16133488712E+01 -0.31070897592E+02  0.68235918413E+02  0.74994294006E+02  0.00000000000E+00 0.  1.
         13    1    4    4    0    0  0.10150170473E+03  0.21766230100E+02  0.12381199394E+03  0.16157281541E+03  0.00000000000E+00 0. -1.
         21    1    1    2  502  501 -0.39875620024E+01 -0.35983294866E+02  0.82773567359E+02  0.90344682264E+02  0.00000000000E+00 0. -1.
<scales pt_clust_5="13000.00000" pt_clust_6="13000.00000" pt_clust_7="13000.00000" pt_clust_8="13000.00000" pt_clust_9="36.20357"></scales>
<clustering>
<clus scale="   36.204">  1  9  2 -1</clus>
<clus scale="   91.446">  7  8 -1 -1</clus>
<clus scale="   92.557">  5  6 -1 -1</clus>
<clus scale="  140.185">  1  7  2 -1</clus>
<clus scale="   36.204">  1  5  2 -1</clus>
</clustering>
</event>
<event>
 9    1  0.9000149E-006  0.1239284E+03  0.7546771E-02  0.1237114E+00
         -1   -1    0    0    0  501 -0.00000000000E+00  0.00000000000E+00  0.41909527310E+02  0.41909527310E+02  0.00000000000E+00 0.  1.
          1   -1    0    0  502    0  0.00000000000E+00 -0.00000000000E+00 -0.52333494441E+03  0.52333494441E+03  0.00000000000E+00 0. -1.
         23    2    1    2    0    0 -0.88957392962E+02 -0.49431411772E+02 -0.22916560463E+03  0.26663311808E+03  0.90661254547E+02 0.  0.
         23    2    1    2    0    0  0.46975414859E+02  0.52076149873E+02 -0.20498120519E+03  0.23532827667E+03  0.91888455927E+02 0.  0.
        -11    1    3    3    0    0 -0.75688858144E+02 -0.75425493499E+02 -0.17304215132E+03  0.20337500940E+03  0.00000000000E+00 0. -1.
         11    1    3    3    0    0 -0.13268534818E+02  0.25994081727E+02 -0.56123453313E+02  0.63258108672E+02  0.00000000000E+00 0.  1.
        -13    1    4    4    0    0  0.55293416890E+02  0.72404634533E+02 -0.14284263602E+03  0.16942199302E+03  0.00000000000E+00 0.  1.
         13    1    4    4    0    0 -0.83180020309E+01 -0.20328484660E+02 -0.62138569167E+02  0.65906283649E+02  0.00000000000E+00 0. -1.
         21    1    1    2  502  501  0.41981978103E+02 -0.26447381009E+01 -0.47278607274E+02  0.63283076971E+02  0.00000000000E+00 0.  1.
<scales pt_clust_5="13000.00000" pt_clust_6="13000.00000" pt_clust_7="13000.00000" pt_clust_8="13000.00000" pt_clust_9="42.06520"></scales>
<clustering>
<clus scale="   42.065">  1  9  2 -1</clus>
<clus scale="   90.661">  5  6 -1 -1</clus>
<clus scale="   91.888">  7  8 -1 -1</clus>
<clus scale="  123.021">  1  5  2 -1</clus>
<clus scale="  123.928">  2  5  1 -1</clus>
</clustering>
</event>
<event>
 9    1  0.9000149E-006  0.1105214E+03  0.7546771E-02  0.1260313E+00
         -1   -1    0    0    0  501 -0.00000000000E+00  0.00000000000E+00  0.18596004328E+03  0.18596004328E+03  0.00000000000E+00 0.  1.
          1   -1    0    0  502    0  0.00000000000E+00 -0.00000000000E+00 -0.14358464181E+03  0.14358464181E+03  0.00000000000E+00 0. -1.
         23    2    1    2    0    0  0.62104655458E+02 -0.21132912909E+02  0.10889096171E+03  0.15785167874E+03  0.93575224827E+02 0.  0.
         23    2    1    2    0    0 -0.28180340968E+02  0.41508145656E+02 -0.13383928937E+02  0.10544363301E+03  0.91772394630E+02 0.  0.
        -11    1    3    3    0    0  0.54892011220E+02  0.19319672898E+02  0.22879102728E+02  0.62528681405E+02  0.00000000000E+00 0.  1.
         11    1    3    3    0    0  0.72126442380E+01 -0.40452585807E+02  0.86011858981E+02  0.95322997334E+02  0.00000000000E+00 0. -1.
        -13    1    4    4    0    0 -0.67796728396E+01  0.57566516544E+02  0.21198829921E+02  0.61719188109E+02  0.00000000000E+00 0.  1.
         13    1    4    4    0    0 -0.21400668129E+02 -0.16058370888E+02 -0.34582758857E+02  0.43724444903E+02  0.00000000000E+00 0. -1.
         21    1    1    2  502  501 -0.33924314490E+02 -0.20375232747E+02 -0.53131631298E+02  0.66249373337E+02  0.00000000000E+00 0. -1.
<scales pt_clust_5="13000.00000" pt_clust_6="13000.00000" pt_clust_7="13000.00000" pt_clust_8="13000.00000" pt_clust_9="39.57283"></scales>
<clustering>
<clus scale="   39.573">  2  9  1 -1</clus>
<clus scale="   91.772">  7  8 -1 -1</clus>
<clus scale="   93.575">  5  6 -1 -1</clus>
<clus scale="  108.999">  2  7  1 -1</clus>
<clus scale="   39.573">  2  5  1 -1</clus>
</clustering>
</event>
<event>
 9    1  0.9000149E-006  0.1378148E+03  0.7546771E-02  0.1226042E+00
          2   -1    0    0  502    0  0.00000000000E+00  0.00000000000E+00  0.19610965623E+03  0.19610965623E+03  0.00000000000E+00 0. -1.
         -2   -1    0    0    0  501 -0.00000000000E+00 -0.00000000000E+00 -0.35778374924E+03  0.35778374924E+03  0.00000000000E+00 0.  1.
         23    2    1    2    0    0  0.76274211874E+02  0.63643328497E+02 -0.23352117701E+03  0.26879892830E+03  0.88614305185E+02 0.  0.
         23    2    1    2    0    0  0.94076016269E+01  0.65127738342E+02 -0.48086752943E+01  0.11246925811E+03  0.91082849060E+02 0.  0.
        -11    1    3    3    0    0  0.76590967216E+02  0.27246093477E+02 -0.21069813296E+03  0.22583673107E+03  0.00000000000E+00 0.  1.
         11    1    3    3    0    0 -0.31675534181E+00  0.36397235019E+02 -0.22823044057E+02  0.42962197232E+02  0.00000000000E+00 0. -1.
        -13    1    4    4    0    0  0.43319539958E+02  0.21285756997E+02 -0.23882846210E+02  0.53852171138E+02  0.00000000000E+00 0.  1.
         13    1    4    4    0    0 -0.33911938332E+02  0.43841981344E+02  0.19074170915E+02  0.58617086977E+02  0.00000000000E+00 0. -1.
         21    1    1    2  502  501 -0.85681813501E+02 -0.12877106684E+03  0.76655759293E+02  0.17262521905E+03  0.00000000000E+00 0. -1.
<scales pt_clust_5="13000.00000" pt_clust_6="13000.00000" pt_clust_7="13000.00000" pt_clust_8="13000.00000" pt_clust_9="105.54821"></scales>
<clustering>
<clus scale="   88.614">  5  6 -1 -1</clus>
<clus scale="   91.083">  7  8 -1 -1</clus>
<clus scale="  112.366">  1  7  2 -1</clus>
<clus scale="  105.548">  1  9  2 -1</clus>
<clus scale="  112.366">  1  5  2 -1</clus>
</clustering>
</event>
<event>
 9    1  0.9000149E-006  0.1329797E+03  0.7546771E-02  0.1223183E+00
         -1   -1    0    0    0  501 -0.00000000000E+00  0.00000000000E+00  0.32070436098E+02  0.32070436098E+02  0.00000000000E+00 0.  1.
          1   -1    0    0  502    0  0.00000000000E+00 -0.00000000000E+00 -0.90739869616E+03  0.90739869616E+03  0.00000000000E+00 0. -1.
         23    2    1    2    0    0  0.24764361758E+02  0.91113188488E+02 -0.16212126155E+03  0.20823901569E+03  0.90362035609E+02 0.  0.
         23    2    1    2    0    0 -0.12013122986E+02 -0.10689383722E+03 -0.60596573823E+03  0.62208658322E+03  0.90700791379E+02 0.  0.
        -11    1    3    3    0    0  0.80825058679E+01  0.10485139188E+03 -0.11187258457E+03  0.15354027634E+03  0.00000000000E+00 0.  1.
         11    1    3    3    0    0  0.16681855890E+02 -0.13738203391E+02 -0.50248676981E+02  0.54698739352E+02  0.00000000000E+00 0. -1.
        -13    1    4    4    0    0 -0.47086657147E+02 -0.58176179833E+02 -0.24545359567E+03  0.25661077298E+03  0.00000000000E+00 0.  1.
         13    1    4    4    0    0  0.35073534161E+02 -0.48717657383E+02 -0.36051214256E+03  0.36547581025E+03  0.00000000000E+00 0. -1.
         21    1    1    2  502  501 -0.12751238772E+02  0.15780648728E+02 -0.10724126027E+03  0.10914353334E+03  0.00000000000E+00 0. -1.
<scales pt_clust_5="13000.00000" pt_clust_6="13000.00000" pt_clust_7="13000.00000" pt_clust_8="13000.00000" pt_clust_9="20.28849"></scales>
<clustering>
<clus scale="   20.288">  2  9  1 -1</clus>
<clus scale="   90.362">  5  6 -1 -1</clus>
<clus scale="   90.701">  7  8 -1 -1</clus>
<clus scale="  132.749">  1  5  2 -1</clus>
<clus scale="   20.288">  2  5  1 -1</clus>
</clustering>
</event>
<event>
 9    1  0.9000149E-006  0.2124829E+03  0.7546771E-02  0.1140896E+00
          1   -1    0    0  502    0  0.00000000000E+00  0.00000000000E+00  0.26340076385E+03  0.26340076385E+03  0.00000000000E+00 0. -1.
         -1   -1    0    0    0  501 -0.00000000000E+00 -0.00000000000E+00 -0.79186155509E+03  0.79186155509E+03  0.00000000000E+00 0.  1.
         23    2    1    2    0    0 -0.64145197063E+02 -0.17205754451E+03 -0.71366245766E+03  0.74438833869E+03  0.10526865810E+03 0.  0.
         23    2    1    2    0    0  0.88696025473E+02  0.17695850385E+03  0.13984193303E+03  0.25906405850E+03  0.91526625381E+02 0.  0.
        -11    1    4    4    0    0  0.28433041779E+02  0.14892197003E+03  0.96798308236E+02  0.17987802395E+03  0.00000000000E+00 0. -1.
         11    1    4    4    0    0  0.60262983694E+02  0.28036533817E+02  0.43043624794E+02  0.79186034549E+02  0.00000000000E+00 0.  1.
        -13    1    3    3    0    0 -0.81538792054E+02 -0.10515836888E+03 -0.56474704925E+03  0.58021210500E+03  0.00000000000E+00 0.  1.
         13    1    3    3    0    0  0.17393594990E+02 -0.66899175632E+02 -0.14891540842E+03  0.16417623370E+03  0.00000000000E+00 0. -1.
         21    1    1    2  502  501 -0.24550828410E+02 -0.49009593364E+01  0.45359733388E+02  0.51809921743E+02  0.00000000000E+00 0. -1.
<scales pt_clust_5="13000.00000" pt_clust_6="13000.00000" pt_clust_7="13000.00000" pt_clust_8="13000.00000" pt_clust_9="25.03523"></scales>
<clustering>
<clus scale="   25.035">  1  9  2 -1</clus>
<clus scale="   91.527">  5  6 -1 -1</clus>
<clus scale="  105.269">  7  8 -1 -1</clus>
<clus scale="  206.021">  1  5  2 -1</clus>
<clus scale="   25.035">  1  5  2 -1</clus>
</clustering>
</event>
<event>
 9    1  0.9000149E-006  0.1375514E+03  0.7546771E-02  0.1217568E+00
          2   -1    0    0  502    0  0.00000000000E+00  0.00000000000E+00  0.39005208720E+03  0.39005208720E+03  0.00000000000E+00 0. -1.
         -2   -1    0    0    0  501 -0.00000000000E+00 -0.00000000000E+00 -0.15754764022E+03  0.15754764022E+03  0.00000000000E+00 0.  1.
         23    2    1    2    0    0 -0.86213434411E+02  0.34369171659E+02 -0.73029145348E+02  0.15183130230E+03  0.95422701979E+02 0.  0.
         23    2    1    2    0    0  0.10997477790E+03 -0.10277353465E+03  0.24248947929E+03  0.29975635033E+03  0.91628984476E+02 0.  0.
        -13    1    4    4    0    0  0.30208206667E+02  0.13497940861E+02  0.29531289317E+02  0.44348925649E+02  0.00000000000E+00 0. -1.
         13    1    4    4    0    0  0.79766571229E+02 -0.11627147551E+03  0.21295818998E+03  0.25540742468E+03  0.00000000000E+00 0.  1.
        -13    1    3    3    0    0 -0.32208309140E+02  0.50612878616E+02 -0.74206977825E+02  0.95423866078E+02  0.00000000000E+00 0.  1.
         13    1    3    3    0    0 -0.54005125271E+02 -0.16243706957E+02  0.11778324768E+01  0.56407436217E+02  0.00000000000E+00 0. -1.
         21    1    1    2  502  501 -0.23761343485E+02  0.68404362988E+02  0.63044113031E+02  0.96012074802E+02  0.00000000000E+00 0.  1.
<scales pt_clust_5="13000.00000" pt_clust_6="13000.00000" pt_clust_7="13000.00000" pt_clust_8="13000.00000" pt_clust_9="72.41380"></scales>
<clustering>
<clus scale="   72.414">  1  9  2 -1</clus>
<clus scale="   91.629">  5  6 -1 -1</clus>
<clus scale="   95.423">  7  8 -1 -1</clus>
<clus scale="  134.947">  1  5  2 -1</clus>
<clus scale="   72.414">  1  5  2 -1</clus>
</clustering>
</event>
<event>
 9    1  0.9000149E-006  0.1352398E+03  0.7546771E-02  0.1219949E+00
          3   -1    0    0  502    0  0.00000000000E+00  0.00000000000E+00  0.39360758077E+03  0.39360758077E+03  0.00000000000E+00 0. -1.
         -3   -1    0    0    0  501 -0.00000000000E+00 -0.00000000000E+00 -0.16608400979E+03  0.16608400979E+03  0.00000000000E+00 0.  1.
         23    2    1    2    0    0  0.62415619843E+01  0.10116518533E+03 -0.99971887299E+02  0.16872370364E+03  0.90553620022E+02 0.  0.
         23    2    1    2    0    0  0.58024257069E+02 -0.92114940548E+02  0.26666752586E+03  0.30201823942E+03  0.90837607368E+02 0.  0.
        -11    1    3    3    0    0  0.33492827599E+02  0.26199941436E+01 -0.27214335949E+02  0.43234869620E+02  0.00000000000E+00 0. -1.
         11    1    3    3    0    0 -0.27251265615E+02  0.98545191191E+02 -0.72757551350E+02  0.12548883402E+03  0.00000000000E+00 0.  1.
        -11    1    4    4    0    0  0.37722646878E+02 -0.26721474460E+01  0.30231023922E+02  0.48415423853E+02  0.00000000000E+00 0.  1.
         11    1    4    4    0    0  0.20301610191E+02 -0.89442793102E+02  0.23643650194E+03  0.25360281556E+03  0.00000000000E+00 0. -1.
         21    1    1    2  502  501 -0.64265819053E+02 -0.90502447866E+01  0.60827932418E+02  0.88949647507E+02  0.00000000000E+00 0.  1.
<scales pt_clust_5="13000.00000" pt_clust_6="13000.00000" pt_clust_7="13000.00000" pt_clust_8="13000.00000" pt_clust_9="64.89994"></scales>
<clustering>
<clus scale="   64.900">  1  9  2 -1</clus>
<clus scale="   90.554">  5  6 -1 -1</clus>
<clus scale="   90.838">  7  8 -1 -1</clus>
<clus scale="  135.049">  2  5  1 -1</clus>
<clus scale="   64.900">  1  5  2 -1</clus>
</clustering>
</event>
<event>
 9    1  0.9000149E-006  0.1099222E+03  0.7546771E-02  0.1261580E+00
          1   -1    0    0  502    0  0.00000000000E+00  0.00000000000E+00  0.36179070914E+03  0.36179070914E+03  0.00000000000E+00 0. -1.
         -1   -1    0    0    0  501 -0.00000000000E+00 -0.00000000000E+00 -0.93777934732E+02  0.93777934732E+02  0.00000000000E+00 0.  1.
         23    2    1    2    0    0  0.52403557751E+00 -0.37548836680E+02 -0.43245867886E+02  0.10600153720E+03  0.89196025976E+02 0.  0.
         23    2    1    2    0    0  0.13481799590E+02  0.62910768621E+02  0.29685962993E+03  0.31721401458E+03  0.91430670127E+02 0.  0.
        -13    1    4    4    0    0 -0.28177510378E+02  0.12668367904E+02  0.32194041537E+02  0.44619681161E+02  0.00000000000E+00 0.  1.
         13    1    4    4    0    0  0.41659309968E+02  0.50242400717E+02  0.26466558839E+03  0.27259433342E+03  0.00000000000E+00 0. -1.
        -13    1    3    3    0    0 -0.71317566694E+01 -0.66026208343E+02 -0.23205587811E+02  0.70347860288E+02  0.00000000000E+00 0.  1.
         13    1    3    3    0    0  0.76557922469E+01  0.28477371663E+02 -0.20040280075E+02  0.35653676911E+02  0.00000000000E+00 0. -1.
         21    1    1    2  502  501 -0.14005835168E+02 -0.25361931941E+02  0.14399012367E+02  0.32353092088E+02  0.00000000000E+00 0. -1.
<scales pt_clust_5="13000.00000" pt_clust_6="13000.00000" pt_clust_7="13000.00000" pt_clust_8="13000.00000" pt_clust_9="28.97225"></scales>
<clustering>
<clus scale="   28.972">  2  9  1 -1</clus>
<clus scale="   89.196">  7  8 -1 -1</clus>
<clus scale="   91.431">  5  6 -1 -1</clus>
<clus scale="  108.071">  2  7  1 -1</clus>
<clus scale="  109.922">  1  5  2 -1</clus>
</clustering>
</event>
<event>
 9    1  0.9000149E-006  0.1016631E+03  0.7546771E-02  0.1277158E+00
         -2   -1    0    0    0  501 -0.00000000000E+00  0.00000000000E+00  0.13130711407E+03  0.13130711407E+03  0.00000000000E+00 0.  1.
          2   -1    0    0  502    0  0.00000000000E+00 -0.00000000000E+00 -0.17106541497E+03  0.17106541497E+03  0.00000000000E+00 0. -1.
         23    2    1    2    0    0  0.17360819816E+02 -0.19360417050E+02  0.77180796199E+02  0.12223886734E+03  0.91155041409E+02 0.  0.
         23    2    1    2    0    0 -0.24731143916E+02  0.40018586875E+02 -0.11968618215E+03  0.15802872708E+03  0.91843233887E+02 0.  0.
        -13    1    4    4    0    0  0.21047919672E+01  0.50109836191E+02 -0.11923588325E+03  0.12935463535E+03  0.00000000000E+00 0. -1.
         13    1    4    4    0    0 -0.26835935883E+02 -0.10091249316E+02 -0.45029889884E+00  0.28674091731E+02  0.00000000000E+00 0.  1.
        -13    1    3    3    0    0 -0.17577112760E+02  0.18781039507E+02 -0.39475488006E+01  0.26024324765E+02  0.00000000000E+00 0. -1.
         13    1    3    3    0    0  0.34937932577E+02 -0.38141456557E+02  0.81128345000E+02  0.96214542578E+02  0.00000000000E+00 0.  1.
         21    1    1    2  502  501  0.73703240998E+01 -0.20658169825E+02  0.27470850486E+01  0.22104934610E+02  0.00000000000E+00 0.  1.
<scales pt_clust_5="13000.00000" pt_clust_6="13000.00000" pt_clust_7="13000.00000" pt_clust_8="13000.00000" pt_clust_9="21.93357"></scales>
<clustering>
<clus scale="   21.934">  1  9  2 -1</clus>
<clus scale="   91.155">  7  8 -1 -1</clus>
<clus scale="   91.843">  5  6 -1 -1</clus>
<clus scale="  101.042">  1  7  2 -1</clus>
<clus scale="  101.663">  2  5  1 -1</clus>
</clustering>
</event>
<event>
 9    1  0.9000149E-006  0.1173553E+03  0.7546771E-02  0.1248886E+00
          1   -1    0    0  502    0  0.00000000000E+00  0.00000000000E+00  0.63427836909E+03  0.63427836909E+03  0.00000000000E+00 0. -1.
         -1   -1    0    0    0  501 -0.00000000000E+00 -0.00000000000E+00 -0.30198676743E+02  0.30198676743E+02  0.00000000000E+00 0.  1.
         23    2    1    2    0    0 -0.22580173644E+02 -0.56404293738E+02  0.17831059161E+03  0.21001885391E+03  0.92854420042E+02 0.  0.
         23    2    1    2    0    0  0.25852194810E+02  0.87030784211E+02  0.31972942507E+03  0.34403581713E+03  0.88831553142E+02 0.  0.
        -11    1    3    3    0    0 -0.22190329144E+02 -0.20681405060E+01 -0.13437274915E+01  0.22326968362E+02  0.00000000000E+00 0.  1.
         11    1    3    3    0    0 -0.38984449987E+00 -0.54336153232E+02  0.17965431910E+03  0.18769188555E+03  0.00000000000E+00 0. -1.
        -13    1    4    4    0    0  0.39863655873E+02  0.33566813343E+02  0.24835552305E+03  0.25376427614E+03  0.00000000000E+00 0. -1.
         13    1    4    4    0    0 -0.14011461063E+02  0.53463970867E+02  0.71373902027E+02  0.90271540989E+02  0.00000000000E+00 0.  1.
         21    1    1    2  502  501 -0.32720211664E+01 -0.30626490472E+02  0.10603967566E+03  0.11042237480E+03  0.00000000000E+00 0. -1.
<scales pt_clust_5="13000.00000" pt_clust_6="13000.00000" pt_clust_7="13000.00000" pt_clust_8="13000.00000" pt_clust_9="30.80078"></scales>
<clustering>
<clus scale="   30.801">  1  9  2 -1</clus>
<clus scale="   88.832">  7  8 -1 -1</clus>
<clus scale="   92.854">  5  6 -1 -1</clus>
<clus scale="  114.199">  1  7  2 -1</clus>
<clus scale="   30.801">  1  5  2 -1</clus>
</clustering>
</event>
<event>
 9    1  0.9000149E-006  0.1030373E+03  0.7546771E-02  0.1274348E+00
          1   -1    0    0  502    0  0.00000000000E+00  0.00000000000E+00  0.35011155950E+03  0.35011155950E+03  0.00000000000E+00 0. -1.
         -1   -1    0    0    0  501 -0.00000000000E+00 -0.00000000000E+00 -0.56350508993E+02  0.56350508993E+02  0.00000000000E+00 0.  1.
         23    2    1    2    0    0 -0.28528226695E+02 -0.48225042465E+02  0.32807589882E+02  0.11210130282E+03  0.91382983655E+02 0.  0.
         23    2    1    2    0    0 -0.69789891124E-01  0.19936328863E+02  0.20323412775E+03  0.22400723514E+03  0.92074256094E+02 0.  0.
        -11    1    4    4    0    0  0.37389098626E+02 -0.17070493707E+02  0.78360754981E+02  0.88485899287E+02  0.00000000000E+00 0.  1.
         11    1    4    4    0    0 -0.37458888517E+02  0.37006822570E+02  0.12487337277E+03  0.13552133586E+03  0.00000000000E+00 0. -1.
        -13    1    3    3    0    0 -0.41878623191E+02 -0.69593848440E+02  0.19183416489E+02  0.83457332148E+02  0.00000000000E+00 0. -1.
         13    1    3    3    0    0  0.13350396496E+02  0.21368805975E+02  0.13624173393E+02  0.28643970675E+02  0.00000000000E+00 0.  1.
         21    1    1    2  502  501  0.28598016586E+02  0.28288713603E+02  0.57719332880E+02  0.70353530530E+02  0.00000000000E+00 0.  1.
<scales pt_clust_5="13000.00000" pt_clust_6="13000.00000" pt_clust_7="13000.00000" pt_clust_8="13000.00000" pt_clust_9="40.22559"></scales>
<clustering>
<clus scale="   40.226">  1  9  2 -1</clus>
<clus scale="   91.383">  7  8 -1 -1</clus>
<clus scale="   92.074">  5  6 -1 -1</clus>
<clus scale="  102.420">  2  7  1 -1</clus>
<clus scale="   40.226">  1  5  2 -1</clus>
</clustering>
</event>
<event>
 9    1  0.9000149E-006  0.1020960E+03  0.7546771E-02  0.1277435E+00
         -3   -1    0    0    0  501 -0.00000000000E+00  0.00000000000E+00  0.18423065349E+03  0.18423065349E+03  0.00000000000E+00 0.  1.
          3   -1    0    0  502    0  0.00000000000E+00 -0.00000000000E+00 -0.11845375394E+03  0.11845375394E+03  0.00000000000E+00 0. -1.
         23    2    1    2    0    0 -0.41822518000E+00  0.29316310847E+02  0.96959808357E+02  0.13889196942E+03  0.95027121071E+02 0.  0.
         23    2    1    2    0    0 -0.28886161154E+02 -0.63304463070E+02 -0.28814145274E+02  0.11885300555E+03  0.91945182628E+02 0.  0.
        -11    1    4    4    0    0 -0.45690442425E+02 -0.46934461553E+02 -0.53664931208E+02  0.84678126171E+02  0.00000000000E+00 0. -1.
         11    1    4    4    0    0  0.16804281271E+02 -0.16370001517E+02  0.24850785934E+02  0.34174879374E+02  0.00000000000E+00 0.  1.
        -13    1    3    3    0    0  0.26316448302E+02  0.48085818547E+02  0.90175664584E+02  0.10552938870E+03  0.00000000000E+00 0.  1.
         13    1    3    3    0    0 -0.26734673482E+02 -0.18769507700E+02  0.67841437731E+01  0.33362580719E+02  0.00000000000E+00 0. -1.
         21    1    1    2  502  501  0.29304386334E+02  0.33988152223E+02 -0.23687635333E+01  0.44939432468E+02  0.00000000000E+00 0.  1.
<scales pt_clust_5="13000.00000" pt_clust_6="13000.00000" pt_clust_7="13000.00000" pt_clust_8="13000.00000" pt_clust_9="44.87696"></scales>
<clustering>
<clus scale="   44.877">  2  9  1 -1</clus>
<clus scale="   91.945">  5  6 -1 -1</clus>
<clus scale="   95.027">  7  8 -1 -1</clus>
<clus scale="   99.234">  2  5  1 -1</clus>
<clus scale="   44.877">  2  5  1 -1</clus>
</clustering>
</event>
<event>
 9    1  0.9000149E-006  0.9593214E+02  0.7546771E-02  0.1292817E+00
          1   -1    0    0  502    0  0.00000000000E+00  0.00000000000E+00  0.23374340906E+03  0.23374340906E+03  0.00000000000E+00 0. -1.
         -1   -1    0    0    0  501 -0.00000000000E+00 -0.00000000000E+00 -0.10691324790E+03  0.10691324790E+03  0.00000000000E+00 0.  1.
         23    2    1    2    0    0 -0.17004680917E+02 -0.30888938938E+02 -0.37873497996E+02  0.10663814971E+03  0.93241661296E+02 0.  0.
         23    2    1    2    0    0  0.85519687999E+00  0.10581767656E+01  0.24819348710E+02  0.90079976909E+02  0.86582625681E+02 0.  0.
        -11    1    3    3    0    0  0.27507790849E+02 -0.42437218988E+02 -0.33016904084E+02  0.60396291840E+02  0.00000000000E+00 0.  1.
         11    1    3    3    0    0 -0.44512471765E+02  0.11548280050E+02 -0.48565939126E+01  0.46241857869E+02  0.00000000000E+00 0. -1.
        -11    1    4    4    0    0 -0.81956296876E+01 -0.40717314691E+02  0.22583934170E+02  0.47276866903E+02  0.00000000000E+00 0.  1.
         11    1    4    4    0    0  0.90508265676E+01  0.41775491457E+02  0.22354145410E+01  0.42803110006E+02  0.00000000000E+00 0. -1.
         21    1    1    2  502  501  0.16149484037E+02  0.29830762172E+02  0.13988431045E+03  0.14393853034E+03  0.00000000000E+00 0. -1.
<scales pt_clust_5="13000.00000" pt_clust_6="13000.00000" pt_clust_7="13000.00000" pt_clust_8="13000.00000" pt_clust_9="33.92168"></scales>
<clustering>
<clus scale="   33.922">  1  9  2 -1</clus>
<clus scale="   86.583">  7  8 -1 -1</clus>
<clus scale="   89.474">  1  7  2 -1</clus>
<clus scale="   93.242">  5  6 -1 -1</clus>
<clus scale="   33.922">  1  5  2 -1</clus>
</clustering>
</event>
<event>
 9    1  0.9000149E-006  0.9885000E+02  0.7546771E-02  0.1283639E+00
          3   -1    0    0  502    0  0.00000000000E+00  0.00000000000E+00  0.12805868633E+03  0.12805868633E+03  0.00000000000E+00 0. -1.
         -3   -1    0    0    0  501 -0.00000000000E+00 -0.00000000000E+00 -0.12322241324E+03  0.12322241324E+03  0.00000000000E+00 0.  1.
         23    2    1    2    0    0 -0.34019984495E+02 -0.34616237897E+02 -0.27903248307E+02  0.10736933489E+03  0.91618445396E+02 0.  0.
         23    2    1    2    0    0 -0.55296763071E+01  0.17716493862E+02  0.11417615808E+02  0.95907591151E+02  0.93399425131E+02 0.  0.
        -13    1    3    3    0    0 -0.63356504593E+02 -0.25603211935E+02 -0.33611481267E+02  0.76153153635E+02  0.00000000000E+00 0.  1.
         13    1    3    3    0    0  0.29336520098E+02 -0.90130259620E+01  0.57082329601E+01  0.31216181252E+02  0.00000000000E+00 0. -1.
        -13    1    4    4    0    0 -0.20063309339E+02 -0.53159759474E+01  0.46835977193E+02  0.51228944373E+02  0.00000000000E+00 0. -1.
         13    1    4    4    0    0  0.14533633032E+02  0.23032469809E+02 -0.35418361386E+02  0.44678646777E+02  0.00000000000E+00 0.  1.
         21    1    1    2  502  501  0.39549660802E+02  0.16899744036E+02  0.21321905588E+02  0.48004173526E+02  0.00000000000E+00 0. -1.
<scales pt_clust_5="13000.00000" pt_clust_6="13000.00000" pt_clust_7="13000.00000" pt_clust_8="13000.00000" pt_clust_9="43.00903"></scales>
<clustering>
<clus scale="   43.009">  1  9  2 -1</clus>
<clus scale="   91.618">  5  6 -1 -1</clus>
<clus scale="   93.399">  7  8 -1 -1</clus>
<clus scale="   97.169">  2  5  1 -1</clus>
<clus scale="   43.009">  1  5  2 -1</clus>
</clustering>
</event>
<event>
 9    1  0.9000149E-006  0.1622336E+03  0.7546771E-02  0.1194226E+00
         -1   -1    0    0    0  501 -0.00000000000E+00  0.00000000000E+00  0.21337126887E+03  0.21337126887E+03  0.00000000000E+00 0.  1.
          1   -1    0    0  502    0  0.00000000000E+00 -0.00000000000E+00 -0.55733704654E+03  0.55733704654E+03  0.00000000000E+00 0. -1.
         23    2    1    2    0    0 -0.86379645965E+02 -0.45192801619E+02  0.48202139641E+02  0.14417059682E+03  0.94646089013E+02 0.  0.
         23    2    1    2    0    0 -0.16013439522E+02  0.13803355857E+03  0.42355737319E+02  0.17056123177E+03  0.89372432892E+02 0.  0.
        -11    1    3    3    0    0 -0.99778560962E+02 -0.24079685510E+02  0.57308861458E+02  0.11755806261E+03  0.00000000000E+00 0.  1.
         11    1    3    3    0    0  0.13398914997E+02 -0.21113116110E+02 -0.91067218172E+01  0.26612534212E+02  0.00000000000E+00 0. -1.
        -13    1    4    4    0    0 -0.44203782485E+02  0.12250497227E+03  0.46111927703E+02  0.13815843258E+03  0.00000000000E+00 0.  1.
         13    1    4    4    0    0  0.28190342963E+02  0.15528586303E+02 -0.37561903840E+01  0.32402799187E+02  0.00000000000E+00 0. -1.
         21    1    1    2  502  501  0.10239308549E+03 -0.92840756954E+02 -0.43452365462E+03  0.45597648682E+03  0.00000000000E+00 0. -1.
<scales pt_clust_5="13000.00000" pt_clust_6="13000.00000" pt_clust_7="13000.00000" pt_clust_8="13000.00000" pt_clust_9="135.39684"></scales>
<clustering>
<clus scale="   89.372">  7  8 -1 -1</clus>
<clus scale="   94.646">  5  6 -1 -1</clus>
<clus scale="  135.874">  1  5  2 -1</clus>
<clus scale="  135.397">  2  9  1 -1</clus>
<clus scale="  135.397">  2  5  1 -1</clus>
</clustering>
</event>
<event>
 9    1  0.9000149E-006  0.1278666E+03  0.7546771E-02  0.1230986E+00
         -2   -1    0    0    0  501 -0.00000000000E+00  0.00000000000E+00  0.81803045858E+02  0.81803045858E+02  0.00000000000E+00 0.  1.
          2   -1    0    0  502    0  0.00000000000E+00 -0.00000000000E+00 -0.29672564647E+03  0.29672564647E+03  0.00000000000E+00 0. -1.
         23    2    1    2    0    0 -0.93597773437E+01  0.86365120369E+02 -0.15657541373E+02  0.12591353757E+03  0.89791541329E+02 0.  0.
         23    2    1    2    0    0 -0.70723021763E+01 -0.98887861769E+02 -0.17426561917E+03  0.22018362236E+03  0.91013707037E+02 0.  0.
        -11    1    3    3    0    0  0.38431538208E+02  0.56020894095E+02 -0.35908278419E+01  0.68031005790E+02  0.00000000000E+00 0.  1.
         11    1    3    3    0    0 -0.47791315551E+02  0.30344226274E+02 -0.12066713531E+02  0.57882531784E+02  0.00000000000E+00 0. -1.
        -13    1    4    4    0    0 -0.31946868410E+01 -0.66705623501E+02 -0.17546750209E+03  0.18774634623E+03  0.00000000000E+00 0. -1.
         13    1    4    4    0    0 -0.38776153353E+01 -0.32182238268E+02  0.12018829212E+01  0.32437276137E+02  0.00000000000E+00 0.  1.
         21    1    1    2  502  501  0.16432079520E+02  0.12522741400E+02 -0.24999440067E+02  0.32431532391E+02  0.00000000000E+00 0. -1.
<scales pt_clust_5="13000.00000" pt_clust_6="13000.00000" pt_clust_7="13000.00000" pt_clust_8="13000.00000" pt_clust_9="20.65992"></scales>
<clustering>
<clus scale="   20.660">  2  9  1 -1</clus>
<clus scale="   89.792">  5  6 -1 -1</clus>
<clus scale="   91.014">  7  8 -1 -1</clus>
<clus scale="  127.000">  1  5  2 -1</clus>
<clus scale="   20.660">  2  5  1 -1</clus>
</clustering>
</event>
<event>
 9    1  0.9000149E-006  0.1574884E+03  0.7546771E-02  0.1213763E+00
         -1   -1    0    0    0  501 -0.00000000000E+00  0.00000000000E+00  0.51978492018E+02  0.51978492018E+02  0.00000000000E+00 0.  1.
          1   -1    0    0  502    0  0.00000000000E+00 -0.00000000000E+00 -0.76909623424E+03  0.76909623424E+03  0.00000000000E+00 0. -1.
         23    2    1    2    0    0 -0.35315403770E+01 -0.39182651172E+02 -0.15054404423E+03  0.17932964410E+03  0.89150771556E+02 0.  0.
         23    2    1    2    0    0  0.60645189417E+02  0.14185251728E+03 -0.28336382834E+03  0.33513311145E+03  0.90659624533E+02 0.  0.
        -11    1    3    3    0    0  0.22702602860E+02  0.90124336652E+01 -0.10563580893E+03  0.10842304305E+03  0.00000000000E+00 0. -1.
         11    1    3    3    0    0 -0.26234143237E+02 -0.48195084837E+02 -0.44908235304E+02  0.70906601047E+02  0.00000000000E+00 0.  1.
        -13    1    4    4    0    0 -0.17355810259E+02  0.41850804080E+02 -0.38839544552E+02  0.59675993272E+02  0.00000000000E+00 0.  1.
         13    1    4    4    0    0  0.78000999676E+02  0.10000171320E+03 -0.24452428379E+03  0.27545711818E+03  0.00000000000E+00 0. -1.
         21    1    1    2  502  501 -0.57113649040E+02 -0.10266986611E+03 -0.28320986966E+03  0.30661197071E+03  0.00000000000E+00 0.  1.
<scales pt_clust_5="13000.00000" pt_clust_6="13000.00000" pt_clust_7="13000.00000" pt_clust_8="13000.00000" pt_clust_9="128.77670"></scales>
<clustering>
<clus scale="   89.151">  5  6 -1 -1</clus>
<clus scale="   90.660">  7  8 -1 -1</clus>
<clus scale="   97.445">  1  5  2 -1</clus>
<clus scale="  128.777">  2  9  1 -1</clus>
<clus scale="  128.777">  2  5  1 -1</clus>
</clustering>
</event>
<event>
 9    1  0.9000149E-006  0.1379292E+03  0.7546771E-02  0.1218809E+00
         -1   -1    0    0    0  501 -0.00000000000E+00  0.00000000000E+00  0.18373915979E+03  0.18373915979E+03  0.00000000000E+00 0.  1.
          1   -1    0    0  502    0  0.00000000000E+00 -0.00000000000E+00 -0.18074009446E+03  0.18074009446E+03  0.00000000000E+00 0. -1.
         23    2    1    2    0    0 -0.61386705184E+02 -0.60598989780E+02  0.71434317343E+02  0.15065223452E+03  0.10076045324E+03 0.  0.
         23    2    1    2    0    0  0.65923902310E+02  0.87007238332E+02 -0.13496903040E+01  0.14158814973E+03  0.90161865891E+02 0.  0.
        -11    1    4    4    0    0 -0.96359177734E+01  0.60865032327E+02 -0.11328955547E+01  0.61633485410E+02  0.00000000000E+00 0. -1.
         11    1    4    4    0    0  0.75559820083E+02  0.26142206005E+02 -0.21679474933E+00  0.79954664316E+02  0.00000000000E+00 0.  1.
        -13    1    3    3    0    0 -0.42548546971E+02 -0.18063941848E+02 -0.18189478479E+02  0.49674359299E+02  0.00000000000E+00 0. -1.
         13    1    3    3    0    0 -0.18838158213E+02 -0.42535047932E+02  0.89623795823E+02  0.10097787523E+03  0.00000000000E+00 0.  1.
         21    1    1    2  502  501 -0.45371971258E+01 -0.26408248552E+02 -0.67085561710E+02  0.72238870003E+02  0.00000000000E+00 0. -1.
<scales pt_clust_5="13000.00000" pt_clust_6="13000.00000" pt_clust_7="13000.00000" pt_clust_8="13000.00000" pt_clust_9="26.79518"></scales>
<clustering>
<clus scale="   26.795">  2  9  1 -1</clus>
<clus scale="   90.162">  5  6 -1 -1</clus>
<clus scale="  100.760">  7  8 -1 -1</clus>
<clus scale="  130.388">  2  5  1 -1</clus>
<clus scale="   26.795">  2  5  1 -1</clus>
</clustering>
</event>
<event>
 9    1  0.9000149E-006  0.1256267E+03  0.7546771E-02  0.1238455E+00
         -1   -1    0    0    0  501 -0.00000000000E+00  0.00000000000E+00  0.37000384103E+03  0.37000384103E+03  0.00000000000E+00 0.  1.
          1   -1    0    0  502    0  0.00000000000E+00 -0.00000000000E+00 -0.13658575695E+03  0.13658575695E+03  0.00000000000E+00 0. -1.
         23    2    1    2    0    0 -0.71295519492E+02 -0.39078461650E+01  0.23251326304E+03  0.25909361780E+03  0.89267927794E+02 0.  0.
         23    2    1    2    0    0  0.72264763312E+02  0.27858106829E+02  0.88859508749E+02  0.15633358931E+03  0.10269327495E+03 0.  0.
        -11    1    4    4    0    0 -0.14446748466E+02  0.31575068074E+02  0.50873164058E+02  0.61593605889E+02  0.00000000000E+00 0.  1.
         11    1    4    4    0    0  0.86711511778E+02 -0.37169612447E+01  0.37986344690E+02  0.94739983421E+02  0.00000000000E+00 0. -1.
        -13    1    3    3    0    0 -0.20698629826E+02 -0.25365499458E+02  0.18042970083E+03  0.18337589476E+03  0.00000000000E+00 0.  1.
         13    1    3    3    0    0 -0.50596889667E+02  0.21457653293E+02  0.52083562212E+02  0.75717723035E+02  0.00000000000E+00 0. -1.
         21    1    1    2  502  501 -0.96924381994E+00 -0.23950260664E+02 -0.87954687714E+02  0.91162390876E+02  0.00000000000E+00 0. -1.
<scales pt_clust_5="13000.00000" pt_clust_6="13000.00000" pt_clust_7="13000.00000" pt_clust_8="13000.00000" pt_clust_9="23.96986"></scales>
<clustering>
<clus scale="   23.970">  2  9  1 -1</clus>
<clus scale="   89.268">  7  8 -1 -1</clus>
<clus scale="  102.693">  5  6 -1 -1</clus>
<clus scale="  114.913">  1  7  2 -1</clus>
<clus scale="   23.970">  2  5  1 -1</clus>
</clustering>
</event>
<event>
 9    1  0.9000149E-006  0.1563927E+03  0.7546771E-02  0.1193611E+00
         -1   -1    0    0    0  501 -0.00000000000E+00  0.00000000000E+00  0.12773624934E+03  0.12773624934E+03  0.00000000000E+00 0.  1.
          1   -1    0    0  502    0  0.00000000000E+00 -0.00000000000E+00 -0.41460185851E+03  0.41460185851E+03  0.00000000000E+00 0. -1.
         23    2    1    2    0    0  0.63059323014E+00  0.10311281595E+03  0.41234943847E+02  0.14593999004E+03  0.94686375139E+02 0.  0.
         23    2    1    2    0    0  0.46844807748E+02 -0.12157555997E+03 -0.29721454718E+03  0.33682688338E+03  0.90226434692E+02 0.  0.
        -13    1    3    3    0    0 -0.20690796465E+02  0.99208619721E+02  0.59565740572E+02  0.11755227235E+03  0.00000000000E+00 0.  1.
         13    1    3    3    0    0  0.21321389695E+02  0.39041962282E+01 -0.18330796725E+02  0.28387717684E+02  0.00000000000E+00 0. -1.
        -13    1    4    4    0    0  0.87547873152E+00 -0.56888645417E+02 -0.45355041414E+02  0.72761007566E+02  0.00000000000E+00 0.  1.
         13    1    4    4    0    0  0.45969329017E+02 -0.64686914555E+02 -0.25185950577E+03  0.26406587582E+03  0.00000000000E+00 0. -1.
         21    1    1    2  502  501 -0.47475400978E+02  0.18462744023E+02 -0.30886005829E+02  0.59571234425E+02  0.00000000000E+00 0.  1.
<scales pt_clust_5="13000.00000" pt_clust_6="13000.00000" pt_clust_7="13000.00000" pt_clust_8="13000.00000" pt_clust_9="50.93905"></scales>
<clustering>
<clus scale="   50.939">  1  9  2 -1</clus>
<clus scale="   90.226">  7  8 -1 -1</clus>
<clus scale="   94.686">  5  6 -1 -1</clus>
<clus scale="  153.734">  2  7  1 -1</clus>
<clus scale="  153.734">  2  5  1 -1</clus>
</clustering>
</event>
<event>
 9    1  0.9000149E-006  0.1344417E+03  0.7546771E-02  0.1226144E+00
          1   -1    0    0  502    0  0.00000000000E+00  0.00000000000E+00  0.31741907897E+03  0.31741907897E+03  0.00000000000E+00 0. -1.
         -1   -1    0    0    0  501 -0.00000000000E+00 -0.00000000000E+00 -0.39060317786E+03  0.39060317786E+03  0.00000000000E+00 0.  1.
         23    2    1    2    0    0  0.99154338940E+02  0.43473925243E+01 -0.36201004820E+03  0.38190112841E+03  0.70332880850E+02 0.  0.
         23    2    1    2    0    0 -0.76321592202E+02  0.21797765237E+01  0.18948596621E+03  0.22398215201E+03  0.91833197519E+02 0.  0.
        -13    1    3    3    0    0  0.45445317114E+02  0.35239066862E+02 -0.13855628684E+03  0.15001637679E+03  0.00000000000E+00 0. -1.
         13    1    3    3    0    0  0.53709021826E+02 -0.30891674337E+02 -0.22345376136E+03  0.23188475162E+03  0.00000000000E+00 0.  1.
        -13    1    4    4    0    0  0.14144031447E+02 -0.21100091751E+02  0.31751046843E+02  0.40661978224E+02  0.00000000000E+00 0.  1.
         13    1    4    4    0    0 -0.90465623649E+02  0.23279868275E+02  0.15773491936E+03  0.18332017378E+03  0.00000000000E+00 0. -1.
         21    1    1    2  502  501 -0.22832746739E+02 -0.65271690480E+01  0.99339983106E+02  0.10213897641E+03  0.00000000000E+00 0.  1.
<scales pt_clust_5="13000.00000" pt_clust_6="13000.00000" pt_clust_7="13000.00000" pt_clust_8="13000.00000" pt_clust_9="23.74738"></scales>
<clustering>
<clus scale="   23.747">  1  9  2 -1</clus>
<clus scale="   70.333">  5  6 -1 -1</clus>
<clus scale="   91.833">  7  8 -1 -1</clus>
<clus scale="  120.781">  2  5  1 -1</clus>
<clus scale="   23.747">  1  5  2 -1</clus>
</clustering>
</event>
<event>
 9    1  0.9000149E-006  0.9866029E+02  0.7546771E-02  0.1283995E+00
          1   -1    0    0  502    0  0.00000000000E+00  0.00000000000E+00  0.77748484114E+03  0.77748484114E+03  0.00000000000E+00 0. -1.
         -1   -1    0    0    0  501 -0.00000000000E+00 -0.00000000000E+00 -0.25960152865E+02  0.25960152865E+02  0.00000000000E+00 0.  1.
         23    2    1    2    0    0  0.11353623914E+01 -0.31028237695E+02  0.10883504835E+03  0.14427328302E+03  0.89474420149E+02 0.  0.
         23    2    1    2    0    0 -0.19105917823E+02  0.60684050352E+02  0.46275621642E+03  0.47592748876E+03  0.91192481348E+02 0.  0.
        -13    1    3    3    0    0 -0.16116898420E+02 -0.41503530975E+02  0.13066186179E+02  0.46400675850E+02  0.00000000000E+00 0.  1.
         13    1    3    3    0    0  0.17252260812E+02  0.10475293280E+02  0.95768862168E+02  0.97872607165E+02  0.00000000000E+00 0. -1.
        -13    1    4    4    0    0  0.27783775978E+02  0.54392617188E+02  0.20660720258E+03  0.21544612127E+03  0.00000000000E+00 0. -1.
         13    1    4    4    0    0 -0.46889693801E+02  0.62914331646E+01  0.25614901384E+03  0.26048136749E+03  0.00000000000E+00 0.  1.
         21    1    1    2  502  501  0.17970555432E+02 -0.29655812657E+02  0.17993342350E+03  0.18324422223E+03  0.00000000000E+00 0.  1.
<scales pt_clust_5="13000.00000" pt_clust_6="13000.00000" pt_clust_7="13000.00000" pt_clust_8="13000.00000" pt_clust_9="34.67576"></scales>
<clustering>
<clus scale="   34.676">  1  9  2 -1</clus>
<clus scale="   89.474">  5  6 -1 -1</clus>
<clus scale="   91.192">  7  8 -1 -1</clus>
<clus scale="   97.074">  2  5  1 -1</clus>
<clus scale="   34.676">  1  5  2 -1</clus>
</clustering>
</event>
<event>
 9    1  0.9000149E-006  0.2019447E+03  0.7546771E-02  0.1148517E+00
          2   -1    0    0  502    0  0.00000000000E+00  0.00000000000E+00  0.40163015864E+03  0.40163015864E+03  0.00000000000E+00 0. -1.
         -2   -1    0    0    0  501 -0.00000000000E+00 -0.00000000000E+00 -0.39419441403E+03  0.39419441403E+03  0.00000000000E+00 0.  1.
         23    2    1    2    0    0  0.89434242540E+02 -0.15258650177E+03 -0.31738867079E+03  0.37402671778E+03  0.88765381773E+02 0.  0.
         23    2    1    2    0    0 -0.88879530614E+02  0.18848192802E+03  0.30451900084E+03  0.38055347114E+03  0.93081224577E+02 0.  0.
        -13    1    3    3    0    0  0.91474263921E+02 -0.70430612998E+02 -0.19481361634E+03  0.22645166663E+03  0.00000000000E+00 0.  1.
         13    1    3    3    0    0 -0.20400213806E+01 -0.82155888772E+02 -0.12257505445E+03  0.14757505115E+03  0.00000000000E+00 0. -1.
        -13    1    4    4    0    0 -0.44602556030E+02  0.17680368999E+03  0.24774835400E+03  0.30761693664E+03  0.00000000000E+00 0. -1.
         13    1    4    4    0    0 -0.44276974583E+02  0.11678238033E+02  0.56770646843E+02  0.72936534499E+02  0.00000000000E+00 0.  1.
         21    1    1    2  502  501 -0.55471192643E+00 -0.35895426250E+02  0.20305414560E+02  0.41244383757E+02  0.00000000000E+00 0.  1.
<scales pt_clust_5="13000.00000" pt_clust_6="13000.00000" pt_clust_7="13000.00000" pt_clust_8="13000.00000" pt_clust_9="35.89971"></scales>
<clustering>
<clus scale="   35.900">  1  9  2 -1</clus>
<clus scale="   88.765">  5  6 -1 -1</clus>
<clus scale="   93.081">  7  8 -1 -1</clus>
<clus scale="  199.992">  2  5  1 -1</clus>
<clus scale="   35.900">  1  5  2 -1</clus>
</clustering>
</event>
<event>
 9    1  0.9000149E-006  0.9301252E+02  0.7546771E-02  0.1297058E+00
          2   -1    0    0  502    0  0.00000000000E+00  0.00000000000E+00  0.49870048873E+03  0.49870048873E+03  0.00000000000E+00 0. -1.
         -2   -1    0    0    0  501 -0.00000000000E+00 -0.00000000000E+00 -0.23713234077E+02  0.23713234077E+02  0.00000000000E+00 0.  1.
         23    2    1    2    0    0 -0.29929567452E+01  0.24810131514E+02  0.16594064478E+03  0.19108805766E+03  0.91399386080E+02 0.  0.
         23    2    1    2    0    0 -0.16620944438E+02 -0.55327834435E+01  0.21601460189E+03  0.23431393504E+03  0.89072130534E+02 0.  0.
        -11    1    3    3    0    0  0.32775473395E+02  0.43321418082E+02  0.10068110618E+03  0.11440132020E+03  0.00000000000E+00 0.  1.
         11    1    3    3    0    0 -0.35768430141E+02 -0.18511286567E+02  0.65259538594E+02  0.76686737462E+02  0.00000000000E+00 0. -1.
        -11    1    4    4    0    0 -0.52324793650E+02  0.46598787158E+01  0.14415719890E+03  0.15343042884E+03  0.00000000000E+00 0.  1.
         11    1    4    4    0    0  0.35703849212E+02 -0.10192662159E+02  0.71857402992E+02  0.80883506199E+02  0.00000000000E+00 0. -1.
         21    1    1    2  502  501  0.19613901184E+02 -0.19277348071E+02  0.93032007991E+02  0.97011730111E+02  0.00000000000E+00 0. -1.
<scales pt_clust_5="13000.00000" pt_clust_6="13000.00000" pt_clust_7="13000.00000" pt_clust_8="13000.00000" pt_clust_9="27.50130"></scales>
<clustering>
<clus scale="   27.501">  1  9  2 -1</clus>
<clus scale="   89.072">  7  8 -1 -1</clus>
<clus scale="   90.727">  1  7  2 -1</clus>
<clus scale="   91.399">  5  6 -1 -1</clus>
<clus scale="   27.501">  1  5  2 -1</clus>
</clustering>
</event>
<event>
 9    1  0.9000149E-006  0.1554525E+03  0.7546771E-02  0.1195053E+00
          2   -1    0    0  502    0  0.00000000000E+00  0.00000000000E+00  0.31925914266E+03  0.31925914266E+03  0.00000000000E+00 0. -1.
         -2   -1    0    0    0  501 -0.00000000000E+00 -0.00000000000E+00 -0.12981597447E+03  0.12981597447E+03  0.00000000000E+00 0.  1.
         23    2    1    2    0    0  0.19937987554E+02 -0.13063743827E+03 -0.35089442596E+02  0.16610392581E+03  0.94316390742E+02 0.  0.
         23    2    1    2    0    0 -0.15806651147E+02  0.99983491099E+02  0.14430233846E+03  0.19698497721E+03  0.87939568162E+02 0.  0.
        -11    1    3    3    0    0 -0.69299256905E+01 -0.32176693462E+02  0.30427274748E+02  0.44823905685E+02  0.00000000000E+00 0. -1.
         11    1    3    3    0    0  0.26867913244E+02 -0.98460744810E+02 -0.65516717344E+02  0.12128002013E+03  0.00000000000E+00 0.  1.
        -13    1    4    4    0    0 -0.38390903351E+02  0.29691565302E+02  0.20173735425E+02  0.52558825246E+02  0.00000000000E+00 0.  1.
         13    1    4    4    0    0  0.22584252204E+02  0.70291925796E+02  0.12412860304E+03  0.14442615196E+03  0.00000000000E+00 0. -1.
         21    1    1    2  502  501 -0.41313364064E+01  0.30653947174E+02  0.80230272323E+02  0.85986214098E+02  0.00000000000E+00 0. -1.
<scales pt_clust_5="13000.00000" pt_clust_6="13000.00000" pt_clust_7="13000.00000" pt_clust_8="13000.00000" pt_clust_9="30.93109"></scales>
<clustering>
<clus scale="   30.931">  1  9  2 -1</clus>
<clus scale="   87.940">  7  8 -1 -1</clus>
<clus scale="   94.316">  5  6 -1 -1</clus>
<clus scale="  151.668">  1  7  2 -1</clus>
<clus scale="   30.931">  1  5  2 -1</clus>
</clustering>
</event>
<event>
 9    1  0.9000149E-006  0.1275960E+03  0.7546771E-02  0.1232046E+00
         -1   -1    0    0    0  501 -0.00000000000E+00  0.00000000000E+00  0.31599327020E+02  0.31599327020E+02  0.00000000000E+00 0.  1.
          1   -1    0    0  502    0  0.00000000000E+00 -0.00000000000E+00 -0.85891022603E+03  0.85891022603E+03  0.00000000000E+00 0. -1.
         23    2    1    2    0    0 -0.15528904560E+02  0.84462032718E+02 -0.18234208345E+03  0.21975218658E+03  0.87563726852E+02 0.  0.
         23    2    1    2    0    0  0.61036432465E+02 -0.84827158603E+02 -0.48912088029E+03  0.50840082259E+03  0.91165058845E+02 0.  0.
        -11    1    4    4    0    0  0.61629107616E+02 -0.96993926336E+01 -0.18957501940E+03  0.19957683509E+03  0.00000000000E+00 0. -1.
         11    1    4    4    0    0 -0.59267515102E+00 -0.75127765969E+02 -0.29954586088E+03  0.30882398750E+03  0.00000000000E+00 0.  1.
        -13    1    3    3    0    0 -0.44042507921E+02  0.13336809938E+02 -0.69034244631E+02  0.82965896217E+02  0.00000000000E+00 0.  1.
         13    1    3    3    0    0  0.28513603362E+02  0.71125222780E+02 -0.11330783882E+03  0.13678629036E+03  0.00000000000E+00 0. -1.
         21    1    1    2  502  501 -0.45507527905E+02  0.36512588536E+00 -0.15584793528E+03  0.16235654389E+03  0.00000000000E+00 0.  1.
<scales pt_clust_5="13000.00000" pt_clust_6="13000.00000" pt_clust_7="13000.00000" pt_clust_8="13000.00000" pt_clust_9="45.50899"></scales>
<clustering>
<clus scale="   45.509">  2  9  1 -1</clus>
<clus scale="   87.564">  7  8 -1 -1</clus>
<clus scale="   91.165">  5  6 -1 -1</clus>
<clus scale="  125.048">  1  7  2 -1</clus>
<clus scale="   45.509">  2  5  1 -1</clus>
</clustering>
</event>
<event>
 9    1  0.9000149E-006  0.1000077E+03  0.7546771E-02  0.1282112E+00
          1   -1    0    0  502    0  0.00000000000E+00  0.00000000000E+00  0.17088720315E+03  0.17088720315E+03  0.00000000000E+00 0. -1.
         -1   -1    0    0    0  501 -0.00000000000E+00 -0.00000000000E+00 -0.99902114859E+02  0.99902114859E+02  0.00000000000E+00 0.  1.
         23    2    1    2    0    0 -0.10060232194E+02  0.39440812373E+02 -0.42017126599E+02  0.10688169271E+03  0.89450943855E+02 0.  0.
         23    2    1    2    0    0  0.16329017967E+02 -0.18363007731E+02  0.86408718558E+02  0.12939986428E+03  0.93134426241E+02 0.  0.
        -11    1    4    4    0    0  0.23538658171E+02 -0.50918931245E+02  0.76015342691E+02  0.94472950161E+02  0.00000000000E+00 0. -1.
         11    1    4    4    0    0 -0.72096402036E+01  0.32555923515E+02  0.10393375867E+02  0.34926914116E+02  0.00000000000E+00 0.  1.
        -13    1    3    3    0    0 -0.24386125631E+02  0.61098023257E+02 -0.46461169662E+02  0.80537518310E+02  0.00000000000E+00 0.  1.
         13    1    3    3    0    0  0.14325893437E+02 -0.21657210885E+02  0.44440430627E+01  0.26344174400E+02  0.00000000000E+00 0. -1.
         21    1    1    2  502  501 -0.62687857733E+01 -0.21077804642E+02  0.26593496334E+02  0.34507761024E+02  0.00000000000E+00 0. -1.
<scales pt_clust_5="13000.00000" pt_clust_6="13000.00000" pt_clust_7="13000.00000" pt_clust_8="13000.00000" pt_clust_9="21.99026"></scales>
<clustering>
<clus scale="   21.990">  1  9  2 -1</clus>
<clus scale="   89.451">  7  8 -1 -1</clus>
<clus scale="   93.134">  5  6 -1 -1</clus>
<clus scale="   96.587">  2  7  1 -1</clus>
<clus scale="   21.990">  1  5  2 -1</clus>
</clustering>
</event>
<event>
 9    1  0.9000149E-006  0.1646226E+03  0.7546771E-02  0.1183969E+00
          1   -1    0    0  502    0  0.00000000000E+00  0.00000000000E+00  0.10992270706E+03  0.10992270706E+03  0.00000000000E+00 0. -1.
         -1   -1    0    0    0  501 -0.00000000000E+00 -0.00000000000E+00 -0.55177242634E+03  0.55177242634E+03  0.00000000000E+00 0.  1.
         23    2    1    2    0    0 -0.12525127156E+03 -0.21387343919E+02 -0.32907547058E+03  0.36433369117E+03  0.91121203229E+02 0.  0.
         23    2    1    2    0    0  0.14883325176E+03  0.45810880382E+02 -0.15799901651E+03  0.24081147720E+03  0.93683001357E+02 0.  0.
        -13    1    4    4    0    0  0.12204498022E+03  0.56064793156E+02 -0.76842803444E+02  0.15473543444E+03  0.00000000000E+00 0. -1.
         13    1    4    4    0    0  0.26788271536E+02 -0.10253912773E+02 -0.81156213062E+02  0.86076042762E+02  0.00000000000E+00 0.  1.
        -13    1    3    3    0    0 -0.32544101730E+02 -0.19401249326E+02 -0.21010688234E+03  0.21349573541E+03  0.00000000000E+00 0.  1.
         13    1    3    3    0    0 -0.92707169827E+02 -0.19860945929E+01 -0.11896858823E+03  0.15083795575E+03  0.00000000000E+00 0. -1.
         21    1    1    2  502  501 -0.23581980200E+02 -0.24423536463E+02  0.45224767794E+02  0.56549965036E+02  0.00000000000E+00 0.  1.
<scales pt_clust_5="13000.00000" pt_clust_6="13000.00000" pt_clust_7="13000.00000" pt_clust_8="13000.00000" pt_clust_9="33.95024"></scales>
<clustering>
<clus scale="   33.950">  1  9  2 -1</clus>
<clus scale="   91.121">  7  8 -1 -1</clus>
<clus scale="   93.683">  5  6 -1 -1</clus>
<clus scale="  163.178">  2  7  1 -1</clus>
<clus scale="   33.950">  1  5  2 -1</clus>
</clustering>
</event>
<event>
 9    1  0.9000149E-006  0.9294134E+02  0.7546771E-02  0.1296077E+00
          1   -1    0    0  502    0  0.00000000000E+00  0.00000000000E+00  0.64170252794E+02  0.64170252794E+02  0.00000000000E+00 0. -1.
         -1   -1    0    0    0  501 -0.00000000000E+00 -0.00000000000E+00 -0.19766526151E+03  0.19766526151E+03  0.00000000000E+00 0.  1.
         23    2    1    2    0    0  0.22370758717E+02  0.17890988490E+02 -0.76455119459E+02  0.12267923157E+03  0.91565660885E+02 0.  0.
         23    2    1    2    0    0  0.58896649430E+01  0.21499115601E+01 -0.38274123796E+02  0.99755227240E+02  0.91906944985E+02 0.  0.
        -11    1    3    3    0    0 -0.71032408931E+01  0.34447536219E+02  0.40109462197E+01  0.35400232659E+02  0.00000000000E+00 0. -1.
         11    1    3    3    0    0  0.29473999610E+02 -0.16556547729E+02 -0.80466065679E+02  0.87278998915E+02  0.00000000000E+00 0.  1.
        -13    1    4    4    0    0  0.22005845590E+02  0.42599769799E+02 -0.14227086827E+02  0.50014074286E+02  0.00000000000E+00 0.  1.
         13    1    4    4    0    0 -0.16116180647E+02 -0.40449858239E+02 -0.24047036968E+02  0.49741152954E+02  0.00000000000E+00 0. -1.
         21    1    1    2  502  501 -0.28260423660E+02 -0.20040900050E+02 -0.18765765457E+02  0.39401055486E+02  0.00000000000E+00 0. -1.
<scales pt_clust_5="13000.00000" pt_clust_6="13000.00000" pt_clust_7="13000.00000" pt_clust_8="13000.00000" pt_clust_9="34.64519"></scales>
<clustering>
<clus scale="   34.645">  1  9  2 -1</clus>
<clus scale="   91.566">  5  6 -1 -1</clus>
<clus scale="   91.907">  7  8 -1 -1</clus>
<clus scale="   92.604">  2  5  1 -1</clus>
<clus scale="   34.645">  1  5  2 -1</clus>
</clustering>
</event>
<event>
 9    1  0.9000149E-006  0.1046713E+03  0.7546771E-02  0.1271458E+00
         -1   -1    0    0    0  501 -0.00000000000E+00  0.00000000000E+00  0.40368914441E+02  0.40368914441E+02  0.00000000000E+00 0.  1.
          1   -1    0    0  502    0  0.00000000000E+00 -0.00000000000E+00 -0.59872458880E+03  0.59872458880E+03  0.00000000000E+00 0. -1.
         23    2    1    2    0    0 -0.11315581132E+02  0.95919735703E+01 -0.14923302203E+03  0.17610795734E+03  0.92322637746E+02 0.  0.
         23    2    1    2    0    0 -0.14300427435E+02 -0.81458545420E+02 -0.33425371959E+03  0.35609148089E+03  0.90750189314E+02 0.  0.
        -11    1    3    3    0    0 -0.95287459423E+01  0.48585228284E+02 -0.54408913002E+02  0.73563926083E+02  0.00000000000E+00 0.  1.
         11    1    3    3    0    0 -0.17868351902E+01 -0.38993254714E+02 -0.94824109025E+02  0.10254403125E+03  0.00000000000E+00 0. -1.
        -13    1    4    4    0    0 -0.42636453243E+02 -0.15168001345E+02 -0.81089244215E+02  0.92862268642E+02  0.00000000000E+00 0. -1.
         13    1    4    4    0    0  0.28336025808E+02 -0.66290544075E+02 -0.25316447537E+03  0.26322921225E+03  0.00000000000E+00 0.  1.
         21    1    1    2  502  501  0.25616008568E+02  0.71866571849E+02 -0.74868932745E+02  0.10689406501E+03  0.00000000000E+00 0.  1.
<scales pt_clust_5="13000.00000" pt_clust_6="13000.00000" pt_clust_7="13000.00000" pt_clust_8="13000.00000" pt_clust_9="76.29537"></scales>
<clustering>
<clus scale="   76.295">  1  9  2 -1</clus>
<clus scale="   90.750">  7  8 -1 -1</clus>
<clus scale="   92.323">  5  6 -1 -1</clus>
<clus scale="  103.287">  2  7  1 -1</clus>
<clus scale="  103.287">  2  5  1 -1</clus>
</clustering>
</event>
<event>
 9    1  0.9000149E-006  0.1428916E+03  0.7546771E-02  0.1210277E+00
          1   -1    0    0  502    0  0.00000000000E+00  0.00000000000E+00  0.31463222608E+03  0.31463222608E+03  0.00000000000E+00 0. -1.
         -1   -1    0    0    0  501 -0.00000000000E+00 -0.00000000000E+00 -0.80470105734E+02  0.80470105734E+02  0.00000000000E+00 0.  1.
         23    2    1    2    0    0 -0.11201392887E+03 -0.79873493898E+01  0.65800298916E+02  0.15971560519E+03  0.92566069333E+02 0.  0.
         23    2    1    2    0    0  0.96386850375E+02 -0.14689776336E+02  0.13835733394E+03  0.19465925576E+03  0.96141871967E+02 0.  0.
        -11    1    3    3    0    0 -0.83035756847E+02 -0.48159876446E+02  0.42674223873E+02  0.10504951212E+03  0.00000000000E+00 0.  1.
         11    1    3    3    0    0 -0.28978172022E+02  0.40172527056E+02  0.23126075043E+02  0.54666093063E+02  0.00000000000E+00 0. -1.
        -13    1    4    4    0    0  0.40435384409E+02  0.17801774251E+02  0.25822284951E+01  0.44255975673E+02  0.00000000000E+00 0.  1.
         13    1    4    4    0    0  0.55951465966E+02 -0.32491550587E+02  0.13577510544E+03  0.15040328009E+03  0.00000000000E+00 0. -1.
         21    1    1    2  502  501  0.15627078494E+02  0.22677125726E+02  0.30004487491E+02  0.40727470865E+02  0.00000000000E+00 0.  1.
<scales pt_clust_5="13000.00000" pt_clust_6="13000.00000" pt_clust_7="13000.00000" pt_clust_8="13000.00000" pt_clust_9="27.54011"></scales>
<clustering>
<clus scale="   27.540">  1  9  2 -1</clus>
<clus scale="   92.566">  5  6 -1 -1</clus>
<clus scale="   96.142">  7  8 -1 -1</clus>
<clus scale="  140.511">  2  5  1 -1</clus>
<clus scale="   27.540">  1  5  2 -1</clus>
</clustering>
</event>
<event>
 9    1  0.9000149E-006  0.1136429E+03  0.7546771E-02  0.1254189E+00
         -2   -1    0    0    0  501 -0.00000000000E+00  0.00000000000E+00  0.25414935526E+02  0.25414935526E+02  0.00000000000E+00 0.  1.
          2   -1    0    0  502    0  0.00000000000E+00 -0.00000000000E+00 -0.80259051436E+03  0.80259051436E+03  0.00000000000E+00 0. -1.
         23    2    1    2    0    0  0.44558870274E+02 -0.47865637114E+02 -0.16662580346E+03  0.20086693989E+03  0.91141412250E+02 0.  0.
         23    2    1    2    0    0 -0.64901655384E+02  0.39736967393E+02 -0.45790622541E+03  0.47293099551E+03  0.90522725294E+02 0.  0.
        -11    1    4    4    0    0 -0.16053138952E+02  0.54669177491E+02 -0.33535274799E+03  0.34015862156E+03  0.00000000000E+00 0. -1.
         11    1    4    4    0    0 -0.48848516432E+02 -0.14932210098E+02 -0.12255347742E+03  0.13277237394E+03  0.00000000000E+00 0.  1.
        -11    1    3    3    0    0  0.68884000327E+02 -0.23955193539E+02 -0.82639567880E+02  0.11021866892E+03  0.00000000000E+00 0.  1.
         11    1    3    3    0    0 -0.24325130053E+02 -0.23910443574E+02 -0.83986235576E+02  0.90648270972E+02  0.00000000000E+00 0. -1.
         21    1    1    2  502  501  0.20342785110E+02  0.81286697202E+01 -0.15264354997E+03  0.15420751449E+03  0.00000000000E+00 0. -1.
<scales pt_clust_5="13000.00000" pt_clust_6="13000.00000" pt_clust_7="13000.00000" pt_clust_8="13000.00000" pt_clust_9="21.90672"></scales>
<clustering>
<clus scale="   21.907">  2  9  1 -1</clus>
<clus scale="   90.523">  5  6 -1 -1</clus>
<clus scale="   91.141">  7  8 -1 -1</clus>
<clus scale="  113.147">  2  5  1 -1</clus>
<clus scale="   21.907">  2  5  1 -1</clus>
</clustering>
</event>
<event>
 9    1  0.9000149E-006  0.1153442E+03  0.7546771E-02  0.1251418E+00
         -1   -1    0    0    0  501 -0.00000000000E+00  0.00000000000E+00  0.59031555811E+02  0.59031555811E+02  0.00000000000E+00 0.  1.
          1   -1    0    0  502    0  0.00000000000E+00 -0.00000000000E+00 -0.32493247081E+03  0.32493247081E+03  0.00000000000E+00 0. -1.
         23    2    1    2    0    0  0.13905801309E+02  0.80588833290E+02 -0.68275410131E+02  0.14003742769E+03  0.90890143389E+02 0.  0.
         23    2    1    2    0    0 -0.22207124384E+02 -0.48453759021E+02 -0.12574272735E+03  0.16475142184E+03  0.92145940660E+02 0.  0.
        -11    1    4    4    0    0 -0.12140030580E+01 -0.61421918335E+02 -0.34980802265E+02  0.70694995456E+02  0.00000000000E+00 0. -1.
         11    1    4    4    0    0 -0.20993121326E+02  0.12968159315E+02 -0.90761925084E+02  0.94056426383E+02  0.00000000000E+00 0.  1.
        -13    1    3    3    0    0  0.12001919370E+02  0.26887070002E+02  0.20771341797E+02  0.36033446156E+02  0.00000000000E+00 0.  1.
         13    1    3    3    0    0  0.19038819388E+01  0.53701763289E+02 -0.89046751928E+02  0.10400398154E+03  0.00000000000E+00 0. -1.
         21    1    1    2  502  501  0.83013230746E+01 -0.32135074269E+02 -0.71882777521E+02  0.79175177090E+02  0.00000000000E+00 0.  1.
<scales pt_clust_5="13000.00000" pt_clust_6="13000.00000" pt_clust_7="13000.00000" pt_clust_8="13000.00000" pt_clust_9="33.18998"></scales>
<clustering>
<clus scale="   33.190">  2  9  1 -1</clus>
<clus scale="   90.890">  7  8 -1 -1</clus>
<clus scale="   92.146">  5  6 -1 -1</clus>
<clus scale="  114.343">  1  7  2 -1</clus>
<clus scale="   33.190">  2  5  1 -1</clus>
</clustering>
</event>
<event>
 9    1  0.1128017E-005  0.1003788E+03  0.7546771E-02  0.1280351E+00
          2   -1    0    0  502    0  0.00000000000E+00  0.00000000000E+00  0.49807455834E+03  0.49807455834E+03  0.00000000000E+00 0. -1.
         -2   -1    0    0    0  501 -0.00000000000E+00 -0.00000000000E+00 -0.15357897868E+03  0.15357897868E+03  0.00000000000E+00 0.  1.
         23    2    1    2    0    0  0.25941686924E+01 -0.39519160818E+02 -0.12702722639E+03  0.16138610880E+03  0.91329437133E+02 0.  0.
         23    2    1    2    0    0  0.97208768184E+01  0.12028925676E+01  0.31089517659E+03  0.32467445705E+03  0.93068522257E+02 0.  0.
        -11    1    4    4    0    0 -0.24703324818E+02 -0.29971618683E+02  0.21055838533E+03  0.21411068590E+03  0.00000000000E+00 0.  1.
         11    1    4    4    0    0  0.34424201637E+02  0.31174511250E+02  0.10033679126E+03  0.11056377115E+03  0.00000000000E+00 0. -1.
        -13    1    3    3    0    0  0.14681793576E+02 -0.18615278226E+02 -0.13413541455E+03  0.13621451128E+03  0.00000000000E+00 0.  1.
         13    1    3    3    0    0 -0.12087624884E+02 -0.20903882591E+02  0.71081881650E+01  0.25171597520E+02  0.00000000000E+00 0. -1.
         21    1    1    2  502  501 -0.12315045511E+02  0.38316268250E+02  0.16062762945E+03  0.16559297118E+03  0.00000000000E+00 0. -1.
<scales pt_clust_5="13000.00000" pt_clust_6="13000.00000" pt_clust_7="13000.00000" pt_clust_8="13000.00000" pt_clust_9="40.24670"></scales>
<clustering>
<clus scale="   40.247">  1  9  2 -1</clus>
<clus scale="   91.329">  7  8 -1 -1</clus>
<clus scale="   93.069">  5  6 -1 -1</clus>
<clus scale="   98.769">  2  7  1 -1</clus>
<clus scale="   40.247">  1  5  2 -1</clus>
</clustering>
</event>
<event>
 9    1  0.9000149E-006  0.9799355E+02  0.7546771E-02  0.1287086E+00
         -2   -1    0    0    0  501 -0.00000000000E+00  0.00000000000E+00  0.52538818554E+02  0.52538818554E+02  0.00000000000E+00 0.  1.
          2   -1    0    0  502    0  0.00000000000E+00 -0.00000000000E+00 -0.44407155669E+03  0.44407155669E+03  0.00000000000E+00 0. -1.
         23    2    1    2    0    0 -0.58362480270E+00  0.32600700689E+02 -0.27434345230E+02  0.10493186195E+03  0.95890072745E+02 0.  0.
         23    2    1    2    0    0 -0.15887145967E+02 -0.12092388443E+02 -0.34913902468E+03  0.36141864121E+03  0.91251018579E+02 0.  0.
        -13    1    3    3    0    0  0.36710298524E+02  0.46579531121E+02 -0.57531491093E+01  0.59585211771E+02  0.00000000000E+00 0.  1.
         13    1    3    3    0    0 -0.37293923327E+02 -0.13978830432E+02 -0.21681196121E+02  0.45346650180E+02  0.00000000000E+00 0. -1.
        -13    1    4    4    0    0 -0.51886301493E+02 -0.43142697230E+01 -0.25642317473E+03  0.26165558612E+03  0.00000000000E+00 0.  1.
         13    1    4    4    0    0  0.35999155526E+02 -0.77781187198E+01 -0.92715849948E+02  0.99763055090E+02  0.00000000000E+00 0. -1.
         21    1    1    2  502  501  0.16470770770E+02 -0.20508312246E+02 -0.14959368224E+02  0.30259872085E+02  0.00000000000E+00 0. -1.
<scales pt_clust_5="13000.00000" pt_clust_6="13000.00000" pt_clust_7="13000.00000" pt_clust_8="13000.00000" pt_clust_9="26.30356"></scales>
<clustering>
<clus scale="   26.304">  1  9  2 -1</clus>
<clus scale="   91.251">  7  8 -1 -1</clus>
<clus scale="   93.459">  2  7  1 -1</clus>
<clus scale="   95.890">  5  6 -1 -1</clus>
<clus scale="   93.459">  2  5  1 -1</clus>
</clustering>
</event>
<event>
 9    1  0.9000149E-006  0.1052895E+03  0.7546771E-02  0.1273653E+00
          1   -1    0    0  502    0  0.00000000000E+00  0.00000000000E+00  0.31702528763E+03  0.31702528763E+03  0.00000000000E+00 0. -1.
         -1   -1    0    0    0  501 -0.00000000000E+00 -0.00000000000E+00 -0.48428721610E+02  0.48428721610E+02  0.00000000000E+00 0.  1.
         23    2    1    2    0    0  0.10878979581E+02  0.65304173566E+00  0.84813970027E+02  0.13474992004E+03  0.10414102352E+03 0.  0.
         23    2    1    2    0    0 -0.64202622082E+01  0.27289707641E+02  0.96695282167E+02  0.13913511174E+03  0.96034649040E+02 0.  0.
        -11    1    3    3    0    0  0.29881654105E+02 -0.44706082278E+02  0.31954570985E+02  0.62551112312E+02  0.00000000000E+00 0.  1.
         11    1    3    3    0    0 -0.19002674523E+02  0.45359124013E+02  0.52859399042E+02  0.72198807728E+02  0.00000000000E+00 0. -1.
        -11    1    4    4    0    0 -0.27501230937E+02 -0.28803043427E+02  0.43900564260E+02  0.59272190410E+02  0.00000000000E+00 0.  1.
         11    1    4    4    0    0  0.21080968729E+02  0.56092751067E+02  0.52794717907E+02  0.79862921332E+02  0.00000000000E+00 0. -1.
         21    1    1    2  502  501 -0.44587173732E+01 -0.27942749376E+02  0.87087313827E+02  0.91568977459E+02  0.00000000000E+00 0.  1.
<scales pt_clust_5="13000.00000" pt_clust_6="13000.00000" pt_clust_7="13000.00000" pt_clust_8="13000.00000" pt_clust_9="28.29624"></scales>
<clustering>
<clus scale="   28.296">  1  9  2 -1</clus>
<clus scale="   96.035">  7  8 -1 -1</clus>
<clus scale="   97.279">  1  7  2 -1</clus>
<clus scale="  104.141">  5  6 -1 -1</clus>
<clus scale="   28.296">  1  5  2 -1</clus>
</clustering>
</event>
<event>
 9    1  0.9000149E-006  0.1126020E+03  0.7546771E-02  0.1258439E+00
          1   -1    0    0  502    0  0.00000000000E+00  0.00000000000E+00  0.71402563574E+03  0.71402563574E+03  0.00000000000E+00 0. -1.
         -1   -1    0    0    0  501 -0.00000000000E+00 -0.00000000000E+00 -0.22594855424E+02  0.22594855424E+02  0.00000000000E+00 0.  1.
         23    2    1    2    0    0 -0.31877478522E+02 -0.38188310140E+02  0.24356299233E+03  0.26644820657E+03  0.95902006674E+02 0.  0.
         23    2    1    2    0    0  0.35457477677E+02  0.61751989664E+02  0.31172642082E+03  0.33196036310E+03  0.89183968773E+02 0.  0.
        -13    1    3    3    0    0 -0.40624549170E+02 -0.23207084060E+01  0.21745836387E+03  0.22123263706E+03  0.00000000000E+00 0. -1.
         13    1    3    3    0    0  0.87470706478E+01 -0.35867601734E+02  0.26104628451E+02  0.45215569505E+02  0.00000000000E+00 0.  1.
        -13    1    4    4    0    0  0.61569988049E+02  0.57742580810E+02  0.26688279923E+03  0.27991337516E+03  0.00000000000E+00 0.  1.
         13    1    4    4    0    0 -0.26112510372E+02  0.40094088541E+01  0.44843621586E+02  0.52046987946E+02  0.00000000000E+00 0. -1.
         21    1    1    2  502  501 -0.35799991550E+01 -0.23563679524E+02  0.13614136717E+03  0.13821192149E+03  0.00000000000E+00 0. -1.
<scales pt_clust_5="13000.00000" pt_clust_6="13000.00000" pt_clust_7="13000.00000" pt_clust_8="13000.00000" pt_clust_9="23.83408"></scales>
<clustering>
<clus scale="   23.834">  1  9  2 -1</clus>
<clus scale="   89.184">  7  8 -1 -1</clus>
<clus scale="   95.902">  5  6 -1 -1</clus>
<clus scale="  106.938">  1  7  2 -1</clus>
<clus scale="   23.834">  1  5  2 -1</clus>
</clustering>
</event>
<event>
 9    1  0.9000149E-006  0.1119319E+03  0.7546771E-02  0.1262948E+00
          1   -1    0    0  502    0  0.00000000000E+00  0.00000000000E+00  0.19335845358E+03  0.19335845358E+03  0.00000000000E+00 0. -1.
         -1   -1    0    0    0  501 -0.00000000000E+00 -0.00000000000E+00 -0.13931377367E+03  0.13931377367E+03  0.00000000000E+00 0.  1.
         23    2    1    2    0    0  0.40140256852E+02  0.34284123633E+02 -0.88163022135E+02  0.13346456358E+03  0.85167070544E+02 0.  0.
         23    2    1    2    0    0 -0.50596216922E+02 -0.88687598249E+01  0.11877828005E+03  0.16309387637E+03  0.99260770852E+02 0.  0.
        -11    1    3    3    0    0  0.24630062223E+02 -0.21207553119E+02 -0.62381650251E+02  0.70341101515E+02  0.00000000000E+00 0. -1.
         11    1    3    3    0    0  0.15510194629E+02  0.55491676753E+02 -0.25781371885E+02  0.63123462061E+02  0.00000000000E+00 0.  1.
        -11    1    4    4    0    0 -0.41610516656E+01  0.37682000542E+02  0.16145519656E+02  0.41205889394E+02  0.00000000000E+00 0.  1.
         11    1    4    4    0    0 -0.46435165257E+02 -0.46550760366E+02  0.10263276039E+03  0.12188798698E+03  0.00000000000E+00 0. -1.
         21    1    1    2  502  501  0.10455960070E+02 -0.25415363809E+02  0.23429421993E+02  0.36113787304E+02  0.00000000000E+00 0. -1.
<scales pt_clust_5="13000.00000" pt_clust_6="13000.00000" pt_clust_7="13000.00000" pt_clust_8="13000.00000" pt_clust_9="27.48214"></scales>
<clustering>
<clus scale="   27.482">  1  9  2 -1</clus>
<clus scale="   85.167">  5  6 -1 -1</clus>
<clus scale="   99.261">  7  8 -1 -1</clus>
<clus scale="   99.647">  2  5  1 -1</clus>
<clus scale="   27.482">  1  5  2 -1</clus>
</clustering>
</event>
<event>
 9    1  0.9000149E-006  0.1101073E+03  0.7546771E-02  0.1261936E+00
          1   -1    0    0  502    0  0.00000000000E+00  0.00000000000E+00  0.62255752366E+03  0.62255752366E+03  0.00000000000E+00 0. -1.
         -1   -1    0    0    0  501 -0.00000000000E+00 -0.00000000000E+00 -0.61114072167E+02  0.61114072167E+02  0.00000000000E+00 0.  1.
         23    2    1    2    0    0  0.62513477878E+02 -0.37600181750E+01  0.11456343179E+02  0.10945850198E+03  0.89038436670E+02 0.  0.
         23    2    1    2    0    0 -0.80509273295E+02 -0.35099536303E+02  0.41384251401E+03  0.43149216270E+03  0.84888983603E+02 0.  0.
        -13    1    3    3    0    0  0.24467908027E+01 -0.28102226869E+02 -0.22690290203E+02  0.36201812244E+02  0.00000000000E+00 0.  1.
         13    1    3    3    0    0  0.60066687076E+02  0.24342208694E+02  0.34146633383E+02  0.73256689741E+02  0.00000000000E+00 0. -1.
        -13    1    4    4    0    0 -0.59982674971E+02  0.13338373505E+02  0.14389013369E+03  0.15646150990E+03  0.00000000000E+00 0. -1.
         13    1    4    4    0    0 -0.20526598323E+02 -0.48437909808E+02  0.26995238032E+03  0.27503065281E+03  0.00000000000E+00 0.  1.
         21    1    1    2  502  501  0.17995795416E+02  0.38859554478E+02  0.13614459431E+03  0.14272093114E+03  0.00000000000E+00 0. -1.
<scales pt_clust_5="13000.00000" pt_clust_6="13000.00000" pt_clust_7="13000.00000" pt_clust_8="13000.00000" pt_clust_9="42.82422"></scales>
<clustering>
<clus scale="   42.824">  1  9  2 -1</clus>
<clus scale="   84.889">  7  8 -1 -1</clus>
<clus scale="   89.038">  5  6 -1 -1</clus>
<clus scale="  106.780">  1  7  2 -1</clus>
<clus scale="   42.824">  1  5  2 -1</clus>
</clustering>
</event>
<event>
 9    1  0.9000149E-006  0.1896177E+03  0.7546771E-02  0.1175347E+00
         -1   -1    0    0    0  501 -0.00000000000E+00  0.00000000000E+00  0.50544638788E+02  0.50544638788E+02  0.00000000000E+00 0.  1.
          1   -1    0    0  502    0  0.00000000000E+00 -0.00000000000E+00 -0.12389918054E+04  0.12389918054E+04  0.00000000000E+00 0. -1.
         23    2    1    2    0    0  0.67910349287E+02 -0.62257040846E+02 -0.30451928631E+03  0.33096316653E+03  0.91196859541E+02 0.  0.
         23    2    1    2    0    0  0.62447825953E+02  0.16937756955E+03 -0.52724191951E+03  0.56399383554E+03  0.86697824675E+02 0.  0.
        -11    1    3    3    0    0  0.85098888483E+02 -0.32310028331E+02 -0.17947064993E+03  0.20123487008E+03  0.00000000000E+00 0.  1.
         11    1    3    3    0    0 -0.17188539196E+02 -0.29947012515E+02 -0.12504863638E+03  0.12972829645E+03  0.00000000000E+00 0. -1.
        -13    1    4    4    0    0 -0.14743731598E+02  0.14559022453E+02 -0.11616984922E+03  0.11800329073E+03  0.00000000000E+00 0. -1.
         13    1    4    4    0    0  0.77191557552E+02  0.15481854709E+03 -0.41107207029E+03  0.44599054481E+03  0.00000000000E+00 0.  1.
         21    1    1    2  502  501 -0.13035817524E+03 -0.10712052870E+03 -0.35668596082E+03  0.39457944215E+03  0.00000000000E+00 0.  1.
<scales pt_clust_5="13000.00000" pt_clust_6="13000.00000" pt_clust_7="13000.00000" pt_clust_8="13000.00000" pt_clust_9="168.63671"></scales>
<clustering>
<clus scale="   86.698">  7  8 -1 -1</clus>
<clus scale="   91.197">  5  6 -1 -1</clus>
<clus scale="  129.633">  1  5  2 -1</clus>
<clus scale="  168.637">  1  9  2 -1</clus>
<clus scale="  189.618">  2  5  1 -1</clus>
</clustering>
</event>
<event>
 9    1  0.9000149E-006  0.9465175E+02  0.7546771E-02  0.1292844E+00
          2   -1    0    0  502    0  0.00000000000E+00  0.00000000000E+00  0.34235355949E+03  0.34235355949E+03  0.00000000000E+00 0. -1.
         -2   -1    0    0    0  501 -0.00000000000E+00 -0.00000000000E+00 -0.36341221517E+02  0.36341221517E+02  0.00000000000E+00 0.  1.
         23    2    1    2    0    0  0.71492643582E+01 -0.21161605547E+02  0.96985558150E+02  0.13416373306E+03  0.89971013378E+02 0.  0.
         23    2    1    2    0    0 -0.33388245600E+02  0.91400245888E+01  0.16619525479E+03  0.19288279452E+03  0.91567432604E+02 0.  0.
        -11    1    4    4    0    0 -0.33891900461E+02 -0.35990968429E+02  0.61741225328E+02  0.79094814181E+02  0.00000000000E+00 0. -1.
         11    1    4    4    0    0  0.50365486141E+00  0.45130993018E+02  0.10445402946E+03  0.11378798034E+03  0.00000000000E+00 0.  1.
        -13    1    3    3    0    0  0.37151453707E+02  0.19365656509E+01  0.88514046068E+01  0.38240399613E+02  0.00000000000E+00 0.  1.
         13    1    3    3    0    0 -0.30002189349E+02 -0.23098171198E+02  0.88134153543E+02  0.95923333445E+02  0.00000000000E+00 0. -1.
         21    1    1    2  502  501  0.26238981242E+02  0.12021580958E+02  0.42831525028E+02  0.51648253422E+02  0.00000000000E+00 0.  1.
<scales pt_clust_5="13000.00000" pt_clust_6="13000.00000" pt_clust_7="13000.00000" pt_clust_8="13000.00000" pt_clust_9="28.86178"></scales>
<clustering>
<clus scale="   28.862">  1  9  2 -1</clus>
<clus scale="   89.971">  7  8 -1 -1</clus>
<clus scale="   91.567">  5  6 -1 -1</clus>
<clus scale="   93.108">  2  7  1 -1</clus>
<clus scale="   28.862">  1  5  2 -1</clus>
</clustering>
</event>
<event>
 9    1  0.9000149E-006  0.2125920E+03  0.7546771E-02  0.1141109E+00
         -1   -1    0    0    0  501 -0.00000000000E+00  0.00000000000E+00  0.10512224405E+03  0.10512224405E+03  0.00000000000E+00 0.  1.
          1   -1    0    0  502    0  0.00000000000E+00 -0.00000000000E+00 -0.65383202347E+03  0.65383202347E+03  0.00000000000E+00 0. -1.
         23    2    1    2    0    0  0.70506740604E+02 -0.18837022899E+03 -0.13568942641E+03  0.26539423847E+03  0.10755434782E+03 0.  0.
         23    2    1    2    0    0 -0.11542112727E+02  0.17835400267E+03 -0.36662757420E+03  0.41786695106E+03  0.90849545903E+02 0.  0.
        -11    1    3    3    0    0 -0.10769774632E+01 -0.34416869184E+02  0.15770067289E+02  0.37873153911E+02  0.00000000000E+00 0.  1.
         11    1    3    3    0    0  0.71583718067E+02 -0.15395335981E+03 -0.15145949370E+03  0.22752108456E+03  0.00000000000E+00 0. -1.
        -13    1    4    4    0    0 -0.15788016637E+02  0.30807138832E+02 -0.17438669217E+02  0.38761430009E+02  0.00000000000E+00 0.  1.
         13    1    4    4    0    0  0.42459039095E+01  0.14754686384E+03 -0.34918890498E+03  0.37910552105E+03  0.00000000000E+00 0. -1.
         21    1    1    2  502  501 -0.58964627877E+02  0.10016226319E+02 -0.46392778808E+02  0.75693077992E+02  0.00000000000E+00 0.  1.
<scales pt_clust_5="13000.00000" pt_clust_6="13000.00000" pt_clust_7="13000.00000" pt_clust_8="13000.00000" pt_clust_9="59.80930"></scales>
<clustering>
<clus scale="   59.809">  1  9  2 -1</clus>
<clus scale="   90.850">  7  8 -1 -1</clus>
<clus scale="  107.554">  5  6 -1 -1</clus>
<clus scale="  204.649">  2  7  1 -1</clus>
<clus scale="  204.649">  2  5  1 -1</clus>
</clustering>
</event>
<event>
 9    1  0.9000149E-006  0.2003042E+03  0.7546771E-02  0.1152036E+00
         -1   -1    0    0    0  501 -0.00000000000E+00  0.00000000000E+00  0.27665941662E+03  0.27665941662E+03  0.00000000000E+00 0.  1.
          1   -1    0    0  502    0  0.00000000000E+00 -0.00000000000E+00 -0.28609349640E+03  0.28609349640E+03  0.00000000000E+00 0. -1.
         23    2    1    2    0    0  0.13947870700E+03  0.28748087780E+02  0.81175641248E+02  0.19181048756E+03  0.99604297836E+02 0.  0.
         23    2    1    2    0    0 -0.18020137838E+03 -0.12752705164E+03 -0.48380557951E+02  0.25605586454E+03  0.12036711223E+03 0.  0.
        -13    1    4    4    0    0 -0.50020711782E+02  0.20531068955E+02 -0.14872008774E+02  0.56078276049E+02  0.00000000000E+00 0. -1.
         13    1    4    4    0    0 -0.13018066660E+03 -0.14805812060E+03 -0.33508549177E+02  0.19997758849E+03  0.00000000000E+00 0.  1.
        -13    1    3    3    0    0  0.55542133398E+02  0.19929252287E+02 -0.17895866082E+02  0.61663325420E+02  0.00000000000E+00 0.  1.
         13    1    3    3    0    0  0.83936573602E+02  0.88188354924E+01  0.99071507330E+02  0.13014716214E+03  0.00000000000E+00 0. -1.
         21    1    1    2  502  501  0.40722671383E+02  0.98778963861E+02 -0.42229163073E+02  0.11488656092E+03  0.00000000000E+00 0. -1.
<scales pt_clust_5="13000.00000" pt_clust_6="13000.00000" pt_clust_7="13000.00000" pt_clust_8="13000.00000" pt_clust_9="106.84390"></scales>
<clustering>
<clus scale="   99.604">  7  8 -1 -1</clus>
<clus scale="  106.844">  2  9  1 -1</clus>
<clus scale="  120.367">  5  6 -1 -1</clus>
<clus scale="  188.559">  1  7  2 -1</clus>
<clus scale="  106.844">  2  5  1 -1</clus>
</clustering>
</event>
<event>
 9    1  0.9000149E-006  0.1346288E+03  0.7546771E-02  0.1238844E+00
          1   -1    0    0  502    0  0.00000000000E+00  0.00000000000E+00  0.13376544462E+03  0.13376544462E+03  0.00000000000E+00 0. -1.
         -1   -1    0    0    0  501 -0.00000000000E+00 -0.00000000000E+00 -0.39618166212E+03  0.39618166212E+03  0.00000000000E+00 0.  1.
         23    2    1    2    0    0 -0.61848429906E+01  0.24315902593E+01 -0.20620341233E+03  0.22605486935E+03  0.92394760622E+02 0.  0.
         23    2    1    2    0    0 -0.38615651048E+02  0.89055462895E+02 -0.12457344323E+03  0.18121321718E+03  0.88868685973E+02 0.  0.
        -11    1    3    3    0    0 -0.62181785487E+01 -0.37652176136E+02 -0.40808425666E+02  0.55871994036E+02  0.00000000000E+00 0. -1.
         11    1    3    3    0    0  0.33335558064E-01  0.40083766395E+02 -0.16539498666E+03  0.17018287532E+03  0.00000000000E+00 0.  1.
        -11    1    4    4    0    0 -0.21347592637E+02  0.18085697056E+02  0.86463004845E+01  0.29284307427E+02  0.00000000000E+00 0. -1.
         11    1    4    4    0    0 -0.17268058410E+02  0.70969765839E+02 -0.13321974371E+03  0.15192890976E+03  0.00000000000E+00 0.  1.
         21    1    1    2  502  501  0.44800494038E+02 -0.91487053154E+02  0.68360638057E+02  0.12267902020E+03  0.00000000000E+00 0. -1.
<scales pt_clust_5="13000.00000" pt_clust_6="13000.00000" pt_clust_7="13000.00000" pt_clust_8="13000.00000" pt_clust_9="101.12995"></scales>
<clustering>
<clus scale="   88.869">  7  8 -1 -1</clus>
<clus scale="   92.395">  5  6 -1 -1</clus>
<clus scale="   92.633">  2  5  1 -1</clus>
<clus scale="  101.130">  1  9  2 -1</clus>
<clus scale="  101.130">  1  5  2 -1</clus>
</clustering>
</event>
<event>
 9    1  0.9000149E-006  0.1010579E+03  0.7546771E-02  0.1278133E+00
         -1   -1    0    0    0  501 -0.00000000000E+00  0.00000000000E+00  0.46576492085E+02  0.46576492085E+02  0.00000000000E+00 0.  1.
          1   -1    0    0  502    0  0.00000000000E+00 -0.00000000000E+00 -0.54799818658E+03  0.54799818658E+03  0.00000000000E+00 0. -1.
         23    2    1    2    0    0 -0.43940316669E+01  0.29117579914E+02 -0.65446187585E+02  0.11577399601E+03  0.90847530008E+02 0.  0.
         23    2    1    2    0    0  0.50745147816E+02 -0.66074397679E+02 -0.19572512684E+03  0.23134467147E+03  0.90945784318E+02 0.  0.
        -11    1    4    4    0    0 -0.26205461487E+02 -0.17582456355E+02 -0.62749306361E+02  0.70237770693E+02  0.00000000000E+00 0.  1.
         11    1    4    4    0    0  0.76950609303E+02 -0.48491941324E+02 -0.13297582048E+03  0.16110690077E+03  0.00000000000E+00 0. -1.
        -13    1    3    3    0    0  0.15687109576E+02 -0.28591153315E+02 -0.12507647403E+02  0.34928222089E+02  0.00000000000E+00 0. -1.
         13    1    3    3    0    0 -0.20081141243E+02  0.57708733228E+02 -0.52938540182E+02  0.80845773922E+02  0.00000000000E+00 0.  1.
         21    1    1    2  502  501 -0.46351116149E+02  0.36956817766E+02 -0.24025038008E+03  0.24745601119E+03  0.00000000000E+00 0.  1.
<scales pt_clust_5="13000.00000" pt_clust_6="13000.00000" pt_clust_7="13000.00000" pt_clust_8="13000.00000" pt_clust_9="59.28096"></scales>
<clustering>
<clus scale="   59.281">  2  9  1 -1</clus>
<clus scale="   90.848">  7  8 -1 -1</clus>
<clus scale="   90.946">  5  6 -1 -1</clus>
<clus scale="  100.970">  1  7  2 -1</clus>
<clus scale="   59.281">  2  5  1 -1</clus>
</clustering>
</event>
<event>
 9    1  0.9000149E-006  0.1727388E+03  0.7546771E-02  0.1175942E+00
          1   -1    0    0  502    0  0.00000000000E+00  0.00000000000E+00  0.73408151238E+03  0.73408151238E+03  0.00000000000E+00 0. -1.
         -1   -1    0    0    0  501 -0.00000000000E+00 -0.00000000000E+00 -0.72209179994E+02  0.72209179994E+02  0.00000000000E+00 0.  1.
         23    2    1    2    0    0  0.14936621832E+03 -0.10946537271E+01  0.97072136642E+02  0.20338984170E+03  0.98147656891E+02 0.  0.
         23    2    1    2    0    0 -0.12477954407E+03  0.24771224180E+02  0.32702441016E+03  0.36268759386E+03  0.91726646788E+02 0.  0.
        -11    1    3    3    0    0  0.12727595419E+03  0.65611263580E+01  0.28022174529E+02  0.13048930668E+03  0.00000000000E+00 0.  1.
         11    1    3    3    0    0  0.22090264134E+02 -0.76557800851E+01  0.69049962113E+02  0.72900535019E+02  0.00000000000E+00 0. -1.
        -13    1    4    4    0    0  0.69903390374E+01  0.22344843577E+02  0.32842303749E+02  0.40333283896E+02  0.00000000000E+00 0.  1.
         13    1    4    4    0    0 -0.13176988311E+03  0.24263806030E+01  0.29418210641E+03  0.32235430996E+03  0.00000000000E+00 0. -1.
         21    1    1    2  502  501 -0.24586674250E+02 -0.23676570453E+02  0.23777578558E+03  0.24021325681E+03  0.00000000000E+00 0.  1.
<scales pt_clust_5="13000.00000" pt_clust_6="13000.00000" pt_clust_7="13000.00000" pt_clust_8="13000.00000" pt_clust_9="34.13333"></scales>
<clustering>
<clus scale="   34.133">  1  9  2 -1</clus>
<clus scale="   91.727">  7  8 -1 -1</clus>
<clus scale="   98.148">  5  6 -1 -1</clus>
<clus scale="  169.173">  1  7  2 -1</clus>
<clus scale="   34.133">  1  5  2 -1</clus>
</clustering>
</event>
<event>
 9    1  0.9000149E-006  0.1387382E+03  0.7546771E-02  0.1215169E+00
          1   -1    0    0  502    0  0.00000000000E+00  0.00000000000E+00  0.13892960427E+03  0.13892960427E+03  0.00000000000E+00 0. -1.
         -1   -1    0    0    0  501 -0.00000000000E+00 -0.00000000000E+00 -0.25371690152E+03  0.25371690152E+03  0.00000000000E+00 0.  1.
         23    2    1    2    0    0 -0.73204901408E+01  0.10632184400E+03 -0.16306394305E+03  0.21549648203E+03  0.92146406095E+02 0.  0.
         23    2    1    2    0    0 -0.26258381505E+02 -0.95176636959E+02  0.33161590087E+02  0.13867638122E+03  0.91560651094E+02 0.  0.
        -11    1    4    4    0    0  0.28812318384E+02 -0.54554225031E+02 -0.20238119158E+01  0.61728510221E+02  0.00000000000E+00 0.  1.
         11    1    4    4    0    0 -0.55070699889E+02 -0.40622411929E+02  0.35185402003E+02  0.76947870999E+02  0.00000000000E+00 0. -1.
        -11    1    3    3    0    0 -0.28327648557E+01  0.26404710909E+02 -0.12328710325E+03  0.12611480144E+03  0.00000000000E+00 0.  1.
         11    1    3    3    0    0 -0.44877252851E+01  0.79917133094E+02 -0.39776839798E+02  0.89381680587E+02  0.00000000000E+00 0. -1.
         21    1    1    2  502  501  0.33578871646E+02 -0.11145207044E+02  0.15115055714E+02  0.38473642540E+02  0.00000000000E+00 0. -1.
<scales pt_clust_5="13000.00000" pt_clust_6="13000.00000" pt_clust_7="13000.00000" pt_clust_8="13000.00000" pt_clust_9="35.38017"></scales>
<clustering>
<clus scale="   35.380">  1  9  2 -1</clus>
<clus scale="   91.561">  5  6 -1 -1</clus>
<clus scale="   92.146">  7  8 -1 -1</clus>
<clus scale="  138.350">  1  5  2 -1</clus>
<clus scale="   35.380">  1  5  2 -1</clus>
</clustering>
</event>
<event>
 9    1  0.9000149E-006  0.1260010E+03  0.7546771E-02  0.1244643E+00
          2   -1    0    0  502    0  0.00000000000E+00  0.00000000000E+00  0.25855422036E+03  0.25855422036E+03  0.00000000000E+00 0. -1.
         -2   -1    0    0    0  501 -0.00000000000E+00 -0.00000000000E+00 -0.65974144968E+02  0.65974144968E+02  0.00000000000E+00 0.  1.
         23    2    1    2    0    0 -0.46426850228E+02  0.35746161294E+02  0.78576510538E+02  0.15357406211E+03  0.11822641023E+03 0.  0.
         23    2    1    2    0    0  0.16135562465E+02 -0.26375207614E+02  0.86771486969E+02  0.12915761730E+03  0.90533922945E+02 0.  0.
        -11    1    3    3    0    0  0.98897147959E+00  0.34108096803E+02 -0.23213709163E+02  0.41270045132E+02  0.00000000000E+00 0.  1.
         11    1    3    3    0    0 -0.47415821708E+02  0.16380644912E+01  0.10179021970E+03  0.11230401698E+03  0.00000000000E+00 0. -1.
        -11    1    4    4    0    0  0.33969742184E+02 -0.53003022015E+02  0.50108904497E+02  0.80462202534E+02  0.00000000000E+00 0. -1.
         11    1    4    4    0    0 -0.17834179719E+02  0.26627814401E+02  0.36662582472E+02  0.48695414769E+02  0.00000000000E+00 0.  1.
         21    1    1    2  502  501  0.30291287764E+02 -0.93709536803E+01  0.27232077885E+02  0.41796685911E+02  0.00000000000E+00 0.  1.
<scales pt_clust_5="13000.00000" pt_clust_6="13000.00000" pt_clust_7="13000.00000" pt_clust_8="13000.00000" pt_clust_9="31.70768"></scales>
<clustering>
<clus scale="   31.708">  1  9  2 -1</clus>
<clus scale="   90.534">  7  8 -1 -1</clus>
<clus scale="  100.475">  1  7  2 -1</clus>
<clus scale="  118.226">  5  6 -1 -1</clus>
<clus scale="   31.708">  1  5  2 -1</clus>
</clustering>
</event>
<event>
 9    1  0.9000149E-006  0.1179227E+03  0.7546771E-02  0.1247668E+00
          1   -1    0    0  502    0  0.00000000000E+00  0.00000000000E+00  0.25282734920E+03  0.25282734920E+03  0.00000000000E+00 0. -1.
         -1   -1    0    0    0  501 -0.00000000000E+00 -0.00000000000E+00 -0.10591649870E+03  0.10591649870E+03  0.00000000000E+00 0.  1.
         23    2    1    2    0    0 -0.73685266917E+02 -0.26198011984E+02 -0.34978803713E+02  0.12786991050E+03  0.94928093364E+02 0.  0.
         23    2    1    2    0    0  0.34152741823E+02  0.27701404256E+02  0.14231005528E+03  0.17491301014E+03  0.91698591652E+02 0.  0.
        -11    1    4    4    0    0  0.41283377382E+02  0.55930006223E+02  0.11812975922E+03  0.13706612585E+03  0.00000000000E+00 0. -1.
         11    1    4    4    0    0 -0.71306355597E+01 -0.28228601967E+02  0.24180296065E+02  0.37846884287E+02  0.00000000000E+00 0.  1.
        -13    1    3    3    0    0  0.15250528140E+02 -0.30087743072E+02 -0.13207386325E+02  0.36225487509E+02  0.00000000000E+00 0.  1.
         13    1    3    3    0    0 -0.88935795057E+02  0.38897310889E+01 -0.21771417389E+02  0.91644422991E+02  0.00000000000E+00 0. -1.
         21    1    1    2  502  501  0.39532525094E+02 -0.15033922727E+01  0.39579598927E+02  0.55960927261E+02  0.00000000000E+00 0. -1.
<scales pt_clust_5="13000.00000" pt_clust_6="13000.00000" pt_clust_7="13000.00000" pt_clust_8="13000.00000" pt_clust_9="39.56110"></scales>
<clustering>
<clus scale="   39.561">  1  9  2 -1</clus>
<clus scale="   91.699">  5  6 -1 -1</clus>
<clus scale="   94.928">  7  8 -1 -1</clus>
<clus scale="  115.339">  1  5  2 -1</clus>
<clus scale="   39.561">  1  5  2 -1</clus>
</clustering>
</event>
<event>
 9    1  0.9000149E-006  0.9758645E+02  0.7546771E-02  0.1295428E+00
          3   -1    0    0  502    0  0.00000000000E+00  0.00000000000E+00  0.15066178007E+03  0.15066178007E+03  0.00000000000E+00 0. -1.
         -3   -1    0    0    0  501 -0.00000000000E+00 -0.00000000000E+00 -0.11097226289E+03  0.11097226289E+03  0.00000000000E+00 0.  1.
         23    2    1    2    0    0  0.51786626149E+01  0.44707352111E+02 -0.21615235501E+02  0.10694823936E+03  0.94578758803E+02 0.  0.
         23    2    1    2    0    0  0.23490316004E+01 -0.63543035206E+01 -0.49392921359E+01  0.77770941641E+02  0.77317705826E+02 0.  0.
        -13    1    4    4    0    0 -0.49856421907E+01  0.33237045183E+02 -0.14149526692E+02  0.36465969151E+02  0.00000000000E+00 0.  1.
         13    1    4    4    0    0  0.73346737911E+01 -0.39591348703E+02  0.92102345560E+01  0.41304972489E+02  0.00000000000E+00 0. -1.
        -13    1    3    3    0    0 -0.13901930990E+02 -0.23882354858E+02 -0.22674995427E+02  0.35746132328E+02  0.00000000000E+00 0. -1.
         13    1    3    3    0    0  0.19080593605E+02  0.68589706969E+02  0.10597599266E+01  0.71202107030E+02  0.00000000000E+00 0.  1.
         21    1    1    2  502  501 -0.75276942153E+01 -0.38353048590E+02  0.66244044817E+02  0.76914861958E+02  0.00000000000E+00 0. -1.
<scales pt_clust_5="13000.00000" pt_clust_6="13000.00000" pt_clust_7="13000.00000" pt_clust_8="13000.00000" pt_clust_9="39.08481"></scales>
<clustering>
<clus scale="   39.085">  1  9  2 -1</clus>
<clus scale="   77.318">  5  6 -1 -1</clus>
<clus scale="   80.969">  1  5  2 -1</clus>
<clus scale="   94.579">  7  8 -1 -1</clus>
<clus scale="   39.085">  1  5  2 -1</clus>
</clustering>
</event>
<event>
 9    1  0.9000149E-006  0.9765136E+02  0.7546771E-02  0.1285380E+00
         -1   -1    0    0    0  501 -0.00000000000E+00  0.00000000000E+00  0.18741902223E+03  0.18741902223E+03  0.00000000000E+00 0.  1.
          1   -1    0    0  502    0  0.00000000000E+00 -0.00000000000E+00 -0.27126863454E+03  0.27126863454E+03  0.00000000000E+00 0. -1.
         23    2    1    2    0    0  0.11822366903E+02  0.31857346147E+02  0.97318664691E+02  0.13733757559E+03  0.90752566399E+02 0.  0.
         23    2    1    2    0    0 -0.42285468258E+02 -0.21552055561E+02  0.30896171070E+02  0.10686108450E+03  0.90621002367E+02 0.  0.
        -11    1    3    3    0    0 -0.28579688167E+02 -0.21039881643E+01  0.74527646987E+02  0.79847326238E+02  0.00000000000E+00 0.  1.
         11    1    3    3    0    0  0.40402055071E+02  0.33961334311E+02  0.22791017704E+02  0.57490249348E+02  0.00000000000E+00 0. -1.
        -13    1    4    4    0    0 -0.13889199564E+02 -0.41673180379E+02  0.50488546947E+02  0.66922770417E+02  0.00000000000E+00 0.  1.
         13    1    4    4    0    0 -0.28396268694E+02  0.20121124818E+02 -0.19592375877E+02  0.39938314088E+02  0.00000000000E+00 0. -1.
         21    1    1    2  502  501  0.30463101355E+02 -0.10305290586E+02 -0.21206444808E+03  0.21448899668E+03  0.00000000000E+00 0. -1.
<scales pt_clust_5="13000.00000" pt_clust_6="13000.00000" pt_clust_7="13000.00000" pt_clust_8="13000.00000" pt_clust_9="32.15897"></scales>
<clustering>
<clus scale="   32.159">  2  9  1 -1</clus>
<clus scale="   90.621">  7  8 -1 -1</clus>
<clus scale="   90.753">  5  6 -1 -1</clus>
<clus scale="   97.529">  2  7  1 -1</clus>
<clus scale="   32.159">  2  5  1 -1</clus>
</clustering>
</event>
<event>
 9    1  0.9000149E-006  0.1034387E+03  0.7546771E-02  0.1283721E+00
          1   -1    0    0  502    0  0.00000000000E+00  0.00000000000E+00  0.13833244874E+03  0.13833244874E+03  0.00000000000E+00 0. -1.
         -1   -1    0    0    0  501 -0.00000000000E+00 -0.00000000000E+00 -0.12556216182E+03  0.12556216182E+03  0.00000000000E+00 0.  1.
         23    2    1    2    0    0 -0.28588716725E+02 -0.23982092077E+02 -0.52795678945E+02  0.10228826792E+03  0.79265696072E+02 0.  0.
         23    2    1    2    0    0 -0.36472131641E+01  0.20095150784E+02  0.16076925547E+02  0.10241657495E+03  0.99063464714E+02 0.  0.
        -11    1    3    3    0    0  0.20892612470E+02 -0.26863767027E+02 -0.36991044469E+02  0.50264307472E+02  0.00000000000E+00 0. -1.
         11    1    3    3    0    0 -0.49481329195E+02  0.28816749502E+01 -0.15804634476E+02  0.52023960445E+02  0.00000000000E+00 0.  1.
        -13    1    4    4    0    0  0.21540099155E+02  0.54047458408E+02  0.33953879885E+01  0.58280633932E+02  0.00000000000E+00 0. -1.
         13    1    4    4    0    0 -0.25187312319E+02 -0.33952307625E+02  0.12681537558E+02  0.44135941020E+02  0.00000000000E+00 0.  1.
         21    1    1    2  502  501  0.32235929889E+02  0.38869412936E+01  0.49489040314E+02  0.59189767693E+02  0.00000000000E+00 0. -1.
<scales pt_clust_5="13000.00000" pt_clust_6="13000.00000" pt_clust_7="13000.00000" pt_clust_8="13000.00000" pt_clust_9="32.46942"></scales>
<clustering>
<clus scale="   32.469">  1  9  2 -1</clus>
<clus scale="   79.266">  5  6 -1 -1</clus>
<clus scale="   84.670">  2  5  1 -1</clus>
<clus scale="   99.063">  7  8 -1 -1</clus>
<clus scale="   32.469">  1  5  2 -1</clus>
</clustering>
</event>
<event>
 9    1  0.9000149E-006  0.9681280E+02  0.7546771E-02  0.1287233E+00
          2   -1    0    0  502    0  0.00000000000E+00  0.00000000000E+00  0.54998086691E+03  0.54998086691E+03  0.00000000000E+00 0. -1.
         -2   -1    0    0    0  501 -0.00000000000E+00 -0.00000000000E+00 -0.45882590061E+02  0.45882590061E+02  0.00000000000E+00 0.  1.
         23    2    1    2    0    0  0.34696225025E+02  0.30668825588E+02  0.97150707360E+02  0.14091846565E+03  0.90968945942E+02 0.  0.
         23    2    1    2    0    0  0.46496085813E+02 -0.36520294207E+02  0.14744699083E+03  0.18297627741E+03  0.90796944358E+02 0.  0.
        -13    1    4    4    0    0  0.61501136486E+02  0.73897608808E+01  0.85007608809E+02  0.10518218438E+03  0.00000000000E+00 0.  1.
         13    1    4    4    0    0 -0.15005050673E+02 -0.43910055087E+02  0.62439382018E+02  0.77794093030E+02  0.00000000000E+00 0. -1.
        -13    1    3    3    0    0  0.11754078307E+02  0.22750846028E+02 -0.12583410414E+02  0.28532465184E+02  0.00000000000E+00 0.  1.
         13    1    3    3    0    0  0.22942146718E+02  0.79179795601E+01  0.10973411777E+03  0.11238600046E+03  0.00000000000E+00 0. -1.
         21    1    1    2  502  501 -0.81192310838E+02  0.58514686183E+01  0.25950057866E+03  0.27196871391E+03  0.00000000000E+00 0.  1.
<scales pt_clust_5="13000.00000" pt_clust_6="13000.00000" pt_clust_7="13000.00000" pt_clust_8="13000.00000" pt_clust_9="81.40289"></scales>
<clustering>
<clus scale="   81.403">  1  9  2 -1</clus>
<clus scale="   90.797">  5  6 -1 -1</clus>
<clus scale="   90.969">  7  8 -1 -1</clus>
<clus scale="   96.651">  1  5  2 -1</clus>
<clus scale="   81.403">  1  5  2 -1</clus>
</clustering>
</event>
<event>
 9    1  0.9000149E-006  0.1083290E+03  0.7546771E-02  0.1267510E+00
         -3   -1    0    0    0  501 -0.00000000000E+00  0.00000000000E+00  0.36744247797E+03  0.36744247797E+03  0.00000000000E+00 0.  1.
          3   -1    0    0  502    0  0.00000000000E+00 -0.00000000000E+00 -0.10756196382E+03  0.10756196382E+03  0.00000000000E+00 0. -1.
         23    2    1    2    0    0 -0.58344400754E+02 -0.34299544513E+02  0.22966884303E+03  0.25424394622E+03  0.85508355603E+02 0.  0.
         23    2    1    2    0    0  0.10733825841E+02  0.32182021626E+02  0.96401860279E+02  0.13919829913E+03  0.94508995772E+02 0.  0.
        -11    1    3    3    0    0 -0.31407384508E+02  0.20397998695E+02  0.14593811658E+03  0.15066663872E+03  0.00000000000E+00 0.  1.
         11    1    3    3    0    0 -0.26937016247E+02 -0.54697543207E+02  0.83730726453E+02  0.10357730750E+03  0.00000000000E+00 0. -1.
        -13    1    4    4    0    0  0.12382764706E+02 -0.31995460438E+02  0.47011834569E+02  0.58199269239E+02  0.00000000000E+00 0. -1.
         13    1    4    4    0    0 -0.16489388651E+01  0.64177482064E+02  0.49390025710E+02  0.80999029890E+02  0.00000000000E+00 0.  1.
         21    1    1    2  502  501  0.47610574914E+02  0.21175228867E+01 -0.66190189163E+02  0.81562196441E+02  0.00000000000E+00 0. -1.
<scales pt_clust_5="13000.00000" pt_clust_6="13000.00000" pt_clust_7="13000.00000" pt_clust_8="13000.00000" pt_clust_9="47.65764"></scales>
<clustering>
<clus scale="   47.658">  2  9  1 -1</clus>
<clus scale="   85.508">  5  6 -1 -1</clus>
<clus scale="   94.509">  7  8 -1 -1</clus>
<clus scale="  100.573">  1  5  2 -1</clus>
<clus scale="   47.658">  2  5  1 -1</clus>
</clustering>
</event>
<event>
 9    1  0.9000149E-006  0.1021509E+03  0.7546771E-02  0.1276642E+00
          2   -1    0    0  502    0  0.00000000000E+00  0.00000000000E+00  0.15153582115E+03  0.15153582115E+03  0.00000000000E+00 0. -1.
         -2   -1    0    0    0  501 -0.00000000000E+00 -0.00000000000E+00 -0.26798446872E+03  0.26798446872E+03  0.00000000000E+00 0.  1.
         23    2    1    2    0    0 -0.21497149456E+02 -0.34744697188E+02 -0.21832768297E+03  0.24004491348E+03  0.91023414117E+02 0.  0.
         23    2    1    2    0    0  0.28224898603E+02  0.59901882499E+02  0.10271759034E+03  0.15342063104E+03  0.92747540316E+02 0.  0.
        -11    1    3    3    0    0 -0.26875124029E+02 -0.58306858222E+02 -0.96926006562E+02  0.11626096832E+03  0.00000000000E+00 0. -1.
         11    1    3    3    0    0  0.53779745730E+01  0.23562161034E+02 -0.12140167641E+03  0.12378394515E+03  0.00000000000E+00 0.  1.
        -13    1    4    4    0    0  0.34225872340E+02 -0.10713276540E+02  0.10999346648E+02  0.37512268104E+02  0.00000000000E+00 0.  1.
         13    1    4    4    0    0 -0.60009737373E+01  0.70615159039E+02  0.91718243691E+02  0.11590836293E+03  0.00000000000E+00 0. -1.
         21    1    1    2  502  501 -0.67277491461E+01 -0.25157185311E+02 -0.83855494157E+00  0.26054745359E+02  0.00000000000E+00 0. -1.
<scales pt_clust_5="13000.00000" pt_clust_6="13000.00000" pt_clust_7="13000.00000" pt_clust_8="13000.00000" pt_clust_9="26.04125"></scales>
<clustering>
<clus scale="   26.041">  1  9  2 -1</clus>
<clus scale="   91.023">  5  6 -1 -1</clus>
<clus scale="   92.748">  7  8 -1 -1</clus>
<clus scale="  100.588">  2  5  1 -1</clus>
<clus scale="   26.041">  1  5  2 -1</clus>
</clustering>
</event>
<event>
 9    1  0.9000149E-006  0.9243907E+02  0.7546771E-02  0.1297994E+00
         -2   -1    0    0    0  501 -0.00000000000E+00  0.00000000000E+00  0.29632104513E+03  0.29632104513E+03  0.00000000000E+00 0.  1.
          2   -1    0    0  502    0  0.00000000000E+00 -0.00000000000E+00 -0.58467136256E+02  0.58467136256E+02  0.00000000000E+00 0. -1.
         23    2    1    2    0    0  0.12992997328E+01 -0.12690986088E+02  0.21310600560E+03  0.23237929731E+03  0.91778095905E+02 0.  0.
         23    2    1    2    0    0 -0.21172209303E+02 -0.19486648828E+01  0.29600158554E+02  0.97253441383E+02  0.90166527785E+02 0.  0.
        -11    1    3    3    0    0  0.32050763006E+02 -0.30223574291E+02  0.17461273586E+03  0.18008421190E+03  0.00000000000E+00 0.  1.
         11    1    3    3    0    0 -0.30751463273E+02  0.17532588203E+02  0.38493269742E+02  0.52295085409E+02  0.00000000000E+00 0. -1.
        -11    1    4    4    0    0 -0.48604004825E+02  0.15602465871E+02 -0.30508641076E+01  0.51137989773E+02  0.00000000000E+00 0. -1.
         11    1    4    4    0    0  0.27431795522E+02 -0.17551130754E+02  0.32651022662E+02  0.46115451609E+02  0.00000000000E+00 0.  1.
         21    1    1    2  502  501  0.19872909570E+02  0.14639650971E+02 -0.48522552876E+01  0.25155442686E+02  0.00000000000E+00 0. -1.
<scales pt_clust_5="13000.00000" pt_clust_6="13000.00000" pt_clust_7="13000.00000" pt_clust_8="13000.00000" pt_clust_9="24.68303"></scales>
<clustering>
<clus scale="   24.683">  2  9  1 -1</clus>
<clus scale="   90.167">  7  8 -1 -1</clus>
<clus scale="   90.839">  2  7  1 -1</clus>
<clus scale="   91.778">  5  6 -1 -1</clus>
<clus scale="   24.683">  2  5  1 -1</clus>
</clustering>
</event>
<event>
 9    1  0.9000149E-006  0.1553216E+03  0.7546771E-02  0.1194798E+00
         -3   -1    0    0    0  501 -0.00000000000E+00  0.00000000000E+00  0.43285114925E+03  0.43285114925E+03  0.00000000000E+00 0.  1.
          3   -1    0    0  502    0  0.00000000000E+00 -0.00000000000E+00 -0.14430547640E+03  0.14430547640E+03  0.00000000000E+00 0. -1.
         23    2    1    2    0    0 -0.66519871974E+02  0.10418018010E+03  0.33946385536E+03  0.37249632434E+03  0.90771136710E+02 0.  0.
         23    2    1    2    0    0  0.91649693608E+02 -0.10740997461E+03 -0.23420248539E+02  0.16726944840E+03  0.86567842419E+02 0.  0.
        -13    1    3    3    0    0 -0.41101006219E+02  0.19205924144E+02  0.21456471504E+03  0.21930840653E+03  0.00000000000E+00 0.  1.
         13    1    3    3    0    0 -0.25418865755E+02  0.84974255953E+02  0.12489914033E+03  0.15318791782E+03  0.00000000000E+00 0. -1.
        -13    1    4    4    0    0 -0.17039922867E+02 -0.16439784243E+02 -0.63158521678E+01  0.24505417072E+02  0.00000000000E+00 0. -1.
         13    1    4    4    0    0  0.10868961648E+03 -0.90970190367E+02 -0.17104396371E+02  0.14276403133E+03  0.00000000000E+00 0.  1.
         21    1    1    2  502  501 -0.25129821635E+02  0.32297945136E+01 -0.27497933982E+02  0.37390852909E+02  0.00000000000E+00 0. -1.
<scales pt_clust_5="13000.00000" pt_clust_6="13000.00000" pt_clust_7="13000.00000" pt_clust_8="13000.00000" pt_clust_9="25.33653"></scales>
<clustering>
<clus scale="   25.337">  2  9  1 -1</clus>
<clus scale="   86.568">  7  8 -1 -1</clus>
<clus scale="   90.771">  5  6 -1 -1</clus>
<clus scale="  152.903">  2  7  1 -1</clus>
<clus scale="   25.337">  2  5  1 -1</clus>
</clustering>
</event>
<event>
 9    1  0.9000149E-006  0.9264584E+02  0.7546771E-02  0.1297536E+00
          2   -1    0    0  502    0  0.00000000000E+00  0.00000000000E+00  0.14052213862E+03  0.14052213862E+03  0.00000000000E+00 0. -1.
         -2   -1    0    0    0  501 -0.00000000000E+00 -0.00000000000E+00 -0.12841566992E+03  0.12841566992E+03  0.00000000000E+00 0.  1.
         23    2    1    2    0    0  0.12937180057E+01 -0.20021906982E+02 -0.62770285256E+02  0.11059939897E+03  0.88823239506E+02 0.  0.
         23    2    1    2    0    0  0.36289094965E+02  0.12156837009E+02  0.38796893662E+02  0.10564985792E+03  0.90509703464E+02 0.  0.
        -13    1    3    3    0    0 -0.32470370574E+02 -0.40234969997E+02 -0.34999003019E+02  0.62434829929E+02  0.00000000000E+00 0. -1.
         13    1    3    3    0    0  0.33764088580E+02  0.20213063015E+02 -0.27771282237E+02  0.48164569044E+02  0.00000000000E+00 0.  1.
        -13    1    4    4    0    0  0.44264470404E+02 -0.30569311008E+02  0.28929241221E+02  0.61079678399E+02  0.00000000000E+00 0. -1.
         13    1    4    4    0    0 -0.79753754393E+01  0.42726148017E+02  0.98676524412E+01  0.44570179520E+02  0.00000000000E+00 0.  1.
         21    1    1    2  502  501 -0.37582812971E+02  0.78650699727E+01  0.36079860293E+02  0.52688551652E+02  0.00000000000E+00 0. -1.
<scales pt_clust_5="13000.00000" pt_clust_6="13000.00000" pt_clust_7="13000.00000" pt_clust_8="13000.00000" pt_clust_9="38.39697"></scales>
<clustering>
<clus scale="   38.397">  1  9  2 -1</clus>
<clus scale="   88.823">  5  6 -1 -1</clus>
<clus scale="   90.510">  7  8 -1 -1</clus>
<clus scale="   90.999">  2  5  1 -1</clus>
<clus scale="   38.397">  1  5  2 -1</clus>
</clustering>
</event>
<event>
 9    1  0.9000149E-006  0.1331471E+03  0.7546771E-02  0.1223093E+00
         -1   -1    0    0    0  501 -0.00000000000E+00  0.00000000000E+00  0.94224152120E+02  0.94224152120E+02  0.00000000000E+00 0.  1.
          1   -1    0    0  502    0  0.00000000000E+00 -0.00000000000E+00 -0.30178883348E+03  0.30178883348E+03  0.00000000000E+00 0. -1.
         23    2    1    2    0    0  0.57224399793E+02  0.53454142507E+02 -0.42948626028E+02  0.12802646019E+03  0.91729018026E+02 0.  0.
         23    2    1    2    0    0 -0.99673815338E+02 -0.70696942293E+02 -0.82977113383E+02  0.17436930548E+03  0.92663510809E+02 0.  0.
        -11    1    3    3    0    0  0.80432423036E+02  0.26631342699E+02 -0.25391465696E+02  0.88449588012E+02  0.00000000000E+00 0.  1.
         11    1    3    3    0    0 -0.23208023243E+02  0.26822799807E+02 -0.17557160332E+02  0.39576872176E+02  0.00000000000E+00 0. -1.
        -11    1    4    4    0    0 -0.28838345268E+02 -0.47911146038E+02 -0.82853503833E+02  0.99959147504E+02  0.00000000000E+00 0. -1.
         11    1    4    4    0    0 -0.70835470070E+02 -0.22785796255E+02 -0.12360955054E+00  0.74410157978E+02  0.00000000000E+00 0.  1.
         21    1    1    2  502  501  0.42449415545E+02  0.17242799786E+02 -0.81638941951E+02  0.93617219930E+02  0.00000000000E+00 0. -1.
<scales pt_clust_5="13000.00000" pt_clust_6="13000.00000" pt_clust_7="13000.00000" pt_clust_8="13000.00000" pt_clust_9="45.81776"></scales>
<clustering>
<clus scale="   45.818">  2  9  1 -1</clus>
<clus scale="   91.729">  5  6 -1 -1</clus>
<clus scale="   92.664">  7  8 -1 -1</clus>
<clus scale="  132.498">  1  5  2 -1</clus>
<clus scale="   45.818">  2  5  1 -1</clus>
</clustering>
</event>
<event>
 9    1  0.9000149E-006  0.9750222E+02  0.7546771E-02  0.1287693E+00
         -2   -1    0    0    0  501 -0.00000000000E+00  0.00000000000E+00  0.30714249371E+02  0.30714249371E+02  0.00000000000E+00 0.  1.
          2   -1    0    0  502    0  0.00000000000E+00 -0.00000000000E+00 -0.37314273269E+03  0.37314273269E+03  0.00000000000E+00 0. -1.
         23    2    1    2    0    0 -0.85087440793E+01  0.24536382832E+02 -0.14055553646E+03  0.16960453207E+03  0.91298442804E+02 0.  0.
         23    2    1    2    0    0  0.25441290086E+02 -0.36572909850E+02 -0.16807305599E+03  0.19457850742E+03  0.87335024038E+02 0.  0.
        -11    1    3    3    0    0 -0.16145177864E+02  0.48981672033E+02 -0.38431852257E+02  0.64318568324E+02  0.00000000000E+00 0.  1.
         11    1    3    3    0    0  0.76364337843E+01 -0.24445289201E+02 -0.10212368421E+03  0.10528596374E+03  0.00000000000E+00 0. -1.
        -13    1    4    4    0    0  0.14381813185E+02 -0.58399994996E+02 -0.15620343426E+03  0.16738252251E+03  0.00000000000E+00 0.  1.
         13    1    4    4    0    0  0.11059476902E+02  0.21827085146E+02 -0.11869621726E+02  0.27195984910E+02  0.00000000000E+00 0. -1.
         21    1    1    2  502  501 -0.16932546007E+02  0.12036527018E+02 -0.33799890873E+02  0.39673942582E+02  0.00000000000E+00 0.  1.
<scales pt_clust_5="13000.00000" pt_clust_6="13000.00000" pt_clust_7="13000.00000" pt_clust_8="13000.00000" pt_clust_9="20.77472"></scales>
<clustering>
<clus scale="   20.775">  2  9  1 -1</clus>
<clus scale="   87.335">  7  8 -1 -1</clus>
<clus scale="   91.298">  5  6 -1 -1</clus>
<clus scale="   93.801">  2  7  1 -1</clus>
<clus scale="   20.775">  2  5  1 -1</clus>
</clustering>
</event>
<event>
 9    1  0.9000149E-006  0.1128246E+03  0.7546771E-02  0.1257347E+00
         -2   -1    0    0    0  501 -0.00000000000E+00  0.00000000000E+00  0.44390520150E+02  0.44390520150E+02  0.00000000000E+00 0.  1.
          2   -1    0    0  502    0  0.00000000000E+00 -0.00000000000E+00 -0.58013876831E+03  0.58013876831E+03  0.00000000000E+00 0. -1.
         23    2    1    2    0    0 -0.42214292431E+02 -0.52009980029E+02 -0.87457544935E+02  0.14680987883E+03  0.97042433234E+02 0.  0.
         23    2    1    2    0    0 -0.15673212310E+02  0.51191837165E+02 -0.26991992343E+03  0.29018869842E+03  0.92121994378E+02 0.  0.
        -11    1    3    3    0    0  0.20739081005E+02 -0.36620096767E+02 -0.56800092828E+01  0.42466498250E+02  0.00000000000E+00 0.  1.
         11    1    3    3    0    0 -0.62953373435E+02 -0.15389883262E+02 -0.81777535652E+02  0.10434338058E+03  0.00000000000E+00 0. -1.
        -13    1    4    4    0    0  0.30388503774E+02  0.29240414292E+02 -0.19523463142E+03  0.19973738832E+03  0.00000000000E+00 0. -1.
         13    1    4    4    0    0 -0.46061716084E+02  0.21951422873E+02 -0.74685292014E+02  0.90451310095E+02  0.00000000000E+00 0.  1.
         21    1    1    2  502  501  0.57887504741E+02  0.81814286486E+00 -0.17837077979E+03  0.18753071121E+03  0.00000000000E+00 0.  1.
<scales pt_clust_5="13000.00000" pt_clust_6="13000.00000" pt_clust_7="13000.00000" pt_clust_8="13000.00000" pt_clust_9="57.89329"></scales>
<clustering>
<clus scale="   57.893">  2  9  1 -1</clus>
<clus scale="   92.122">  7  8 -1 -1</clus>
<clus scale="   97.042">  5  6 -1 -1</clus>
<clus scale="  108.621">  2  7  1 -1</clus>
<clus scale="   57.893">  2  5  1 -1</clus>
</clustering>
</event>
<event>
 9    1  0.9000149E-006  0.1078735E+03  0.7546771E-02  0.1264594E+00
          2   -1    0    0  502    0  0.00000000000E+00  0.00000000000E+00  0.53452073626E+03  0.53452073626E+03  0.00000000000E+00 0. -1.
         -2   -1    0    0    0  501 -0.00000000000E+00 -0.00000000000E+00 -0.71436102705E+02  0.71436102705E+02  0.00000000000E+00 0.  1.
         23    2    1    2    0    0  0.44901798192E+02  0.37558930782E+02 -0.15685730041E+02  0.11045730714E+03  0.92346791022E+02 0.  0.
         23    2    1    2    0    0 -0.17841097263E+02 -0.30793170105E+02  0.35011547754E+03  0.36385555452E+03  0.92431016812E+02 0.  0.
        -13    1    3    3    0    0  0.65765764115E+02  0.19666003057E+02  0.13940813204E+02  0.70044512124E+02  0.00000000000E+00 0.  1.
         13    1    3    3    0    0 -0.20863965924E+02  0.17892927725E+02 -0.29626543245E+02  0.40412795019E+02  0.00000000000E+00 0. -1.
        -13    1    4    4    0    0 -0.10855116331E+02  0.32885492402E+02  0.13790253765E+03  0.14218438400E+03  0.00000000000E+00 0.  1.
         13    1    4    4    0    0 -0.69859809326E+01 -0.63678662508E+02  0.21221293988E+03  0.22167117053E+03  0.00000000000E+00 0. -1.
         21    1    1    2  502  501 -0.27060700929E+02 -0.67657606770E+01  0.12865488606E+03  0.13164397730E+03  0.00000000000E+00 0. -1.
<scales pt_clust_5="13000.00000" pt_clust_6="13000.00000" pt_clust_7="13000.00000" pt_clust_8="13000.00000" pt_clust_9="27.89367"></scales>
<clustering>
<clus scale="   27.894">  1  9  2 -1</clus>
<clus scale="   92.347">  5  6 -1 -1</clus>
<clus scale="   92.431">  7  8 -1 -1</clus>
<clus scale="  107.801">  2  5  1 -1</clus>
<clus scale="   27.894">  1  5  2 -1</clus>
</clustering>
</event>
<event>
 9    1  0.9000149E-006  0.1110373E+03  0.7546771E-02  0.1265470E+00
          2   -1    0    0  502    0  0.00000000000E+00  0.00000000000E+00  0.95510697599E+03  0.95510697599E+03  0.00000000000E+00 0. -1.
         -2   -1    0    0    0  501 -0.00000000000E+00 -0.00000000000E+00 -0.22378960517E+02  0.22378960517E+02  0.00000000000E+00 0.  1.
         23    2    1    2    0    0 -0.53078003515E+02  0.34486730189E+02  0.19079196761E+03  0.22031561655E+03  0.90170876540E+02 0.  0.
         23    2    1    2    0    0  0.77933826983E+02 -0.41161849562E+00  0.58871569402E+03  0.59825083711E+03  0.72415777942E+02 0.  0.
        -13    1    3    3    0    0 -0.51270767520E+02 -0.83586457427E+01  0.15803110045E+03  0.16635019468E+03  0.00000000000E+00 0. -1.
         13    1    3    3    0    0 -0.18072359945E+01  0.42845375932E+02  0.32760867159E+02  0.53965421871E+02  0.00000000000E+00 0.  1.
        -13    1    4    4    0    0  0.72251642116E+02  0.27397170957E+02  0.45977954902E+03  0.46622756082E+03  0.00000000000E+00 0. -1.
         13    1    4    4    0    0  0.56821848664E+01 -0.27808789452E+02  0.12893614500E+03  0.13202327630E+03  0.00000000000E+00 0.  1.
         21    1    1    2  502  501 -0.24855823468E+02 -0.34075111694E+02  0.15322035384E+03  0.15891948285E+03  0.00000000000E+00 0.  1.
<scales pt_clust_5="13000.00000" pt_clust_6="13000.00000" pt_clust_7="13000.00000" pt_clust_8="13000.00000" pt_clust_9="42.17731"></scales>
<clustering>
<clus scale="   42.177">  1  9  2 -1</clus>
<clus scale="   72.416">  7  8 -1 -1</clus>
<clus scale="   90.171">  5  6 -1 -1</clus>
<clus scale="   97.173">  1  7  2 -1</clus>
<clus scale="   42.177">  1  5  2 -1</clus>
</clustering>
</event>
<event>
 9    1  0.9000149E-006  0.9653575E+02  0.7546771E-02  0.1294040E+00
         -2   -1    0    0    0  501 -0.00000000000E+00  0.00000000000E+00  0.20196642708E+02  0.20196642708E+02  0.00000000000E+00 0.  1.
          2   -1    0    0  502    0  0.00000000000E+00 -0.00000000000E+00 -0.83473544984E+03  0.83473544984E+03  0.00000000000E+00 0. -1.
         23    2    1    2    0    0  0.19189962094E+02  0.34146872895E+01 -0.15620882052E+03  0.18232879095E+03  0.91992813123E+02 0.  0.
         23    2    1    2    0    0 -0.54158281900E+02  0.10400984266E+02 -0.41280658713E+03  0.42421772258E+03  0.80685177093E+02 0.  0.
        -13    1    4    4    0    0 -0.35927276106E+02  0.41020746848E+02 -0.32350097641E+03  0.32806455551E+03  0.00000000000E+00 0. -1.
         13    1    4    4    0    0 -0.18231005794E+02 -0.30619762582E+02 -0.89305610719E+02  0.96153167076E+02  0.00000000000E+00 0.  1.
        -13    1    3    3    0    0  0.54822496926E+02  0.61314618610E+01 -0.70864422103E+02  0.89804606306E+02  0.00000000000E+00 0.  1.
         13    1    3    3    0    0 -0.35632534832E+02 -0.27167745714E+01 -0.85344398420E+02  0.92524184646E+02  0.00000000000E+00 0. -1.
         21    1    1    2  502  501  0.34968319806E+02 -0.13815671555E+02 -0.24552339948E+03  0.24838557902E+03  0.00000000000E+00 0.  1.
<scales pt_clust_5="13000.00000" pt_clust_6="13000.00000" pt_clust_7="13000.00000" pt_clust_8="13000.00000" pt_clust_9="37.59862"></scales>
<clustering>
<clus scale="   37.599">  2  9  1 -1</clus>
<clus scale="   80.685">  5  6 -1 -1</clus>
<clus scale="   85.829">  2  5  1 -1</clus>
<clus scale="   91.993">  7  8 -1 -1</clus>
<clus scale="   37.599">  2  5  1 -1</clus>
</clustering>
</event>
<event>
 9    1  0.9000149E-006  0.1157466E+03  0.7546771E-02  0.1250398E+00
          2   -1    0    0  502    0  0.00000000000E+00  0.00000000000E+00  0.38854652570E+03  0.38854652570E+03  0.00000000000E+00 0. -1.
         -2   -1    0    0    0  501 -0.00000000000E+00 -0.00000000000E+00 -0.44247191344E+02  0.44247191344E+02  0.00000000000E+00 0.  1.
         23    2    1    2    0    0  0.16637007951E+02  0.55247122068E+02  0.14573420472E+03  0.18165189287E+03  0.91814580676E+02 0.  0.
         23    2    1    2    0    0 -0.15377484161E+02 -0.82130117042E+02  0.14168686931E+03  0.18821791524E+03  0.91482192463E+02 0.  0.
        -11    1    4    4    0    0  0.18129846674E+02 -0.87391945806E+02  0.11141012662E+03  0.14275244252E+03  0.00000000000E+00 0.  1.
         11    1    4    4    0    0 -0.33507330835E+02  0.52618287642E+01  0.30276742689E+02  0.45465472718E+02  0.00000000000E+00 0. -1.
        -13    1    3    3    0    0 -0.24397579851E+02 -0.82839599285E+01  0.12944290403E+02  0.28834364024E+02  0.00000000000E+00 0. -1.
         13    1    3    3    0    0  0.41034587802E+02  0.63531081996E+02  0.13278991432E+03  0.15281752884E+03  0.00000000000E+00 0.  1.
         21    1    1    2  502  501 -0.12595237901E+01  0.26882994974E+02  0.56878260327E+02  0.62923908944E+02  0.00000000000E+00 0. -1.
<scales pt_clust_5="13000.00000" pt_clust_6="13000.00000" pt_clust_7="13000.00000" pt_clust_8="13000.00000" pt_clust_9="26.91248"></scales>
<clustering>
<clus scale="   26.912">  1  9  2 -1</clus>
<clus scale="   91.482">  5  6 -1 -1</clus>
<clus scale="   91.815">  7  8 -1 -1</clus>
<clus scale="  115.483">  1  5  2 -1</clus>
<clus scale="   26.912">  1  5  2 -1</clus>
</clustering>
</event>
<event>
 9    1  0.9000149E-006  0.9374470E+02  0.7546771E-02  0.1295221E+00
         -3   -1    0    0    0  501 -0.00000000000E+00  0.00000000000E+00  0.58492621319E+03  0.58492621319E+03  0.00000000000E+00 0.  1.
          3   -1    0    0  502    0  0.00000000000E+00 -0.00000000000E+00 -0.24979083337E+02  0.24979083337E+02  0.00000000000E+00 0. -1.
         23    2    1    2    0    0  0.53461309440E+01  0.68317196416E+01  0.40349970084E+03  0.41383286704E+03  0.91489779516E+02 0.  0.
         23    2    1    2    0    0  0.15243023127E+02 -0.38783979174E+01  0.14190756246E+03  0.17069442535E+03  0.93549125263E+02 0.  0.
        -11    1    4    4    0    0  0.36855124139E+02 -0.37710433428E+02  0.62945209988E+02  0.82112583841E+02  0.00000000000E+00 0.  1.
         11    1    4    4    0    0 -0.21612101012E+02  0.33832035510E+02  0.78962352476E+02  0.88581841511E+02  0.00000000000E+00 0. -1.
        -11    1    3    3    0    0 -0.34452701825E+02 -0.19265384606E+02  0.11889407604E+03  0.12527547655E+03  0.00000000000E+00 0. -1.
         11    1    3    3    0    0  0.39798832769E+02  0.26097104248E+02  0.28460562480E+03  0.28855739049E+03  0.00000000000E+00 0.  1.
         21    1    1    2  502  501 -0.20589154071E+02 -0.29533217242E+01  0.14539866547E+02  0.25378004133E+02  0.00000000000E+00 0. -1.
<scales pt_clust_5="13000.00000" pt_clust_6="13000.00000" pt_clust_7="13000.00000" pt_clust_8="13000.00000" pt_clust_9="20.79989"></scales>
<clustering>
<clus scale="   20.800">  2  9  1 -1</clus>
<clus scale="   91.490">  7  8 -1 -1</clus>
<clus scale="   91.690">  1  7  2 -1</clus>
<clus scale="   93.549">  5  6 -1 -1</clus>
<clus scale="   20.800">  2  5  1 -1</clus>
</clustering>
</event>
<event>
 9    1  0.9000149E-006  0.9539444E+02  0.7546771E-02  0.1300218E+00
         -3   -1    0    0    0  501 -0.00000000000E+00  0.00000000000E+00  0.13627607194E+03  0.13627607194E+03  0.00000000000E+00 0.  1.
          3   -1    0    0  502    0  0.00000000000E+00 -0.00000000000E+00 -0.19213141919E+03  0.19213141919E+03  0.00000000000E+00 0. -1.
         23    2    1    2    0    0  0.19143733842E+02  0.13675999289E+02  0.75508186847E+02  0.10790026565E+03  0.73399356572E+02 0.  0.
         23    2    1    2    0    0 -0.38373224083E+02 -0.47553851215E+02 -0.32041709432E+02  0.11381933020E+03  0.90522349126E+02 0.  0.
        -11    1    3    3    0    0  0.34363456820E+02  0.32221512087E+02  0.68073934556E+02  0.82783655221E+02  0.00000000000E+00 0. -1.
         11    1    3    3    0    0 -0.15219722978E+02 -0.18545512799E+02  0.74342522909E+01  0.25116610433E+02  0.00000000000E+00 0.  1.
        -13    1    4    4    0    0 -0.21566961936E+01 -0.32381365952E+02  0.27471673535E+02  0.42519372599E+02  0.00000000000E+00 0.  1.
         13    1    4    4    0    0 -0.36216527890E+02 -0.15172485263E+02 -0.59513382966E+02  0.71299957599E+02  0.00000000000E+00 0. -1.
         21    1    1    2  502  501  0.19229490241E+02  0.33877851927E+02 -0.99321824656E+02  0.10668789528E+03  0.00000000000E+00 0. -1.
<scales pt_clust_5="13000.00000" pt_clust_6="13000.00000" pt_clust_7="13000.00000" pt_clust_8="13000.00000" pt_clust_9="38.95487"></scales>
<clustering>
<clus scale="   38.955">  2  9  1 -1</clus>
<clus scale="   73.399">  5  6 -1 -1</clus>
<clus scale="   79.330">  1  5  2 -1</clus>
<clus scale="   90.522">  7  8 -1 -1</clus>
<clus scale="   38.955">  2  5  1 -1</clus>
</clustering>
</event>
<event>
 9    1  0.9000149E-006  0.1088953E+03  0.7546771E-02  0.1265206E+00
         -1   -1    0    0    0  501 -0.00000000000E+00  0.00000000000E+00  0.73027508286E+03  0.73027508286E+03  0.00000000000E+00 0.  1.
          1   -1    0    0  502    0  0.00000000000E+00 -0.00000000000E+00 -0.50823235441E+02  0.50823235441E+02  0.00000000000E+00 0. -1.
         23    2    1    2    0    0  0.18307802276E+02  0.61499155195E+02  0.50421257938E+03  0.51692881935E+03  0.94168770591E+02 0.  0.
         23    2    1    2    0    0  0.10304671498E+02 -0.40927450557E+02  0.19903373197E+03  0.22164838418E+03  0.87933709592E+02 0.  0.
        -11    1    3    3    0    0  0.48351578161E+02  0.11409333193E+02  0.15218536543E+03  0.16008882986E+03  0.00000000000E+00 0. -1.
         11    1    3    3    0    0 -0.30043775886E+02  0.50089822002E+02  0.35202721395E+03  0.35683998949E+03  0.00000000000E+00 0.  1.
        -13    1    4    4    0    0 -0.77948293733E+01 -0.65787787783E+02  0.12470170758E+03  0.14120661550E+03  0.00000000000E+00 0.  1.
         13    1    4    4    0    0  0.18099500872E+02  0.24860337226E+02  0.74332024384E+02  0.80441768677E+02  0.00000000000E+00 0. -1.
         21    1    1    2  502  501 -0.28612473774E+02 -0.20571704639E+02 -0.23794463937E+02  0.42521114769E+02  0.00000000000E+00 0. -1.
<scales pt_clust_5="13000.00000" pt_clust_6="13000.00000" pt_clust_7="13000.00000" pt_clust_8="13000.00000" pt_clust_9="35.24016"></scales>
<clustering>
<clus scale="   35.240">  2  9  1 -1</clus>
<clus scale="   87.934">  7  8 -1 -1</clus>
<clus scale="   94.169">  5  6 -1 -1</clus>
<clus scale="  103.551">  2  7  1 -1</clus>
<clus scale="   35.240">  2  5  1 -1</clus>
</clustering>
</event>
<event>
 9    1  0.9000149E-006  0.2048300E+03  0.7546771E-02  0.1146203E+00
         -1   -1    0    0    0  501 -0.00000000000E+00  0.00000000000E+00  0.11107257673E+03  0.11107257673E+03  0.00000000000E+00 0.  1.
          1   -1    0    0  502    0  0.00000000000E+00 -0.00000000000E+00 -0.12006038667E+04  0.12006038667E+04  0.00000000000E+00 0. -1.
         23    2    1    2    0    0  0.15446334830E+03  0.98673575889E+02 -0.97977107207E+01  0.20575825458E+03  0.92978834387E+02 0.  0.
         23    2    1    2    0    0 -0.16792483573E+03 -0.63786481068E+02 -0.85249981064E+03  0.87562813996E+03  0.87756747418E+02 0.  0.
        -11    1    4    4    0    0 -0.13786065046E+03 -0.99261495234E+01 -0.58351435057E+03  0.59966080805E+03  0.00000000000E+00 0. -1.
         11    1    4    4    0    0 -0.30064185276E+02 -0.53860331545E+02 -0.26898546008E+03  0.27596733191E+03  0.00000000000E+00 0.  1.
        -11    1    3    3    0    0  0.57054020722E+02  0.54377564928E+00  0.26344052768E+02  0.62844777736E+02  0.00000000000E+00 0. -1.
         11    1    3    3    0    0  0.97409327578E+02  0.98129800240E+02 -0.36141763489E+02  0.14291347684E+03  0.00000000000E+00 0.  1.
         21    1    1    2  502  501  0.13461487432E+02 -0.34887094821E+02 -0.22723376859E+03  0.23029004889E+03  0.00000000000E+00 0. -1.
<scales pt_clust_5="13000.00000" pt_clust_6="13000.00000" pt_clust_7="13000.00000" pt_clust_8="13000.00000" pt_clust_9="37.39413"></scales>
<clustering>
<clus scale="   37.394">  2  9  1 -1</clus>
<clus scale="   87.757">  5  6 -1 -1</clus>
<clus scale="   92.979">  7  8 -1 -1</clus>
<clus scale="  202.513">  2  5  1 -1</clus>
<clus scale="   37.394">  2  5  1 -1</clus>
</clustering>
</event>
<event>
 9    1  0.9000149E-006  0.1499677E+03  0.7546771E-02  0.1201010E+00
          2   -1    0    0  502    0  0.00000000000E+00  0.00000000000E+00  0.40230410303E+03  0.40230410303E+03  0.00000000000E+00 0. -1.
         -2   -1    0    0    0  501 -0.00000000000E+00 -0.00000000000E+00 -0.72015889389E+02  0.72015889389E+02  0.00000000000E+00 0.  1.
         23    2    1    2    0    0 -0.81327599701E+02 -0.63972032942E+02  0.14789289856E+03  0.20388318127E+03  0.94812671556E+02 0.  0.
         23    2    1    2    0    0  0.79944156079E+02  0.10318868606E+03  0.13783303989E+03  0.21105957504E+03  0.92245456837E+02 0.  0.
        -11    1    4    4    0    0  0.62218749532E+02  0.77229797728E+02  0.37683015155E+02  0.10609252604E+03  0.00000000000E+00 0.  1.
         11    1    4    4    0    0  0.17725406547E+02  0.25958888336E+02  0.10015002473E+03  0.10496704900E+03  0.00000000000E+00 0. -1.
        -13    1    3    3    0    0 -0.64047999956E+02 -0.85756106770E+02  0.90722647799E+02  0.14030985343E+03  0.00000000000E+00 0. -1.
         13    1    3    3    0    0 -0.17279599745E+02  0.21784073828E+02  0.57170250763E+02  0.63573327837E+02  0.00000000000E+00 0.  1.
         21    1    1    2  502  501  0.13834436225E+01 -0.39216653122E+02  0.44562275194E+02  0.59377236116E+02  0.00000000000E+00 0. -1.
<scales pt_clust_5="13000.00000" pt_clust_6="13000.00000" pt_clust_7="13000.00000" pt_clust_8="13000.00000" pt_clust_9="39.24105"></scales>
<clustering>
<clus scale="   39.241">  1  9  2 -1</clus>
<clus scale="   92.245">  5  6 -1 -1</clus>
<clus scale="   94.813">  7  8 -1 -1</clus>
<clus scale="  148.358">  1  5  2 -1</clus>
<clus scale="   39.241">  1  5  2 -1</clus>
</clustering>
</event>
<event>
 9    1  0.9000149E-006  0.1180216E+03  0.7546771E-02  0.1247705E+00
          1   -1    0    0  502    0  0.00000000000E+00  0.00000000000E+00  0.15940259029E+03  0.15940259029E+03  0.00000000000E+00 0. -1.
         -1   -1    0    0    0  501 -0.00000000000E+00 -0.00000000000E+00 -0.17662172377E+03  0.17662172377E+03  0.00000000000E+00 0.  1.
         23    2    1    2    0    0  0.65118544645E+01 -0.59839180439E+02 -0.75103307543E+02  0.13486262912E+03  0.94468461218E+02 0.  0.
         23    2    1    2    0    0 -0.44111487693E+02  0.96764629599E+02  0.37546751561E+02  0.14467423529E+03  0.90618204103E+02 0.  0.
        -11    1    3    3    0    0 -0.27701471511E+02 -0.69034325942E+02 -0.37878005439E+02  0.83473666376E+02  0.00000000000E+00 0.  1.
         11    1    3    3    0    0  0.34213325976E+02  0.91951455028E+01 -0.37225302103E+02  0.51388962743E+02  0.00000000000E+00 0. -1.
        -13    1    4    4    0    0 -0.27346839084E+02 -0.38376339840E+01 -0.13370175918E+02  0.30681242585E+02  0.00000000000E+00 0.  1.
         13    1    4    4    0    0 -0.16764648608E+02  0.10060226358E+03  0.50916927479E+02  0.11399299270E+03  0.00000000000E+00 0. -1.
         21    1    1    2  502  501  0.37599633228E+02 -0.36925449160E+02  0.20337422499E+02  0.56487449654E+02  0.00000000000E+00 0. -1.
<scales pt_clust_5="13000.00000" pt_clust_6="13000.00000" pt_clust_7="13000.00000" pt_clust_8="13000.00000" pt_clust_9="52.69935"></scales>
<clustering>
<clus scale="   52.699">  1  9  2 -1</clus>
<clus scale="   90.618">  7  8 -1 -1</clus>
<clus scale="   94.468">  5  6 -1 -1</clus>
<clus scale="  114.963">  1  7  2 -1</clus>
<clus scale="   52.699">  1  5  2 -1</clus>
</clustering>
</event>
<event>
 9    1  0.9000149E-006  0.1036187E+03  0.7546771E-02  0.1273660E+00
          3   -1    0    0  502    0  0.00000000000E+00  0.00000000000E+00  0.73149873765E+02  0.73149873765E+02  0.00000000000E+00 0. -1.
         -3   -1    0    0    0  501 -0.00000000000E+00 -0.00000000000E+00 -0.30241649731E+03  0.30241649731E+03  0.00000000000E+00 0.  1.
         23    2    1    2    0    0 -0.47101246398E+02 -0.55815743350E+01 -0.22754772518E+03  0.24973509902E+03  0.91323442039E+02 0.  0.
         23    2    1    2    0    0  0.37137514691E+02 -0.12470462659E+02  0.11035289891E+02  0.10158624561E+03  0.93076743806E+02 0.  0.
        -11    1    4    4    0    0 -0.28257978571E+01  0.30428437238E+02 -0.18721266024E+02  0.35837978847E+02  0.00000000000E+00 0.  1.
         11    1    4    4    0    0  0.39963312548E+02 -0.42898899897E+02  0.29756555915E+02  0.65748266761E+02  0.00000000000E+00 0. -1.
        -13    1    3    3    0    0  0.18759710373E+02 -0.19073722293E+02 -0.26141247134E+02  0.37404524019E+02  0.00000000000E+00 0. -1.
         13    1    3    3    0    0 -0.65860956771E+02  0.13492147958E+02 -0.20140647804E+03  0.21233057500E+03  0.00000000000E+00 0.  1.
         21    1    1    2  502  501  0.99637317073E+01  0.18052036994E+02 -0.12754188260E+02  0.24245026445E+02  0.00000000000E+00 0. -1.
<scales pt_clust_5="13000.00000" pt_clust_6="13000.00000" pt_clust_7="13000.00000" pt_clust_8="13000.00000" pt_clust_9="20.61921"></scales>
<clustering>
<clus scale="   20.619">  1  9  2 -1</clus>
<clus scale="   91.323">  7  8 -1 -1</clus>
<clus scale="   93.077">  5  6 -1 -1</clus>
<clus scale="  102.047">  2  7  1 -1</clus>
<clus scale="   20.619">  1  5  2 -1</clus>
</clustering>
</event>
<event>
 9    1  0.9000149E-006  0.1442430E+03  0.7546771E-02  0.1208129E+00
         -2   -1    0    0    0  501 -0.00000000000E+00  0.00000000000E+00  0.31896616154E+03  0.31896616154E+03  0.00000000000E+00 0.  1.
          2   -1    0    0  502    0  0.00000000000E+00 -0.00000000000E+00 -0.35938896596E+03  0.35938896596E+03  0.00000000000E+00 0. -1.
         23    2    1    2    0    0  0.69527417079E+01  0.92459789682E+02  0.15905699755E+03  0.20420523285E+03  0.88337394842E+02 0.  0.
         23    2    1    2    0    0 -0.31272022632E+02 -0.18228155483E+03  0.46633226579E+02  0.21103205082E+03  0.90307054117E+02 0.  0.
        -11    1    4    4    0    0  0.12855268534E+02 -0.52828403528E+02  0.50507300535E+02  0.74209740302E+02  0.00000000000E+00 0.  1.
         11    1    4    4    0    0 -0.44127291166E+02 -0.12945315130E+03 -0.38740739563E+01  0.13682231052E+03  0.00000000000E+00 0. -1.
        -13    1    3    3    0    0  0.26514820510E+02 -0.51620300967E+01  0.47795870420E+02  0.54901070032E+02  0.00000000000E+00 0. -1.
         13    1    3    3    0    0 -0.19562078802E+02  0.97621819779E+02  0.11126112713E+03  0.14930416282E+03  0.00000000000E+00 0.  1.
         21    1    1    2  502  501  0.24319280924E+02  0.89821765144E+02 -0.24611302855E+03  0.26311784383E+03  0.00000000000E+00 0. -1.
<scales pt_clust_5="13000.00000" pt_clust_6="13000.00000" pt_clust_7="13000.00000" pt_clust_8="13000.00000" pt_clust_9="93.05577"></scales>
<clustering>
<clus scale="   88.337">  7  8 -1 -1</clus>
<clus scale="   90.307">  5  6 -1 -1</clus>
<clus scale="   93.056">  2  9  1 -1</clus>
<clus scale="  143.018">  1  7  2 -1</clus>
<clus scale="   93.056">  2  5  1 -1</clus>
</clustering>
</event>
<event>
 9    1  0.9000149E-006  0.2415376E+03  0.7546771E-02  0.1150300E+00
         -1   -1    0    0    0  501 -0.00000000000E+00  0.00000000000E+00  0.46748964336E+03  0.46748964336E+03  0.00000000000E+00 0.  1.
          1   -1    0    0  502    0  0.00000000000E+00 -0.00000000000E+00 -0.73242798091E+03  0.73242798091E+03  0.00000000000E+00 0. -1.
         23    2    1    2    0    0 -0.34702015127E+02  0.56743033792E+02  0.31582608526E+03  0.33511216047E+03  0.90166746779E+02 0.  0.
         23    2    1    2    0    0 -0.20109319478E+03  0.73973776543E+02 -0.54498374972E+03  0.59283759421E+03  0.92404183060E+02 0.  0.
        -11    1    4    4    0    0 -0.91623681692E+02  0.56739543157E+02 -0.37288460660E+03  0.38814585486E+03  0.00000000000E+00 0. -1.
         11    1    4    4    0    0 -0.10946951309E+03  0.17234233385E+02 -0.17209914312E+03  0.20469173935E+03  0.00000000000E+00 0.  1.
        -13    1    3    3    0    0 -0.38156287382E+01 -0.22829555806E+02  0.38244922879E+02  0.44703710886E+02  0.00000000000E+00 0. -1.
         13    1    3    3    0    0 -0.30886386389E+02  0.79572589598E+02  0.27758116238E+03  0.29040844958E+03  0.00000000000E+00 0.  1.
         21    1    1    2  502  501  0.23579520991E+03 -0.13071681033E+03 -0.35780673094E+02  0.27196786959E+03  0.00000000000E+00 0.  1.
<scales pt_clust_5="13000.00000" pt_clust_6="13000.00000" pt_clust_7="13000.00000" pt_clust_8="13000.00000" pt_clust_9="223.16331"></scales>
<clustering>
<clus scale="   90.167">  7  8 -1 -1</clus>
<clus scale="   92.404">  5  6 -1 -1</clus>
<clus scale="  112.045">  1  7  2 -1</clus>
<clus scale="  223.163">  1  9  2 -1</clus>
<clus scale="  241.538">  2  5  1 -1</clus>
</clustering>
</event>
<event>
 9    1  0.9000149E-006  0.1007018E+03  0.7546771E-02  0.1279722E+00
         -1   -1    0    0    0  501 -0.00000000000E+00  0.00000000000E+00  0.11945643712E+03  0.11945643712E+03  0.00000000000E+00 0.  1.
          1   -1    0    0  502    0  0.00000000000E+00 -0.00000000000E+00 -0.15849378007E+03  0.15849378007E+03  0.00000000000E+00 0. -1.
         23    2    1    2    0    0 -0.39575064859E+02  0.93823184514E+01  0.55308206749E+02  0.11364488455E+03  0.90564608946E+02 0.  0.
         23    2    1    2    0    0  0.27979237040E+02 -0.35548072599E+02 -0.58263692682E+02  0.11825090484E+03  0.92423565395E+02 0.  0.
        -11    1    4    4    0    0 -0.13555662412E+02 -0.53998199718E+02 -0.42868932550E+02  0.70265972805E+02  0.00000000000E+00 0. -1.
         11    1    4    4    0    0  0.41534899452E+02  0.18450127119E+02 -0.15394760132E+02  0.47984932038E+02  0.00000000000E+00 0.  1.
        -11    1    3    3    0    0 -0.17826022666E+02 -0.34617365568E+02 -0.99714559386E+00  0.38950268064E+02  0.00000000000E+00 0. -1.
         11    1    3    3    0    0 -0.21749042193E+02  0.43999684019E+02  0.56305352343E+02  0.74694616490E+02  0.00000000000E+00 0.  1.
         21    1    1    2  502  501  0.11595827819E+02  0.26165754148E+02 -0.36081857025E+02  0.46054427792E+02  0.00000000000E+00 0.  1.
<scales pt_clust_5="13000.00000" pt_clust_6="13000.00000" pt_clust_7="13000.00000" pt_clust_8="13000.00000" pt_clust_9="28.62010"></scales>
<clustering>
<clus scale="   28.620">  2  9  1 -1</clus>
<clus scale="   90.565">  7  8 -1 -1</clus>
<clus scale="   92.424">  5  6 -1 -1</clus>
<clus scale="   98.998">  1  7  2 -1</clus>
<clus scale="   28.620">  2  5  1 -1</clus>
</clustering>
</event>
<event>
 9    1  0.9000149E-006  0.1048719E+03  0.7546771E-02  0.1273985E+00
          1   -1    0    0  502    0  0.00000000000E+00  0.00000000000E+00  0.64565007558E+02  0.64565007558E+02  0.00000000000E+00 0. -1.
         -1   -1    0    0    0  501 -0.00000000000E+00 -0.00000000000E+00 -0.42998940165E+03  0.42998940165E+03  0.00000000000E+00 0.  1.
         23    2    1    2    0    0 -0.53629462132E+01  0.36238763186E+02 -0.32613227677E+03  0.34103329632E+03  0.92733155315E+02 0.  0.
         23    2    1    2    0    0 -0.16742113907E+02  0.63303135034E+00 -0.11168403735E+02  0.10214888128E+03  0.10014470329E+03 0.  0.
        -11    1    3    3    0    0  0.26504425758E+02 -0.18804662311E+02 -0.70857594179E+02  0.77954464671E+02  0.00000000000E+00 0. -1.
         11    1    3    3    0    0 -0.31867371971E+02  0.55043425497E+02 -0.25527468260E+03  0.26307883165E+03  0.00000000000E+00 0.  1.
        -13    1    4    4    0    0  0.37686351087E+02  0.19866991832E+02 -0.12527079600E+02  0.44405924672E+02  0.00000000000E+00 0.  1.
         13    1    4    4    0    0 -0.54428464993E+02 -0.19233960481E+02  0.13586758653E+01  0.57742956604E+02  0.00000000000E+00 0. -1.
         21    1    1    2  502  501  0.22105060120E+02 -0.36871794536E+02 -0.28123713583E+02  0.51372231613E+02  0.00000000000E+00 0. -1.
<scales pt_clust_5="13000.00000" pt_clust_6="13000.00000" pt_clust_7="13000.00000" pt_clust_8="13000.00000" pt_clust_9="42.99027"></scales>
<clustering>
<clus scale="   42.990">  1  9  2 -1</clus>
<clus scale="   92.733">  5  6 -1 -1</clus>
<clus scale="   97.819">  2  5  1 -1</clus>
<clus scale="  100.145">  7  8 -1 -1</clus>
<clus scale="   42.990">  1  5  2 -1</clus>
</clustering>
</event>
<event>
 9    1  0.9000149E-006  0.9290400E+02  0.7546771E-02  0.1299774E+00
         -1   -1    0    0    0  501 -0.00000000000E+00  0.00000000000E+00  0.75674679960E+02  0.75674679960E+02  0.00000000000E+00 0.  1.
          1   -1    0    0  502    0  0.00000000000E+00 -0.00000000000E+00 -0.43141765136E+03  0.43141765136E+03  0.00000000000E+00 0. -1.
         23    2    1    2    0    0  0.61677524168E+01  0.89717010356E+01  0.28707502207E+02  0.97194914078E+02  0.92218208887E+02 0.  0.
         23    2    1    2    0    0  0.30066226394E+02 -0.24918177022E+02 -0.19833486086E+03  0.21961811562E+03  0.85851652061E+02 0.  0.
        -11    1    4    4    0    0  0.32096906044E+01 -0.54305566110E+02 -0.11959337796E+03  0.13138482666E+03  0.00000000000E+00 0.  1.
         11    1    4    4    0    0  0.26856535789E+02  0.29387389088E+02 -0.78741482896E+02  0.88233288960E+02  0.00000000000E+00 0. -1.
        -13    1    3    3    0    0  0.21956032692E+02 -0.33635460653E+02  0.32401257671E+02  0.51606715489E+02  0.00000000000E+00 0.  1.
         13    1    3    3    0    0 -0.15788280275E+02  0.42607161689E+02 -0.36937554638E+01  0.45588198590E+02  0.00000000000E+00 0. -1.
         21    1    1    2  502  501 -0.36233978811E+02  0.15946475987E+02 -0.18611561275E+03  0.19027930162E+03  0.00000000000E+00 0. -1.
<scales pt_clust_5="13000.00000" pt_clust_6="13000.00000" pt_clust_7="13000.00000" pt_clust_8="13000.00000" pt_clust_9="39.58777"></scales>
<clustering>
<clus scale="   39.588">  2  9  1 -1</clus>
<clus scale="   85.852">  5  6 -1 -1</clus>
<clus scale="   86.588">  2  5  1 -1</clus>
<clus scale="   92.218">  7  8 -1 -1</clus>
<clus scale="   39.588">  2  5  1 -1</clus>
</clustering>
</event>
<event>
 9    1  0.9000149E-006  0.1005534E+03  0.7546771E-02  0.1282929E+00
         -1   -1    0    0    0  501 -0.00000000000E+00  0.00000000000E+00  0.16175212259E+03  0.16175212259E+03  0.00000000000E+00 0.  1.
          1   -1    0    0  502    0  0.00000000000E+00 -0.00000000000E+00 -0.75417167333E+02  0.75417167333E+02  0.00000000000E+00 0. -1.
         23    2    1    2    0    0 -0.87123300394E+01  0.31497358001E+02  0.45707087289E+02  0.10534880227E+03  0.89113658078E+02 0.  0.
         23    2    1    2    0    0  0.25864393588E+02 -0.14051438530E+02  0.30409104474E+02  0.10530678332E+03  0.96428186739E+02 0.  0.
        -11    1    4    4    0    0 -0.20277679331E+02 -0.28370398499E+02 -0.15952480107E+02  0.38347691086E+02  0.00000000000E+00 0. -1.
         11    1    4    4    0    0  0.46142072919E+02  0.14318959969E+02  0.46361584582E+02  0.66959092234E+02  0.00000000000E+00 0.  1.
        -11    1    3    3    0    0 -0.12669353482E+02  0.53893628103E+02  0.57423387500E+02  0.79765162194E+02  0.00000000000E+00 0.  1.
         11    1    3    3    0    0  0.39570234423E+01 -0.22396270102E+02 -0.11716300211E+02  0.25583640079E+02  0.00000000000E+00 0. -1.
         21    1    1    2  502  501 -0.17152063548E+02 -0.17445919470E+02  0.10218763498E+02  0.26513704335E+02  0.00000000000E+00 0.  1.
<scales pt_clust_5="13000.00000" pt_clust_6="13000.00000" pt_clust_7="13000.00000" pt_clust_8="13000.00000" pt_clust_9="24.46535"></scales>
<clustering>
<clus scale="   24.465">  1  9  2 -1</clus>
<clus scale="   89.114">  7  8 -1 -1</clus>
<clus scale="   93.562">  1  7  2 -1</clus>
<clus scale="   96.428">  5  6 -1 -1</clus>
<clus scale="  100.553">  2  5  1 -1</clus>
</clustering>
</event>
<event>
 9    1  0.9000149E-006  0.1274931E+03  0.7546771E-02  0.1233428E+00
         -2   -1    0    0    0  501 -0.00000000000E+00  0.00000000000E+00  0.27814064577E+02  0.27814064577E+02  0.00000000000E+00 0.  1.
          2   -1    0    0  502    0  0.00000000000E+00 -0.00000000000E+00 -0.89717689647E+03  0.89717689647E+03  0.00000000000E+00 0. -1.
         23    2    1    2    0    0 -0.68466060521E+02  0.35759596884E+02 -0.26316886965E+03  0.28880674591E+03  0.90471721089E+02 0.  0.
         23    2    1    2    0    0  0.46849481083E+02 -0.85361940117E+02 -0.40836214968E+03  0.43108644572E+03  0.97950720718E+02 0.  0.
        -11    1    3    3    0    0 -0.75703719107E+02  0.57370181650E+02 -0.22679556752E+03  0.24588334689E+03  0.00000000000E+00 0. -1.
         11    1    3    3    0    0  0.72376585866E+01 -0.21610584766E+02 -0.36373302126E+02  0.42923399018E+02  0.00000000000E+00 0.  1.
        -13    1    4    4    0    0  0.28792512607E+02 -0.10644632475E+03 -0.33211673834E+03  0.34994479096E+03  0.00000000000E+00 0.  1.
         13    1    4    4    0    0  0.18056968476E+02  0.21084384632E+02 -0.76245411338E+02  0.81141654752E+02  0.00000000000E+00 0. -1.
         21    1    1    2  502  501  0.21616579438E+02  0.49602343232E+02 -0.19783181256E+03  0.20509776942E+03  0.00000000000E+00 0.  1.
<scales pt_clust_5="13000.00000" pt_clust_6="13000.00000" pt_clust_7="13000.00000" pt_clust_8="13000.00000" pt_clust_9="54.10794"></scales>
<clustering>
<clus scale="   54.108">  2  9  1 -1</clus>
<clus scale="   90.472">  5  6 -1 -1</clus>
<clus scale="   97.951">  7  8 -1 -1</clus>
<clus scale="  121.841">  1  5  2 -1</clus>
<clus scale="   54.108">  2  5  1 -1</clus>
</clustering>
</event>
<event>
 9    1  0.9000149E-006  0.3122199E+03  0.7546771E-02  0.1079485E+00
         -1   -1    0    0    0  501 -0.00000000000E+00  0.00000000000E+00  0.60941495136E+03  0.60941495136E+03  0.00000000000E+00 0.  1.
          1   -1    0    0  502    0  0.00000000000E+00 -0.00000000000E+00 -0.77696451239E+03  0.77696451239E+03  0.00000000000E+00 0. -1.
         23    2    1    2    0    0 -0.74507220465E+02  0.28549213794E+03  0.41598960670E+03  0.51836233727E+03  0.92709617025E+02 0.  0.
         23    2    1    2    0    0  0.46066085336E+01 -0.31690290793E+03 -0.54111221996E+02  0.33307163230E+03  0.86948340984E+02 0.  0.
        -11    1    4    4    0    0 -0.16911007083E+02 -0.28541285164E+02  0.13978582287E+02  0.35999831696E+02  0.00000000000E+00 0.  1.
         11    1    4    4    0    0  0.21517615617E+02 -0.28836162277E+03 -0.68089804284E+02  0.29707180061E+03  0.00000000000E+00 0. -1.
        -13    1    3    3    0    0 -0.89724771036E+02  0.25617548283E+03  0.39484241981E+03  0.47914188819E+03  0.00000000000E+00 0.  1.
         13    1    3    3    0    0  0.15217550571E+02  0.29316655116E+02  0.21147186894E+02  0.39220449081E+02  0.00000000000E+00 0. -1.
         21    1    1    2  502  501  0.69900611931E+02  0.31410769991E+02 -0.52942794574E+03  0.53494549418E+03  0.00000000000E+00 0.  1.
<scales pt_clust_5="13000.00000" pt_clust_6="13000.00000" pt_clust_7="13000.00000" pt_clust_8="13000.00000" pt_clust_9="76.63375"></scales>
<clustering>
<clus scale="   76.634">  2  9  1 -1</clus>
<clus scale="   86.948">  5  6 -1 -1</clus>
<clus scale="   92.710">  7  8 -1 -1</clus>
<clus scale="  310.558">  2  5  1 -1</clus>
<clus scale="   76.634">  2  5  1 -1</clus>
</clustering>
</event>
<event>
 9    1  0.9000149E-006  0.9793190E+02  0.7546771E-02  0.1284829E+00
         -2   -1    0    0    0  501 -0.00000000000E+00  0.00000000000E+00  0.93487957822E+02  0.93487957822E+02  0.00000000000E+00 0.  1.
          2   -1    0    0  502    0  0.00000000000E+00 -0.00000000000E+00 -0.20935491266E+03  0.20935491266E+03  0.00000000000E+00 0. -1.
         23    2    1    2    0    0 -0.41642687963E+01  0.29688687244E+02  0.10005892403E+02  0.97250454408E+02  0.91971591890E+02 0.  0.
         23    2    1    2    0    0 -0.15153500800E+02 -0.39133455391E+02 -0.27022086826E+02  0.10442990967E+03  0.91729803988E+02 0.  0.
        -11    1    3    3    0    0  0.18669809738E+02  0.14812764156E+02 -0.36356565013E+02  0.43471595291E+02  0.00000000000E+00 0. -1.
         11    1    3    3    0    0 -0.22834078534E+02  0.14875923088E+02  0.46362457416E+02  0.53778859117E+02  0.00000000000E+00 0.  1.
        -13    1    4    4    0    0 -0.33865016495E+02 -0.18404851763E+02  0.24610089435E+02  0.45730016539E+02  0.00000000000E+00 0.  1.
         13    1    4    4    0    0  0.18711515695E+02 -0.20728603629E+02 -0.51632176261E+02  0.58699893130E+02  0.00000000000E+00 0. -1.
         21    1    1    2  502  501  0.19317769596E+02  0.94447681475E+01 -0.98850760415E+02  0.10116250641E+03  0.00000000000E+00 0. -1.
<scales pt_clust_5="13000.00000" pt_clust_6="13000.00000" pt_clust_7="13000.00000" pt_clust_8="13000.00000" pt_clust_9="21.50302"></scales>
<clustering>
<clus scale="   21.503">  2  9  1 -1</clus>
<clus scale="   91.730">  7  8 -1 -1</clus>
<clus scale="   91.972">  5  6 -1 -1</clus>
<clus scale="   97.705">  2  7  1 -1</clus>
<clus scale="   21.503">  2  5  1 -1</clus>
</clustering>
</event>
<event>
 9    1  0.9000149E-006  0.1778806E+03  0.7546771E-02  0.1169978E+00
          2   -1    0    0  502    0  0.00000000000E+00  0.00000000000E+00  0.47241987505E+03  0.47241987505E+03  0.00000000000E+00 0. -1.
         -2   -1    0    0    0  501 -0.00000000000E+00 -0.00000000000E+00 -0.96694318456E+02  0.96694318456E+02  0.00000000000E+00 0.  1.
         23    2    1    2    0    0  0.14838670360E+03 -0.32470471765E+01  0.55765393961E+02  0.18302441879E+03  0.91427575646E+02 0.  0.
         23    2    1    2    0    0 -0.16332412510E+03 -0.20616012701E+02  0.28062311220E+03  0.33771647915E+03  0.90572067254E+02 0.  0.
        -11    1    3    3    0    0  0.10399343862E+03 -0.35150297929E+02  0.73827782019E+01  0.11002128946E+03  0.00000000000E+00 0.  1.
         11    1    3    3    0    0  0.44393264984E+02  0.31903250753E+02  0.48382615759E+02  0.73003129332E+02  0.00000000000E+00 0. -1.
        -13    1    4    4    0    0 -0.14263587158E+03 -0.43199149097E+02  0.18648267000E+03  0.23871938454E+03  0.00000000000E+00 0.  1.
         13    1    4    4    0    0 -0.20688253519E+02  0.22583136396E+02  0.94140442199E+02  0.98997094607E+02  0.00000000000E+00 0. -1.
         21    1    1    2  502  501  0.14937421498E+02  0.23863059878E+02  0.39337050430E+02  0.48373295570E+02  0.00000000000E+00 0.  1.
<scales pt_clust_5="13000.00000" pt_clust_6="13000.00000" pt_clust_7="13000.00000" pt_clust_8="13000.00000" pt_clust_9="28.15266"></scales>
<clustering>
<clus scale="   28.153">  1  9  2 -1</clus>
<clus scale="   90.572">  7  8 -1 -1</clus>
<clus scale="   91.428">  5  6 -1 -1</clus>
<clus scale="  177.442">  1  7  2 -1</clus>
<clus scale="   28.153">  1  5  2 -1</clus>
</clustering>
</event>
<event>
 9    1  0.9000149E-006  0.1127062E+03  0.7546771E-02  0.1256044E+00
         -1   -1    0    0    0  501 -0.00000000000E+00  0.00000000000E+00  0.24168701742E+03  0.24168701742E+03  0.00000000000E+00 0.  1.
          1   -1    0    0  502    0  0.00000000000E+00 -0.00000000000E+00 -0.79638989236E+02  0.79638989236E+02  0.00000000000E+00 0. -1.
         23    2    1    2    0    0  0.10787601949E+02 -0.51247091992E+02  0.74369609254E+02  0.12862921590E+03  0.90950533863E+02 0.  0.
         23    2    1    2    0    0 -0.34774549493E+02  0.74970458113E+02  0.98943254434E+02  0.15712899252E+03  0.89832698999E+02 0.  0.
        -13    1    3    3    0    0 -0.24536755292E+02 -0.59370984462E+02  0.28799060743E+02  0.70401364021E+02  0.00000000000E+00 0.  1.
         13    1    3    3    0    0  0.35324357241E+02  0.81238924707E+01  0.45570548511E+02  0.58227851883E+02  0.00000000000E+00 0. -1.
        -13    1    4    4    0    0 -0.65306646540E+02  0.55240066381E+02  0.65516153062E+02  0.10774409185E+03  0.00000000000E+00 0.  1.
         13    1    4    4    0    0  0.30532097047E+02  0.19730391732E+02  0.33427101372E+02  0.49384900670E+02  0.00000000000E+00 0. -1.
         21    1    1    2  502  501  0.23986947544E+02 -0.23723366121E+02 -0.11264835501E+02  0.35567798238E+02  0.00000000000E+00 0. -1.
<scales pt_clust_5="13000.00000" pt_clust_6="13000.00000" pt_clust_7="13000.00000" pt_clust_8="13000.00000" pt_clust_9="33.73680"></scales>
<clustering>
<clus scale="   33.737">  2  9  1 -1</clus>
<clus scale="   89.833">  7  8 -1 -1</clus>
<clus scale="   90.951">  5  6 -1 -1</clus>
<clus scale="  111.806">  2  7  1 -1</clus>
<clus scale="   33.737">  2  5  1 -1</clus>
</clustering>
</event>
<event>
 9    1  0.9000149E-006  0.9459604E+02  0.7546771E-02  0.1292160E+00
          3   -1    0    0  502    0  0.00000000000E+00  0.00000000000E+00  0.21871003398E+03  0.21871003398E+03  0.00000000000E+00 0. -1.
         -3   -1    0    0    0  501 -0.00000000000E+00 -0.00000000000E+00 -0.88517879460E+02  0.88517879460E+02  0.00000000000E+00 0.  1.
         23    2    1    2    0    0  0.29145198794E+02 -0.31515099843E+01 -0.21306208559E+02  0.96313890179E+02  0.89235846443E+02 0.  0.
         23    2    1    2    0    0 -0.29790721724E+02  0.25341429485E+02  0.55194441738E+02  0.11208460207E+03  0.89369214347E+02 0.  0.
        -13    1    4    4    0    0 -0.60098992948E+01 -0.28107257263E+02 -0.38116581737E+01  0.28994232848E+02  0.00000000000E+00 0.  1.
         13    1    4    4    0    0 -0.23780822429E+02  0.53448686748E+02  0.59006099912E+02  0.83090369221E+02  0.00000000000E+00 0. -1.
        -13    1    3    3    0    0  0.37431981482E+02 -0.39877626096E+02 -0.21216264117E+02  0.58664368775E+02  0.00000000000E+00 0.  1.
         13    1    3    3    0    0 -0.82867826884E+01  0.36726116112E+02 -0.89944442560E-01  0.37649521404E+02  0.00000000000E+00 0. -1.
         21    1    1    2  502  501  0.64552293008E+00 -0.22189919500E+02  0.96303921345E+02  0.98829421195E+02  0.00000000000E+00 0. -1.
<scales pt_clust_5="13000.00000" pt_clust_6="13000.00000" pt_clust_7="13000.00000" pt_clust_8="13000.00000" pt_clust_9="22.19931"></scales>
<clustering>
<clus scale="   22.199">  1  9  2 -1</clus>
<clus scale="   89.236">  7  8 -1 -1</clus>
<clus scale="   89.369">  5  6 -1 -1</clus>
<clus scale="   94.470">  2  7  1 -1</clus>
<clus scale="   22.199">  1  5  2 -1</clus>
</clustering>
</event>
<event>
 9    1  0.9000149E-006  0.1025804E+03  0.7546771E-02  0.1277162E+00
          1   -1    0    0  502    0  0.00000000000E+00  0.00000000000E+00  0.47489067406E+03  0.47489067406E+03  0.00000000000E+00 0. -1.
         -1   -1    0    0    0  501 -0.00000000000E+00 -0.00000000000E+00 -0.61986173666E+02  0.61986173666E+02  0.00000000000E+00 0.  1.
         23    2    1    2    0    0  0.48774243523E+02 -0.10047881788E+02 -0.43308139068E+01  0.10355841828E+03  0.90695663002E+02 0.  0.
         23    2    1    2    0    0 -0.31676374559E+02  0.22629213493E+02  0.31084358667E+03  0.32482959712E+03  0.85878156628E+02 0.  0.
        -11    1    4    4    0    0  0.16008624419E+02  0.40222266643E+02  0.15278979644E+03  0.15880437238E+03  0.00000000000E+00 0.  1.
         11    1    4    4    0    0 -0.47684998977E+02 -0.17593053150E+02  0.15805379023E+03  0.16602522475E+03  0.00000000000E+00 0. -1.
        -11    1    3    3    0    0  0.92387716842E+01  0.39154050402E+02 -0.41236203857E+01  0.40440064418E+02  0.00000000000E+00 0.  1.
         11    1    3    3    0    0  0.39535471839E+02 -0.49201932189E+02 -0.20719352113E+00  0.63118353859E+02  0.00000000000E+00 0. -1.
         21    1    1    2  502  501 -0.17097868965E+02 -0.12581331706E+02  0.10639172764E+03  0.10848883233E+03  0.00000000000E+00 0.  1.
<scales pt_clust_5="13000.00000" pt_clust_6="13000.00000" pt_clust_7="13000.00000" pt_clust_8="13000.00000" pt_clust_9="21.22798"></scales>
<clustering>
<clus scale="   21.228">  1  9  2 -1</clus>
<clus scale="   85.878">  5  6 -1 -1</clus>
<clus scale="   90.696">  7  8 -1 -1</clus>
<clus scale="   98.347">  1  5  2 -1</clus>
<clus scale="   21.228">  1  5  2 -1</clus>
</clustering>
</event>
<event>
 9    1  0.9000149E-006  0.1118179E+03  0.7546771E-02  0.1258463E+00
          1   -1    0    0  502    0  0.00000000000E+00  0.00000000000E+00  0.53488781082E+03  0.53488781082E+03  0.00000000000E+00 0. -1.
         -1   -1    0    0    0  501 -0.00000000000E+00 -0.00000000000E+00 -0.34678808474E+02  0.34678808474E+02  0.00000000000E+00 0.  1.
         23    2    1    2    0    0 -0.24002317651E+02 -0.66819386325E+02  0.15444205065E+03  0.19435782265E+03  0.94242636703E+02 0.  0.
         23    2    1    2    0    0  0.11600290914E+02  0.47069184781E+02  0.17725744248E+03  0.20509314356E+03  0.91065480385E+02 0.  0.
        -13    1    3    3    0    0  0.26949377086E+02 -0.35790468856E+02  0.23781366215E+02  0.50722578457E+02  0.00000000000E+00 0.  1.
         13    1    3    3    0    0 -0.50951694737E+02 -0.31028917469E+02  0.13066068444E+03  0.14363524419E+03  0.00000000000E+00 0. -1.
        -13    1    4    4    0    0  0.28472530972E+02 -0.19461761188E+02  0.61982290466E+02  0.70931301271E+02  0.00000000000E+00 0.  1.
         13    1    4    4    0    0 -0.16872240058E+02  0.66530945969E+02  0.11527515201E+03  0.13416184229E+03  0.00000000000E+00 0. -1.
         21    1    1    2  502  501  0.12402026737E+02  0.19750201545E+02  0.16850950922E+03  0.17011565309E+03  0.00000000000E+00 0. -1.
<scales pt_clust_5="13000.00000" pt_clust_6="13000.00000" pt_clust_7="13000.00000" pt_clust_8="13000.00000" pt_clust_9="23.32125"></scales>
<clustering>
<clus scale="   23.321">  1  9  2 -1</clus>
<clus scale="   91.065">  7  8 -1 -1</clus>
<clus scale="   94.243">  5  6 -1 -1</clus>
<clus scale="  109.153">  1  7  2 -1</clus>
<clus scale="   23.321">  1  5  2 -1</clus>
</clustering>
</event>
<event>
 9    1  0.9000149E-006  0.1658340E+03  0.7546771E-02  0.1184633E+00
          2   -1    0    0  502    0  0.00000000000E+00  0.00000000000E+00  0.68298515766E+03  0.68298515766E+03  0.00000000000E+00 0. -1.
         -2   -1    0    0    0  501 -0.00000000000E+00 -0.00000000000E+00 -0.92572256190E+02  0.92572256190E+02  0.00000000000E+00 0.  1.
         23    2    1    2    0    0  0.12055292952E+03  0.74764412692E+02  0.33116648933E+02  0.18036188955E+03  0.10635305611E+03 0.  0.
         23    2    1    2    0    0 -0.62699804952E+02 -0.23554100865E+02  0.44126080146E+03  0.45579069667E+03  0.92455411184E+02 0.  0.
        -11    1    4    4    0    0 -0.20880876831E+02  0.35868441539E+02  0.15977644737E+03  0.16507897882E+03  0.00000000000E+00 0.  1.
         11    1    4    4    0    0 -0.41818928121E+02 -0.59422542404E+02  0.28148435409E+03  0.29071171785E+03  0.00000000000E+00 0. -1.
        -13    1    3    3    0    0 -0.45260967137E+01  0.49347357142E+02  0.64757387117E+01  0.49975818155E+02  0.00000000000E+00 0. -1.
         13    1    3    3    0    0  0.12507902623E+03  0.25417055550E+02  0.26640910221E+02  0.13038607139E+03  0.00000000000E+00 0.  1.
         21    1    1    2  502  501 -0.57853124568E+02 -0.51210311827E+02  0.11603545108E+03  0.13940482763E+03  0.00000000000E+00 0. -1.
<scales pt_clust_5="13000.00000" pt_clust_6="13000.00000" pt_clust_7="13000.00000" pt_clust_8="13000.00000" pt_clust_9="77.26241"></scales>
<clustering>
<clus scale="   77.262">  1  9  2 -1</clus>
<clus scale="   92.455">  5  6 -1 -1</clus>
<clus scale="  106.353">  7  8 -1 -1</clus>
<clus scale="  157.283">  1  5  2 -1</clus>
<clus scale="   77.262">  1  5  2 -1</clus>
</clustering>
</event>
<event>
 9    1  0.9000149E-006  0.1337492E+03  0.7546771E-02  0.1237942E+00
         -4   -1    0    0    0  501 -0.00000000000E+00  0.00000000000E+00  0.35405106283E+03  0.35405106283E+03  0.00000000000E+00 0.  1.
          4   -1    0    0  502    0  0.00000000000E+00 -0.00000000000E+00 -0.15814118497E+03  0.15814118497E+03  0.00000000000E+00 0. -1.
         23    2    1    2    0    0 -0.20731673405E+02  0.16527957691E+02  0.18457853847E+03  0.20815424432E+03  0.92498523754E+02 0.  0.
         23    2    1    2    0    0  0.60047324959E+00 -0.11106798019E+03  0.98441272594E+02  0.17391797606E+03  0.90665988420E+02 0.  0.
        -11    1    3    3    0    0 -0.22776814320E+02 -0.35644073377E+02  0.10238951883E+03  0.11078310703E+03  0.00000000000E+00 0.  1.
         11    1    3    3    0    0  0.20451409144E+01  0.52172031068E+02  0.82189019642E+02  0.97371137288E+02  0.00000000000E+00 0. -1.
        -13    1    4    4    0    0 -0.14849867810E+02 -0.76906764242E+02  0.10967995490E+03  0.13477708065E+03  0.00000000000E+00 0.  1.
         13    1    4    4    0    0  0.15450341060E+02 -0.34161215947E+02 -0.11238682309E+02  0.39140895415E+02  0.00000000000E+00 0. -1.
         21    1    1    2  502  501  0.20131200156E+02  0.94540022498E+02 -0.87109933208E+02  0.13012002743E+03  0.00000000000E+00 0. -1.
<scales pt_clust_5="13000.00000" pt_clust_6="13000.00000" pt_clust_7="13000.00000" pt_clust_8="13000.00000" pt_clust_9="98.32864"></scales>
<clustering>
<clus scale="   90.666">  7  8 -1 -1</clus>
<clus scale="   92.499">  5  6 -1 -1</clus>
<clus scale="   96.223">  1  5  2 -1</clus>
<clus scale="   98.329">  2  9  1 -1</clus>
<clus scale="   98.329">  2  5  1 -1</clus>
</clustering>
</event>
<event>
 9    1  0.9000149E-006  0.1209459E+03  0.7546771E-02  0.1248594E+00
          1   -1    0    0  502    0  0.00000000000E+00  0.00000000000E+00  0.40715041497E+02  0.40715041497E+02  0.00000000000E+00 0. -1.
         -1   -1    0    0    0  501 -0.00000000000E+00 -0.00000000000E+00 -0.66157534551E+03  0.66157534551E+03  0.00000000000E+00 0.  1.
         23    2    1    2    0    0  0.17433629275E+02 -0.49933049319E+02 -0.42793807678E+03  0.44516299462E+03  0.11064290927E+03 0.  0.
         23    2    1    2    0    0  0.37917507538E+02  0.46582077375E+02 -0.15303216630E+03  0.18881784459E+03  0.92874685477E+02 0.  0.
        -13    1    4    4    0    0  0.37639164977E+02 -0.15039351905E+02 -0.98568549267E+02  0.10657695694E+03  0.00000000000E+00 0.  1.
         13    1    4    4    0    0  0.27834256086E+00  0.61621429280E+02 -0.54463617031E+02  0.82240887648E+02  0.00000000000E+00 0. -1.
        -13    1    3    3    0    0 -0.14931786819E+02 -0.77344448709E+02 -0.24408984912E+03  0.25648582114E+03  0.00000000000E+00 0.  1.
         13    1    3    3    0    0  0.32365416095E+02  0.27411399390E+02 -0.18384822767E+03  0.18867717348E+03  0.00000000000E+00 0. -1.
         21    1    1    2  502  501 -0.55351136813E+02  0.33509719435E+01 -0.39890060927E+02  0.68309547797E+02  0.00000000000E+00 0. -1.
<scales pt_clust_5="13000.00000" pt_clust_6="13000.00000" pt_clust_7="13000.00000" pt_clust_8="13000.00000" pt_clust_9="55.45248"></scales>
<clustering>
<clus scale="   55.452">  1  9  2 -1</clus>
<clus scale="   92.875">  5  6 -1 -1</clus>
<clus scale="  104.937">  1  5  2 -1</clus>
<clus scale="  110.643">  7  8 -1 -1</clus>
<clus scale="   55.452">  1  5  2 -1</clus>
</clustering>
</event>
<event>
 9    1  0.9000149E-006  0.1046813E+03  0.7546771E-02  0.1273376E+00
          2   -1    0    0  502    0  0.00000000000E+00  0.00000000000E+00  0.11581900898E+03  0.11581900898E+03  0.00000000000E+00 0. -1.
         -2   -1    0    0    0  501 -0.00000000000E+00 -0.00000000000E+00 -0.13790574098E+03  0.13790574098E+03  0.00000000000E+00 0.  1.
         23    2    1    2    0    0  0.30180816179E+02  0.31038066642E+02 -0.55575971779E+02  0.11606413206E+03  0.92238554111E+02 0.  0.
         23    2    1    2    0    0 -0.54588330212E+02 -0.35769584448E+02  0.31535249405E+02  0.11272205178E+03  0.86327516102E+02 0.  0.
        -11    1    3    3    0    0 -0.31943615667E+02 -0.90748613520E+00 -0.15328318667E+02  0.35442565739E+02  0.00000000000E+00 0.  1.
         11    1    3    3    0    0  0.62124431846E+02  0.31945552777E+02 -0.40247653112E+02  0.80621566317E+02  0.00000000000E+00 0. -1.
        -13    1    4    4    0    0 -0.49378166294E+02 -0.60251630401E+02  0.79063487838E+01  0.78300527608E+02  0.00000000000E+00 0.  1.
         13    1    4    4    0    0 -0.52101639183E+01  0.24482045952E+02  0.23628900621E+02  0.34421524177E+02  0.00000000000E+00 0. -1.
         21    1    1    2  502  501  0.24407514034E+02  0.47315178068E+01  0.19539903715E+01  0.24938566126E+02  0.00000000000E+00 0. -1.
<scales pt_clust_5="13000.00000" pt_clust_6="13000.00000" pt_clust_7="13000.00000" pt_clust_8="13000.00000" pt_clust_9="24.86190"></scales>
<clustering>
<clus scale="   24.862">  1  9  2 -1</clus>
<clus scale="   86.328">  7  8 -1 -1</clus>
<clus scale="   92.239">  5  6 -1 -1</clus>
<clus scale="   99.512">  1  7  2 -1</clus>
<clus scale="   24.862">  1  5  2 -1</clus>
</clustering>
</event>
<event>
 9    1  0.9000149E-006  0.1383089E+03  0.7546771E-02  0.1216819E+00
         -1   -1    0    0    0  501 -0.00000000000E+00  0.00000000000E+00  0.78968894475E+02  0.78968894475E+02  0.00000000000E+00 0.  1.
          1   -1    0    0  502    0  0.00000000000E+00 -0.00000000000E+00 -0.73852453861E+03  0.73852453861E+03  0.00000000000E+00 0. -1.
         23    2    1    2    0    0 -0.10185428590E+03  0.23360832932E+02 -0.19596119318E+01  0.13932729507E+03  0.92131596108E+02 0.  0.
         23    2    1    2    0    0  0.63647430708E+02 -0.16629871563E+02 -0.37493695272E+03  0.39285713914E+03  0.97115730932E+02 0.  0.
        -11    1    3    3    0    0 -0.89191970568E+02 -0.21770744976E+02 -0.75521763355E+01  0.92120618311E+02  0.00000000000E+00 0.  1.
         11    1    3    3    0    0 -0.12662315331E+02  0.45131577908E+02  0.55925644037E+01  0.47206676759E+02  0.00000000000E+00 0. -1.
        -13    1    4    4    0    0 -0.22364093282E+02 -0.21654590508E+02 -0.97186795878E+02  0.10205070922E+03  0.00000000000E+00 0.  1.
         13    1    4    4    0    0  0.86011523990E+02  0.50247189456E+01 -0.27775015684E+03  0.29080642992E+03  0.00000000000E+00 0. -1.
         21    1    1    2  502  501  0.38206855191E+02 -0.67309613688E+01 -0.28265907949E+03  0.28530899888E+03  0.00000000000E+00 0. -1.
<scales pt_clust_5="13000.00000" pt_clust_6="13000.00000" pt_clust_7="13000.00000" pt_clust_8="13000.00000" pt_clust_9="38.79523"></scales>
<clustering>
<clus scale="   38.795">  2  9  1 -1</clus>
<clus scale="   92.132">  5  6 -1 -1</clus>
<clus scale="   97.116">  7  8 -1 -1</clus>
<clus scale="  134.856">  1  5  2 -1</clus>
<clus scale="   38.795">  2  5  1 -1</clus>
</clustering>
</event>
<event>
 9    1  0.9000149E-006  0.2264043E+03  0.7546771E-02  0.1163426E+00
         -1   -1    0    0    0  501 -0.00000000000E+00  0.00000000000E+00  0.11458317043E+03  0.11458317043E+03  0.00000000000E+00 0.  1.
          1   -1    0    0  502    0  0.00000000000E+00 -0.00000000000E+00 -0.79053119400E+03  0.79053119400E+03  0.00000000000E+00 0. -1.
         23    2    1    2    0    0 -0.37325766995E+02  0.15049608856E+02 -0.77892573341E+02  0.12680229876E+03  0.91607130616E+02 0.  0.
         23    2    1    2    0    0 -0.94548359319E+02  0.15332250368E+03 -0.81386217831E+02  0.21912779444E+03  0.94583780107E+02 0.  0.
        -11    1    3    3    0    0 -0.60596440945E+02  0.33543488886E+02 -0.45666875552E+02  0.82961182637E+02  0.00000000000E+00 0. -1.
         11    1    3    3    0    0  0.23270673949E+02 -0.18493880030E+02 -0.32225697789E+02  0.43841116120E+02  0.00000000000E+00 0.  1.
        -11    1    4    4    0    0 -0.78732844072E+01  0.20204818412E+02  0.20963633021E+02  0.30161187043E+02  0.00000000000E+00 0.  1.
         11    1    4    4    0    0 -0.86675074912E+02  0.13311768527E+03 -0.10234985085E+03  0.18896660740E+03  0.00000000000E+00 0. -1.
         21    1    1    2  502  501  0.13187412631E+03 -0.16837211254E+03 -0.51666923240E+03  0.55918427122E+03  0.00000000000E+00 0.  1.
<scales pt_clust_5="13000.00000" pt_clust_6="13000.00000" pt_clust_7="13000.00000" pt_clust_8="13000.00000" pt_clust_9="205.70081"></scales>
<clustering>
<clus scale="   91.607">  5  6 -1 -1</clus>
<clus scale="   94.584">  7  8 -1 -1</clus>
<clus scale="  100.058">  1  5  2 -1</clus>
<clus scale="  205.701">  2  9  1 -1</clus>
<clus scale="  205.701">  2  5  1 -1</clus>
</clustering>
</event>
<event>
 9    1  0.9000149E-006  0.1051639E+03  0.7546771E-02  0.1275131E+00
         -1   -1    0    0    0  501 -0.00000000000E+00  0.00000000000E+00  0.55150465129E+02  0.55150465129E+02  0.00000000000E+00 0.  1.
          1   -1    0    0  502    0  0.00000000000E+00 -0.00000000000E+00 -0.35698739653E+03  0.35698739653E+03  0.00000000000E+00 0. -1.
         23    2    1    2    0    0 -0.36153140180E+00  0.12184702615E+02 -0.95295210443E+02  0.14074008179E+03  0.10284938408E+03 0.  0.
         23    2    1    2    0    0  0.25629734525E+02 -0.12987997367E+02 -0.22173695906E+03  0.24190163381E+03  0.92323074356E+02 0.  0.
        -11    1    4    4    0    0 -0.85906948046E+01  0.19928880139E+02 -0.82802711707E+01  0.23227638526E+02  0.00000000000E+00 0.  1.
         11    1    4    4    0    0  0.34220429330E+02 -0.32916877506E+02 -0.21345668789E+03  0.21867399528E+03  0.00000000000E+00 0. -1.
        -13    1    3    3    0    0 -0.11743416258E+02  0.40970894243E+02 -0.10067160109E+03  0.10932197065E+03  0.00000000000E+00 0.  1.
         13    1    3    3    0    0  0.11381884856E+02 -0.28786191627E+02  0.53763906445E+01  0.31418111141E+02  0.00000000000E+00 0. -1.
         21    1    1    2  502  501 -0.25268203124E+02  0.80329475171E+00  0.15195238103E+02  0.29496146063E+02  0.00000000000E+00 0.  1.
<scales pt_clust_5="13000.00000" pt_clust_6="13000.00000" pt_clust_7="13000.00000" pt_clust_8="13000.00000" pt_clust_9="25.28097"></scales>
<clustering>
<clus scale="   25.281">  1  9  2 -1</clus>
<clus scale="   92.323">  5  6 -1 -1</clus>
<clus scale="   94.895">  2  5  1 -1</clus>
<clus scale="  102.849">  7  8 -1 -1</clus>
<clus scale="   94.895">  2  5  1 -1</clus>
</clustering>
</event>
<event>
 9    1  0.9000149E-006  0.1233613E+03  0.7546771E-02  0.1239351E+00
         -1   -1    0    0    0  501 -0.00000000000E+00  0.00000000000E+00  0.12236209039E+03  0.12236209039E+03  0.00000000000E+00 0.  1.
          1   -1    0    0  502    0  0.00000000000E+00 -0.00000000000E+00 -0.42634747899E+03  0.42634747899E+03  0.00000000000E+00 0. -1.
         23    2    1    2    0    0  0.14473149938E+02 -0.84156892023E+02  0.76952755664E+02  0.14223141489E+03  0.83762725803E+02 0.  0.
         23    2    1    2    0    0 -0.32917021774E+02  0.73587419369E+02 -0.32532945837E+03  0.34694483518E+03  0.89626020572E+02 0.  0.
        -11    1    3    3    0    0  0.16620550596E+01 -0.41475810675E+02  0.87138296050E+02  0.96519883634E+02  0.00000000000E+00 0.  1.
         11    1    3    3    0    0  0.12811094878E+02 -0.42681081348E+02 -0.10185540386E+02  0.45711531258E+02  0.00000000000E+00 0. -1.
        -11    1    4    4    0    0 -0.63471985690E+02  0.57445455853E+02 -0.21883190137E+03  0.23498100865E+03  0.00000000000E+00 0.  1.
         11    1    4    4    0    0  0.30554963916E+02  0.16141963517E+02 -0.10649755700E+03  0.11196382654E+03  0.00000000000E+00 0. -1.
         21    1    1    2  502  501  0.18443871836E+02  0.10569472653E+02 -0.55608685894E+02  0.59533319304E+02  0.00000000000E+00 0. -1.
<scales pt_clust_5="13000.00000" pt_clust_6="13000.00000" pt_clust_7="13000.00000" pt_clust_8="13000.00000" pt_clust_9="21.25771"></scales>
<clustering>
<clus scale="   21.258">  2  9  1 -1</clus>
<clus scale="   83.763">  5  6 -1 -1</clus>
<clus scale="   89.626">  7  8 -1 -1</clus>
<clus scale="  119.170">  1  5  2 -1</clus>
<clus scale="   21.258">  2  5  1 -1</clus>
</clustering>
</event>
<event>
 9    1  0.9000149E-006  0.1247151E+03  0.7546771E-02  0.1237953E+00
         -2   -1    0    0    0  501 -0.00000000000E+00  0.00000000000E+00  0.92178515830E+02  0.92178515830E+02  0.00000000000E+00 0.  1.
          2   -1    0    0  502    0  0.00000000000E+00 -0.00000000000E+00 -0.41015258949E+03  0.41015258949E+03  0.00000000000E+00 0. -1.
         23    2    1    2    0    0  0.82180672388E+02 -0.86512732373E+02 -0.24631591573E+02  0.14799720342E+03  0.84013934200E+02 0.  0.
         23    2    1    2    0    0 -0.55606415874E+02  0.53062847041E+02 -0.28700349817E+03  0.31114514578E+03  0.92371827726E+02 0.  0.
        -13    1    3    3    0    0  0.19168165330E+02 -0.60846322599E+02  0.19727621594E+02  0.66774790076E+02  0.00000000000E+00 0. -1.
         13    1    3    3    0    0  0.63012507058E+02 -0.25666409774E+02 -0.44359213168E+02  0.81222413343E+02  0.00000000000E+00 0.  1.
        -13    1    4    4    0    0 -0.10960482185E+02  0.66986162853E+02 -0.21345439918E+03  0.22398673781E+03  0.00000000000E+00 0. -1.
         13    1    4    4    0    0 -0.44645933690E+02 -0.13923315812E+02 -0.73549098990E+02  0.87158407973E+02  0.00000000000E+00 0.  1.
         21    1    1    2  502  501 -0.26574256514E+02  0.33449885333E+02 -0.63389839136E+01  0.43188756119E+02  0.00000000000E+00 0. -1.
<scales pt_clust_5="13000.00000" pt_clust_6="13000.00000" pt_clust_7="13000.00000" pt_clust_8="13000.00000" pt_clust_9="42.72102"></scales>
<clustering>
<clus scale="   42.721">  1  9  2 -1</clus>
<clus scale="   84.014">  5  6 -1 -1</clus>
<clus scale="   92.372">  7  8 -1 -1</clus>
<clus scale="  118.658">  1  5  2 -1</clus>
<clus scale="  124.715">  2  5  1 -1</clus>
</clustering>
</event>
<event>
 9    1  0.1094991E-004  0.1375551E+03  0.7546771E-02  0.1219986E+00
         -1   -1    0    0    0  501 -0.00000000000E+00  0.00000000000E+00  0.36063324034E+03  0.36063324034E+03  0.00000000000E+00 0.  1.
          1   -1    0    0  502    0  0.00000000000E+00 -0.00000000000E+00 -0.75825982755E+03  0.75825982755E+03  0.00000000000E+00 0. -1.
         23    2    1    2    0    0 -0.88766128108E+02  0.18873169054E+02  0.33656108237E+03  0.36396775740E+03  0.10470694462E+03 0.  0.
         23    2    1    2    0    0  0.22064241721E+02 -0.17881829205E+02 -0.56306506990E+03  0.57125966721E+03  0.92134379327E+02 0.  0.
        -11    1    4    4    0    0  0.10844663940E+02 -0.55811432339E+02 -0.33421190197E+03  0.33901344831E+03  0.00000000000E+00 0. -1.
         11    1    4    4    0    0  0.11219577781E+02  0.37929603134E+02 -0.22885316793E+03  0.23224621890E+03  0.00000000000E+00 0.  1.
        -11    1    3    3    0    0 -0.49394336204E+02  0.37393086004E+02  0.30231371276E+03  0.30859621555E+03  0.00000000000E+00 0.  1.
         11    1    3    3    0    0 -0.39371791904E+02 -0.18519916950E+02  0.34247369611E+02  0.55371541850E+02  0.00000000000E+00 0. -1.
         21    1    1    2  502  501  0.66701886387E+02 -0.99133984895E+00 -0.17112259968E+03  0.18366564329E+03  0.00000000000E+00 0. -1.
<scales pt_clust_5="13000.00000" pt_clust_6="13000.00000" pt_clust_7="13000.00000" pt_clust_8="13000.00000" pt_clust_9="66.70925"></scales>
<clustering>
<clus scale="   66.709">  2  9  1 -1</clus>
<clus scale="   92.134">  5  6 -1 -1</clus>
<clus scale="  104.707">  7  8 -1 -1</clus>
<clus scale="  128.244">  2  5  1 -1</clus>
<clus scale="   66.709">  2  5  1 -1</clus>
</clustering>
</event>
<event>
 9    1  0.9000149E-006  0.1064606E+03  0.7546771E-02  0.1268624E+00
          2   -1    0    0  502    0  0.00000000000E+00  0.00000000000E+00  0.17222989415E+03  0.17222989415E+03  0.00000000000E+00 0. -1.
         -2   -1    0    0    0  501 -0.00000000000E+00 -0.00000000000E+00 -0.11598209265E+03  0.11598209265E+03  0.00000000000E+00 0.  1.
         23    2    1    2    0    0  0.41400294017E+02 -0.32514916577E+02 -0.43253566517E+02  0.11295582818E+03  0.90094083931E+02 0.  0.
         23    2    1    2    0    0 -0.51180666837E+02  0.10386666667E+02  0.10565350570E+03  0.15029290693E+03  0.93262806650E+02 0.  0.
        -11    1    3    3    0    0  0.38557791165E+02 -0.93907272658E+01 -0.68147305445E+02  0.78860283143E+02  0.00000000000E+00 0.  1.
         11    1    3    3    0    0  0.28425028523E+01 -0.23124189311E+02  0.24893738928E+02  0.34095545040E+02  0.00000000000E+00 0. -1.
        -13    1    4    4    0    0 -0.24037769432E+02  0.50948406983E+02  0.69992256307E+02  0.89846928029E+02  0.00000000000E+00 0. -1.
         13    1    4    4    0    0 -0.27142897405E+02 -0.40561740315E+02  0.35661249392E+02  0.60445978900E+02  0.00000000000E+00 0.  1.
         21    1    1    2  502  501  0.97803728205E+01  0.22128249910E+02 -0.61521376771E+01  0.24963251683E+02  0.00000000000E+00 0.  1.
<scales pt_clust_5="13000.00000" pt_clust_6="13000.00000" pt_clust_7="13000.00000" pt_clust_8="13000.00000" pt_clust_9="24.19329"></scales>
<clustering>
<clus scale="   24.193">  2  9  1 -1</clus>
<clus scale="   90.094">  5  6 -1 -1</clus>
<clus scale="   93.263">  7  8 -1 -1</clus>
<clus scale="  103.696">  2  5  1 -1</clus>
<clus scale="  106.461">  1  5  2 -1</clus>
</clustering>
</event>
<event>
 9    1  0.9000149E-006  0.1126668E+03  0.7546771E-02  0.1256146E+00
         -2   -1    0    0    0  501 -0.00000000000E+00  0.00000000000E+00  0.15094804637E+03  0.15094804637E+03  0.00000000000E+00 0.  1.
          2   -1    0    0  502    0  0.00000000000E+00 -0.00000000000E+00 -0.21943077457E+03  0.21943077457E+03  0.00000000000E+00 0. -1.
         23    2    1    2    0    0  0.68519946810E+02 -0.17524725283E+02  0.35829201378E+02  0.11977533986E+03  0.89779180549E+02 0.  0.
         23    2    1    2    0    0 -0.63913838180E+02 -0.27415782819E+02  0.21861575153E+02  0.11658624786E+03  0.90982530540E+02 0.  0.
        -11    1    3    3    0    0  0.79257720734E+02 -0.34514095062E+02  0.99631699891E+01  0.87018812966E+02  0.00000000000E+00 0.  1.
         11    1    3    3    0    0 -0.10737773923E+02  0.16989369779E+02  0.25866031389E+02  0.32756526894E+02  0.00000000000E+00 0. -1.
        -11    1    4    4    0    0  0.12611401295E+02 -0.25649625425E+02  0.27720423400E+02  0.39816737693E+02  0.00000000000E+00 0.  1.
         11    1    4    4    0    0 -0.76525239475E+02 -0.17661573940E+01 -0.58588482466E+01  0.76769510167E+02  0.00000000000E+00 0. -1.
         21    1    1    2  502  501 -0.46061086303E+01  0.44940508102E+02 -0.12617350473E+03  0.13401723322E+03  0.00000000000E+00 0. -1.
<scales pt_clust_5="13000.00000" pt_clust_6="13000.00000" pt_clust_7="13000.00000" pt_clust_8="13000.00000" pt_clust_9="45.17594"></scales>
<clustering>
<clus scale="   45.176">  2  9  1 -1</clus>
<clus scale="   89.779">  5  6 -1 -1</clus>
<clus scale="   90.983">  7  8 -1 -1</clus>
<clus scale="  111.697">  1  5  2 -1</clus>
<clus scale="   45.176">  2  5  1 -1</clus>
</clustering>
</event>
<event>
 9    1  0.9000149E-006  0.1207508E+03  0.7546771E-02  0.1241899E+00
         -2   -1    0    0    0  501 -0.00000000000E+00  0.00000000000E+00  0.26321717601E+03  0.26321717601E+03  0.00000000000E+00 0.  1.
          2   -1    0    0  502    0  0.00000000000E+00 -0.00000000000E+00 -0.90204069534E+02  0.90204069534E+02  0.00000000000E+00 0. -1.
         23    2    1    2    0    0 -0.60584424907E+02 -0.46436055339E+02  0.13895247432E+03  0.18271901674E+03  0.90838698697E+02 0.  0.
         23    2    1    2    0    0  0.81327811305E+02  0.32629204549E+02  0.55524481551E+02  0.13781432770E+03  0.90724544559E+02 0.  0.
        -11    1    4    4    0    0  0.97959328507E+02  0.12143941492E+02  0.36320557292E+02  0.10517931469E+03  0.00000000000E+00 0. -1.
         11    1    4    4    0    0 -0.16631517202E+02  0.20485263057E+02  0.19203924259E+02  0.32635013006E+02  0.00000000000E+00 0.  1.
        -11    1    3    3    0    0 -0.74945556189E+02 -0.62719757154E+01  0.78284767910E+02  0.10855726120E+03  0.00000000000E+00 0.  1.
         11    1    3    3    0    0  0.14361131282E+02 -0.40164079623E+02  0.60667706415E+02  0.74161755544E+02  0.00000000000E+00 0. -1.
         21    1    1    2  502  501 -0.20743386398E+02  0.13806850790E+02 -0.21463849402E+02  0.32887901106E+02  0.00000000000E+00 0.  1.
<scales pt_clust_5="13000.00000" pt_clust_6="13000.00000" pt_clust_7="13000.00000" pt_clust_8="13000.00000" pt_clust_9="24.91821"></scales>
<clustering>
<clus scale="   24.918">  2  9  1 -1</clus>
<clus scale="   90.725">  5  6 -1 -1</clus>
<clus scale="   90.839">  7  8 -1 -1</clus>
<clus scale="  120.665">  2  5  1 -1</clus>
<clus scale="   24.918">  2  5  1 -1</clus>
</clustering>
</event>
<event>
 9    1  0.9000149E-006  0.3366459E+03  0.7546771E-02  0.1069038E+00
         -1   -1    0    0    0  501 -0.00000000000E+00  0.00000000000E+00  0.41057985409E+03  0.41057985409E+03  0.00000000000E+00 0.  1.
          1   -1    0    0  502    0  0.00000000000E+00 -0.00000000000E+00 -0.10223791103E+04  0.10223791103E+04  0.00000000000E+00 0. -1.
         23    2    1    2    0    0  0.31714104058E+03  0.24501781122E+02  0.30376047973E+03  0.45409774769E+03  0.11294050871E+03 0.  0.
         23    2    1    2    0    0 -0.30574245372E+03 -0.78046844029E+01 -0.89531906437E+03  0.95025342745E+03  0.88577583192E+02 0.  0.
        -13    1    4    4    0    0 -0.20537164013E+03 -0.36726745494E+01 -0.46469385730E+03  0.50806631469E+03  0.00000000000E+00 0. -1.
         13    1    4    4    0    0 -0.10037081359E+03 -0.41320098535E+01 -0.43062520707E+03  0.44218711276E+03  0.00000000000E+00 0.  1.
        -13    1    3    3    0    0  0.19594554851E+03  0.69486853022E+02  0.19748754169E+03  0.28674799013E+03  0.00000000000E+00 0.  1.
         13    1    3    3    0    0  0.12119549207E+03 -0.44985071900E+02  0.10627293804E+03  0.16734975755E+03  0.00000000000E+00 0. -1.
         21    1    1    2  502  501 -0.11398586857E+02 -0.16697096719E+02 -0.20240671599E+02  0.28607789288E+02  0.00000000000E+00 0. -1.
<scales pt_clust_5="13000.00000" pt_clust_6="13000.00000" pt_clust_7="13000.00000" pt_clust_8="13000.00000" pt_clust_9="20.21684"></scales>
<clustering>
<clus scale="   20.217">  2  9  1 -1</clus>
<clus scale="   88.578">  5  6 -1 -1</clus>
<clus scale="  112.941">  7  8 -1 -1</clus>
<clus scale="  329.273">  2  5  1 -1</clus>
<clus scale="   20.217">  2  5  1 -1</clus>
</clustering>
</event>
<event>
 9    1  0.9000149E-006  0.1143690E+03  0.7546771E-02  0.1254139E+00
          1   -1    0    0  502    0  0.00000000000E+00  0.00000000000E+00  0.10680527964E+04  0.10680527964E+04  0.00000000000E+00 0. -1.
         -1   -1    0    0    0  501 -0.00000000000E+00 -0.00000000000E+00 -0.20359678751E+02  0.20359678751E+02  0.00000000000E+00 0.  1.
         23    2    1    2    0    0 -0.66359732846E+02  0.48700052762E+02  0.27700046167E+03  0.30218685375E+03  0.88387383327E+02 0.  0.
         23    2    1    2    0    0  0.28532634101E+02 -0.57211825869E+02  0.64392861967E+03  0.65366446351E+03  0.92443817517E+02 0.  0.
        -11    1    3    3    0    0 -0.48936186062E+02  0.17323416774E+02  0.25469255223E+03  0.25992911964E+03  0.00000000000E+00 0. -1.
         11    1    3    3    0    0 -0.17423546783E+02  0.31376635988E+02  0.22307909437E+02  0.42257734108E+02  0.00000000000E+00 0.  1.
        -13    1    4    4    0    0  0.41384303184E+02 -0.77792517005E+02  0.50001079033E+03  0.50771559627E+03  0.00000000000E+00 0.  1.
         13    1    4    4    0    0 -0.12851669083E+02  0.20580691136E+02  0.14391782934E+03  0.14594886724E+03  0.00000000000E+00 0. -1.
         21    1    1    2  502  501  0.37827098744E+02  0.85117731064E+01  0.12676403634E+03  0.13256115792E+03  0.00000000000E+00 0.  1.
<scales pt_clust_5="13000.00000" pt_clust_6="13000.00000" pt_clust_7="13000.00000" pt_clust_8="13000.00000" pt_clust_9="38.77292"></scales>
<clustering>
<clus scale="   38.773">  2  9  1 -1</clus>
<clus scale="   88.387">  5  6 -1 -1</clus>
<clus scale="   92.444">  7  8 -1 -1</clus>
<clus scale="  111.116">  2  5  1 -1</clus>
<clus scale="  114.369">  1  5  2 -1</clus>
</clustering>
</event>
<event>
 9    1  0.9000149E-006  0.1370845E+03  0.7546771E-02  0.1217456E+00
          3   -1    0    0  502    0  0.00000000000E+00  0.00000000000E+00  0.86453080151E+02  0.86453080151E+02  0.00000000000E+00 0. -1.
         -3   -1    0    0    0  501 -0.00000000000E+00 -0.00000000000E+00 -0.76975484207E+03  0.76975484207E+03  0.00000000000E+00 0.  1.
         23    2    1    2    0    0  0.66902361721E+00  0.96870616992E+02 -0.50665646173E+03  0.52384892119E+03  0.91282846087E+02 0.  0.
         23    2    1    2    0    0  0.18241151081E+02 -0.11335727262E+03 -0.23022429566E+03  0.27319724586E+03  0.91928765804E+02 0.  0.
        -13    1    4    4    0    0  0.43725819894E+02 -0.16208594937E+02 -0.71235611581E+02  0.85142106108E+02  0.00000000000E+00 0.  1.
         13    1    4    4    0    0 -0.25484668814E+02 -0.97148677681E+02 -0.15898868408E+03  0.18805513975E+03  0.00000000000E+00 0. -1.
        -13    1    3    3    0    0  0.43656891895E+02  0.68096337296E+02 -0.28678947409E+03  0.29797858617E+03  0.00000000000E+00 0.  1.
         13    1    3    3    0    0 -0.42987868278E+02  0.28774279696E+02 -0.21986698763E+03  0.22587033502E+03  0.00000000000E+00 0. -1.
         21    1    1    2  502  501 -0.18910174698E+02  0.16486655626E+02  0.53578995467E+02  0.59161755181E+02  0.00000000000E+00 0. -1.
<scales pt_clust_5="13000.00000" pt_clust_6="13000.00000" pt_clust_7="13000.00000" pt_clust_8="13000.00000" pt_clust_9="25.08794"></scales>
<clustering>
<clus scale="   25.088">  1  9  2 -1</clus>
<clus scale="   91.283">  7  8 -1 -1</clus>
<clus scale="   91.929">  5  6 -1 -1</clus>
<clus scale="  136.652">  2  7  1 -1</clus>
<clus scale="   25.088">  1  5  2 -1</clus>
</clustering>
</event>
<event>
 9    1  0.9000149E-006  0.9404905E+02  0.7546771E-02  0.1295625E+00
         -1   -1    0    0    0  501 -0.00000000000E+00  0.00000000000E+00  0.27274097864E+02  0.27274097864E+02  0.00000000000E+00 0.  1.
          1   -1    0    0  502    0  0.00000000000E+00 -0.00000000000E+00 -0.47416770318E+03  0.47416770318E+03  0.00000000000E+00 0. -1.
         23    2    1    2    0    0 -0.21526657009E+02  0.18568715520E+02 -0.11355428383E+03  0.14629123764E+03  0.87740279667E+02 0.  0.
         23    2    1    2    0    0 -0.18110887403E+01 -0.11825417609E+02 -0.21069553257E+03  0.23012408060E+03  0.91767992687E+02 0.  0.
        -11    1    3    3    0    0 -0.31572991668E+02 -0.29153528025E+02 -0.45725592220E+02  0.62750392693E+02  0.00000000000E+00 0. -1.
         11    1    3    3    0    0  0.10046334658E+02  0.47722243545E+02 -0.67828691605E+02  0.83540844944E+02  0.00000000000E+00 0.  1.
        -13    1    4    4    0    0 -0.31821640145E+02  0.23833310368E+02 -0.56841109993E+02  0.69365375007E+02  0.00000000000E+00 0.  1.
         13    1    4    4    0    0  0.30010551405E+02 -0.35658727977E+02 -0.15385442258E+03  0.16075870559E+03  0.00000000000E+00 0. -1.
         21    1    1    2  502  501  0.23337745750E+02 -0.67432979114E+01 -0.12264378892E+03  0.12502648281E+03  0.00000000000E+00 0. -1.
<scales pt_clust_5="13000.00000" pt_clust_6="13000.00000" pt_clust_7="13000.00000" pt_clust_8="13000.00000" pt_clust_9="24.29244"></scales>
<clustering>
<clus scale="   24.292">  2  9  1 -1</clus>
<clus scale="   87.740">  5  6 -1 -1</clus>
<clus scale="   90.123">  1  5  2 -1</clus>
<clus scale="   91.768">  7  8 -1 -1</clus>
<clus scale="   24.292">  2  5  1 -1</clus>
</clustering>
</event>
<event>
 9    1  0.9000149E-006  0.1174968E+03  0.7546771E-02  0.1247416E+00
         -1   -1    0    0    0  501 -0.00000000000E+00  0.00000000000E+00  0.27430300353E+03  0.27430300353E+03  0.00000000000E+00 0.  1.
          1   -1    0    0  502    0  0.00000000000E+00 -0.00000000000E+00 -0.98885036369E+02  0.98885036369E+02  0.00000000000E+00 0. -1.
         23    2    1    2    0    0  0.72597305205E+02  0.22071035648E+02  0.18170239943E+03  0.21743500754E+03  0.92221045359E+02 0.  0.
         23    2    1    2    0    0 -0.45691846086E+02 -0.51448174540E+02  0.29284168218E+00  0.11537753790E+03  0.92613341551E+02 0.  0.
        -11    1    4    4    0    0  0.93886929588E+01  0.21468088820E+02  0.46647784575E+01  0.23891139594E+02  0.00000000000E+00 0.  1.
         11    1    4    4    0    0 -0.55080539044E+02 -0.72916263360E+02 -0.43719367753E+01  0.91486398306E+02  0.00000000000E+00 0. -1.
        -11    1    3    3    0    0  0.85951722404E+02  0.56552241936E+01  0.17531035487E+03  0.19532895502E+03  0.00000000000E+00 0.  1.
         11    1    3    3    0    0 -0.13354417199E+02  0.16415811455E+02  0.63920445670E+01  0.22106052524E+02  0.00000000000E+00 0. -1.
         21    1    1    2  502  501 -0.26905459119E+02  0.29377138892E+02 -0.65772739563E+01  0.40375494456E+02  0.00000000000E+00 0. -1.
<scales pt_clust_5="13000.00000" pt_clust_6="13000.00000" pt_clust_7="13000.00000" pt_clust_8="13000.00000" pt_clust_9="39.83616"></scales>
<clustering>
<clus scale="   39.836">  2  9  1 -1</clus>
<clus scale="   92.221">  7  8 -1 -1</clus>
<clus scale="   92.613">  5  6 -1 -1</clus>
<clus scale="  117.188">  1  7  2 -1</clus>
<clus scale="   39.836">  2  5  1 -1</clus>
</clustering>
</event>
<event>
 9    1  0.9000149E-006  0.3334235E+03  0.7546771E-02  0.1069658E+00
          1   -1    0    0  502    0  0.00000000000E+00  0.00000000000E+00  0.11064694658E+04  0.11064694658E+04  0.00000000000E+00 0. -1.
         -1   -1    0    0    0  501 -0.00000000000E+00 -0.00000000000E+00 -0.12223597123E+03  0.12223597123E+03  0.00000000000E+00 0.  1.
         23    2    1    2    0    0 -0.26491241397E+01 -0.31180674860E+03  0.30782529430E+03  0.44737166456E+03  0.90302425808E+02 0.  0.
         23    2    1    2    0    0 -0.63011371996E+00  0.33443944393E+03  0.53097884782E+03  0.63411730310E+03  0.91192535639E+02 0.  0.
        -11    1    3    3    0    0  0.36017007694E+01 -0.23785569827E+03  0.17535694217E+03  0.29553064581E+03  0.00000000000E+00 0.  1.
         11    1    3    3    0    0 -0.62508249090E+01 -0.73951050329E+02  0.13246835213E+03  0.15184101874E+03  0.00000000000E+00 0. -1.
        -13    1    4    4    0    0  0.27780633204E+02  0.25988142381E+03  0.35442392687E+03  0.44037079599E+03  0.00000000000E+00 0. -1.
         13    1    4    4    0    0 -0.28410746924E+02  0.74558020122E+02  0.17655492095E+03  0.19374650711E+03  0.00000000000E+00 0.  1.
         21    1    1    2  502  501  0.32792378596E+01 -0.22632695333E+02  0.14542935250E+03  0.14721646941E+03  0.00000000000E+00 0.  1.
<scales pt_clust_5="13000.00000" pt_clust_6="13000.00000" pt_clust_7="13000.00000" pt_clust_8="13000.00000" pt_clust_9="22.86902"></scales>
<clustering>
<clus scale="   22.869">  1  9  2 -1</clus>
<clus scale="   90.302">  5  6 -1 -1</clus>
<clus scale="   91.193">  7  8 -1 -1</clus>
<clus scale="  333.181">  2  5  1 -1</clus>
<clus scale="   22.869">  1  5  2 -1</clus>
</clustering>
</event>
<event>
 9    1  0.9000149E-006  0.9586554E+02  0.7546771E-02  0.1290776E+00
          2   -1    0    0  502    0  0.00000000000E+00  0.00000000000E+00  0.27459108054E+02  0.27459108054E+02  0.00000000000E+00 0. -1.
         -2   -1    0    0    0  501 -0.00000000000E+00 -0.00000000000E+00 -0.51695828523E+03  0.51695828523E+03  0.00000000000E+00 0.  1.
         23    2    1    2    0    0 -0.70804438268E+01  0.17154091705E+02 -0.32770398972E+03  0.34099630068E+03  0.92434715642E+02 0.  0.
         23    2    1    2    0    0  0.17366072204E+02 -0.37288455344E+02 -0.14459427860E+03  0.17501232607E+03  0.89609148567E+02 0.  0.
        -11    1    4    4    0    0 -0.13367689224E+02 -0.47828857255E+02 -0.13043658663E+03  0.13957076281E+03  0.00000000000E+00 0.  1.
         11    1    4    4    0    0  0.30733761428E+02  0.10540401911E+02 -0.14157691969E+02  0.35441563253E+02  0.00000000000E+00 0. -1.
        -11    1    3    3    0    0 -0.44883212289E+02  0.29050520898E+02 -0.16094326333E+03  0.16959118350E+03  0.00000000000E+00 0.  1.
         11    1    3    3    0    0  0.37802768462E+02 -0.11896429193E+02 -0.16676072639E+03  0.17140511718E+03  0.00000000000E+00 0. -1.
         21    1    1    2  502  501 -0.10285628377E+02  0.20134363639E+02 -0.17200908862E+02  0.28408766533E+02  0.00000000000E+00 0.  1.
<scales pt_clust_5="13000.00000" pt_clust_6="13000.00000" pt_clust_7="13000.00000" pt_clust_8="13000.00000" pt_clust_9="22.60944"></scales>
<clustering>
<clus scale="   22.609">  1  9  2 -1</clus>
<clus scale="   89.609">  5  6 -1 -1</clus>
<clus scale="   92.435">  7  8 -1 -1</clus>
<clus scale="   93.144">  1  5  2 -1</clus>
<clus scale="   22.609">  1  5  2 -1</clus>
</clustering>
</event>
<event>
 9    1  0.9000149E-006  0.1112685E+03  0.7546771E-02  0.1270309E+00
          1   -1    0    0  502    0  0.00000000000E+00  0.00000000000E+00  0.31999141008E+03  0.31999141008E+03  0.00000000000E+00 0. -1.
         -1   -1    0    0    0  501 -0.00000000000E+00 -0.00000000000E+00 -0.52768174734E+02  0.52768174734E+02  0.00000000000E+00 0.  1.
         23    2    1    2    0    0  0.42099558810E+02 -0.30390572839E+02  0.20512009219E+02  0.91251521356E+02  0.72181284680E+02 0.  0.
         23    2    1    2    0    0 -0.47943143664E+02  0.59482527894E+01  0.20209351733E+03  0.23029952480E+03  0.99308381518E+02 0.  0.
        -11    1    3    3    0    0  0.59894230047E+02 -0.85171382513E+01  0.10970342713E+02  0.61483403095E+02  0.00000000000E+00 0.  1.
         11    1    3    3    0    0 -0.17794671237E+02 -0.21873434588E+02  0.95416665054E+01  0.29768118261E+02  0.00000000000E+00 0. -1.
        -13    1    4    4    0    0  0.16282664992E+02 -0.21004970783E+02  0.11872694254E+03  0.12166519988E+03  0.00000000000E+00 0.  1.
         13    1    4    4    0    0 -0.64225808656E+02  0.26953223572E+02  0.83366574798E+02  0.10863432493E+03  0.00000000000E+00 0. -1.
         21    1    1    2  502  501  0.58435848540E+01  0.24442320050E+02  0.44617708792E+02  0.51208538655E+02  0.00000000000E+00 0. -1.
<scales pt_clust_5="13000.00000" pt_clust_6="13000.00000" pt_clust_7="13000.00000" pt_clust_8="13000.00000" pt_clust_9="25.13115"></scales>
<clustering>
<clus scale="   25.131">  1  9  2 -1</clus>
<clus scale="   72.181">  5  6 -1 -1</clus>
<clus scale="   87.913">  2  5  1 -1</clus>
<clus scale="   99.308">  7  8 -1 -1</clus>
<clus scale="   25.131">  1  5  2 -1</clus>
</clustering>
</event>
<event>
 9    1  0.9000149E-006  0.9610762E+02  0.7546771E-02  0.1289627E+00
          2   -1    0    0  502    0  0.00000000000E+00  0.00000000000E+00  0.37393070009E+03  0.37393070009E+03  0.00000000000E+00 0. -1.
         -2   -1    0    0    0  501 -0.00000000000E+00 -0.00000000000E+00 -0.34023210663E+02  0.34023210663E+02  0.00000000000E+00 0.  1.
         23    2    1    2    0    0  0.15995783351E+02 -0.32108607599E+02  0.92934603689E+02  0.13535032845E+03  0.91629924605E+02 0.  0.
         23    2    1    2    0    0  0.28905263294E+01  0.19719018349E+02  0.18508253262E+03  0.20672027315E+03  0.89891782846E+02 0.  0.
        -13    1    3    3    0    0 -0.21683297264E+02 -0.15088943200E+00 -0.78871791333E+01  0.23073702402E+02  0.00000000000E+00 0.  1.
         13    1    3    3    0    0  0.37679080615E+02 -0.31957718167E+02  0.10082178282E+03  0.11227662605E+03  0.00000000000E+00 0. -1.
        -13    1    4    4    0    0  0.21593364744E+02  0.51136640753E+02  0.11082039403E+03  0.12394510543E+03  0.00000000000E+00 0.  1.
         13    1    4    4    0    0 -0.18702838415E+02 -0.31417622404E+02  0.74262138596E+02  0.82775167720E+02  0.00000000000E+00 0. -1.
         21    1    1    2  502  501 -0.18886309681E+02  0.12389589250E+02  0.61890353114E+02  0.65883309143E+02  0.00000000000E+00 0.  1.
<scales pt_clust_5="13000.00000" pt_clust_6="13000.00000" pt_clust_7="13000.00000" pt_clust_8="13000.00000" pt_clust_9="22.58749"></scales>
<clustering>
<clus scale="   22.587">  1  9  2 -1</clus>
<clus scale="   89.892">  7  8 -1 -1</clus>
<clus scale="   91.630">  5  6 -1 -1</clus>
<clus scale="   94.452">  1  7  2 -1</clus>
<clus scale="   22.587">  1  5  2 -1</clus>
</clustering>
</event>
<event>
 9    1  0.9000149E-006  0.9895359E+02  0.7546771E-02  0.1282901E+00
          1   -1    0    0  502    0  0.00000000000E+00  0.00000000000E+00  0.38304580145E+03  0.38304580145E+03  0.00000000000E+00 0. -1.
         -1   -1    0    0    0  501 -0.00000000000E+00 -0.00000000000E+00 -0.39730663805E+02  0.39730663805E+02  0.00000000000E+00 0.  1.
         23    2    1    2    0    0  0.55192606706E+02 -0.22253531404E+01  0.84617778473E+02  0.13625684135E+03  0.91403404477E+02 0.  0.
         23    2    1    2    0    0 -0.30622344807E+02  0.76433151800E+01  0.22374834576E+03  0.24345588486E+03  0.90616209207E+02 0.  0.
        -13    1    3    3    0    0  0.46293582009E+02 -0.41014981914E+02  0.71076440136E+02  0.94218813509E+02  0.00000000000E+00 0.  1.
         13    1    3    3    0    0  0.88990246963E+01  0.38789628774E+02  0.13541338337E+02  0.42038027843E+02  0.00000000000E+00 0. -1.
        -13    1    4    4    0    0  0.21165175617E+02  0.33782340707E+01  0.10311177862E+02  0.23784396424E+02  0.00000000000E+00 0.  1.
         13    1    4    4    0    0 -0.51787520424E+02  0.42650811093E+01  0.21343716790E+03  0.21967148843E+03  0.00000000000E+00 0. -1.
         21    1    1    2  502  501 -0.24570261899E+02 -0.54179620396E+01  0.34949013410E+02  0.43063739047E+02  0.00000000000E+00 0.  1.
<scales pt_clust_5="13000.00000" pt_clust_6="13000.00000" pt_clust_7="13000.00000" pt_clust_8="13000.00000" pt_clust_9="25.16053"></scales>
<clustering>
<clus scale="   25.161">  2  9  1 -1</clus>
<clus scale="   90.616">  7  8 -1 -1</clus>
<clus scale="   91.403">  5  6 -1 -1</clus>
<clus scale="   98.227">  1  7  2 -1</clus>
<clus scale="   98.227">  1  5  2 -1</clus>
</clustering>
</event>
<event>
 9    1  0.9000149E-006  0.1173373E+03  0.7546771E-02  0.1252008E+00
         -1   -1    0    0    0  501 -0.00000000000E+00  0.00000000000E+00  0.35374773113E+03  0.35374773113E+03  0.00000000000E+00 0.  1.
          1   -1    0    0  502    0  0.00000000000E+00 -0.00000000000E+00 -0.96225459510E+02  0.96225459510E+02  0.00000000000E+00 0. -1.
         23    2    1    2    0    0  0.39387903457E+02  0.40729436147E+02  0.27325930222E+03  0.29359029374E+03  0.91182895465E+02 0.  0.
         23    2    1    2    0    0 -0.56845464293E+02 -0.22543557177E+02  0.10452656075E+02  0.12003193662E+03  0.10275596824E+03 0.  0.
        -11    1    4    4    0    0 -0.49791143646E+02 -0.59993042126E+02 -0.66809043461E+01  0.78249329531E+02  0.00000000000E+00 0. -1.
         11    1    4    4    0    0 -0.70543206465E+01  0.37449484949E+02  0.17133560421E+02  0.41782607093E+02  0.00000000000E+00 0.  1.
        -13    1    3    3    0    0  0.59167262264E+02  0.24640227729E+02  0.25309315972E+03  0.26108246445E+03  0.00000000000E+00 0.  1.
         13    1    3    3    0    0 -0.19779358807E+02  0.16089208417E+02  0.20166142500E+02  0.32507829297E+02  0.00000000000E+00 0. -1.
         21    1    1    2  502  501  0.17457560836E+02 -0.18185878970E+02 -0.26189686676E+02  0.36350960268E+02  0.00000000000E+00 0. -1.
<scales pt_clust_5="13000.00000" pt_clust_6="13000.00000" pt_clust_7="13000.00000" pt_clust_8="13000.00000" pt_clust_9="25.20898"></scales>
<clustering>
<clus scale="   25.209">  2  9  1 -1</clus>
<clus scale="   91.183">  7  8 -1 -1</clus>
<clus scale="  102.756">  5  6 -1 -1</clus>
<clus scale="  107.348">  1  7  2 -1</clus>
<clus scale="   25.209">  2  5  1 -1</clus>
</clustering>
</event>
<event>
 9    1  0.9000149E-006  0.1035653E+03  0.7546771E-02  0.1273457E+00
          1   -1    0    0  502    0  0.00000000000E+00  0.00000000000E+00  0.79585765807E+02  0.79585765807E+02  0.00000000000E+00 0. -1.
         -1   -1    0    0    0  501 -0.00000000000E+00 -0.00000000000E+00 -0.38099222111E+03  0.38099222111E+03  0.00000000000E+00 0.  1.
         23    2    1    2    0    0  0.24628596664E+02 -0.34846577891E+02 -0.28883966709E+03  0.30617058085E+03  0.92147813472E+02 0.  0.
         23    2    1    2    0    0 -0.33298223581E+02  0.63052156395E+02 -0.30837959743E+02  0.11970073814E+03  0.91065585319E+02 0.  0.
        -11    1    3    3    0    0  0.43673974613E+02 -0.46965526255E+02 -0.26758992665E+03  0.27516821320E+03  0.00000000000E+00 0.  1.
         11    1    3    3    0    0 -0.19045377949E+02  0.12118948364E+02 -0.21249740444E+02  0.31002367645E+02  0.00000000000E+00 0. -1.
        -13    1    4    4    0    0 -0.57062626317E+02  0.39110163323E+02  0.63766040561E+01  0.69472363402E+02  0.00000000000E+00 0. -1.
         13    1    4    4    0    0  0.23764402736E+02  0.23941993072E+02 -0.37214563799E+02  0.50228374734E+02  0.00000000000E+00 0.  1.
         21    1    1    2  502  501  0.86696269167E+01 -0.28205578503E+02  0.18271171533E+02  0.34706667930E+02  0.00000000000E+00 0.  1.
<scales pt_clust_5="13000.00000" pt_clust_6="13000.00000" pt_clust_7="13000.00000" pt_clust_8="13000.00000" pt_clust_9="29.50792"></scales>
<clustering>
<clus scale="   29.508">  1  9  2 -1</clus>
<clus scale="   91.066">  7  8 -1 -1</clus>
<clus scale="   92.148">  5  6 -1 -1</clus>
<clus scale="  102.604">  1  7  2 -1</clus>
<clus scale="   29.508">  1  5  2 -1</clus>
</clustering>
</event>
<event>
 9    1  0.9000149E-006  0.1160736E+03  0.7546771E-02  0.1250204E+00
         -1   -1    0    0    0  501 -0.00000000000E+00  0.00000000000E+00  0.94691140920E+02  0.94691140920E+02  0.00000000000E+00 0.  1.
          1   -1    0    0  502    0  0.00000000000E+00 -0.00000000000E+00 -0.18771209978E+03  0.18771209978E+03  0.00000000000E+00 0. -1.
         23    2    1    2    0    0  0.11611231473E+02 -0.59768935366E+02 -0.21607184977E+02  0.11449463154E+03  0.94525149445E+02 0.  0.
         23    2    1    2    0    0 -0.36755388760E+02  0.67864708313E+02 -0.41232853782E+02  0.12780052863E+03  0.93146388286E+02 0.  0.
        -13    1    4    4    0    0  0.47214485726E+01  0.29943674558E+02 -0.61089165309E+02  0.68196787614E+02  0.00000000000E+00 0.  1.
         13    1    4    4    0    0 -0.41476837333E+02  0.37921033755E+02  0.19856311526E+02  0.59603741020E+02  0.00000000000E+00 0. -1.
        -13    1    3    3    0    0  0.33568724336E+02 -0.76963233700E+02 -0.11116426937E+02  0.84698131875E+02  0.00000000000E+00 0.  1.
         13    1    3    3    0    0 -0.21957492863E+02  0.17194298334E+02 -0.10490758040E+02  0.29796499665E+02  0.00000000000E+00 0. -1.
         21    1    1    2  502  501  0.25144157287E+02 -0.80957729470E+01 -0.30180920100E+02  0.40108080524E+02  0.00000000000E+00 0. -1.
<scales pt_clust_5="13000.00000" pt_clust_6="13000.00000" pt_clust_7="13000.00000" pt_clust_8="13000.00000" pt_clust_9="26.41534"></scales>
<clustering>
<clus scale="   26.415">  2  9  1 -1</clus>
<clus scale="   93.146">  5  6 -1 -1</clus>
<clus scale="   94.525">  7  8 -1 -1</clus>
<clus scale="  114.954">  2  5  1 -1</clus>
<clus scale="   26.415">  2  5  1 -1</clus>
</clustering>
</event>
<event>
 9    1  0.9000149E-006  0.9368800E+02  0.7546771E-02  0.1295726E+00
          1   -1    0    0  502    0  0.00000000000E+00  0.00000000000E+00  0.53756732769E+02  0.53756732769E+02  0.00000000000E+00 0. -1.
         -1   -1    0    0    0  501 -0.00000000000E+00 -0.00000000000E+00 -0.25441742990E+03  0.25441742990E+03  0.00000000000E+00 0.  1.
         23    2    1    2    0    0 -0.36027099336E+01  0.51381286455E+01 -0.13051251419E+03  0.15918279908E+03  0.90919014953E+02 0.  0.
         23    2    1    2    0    0 -0.14650768012E+02  0.12553631651E+02 -0.76918647761E+02  0.12268495689E+03  0.93610264415E+02 0.  0.
        -11    1    3    3    0    0 -0.41435370445E+02 -0.17268946669E+02 -0.83570373657E+02  0.94863658985E+02  0.00000000000E+00 0. -1.
         11    1    3    3    0    0  0.37832660511E+02  0.22407075314E+02 -0.46942140528E+02  0.64319140097E+02  0.00000000000E+00 0.  1.
        -13    1    4    4    0    0 -0.70996054636E+01  0.48989996226E+02 -0.68533147107E+02  0.84541211136E+02  0.00000000000E+00 0.  1.
         13    1    4    4    0    0 -0.75511625481E+01 -0.36436364575E+02 -0.83855006537E+01  0.38143745758E+02  0.00000000000E+00 0. -1.
         21    1    1    2  502  501  0.18253477945E+02 -0.17691760296E+02  0.67704648109E+01  0.26306406696E+02  0.00000000000E+00 0. -1.
<scales pt_clust_5="13000.00000" pt_clust_6="13000.00000" pt_clust_7="13000.00000" pt_clust_8="13000.00000" pt_clust_9="25.42023"></scales>
<clustering>
<clus scale="   25.420">  1  9  2 -1</clus>
<clus scale="   90.919">  5  6 -1 -1</clus>
<clus scale="   90.999">  2  5  1 -1</clus>
<clus scale="   93.610">  7  8 -1 -1</clus>
<clus scale="   25.420">  1  5  2 -1</clus>
</clustering>
</event>
<event>
 9    1  0.9000149E-006  0.1653111E+03  0.7546771E-02  0.1200394E+00
          3   -1    0    0  502    0  0.00000000000E+00  0.00000000000E+00  0.16915069664E+03  0.16915069664E+03  0.00000000000E+00 0. -1.
         -3   -1    0    0    0  501 -0.00000000000E+00 -0.00000000000E+00 -0.46518076783E+03  0.46518076783E+03  0.00000000000E+00 0.  1.
         23    2    1    2    0    0 -0.51916376268E+02 -0.35327838308E+02 -0.22807463774E+03  0.25420306669E+03  0.93047259208E+02 0.  0.
         23    2    1    2    0    0  0.17936598609E+03  0.37519314592E+02 -0.12531575045E+03  0.24034852950E+03  0.92106038837E+02 0.  0.
        -13    1    3    3    0    0 -0.12352722643E+02 -0.62435087584E+02 -0.11635269348E+03  0.13262231787E+03  0.00000000000E+00 0.  1.
         13    1    3    3    0    0 -0.39563653625E+02  0.27107249276E+02 -0.11172194426E+03  0.12158074881E+03  0.00000000000E+00 0. -1.
        -13    1    4    4    0    0  0.98038512043E+02  0.49875879056E+02 -0.11206419436E+03  0.15702718495E+03  0.00000000000E+00 0.  1.
         13    1    4    4    0    0  0.81327474042E+02 -0.12356564463E+02 -0.13251556094E+02  0.83321344555E+02  0.00000000000E+00 0. -1.
         21    1    1    2  502  501 -0.12744960982E+03 -0.21914762844E+01  0.57360316999E+02  0.13977986828E+03  0.00000000000E+00 0. -1.
<scales pt_clust_5="13000.00000" pt_clust_6="13000.00000" pt_clust_7="13000.00000" pt_clust_8="13000.00000" pt_clust_9="137.27430"></scales>
<clustering>
<clus scale="   92.106">  7  8 -1 -1</clus>
<clus scale="   93.047">  5  6 -1 -1</clus>
<clus scale="  112.255">  2  5  1 -1</clus>
<clus scale="  137.274">  1  9  2 -1</clus>
<clus scale="  137.274">  1  5  2 -1</clus>
</clustering>
</event>
<event>
 9    1  0.9000149E-006  0.9665356E+02  0.7546771E-02  0.1288720E+00
          1   -1    0    0  502    0  0.00000000000E+00  0.00000000000E+00  0.21928207779E+03  0.21928207779E+03  0.00000000000E+00 0. -1.
         -1   -1    0    0    0  501 -0.00000000000E+00 -0.00000000000E+00 -0.53432464143E+02  0.53432464143E+02  0.00000000000E+00 0.  1.
         23    2    1    2    0    0 -0.31537798026E+02 -0.14404880090E+02  0.64975830936E+02  0.11880107619E+03  0.93218580892E+02 0.  0.
         23    2    1    2    0    0  0.10429888244E+02  0.14707147330E+02  0.68510261326E+02  0.11527368395E+03  0.90935601128E+02 0.  0.
        -11    1    3    3    0    0  0.18074248456E+02 -0.88760302825E+01  0.65864745658E+02  0.68873994304E+02  0.00000000000E+00 0.  1.
         11    1    3    3    0    0 -0.49612046481E+02 -0.55288498072E+01 -0.88891472248E+00  0.49927081886E+02  0.00000000000E+00 0. -1.
        -13    1    4    4    0    0 -0.90486119611E+00 -0.38113139687E+02  0.34643044963E+02  0.51512821267E+02  0.00000000000E+00 0. -1.
         13    1    4    4    0    0  0.11334749440E+02  0.52820287018E+02  0.33867216363E+02  0.63760862680E+02  0.00000000000E+00 0.  1.
         21    1    1    2  502  501  0.21107909782E+02 -0.30226724078E+00  0.32363521390E+02  0.38639781800E+02  0.00000000000E+00 0.  1.
<scales pt_clust_5="13000.00000" pt_clust_6="13000.00000" pt_clust_7="13000.00000" pt_clust_8="13000.00000" pt_clust_9="21.11007"></scales>
<clustering>
<clus scale="   21.110">  1  9  2 -1</clus>
<clus scale="   90.936">  7  8 -1 -1</clus>
<clus scale="   93.219">  5  6 -1 -1</clus>
<clus scale="   94.454">  1  7  2 -1</clus>
<clus scale="   21.110">  1  5  2 -1</clus>
</clustering>
</event>
<event>
 9    1  0.9000149E-006  0.1056341E+03  0.7546771E-02  0.1271930E+00
          2   -1    0    0  502    0  0.00000000000E+00  0.00000000000E+00  0.51816267363E+03  0.51816267363E+03  0.00000000000E+00 0. -1.
         -2   -1    0    0    0  501 -0.00000000000E+00 -0.00000000000E+00 -0.54125897377E+02  0.54125897377E+02  0.00000000000E+00 0.  1.
         23    2    1    2    0    0  0.46588499276E+02  0.12497137561E+01  0.15754134256E+02  0.10064296979E+03  0.87799570454E+02 0.  0.
         23    2    1    2    0    0 -0.49242188608E+02  0.27864310928E+02  0.40251125064E+03  0.41733456397E+03  0.94612992929E+02 0.  0.
        -11    1    4    4    0    0  0.18403747367E+02  0.15161990363E+02  0.29046386347E+02  0.37580266480E+02  0.00000000000E+00 0.  1.
         11    1    4    4    0    0 -0.67645935974E+02  0.12702320565E+02  0.37346486429E+03  0.37975429749E+03  0.00000000000E+00 0. -1.
        -13    1    3    3    0    0  0.12816042083E+02  0.41313698145E+02 -0.64481942495E+01  0.43733874722E+02  0.00000000000E+00 0. -1.
         13    1    3    3    0    0  0.33772457193E+02 -0.40063984389E+02  0.22202328506E+02  0.56909095064E+02  0.00000000000E+00 0.  1.
         21    1    1    2  502  501  0.26536893314E+01 -0.29114024684E+02  0.45771391356E+02  0.54311037249E+02  0.00000000000E+00 0.  1.
<scales pt_clust_5="13000.00000" pt_clust_6="13000.00000" pt_clust_7="13000.00000" pt_clust_8="13000.00000" pt_clust_9="29.23471"></scales>
<clustering>
<clus scale="   29.235">  1  9  2 -1</clus>
<clus scale="   87.800">  7  8 -1 -1</clus>
<clus scale="   94.613">  5  6 -1 -1</clus>
<clus scale="   99.578">  2  7  1 -1</clus>
<clus scale="   29.235">  1  5  2 -1</clus>
</clustering>
</event>
<event>
 9    1  0.9000149E-006  0.1058494E+03  0.7546771E-02  0.1269260E+00
         -2   -1    0    0    0  501 -0.00000000000E+00  0.00000000000E+00  0.50957344091E+02  0.50957344091E+02  0.00000000000E+00 0.  1.
          2   -1    0    0  502    0  0.00000000000E+00 -0.00000000000E+00 -0.62179952237E+03  0.62179952237E+03  0.00000000000E+00 0. -1.
         23    2    1    2    0    0 -0.45661507010E+02  0.30749184972E+02 -0.68683743586E+02  0.12653491207E+03  0.90901824740E+02 0.  0.
         23    2    1    2    0    0 -0.14049726642E+02 -0.70295509339E+02 -0.17051717047E+03  0.20693553950E+03  0.92775851545E+02 0.  0.
        -11    1    3    3    0    0 -0.49762875489E+02 -0.20161805317E+02 -0.24574058389E+02  0.59048509857E+02  0.00000000000E+00 0.  1.
         11    1    3    3    0    0  0.41013684791E+01  0.50910990290E+02 -0.44109685197E+02  0.67486402214E+02  0.00000000000E+00 0. -1.
        -11    1    4    4    0    0 -0.36310355938E+02 -0.56089506978E+02 -0.49720925764E+02  0.83286524722E+02  0.00000000000E+00 0.  1.
         11    1    4    4    0    0  0.22260629296E+02 -0.14206002361E+02 -0.12079624471E+03  0.12364901478E+03  0.00000000000E+00 0. -1.
         21    1    1    2  502  501  0.59711233652E+02  0.39546324367E+02 -0.33164126422E+03  0.33928641489E+03  0.00000000000E+00 0. -1.
<scales pt_clust_5="13000.00000" pt_clust_6="13000.00000" pt_clust_7="13000.00000" pt_clust_8="13000.00000" pt_clust_9="71.61943"></scales>
<clustering>
<clus scale="   71.619">  2  9  1 -1</clus>
<clus scale="   90.902">  5  6 -1 -1</clus>
<clus scale="   92.776">  7  8 -1 -1</clus>
<clus scale="  104.211">  1  5  2 -1</clus>
<clus scale="   71.619">  2  5  1 -1</clus>
</clustering>
</event>
<event>
 9    1  0.1096726E-005  0.4124509E+03  0.7546771E-02  0.1068450E+00
          3   -1    0    0  502    0  0.00000000000E+00  0.00000000000E+00  0.11124077113E+04  0.11124077113E+04  0.00000000000E+00 0. -1.
         -3   -1    0    0    0  501 -0.00000000000E+00 -0.00000000000E+00 -0.46872329081E+03  0.46872329081E+03  0.00000000000E+00 0.  1.
         23    2    1    2    0    0 -0.20670868030E+03  0.28505561590E+03  0.39877565700E+03  0.53951595713E+03  0.89834629858E+02 0.  0.
         23    2    1    2    0    0 -0.14694887938E+03 -0.58665779819E+02  0.51239428393E+03  0.54374505079E+03  0.89861733681E+02 0.  0.
        -11    1    4    4    0    0 -0.61225013041E+02  0.18670121523E+02  0.22785912673E+03  0.23667880618E+03  0.00000000000E+00 0.  1.
         11    1    4    4    0    0 -0.85723866340E+02 -0.77335901342E+02  0.28453515720E+03  0.30706624461E+03  0.00000000000E+00 0. -1.
        -11    1    3    3    0    0 -0.11235993882E+03  0.11765984306E+03  0.24157984532E+03  0.29125489899E+03  0.00000000000E+00 0.  1.
         11    1    3    3    0    0 -0.94348741478E+02  0.16739577283E+03  0.15719581168E+03  0.24826105814E+03  0.00000000000E+00 0. -1.
         21    1    1    2  502  501  0.35365755968E+03 -0.22638983608E+03 -0.26748552049E+03  0.49786999414E+03  0.00000000000E+00 0.  1.
<scales pt_clust_5="13000.00000" pt_clust_6="13000.00000" pt_clust_7="13000.00000" pt_clust_8="13000.00000" pt_clust_9="402.54875"></scales>
<clustering>
<clus scale="   89.835">  7  8 -1 -1</clus>
<clus scale="   89.862">  5  6 -1 -1</clus>
<clus scale="  181.964">  1  5  2 -1</clus>
<clus scale="  402.549">  2  9  1 -1</clus>
<clus scale="  181.964">  1  5  2 -1</clus>
</clustering>
</event>
<event>
 9    1  0.9000149E-006  0.9482384E+02  0.7546771E-02  0.1294364E+00
         -1   -1    0    0    0  501 -0.00000000000E+00  0.00000000000E+00  0.49495455769E+02  0.49495455769E+02  0.00000000000E+00 0.  1.
          1   -1    0    0  502    0  0.00000000000E+00 -0.00000000000E+00 -0.47027175484E+03  0.47027175484E+03  0.00000000000E+00 0. -1.
         23    2    1    2    0    0 -0.32978558033E+02 -0.60771269125E+01 -0.21128202179E+02  0.95333224711E+02  0.86703552667E+02 0.  0.
         23    2    1    2    0    0 -0.15353411616E+02  0.24654382739E+01 -0.23271506975E+03  0.25060746566E+03  0.91684199976E+02 0.  0.
        -11    1    4    4    0    0 -0.36006670762E+02 -0.28374675284E+02 -0.18246354636E+03  0.18813438890E+03  0.00000000000E+00 0. -1.
         11    1    4    4    0    0  0.20653259146E+02  0.30840113558E+02 -0.50251523389E+02  0.62473076766E+02  0.00000000000E+00 0.  1.
        -11    1    3    3    0    0 -0.20968295648E+02  0.27771799708E+02  0.20471737178E+02  0.40373683315E+02  0.00000000000E+00 0.  1.
         11    1    3    3    0    0 -0.12010262385E+02 -0.33848926621E+02 -0.41599939357E+02  0.54959541396E+02  0.00000000000E+00 0. -1.
         21    1    1    2  502  501  0.48331969649E+02  0.36116886386E+01 -0.16693302714E+03  0.17382652023E+03  0.00000000000E+00 0. -1.
<scales pt_clust_5="13000.00000" pt_clust_6="13000.00000" pt_clust_7="13000.00000" pt_clust_8="13000.00000" pt_clust_9="48.46673"></scales>
<clustering>
<clus scale="   48.467">  2  9  1 -1</clus>
<clus scale="   86.704">  7  8 -1 -1</clus>
<clus scale="   90.017">  1  7  2 -1</clus>
<clus scale="   91.684">  5  6 -1 -1</clus>
<clus scale="   48.467">  2  5  1 -1</clus>
</clustering>
</event>
<event>
 9    1  0.9000149E-006  0.1991690E+03  0.7546771E-02  0.1164131E+00
          1   -1    0    0  502    0  0.00000000000E+00  0.00000000000E+00  0.15776895844E+04  0.15776895844E+04  0.00000000000E+00 0. -1.
         -1   -1    0    0    0  501 -0.00000000000E+00 -0.00000000000E+00 -0.20317253406E+03  0.20317253406E+03  0.00000000000E+00 0.  1.
         23    2    1    2    0    0  0.79428521287E+02  0.79834287087E+02 -0.33546408829E+02  0.14843934239E+03  0.90699908690E+02 0.  0.
         23    2    1    2    0    0  0.78092230845E+02 -0.16497606840E+03 -0.92564509320E+01  0.20383688860E+03  0.90267910169E+02 0.  0.
        -11    1    4    4    0    0  0.38460476408E+02 -0.11713109612E+03  0.34294942785E+02  0.12796501484E+03  0.00000000000E+00 0. -1.
         11    1    4    4    0    0  0.39631754437E+02 -0.47844972286E+02 -0.43551393717E+02  0.75871873757E+02  0.00000000000E+00 0.  1.
        -11    1    3    3    0    0  0.10906735334E+02  0.51124098287E+02 -0.50009756645E+02  0.72343666351E+02  0.00000000000E+00 0.  1.
         11    1    3    3    0    0  0.68521785953E+02  0.28710188800E+02  0.16463347816E+02  0.76095676043E+02  0.00000000000E+00 0. -1.
         21    1    1    2  502  501 -0.15752075213E+03  0.85141781315E+02  0.14173199101E+04  0.14285858874E+04  0.00000000000E+00 0. -1.
<scales pt_clust_5="13000.00000" pt_clust_6="13000.00000" pt_clust_7="13000.00000" pt_clust_8="13000.00000" pt_clust_9="177.53873"></scales>
<clustering>
<clus scale="   90.268">  5  6 -1 -1</clus>
<clus scale="   90.700">  7  8 -1 -1</clus>
<clus scale="  144.599">  2  7  1 -1</clus>
<clus scale="  177.539">  1  9  2 -1</clus>
<clus scale="  177.539">  1  5  2 -1</clus>
</clustering>
</event>
<event>
 9    1  0.9000149E-006  0.3030932E+03  0.7546771E-02  0.1084949E+00
          2   -1    0    0  502    0  0.00000000000E+00  0.00000000000E+00  0.92312167655E+03  0.92312167655E+03  0.00000000000E+00 0. -1.
         -2   -1    0    0    0  501 -0.00000000000E+00 -0.00000000000E+00 -0.11054557863E+03  0.11054557863E+03  0.00000000000E+00 0.  1.
         23    2    1    2    0    0  0.42532737477E+02  0.26859464418E+03  0.34041103579E+03  0.44514764682E+03  0.91239451721E+02 0.  0.
         23    2    1    2    0    0 -0.59409608362E+01 -0.28626117666E+03  0.42689842864E+03  0.52769089314E+03  0.11930906944E+03 0.  0.
        -13    1    4    4    0    0  0.39450731523E+02 -0.24057914958E+03  0.31173117307E+03  0.39574109174E+03  0.00000000000E+00 0.  1.
         13    1    4    4    0    0 -0.45391692359E+02 -0.45682027079E+02  0.11516725556E+03  0.13194980139E+03  0.00000000000E+00 0. -1.
        -13    1    3    3    0    0  0.16220867745E+01  0.22963219821E+03  0.28513252161E+03  0.36610672283E+03  0.00000000000E+00 0. -1.
         13    1    3    3    0    0  0.40910650702E+02  0.38962445966E+02  0.55278514175E+02  0.79040923995E+02  0.00000000000E+00 0.  1.
         21    1    1    2  502  501 -0.36591776640E+02  0.17666532480E+02  0.45266633500E+02  0.60828715226E+02  0.00000000000E+00 0.  1.
<scales pt_clust_5="13000.00000" pt_clust_6="13000.00000" pt_clust_7="13000.00000" pt_clust_8="13000.00000" pt_clust_9="40.63329"></scales>
<clustering>
<clus scale="   40.633">  2  9  1 -1</clus>
<clus scale="   91.239">  7  8 -1 -1</clus>
<clus scale="  119.309">  5  6 -1 -1</clus>
<clus scale="  293.182">  2  7  1 -1</clus>
<clus scale="  303.093">  1  5  2 -1</clus>
</clustering>
</event>
<event>
 9    1  0.9000149E-006  0.1976990E+03  0.7546771E-02  0.1151712E+00
         -1   -1    0    0    0  501 -0.00000000000E+00  0.00000000000E+00  0.41720952949E+03  0.41720952949E+03  0.00000000000E+00 0.  1.
          1   -1    0    0  502    0  0.00000000000E+00 -0.00000000000E+00 -0.10130244202E+04  0.10130244202E+04  0.00000000000E+00 0. -1.
         23    2    1    2    0    0 -0.15503119580E+03  0.77180555436E+02  0.34632586442E+03  0.39782943105E+03  0.91296999057E+02 0.  0.
         23    2    1    2    0    0  0.13484530491E+03 -0.18874384335E+03 -0.35137711593E+03  0.43086024363E+03  0.91472276065E+02 0.  0.
        -11    1    3    3    0    0 -0.38060315697E+02  0.34643306919E+02  0.34175194129E+02  0.61779367421E+02  0.00000000000E+00 0. -1.
         11    1    3    3    0    0 -0.11697088010E+03  0.42537248517E+02  0.31215067029E+03  0.33605006363E+03  0.00000000000E+00 0.  1.
        -11    1    4    4    0    0  0.21155372402E+02 -0.40894016599E+02 -0.14761376029E+03  0.15462759328E+03  0.00000000000E+00 0.  1.
         11    1    4    4    0    0  0.11368993250E+03 -0.14784982675E+03 -0.20376335563E+03  0.27623265035E+03  0.00000000000E+00 0. -1.
         21    1    1    2  502  501  0.20185890894E+02  0.11156328791E+03 -0.59076363921E+03  0.60154427503E+03  0.00000000000E+00 0. -1.
<scales pt_clust_5="13000.00000" pt_clust_6="13000.00000" pt_clust_7="13000.00000" pt_clust_8="13000.00000" pt_clust_9="113.37477"></scales>
<clustering>
<clus scale="   91.297">  5  6 -1 -1</clus>
<clus scale="   91.472">  7  8 -1 -1</clus>
<clus scale="  113.375">  2  9  1 -1</clus>
<clus scale="  197.618">  1  5  2 -1</clus>
<clus scale="  113.375">  2  5  1 -1</clus>
</clustering>
</event>
<event>
 9    1  0.9000149E-006  0.1119712E+03  0.7546771E-02  0.1257985E+00
          1   -1    0    0  502    0  0.00000000000E+00  0.00000000000E+00  0.18429196626E+03  0.18429196626E+03  0.00000000000E+00 0. -1.
         -1   -1    0    0    0  501 -0.00000000000E+00 -0.00000000000E+00 -0.27061426481E+03  0.27061426481E+03  0.00000000000E+00 0.  1.
         23    2    1    2    0    0  0.35757981805E+02 -0.45282292625E+02 -0.22615392982E+03  0.25105918664E+03  0.92498626644E+02 0.  0.
         23    2    1    2    0    0 -0.29244872140E+02  0.70323867528E+02  0.10812481612E+03  0.16292244061E+03  0.95142193081E+02 0.  0.
        -11    1    4    4    0    0 -0.60423756871E+02  0.42724101542E+02  0.92472684340E+02  0.11843807072E+03  0.00000000000E+00 0. -1.
         11    1    4    4    0    0  0.31178884731E+02  0.27599765986E+02  0.15652131778E+02  0.44484369893E+02  0.00000000000E+00 0.  1.
        -13    1    3    3    0    0 -0.25914642263E+02 -0.29381344108E+02 -0.48577642425E+02  0.62406885909E+02  0.00000000000E+00 0. -1.
         13    1    3    3    0    0  0.61672624068E+02 -0.15900948517E+02 -0.17757628740E+03  0.18865230073E+03  0.00000000000E+00 0.  1.
         21    1    1    2  502  501 -0.65131096645E+01 -0.25041574904E+02  0.31706815151E+02  0.40924603825E+02  0.00000000000E+00 0.  1.
<scales pt_clust_5="13000.00000" pt_clust_6="13000.00000" pt_clust_7="13000.00000" pt_clust_8="13000.00000" pt_clust_9="25.87472"></scales>
<clustering>
<clus scale="   25.875">  1  9  2 -1</clus>
<clus scale="   92.499">  7  8 -1 -1</clus>
<clus scale="   95.142">  5  6 -1 -1</clus>
<clus scale="  109.734">  2  7  1 -1</clus>
<clus scale="   25.875">  1  5  2 -1</clus>
</clustering>
</event>
<event>
 9    1  0.9000149E-006  0.1294190E+03  0.7546771E-02  0.1228974E+00
         -1   -1    0    0    0  501 -0.00000000000E+00  0.00000000000E+00  0.58087990091E+02  0.58087990091E+02  0.00000000000E+00 0.  1.
          1   -1    0    0  502    0  0.00000000000E+00 -0.00000000000E+00 -0.72794820410E+03  0.72794820410E+03  0.00000000000E+00 0. -1.
         23    2    1    2    0    0 -0.79555887181E+02 -0.39482110373E+02 -0.49187746872E+02  0.13633566116E+03  0.90994515425E+02 0.  0.
         23    2    1    2    0    0  0.58740804659E+02  0.86525692465E+02 -0.47118389900E+03  0.49160816041E+03  0.93419158187E+02 0.  0.
        -11    1    4    4    0    0  0.47099721769E+02  0.10493613288E+03 -0.42874604142E+03  0.44390668367E+03  0.00000000000E+00 0. -1.
         11    1    4    4    0    0  0.11641082891E+02 -0.18410440414E+02 -0.42437857576E+02  0.47701476736E+02  0.00000000000E+00 0.  1.
        -13    1    3    3    0    0 -0.11524263001E+02 -0.43701224018E+02  0.97396191556E+01  0.46232735153E+02  0.00000000000E+00 0. -1.
         13    1    3    3    0    0 -0.68031624179E+02  0.42191136456E+01 -0.58927366027E+02  0.90102926009E+02  0.00000000000E+00 0.  1.
         21    1    1    2  502  501  0.20815082521E+02 -0.47043582092E+02 -0.14948856814E+03  0.15809237262E+03  0.00000000000E+00 0.  1.
<scales pt_clust_5="13000.00000" pt_clust_6="13000.00000" pt_clust_7="13000.00000" pt_clust_8="13000.00000" pt_clust_9="51.44284"></scales>
<clustering>
<clus scale="   51.443">  2  9  1 -1</clus>
<clus scale="   90.995">  7  8 -1 -1</clus>
<clus scale="   93.419">  5  6 -1 -1</clus>
<clus scale="  127.680">  1  7  2 -1</clus>
<clus scale="   51.443">  2  5  1 -1</clus>
</clustering>
</event>
<event>
 9    1  0.9000149E-006  0.1430929E+03  0.7546771E-02  0.1210267E+00
         -3   -1    0    0    0  501 -0.00000000000E+00  0.00000000000E+00  0.63270358820E+03  0.63270358820E+03  0.00000000000E+00 0.  1.
          3   -1    0    0  502    0  0.00000000000E+00 -0.00000000000E+00 -0.59692064683E+02  0.59692064683E+02  0.00000000000E+00 0. -1.
         23    2    1    2    0    0  0.95016360956E+02 -0.52118221667E+02  0.50478218178E+03  0.52461742053E+03  0.93134145212E+02 0.  0.
         23    2    1    2    0    0 -0.75873135776E+02  0.42390516929E+02  0.51692191508E+02  0.14067530544E+03  0.97794530720E+02 0.  0.
        -11    1    4    4    0    0 -0.26194418741E+02 -0.31542830567E+02  0.93688931414E+01  0.42057982501E+02  0.00000000000E+00 0.  1.
         11    1    4    4    0    0 -0.49678717035E+02  0.73933347496E+02  0.42323298367E+02  0.98617322935E+02  0.00000000000E+00 0. -1.
        -13    1    3    3    0    0  0.94757339796E+02 -0.73903330223E+02  0.40327466411E+03  0.42079818248E+03  0.00000000000E+00 0.  1.
         13    1    3    3    0    0  0.25902116004E+00  0.21785108557E+02  0.10150751766E+03  0.10381923805E+03  0.00000000000E+00 0. -1.
         21    1    1    2  502  501 -0.19143225180E+02  0.97277047375E+01  0.16537150237E+02  0.27102926921E+02  0.00000000000E+00 0. -1.
<scales pt_clust_5="13000.00000" pt_clust_6="13000.00000" pt_clust_7="13000.00000" pt_clust_8="13000.00000" pt_clust_9="21.47304"></scales>
<clustering>
<clus scale="   21.473">  2  9  1 -1</clus>
<clus scale="   93.134">  7  8 -1 -1</clus>
<clus scale="   97.795">  5  6 -1 -1</clus>
<clus scale="  139.949">  1  7  2 -1</clus>
<clus scale="   21.473">  2  5  1 -1</clus>
</clustering>
</event>
<event>
 9    1  0.9000149E-006  0.1455173E+03  0.7546771E-02  0.1209147E+00
         -1   -1    0    0    0  501 -0.00000000000E+00  0.00000000000E+00  0.27215216697E+02  0.27215216697E+02  0.00000000000E+00 0.  1.
          1   -1    0    0  502    0  0.00000000000E+00 -0.00000000000E+00 -0.11829666987E+04  0.11829666987E+04  0.00000000000E+00 0. -1.
         23    2    1    2    0    0 -0.74780572994E+02 -0.49362987363E+02 -0.21486397989E+03  0.24989380253E+03  0.90838010055E+02 0.  0.
         23    2    1    2    0    0  0.10450212048E+03  0.26185334984E+02 -0.82265549511E+03  0.83619386870E+03  0.10417176902E+03 0.  0.
        -11    1    4    4    0    0  0.78394110052E+01 -0.34693452486E+02 -0.18575537745E+03  0.18912998774E+03  0.00000000000E+00 0.  1.
         11    1    4    4    0    0  0.96662709479E+02  0.60878787470E+02 -0.63690011766E+03  0.64706388096E+03  0.00000000000E+00 0. -1.
        -13    1    3    3    0    0 -0.45232320461E+02 -0.32392208515E+02 -0.32621872472E+02  0.64493445793E+02  0.00000000000E+00 0.  1.
         13    1    3    3    0    0 -0.29548252533E+02 -0.16970778848E+02 -0.18224210742E+03  0.18540035674E+03  0.00000000000E+00 0. -1.
         21    1    1    2  502  501 -0.29721547490E+02  0.23177652379E+02 -0.11823200698E+03  0.12409424414E+03  0.00000000000E+00 0. -1.
<scales pt_clust_5="13000.00000" pt_clust_6="13000.00000" pt_clust_7="13000.00000" pt_clust_8="13000.00000" pt_clust_9="37.69050"></scales>
<clustering>
<clus scale="   37.691">  1  9  2 -1</clus>
<clus scale="   90.838">  7  8 -1 -1</clus>
<clus scale="  104.172">  5  6 -1 -1</clus>
<clus scale="  136.290">  1  7  2 -1</clus>
<clus scale="  145.517">  2  5  1 -1</clus>
</clustering>
</event>
<event>
 9    1  0.9000149E-006  0.1059517E+03  0.7546771E-02  0.1268821E+00
          1   -1    0    0  502    0  0.00000000000E+00  0.00000000000E+00  0.91249321752E+02  0.91249321752E+02  0.00000000000E+00 0. -1.
         -1   -1    0    0    0  501 -0.00000000000E+00 -0.00000000000E+00 -0.37967251501E+03  0.37967251501E+03  0.00000000000E+00 0.  1.
         23    2    1    2    0    0 -0.65699430551E+02  0.46248152446E+02 -0.25562286434E+03  0.28260948955E+03  0.89831887604E+02 0.  0.
         23    2    1    2    0    0  0.38216481526E+01 -0.19816943300E+02 -0.67035740602E+02  0.11281710110E+03  0.88468025562E+02 0.  0.
        -11    1    3    3    0    0 -0.30761985486E+02  0.59488553014E+02 -0.86429942739E+02  0.10934039826E+03  0.00000000000E+00 0.  1.
         11    1    3    3    0    0 -0.34937445065E+02 -0.13240400568E+02 -0.16919292160E+03  0.17326909128E+03  0.00000000000E+00 0. -1.
        -11    1    4    4    0    0  0.61866267119E+01 -0.40071178375E+02 -0.79269357928E+02  0.89037097845E+02  0.00000000000E+00 0.  1.
         11    1    4    4    0    0 -0.23649785593E+01  0.20254235075E+02  0.12233617326E+02  0.23780003257E+02  0.00000000000E+00 0. -1.
         21    1    1    2  502  501  0.61877782398E+02 -0.26431209146E+02  0.34235411686E+02  0.75495246107E+02  0.00000000000E+00 0. -1.
<scales pt_clust_5="13000.00000" pt_clust_6="13000.00000" pt_clust_7="13000.00000" pt_clust_8="13000.00000" pt_clust_9="67.28647"></scales>
<clustering>
<clus scale="   67.286">  1  9  2 -1</clus>
<clus scale="   88.468">  7  8 -1 -1</clus>
<clus scale="   89.832">  5  6 -1 -1</clus>
<clus scale="  104.798">  1  7  2 -1</clus>
<clus scale="   67.286">  1  5  2 -1</clus>
</clustering>
</event>
<event>
 9    1  0.9000149E-006  0.9329230E+02  0.7546771E-02  0.1295564E+00
         -4   -1    0    0    0  501 -0.00000000000E+00  0.00000000000E+00  0.56567782886E+03  0.56567782886E+03  0.00000000000E+00 0. -1.
          4   -1    0    0  502    0  0.00000000000E+00 -0.00000000000E+00 -0.26234747652E+02  0.26234747652E+02  0.00000000000E+00 0.  1.
         23    2    1    2    0    0  0.58989584337E+00  0.40687867734E+02  0.34440895220E+03  0.35863353001E+03  0.91348956906E+02 0.  0.
         23    2    1    2    0    0 -0.81641925264E+01 -0.95241751186E+01  0.11367641686E+03  0.14582835735E+03  0.90477721608E+02 0.  0.
        -11    1    3    3    0    0 -0.87591516877E+01  0.66216214987E+02  0.18002058808E+03  0.19201229647E+03  0.00000000000E+00 0.  1.
         11    1    3    3    0    0  0.93490475310E+01 -0.25528347253E+02  0.16438836413E+03  0.16662123353E+03  0.00000000000E+00 0. -1.
        -13    1    4    4    0    0  0.37940342804E+02 -0.20347244777E+02  0.64571182794E+02  0.77607458595E+02  0.00000000000E+00 0. -1.
         13    1    4    4    0    0 -0.46104535331E+02  0.10823069658E+02  0.49105234065E+02  0.68220898759E+02  0.00000000000E+00 0.  1.
         21    1    1    2  502  501  0.75742966830E+01 -0.31163692616E+02  0.81357712144E+02  0.87450689151E+02  0.00000000000E+00 0. -1.
<scales pt_clust_5="13000.00000" pt_clust_6="13000.00000" pt_clust_7="13000.00000" pt_clust_8="13000.00000" pt_clust_9="32.07095"></scales>
<clustering>
<clus scale="   32.071">  1  9  2 -1</clus>
<clus scale="   90.478">  7  8 -1 -1</clus>
<clus scale="   91.349">  5  6 -1 -1</clus>
<clus scale="   92.439">  2  7  1 -1</clus>
<clus scale="   92.439">  2  5  1 -1</clus>
</clustering>
</event>
<event>
 9    1  0.9000149E-006  0.1051550E+03  0.7546771E-02  0.1274605E+00
         -1   -1    0    0    0  501 -0.00000000000E+00  0.00000000000E+00  0.48083996201E+03  0.48083996201E+03  0.00000000000E+00 0.  1.
          1   -1    0    0  502    0  0.00000000000E+00 -0.00000000000E+00 -0.59697983456E+02  0.59697983456E+02  0.00000000000E+00 0. -1.
         23    2    1    2    0    0 -0.13621835600E+02  0.52229105660E+02  0.34018458782E+03  0.35612033185E+03  0.90458294741E+02 0.  0.
         23    2    1    2    0    0  0.36211376349E+02 -0.43417418447E+02  0.10971149215E+03  0.14680469655E+03  0.79490071192E+02 0.  0.
        -11    1    4    4    0    0  0.15404897286E+02  0.22730489818E+02  0.23314147583E+02  0.36021320149E+02  0.00000000000E+00 0.  1.
         11    1    4    4    0    0  0.20806479062E+02 -0.66147908266E+02  0.86397344563E+02  0.11078337640E+03  0.00000000000E+00 0. -1.
        -13    1    3    3    0    0  0.32746410248E+02  0.48382095056E+02  0.17404845037E+03  0.18359198670E+03  0.00000000000E+00 0.  1.
         13    1    3    3    0    0 -0.46368245848E+02  0.38470106044E+01  0.16613613745E+03  0.17252834515E+03  0.00000000000E+00 0. -1.
         21    1    1    2  502  501 -0.22589540748E+02 -0.88116872131E+01 -0.28754101406E+02  0.37612917069E+02  0.00000000000E+00 0. -1.
<scales pt_clust_5="13000.00000" pt_clust_6="13000.00000" pt_clust_7="13000.00000" pt_clust_8="13000.00000" pt_clust_9="24.24733"></scales>
<clustering>
<clus scale="   24.247">  2  9  1 -1</clus>
<clus scale="   79.490">  5  6 -1 -1</clus>
<clus scale="   90.458">  7  8 -1 -1</clus>
<clus scale="   95.883">  2  5  1 -1</clus>
<clus scale="   24.247">  2  5  1 -1</clus>
</clustering>
</event>
<event>
 9    1  0.9000149E-006  0.1776811E+03  0.7546771E-02  0.1170723E+00
          2   -1    0    0  502    0  0.00000000000E+00  0.00000000000E+00  0.26280845305E+03  0.26280845305E+03  0.00000000000E+00 0. -1.
         -2   -1    0    0    0  501 -0.00000000000E+00 -0.00000000000E+00 -0.22221210720E+03  0.22221210720E+03  0.00000000000E+00 0.  1.
         23    2    1    2    0    0  0.68480724484E+02  0.12973661311E+03 -0.11893601240E+03  0.21011946513E+03  0.92104376518E+02 0.  0.
         23    2    1    2    0    0 -0.90739561067E+02 -0.14677581977E+03  0.12370008349E+03  0.22940667475E+03  0.86884420674E+02 0.  0.
        -11    1    4    4    0    0 -0.72447370797E+02 -0.11522115242E+03  0.13451835144E+03  0.19136280301E+03  0.00000000000E+00 0. -1.
         11    1    4    4    0    0 -0.18292190269E+02 -0.31554667341E+02 -0.10818267951E+02  0.38043871744E+02  0.00000000000E+00 0.  1.
        -13    1    3    3    0    0  0.31064523344E+02  0.72843466644E+02 -0.11788872067E+03  0.14201734297E+03  0.00000000000E+00 0.  1.
         13    1    3    3    0    0  0.37416201139E+02  0.56893146462E+02 -0.10472917279E+01  0.68102122155E+02  0.00000000000E+00 0. -1.
         21    1    1    2  502  501  0.22258836583E+02  0.17039206660E+02  0.35832274762E+02  0.45494420364E+02  0.00000000000E+00 0.  1.
<scales pt_clust_5="13000.00000" pt_clust_6="13000.00000" pt_clust_7="13000.00000" pt_clust_8="13000.00000" pt_clust_9="28.03195"></scales>
<clustering>
<clus scale="   28.032">  1  9  2 -1</clus>
<clus scale="   86.884">  5  6 -1 -1</clus>
<clus scale="   92.104">  7  8 -1 -1</clus>
<clus scale="  175.032">  1  5  2 -1</clus>
<clus scale="   28.032">  1  5  2 -1</clus>
</clustering>
</event>
<event>
 9    1  0.9000149E-006  0.9134998E+02  0.7546771E-02  0.1300379E+00
         -2   -1    0    0    0  501 -0.00000000000E+00  0.00000000000E+00  0.79007974501E+02  0.79007974501E+02  0.00000000000E+00 0.  1.
          2   -1    0    0  502    0  0.00000000000E+00 -0.00000000000E+00 -0.18512327209E+03  0.18512327209E+03  0.00000000000E+00 0. -1.
         23    2    1    2    0    0  0.20669263114E+02  0.18195425276E+01 -0.10416122700E+02  0.92572518101E+02  0.89613873495E+02 0.  0.
         23    2    1    2    0    0  0.11182300619E+02  0.16358333985E+02 -0.32604458952E+02  0.98579961126E+02  0.90897299488E+02 0.  0.
        -13    1    4    4    0    0 -0.16221521144E+02 -0.32128116565E+02 -0.21064874204E+02  0.41702308658E+02  0.00000000000E+00 0.  1.
         13    1    4    4    0    0  0.27403821762E+02  0.48486450550E+02 -0.11539584749E+02  0.56877652468E+02  0.00000000000E+00 0. -1.
        -13    1    3    3    0    0 -0.35323201493E+02  0.31037486222E+01  0.73082754579E+00  0.35466828561E+02  0.00000000000E+00 0.  1.
         13    1    3    3    0    0  0.55992464607E+02 -0.12842060946E+01 -0.11146950246E+02  0.57105689540E+02  0.00000000000E+00 0. -1.
         21    1    1    2  502  501 -0.31851563733E+02 -0.18177876512E+02 -0.63094715937E+02  0.72978767363E+02  0.00000000000E+00 0.  1.
<scales pt_clust_5="13000.00000" pt_clust_6="13000.00000" pt_clust_7="13000.00000" pt_clust_8="13000.00000" pt_clust_9="36.67366"></scales>
<clustering>
<clus scale="   36.674">  2  9  1 -1</clus>
<clus scale="   89.614">  7  8 -1 -1</clus>
<clus scale="   90.073">  1  7  2 -1</clus>
<clus scale="   90.897">  5  6 -1 -1</clus>
<clus scale="   36.674">  2  5  1 -1</clus>
</clustering>
</event>
<event>
 9    1  0.9000149E-006  0.1657673E+03  0.7546771E-02  0.1183148E+00
          4   -1    0    0  502    0  0.00000000000E+00  0.00000000000E+00  0.38433617765E+03  0.38433617765E+03  0.00000000000E+00 0. -1.
         -4   -1    0    0    0  501 -0.00000000000E+00 -0.00000000000E+00 -0.99260433172E+02  0.99260433172E+02  0.00000000000E+00 0.  1.
         23    2    1    2    0    0  0.65909562520E+01 -0.13890540988E+03  0.28718021080E+02  0.17152923767E+03  0.96225781585E+02 0.  0.
         23    2    1    2    0    0 -0.20447591389E+02  0.12439023559E+03  0.20774167037E+03  0.25947253279E+03  0.90985487612E+02 0.  0.
        -11    1    3    3    0    0  0.25836367929E+02  0.16272892363E+01 -0.33547825489E+01  0.26104033098E+02  0.00000000000E+00 0. -1.
         11    1    3    3    0    0 -0.19245411677E+02 -0.14053269911E+03  0.32072803629E+02  0.14542520457E+03  0.00000000000E+00 0.  1.
        -11    1    4    4    0    0 -0.14212835656E+02  0.31127926509E+02  0.13977697110E+03  0.14390467037E+03  0.00000000000E+00 0.  1.
         11    1    4    4    0    0 -0.62347557324E+01  0.93262309083E+02  0.67964699276E+02  0.11556786241E+03  0.00000000000E+00 0. -1.
         21    1    1    2  502  501  0.13856635137E+02  0.14515174286E+02  0.48616053021E+02  0.52594840367E+02  0.00000000000E+00 0. -1.
<scales pt_clust_5="13000.00000" pt_clust_6="13000.00000" pt_clust_7="13000.00000" pt_clust_8="13000.00000" pt_clust_9="20.06730"></scales>
<clustering>
<clus scale="   20.067">  1  9  2 -1</clus>
<clus scale="   90.985">  7  8 -1 -1</clus>
<clus scale="   96.226">  5  6 -1 -1</clus>
<clus scale="  162.781">  1  7  2 -1</clus>
<clus scale="   20.067">  1  5  2 -1</clus>
</clustering>
</event>
<event>
 9    1  0.9000149E-006  0.1009265E+03  0.7546771E-02  0.1279002E+00
         -1   -1    0    0    0  501 -0.00000000000E+00  0.00000000000E+00  0.10590825284E+03  0.10590825284E+03  0.00000000000E+00 0.  1.
          1   -1    0    0  502    0  0.00000000000E+00 -0.00000000000E+00 -0.18295612730E+03  0.18295612730E+03  0.00000000000E+00 0. -1.
         23    2    1    2    0    0  0.39831610325E+02 -0.87653744035E+01  0.38800649647E+02  0.10719760472E+03  0.91227446945E+02 0.  0.
         23    2    1    2    0    0 -0.26590214919E+02  0.41278285295E+02 -0.88751339513E+02  0.13731949433E+03  0.92568390341E+02 0.  0.
        -11    1    3    3    0    0 -0.16868813688E+02 -0.20914000302E+02  0.41169686498E+02  0.49161930091E+02  0.00000000000E+00 0.  1.
         11    1    3    3    0    0  0.56700424014E+02  0.12148625899E+02 -0.23690368511E+01  0.58035674633E+02  0.00000000000E+00 0. -1.
        -13    1    4    4    0    0 -0.30657333277E+02  0.91325664734E+01 -0.98434294981E+02  0.10350162454E+03  0.00000000000E+00 0. -1.
         13    1    4    4    0    0  0.40671183583E+01  0.32145718822E+02  0.96829554677E+01  0.33817869787E+02  0.00000000000E+00 0.  1.
         21    1    1    2  502  501 -0.13241395406E+02 -0.32512910892E+02 -0.27097184595E+02  0.44347281089E+02  0.00000000000E+00 0.  1.
<scales pt_clust_5="13000.00000" pt_clust_6="13000.00000" pt_clust_7="13000.00000" pt_clust_8="13000.00000" pt_clust_9="35.10590"></scales>
<clustering>
<clus scale="   35.106">  2  9  1 -1</clus>
<clus scale="   91.227">  5  6 -1 -1</clus>
<clus scale="   92.568">  7  8 -1 -1</clus>
<clus scale="   99.698">  1  5  2 -1</clus>
<clus scale="   35.106">  2  5  1 -1</clus>
</clustering>
</event>
<event>
 9    1  0.9000149E-006  0.8994504E+02  0.7546771E-02  0.1314844E+00
          1   -1    0    0  502    0  0.00000000000E+00  0.00000000000E+00  0.36339058765E+03  0.36339058765E+03  0.00000000000E+00 0. -1.
         -1   -1    0    0    0  501 -0.00000000000E+00 -0.00000000000E+00 -0.30580089969E+02  0.30580089969E+02  0.00000000000E+00 0.  1.
         23    2    1    2    0    0 -0.10898571887E+02 -0.15332998311E+02  0.10157138289E+03  0.13560042660E+03  0.87845604134E+02 0.  0.
         23    2    1    2    0    0  0.25653972994E+02 -0.36669498144E+01  0.98771578050E+02  0.12373604964E+03  0.69879986397E+02 0.  0.
        -13    1    3    3    0    0 -0.45828703358E+02  0.89086713149E+01  0.61149988429E+02  0.76934748722E+02  0.00000000000E+00 0.  1.
         13    1    3    3    0    0  0.34930131470E+02 -0.24241669626E+02  0.40421394461E+02  0.58665677879E+02  0.00000000000E+00 0. -1.
        -13    1    4    4    0    0 -0.21011050466E+02  0.80408024942E+01  0.14707371762E+02  0.26877974823E+02  0.00000000000E+00 0.  1.
         13    1    4    4    0    0  0.46665023459E+02 -0.11707752309E+02  0.84064206288E+02  0.96858074818E+02  0.00000000000E+00 0. -1.
         21    1    1    2  502  501 -0.14755401107E+02  0.18999948125E+02  0.13246753674E+03  0.13463420138E+03  0.00000000000E+00 0.  1.
<scales pt_clust_5="13000.00000" pt_clust_6="13000.00000" pt_clust_7="13000.00000" pt_clust_8="13000.00000" pt_clust_9="24.05660"></scales>
<clustering>
<clus scale="   24.057">  1  9  2 -1</clus>
<clus scale="   69.880">  7  8 -1 -1</clus>
<clus scale="   72.502">  1  7  2 -1</clus>
<clus scale="   87.846">  5  6 -1 -1</clus>
<clus scale="   24.057">  1  5  2 -1</clus>
</clustering>
</event>
<event>
 9    1  0.9000149E-006  0.1378085E+03  0.7546771E-02  0.1216613E+00
         -2   -1    0    0    0  501 -0.00000000000E+00  0.00000000000E+00  0.12108900881E+03  0.12108900881E+03  0.00000000000E+00 0.  1.
          2   -1    0    0  502    0  0.00000000000E+00 -0.00000000000E+00 -0.88795791416E+03  0.88795791416E+03  0.00000000000E+00 0. -1.
         23    2    1    2    0    0  0.37824229680E+02  0.92738191000E+02  0.69167033955E+02  0.15235738947E+03  0.91638698805E+02 0.  0.
         23    2    1    2    0    0 -0.46647890753E+02 -0.11806136805E+03 -0.65229091983E+03  0.67099798153E+03  0.92953401175E+02 0.  0.
        -11    1    4    4    0    0  0.26988997272E+02 -0.21990972095E+02 -0.11070396047E+03  0.11604902279E+03  0.00000000000E+00 0.  1.
         11    1    4    4    0    0 -0.73636888025E+02 -0.96070395955E+02 -0.54158695936E+03  0.55494895874E+03  0.00000000000E+00 0. -1.
        -13    1    3    3    0    0 -0.52411367470E+01  0.58275010642E+02 -0.63369355742E+01  0.58852384253E+02  0.00000000000E+00 0. -1.
         13    1    3    3    0    0  0.43065366427E+02  0.34463180358E+02  0.75503969529E+02  0.93505005216E+02  0.00000000000E+00 0.  1.
         21    1    1    2  502  501  0.88236610730E+01  0.25323177049E+02 -0.18374501948E+03  0.18569155197E+03  0.00000000000E+00 0. -1.
<scales pt_clust_5="13000.00000" pt_clust_6="13000.00000" pt_clust_7="13000.00000" pt_clust_8="13000.00000" pt_clust_9="26.81642"></scales>
<clustering>
<clus scale="   26.816">  2  9  1 -1</clus>
<clus scale="   91.639">  7  8 -1 -1</clus>
<clus scale="   92.953">  5  6 -1 -1</clus>
<clus scale="  136.925">  1  7  2 -1</clus>
<clus scale="   26.816">  2  5  1 -1</clus>
</clustering>
</event>
<event>
 9    1  0.9000149E-006  0.1040782E+03  0.7546771E-02  0.1274869E+00
         -2   -1    0    0    0  501 -0.00000000000E+00  0.00000000000E+00  0.10012446104E+03  0.10012446104E+03  0.00000000000E+00 0.  1.
          2   -1    0    0  502    0  0.00000000000E+00 -0.00000000000E+00 -0.16833743402E+03  0.16833743402E+03  0.00000000000E+00 0. -1.
         23    2    1    2    0    0  0.34053407112E+01  0.43586202672E+02  0.38220895533E+02  0.10747326292E+03  0.90434020026E+02 0.  0.
         23    2    1    2    0    0  0.21224194284E+01 -0.22909618287E+02 -0.89852085944E+02  0.13391405390E+03  0.96593070191E+02 0.  0.
        -11    1    3    3    0    0  0.17961538529E+02  0.68919530955E+02  0.27726542635E+02  0.76428265582E+02  0.00000000000E+00 0.  1.
         11    1    3    3    0    0 -0.14556197817E+02 -0.25333328283E+02  0.10494352898E+02  0.31044997336E+02  0.00000000000E+00 0. -1.
        -13    1    4    4    0    0 -0.95738659871E+01  0.22894937096E+02  0.73026310842E+01  0.25868232938E+02  0.00000000000E+00 0.  1.
         13    1    4    4    0    0  0.11696285415E+02 -0.45804555383E+02 -0.97154717028E+02  0.10804582096E+03  0.00000000000E+00 0. -1.
         21    1    1    2  502  501 -0.55277601396E+01 -0.20676584385E+02 -0.16581782572E+02  0.27074578247E+02  0.00000000000E+00 0. -1.
<scales pt_clust_5="13000.00000" pt_clust_6="13000.00000" pt_clust_7="13000.00000" pt_clust_8="13000.00000" pt_clust_9="21.40274"></scales>
<clustering>
<clus scale="   21.403">  2  9  1 -1</clus>
<clus scale="   90.434">  5  6 -1 -1</clus>
<clus scale="   96.593">  7  8 -1 -1</clus>
<clus scale="   98.389">  1  5  2 -1</clus>
<clus scale="   21.403">  2  5  1 -1</clus>
</clustering>
</event>
<event>
 9    1  0.9000149E-006  0.9896200E+02  0.7546771E-02  0.1283705E+00
         -1   -1    0    0    0  501 -0.00000000000E+00  0.00000000000E+00  0.16243168699E+03  0.16243168699E+03  0.00000000000E+00 0.  1.
          1   -1    0    0  502    0  0.00000000000E+00 -0.00000000000E+00 -0.30109224027E+03  0.30109224027E+03  0.00000000000E+00 0. -1.
         23    2    1    2    0    0 -0.36206300061E+02 -0.10078171265E+01  0.13421355397E+03  0.16574243049E+03  0.90251666666E+02 0.  0.
         23    2    1    2    0    0  0.16824027705E+02 -0.46386664452E+01 -0.18524839807E+03  0.20786030812E+03  0.92651894587E+02 0.  0.
        -11    1    4    4    0    0  0.53235340924E+02 -0.41032103357E+01 -0.13962659676E+03  0.14948720474E+03  0.00000000000E+00 0. -1.
         11    1    4    4    0    0 -0.36411313219E+02 -0.53545610953E+00 -0.45621801308E+02  0.58373103380E+02  0.00000000000E+00 0.  1.
        -13    1    3    3    0    0 -0.59749996436E+02 -0.14199131320E+02  0.56402343167E+02  0.83384061541E+02  0.00000000000E+00 0.  1.
         13    1    3    3    0    0  0.23543696375E+02  0.13191314194E+02  0.77811210807E+02  0.82358368952E+02  0.00000000000E+00 0. -1.
         21    1    1    2  502  501  0.19382272356E+02  0.56464835717E+01 -0.87625709184E+02  0.89921188651E+02  0.00000000000E+00 0. -1.
<scales pt_clust_5="13000.00000" pt_clust_6="13000.00000" pt_clust_7="13000.00000" pt_clust_8="13000.00000" pt_clust_9="20.18800"></scales>
<clustering>
<clus scale="   20.188">  2  9  1 -1</clus>
<clus scale="   90.252">  7  8 -1 -1</clus>
<clus scale="   92.652">  5  6 -1 -1</clus>
<clus scale="   96.718">  1  7  2 -1</clus>
<clus scale="   20.188">  2  5  1 -1</clus>
</clustering>
</event>
<event>
 9    1  0.9000149E-006  0.9227148E+02  0.7546771E-02  0.1297759E+00
          1   -1    0    0  502    0  0.00000000000E+00  0.00000000000E+00  0.35067392151E+03  0.35067392151E+03  0.00000000000E+00 0. -1.
         -1   -1    0    0    0  501 -0.00000000000E+00 -0.00000000000E+00 -0.38782757186E+02  0.38782757186E+02  0.00000000000E+00 0.  1.
         23    2    1    2    0    0 -0.46290175802E+01 -0.39502649155E+01  0.55959907693E+02  0.10702247249E+03  0.91023436283E+02 0.  0.
         23    2    1    2    0    0  0.27095101373E+02  0.57920837657E+01  0.22154447839E+03  0.24131769206E+03  0.91567351402E+02 0.  0.
        -11    1    4    4    0    0 -0.14274310556E+02 -0.33203868525E+02  0.11511798041E+03  0.12065820420E+03  0.00000000000E+00 0.  1.
         11    1    4    4    0    0  0.41369411929E+02  0.38995952290E+02  0.10642649798E+03  0.12065948786E+03  0.00000000000E+00 0. -1.
        -11    1    3    3    0    0 -0.14288337380E+02  0.40029431369E+02  0.12166282288E+02  0.44210071087E+02  0.00000000000E+00 0.  1.
         11    1    3    3    0    0  0.96593197998E+01 -0.43979696284E+02  0.43793625405E+02  0.62812401406E+02  0.00000000000E+00 0. -1.
         21    1    1    2  502  501 -0.22466083793E+02 -0.18418188503E+01  0.34386778243E+02  0.41116514146E+02  0.00000000000E+00 0. -1.
<scales pt_clust_5="13000.00000" pt_clust_6="13000.00000" pt_clust_7="13000.00000" pt_clust_8="13000.00000" pt_clust_9="22.54146"></scales>
<clustering>
<clus scale="   22.541">  1  9  2 -1</clus>
<clus scale="   91.023">  7  8 -1 -1</clus>
<clus scale="   91.567">  5  6 -1 -1</clus>
<clus scale="   91.732">  2  7  1 -1</clus>
<clus scale="   22.541">  1  5  2 -1</clus>
</clustering>
</event>
<event>
 9    1  0.9000149E-006  0.9671237E+02  0.7546771E-02  0.1289685E+00
          3   -1    0    0  502    0  0.00000000000E+00  0.00000000000E+00  0.27167855949E+03  0.27167855949E+03  0.00000000000E+00 0. -1.
         -3   -1    0    0    0  501 -0.00000000000E+00 -0.00000000000E+00 -0.51790695323E+02  0.51790695323E+02  0.00000000000E+00 0.  1.
         23    2    1    2    0    0  0.40918581414E+01 -0.17589428965E+02  0.59777668034E+02  0.11013907613E+03  0.90725493553E+02 0.  0.
         23    2    1    2    0    0 -0.33919758160E+02 -0.47877679683E+01  0.96705030905E+02  0.13977300677E+03  0.94927117855E+02 0.  0.
        -11    1    4    4    0    0  0.24064905021E+02  0.14505651313E+01 -0.29694820218E+01  0.24290772247E+02  0.00000000000E+00 0.  1.
         11    1    4    4    0    0 -0.57984663181E+02 -0.62383330996E+01  0.99674512927E+02  0.11548223453E+03  0.00000000000E+00 0. -1.
        -13    1    3    3    0    0 -0.32189488356E+02  0.18721485212E+02  0.98198714489E+01  0.38510869173E+02  0.00000000000E+00 0. -1.
         13    1    3    3    0    0  0.36281346497E+02 -0.36310914177E+02  0.49957796585E+02  0.71628206955E+02  0.00000000000E+00 0.  1.
         21    1    1    2  502  501  0.29827900019E+02  0.22377196934E+02  0.63405165233E+02  0.73557171916E+02  0.00000000000E+00 0. -1.
<scales pt_clust_5="13000.00000" pt_clust_6="13000.00000" pt_clust_7="13000.00000" pt_clust_8="13000.00000" pt_clust_9="37.28864"></scales>
<clustering>
<clus scale="   37.289">  1  9  2 -1</clus>
<clus scale="   90.725">  7  8 -1 -1</clus>
<clus scale="   92.592">  2  7  1 -1</clus>
<clus scale="   94.927">  5  6 -1 -1</clus>
<clus scale="   37.289">  1  5  2 -1</clus>
</clustering>
</event>
<event>
 9    1  0.9000149E-006  0.1423504E+03  0.7546771E-02  0.1218668E+00
          2   -1    0    0  502    0  0.00000000000E+00  0.00000000000E+00  0.26281494250E+03  0.26281494250E+03  0.00000000000E+00 0. -1.
         -2   -1    0    0    0  501 -0.00000000000E+00 -0.00000000000E+00 -0.48713012903E+03  0.48713012903E+03  0.00000000000E+00 0.  1.
         23    2    1    2    0    0  0.96893670529E+02  0.25634548144E+02 -0.38686094716E+03  0.41116121756E+03  0.96678027179E+02 0.  0.
         23    2    1    2    0    0  0.74196986923E+02 -0.28476874978E+02  0.30967951336E+02  0.12293017254E+03  0.88525070083E+02 0.  0.
        -11    1    4    4    0    0 -0.11661170715E+02 -0.28950776500E+02 -0.12215600220E+01  0.31234957520E+02  0.00000000000E+00 0. -1.
         11    1    4    4    0    0  0.85858157638E+02  0.47390152174E+00  0.32189511358E+02  0.91695215018E+02  0.00000000000E+00 0.  1.
        -11    1    3    3    0    0  0.15189959380E+02  0.37057928617E+02 -0.23453136421E+03  0.23792642926E+03  0.00000000000E+00 0.  1.
         11    1    3    3    0    0  0.81703711149E+02 -0.11423380473E+02 -0.15232958295E+03  0.17323478830E+03  0.00000000000E+00 0. -1.
         21    1    1    2  502  501 -0.17109065745E+03  0.28423268341E+01  0.13157780930E+03  0.21585368144E+03  0.00000000000E+00 0. -1.
<scales pt_clust_5="13000.00000" pt_clust_6="13000.00000" pt_clust_7="13000.00000" pt_clust_8="13000.00000" pt_clust_9="104.48440"></scales>
<clustering>
<clus scale="   88.525">  5  6 -1 -1</clus>
<clus scale="   96.678">  7  8 -1 -1</clus>
<clus scale="  118.966">  1  5  2 -1</clus>
<clus scale="  104.484">  1  9  2 -1</clus>
<clus scale="  118.966">  1  5  2 -1</clus>
</clustering>
</event>
<event>
 9    1  0.9000149E-006  0.1651219E+03  0.7546771E-02  0.1206359E+00
          4   -1    0    0  502    0  0.00000000000E+00  0.00000000000E+00  0.18707502950E+03  0.18707502950E+03  0.00000000000E+00 0. -1.
         -4   -1    0    0    0  501 -0.00000000000E+00 -0.00000000000E+00 -0.30261090045E+03  0.30261090045E+03  0.00000000000E+00 0.  1.
         23    2    1    2    0    0 -0.14470901022E+03 -0.32959911504E+02 -0.17668335948E+03  0.24930871050E+03  0.94396876060E+02 0.  0.
         23    2    1    2    0    0  0.27475284254E+02  0.26005683887E+02  0.72002378030E+02  0.12243682599E+03  0.91516376003E+02 0.  0.
        -11    1    3    3    0    0 -0.39285651000E+02 -0.53359540812E+02 -0.48626675835E+02  0.82189759538E+02  0.00000000000E+00 0. -1.
         11    1    3    3    0    0 -0.10542335922E+03  0.20399629308E+02 -0.12805668364E+03  0.16711895096E+03  0.00000000000E+00 0.  1.
        -13    1    4    4    0    0  0.40085823922E+02  0.13835915341E+01 -0.51835797384E+01  0.40443257831E+02  0.00000000000E+00 0. -1.
         13    1    4    4    0    0 -0.12610539668E+02  0.24622092353E+02  0.77185957768E+02  0.81993568157E+02  0.00000000000E+00 0.  1.
         21    1    1    2  502  501  0.11723372596E+03  0.69542276170E+01 -0.10854889500E+02  0.11794039347E+03  0.00000000000E+00 0. -1.
<scales pt_clust_5="13000.00000" pt_clust_6="13000.00000" pt_clust_7="13000.00000" pt_clust_8="13000.00000" pt_clust_9="135.47870"></scales>
<clustering>
<clus scale="   91.516">  7  8 -1 -1</clus>
<clus scale="   94.397">  5  6 -1 -1</clus>
<clus scale="   99.027">  1  7  2 -1</clus>
<clus scale="  135.479">  1  9  2 -1</clus>
<clus scale="   99.027">  1  5  2 -1</clus>
</clustering>
</event>
<event>
 9    1  0.9000149E-006  0.1719145E+03  0.7546771E-02  0.1190048E+00
          1   -1    0    0  502    0  0.00000000000E+00  0.00000000000E+00  0.22932960644E+03  0.22932960644E+03  0.00000000000E+00 0. -1.
         -1   -1    0    0    0  501 -0.00000000000E+00 -0.00000000000E+00 -0.30363599783E+03  0.30363599783E+03  0.00000000000E+00 0.  1.
         23    2    1    2    0    0 -0.68248302383E+02 -0.50039681929E+02 -0.52651612545E+02  0.13580891667E+03  0.92250035222E+02 0.  0.
         23    2    1    2    0    0 -0.71947341937E+02  0.12775910809E+03  0.96608789212E+02  0.19795478144E+03  0.91400369962E+02 0.  0.
        -11    1    3    3    0    0 -0.39411952373E+02  0.10571381999E+02  0.12084143072E+02  0.42556816387E+02  0.00000000000E+00 0.  1.
         11    1    3    3    0    0 -0.28836350010E+02 -0.60611063928E+02 -0.64735755617E+02  0.93252100286E+02  0.00000000000E+00 0. -1.
        -13    1    4    4    0    0 -0.76036083149E+02  0.96513854595E+02  0.10885047944E+03  0.16414882559E+03  0.00000000000E+00 0.  1.
         13    1    4    4    0    0  0.40887412126E+01  0.31245253497E+02 -0.12241690230E+02  0.33805955844E+02  0.00000000000E+00 0. -1.
         21    1    1    2  502  501  0.14019564432E+03 -0.77719426163E+02 -0.11826356805E+03  0.19920190616E+03  0.00000000000E+00 0. -1.
<scales pt_clust_5="13000.00000" pt_clust_6="13000.00000" pt_clust_7="13000.00000" pt_clust_8="13000.00000" pt_clust_9="145.60419"></scales>
<clustering>
<clus scale="   91.400">  7  8 -1 -1</clus>
<clus scale="   92.250">  5  6 -1 -1</clus>
<clus scale="  125.187">  2  5  1 -1</clus>
<clus scale="  145.604">  2  9  1 -1</clus>
<clus scale="  171.915">  1  5  2 -1</clus>
</clustering>
</event>
<event>
 9    1  0.9000149E-006  0.2161956E+03  0.7546771E-02  0.1136883E+00
         -1   -1    0    0    0  501 -0.00000000000E+00  0.00000000000E+00  0.13676202791E+03  0.13676202791E+03  0.00000000000E+00 0.  1.
          1   -1    0    0  502    0  0.00000000000E+00 -0.00000000000E+00 -0.75208469348E+03  0.75208469348E+03  0.00000000000E+00 0. -1.
         23    2    1    2    0    0 -0.12679512665E+02 -0.19001862221E+03  0.16655393282E+01  0.21073647781E+03  0.90217748956E+02 0.  0.
         23    2    1    2    0    0  0.35167549655E+02  0.22165646784E+03 -0.52793634098E+03  0.58096653793E+03  0.91853098916E+02 0.  0.
        -13    1    3    3    0    0  0.16476186872E+02 -0.17213280467E+02 -0.23765128463E+02  0.33653277539E+02  0.00000000000E+00 0. -1.
         13    1    3    3    0    0 -0.29155699537E+02 -0.17280534175E+03  0.25430667791E+02  0.17708320027E+03  0.00000000000E+00 0.  1.
        -13    1    4    4    0    0  0.24756715998E+02  0.48521035447E+01 -0.47841558610E+02  0.54085604610E+02  0.00000000000E+00 0.  1.
         13    1    4    4    0    0  0.10410833657E+02  0.21680436429E+03 -0.48009478237E+03  0.52688093332E+03  0.00000000000E+00 0. -1.
         21    1    1    2  502  501 -0.22488036990E+02 -0.31637845623E+02 -0.89051863914E+02  0.97143705663E+02  0.00000000000E+00 0. -1.
<scales pt_clust_5="13000.00000" pt_clust_6="13000.00000" pt_clust_7="13000.00000" pt_clust_8="13000.00000" pt_clust_9="38.81578"></scales>
<clustering>
<clus scale="   38.816">  2  9  1 -1</clus>
<clus scale="   90.218">  5  6 -1 -1</clus>
<clus scale="   91.853">  7  8 -1 -1</clus>
<clus scale="  215.506">  1  5  2 -1</clus>
<clus scale="   38.816">  2  5  1 -1</clus>
</clustering>
</event>
<event>
 9    1  0.9000149E-006  0.1523408E+03  0.7546771E-02  0.1197650E+00
         -1   -1    0    0    0  501 -0.00000000000E+00  0.00000000000E+00  0.11318655207E+03  0.11318655207E+03  0.00000000000E+00 0.  1.
          1   -1    0    0  502    0  0.00000000000E+00 -0.00000000000E+00 -0.35204030811E+03  0.35204030811E+03  0.00000000000E+00 0. -1.
         23    2    1    2    0    0 -0.74935239036E+02  0.86953486743E+02  0.23103440826E+01  0.14628938463E+03  0.90658962379E+02 0.  0.
         23    2    1    2    0    0  0.10505555181E+03 -0.10405784552E+03 -0.20930524924E+03  0.27187604006E+03  0.90792012970E+02 0.  0.
        -13    1    3    3    0    0 -0.52699276179E+02  0.10464422968E+03 -0.37936517746E+01  0.11722636354E+03  0.00000000000E+00 0.  1.
         13    1    3    3    0    0 -0.22235962857E+02 -0.17690742933E+02  0.61039958571E+01  0.29063021094E+02  0.00000000000E+00 0. -1.
        -13    1    4    4    0    0  0.44777754325E+02  0.39583831040E+01 -0.30002917581E+02  0.54045269382E+02  0.00000000000E+00 0.  1.
         13    1    4    4    0    0  0.60277797485E+02 -0.10801622863E+03 -0.17930233166E+03  0.21783077068E+03  0.00000000000E+00 0. -1.
         21    1    1    2  502  501 -0.30120312774E+02  0.17104358780E+02 -0.31858850874E+02  0.47061435484E+02  0.00000000000E+00 0. -1.
<scales pt_clust_5="13000.00000" pt_clust_6="13000.00000" pt_clust_7="13000.00000" pt_clust_8="13000.00000" pt_clust_9="34.63802"></scales>
<clustering>
<clus scale="   34.638">  2  9  1 -1</clus>
<clus scale="   90.659">  5  6 -1 -1</clus>
<clus scale="   90.792">  7  8 -1 -1</clus>
<clus scale="  152.262">  1  5  2 -1</clus>
<clus scale="   34.638">  2  5  1 -1</clus>
</clustering>
</event>
<event>
 9    1  0.9000149E-006  0.1010972E+03  0.7546771E-02  0.1278022E+00
          1   -1    0    0  502    0  0.00000000000E+00  0.00000000000E+00  0.97310103728E+02  0.97310103728E+02  0.00000000000E+00 0. -1.
         -1   -1    0    0    0  501 -0.00000000000E+00 -0.00000000000E+00 -0.36048002639E+03  0.36048002639E+03  0.00000000000E+00 0.  1.
         23    2    1    2    0    0  0.31635109120E+02 -0.35068698295E+02 -0.26925480227E+03  0.28799737529E+03  0.90629718644E+02 0.  0.
         23    2    1    2    0    0 -0.48877414223E+02 -0.41382737636E+00 -0.38824033654E+02  0.11001719792E+03  0.90594179584E+02 0.  0.
        -13    1    4    4    0    0  0.26436615105E+02 -0.21271731477E+01 -0.17312962152E+02  0.31672671853E+02  0.00000000000E+00 0.  1.
         13    1    4    4    0    0 -0.75314029328E+02  0.17133457713E+01 -0.21511071501E+02  0.78344526066E+02  0.00000000000E+00 0. -1.
        -13    1    3    3    0    0  0.48017643337E+02  0.38627900755E+01 -0.20856612392E+03  0.21405710282E+03  0.00000000000E+00 0.  1.
         13    1    3    3    0    0 -0.16382534217E+02 -0.38931488371E+02 -0.60688678342E+02  0.73940272471E+02  0.00000000000E+00 0. -1.
         21    1    1    2  502  501  0.17242305103E+02  0.35482525672E+02  0.44908913260E+02  0.59775556907E+02  0.00000000000E+00 0. -1.
<scales pt_clust_5="13000.00000" pt_clust_6="13000.00000" pt_clust_7="13000.00000" pt_clust_8="13000.00000" pt_clust_9="39.45005"></scales>
<clustering>
<clus scale="   39.450">  1  9  2 -1</clus>
<clus scale="   90.594">  5  6 -1 -1</clus>
<clus scale="   90.630">  7  8 -1 -1</clus>
<clus scale="  101.065">  1  5  2 -1</clus>
<clus scale="   39.450">  1  5  2 -1</clus>
</clustering>
</event>
<event>
 9    1  0.1630953E-005  0.9333390E+02  0.7546771E-02  0.1296684E+00
         -3   -1    0    0    0  501 -0.00000000000E+00  0.00000000000E+00  0.15047813487E+03  0.15047813487E+03  0.00000000000E+00 0.  1.
          3   -1    0    0  502    0  0.00000000000E+00 -0.00000000000E+00 -0.41635446499E+03  0.41635446499E+03  0.00000000000E+00 0. -1.
         23    2    1    2    0    0 -0.80437694765E+01  0.95992063972E+01  0.12619850625E+03  0.15690388930E+03  0.92390045498E+02 0.  0.
         23    2    1    2    0    0  0.28563074017E+01 -0.33188827617E+02 -0.30742829929E+03  0.32190362190E+03  0.89443422450E+02 0.  0.
        -11    1    4    4    0    0  0.29337011671E+02 -0.50189592272E+02 -0.14079403398E+03  0.15232404745E+03  0.00000000000E+00 0. -1.
         11    1    4    4    0    0 -0.26480704270E+02  0.17000764655E+02 -0.16663426530E+03  0.16957957445E+03  0.00000000000E+00 0.  1.
        -13    1    3    3    0    0 -0.18540034305E+02  0.35144206690E+02  0.15235128022E+02  0.42555343516E+02  0.00000000000E+00 0. -1.
         13    1    3    3    0    0  0.10496264829E+02 -0.25545000293E+02  0.11096337823E+03  0.11434854578E+03  0.00000000000E+00 0.  1.
         21    1    1    2  502  501  0.51874620748E+01  0.23589621220E+02 -0.84646537088E+02  0.88025088657E+02  0.00000000000E+00 0. -1.
<scales pt_clust_5="13000.00000" pt_clust_6="13000.00000" pt_clust_7="13000.00000" pt_clust_8="13000.00000" pt_clust_9="24.15326"></scales>
<clustering>
<clus scale="   24.153">  2  9  1 -1</clus>
<clus scale="   89.443">  5  6 -1 -1</clus>
<clus scale="   90.418">  2  5  1 -1</clus>
<clus scale="   92.390">  7  8 -1 -1</clus>
<clus scale="   24.153">  2  5  1 -1</clus>
</clustering>
</event>
<event>
 9    1  0.9000149E-006  0.2410279E+03  0.7546771E-02  0.1119812E+00
         -2   -1    0    0    0  501 -0.00000000000E+00  0.00000000000E+00  0.19548550348E+03  0.19548550348E+03  0.00000000000E+00 0.  1.
          2   -1    0    0  502    0  0.00000000000E+00 -0.00000000000E+00 -0.75570072987E+03  0.75570072987E+03  0.00000000000E+00 0. -1.
         23    2    1    2    0    0 -0.14696509823E+03  0.76052115726E+02 -0.79067098905E+02  0.20681933562E+03  0.95603174912E+02 0.  0.
         23    2    1    2    0    0  0.30037259938E+03 -0.83070232056E+02 -0.10737574081E+03  0.34027666968E+03  0.84464787329E+02 0.  0.
        -11    1    3    3    0    0 -0.12490068162E+03  0.95855659941E+02 -0.81095884698E+02  0.17710175134E+03  0.00000000000E+00 0. -1.
         11    1    3    3    0    0 -0.22064416610E+02 -0.19803544216E+02  0.20287857922E+01  0.29717584284E+02  0.00000000000E+00 0.  1.
        -13    1    4    4    0    0  0.87269267700E+02 -0.41943564857E+02 -0.71342419244E+02  0.12027023115E+03  0.00000000000E+00 0. -1.
         13    1    4    4    0    0  0.21310333168E+03 -0.41126667199E+02 -0.36033321561E+02  0.22000643852E+03  0.00000000000E+00 0.  1.
         21    1    1    2  502  501 -0.15340750116E+03  0.70181163304E+01 -0.37377238668E+03  0.40409022806E+03  0.00000000000E+00 0. -1.
<scales pt_clust_5="13000.00000" pt_clust_6="13000.00000" pt_clust_7="13000.00000" pt_clust_8="13000.00000" pt_clust_9="153.56795"></scales>
<clustering>
<clus scale="   84.465">  7  8 -1 -1</clus>
<clus scale="   95.603">  5  6 -1 -1</clus>
<clus scale="  153.568">  2  9  1 -1</clus>
<clus scale="  236.831">  2  7  1 -1</clus>
<clus scale="  153.568">  2  5  1 -1</clus>
</clustering>
</event>
<event>
 9    1  0.9000149E-006  0.9139734E+02  0.7546771E-02  0.1300445E+00
          1   -1    0    0  502    0  0.00000000000E+00  0.00000000000E+00  0.43575888946E+02  0.43575888946E+02  0.00000000000E+00 0. -1.
         -1   -1    0    0    0  501 -0.00000000000E+00 -0.00000000000E+00 -0.33120742371E+03  0.33120742371E+03  0.00000000000E+00 0.  1.
         23    2    1    2    0    0  0.18223584476E+02  0.61247638783E+01 -0.19283252799E+03  0.21318645368E+03  0.88850821160E+02 0.  0.
         23    2    1    2    0    0  0.33793258740E+01  0.20220596725E+02 -0.50131093592E+02  0.10541869391E+03  0.90441595001E+02 0.  0.
        -13    1    4    4    0    0  0.27869574311E+02  0.46090209033E+02 -0.43387600469E+02  0.69162883221E+02  0.00000000000E+00 0.  1.
         13    1    4    4    0    0 -0.24490248437E+02 -0.25869612307E+02 -0.67434931225E+01  0.36255810692E+02  0.00000000000E+00 0. -1.
        -13    1    3    3    0    0 -0.13823151982E+02 -0.34329069766E+02 -0.10478675461E+03  0.11112978225E+03  0.00000000000E+00 0. -1.
         13    1    3    3    0    0  0.32046736458E+02  0.40453833645E+02 -0.88045773378E+02  0.10205667143E+03  0.00000000000E+00 0.  1.
         21    1    1    2  502  501 -0.21602910350E+02 -0.26345360604E+02 -0.44667913185E+02  0.56178165057E+02  0.00000000000E+00 0. -1.
<scales pt_clust_5="13000.00000" pt_clust_6="13000.00000" pt_clust_7="13000.00000" pt_clust_8="13000.00000" pt_clust_9="34.06998"></scales>
<clustering>
<clus scale="   34.070">  2  9  1 -1</clus>
<clus scale="   88.851">  7  8 -1 -1</clus>
<clus scale="   89.823">  2  7  1 -1</clus>
<clus scale="   90.442">  5  6 -1 -1</clus>
<clus scale="   91.397">  1  5  2 -1</clus>
</clustering>
</event>
<event>
 9    1  0.9000149E-006  0.2434712E+03  0.7546771E-02  0.1117712E+00
          1   -1    0    0  502    0  0.00000000000E+00  0.00000000000E+00  0.19929304706E+03  0.19929304706E+03  0.00000000000E+00 0. -1.
         -1   -1    0    0    0  501 -0.00000000000E+00 -0.00000000000E+00 -0.66494308646E+03  0.66494308646E+03  0.00000000000E+00 0.  1.
         23    2    1    2    0    0 -0.10548343459E+01  0.22198209358E+03 -0.52179577241E+03  0.57472004389E+03  0.93568895497E+02 0.  0.
         23    2    1    2    0    0 -0.12989636570E+02 -0.24184157665E+03  0.58821286305E+02  0.26504560095E+03  0.90183967565E+02 0.  0.
        -11    1    3    3    0    0  0.17557612884E+02  0.17835796472E+03 -0.47669130939E+03  0.50926853211E+03  0.00000000000E+00 0.  1.
         11    1    3    3    0    0 -0.18612447230E+02  0.43624128858E+02 -0.45104463017E+02  0.65451511782E+02  0.00000000000E+00 0. -1.
        -13    1    4    4    0    0 -0.30954086282E+02 -0.10010768467E+03  0.62726897192E+02  0.12212439404E+03  0.00000000000E+00 0.  1.
         13    1    4    4    0    0  0.17964449712E+02 -0.14173389198E+03 -0.39056108868E+01  0.14292120691E+03  0.00000000000E+00 0. -1.
         21    1    1    2  502  501  0.14044470916E+02  0.19859483066E+02 -0.26755533049E+01  0.24470488684E+02  0.00000000000E+00 0. -1.
<scales pt_clust_5="13000.00000" pt_clust_6="13000.00000" pt_clust_7="13000.00000" pt_clust_8="13000.00000" pt_clust_9="24.32378"></scales>
<clustering>
<clus scale="   24.324">  1  9  2 -1</clus>
<clus scale="   90.184">  7  8 -1 -1</clus>
<clus scale="   93.569">  5  6 -1 -1</clus>
<clus scale="  242.191">  1  7  2 -1</clus>
<clus scale="   24.324">  1  5  2 -1</clus>
</clustering>
</event>
<event>
 9    1  0.9000149E-006  0.9914727E+02  0.7546771E-02  0.1282584E+00
         -1   -1    0    0    0  501 -0.00000000000E+00  0.00000000000E+00  0.13771360505E+03  0.13771360505E+03  0.00000000000E+00 0.  1.
          1   -1    0    0  502    0  0.00000000000E+00 -0.00000000000E+00 -0.15400108362E+03  0.15400108362E+03  0.00000000000E+00 0. -1.
         23    2    1    2    0    0  0.38612959221E+02 -0.10065744895E+02  0.87361333494E+02  0.13224468349E+03  0.90908601805E+02 0.  0.
         23    2    1    2    0    0 -0.19082553191E+02  0.23859773317E+02 -0.77414993280E+02  0.12397457973E+03  0.91886792390E+02 0.  0.
        -11    1    3    3    0    0  0.10616772529E+02  0.17713001229E+02  0.90361840103E+02  0.92691576846E+02  0.00000000000E+00 0.  1.
         11    1    3    3    0    0  0.27996186692E+02 -0.27778746124E+02 -0.30005066083E+01  0.39553106647E+02  0.00000000000E+00 0. -1.
        -13    1    4    4    0    0 -0.34335540764E+02  0.51976515307E+02 -0.63929135135E+02  0.89260415763E+02  0.00000000000E+00 0. -1.
         13    1    4    4    0    0  0.15252987572E+02 -0.28116741990E+02 -0.13485858144E+02  0.34714163967E+02  0.00000000000E+00 0.  1.
         21    1    1    2  502  501 -0.19530406030E+02 -0.13794028422E+02 -0.26233818780E+02  0.35495425446E+02  0.00000000000E+00 0. -1.
<scales pt_clust_5="13000.00000" pt_clust_6="13000.00000" pt_clust_7="13000.00000" pt_clust_8="13000.00000" pt_clust_9="23.91050"></scales>
<clustering>
<clus scale="   23.910">  2  9  1 -1</clus>
<clus scale="   90.909">  5  6 -1 -1</clus>
<clus scale="   91.887">  7  8 -1 -1</clus>
<clus scale="   98.241">  1  5  2 -1</clus>
<clus scale="   23.910">  2  5  1 -1</clus>
</clustering>
</event>
<event>
 9    1  0.9000149E-006  0.1308115E+03  0.7546771E-02  0.1226917E+00
         -2   -1    0    0    0  501 -0.00000000000E+00  0.00000000000E+00  0.55561775235E+02  0.55561775235E+02  0.00000000000E+00 0.  1.
          2   -1    0    0  502    0  0.00000000000E+00 -0.00000000000E+00 -0.49145641836E+03  0.49145641836E+03  0.00000000000E+00 0. -1.
         23    2    1    2    0    0  0.75271201018E+02  0.81008488211E+02 -0.14477167036E+03  0.20437567779E+03  0.92641525599E+02 0.  0.
         23    2    1    2    0    0 -0.69081667097E+02 -0.43001466990E+02 -0.27249163416E+03  0.29986435818E+03  0.95108042385E+02 0.  0.
        -11    1    3    3    0    0 -0.74043805855E+01  0.19104441457E+02 -0.79726858228E+02  0.82317534330E+02  0.00000000000E+00 0. -1.
         11    1    3    3    0    0  0.82675581604E+02  0.61904046754E+02 -0.65044812136E+02  0.12205814346E+03  0.00000000000E+00 0.  1.
        -11    1    4    4    0    0 -0.11165505728E+01  0.20064609748E+02 -0.12098015106E+02  0.23456283146E+02  0.00000000000E+00 0.  1.
         11    1    4    4    0    0 -0.67965116525E+02 -0.63066076738E+02 -0.26039361905E+03  0.27640807503E+03  0.00000000000E+00 0. -1.
         21    1    1    2  502  501 -0.61895339211E+01 -0.38007021221E+02 -0.18631338603E+02  0.42778157632E+02  0.00000000000E+00 0. -1.
<scales pt_clust_5="13000.00000" pt_clust_6="13000.00000" pt_clust_7="13000.00000" pt_clust_8="13000.00000" pt_clust_9="38.50771"></scales>
<clustering>
<clus scale="   38.508">  1  9  2 -1</clus>
<clus scale="   92.642">  5  6 -1 -1</clus>
<clus scale="   95.108">  7  8 -1 -1</clus>
<clus scale="  129.029">  1  5  2 -1</clus>
<clus scale="  130.812">  2  5  1 -1</clus>
</clustering>
</event>
<event>
 9    1  0.9000149E-006  0.1005093E+03  0.7546771E-02  0.1279527E+00
          1   -1    0    0  502    0  0.00000000000E+00  0.00000000000E+00  0.59340125768E+02  0.59340125768E+02  0.00000000000E+00 0. -1.
         -1   -1    0    0    0  501 -0.00000000000E+00 -0.00000000000E+00 -0.30067246887E+03  0.30067246887E+03  0.00000000000E+00 0.  1.
         23    2    1    2    0    0  0.23233719738E+02 -0.38812605580E+02 -0.20963504578E+03  0.23288369371E+03  0.90784020024E+02 0.  0.
         23    2    1    2    0    0 -0.28718524669E+02  0.16239408859E+02 -0.14571662161E+02  0.98268553132E+02  0.91410629235E+02 0.  0.
        -11    1    4    4    0    0 -0.39505670736E+02  0.46261856994E+02  0.46694526594E+01  0.61013615046E+02  0.00000000000E+00 0. -1.
         11    1    4    4    0    0  0.10787146067E+02 -0.30022448134E+02 -0.19241114821E+02  0.37254938086E+02  0.00000000000E+00 0.  1.
        -13    1    3    3    0    0 -0.12542344041E+00 -0.65349480885E+02 -0.14888492358E+03  0.16259548226E+03  0.00000000000E+00 0.  1.
         13    1    3    3    0    0  0.23359143178E+02  0.26536875305E+02 -0.60750122204E+02  0.70288211449E+02  0.00000000000E+00 0. -1.
         21    1    1    2  502  501  0.54848049309E+01  0.22573196721E+02 -0.17125635158E+02  0.28860347795E+02  0.00000000000E+00 0. -1.
<scales pt_clust_5="13000.00000" pt_clust_6="13000.00000" pt_clust_7="13000.00000" pt_clust_8="13000.00000" pt_clust_9="23.22999"></scales>
<clustering>
<clus scale="   23.230">  1  9  2 -1</clus>
<clus scale="   90.784">  7  8 -1 -1</clus>
<clus scale="   91.411">  5  6 -1 -1</clus>
<clus scale="   99.940">  2  7  1 -1</clus>
<clus scale="   23.230">  1  5  2 -1</clus>
</clustering>
</event>
<event>
 9    1  0.9000149E-006  0.1305224E+03  0.7546771E-02  0.1226981E+00
          1   -1    0    0  502    0  0.00000000000E+00  0.00000000000E+00  0.13249873934E+03  0.13249873934E+03  0.00000000000E+00 0. -1.
         -1   -1    0    0    0  501 -0.00000000000E+00 -0.00000000000E+00 -0.28008925693E+03  0.28008925693E+03  0.00000000000E+00 0.  1.
         23    2    1    2    0    0  0.99634856601E+02 -0.33155952448E+01 -0.20699017627E+03  0.24800260091E+03  0.93393035952E+02 0.  0.
         23    2    1    2    0    0 -0.57334652484E+02 -0.96927027204E+01  0.45821042324E+02  0.11829390687E+03  0.92264129654E+02 0.  0.
        -11    1    3    3    0    0  0.10621475236E+03  0.17353513173E+02 -0.19619211144E+03  0.22377234555E+03  0.00000000000E+00 0.  1.
         11    1    3    3    0    0 -0.65798957603E+01 -0.20669108417E+02 -0.10798064824E+02  0.24230255362E+02  0.00000000000E+00 0. -1.
        -13    1    4    4    0    0 -0.17114625191E+01  0.25030381395E+02 -0.14685899744E+02  0.29071029360E+02  0.00000000000E+00 0.  1.
         13    1    4    4    0    0 -0.55623189965E+02 -0.34723084115E+02  0.60506942068E+02  0.89222877507E+02  0.00000000000E+00 0. -1.
         21    1    1    2  502  501 -0.42300204117E+02  0.13008297965E+02  0.13578616357E+02  0.46291488488E+02  0.00000000000E+00 0. -1.
<scales pt_clust_5="13000.00000" pt_clust_6="13000.00000" pt_clust_7="13000.00000" pt_clust_8="13000.00000" pt_clust_9="44.25520"></scales>
<clustering>
<clus scale="   44.255">  1  9  2 -1</clus>
<clus scale="   92.264">  7  8 -1 -1</clus>
<clus scale="   93.393">  5  6 -1 -1</clus>
<clus scale="  129.717">  1  7  2 -1</clus>
<clus scale="   44.255">  1  5  2 -1</clus>
</clustering>
</event>
<event>
 9    1  0.9000149E-006  0.9532192E+02  0.7546771E-02  0.1290657E+00
         -1   -1    0    0    0  501 -0.00000000000E+00  0.00000000000E+00  0.33404599119E+02  0.33404599119E+02  0.00000000000E+00 0.  1.
          1   -1    0    0  502    0  0.00000000000E+00 -0.00000000000E+00 -0.48741013757E+03  0.48741013757E+03  0.00000000000E+00 0. -1.
         23    2    1    2    0    0  0.67640456267E+01 -0.12022156137E+02 -0.91921119922E+02  0.13069911528E+03  0.91882979364E+02 0.  0.
         23    2    1    2    0    0 -0.30310434638E+02  0.38725925893E+02 -0.21497557581E+03  0.23875996290E+03  0.91506294351E+02 0.  0.
        -13    1    4    4    0    0 -0.13387195520E+02  0.67243311271E+02 -0.12058892667E+03  0.13871758775E+03  0.00000000000E+00 0. -1.
         13    1    4    4    0    0 -0.16923239118E+02 -0.28517385378E+02 -0.94386649139E+02  0.10004237516E+03  0.00000000000E+00 0.  1.
        -13    1    3    3    0    0  0.19390068105E+02 -0.30816153446E+02 -0.39182948744E+00  0.36411036578E+02  0.00000000000E+00 0.  1.
         13    1    3    3    0    0 -0.12626022479E+02  0.18793997309E+02 -0.91529290435E+02  0.94288078706E+02  0.00000000000E+00 0. -1.
         21    1    1    2  502  501  0.23546389012E+02 -0.26703769756E+02 -0.14710884271E+03  0.15135565850E+03  0.00000000000E+00 0.  1.
<scales pt_clust_5="13000.00000" pt_clust_6="13000.00000" pt_clust_7="13000.00000" pt_clust_8="13000.00000" pt_clust_9="35.60230"></scales>
<clustering>
<clus scale="   35.602">  2  9  1 -1</clus>
<clus scale="   91.506">  5  6 -1 -1</clus>
<clus scale="   91.883">  7  8 -1 -1</clus>
<clus scale="   94.959">  2  5  1 -1</clus>
<clus scale="   35.602">  2  5  1 -1</clus>
</clustering>
</event>
<event>
 9    1  0.9000149E-006  0.9979689E+02  0.7546771E-02  0.1280924E+00
          2   -1    0    0  502    0  0.00000000000E+00  0.00000000000E+00  0.18383866242E+03  0.18383866242E+03  0.00000000000E+00 0. -1.
         -2   -1    0    0    0  501 -0.00000000000E+00 -0.00000000000E+00 -0.12788320686E+03  0.12788320686E+03  0.00000000000E+00 0.  1.
         23    2    1    2    0    0  0.19884212645E+02  0.48886152013E+02 -0.52091100367E+02  0.11804545020E+03  0.91847742504E+02 0.  0.
         23    2    1    2    0    0 -0.31104082428E+02  0.79650373504E+01  0.41459621988E+02  0.10540545568E+03  0.91435792048E+02 0.  0.
        -13    1    3    3    0    0 -0.22689907467E+02  0.56289145185E+02 -0.41594801512E+02  0.73575996625E+02  0.00000000000E+00 0.  1.
         13    1    3    3    0    0  0.42574120112E+02 -0.74029931714E+01 -0.10496298855E+02  0.44469453571E+02  0.00000000000E+00 0. -1.
        -13    1    4    4    0    0 -0.51960376100E+02  0.17108160182E+02 -0.36996632847E+01  0.54829347412E+02  0.00000000000E+00 0.  1.
         13    1    4    4    0    0  0.20856293672E+02 -0.91431228314E+01  0.45159285273E+02  0.50576108265E+02  0.00000000000E+00 0. -1.
         21    1    1    2  502  501  0.11219869783E+02 -0.56851189364E+02  0.66586933935E+02  0.88270963408E+02  0.00000000000E+00 0. -1.
<scales pt_clust_5="13000.00000" pt_clust_6="13000.00000" pt_clust_7="13000.00000" pt_clust_8="13000.00000" pt_clust_9="57.94776"></scales>
<clustering>
<clus scale="   57.948">  1  9  2 -1</clus>
<clus scale="   91.436">  7  8 -1 -1</clus>
<clus scale="   91.848">  5  6 -1 -1</clus>
<clus scale="   99.418">  1  7  2 -1</clus>
<clus scale="   57.948">  1  5  2 -1</clus>
</clustering>
</event>
<event>
 9    1  0.9000149E-006  0.1164117E+03  0.7546771E-02  0.1249675E+00
          3   -1    0    0  502    0  0.00000000000E+00  0.00000000000E+00  0.70553286126E+02  0.70553286126E+02  0.00000000000E+00 0. -1.
         -3   -1    0    0    0  501 -0.00000000000E+00 -0.00000000000E+00 -0.31722867846E+03  0.31722867846E+03  0.00000000000E+00 0.  1.
         23    2    1    2    0    0  0.71800839946E+02 -0.16777132648E+02 -0.18081926304E+03  0.21502246705E+03  0.90012347224E+02 0.  0.
         23    2    1    2    0    0 -0.59005018564E+02  0.40753731848E+02 -0.80898463205E+02  0.14169694509E+03  0.91602423684E+02 0.  0.
        -13    1    4    4    0    0 -0.38821479041E+02 -0.25483137446E+02 -0.39906671578E+02  0.61229404419E+02  0.00000000000E+00 0.  1.
         13    1    4    4    0    0 -0.20183539523E+02  0.66236869294E+02 -0.40991791627E+02  0.80467540675E+02  0.00000000000E+00 0. -1.
        -13    1    3    3    0    0  0.47648791296E+02 -0.53681503307E+02 -0.12124224494E+03  0.14089639125E+03  0.00000000000E+00 0.  1.
         13    1    3    3    0    0  0.24152048651E+02  0.36904370659E+02 -0.59577018102E+02  0.74126075801E+02  0.00000000000E+00 0. -1.
         21    1    1    2  502  501 -0.12795821382E+02 -0.23976599200E+02  0.15042333919E+02  0.31062552435E+02  0.00000000000E+00 0.  1.
<scales pt_clust_5="13000.00000" pt_clust_6="13000.00000" pt_clust_7="13000.00000" pt_clust_8="13000.00000" pt_clust_9="27.17739"></scales>
<clustering>
<clus scale="   27.177">  1  9  2 -1</clus>
<clus scale="   90.012">  7  8 -1 -1</clus>
<clus scale="   91.602">  5  6 -1 -1</clus>
<clus scale="  115.165">  2  7  1 -1</clus>
<clus scale="   27.177">  1  5  2 -1</clus>
</clustering>
</event>
<event>
 9    1  0.9000149E-006  0.1020878E+03  0.7546771E-02  0.1276071E+00
          3   -1    0    0  502    0  0.00000000000E+00  0.00000000000E+00  0.42861296422E+02  0.42861296422E+02  0.00000000000E+00 0. -1.
         -3   -1    0    0    0  501 -0.00000000000E+00 -0.00000000000E+00 -0.56997087503E+03  0.56997087503E+03  0.00000000000E+00 0.  1.
         23    2    1    2    0    0 -0.29262083280E+02  0.25578585706E+02 -0.39240361767E+03  0.40500891210E+03  0.92417996906E+02 0.  0.
         23    2    1    2    0    0  0.15972437795E+02 -0.63200901804E+02 -0.12070887088E+03  0.16553884289E+03  0.92644504632E+02 0.  0.
        -13    1    3    3    0    0  0.84610805177E+01 -0.27145999345E+02 -0.60705533336E+02  0.67034744286E+02  0.00000000000E+00 0. -1.
         13    1    3    3    0    0 -0.37723163798E+02  0.52724585051E+02 -0.33169808434E+03  0.33797416781E+03  0.00000000000E+00 0.  1.
        -13    1    4    4    0    0 -0.21837987392E+02 -0.14480555548E+02 -0.95303567937E+02  0.98840043726E+02  0.00000000000E+00 0.  1.
         13    1    4    4    0    0  0.37810425187E+02 -0.48720346256E+02 -0.25405302939E+02  0.66698799161E+02  0.00000000000E+00 0. -1.
         21    1    1    2  502  501  0.13289645485E+02  0.37622316097E+02 -0.13997090058E+02  0.42284416464E+02  0.00000000000E+00 0. -1.
<scales pt_clust_5="13000.00000" pt_clust_6="13000.00000" pt_clust_7="13000.00000" pt_clust_8="13000.00000" pt_clust_9="39.90054"></scales>
<clustering>
<clus scale="   39.901">  1  9  2 -1</clus>
<clus scale="   92.418">  5  6 -1 -1</clus>
<clus scale="   92.645">  7  8 -1 -1</clus>
<clus scale="  101.882">  2  5  1 -1</clus>
<clus scale="   39.901">  1  5  2 -1</clus>
</clustering>
</event>
<event>
 9    1  0.9000149E-006  0.1286199E+03  0.7546771E-02  0.1230909E+00
          1   -1    0    0  502    0  0.00000000000E+00  0.00000000000E+00  0.23835138662E+03  0.23835138662E+03  0.00000000000E+00 0. -1.
         -1   -1    0    0    0  501 -0.00000000000E+00 -0.00000000000E+00 -0.39342425689E+03  0.39342425689E+03  0.00000000000E+00 0.  1.
         23    2    1    2    0    0  0.77159671638E+02  0.24768137809E+02 -0.32375743999E+03  0.34627969390E+03  0.92323728716E+02 0.  0.
         23    2    1    2    0    0 -0.13562596611E+03 -0.23695721567E+02  0.14529163001E+03  0.22251430709E+03  0.97196034942E+02 0.  0.
        -13    1    3    3    0    0  0.27152948034E+02  0.34714348631E+02 -0.26432400243E+03  0.26797303381E+03  0.00000000000E+00 0.  1.
         13    1    3    3    0    0  0.50006723604E+02 -0.99462108225E+01 -0.59433437563E+02  0.78306660100E+02  0.00000000000E+00 0. -1.
        -13    1    4    4    0    0 -0.13082411992E+03 -0.27711799993E+01  0.15147977582E+03  0.20017180689E+03  0.00000000000E+00 0. -1.
         13    1    4    4    0    0 -0.48018461882E+01 -0.20924541568E+02 -0.61881458156E+01  0.22342500202E+02  0.00000000000E+00 0.  1.
         21    1    1    2  502  501  0.58466294468E+02 -0.10724162414E+01  0.23392939715E+02  0.62981642515E+02  0.00000000000E+00 0.  1.
<scales pt_clust_5="13000.00000" pt_clust_6="13000.00000" pt_clust_7="13000.00000" pt_clust_8="13000.00000" pt_clust_9="58.47613"></scales>
<clustering>
<clus scale="   58.476">  1  9  2 -1</clus>
<clus scale="   92.324">  5  6 -1 -1</clus>
<clus scale="   97.196">  7  8 -1 -1</clus>
<clus scale="  124.979">  2  5  1 -1</clus>
<clus scale="   58.476">  1  5  2 -1</clus>
</clustering>
</event>
<event>
 9    1  0.9000149E-006  0.9956535E+02  0.7546771E-02  0.1285831E+00
         -1   -1    0    0    0  501 -0.00000000000E+00  0.00000000000E+00  0.16906150970E+03  0.16906150970E+03  0.00000000000E+00 0.  1.
          1   -1    0    0  502    0  0.00000000000E+00 -0.00000000000E+00 -0.19112117334E+03  0.19112117334E+03  0.00000000000E+00 0. -1.
         23    2    1    2    0    0  0.10236457830E+02  0.38266420490E+02  0.13200135683E+03  0.16108395299E+03  0.83394110692E+02 0.  0.
         23    2    1    2    0    0  0.84229975601E+01 -0.18998195736E+02 -0.94689683165E+02  0.13394970510E+03  0.92436513716E+02 0.  0.
        -13    1    3    3    0    0 -0.24582664556E+02  0.34264959271E+02  0.11427499259E+03  0.12180791748E+03  0.00000000000E+00 0.  1.
         13    1    3    3    0    0  0.34819122386E+02  0.40014612194E+01  0.17726364246E+02  0.39276035505E+02  0.00000000000E+00 0. -1.
        -13    1    4    4    0    0  0.21255573112E+02 -0.46373113029E+02 -0.89864144261E+02  0.10333358323E+03  0.00000000000E+00 0. -1.
         13    1    4    4    0    0 -0.12832575552E+02  0.27374917292E+02 -0.48255389040E+01  0.30616121860E+02  0.00000000000E+00 0.  1.
         21    1    1    2  502  501 -0.18659455390E+02 -0.19268224754E+02 -0.59371337300E+02  0.65149024961E+02  0.00000000000E+00 0. -1.
<scales pt_clust_5="13000.00000" pt_clust_6="13000.00000" pt_clust_7="13000.00000" pt_clust_8="13000.00000" pt_clust_9="26.82237"></scales>
<clustering>
<clus scale="   26.822">  2  9  1 -1</clus>
<clus scale="   83.394">  5  6 -1 -1</clus>
<clus scale="   91.232">  1  5  2 -1</clus>
<clus scale="   92.437">  7  8 -1 -1</clus>
<clus scale="   26.822">  2  5  1 -1</clus>
</clustering>
</event>
<event>
 9    1  0.9000149E-006  0.1922778E+03  0.7546771E-02  0.1169207E+00
          1   -1    0    0  502    0  0.00000000000E+00  0.00000000000E+00  0.44317509071E+03  0.44317509071E+03  0.00000000000E+00 0. -1.
         -1   -1    0    0    0  501 -0.00000000000E+00 -0.00000000000E+00 -0.33931626545E+03  0.33931626545E+03  0.00000000000E+00 0.  1.
         23    2    1    2    0    0  0.10909757239E+03  0.17616224047E+02 -0.20484361385E+03  0.24981577262E+03  0.90743608384E+02 0.  0.
         23    2    1    2    0    0  0.13367839123E+03 -0.47748061032E+02  0.20771229588E+03  0.26801144707E+03  0.92390195820E+02 0.  0.
        -11    1    3    3    0    0  0.26491592057E+02 -0.32404482189E+02 -0.93417529909E+02  0.10236547177E+03  0.00000000000E+00 0.  1.
         11    1    3    3    0    0  0.82605980328E+02  0.50020706236E+02 -0.11142608395E+03  0.14745030085E+03  0.00000000000E+00 0. -1.
        -13    1    4    4    0    0  0.81262541323E+02 -0.53252589004E+02  0.18822340430E+03  0.21181947215E+03  0.00000000000E+00 0. -1.
         13    1    4    4    0    0  0.52415849904E+02  0.55045279719E+01  0.19488891587E+02  0.56191974913E+02  0.00000000000E+00 0.  1.
         21    1    1    2  502  501 -0.24277596361E+03  0.30131836985E+02  0.10099014322E+03  0.26466413648E+03  0.00000000000E+00 0.  1.
<scales pt_clust_5="13000.00000" pt_clust_6="13000.00000" pt_clust_7="13000.00000" pt_clust_8="13000.00000" pt_clust_9="168.62627"></scales>
<clustering>
<clus scale="   90.744">  5  6 -1 -1</clus>
<clus scale="   92.390">  7  8 -1 -1</clus>
<clus scale="  142.993">  2  5  1 -1</clus>
<clus scale="  168.626">  2  9  1 -1</clus>
<clus scale="  192.278">  1  5  2 -1</clus>
</clustering>
</event>
<event>
 9    1  0.9000149E-006  0.1137573E+03  0.7546771E-02  0.1254262E+00
          1   -1    0    0  502    0  0.00000000000E+00  0.00000000000E+00  0.48283682089E+02  0.48283682089E+02  0.00000000000E+00 0. -1.
         -1   -1    0    0    0  501 -0.00000000000E+00 -0.00000000000E+00 -0.53351222251E+03  0.53351222251E+03  0.00000000000E+00 0.  1.
         23    2    1    2    0    0 -0.46773750044E+02  0.64118234323E+02 -0.38237264513E+03  0.40098680937E+03  0.91009064823E+02 0.  0.
         23    2    1    2    0    0  0.12905272954E+02 -0.25651914647E+02 -0.58707112205E+02  0.11316409144E+03  0.92385170738E+02 0.  0.
        -11    1    4    4    0    0  0.44484371131E+02 -0.40796030096E+02 -0.27796355461E+02  0.66451581798E+02  0.00000000000E+00 0. -1.
         11    1    4    4    0    0 -0.31579098177E+02  0.15144115449E+02 -0.30910756744E+02  0.46712509640E+02  0.00000000000E+00 0.  1.
        -13    1    3    3    0    0  0.83607374383E+01  0.56628045507E+02 -0.12235992633E+03  0.13508733857E+03  0.00000000000E+00 0.  1.
         13    1    3    3    0    0 -0.55134487482E+02  0.74901888158E+01 -0.26001271880E+03  0.26589947081E+03  0.00000000000E+00 0. -1.
         21    1    1    2  502  501  0.33868477090E+02 -0.38466319676E+02 -0.44148783086E+02  0.67645003790E+02  0.00000000000E+00 0. -1.
<scales pt_clust_5="13000.00000" pt_clust_6="13000.00000" pt_clust_7="13000.00000" pt_clust_8="13000.00000" pt_clust_9="51.25165"></scales>
<clustering>
<clus scale="   51.252">  1  9  2 -1</clus>
<clus scale="   91.009">  7  8 -1 -1</clus>
<clus scale="   92.385">  5  6 -1 -1</clus>
<clus scale="  112.643">  2  7  1 -1</clus>
<clus scale="   51.252">  1  5  2 -1</clus>
</clustering>
</event>
<event>
 9    1  0.9000149E-006  0.1005558E+03  0.7546771E-02  0.1280107E+00
         -1   -1    0    0    0  501 -0.00000000000E+00  0.00000000000E+00  0.48615472833E+02  0.48615472833E+02  0.00000000000E+00 0.  1.
          1   -1    0    0  502    0  0.00000000000E+00 -0.00000000000E+00 -0.48276872482E+03  0.48276872482E+03  0.00000000000E+00 0. -1.
         23    2    1    2    0    0 -0.37826868342E+02  0.10019439952E+02 -0.81705601222E+02  0.13148709641E+03  0.95298426567E+02 0.  0.
         23    2    1    2    0    0 -0.20701118953E+02 -0.59051249921E+02 -0.20050286537E+03  0.22984751584E+03  0.93342889791E+02 0.  0.
        -13    1    4    4    0    0 -0.19728008237E+01 -0.80428986851E+02 -0.17045506092E+03  0.18848777590E+03  0.00000000000E+00 0. -1.
         13    1    4    4    0    0 -0.18728318129E+02  0.21377736930E+02 -0.30047804448E+02  0.41359739945E+02  0.00000000000E+00 0.  1.
        -13    1    3    3    0    0  0.18609959107E+02  0.32372174688E+02 -0.51698161109E+02  0.63772942021E+02  0.00000000000E+00 0.  1.
         13    1    3    3    0    0 -0.56436827449E+02 -0.22352734736E+02 -0.30007440114E+02  0.67714154391E+02  0.00000000000E+00 0. -1.
         21    1    1    2  502  501  0.58527987295E+02  0.49031809969E+02 -0.15194478539E+03  0.17004958540E+03  0.00000000000E+00 0. -1.
<scales pt_clust_5="13000.00000" pt_clust_6="13000.00000" pt_clust_7="13000.00000" pt_clust_8="13000.00000" pt_clust_9="76.35210"></scales>
<clustering>
<clus scale="   76.352">  2  9  1 -1</clus>
<clus scale="   93.343">  5  6 -1 -1</clus>
<clus scale="   95.298">  7  8 -1 -1</clus>
<clus scale="   98.704">  2  5  1 -1</clus>
<clus scale="   76.352">  2  5  1 -1</clus>
</clustering>
</event>
<event>
 9    1  0.9000149E-006  0.9981497E+02  0.7546771E-02  0.1281019E+00
          1   -1    0    0  502    0  0.00000000000E+00  0.00000000000E+00  0.56636871762E+02  0.56636871762E+02  0.00000000000E+00 0. -1.
         -1   -1    0    0    0  501 -0.00000000000E+00 -0.00000000000E+00 -0.25499021388E+03  0.25499021388E+03  0.00000000000E+00 0.  1.
         23    2    1    2    0    0  0.60709072894E+01  0.53974964442E+02 -0.10458363726E+03  0.14751281036E+03  0.88725077267E+02 0.  0.
         23    2    1    2    0    0 -0.28205524163E+02 -0.27281787252E+02 -0.81921005768E+02  0.12746923957E+03  0.89428789216E+02 0.  0.
        -13    1    3    3    0    0  0.32320005551E+02  0.54748912819E+02 -0.10320528243E+03  0.12121615624E+03  0.00000000000E+00 0.  1.
         13    1    3    3    0    0 -0.26249098262E+02 -0.77394837713E+00 -0.13783548325E+01  0.26296654116E+02  0.00000000000E+00 0. -1.
        -13    1    4    4    0    0 -0.53076409516E+02  0.41605011755E+01 -0.27633335725E+02  0.59983466559E+02  0.00000000000E+00 0.  1.
         13    1    4    4    0    0  0.24870885352E+02 -0.31442288427E+02 -0.54287670043E+02  0.67485773008E+02  0.00000000000E+00 0. -1.
         21    1    1    2  502  501  0.22134616874E+02 -0.26693177190E+02 -0.11848699093E+02  0.36645035719E+02  0.00000000000E+00 0. -1.
<scales pt_clust_5="13000.00000" pt_clust_6="13000.00000" pt_clust_7="13000.00000" pt_clust_8="13000.00000" pt_clust_9="34.67661"></scales>
<clustering>
<clus scale="   34.677">  1  9  2 -1</clus>
<clus scale="   88.725">  5  6 -1 -1</clus>
<clus scale="   89.429">  7  8 -1 -1</clus>
<clus scale="   99.185">  2  5  1 -1</clus>
<clus scale="   34.677">  1  5  2 -1</clus>
</clustering>
</event>
<event>
 9    1  0.9000149E-006  0.1003611E+03  0.7546771E-02  0.1281031E+00
          1   -1    0    0  502    0  0.00000000000E+00  0.00000000000E+00  0.44191905601E+03  0.44191905601E+03  0.00000000000E+00 0. -1.
         -1   -1    0    0    0  501 -0.00000000000E+00 -0.00000000000E+00 -0.16064446329E+03  0.16064446329E+03  0.00000000000E+00 0.  1.
         23    2    1    2    0    0 -0.32345578697E+02 -0.34124613723E+01 -0.13372605313E+03  0.16592974569E+03  0.92693807059E+02 0.  0.
         23    2    1    2    0    0 -0.37853435091E+01 -0.19254035632E+01  0.25158049645E+03  0.26918204453E+03  0.95646175562E+02 0.  0.
        -13    1    4    4    0    0 -0.15648190831E+02  0.42594139083E+02  0.85081788076E+02  0.96426330547E+02  0.00000000000E+00 0.  1.
         13    1    4    4    0    0  0.11862847322E+02 -0.44519542646E+02  0.16649870838E+03  0.17275571399E+03  0.00000000000E+00 0. -1.
        -13    1    3    3    0    0 -0.32462418863E+01 -0.39599557393E+02 -0.23115249465E+02  0.45967138153E+02  0.00000000000E+00 0. -1.
         13    1    3    3    0    0 -0.29099336810E+02  0.36187096021E+02 -0.11061080366E+03  0.11996260754E+03  0.00000000000E+00 0.  1.
         21    1    1    2  502  501  0.36130922206E+02  0.53378649356E+01  0.16342014939E+03  0.16745172907E+03  0.00000000000E+00 0. -1.
<scales pt_clust_5="13000.00000" pt_clust_6="13000.00000" pt_clust_7="13000.00000" pt_clust_8="13000.00000" pt_clust_9="36.52309"></scales>
<clustering>
<clus scale="   36.523">  1  9  2 -1</clus>
<clus scale="   92.694">  7  8 -1 -1</clus>
<clus scale="   95.646">  5  6 -1 -1</clus>
<clus scale="   97.552">  2  7  1 -1</clus>
<clus scale="   36.523">  1  5  2 -1</clus>
</clustering>
</event>
<event>
 9    1  0.9000149E-006  0.1043492E+03  0.7546771E-02  0.1272058E+00
         -1   -1    0    0    0  501 -0.00000000000E+00  0.00000000000E+00  0.85197113368E+02  0.85197113368E+02  0.00000000000E+00 0.  1.
          1   -1    0    0  502    0  0.00000000000E+00 -0.00000000000E+00 -0.31259292072E+03  0.31259292072E+03  0.00000000000E+00 0. -1.
         23    2    1    2    0    0  0.22490916322E+01  0.27432386076E+02 -0.22289387543E+02  0.98545766500E+02  0.91961171584E+02 0.  0.
         23    2    1    2    0    0 -0.44123449161E+02 -0.93607617720E+02 -0.11007678292E+03  0.17610509840E+03  0.90481173086E+02 0.  0.
        -13    1    4    4    0    0 -0.12832596740E+02  0.16915154400E+02 -0.26980047300E+02  0.34332505585E+02  0.00000000000E+00 0. -1.
         13    1    4    4    0    0 -0.31290852421E+02 -0.11052277212E+03 -0.83096735623E+02  0.14177259282E+03  0.00000000000E+00 0.  1.
        -13    1    3    3    0    0  0.41191927689E+02  0.26444788122E+02  0.74795429442E+01  0.49518130904E+02  0.00000000000E+00 0.  1.
         13    1    3    3    0    0 -0.38942836056E+02  0.98759795379E+00 -0.29768930487E+02  0.49027635596E+02  0.00000000000E+00 0. -1.
         21    1    1    2  502  501  0.41874357529E+02  0.66175231643E+02 -0.95029636890E+02  0.12313916919E+03  0.00000000000E+00 0. -1.
<scales pt_clust_5="13000.00000" pt_clust_6="13000.00000" pt_clust_7="13000.00000" pt_clust_8="13000.00000" pt_clust_9="78.31107"></scales>
<clustering>
<clus scale="   78.311">  2  9  1 -1</clus>
<clus scale="   90.481">  5  6 -1 -1</clus>
<clus scale="   91.961">  7  8 -1 -1</clus>
<clus scale="  103.047">  2  5  1 -1</clus>
<clus scale="   78.311">  2  5  1 -1</clus>
</clustering>
</event>
<event>
 9    1  0.9000149E-006  0.1180737E+03  0.7546771E-02  0.1247992E+00
          1   -1    0    0  502    0  0.00000000000E+00  0.00000000000E+00  0.55375322434E+03  0.55375322434E+03  0.00000000000E+00 0. -1.
         -1   -1    0    0    0  501 -0.00000000000E+00 -0.00000000000E+00 -0.31748117351E+02  0.31748117351E+02  0.00000000000E+00 0.  1.
         23    2    1    2    0    0 -0.30981721818E+02  0.66690986394E+02  0.21813843373E+03  0.24933246806E+03  0.95784908018E+02 0.  0.
         23    2    1    2    0    0  0.45121048696E+00 -0.67527207317E+02  0.23896362510E+03  0.26443870531E+03  0.90907026271E+02 0.  0.
        -13    1    4    4    0    0  0.44209306951E+02 -0.27922642690E+02  0.88203278276E+02  0.10253757894E+03  0.00000000000E+00 0. -1.
         13    1    4    4    0    0 -0.43758096464E+02 -0.39604564627E+02  0.15076034682E+03  0.16190112637E+03  0.00000000000E+00 0.  1.
        -13    1    3    3    0    0 -0.44237279716E+02 -0.74901296720E+01  0.92986241130E+02  0.10324475773E+03  0.00000000000E+00 0.  1.
         13    1    3    3    0    0  0.13255557898E+02  0.74181116066E+02  0.12515219260E+03  0.14608771033E+03  0.00000000000E+00 0. -1.
         21    1    1    2  502  501  0.30530511331E+02  0.83622092244E+00  0.64903048152E+02  0.71730168318E+02  0.00000000000E+00 0. -1.
<scales pt_clust_5="13000.00000" pt_clust_6="13000.00000" pt_clust_7="13000.00000" pt_clust_8="13000.00000" pt_clust_9="30.54196"></scales>
<clustering>
<clus scale="   30.542">  1  9  2 -1</clus>
<clus scale="   90.907">  5  6 -1 -1</clus>
<clus scale="   95.785">  7  8 -1 -1</clus>
<clus scale="  114.152">  1  5  2 -1</clus>
<clus scale="   30.542">  1  5  2 -1</clus>
</clustering>
</event>
<event>
 9    1  0.9000149E-006  0.1118248E+03  0.7546771E-02  0.1257266E+00
         -1   -1    0    0    0  501 -0.00000000000E+00  0.00000000000E+00  0.30521159914E+02  0.30521159914E+02  0.00000000000E+00 0.  1.
          1   -1    0    0  502    0  0.00000000000E+00 -0.00000000000E+00 -0.59041137338E+03  0.59041137338E+03  0.00000000000E+00 0. -1.
         23    2    1    2    0    0  0.44492674449E+02  0.32369300106E+02 -0.18461778822E+03  0.21357091529E+03  0.92203245413E+02 0.  0.
         23    2    1    2    0    0 -0.44252647529E+02 -0.59773571514E+02 -0.22207088647E+03  0.25172819232E+03  0.92306161906E+02 0.  0.
        -11    1    4    4    0    0  0.28545930477E+02 -0.22462929992E+02 -0.58898449544E+02  0.69198849191E+02  0.00000000000E+00 0.  1.
         11    1    4    4    0    0 -0.72798578006E+02 -0.37310641522E+02 -0.16317243693E+03  0.18252934313E+03  0.00000000000E+00 0. -1.
        -13    1    3    3    0    0  0.64117101532E+02  0.41539350231E+02 -0.17270985893E+03  0.18885236482E+03  0.00000000000E+00 0. -1.
         13    1    3    3    0    0 -0.19624427084E+02 -0.91700501249E+01 -0.11907929287E+02  0.24718550474E+02  0.00000000000E+00 0.  1.
         21    1    1    2  502  501 -0.24002692020E+00  0.27404271409E+02 -0.15320153878E+03  0.15563342568E+03  0.00000000000E+00 0.  1.
<scales pt_clust_5="13000.00000" pt_clust_6="13000.00000" pt_clust_7="13000.00000" pt_clust_8="13000.00000" pt_clust_9="27.40532"></scales>
<clustering>
<clus scale="   27.405">  2  9  1 -1</clus>
<clus scale="   92.203">  7  8 -1 -1</clus>
<clus scale="   92.306">  5  6 -1 -1</clus>
<clus scale="  111.740">  1  7  2 -1</clus>
<clus scale="   27.405">  2  5  1 -1</clus>
</clustering>
</event>
<event>
 9    1  0.9000149E-006  0.1203558E+03  0.7546771E-02  0.1242758E+00
         -1   -1    0    0    0  501 -0.00000000000E+00  0.00000000000E+00  0.19274651837E+03  0.19274651837E+03  0.00000000000E+00 0.  1.
          1   -1    0    0  502    0  0.00000000000E+00 -0.00000000000E+00 -0.30386748543E+03  0.30386748543E+03  0.00000000000E+00 0. -1.
         23    2    1    2    0    0 -0.22180868914E+02  0.76308998962E+02  0.15287471750E+03  0.19503122886E+03  0.91386250119E+02 0.  0.
         23    2    1    2    0    0 -0.15320226879E+01 -0.62082607681E+02 -0.16607166537E+03  0.19982912649E+03  0.92169867560E+02 0.  0.
        -11    1    4    4    0    0  0.71295237599E+01 -0.84722333560E+02 -0.14299014558E+03  0.16635770390E+03  0.00000000000E+00 0. -1.
         11    1    4    4    0    0 -0.86615464478E+01  0.22639725879E+02 -0.23081519787E+02  0.33471422593E+02  0.00000000000E+00 0.  1.
        -13    1    3    3    0    0  0.22316289301E+02  0.72077061541E+02  0.10751492254E+03  0.13134906980E+03  0.00000000000E+00 0.  1.
         13    1    3    3    0    0 -0.44497158215E+02  0.42319374208E+01  0.45359794965E+02  0.63682159062E+02  0.00000000000E+00 0. -1.
         21    1    1    2  502  501  0.23712891602E+02 -0.14226391281E+02 -0.97924019191E+02  0.10175364844E+03  0.00000000000E+00 0.  1.
<scales pt_clust_5="13000.00000" pt_clust_6="13000.00000" pt_clust_7="13000.00000" pt_clust_8="13000.00000" pt_clust_9="27.65305"></scales>
<clustering>
<clus scale="   27.653">  2  9  1 -1</clus>
<clus scale="   91.386">  7  8 -1 -1</clus>
<clus scale="   92.170">  5  6 -1 -1</clus>
<clus scale="  119.757">  1  7  2 -1</clus>
<clus scale="   27.653">  2  5  1 -1</clus>
</clustering>
</event>
<event>
 9    1  0.9000149E-006  0.9289147E+02  0.7546771E-02  0.1296450E+00
          1   -1    0    0  502    0  0.00000000000E+00  0.00000000000E+00  0.20714449766E+03  0.20714449766E+03  0.00000000000E+00 0. -1.
         -1   -1    0    0    0  501 -0.00000000000E+00 -0.00000000000E+00 -0.10235043413E+03  0.10235043413E+03  0.00000000000E+00 0.  1.
         23    2    1    2    0    0  0.24904403670E+02 -0.20942644460E+02 -0.20604555766E+02  0.99632259124E+02  0.91886972203E+02 0.  0.
         23    2    1    2    0    0  0.31067488830E+02 -0.20113427723E+02  0.81643542767E+02  0.12780805344E+03  0.91101545606E+02 0.  0.
        -11    1    4    4    0    0  0.48142039903E+02 -0.44859689446E+02  0.42042603403E+02  0.78087311671E+02  0.00000000000E+00 0.  1.
         11    1    4    4    0    0 -0.17074551073E+02  0.24746261723E+02  0.39600939364E+02  0.49720741770E+02  0.00000000000E+00 0. -1.
        -13    1    3    3    0    0  0.40383592439E+02 -0.49537806992E+02 -0.20487520937E+02  0.67116073887E+02  0.00000000000E+00 0.  1.
         13    1    3    3    0    0 -0.15479188769E+02  0.28595162532E+02 -0.11703482914E+00  0.32516185237E+02  0.00000000000E+00 0. -1.
         21    1    1    2  502  501 -0.55971892500E+02  0.41056072183E+02  0.43755076527E+02  0.82054619218E+02  0.00000000000E+00 0. -1.
<scales pt_clust_5="13000.00000" pt_clust_6="13000.00000" pt_clust_7="13000.00000" pt_clust_8="13000.00000" pt_clust_9="69.41508"></scales>
<clustering>
<clus scale="   69.415">  1  9  2 -1</clus>
<clus scale="   91.102">  5  6 -1 -1</clus>
<clus scale="   91.887">  7  8 -1 -1</clus>
<clus scale="   92.115">  1  5  2 -1</clus>
<clus scale="   69.415">  1  5  2 -1</clus>
</clustering>
</event>
<event>
 9    1  0.9000149E-006  0.9851634E+02  0.7546771E-02  0.1283653E+00
         -2   -1    0    0    0  501 -0.00000000000E+00  0.00000000000E+00  0.14133547758E+03  0.14133547758E+03  0.00000000000E+00 0.  1.
          2   -1    0    0  502    0  0.00000000000E+00 -0.00000000000E+00 -0.86427360439E+02  0.86427360439E+02  0.00000000000E+00 0. -1.
         23    2    1    2    0    0 -0.45548807031E+02 -0.74043490115E+01  0.35838559111E+02  0.10749771115E+03  0.90232130517E+02 0.  0.
         23    2    1    2    0    0  0.31148440508E+02 -0.81796891532E+01  0.22434639430E+02  0.98781259094E+02  0.90649277113E+02 0.  0.
        -11    1    3    3    0    0 -0.48910204541E+02  0.30438336107E+02  0.36847598200E+01  0.57725885598E+02  0.00000000000E+00 0. -1.
         11    1    3    3    0    0  0.33613975100E+01 -0.37842685118E+02  0.32153799291E+02  0.49771825555E+02  0.00000000000E+00 0.  1.
        -13    1    4    4    0    0  0.49661467795E+02  0.12727256225E+02  0.40661396393E+02  0.65433887178E+02  0.00000000000E+00 0.  1.
         13    1    4    4    0    0 -0.18513027286E+02 -0.20906945378E+02 -0.18226756963E+02  0.33347371916E+02  0.00000000000E+00 0. -1.
         21    1    1    2  502  501  0.14400366523E+02  0.15584038165E+02 -0.33650814032E+01  0.21483867770E+02  0.00000000000E+00 0. -1.
<scales pt_clust_5="13000.00000" pt_clust_6="13000.00000" pt_clust_7="13000.00000" pt_clust_8="13000.00000" pt_clust_9="21.21869"></scales>
<clustering>
<clus scale="   21.219">  2  9  1 -1</clus>
<clus scale="   90.232">  5  6 -1 -1</clus>
<clus scale="   90.649">  7  8 -1 -1</clus>
<clus scale="   98.133">  1  5  2 -1</clus>
<clus scale="   21.219">  2  5  1 -1</clus>
</clustering>
</event>
<event>
 9    1  0.9000149E-006  0.9454245E+02  0.7546771E-02  0.1294016E+00
          1   -1    0    0  502    0  0.00000000000E+00  0.00000000000E+00  0.14873789874E+03  0.14873789874E+03  0.00000000000E+00 0. -1.
         -1   -1    0    0    0  501 -0.00000000000E+00 -0.00000000000E+00 -0.16430029971E+03  0.16430029971E+03  0.00000000000E+00 0.  1.
         23    2    1    2    0    0 -0.55546353803E+01 -0.11270226975E+02 -0.11597286047E+03  0.14949683793E+03  0.93497209552E+02 0.  0.
         23    2    1    2    0    0  0.26341695748E+02  0.67869114652E+01  0.45662580270E+02  0.10480864156E+03  0.90331793997E+02 0.  0.
        -11    1    3    3    0    0 -0.22919060550E+02  0.17939641297E+01  0.74573283300E+01  0.24168437881E+02  0.00000000000E+00 0. -1.
         11    1    3    3    0    0  0.17364425169E+02 -0.13064191105E+02 -0.12343018880E+03  0.12532840005E+03  0.00000000000E+00 0.  1.
        -11    1    4    4    0    0  0.39805062634E+02 -0.30357830273E+02  0.41603218729E+02  0.65091233502E+02  0.00000000000E+00 0.  1.
         11    1    4    4    0    0 -0.13463366887E+02  0.37144741739E+02  0.40593615416E+01  0.39717408058E+02  0.00000000000E+00 0. -1.
         21    1    1    2  502  501 -0.20787060367E+02  0.44833155103E+01  0.54747879231E+02  0.58732718965E+02  0.00000000000E+00 0. -1.
<scales pt_clust_5="13000.00000" pt_clust_6="13000.00000" pt_clust_7="13000.00000" pt_clust_8="13000.00000" pt_clust_9="21.26504"></scales>
<clustering>
<clus scale="   21.265">  1  9  2 -1</clus>
<clus scale="   90.332">  7  8 -1 -1</clus>
<clus scale="   91.413">  1  7  2 -1</clus>
<clus scale="   93.497">  5  6 -1 -1</clus>
<clus scale="   21.265">  1  5  2 -1</clus>
</clustering>
</event>
<event>
 9    1  0.9000149E-006  0.1374524E+03  0.7546771E-02  0.1217070E+00
          1   -1    0    0  502    0  0.00000000000E+00  0.00000000000E+00  0.77599094669E+03  0.77599094669E+03  0.00000000000E+00 0. -1.
         -1   -1    0    0    0  501 -0.00000000000E+00 -0.00000000000E+00 -0.35084711514E+02  0.35084711514E+02  0.00000000000E+00 0.  1.
         23    2    1    2    0    0 -0.10040329938E+03  0.17521753751E+02  0.20301938997E+03  0.24462505198E+03  0.90756316426E+02 0.  0.
         23    2    1    2    0    0  0.96658138402E+02 -0.49313842044E+02  0.37676263754E+03  0.40217713483E+03  0.89564010604E+02 0.  0.
        -11    1    4    4    0    0  0.32525430699E+02 -0.53374357304E+02  0.99016311248E+02  0.11709378956E+03  0.00000000000E+00 0.  1.
         11    1    4    4    0    0  0.64132707703E+02  0.40605152606E+01  0.27774632629E+03  0.28508334527E+03  0.00000000000E+00 0. -1.
        -13    1    3    3    0    0 -0.30408600414E+02  0.42486558710E+02  0.41130423900E+02  0.66494378862E+02  0.00000000000E+00 0. -1.
         13    1    3    3    0    0 -0.69994698967E+02 -0.24964804958E+02  0.16188896607E+03  0.17813067311E+03  0.00000000000E+00 0.  1.
         21    1    1    2  502  501  0.37451609790E+01  0.31792088292E+02  0.16112420767E+03  0.16427347140E+03  0.00000000000E+00 0.  1.
<scales pt_clust_5="13000.00000" pt_clust_6="13000.00000" pt_clust_7="13000.00000" pt_clust_8="13000.00000" pt_clust_9="32.01192"></scales>
<clustering>
<clus scale="   32.012">  1  9  2 -1</clus>
<clus scale="   89.564">  5  6 -1 -1</clus>
<clus scale="   90.756">  7  8 -1 -1</clus>
<clus scale="  136.668">  1  5  2 -1</clus>
<clus scale="   32.012">  1  5  2 -1</clus>
</clustering>
</event>
<event>
 9    1  0.9000149E-006  0.9378060E+02  0.7546771E-02  0.1295237E+00
         -1   -1    0    0    0  501 -0.00000000000E+00  0.00000000000E+00  0.15612028095E+03  0.15612028095E+03  0.00000000000E+00 0.  1.
          1   -1    0    0  502    0  0.00000000000E+00 -0.00000000000E+00 -0.21252623640E+03  0.21252623640E+03  0.00000000000E+00 0. -1.
         23    2    1    2    0    0 -0.19694913586E+02 -0.17561034692E+02  0.12098333787E+03  0.15328104807E+03  0.90342858574E+02 0.  0.
         23    2    1    2    0    0 -0.23471024991E+01  0.19177478250E+02 -0.16936436502E+03  0.19185243381E+03  0.88032855547E+02 0.  0.
        -13    1    3    3    0    0 -0.21770877383E+02 -0.45382583238E+02  0.11385635288E+03  0.12448622034E+03  0.00000000000E+00 0. -1.
         13    1    3    3    0    0  0.20759637971E+01  0.27821548546E+02  0.71269849928E+01  0.28794827735E+02  0.00000000000E+00 0.  1.
        -13    1    4    4    0    0  0.30243181366E+02 -0.20605392423E+01 -0.17323412353E+02  0.34914129757E+02  0.00000000000E+00 0.  1.
         13    1    4    4    0    0 -0.32590283865E+02  0.21238017492E+02 -0.15204095267E+03  0.15693830405E+03  0.00000000000E+00 0. -1.
         21    1    1    2  502  501  0.22042016085E+02 -0.16164435578E+01 -0.80249283002E+01  0.23513035472E+02  0.00000000000E+00 0.  1.
<scales pt_clust_5="13000.00000" pt_clust_6="13000.00000" pt_clust_7="13000.00000" pt_clust_8="13000.00000" pt_clust_9="22.10121"></scales>
<clustering>
<clus scale="   22.101">  2  9  1 -1</clus>
<clus scale="   88.033">  7  8 -1 -1</clus>
<clus scale="   90.343">  5  6 -1 -1</clus>
<clus scale="   91.557">  2  7  1 -1</clus>
<clus scale="   22.101">  2  5  1 -1</clus>
</clustering>
</event>
<event>
 9    1  0.9000149E-006  0.9981537E+02  0.7546771E-02  0.1289897E+00
         -2   -1    0    0    0  501 -0.00000000000E+00  0.00000000000E+00  0.30502208731E+03  0.30502208731E+03  0.00000000000E+00 0.  1.
          2   -1    0    0  502    0  0.00000000000E+00 -0.00000000000E+00 -0.15010213537E+03  0.15010213537E+03  0.00000000000E+00 0. -1.
         23    2    1    2    0    0  0.26382026084E+02  0.11007025726E+02  0.26830232922E+03  0.28613979581E+03  0.95250600866E+02 0.  0.
         23    2    1    2    0    0 -0.43372483677E+02 -0.23653998663E+00 -0.50255926097E+02  0.10273016020E+03  0.78400251372E+02 0.  0.
        -11    1    4    4    0    0  0.10286950158E+02  0.22352757289E+02  0.17448898453E+01  0.24668030780E+02  0.00000000000E+00 0.  1.
         11    1    4    4    0    0 -0.53659433834E+02 -0.22589297276E+02 -0.52000815942E+02  0.78062129419E+02  0.00000000000E+00 0. -1.
        -13    1    3    3    0    0 -0.23840927429E+02  0.30709692425E+02  0.64437421696E+02  0.75257267718E+02  0.00000000000E+00 0. -1.
         13    1    3    3    0    0  0.50222953513E+02 -0.19702666698E+02  0.20386490753E+03  0.21088252810E+03  0.00000000000E+00 0.  1.
         21    1    1    2  502  501  0.16990457593E+02 -0.10770485740E+02 -0.63126451191E+02  0.66254266672E+02  0.00000000000E+00 0. -1.
<scales pt_clust_5="13000.00000" pt_clust_6="13000.00000" pt_clust_7="13000.00000" pt_clust_8="13000.00000" pt_clust_9="20.11664"></scales>
<clustering>
<clus scale="   20.117">  2  9  1 -1</clus>
<clus scale="   78.400">  5  6 -1 -1</clus>
<clus scale="   83.887">  2  5  1 -1</clus>
<clus scale="   95.251">  7  8 -1 -1</clus>
<clus scale="   20.117">  2  5  1 -1</clus>
</clustering>
</event>
<event>
 9    1  0.9000149E-006  0.1341369E+03  0.7546771E-02  0.1221964E+00
          4   -1    0    0  502    0  0.00000000000E+00  0.00000000000E+00  0.89391796261E+02  0.89391796261E+02  0.00000000000E+00 0. -1.
         -4   -1    0    0    0  501 -0.00000000000E+00 -0.00000000000E+00 -0.30020034367E+03  0.30020034367E+03  0.00000000000E+00 0.  1.
         23    2    1    2    0    0  0.20983234560E+01  0.80524537285E+02 -0.90377090658E+02  0.15201483371E+03  0.91934145367E+02 0.  0.
         23    2    1    2    0    0 -0.34173692439E+02 -0.11464584849E+03 -0.11828066654E+03  0.19069746970E+03  0.89798090423E+02 0.  0.
        -11    1    4    4    0    0 -0.12036421440E+02 -0.94055407662E+02 -0.12767815420E+03  0.15903775090E+03  0.00000000000E+00 0.  1.
         11    1    4    4    0    0 -0.22137270999E+02 -0.20590440826E+02  0.93974876551E+01  0.31659718807E+02  0.00000000000E+00 0. -1.
        -11    1    3    3    0    0 -0.40233070648E+02  0.23330827051E+02 -0.16255821849E+02  0.49267425431E+02  0.00000000000E+00 0.  1.
         11    1    3    3    0    0  0.42331394104E+02  0.57193710235E+02 -0.74121268808E+02  0.10274740827E+03  0.00000000000E+00 0. -1.
         21    1    1    2  502  501  0.32075368983E+02  0.34121311202E+02 -0.21507902082E+01  0.46879836519E+02  0.00000000000E+00 0. -1.
<scales pt_clust_5="13000.00000" pt_clust_6="13000.00000" pt_clust_7="13000.00000" pt_clust_8="13000.00000" pt_clust_9="46.83047"></scales>
<clustering>
<clus scale="   46.830">  1  9  2 -1</clus>
<clus scale="   89.798">  5  6 -1 -1</clus>
<clus scale="   91.934">  7  8 -1 -1</clus>
<clus scale="  132.682">  1  5  2 -1</clus>
<clus scale="   46.830">  1  5  2 -1</clus>
</clustering>
</event>
<event>
 9    1  0.9000149E-006  0.9622510E+02  0.7546771E-02  0.1289173E+00
         -2   -1    0    0    0  501 -0.00000000000E+00  0.00000000000E+00  0.13847971921E+03  0.13847971921E+03  0.00000000000E+00 0.  1.
          2   -1    0    0  502    0  0.00000000000E+00 -0.00000000000E+00 -0.23047770430E+03  0.23047770430E+03  0.00000000000E+00 0. -1.
         23    2    1    2    0    0 -0.16452431361E+02 -0.11220755650E+02  0.95025689840E+02  0.13406526223E+03  0.92450121436E+02 0.  0.
         23    2    1    2    0    0  0.10018945712E+02  0.44547391230E+02 -0.16215712355E+03  0.19281604270E+03  0.93798956650E+02 0.  0.
        -11    1    3    3    0    0  0.37877430680E+02 -0.13162772887E+02  0.43501825039E+02  0.59163900536E+02  0.00000000000E+00 0. -1.
         11    1    3    3    0    0 -0.54329862041E+02  0.19420172366E+01  0.51523864801E+02  0.74901361699E+02  0.00000000000E+00 0.  1.
        -11    1    4    4    0    0  0.47451044962E+02  0.30933840767E+02 -0.12936758340E+03  0.14122491213E+03  0.00000000000E+00 0. -1.
         11    1    4    4    0    0 -0.37432099250E+02  0.13613550463E+02 -0.32789540148E+02  0.51591130571E+02  0.00000000000E+00 0.  1.
         21    1    1    2  502  501  0.64334856488E+01 -0.33326635580E+02 -0.24866551382E+02  0.42076118574E+02  0.00000000000E+00 0.  1.
<scales pt_clust_5="13000.00000" pt_clust_6="13000.00000" pt_clust_7="13000.00000" pt_clust_8="13000.00000" pt_clust_9="33.94193"></scales>
<clustering>
<clus scale="   33.942">  2  9  1 -1</clus>
<clus scale="   92.450">  5  6 -1 -1</clus>
<clus scale="   93.799">  7  8 -1 -1</clus>
<clus scale="   94.911">  1  5  2 -1</clus>
<clus scale="   33.942">  2  5  1 -1</clus>
</clustering>
</event>
<event>
 9    1  0.9000149E-006  0.9812435E+02  0.7546771E-02  0.1284665E+00
         -3   -1    0    0    0  501 -0.00000000000E+00  0.00000000000E+00  0.78925958668E+03  0.78925958668E+03  0.00000000000E+00 0.  1.
          3   -1    0    0  502    0  0.00000000000E+00 -0.00000000000E+00 -0.23604109084E+02  0.23604109084E+02  0.00000000000E+00 0. -1.
         23    2    1    2    0    0 -0.22182863038E+02  0.77663549335E+01  0.43950424325E+03  0.44949010251E+03  0.91241310476E+02 0.  0.
         23    2    1    2    0    0  0.64393456287E+02 -0.26245015321E+02  0.23284506410E+03  0.25930997580E+03  0.90495975776E+02 0.  0.
        -11    1    4    4    0    0  0.14950208102E+02  0.27526635004E+02  0.28681383136E+02  0.42471709355E+02  0.00000000000E+00 0.  1.
         11    1    4    4    0    0  0.49443248185E+02 -0.53771650325E+02  0.20416368097E+03  0.21683826645E+03  0.00000000000E+00 0. -1.
        -11    1    3    3    0    0 -0.52495329648E+02 -0.16618939170E+02  0.27355862783E+03  0.27904528599E+03  0.00000000000E+00 0. -1.
         11    1    3    3    0    0  0.30312466610E+02  0.24385294104E+02  0.16594561542E+03  0.17044481651E+03  0.00000000000E+00 0.  1.
         21    1    1    2  502  501 -0.42210593249E+02  0.18478660387E+02  0.93306170250E+02  0.10406361746E+03  0.00000000000E+00 0. -1.
<scales pt_clust_5="13000.00000" pt_clust_6="13000.00000" pt_clust_7="13000.00000" pt_clust_8="13000.00000" pt_clust_9="46.07814"></scales>
<clustering>
<clus scale="   46.078">  2  9  1 -1</clus>
<clus scale="   90.496">  5  6 -1 -1</clus>
<clus scale="   91.241">  7  8 -1 -1</clus>
<clus scale="   97.432">  2  5  1 -1</clus>
<clus scale="   46.078">  2  5  1 -1</clus>
</clustering>
</event>
<event>
 9    1  0.9000149E-006  0.1572122E+03  0.7546771E-02  0.1191927E+00
         -3   -1    0    0    0  501 -0.00000000000E+00  0.00000000000E+00  0.12936825478E+03  0.12936825478E+03  0.00000000000E+00 0.  1.
          3   -1    0    0  502    0  0.00000000000E+00 -0.00000000000E+00 -0.36278206220E+03  0.36278206220E+03  0.00000000000E+00 0. -1.
         23    2    1    2    0    0 -0.11011635901E+03 -0.75375257948E+02  0.26483152040E+02  0.16435209384E+03  0.92212859057E+02 0.  0.
         23    2    1    2    0    0  0.76320461394E+02  0.85447946509E+02 -0.14038723112E+03  0.20319406222E+03  0.91940675821E+02 0.  0.
        -11    1    4    4    0    0  0.99584990600E+01  0.68761717756E+02 -0.10566426726E+03  0.12646059825E+03  0.00000000000E+00 0. -1.
         11    1    4    4    0    0  0.66361962334E+02  0.16686228754E+02 -0.34722963858E+02  0.76733463977E+02  0.00000000000E+00 0.  1.
        -13    1    3    3    0    0 -0.10197420964E+03 -0.22425079334E+02 -0.40262075229E+00  0.10441161678E+03  0.00000000000E+00 0. -1.
         13    1    3    3    0    0 -0.81421493705E+01 -0.52950178615E+02  0.26885772793E+02  0.59940477062E+02  0.00000000000E+00 0.  1.
         21    1    1    2  502  501  0.33795897620E+02 -0.10072688561E+02 -0.11950972833E+03  0.12460416091E+03  0.00000000000E+00 0. -1.
<scales pt_clust_5="13000.00000" pt_clust_6="13000.00000" pt_clust_7="13000.00000" pt_clust_8="13000.00000" pt_clust_9="35.26502"></scales>
<clustering>
<clus scale="   35.265">  2  9  1 -1</clus>
<clus scale="   91.941">  5  6 -1 -1</clus>
<clus scale="   92.213">  7  8 -1 -1</clus>
<clus scale="  157.053">  2  5  1 -1</clus>
<clus scale="   35.265">  2  5  1 -1</clus>
</clustering>
</event>
<event>
 9    1  0.9000149E-006  0.1966257E+03  0.7546771E-02  0.1153149E+00
          2   -1    0    0  502    0  0.00000000000E+00  0.00000000000E+00  0.34877137772E+03  0.34877137772E+03  0.00000000000E+00 0. -1.
         -2   -1    0    0    0  501 -0.00000000000E+00 -0.00000000000E+00 -0.20690396287E+03  0.20690396287E+03  0.00000000000E+00 0.  1.
         23    2    1    2    0    0 -0.61315235307E+01 -0.18666696091E+03 -0.58026228444E+02  0.21577625247E+03  0.91160287763E+02 0.  0.
         23    2    1    2    0    0  0.20335322391E+02  0.14779888895E+03  0.50088797123E+02  0.18448362281E+03  0.96266726215E+02 0.  0.
        -13    1    3    3    0    0  0.13034485553E+02 -0.12731667523E+03  0.36883000779E+01  0.12803529655E+03  0.00000000000E+00 0. -1.
         13    1    3    3    0    0 -0.19166009083E+02 -0.59350285680E+02 -0.61714528521E+02  0.87740955916E+02  0.00000000000E+00 0.  1.
        -13    1    4    4    0    0  0.46027700462E+02  0.10677754873E+03  0.65790136075E+02  0.13359766513E+03  0.00000000000E+00 0.  1.
         13    1    4    4    0    0 -0.25692378071E+02  0.41021340223E+02 -0.15701338952E+02  0.50885957685E+02  0.00000000000E+00 0. -1.
         21    1    1    2  502  501 -0.14203798860E+02  0.38868071963E+02  0.14980484617E+03  0.15541546531E+03  0.00000000000E+00 0.  1.
<scales pt_clust_5="13000.00000" pt_clust_6="13000.00000" pt_clust_7="13000.00000" pt_clust_8="13000.00000" pt_clust_9="41.38206"></scales>
<clustering>
<clus scale="   41.382">  1  9  2 -1</clus>
<clus scale="   91.160">  5  6 -1 -1</clus>
<clus scale="   96.267">  7  8 -1 -1</clus>
<clus scale="  194.177">  2  5  1 -1</clus>
<clus scale="   41.382">  1  5  2 -1</clus>
</clustering>
</event>
<event>
 9    1  0.9000149E-006  0.1167548E+03  0.7546771E-02  0.1253358E+00
          1   -1    0    0  502    0  0.00000000000E+00  0.00000000000E+00  0.47041880603E+02  0.47041880603E+02  0.00000000000E+00 0. -1.
         -1   -1    0    0    0  501 -0.00000000000E+00 -0.00000000000E+00 -0.39260915976E+03  0.39260915976E+03  0.00000000000E+00 0.  1.
         23    2    1    2    0    0 -0.58249656485E+02  0.17409597634E+02 -0.20547892030E+03  0.23265686677E+03  0.90617406708E+02 0.  0.
         23    2    1    2    0    0  0.48427814582E+02  0.47344097041E+00 -0.14662580146E+03  0.18556965950E+03  0.10291499162E+03 0.  0.
        -13    1    3    3    0    0 -0.52886890249E+01 -0.21794220757E+02 -0.13228505388E+03  0.13417262675E+03  0.00000000000E+00 0.  1.
         13    1    3    3    0    0 -0.52960967460E+02  0.39203818391E+02 -0.73193866423E+02  0.98484240022E+02  0.00000000000E+00 0. -1.
        -13    1    4    4    0    0 -0.28814123990E+02 -0.13442468434E+02 -0.23424583816E+02  0.39492592038E+02  0.00000000000E+00 0.  1.
         13    1    4    4    0    0  0.77241938572E+02  0.13915909404E+02 -0.12320121764E+03  0.14607706746E+03  0.00000000000E+00 0. -1.
         21    1    1    2  502  501  0.98218419026E+01 -0.17883038604E+02  0.65374426067E+01  0.21424514088E+02  0.00000000000E+00 0.  1.
<scales pt_clust_5="13000.00000" pt_clust_6="13000.00000" pt_clust_7="13000.00000" pt_clust_8="13000.00000" pt_clust_9="20.40274"></scales>
<clustering>
<clus scale="   20.403">  1  9  2 -1</clus>
<clus scale="   90.617">  5  6 -1 -1</clus>
<clus scale="  102.915">  7  8 -1 -1</clus>
<clus scale="  106.074">  2  5  1 -1</clus>
<clus scale="   20.403">  1  5  2 -1</clus>
</clustering>
</event>
<event>
 9    1  0.9000149E-006  0.9464271E+02  0.7546771E-02  0.1292114E+00
         -2   -1    0    0    0  501 -0.00000000000E+00  0.00000000000E+00  0.91040358912E+02  0.91040358912E+02  0.00000000000E+00 0.  1.
          2   -1    0    0  502    0  0.00000000000E+00 -0.00000000000E+00 -0.19642853649E+03  0.19642853649E+03  0.00000000000E+00 0. -1.
         23    2    1    2    0    0  0.87685074343E+00  0.20468826568E+02 -0.41728870366E+01  0.91657853997E+02  0.89241288005E+02 0.  0.
         23    2    1    2    0    0 -0.27030721616E+02 -0.38681321212E+02 -0.12452246168E+02  0.10149986514E+03  0.88995840725E+02 0.  0.
        -11    1    4    4    0    0  0.12638145620E+02 -0.45986499116E+02 -0.31230344493E+02  0.57007150804E+02  0.00000000000E+00 0.  1.
         11    1    4    4    0    0 -0.39668867236E+02  0.73051779041E+01  0.18778098325E+02  0.44492714332E+02  0.00000000000E+00 0. -1.
        -13    1    3    3    0    0 -0.24494360562E+02  0.22022859233E+02 -0.37390853379E+02  0.49830271368E+02  0.00000000000E+00 0. -1.
         13    1    3    3    0    0  0.25371211306E+02 -0.15540326651E+01  0.33217966343E+02  0.41827582629E+02  0.00000000000E+00 0.  1.
         21    1    1    2  502  501  0.26153870872E+02  0.18212494644E+02 -0.88763044377E+02  0.94311176273E+02  0.00000000000E+00 0.  1.
<scales pt_clust_5="13000.00000" pt_clust_6="13000.00000" pt_clust_7="13000.00000" pt_clust_8="13000.00000" pt_clust_9="31.87036"></scales>
<clustering>
<clus scale="   31.870">  2  9  1 -1</clus>
<clus scale="   88.996">  5  6 -1 -1</clus>
<clus scale="   89.241">  7  8 -1 -1</clus>
<clus scale="   94.411">  2  5  1 -1</clus>
<clus scale="   31.870">  2  5  1 -1</clus>
</clustering>
</event>
<event>
 9    1  0.9000149E-006  0.9707039E+02  0.7546771E-02  0.1290178E+00
         -1   -1    0    0    0  501 -0.00000000000E+00  0.00000000000E+00  0.35901903155E+03  0.35901903155E+03  0.00000000000E+00 0.  1.
          1   -1    0    0  502    0  0.00000000000E+00 -0.00000000000E+00 -0.33084762960E+02  0.33084762960E+02  0.00000000000E+00 0. -1.
         23    2    1    2    0    0  0.13622925765E+02 -0.36116602508E+02  0.16604289473E+03  0.19457272590E+03  0.93799305372E+02 0.  0.
         23    2    1    2    0    0  0.40751643866E+01  0.16692844746E+02  0.11296733958E+03  0.14375031226E+03  0.87219690631E+02 0.  0.
        -13    1    3    3    0    0  0.13562913920E+02  0.29070045862E+02  0.30950783595E+02  0.44575455191E+02  0.00000000000E+00 0. -1.
         13    1    3    3    0    0  0.60011845462E-01 -0.65186648370E+02  0.13509211114E+03  0.14999727071E+03  0.00000000000E+00 0.  1.
        -13    1    4    4    0    0  0.41504948453E+02  0.27215419787E+02  0.56666302299E+02  0.75328677385E+02  0.00000000000E+00 0. -1.
         13    1    4    4    0    0 -0.37429784066E+02 -0.10522575041E+02  0.56301037277E+02  0.68421634877E+02  0.00000000000E+00 0.  1.
         21    1    1    2  502  501 -0.17698090152E+02  0.19423757762E+02  0.46924034282E+02  0.53780756353E+02  0.00000000000E+00 0. -1.
<scales pt_clust_5="13000.00000" pt_clust_6="13000.00000" pt_clust_7="13000.00000" pt_clust_8="13000.00000" pt_clust_9="26.27746"></scales>
<clustering>
<clus scale="   26.277">  1  9  2 -1</clus>
<clus scale="   87.220">  7  8 -1 -1</clus>
<clus scale="   90.728">  2  7  1 -1</clus>
<clus scale="   93.799">  5  6 -1 -1</clus>
<clus scale="   90.728">  2  5  1 -1</clus>
</clustering>
</event>
<event>
 9    1  0.9000149E-006  0.2297267E+03  0.7546771E-02  0.1126981E+00
          1   -1    0    0  502    0  0.00000000000E+00  0.00000000000E+00  0.13018531877E+03  0.13018531877E+03  0.00000000000E+00 0. -1.
         -1   -1    0    0    0  501 -0.00000000000E+00 -0.00000000000E+00 -0.72024310572E+03  0.72024310572E+03  0.00000000000E+00 0.  1.
         23    2    1    2    0    0 -0.21784298255E+03  0.36999453198E+02 -0.39950687341E+03  0.46541382362E+03  0.90442029631E+02 0.  0.
         23    2    1    2    0    0  0.18494197151E+03 -0.72524245710E+02 -0.23353783604E+03  0.32026614207E+03  0.92559072247E+02 0.  0.
        -11    1    3    3    0    0 -0.89497133953E+02 -0.21304328712E+01 -0.84857207364E+02  0.12334918472E+03  0.00000000000E+00 0. -1.
         11    1    3    3    0    0 -0.12834584860E+03  0.39129886069E+02 -0.31464966605E+03  0.34206463889E+03  0.00000000000E+00 0.  1.
        -13    1    4    4    0    0  0.73801828159E+02  0.17817897938E+02 -0.82352720293E+02  0.11200963292E+03  0.00000000000E+00 0.  1.
         13    1    4    4    0    0  0.11114014335E+03 -0.90342143648E+02 -0.15118511575E+03  0.20825650916E+03  0.00000000000E+00 0. -1.
         21    1    1    2  502  501  0.32901011043E+02  0.35524792512E+02  0.42986922501E+02  0.64748458799E+02  0.00000000000E+00 0. -1.
<scales pt_clust_5="13000.00000" pt_clust_6="13000.00000" pt_clust_7="13000.00000" pt_clust_8="13000.00000" pt_clust_9="48.41991"></scales>
<clustering>
<clus scale="   48.420">  1  9  2 -1</clus>
<clus scale="   90.442">  5  6 -1 -1</clus>
<clus scale="   92.559">  7  8 -1 -1</clus>
<clus scale="  228.882">  2  5  1 -1</clus>
<clus scale="   48.420">  1  5  2 -1</clus>
</clustering>
</event>
<event>
 9    1  0.9000149E-006  0.1099658E+03  0.7546771E-02  0.1260959E+00
         -2   -1    0    0    0  501 -0.00000000000E+00  0.00000000000E+00  0.34234458208E+03  0.34234458208E+03  0.00000000000E+00 0.  1.
          2   -1    0    0  502    0  0.00000000000E+00 -0.00000000000E+00 -0.13457549945E+03  0.13457549945E+03  0.00000000000E+00 0. -1.
         23    2    1    2    0    0 -0.18404109382E+00 -0.62425847146E+02  0.23177721865E+03  0.25636776514E+03  0.90037390310E+02 0.  0.
         23    2    1    2    0    0 -0.20748392736E+02  0.59636335126E+02  0.65492446476E+02  0.12859416052E+03  0.90885693624E+02 0.  0.
        -11    1    4    4    0    0 -0.42636005324E+02  0.43153140099E+02  0.77717792296E+02  0.98590454355E+02  0.00000000000E+00 0.  1.
         11    1    4    4    0    0  0.21887612588E+02  0.16483195026E+02 -0.12225345820E+02  0.30003706163E+02  0.00000000000E+00 0. -1.
        -13    1    3    3    0    0 -0.31061278903E+02 -0.68874362364E+02  0.18614849328E+03  0.20089734291E+03  0.00000000000E+00 0.  1.
         13    1    3    3    0    0  0.30877237809E+02  0.64485152182E+01  0.45628725372E+02  0.55470422229E+02  0.00000000000E+00 0. -1.
         21    1    1    2  502  501  0.20932433830E+02  0.27895120199E+01 -0.89500582498E+02  0.91958155869E+02  0.00000000000E+00 0. -1.
<scales pt_clust_5="13000.00000" pt_clust_6="13000.00000" pt_clust_7="13000.00000" pt_clust_8="13000.00000" pt_clust_9="21.11748"></scales>
<clustering>
<clus scale="   21.117">  2  9  1 -1</clus>
<clus scale="   90.037">  7  8 -1 -1</clus>
<clus scale="   90.886">  5  6 -1 -1</clus>
<clus scale="  109.266">  1  7  2 -1</clus>
<clus scale="   21.117">  2  5  1 -1</clus>
</clustering>
</event>
<event>
 9    1  0.9000149E-006  0.1649327E+03  0.7546771E-02  0.1183589E+00
         -3   -1    0    0    0  501 -0.00000000000E+00  0.00000000000E+00  0.18821949952E+03  0.18821949952E+03  0.00000000000E+00 0.  1.
          3   -1    0    0  502    0  0.00000000000E+00 -0.00000000000E+00 -0.19601197303E+03  0.19601197303E+03  0.00000000000E+00 0. -1.
         23    2    1    2    0    0 -0.37938876201E+02  0.13046717935E+03  0.57286584215E+02  0.17319953074E+03  0.90858579687E+02 0.  0.
         23    2    1    2    0    0  0.65047262543E+02 -0.12077778882E+03 -0.72991429943E+02  0.18117638064E+03  0.93159601863E+02 0.  0.
        -11    1    4    4    0    0 -0.76109004073E+01 -0.82294560503E+02 -0.26872512062E+02  0.86904846803E+02  0.00000000000E+00 0.  1.
         11    1    4    4    0    0  0.72658162950E+02 -0.38483228317E+02 -0.46118917881E+02  0.94271533835E+02  0.00000000000E+00 0. -1.
        -13    1    3    3    0    0 -0.47145779230E+02  0.18160382295E+02  0.13380840826E+02  0.52264432318E+02  0.00000000000E+00 0.  1.
         13    1    3    3    0    0  0.92069030289E+01  0.11230679705E+03  0.43905743389E+02  0.12093509842E+03  0.00000000000E+00 0. -1.
         21    1    1    2  502  501 -0.27108386342E+02 -0.96893905263E+01  0.79123722231E+01  0.29855561175E+02  0.00000000000E+00 0.  1.
<scales pt_clust_5="13000.00000" pt_clust_6="13000.00000" pt_clust_7="13000.00000" pt_clust_8="13000.00000" pt_clust_9="28.78800"></scales>
<clustering>
<clus scale="   28.788">  1  9  2 -1</clus>
<clus scale="   90.859">  7  8 -1 -1</clus>
<clus scale="   93.160">  5  6 -1 -1</clus>
<clus scale="  163.644">  1  7  2 -1</clus>
<clus scale="  164.933">  2  5  1 -1</clus>
</clustering>
</event>
<event>
 9    1  0.9000149E-006  0.1113326E+03  0.7546771E-02  0.1263792E+00
          4   -1    0    0  502    0  0.00000000000E+00  0.00000000000E+00  0.31551450195E+03  0.31551450195E+03  0.00000000000E+00 0. -1.
         -4   -1    0    0    0  501 -0.00000000000E+00 -0.00000000000E+00 -0.47362992650E+02  0.47362992650E+02  0.00000000000E+00 0.  1.
         23    2    1    2    0    0  0.36219607432E+02  0.39347347413E+02  0.70791212467E+02  0.12578065986E+03  0.89158874607E+02 0.  0.
         23    2    1    2    0    0 -0.21518918783E+02 -0.18630289537E+02  0.15834763150E+03  0.19054262129E+03  0.10208999252E+03 0.  0.
        -11    1    4    4    0    0  0.19075450140E+02  0.30272136848E+02  0.91773628767E+02  0.98502152283E+02  0.00000000000E+00 0. -1.
         11    1    4    4    0    0 -0.40594368923E+02 -0.48902426386E+02  0.66574002731E+02  0.92040469003E+02  0.00000000000E+00 0.  1.
        -11    1    3    3    0    0  0.19601123426E+02 -0.20474055657E+02 -0.39474317272E+01  0.28617708012E+02  0.00000000000E+00 0.  1.
         11    1    3    3    0    0  0.16618484006E+02  0.59821403069E+02  0.74738644194E+02  0.97162951848E+02  0.00000000000E+00 0. -1.
         21    1    1    2  502  501 -0.14700688648E+02 -0.20717057875E+02  0.39012665338E+02  0.46554213456E+02  0.00000000000E+00 0.  1.
<scales pt_clust_5="13000.00000" pt_clust_6="13000.00000" pt_clust_7="13000.00000" pt_clust_8="13000.00000" pt_clust_9="25.40289"></scales>
<clustering>
<clus scale="   25.403">  1  9  2 -1</clus>
<clus scale="   89.159">  7  8 -1 -1</clus>
<clus scale="   99.609">  2  7  1 -1</clus>
<clus scale="  102.090">  5  6 -1 -1</clus>
<clus scale="   25.403">  1  5  2 -1</clus>
</clustering>
</event>
<event>
 9    1  0.9000149E-006  0.1007182E+03  0.7546771E-02  0.1279546E+00
         -1   -1    0    0    0  501 -0.00000000000E+00  0.00000000000E+00  0.31409489712E+03  0.31409489712E+03  0.00000000000E+00 0.  1.
          1   -1    0    0  502    0  0.00000000000E+00 -0.00000000000E+00 -0.85377003042E+02  0.85377003042E+02  0.00000000000E+00 0. -1.
         23    2    1    2    0    0  0.13498351672E+02  0.16914717786E+02  0.24450497893E+03  0.26174640580E+03  0.90885549199E+02 0.  0.
         23    2    1    2    0    0 -0.20026321557E+02 -0.37612397451E+02 -0.36089368040E+02  0.10800696416E+03  0.92451694550E+02 0.  0.
        -11    1    3    3    0    0  0.12942666001E+01  0.54077002435E+02  0.15064594862E+03  0.16006310991E+03  0.00000000000E+00 0.  1.
         11    1    3    3    0    0  0.12204085072E+02 -0.37162284649E+02  0.93859030316E+02  0.10168329590E+03  0.00000000000E+00 0. -1.
        -13    1    4    4    0    0 -0.38655037970E+02 -0.60800803980E+02 -0.26095665924E+02  0.76628542365E+02  0.00000000000E+00 0. -1.
         13    1    4    4    0    0  0.18628716413E+02  0.23188406529E+02 -0.99937021166E+01  0.31378421798E+02  0.00000000000E+00 0.  1.
         21    1    1    2  502  501  0.65279698850E+01  0.20697679664E+02  0.20302283185E+02  0.29718530193E+02  0.00000000000E+00 0. -1.
<scales pt_clust_5="13000.00000" pt_clust_6="13000.00000" pt_clust_7="13000.00000" pt_clust_8="13000.00000" pt_clust_9="21.70273"></scales>
<clustering>
<clus scale="   21.703">  1  9  2 -1</clus>
<clus scale="   90.886">  5  6 -1 -1</clus>
<clus scale="   92.452">  7  8 -1 -1</clus>
<clus scale="   99.283">  1  5  2 -1</clus>
<clus scale="  100.718">  2  5  1 -1</clus>
</clustering>
</event>
<event>
 9    1  0.9000149E-006  0.1009155E+03  0.7546771E-02  0.1280125E+00
         -2   -1    0    0    0  501 -0.00000000000E+00  0.00000000000E+00  0.15259561481E+03  0.15259561481E+03  0.00000000000E+00 0.  1.
          2   -1    0    0  502    0  0.00000000000E+00 -0.00000000000E+00 -0.13414218621E+03  0.13414218621E+03  0.00000000000E+00 0. -1.
         23    2    1    2    0    0 -0.35644477323E+02  0.10452382777E+02  0.65315144375E+02  0.11867814357E+03  0.91862139135E+02 0.  0.
         23    2    1    2    0    0  0.36428104889E+02 -0.40605488641E+02  0.94679640911E+01  0.10416242199E+03  0.88228993408E+02 0.  0.
        -11    1    4    4    0    0 -0.96933568828E+01 -0.49242080540E+02  0.23173190594E+02  0.55278752029E+02  0.00000000000E+00 0.  1.
         11    1    4    4    0    0  0.46121461772E+02  0.86365918992E+01 -0.13705226502E+02  0.48883669964E+02  0.00000000000E+00 0. -1.
        -11    1    3    3    0    0 -0.66872019054E+02  0.10663978254E+02  0.41705589734E+02  0.79529513891E+02  0.00000000000E+00 0.  1.
         11    1    3    3    0    0  0.31227541731E+02 -0.21159547765E+00  0.23609554641E+02  0.39148629677E+02  0.00000000000E+00 0. -1.
         21    1    1    2  502  501 -0.78362756633E+00  0.30153105865E+02 -0.56329679870E+02  0.63897235462E+02  0.00000000000E+00 0.  1.
<scales pt_clust_5="13000.00000" pt_clust_6="13000.00000" pt_clust_7="13000.00000" pt_clust_8="13000.00000" pt_clust_9="30.16329"></scales>
<clustering>
<clus scale="   30.163">  2  9  1 -1</clus>
<clus scale="   88.229">  5  6 -1 -1</clus>
<clus scale="   91.862">  7  8 -1 -1</clus>
<clus scale="   97.620">  2  5  1 -1</clus>
<clus scale="   30.163">  2  5  1 -1</clus>
</clustering>
</event>
<event>
 9    1  0.9000149E-006  0.1045757E+03  0.7546771E-02  0.1271112E+00
          1   -1    0    0  502    0  0.00000000000E+00  0.00000000000E+00  0.48761465819E+02  0.48761465819E+02  0.00000000000E+00 0. -1.
         -1   -1    0    0    0  501 -0.00000000000E+00 -0.00000000000E+00 -0.36399518206E+03  0.36399518206E+03  0.00000000000E+00 0.  1.
         23    2    1    2    0    0  0.21932071240E+02  0.44092077845E+02 -0.24157851597E+03  0.26378797550E+03  0.93801863317E+02 0.  0.
         23    2    1    2    0    0  0.47068418153E+01 -0.40199933940E+02 -0.56114633043E+02  0.11683688171E+03  0.94147840324E+02 0.  0.
        -11    1    3    3    0    0  0.90789261358E+01  0.72206220304E+02 -0.14263448177E+03  0.16012732602E+03  0.00000000000E+00 0.  1.
         11    1    3    3    0    0  0.12853145104E+02 -0.28114142459E+02 -0.98944034204E+02  0.10366064948E+03  0.00000000000E+00 0. -1.
        -13    1    4    4    0    0 -0.37426141417E+02 -0.45591963547E+02 -0.24431117183E+02  0.63845302789E+02  0.00000000000E+00 0. -1.
         13    1    4    4    0    0  0.42132983232E+02  0.53920296069E+01 -0.31683515860E+02  0.52991578921E+02  0.00000000000E+00 0.  1.
         21    1    1    2  502  501 -0.26638913055E+02 -0.38921439051E+01 -0.17540567228E+02  0.32131790669E+02  0.00000000000E+00 0.  1.
<scales pt_clust_5="13000.00000" pt_clust_6="13000.00000" pt_clust_7="13000.00000" pt_clust_8="13000.00000" pt_clust_9="26.92175"></scales>
<clustering>
<clus scale="   26.922">  1  9  2 -1</clus>
<clus scale="   93.802">  5  6 -1 -1</clus>
<clus scale="   94.148">  7  8 -1 -1</clus>
<clus scale="  104.264">  2  5  1 -1</clus>
<clus scale="   26.922">  1  5  2 -1</clus>
</clustering>
</event>
<event>
 9    1  0.9000149E-006  0.9728800E+02  0.7546771E-02  0.1286143E+00
         -1   -1    0    0    0  501 -0.00000000000E+00  0.00000000000E+00  0.59357119239E+02  0.59357119239E+02  0.00000000000E+00 0.  1.
          1   -1    0    0  502    0  0.00000000000E+00 -0.00000000000E+00 -0.23621881400E+03  0.23621881400E+03  0.00000000000E+00 0. -1.
         23    2    1    2    0    0  0.27619225539E+02 -0.53681062744E+01 -0.31131104388E+02  0.99940106201E+02  0.90704139832E+02 0.  0.
         23    2    1    2    0    0 -0.43359543858E+02  0.19718666401E+02 -0.91649268045E+02  0.13751108513E+03  0.90779041377E+02 0.  0.
        -11    1    4    4    0    0 -0.12922878303E+02  0.34275298075E+02  0.32678875899E+01  0.36776023861E+02  0.00000000000E+00 0.  1.
         11    1    4    4    0    0 -0.30436665555E+02 -0.14556631674E+02 -0.94917155634E+02  0.10073506127E+03  0.00000000000E+00 0. -1.
        -13    1    3    3    0    0  0.49335587296E+02  0.26579940602E+02 -0.22296446319E+02  0.60312726142E+02  0.00000000000E+00 0.  1.
         13    1    3    3    0    0 -0.21716361757E+02 -0.31948046876E+02 -0.88346580691E+01  0.39627380059E+02  0.00000000000E+00 0. -1.
         21    1    1    2  502  501  0.15740318319E+02 -0.14350560126E+02 -0.54081322332E+02  0.58124741909E+02  0.00000000000E+00 0. -1.
<scales pt_clust_5="13000.00000" pt_clust_6="13000.00000" pt_clust_7="13000.00000" pt_clust_8="13000.00000" pt_clust_9="21.30015"></scales>
<clustering>
<clus scale="   21.300">  2  9  1 -1</clus>
<clus scale="   90.704">  7  8 -1 -1</clus>
<clus scale="   90.779">  5  6 -1 -1</clus>
<clus scale="   97.218">  1  7  2 -1</clus>
<clus scale="   21.300">  2  5  1 -1</clus>
</clustering>
</event>
<event>
 9    1  0.9000149E-006  0.1400694E+03  0.7546771E-02  0.1217174E+00
         -1   -1    0    0    0  501 -0.00000000000E+00  0.00000000000E+00  0.11522756401E+03  0.11522756401E+03  0.00000000000E+00 0.  1.
          1   -1    0    0  502    0  0.00000000000E+00 -0.00000000000E+00 -0.40079498541E+03  0.40079498541E+03  0.00000000000E+00 0. -1.
         23    2    1    2    0    0 -0.14092978661E+02 -0.10805913768E+03  0.27959337385E+02  0.15486212138E+03  0.10641974821E+03 0.  0.
         23    2    1    2    0    0  0.23670200227E+02  0.29345774882E+02 -0.19529339842E+03  0.21879946373E+03  0.91171492143E+02 0.  0.
        -11    1    3    3    0    0 -0.38340474453E+02 -0.68133898960E+02  0.59716078618E+02  0.98377996596E+02  0.00000000000E+00 0.  1.
         11    1    3    3    0    0  0.24247495792E+02 -0.39925238720E+02 -0.31756741233E+02  0.56484124785E+02  0.00000000000E+00 0. -1.
        -13    1    4    4    0    0 -0.51642031402E+01 -0.31163205806E+02 -0.65608243749E+02  0.72816591776E+02  0.00000000000E+00 0.  1.
         13    1    4    4    0    0  0.28834403367E+02  0.60508980688E+02 -0.12968515467E+03  0.14598287195E+03  0.00000000000E+00 0. -1.
         21    1    1    2  502  501 -0.95772215659E+01  0.78713362799E+02 -0.11823336036E+03  0.14236096431E+03  0.00000000000E+00 0. -1.
<scales pt_clust_5="13000.00000" pt_clust_6="13000.00000" pt_clust_7="13000.00000" pt_clust_8="13000.00000" pt_clust_9="79.29386"></scales>
<clustering>
<clus scale="   79.294">  2  9  1 -1</clus>
<clus scale="   91.171">  7  8 -1 -1</clus>
<clus scale="  106.420">  5  6 -1 -1</clus>
<clus scale="  128.866">  2  7  1 -1</clus>
<clus scale="   79.294">  2  5  1 -1</clus>
</clustering>
</event>
<event>
 9    1  0.9000149E-006  0.1161084E+03  0.7546771E-02  0.1250728E+00
          1   -1    0    0  502    0  0.00000000000E+00  0.00000000000E+00  0.45801349030E+02  0.45801349030E+02  0.00000000000E+00 0. -1.
         -1   -1    0    0    0  501 -0.00000000000E+00 -0.00000000000E+00 -0.35075171608E+03  0.35075171608E+03  0.00000000000E+00 0.  1.
         23    2    1    2    0    0  0.38273698025E+02 -0.57057824638E+02 -0.14530747978E+03  0.18430251444E+03  0.90181382983E+02 0.  0.
         23    2    1    2    0    0 -0.55275214169E+02  0.44961940670E+02 -0.14599778177E+03  0.18731962882E+03  0.93254306327E+02 0.  0.
        -11    1    4    4    0    0 -0.38948262446E+02  0.97598221158E+01 -0.42737239712E+01  0.40379276763E+02  0.00000000000E+00 0.  1.
         11    1    4    4    0    0 -0.16326951723E+02  0.35202118554E+02 -0.14172405780E+03  0.14694035205E+03  0.00000000000E+00 0. -1.
        -11    1    3    3    0    0  0.61351755259E+02 -0.22892480445E+02 -0.56888266981E+02  0.86743175261E+02  0.00000000000E+00 0. -1.
         11    1    3    3    0    0 -0.23078057233E+02 -0.34165344194E+02 -0.88419212798E+02  0.97559339181E+02  0.00000000000E+00 0.  1.
         21    1    1    2  502  501  0.17001516144E+02  0.12095883969E+02 -0.13645105500E+02  0.24930921850E+02  0.00000000000E+00 0. -1.
<scales pt_clust_5="13000.00000" pt_clust_6="13000.00000" pt_clust_7="13000.00000" pt_clust_8="13000.00000" pt_clust_9="20.86533"></scales>
<clustering>
<clus scale="   20.865">  1  9  2 -1</clus>
<clus scale="   90.181">  7  8 -1 -1</clus>
<clus scale="   93.254">  5  6 -1 -1</clus>
<clus scale="  113.655">  2  7  1 -1</clus>
<clus scale="   20.865">  1  5  2 -1</clus>
</clustering>
</event>
<event>
 9    1  0.9000149E-006  0.1925270E+03  0.7546771E-02  0.1156473E+00
          1   -1    0    0  502    0  0.00000000000E+00  0.00000000000E+00  0.15263283835E+03  0.15263283835E+03  0.00000000000E+00 0. -1.
         -1   -1    0    0    0  501 -0.00000000000E+00 -0.00000000000E+00 -0.37693933306E+03  0.37693933306E+03  0.00000000000E+00 0.  1.
         23    2    1    2    0    0  0.12716027250E+03 -0.10056834615E+03 -0.14128912055E+03  0.23309290998E+03  0.89921977009E+02 0.  0.
         23    2    1    2    0    0 -0.13211086953E+03  0.12217038504E+03 -0.13410401668E+03  0.24079262444E+03  0.87282964360E+02 0.  0.
        -13    1    4    4    0    0 -0.68899974660E+01  0.49457066046E+02 -0.11940861503E+02  0.51342551752E+02  0.00000000000E+00 0. -1.
         13    1    4    4    0    0 -0.12522087206E+03  0.72713318990E+02 -0.12216315518E+03  0.18945007269E+03  0.00000000000E+00 0.  1.
        -13    1    3    3    0    0  0.68798447763E+02 -0.89393999668E+02 -0.13085056557E+03  0.17276106072E+03  0.00000000000E+00 0. -1.
         13    1    3    3    0    0  0.58361824733E+02 -0.11174346483E+02 -0.10438554984E+02  0.60331849264E+02  0.00000000000E+00 0.  1.
         21    1    1    2  502  501  0.49505970342E+01 -0.21602038884E+02  0.51086642518E+02  0.55686636985E+02  0.00000000000E+00 0. -1.
<scales pt_clust_5="13000.00000" pt_clust_6="13000.00000" pt_clust_7="13000.00000" pt_clust_8="13000.00000" pt_clust_9="22.16205"></scales>
<clustering>
<clus scale="   22.162">  1  9  2 -1</clus>
<clus scale="   87.283">  5  6 -1 -1</clus>
<clus scale="   89.922">  7  8 -1 -1</clus>
<clus scale="  191.309">  1  5  2 -1</clus>
<clus scale="   22.162">  1  5  2 -1</clus>
</clustering>
</event>
<event>
 9    1  0.9000149E-006  0.1165042E+03  0.7546771E-02  0.1249530E+00
         -1   -1    0    0    0  501 -0.00000000000E+00  0.00000000000E+00  0.51119713108E+02  0.51119713108E+02  0.00000000000E+00 0.  1.
          1   -1    0    0  502    0  0.00000000000E+00 -0.00000000000E+00 -0.44303818648E+03  0.44303818648E+03  0.00000000000E+00 0. -1.
         23    2    1    2    0    0 -0.46346710037E+01 -0.76407978625E+02 -0.55253910992E+02  0.13079240725E+03  0.90520714435E+02 0.  0.
         23    2    1    2    0    0 -0.13499788808E+02  0.65013516818E+02 -0.24061385924E+03  0.26495599093E+03  0.88868702065E+02 0.  0.
        -13    1    4    4    0    0 -0.31239386258E+02  0.31198430670E+02 -0.21376345880E+03  0.21827518789E+03  0.00000000000E+00 0. -1.
         13    1    4    4    0    0  0.17739597450E+02  0.33815086148E+02 -0.26850400433E+02  0.46680803038E+02  0.00000000000E+00 0.  1.
        -13    1    3    3    0    0 -0.28685768922E+02 -0.87212481461E+02 -0.38509895898E+02  0.99558537270E+02  0.00000000000E+00 0.  1.
         13    1    3    3    0    0  0.24051097918E+02  0.10804502835E+02 -0.16744015094E+02  0.31233869982E+02  0.00000000000E+00 0. -1.
         21    1    1    2  502  501  0.18134459812E+02  0.11394461807E+02 -0.96050703141E+02  0.98409501403E+02  0.00000000000E+00 0. -1.
<scales pt_clust_5="13000.00000" pt_clust_6="13000.00000" pt_clust_7="13000.00000" pt_clust_8="13000.00000" pt_clust_9="21.41711"></scales>
<clustering>
<clus scale="   21.417">  2  9  1 -1</clus>
<clus scale="   88.869">  5  6 -1 -1</clus>
<clus scale="   90.521">  7  8 -1 -1</clus>
<clus scale="  115.225">  2  5  1 -1</clus>
<clus scale="   21.417">  2  5  1 -1</clus>
</clustering>
</event>
<event>
 9    1  0.9000149E-006  0.1101274E+03  0.7546771E-02  0.1264484E+00
         -1   -1    0    0    0  501 -0.00000000000E+00  0.00000000000E+00  0.14576999274E+03  0.14576999274E+03  0.00000000000E+00 0.  1.
          1   -1    0    0  502    0  0.00000000000E+00 -0.00000000000E+00 -0.96719662027E+02  0.96719662027E+02  0.00000000000E+00 0. -1.
         23    2    1    2    0    0  0.44073631858E+02 -0.15433635878E+02  0.46773171836E+02  0.11380990819E+03  0.92651408280E+02 0.  0.
         23    2    1    2    0    0 -0.35552366535E+02 -0.30592724754E+01  0.47857222736E+01  0.10816408153E+03  0.10199625229E+03 0.  0.
        -11    1    4    4    0    0 -0.64554734891E+01  0.28622401747E+02 -0.37654271004E+02  0.47736350348E+02  0.00000000000E+00 0. -1.
         11    1    4    4    0    0 -0.29096893045E+02 -0.31681674222E+02  0.42439993277E+02  0.60427731182E+02  0.00000000000E+00 0.  1.
        -13    1    3    3    0    0 -0.28399448609E+02 -0.63538388077E+01  0.22691766499E+02  0.36902794145E+02  0.00000000000E+00 0. -1.
         13    1    3    3    0    0  0.72473080467E+02 -0.90797970702E+01  0.24081405337E+02  0.76907114042E+02  0.00000000000E+00 0.  1.
         21    1    1    2  502  501 -0.85212653239E+01  0.18492908353E+02 -0.25085633974E+01  0.20515665049E+02  0.00000000000E+00 0.  1.
<scales pt_clust_5="13000.00000" pt_clust_6="13000.00000" pt_clust_7="13000.00000" pt_clust_8="13000.00000" pt_clust_9="20.36172"></scales>
<clustering>
<clus scale="   20.362">  2  9  1 -1</clus>
<clus scale="   92.651">  7  8 -1 -1</clus>
<clus scale="  101.534">  1  7  2 -1</clus>
<clus scale="  101.996">  5  6 -1 -1</clus>
<clus scale="   20.362">  2  5  1 -1</clus>
</clustering>
</event>
<event>
 9    1  0.9000149E-006  0.1088685E+03  0.7546771E-02  0.1264154E+00
         -1   -1    0    0    0  501 -0.00000000000E+00  0.00000000000E+00  0.47122500759E+02  0.47122500759E+02  0.00000000000E+00 0.  1.
          1   -1    0    0  502    0  0.00000000000E+00 -0.00000000000E+00 -0.74115366190E+03  0.74115366190E+03  0.00000000000E+00 0. -1.
         23    2    1    2    0    0 -0.28572840702E+02 -0.35467589590E+02 -0.63197357793E+02  0.11777560521E+03  0.88333629005E+02 0.  0.
         23    2    1    2    0    0  0.24826426184E+02  0.99572981213E+02 -0.26125298617E+03  0.29538255297E+03  0.92014128224E+02 0.  0.
        -11    1    4    4    0    0 -0.30289075411E+02  0.16270426634E+02 -0.99516138942E+02  0.10528825567E+03  0.00000000000E+00 0. -1.
         11    1    4    4    0    0  0.55115501595E+02  0.83302554579E+02 -0.16173684723E+03  0.19009429730E+03  0.00000000000E+00 0.  1.
        -13    1    3    3    0    0  0.19308862603E+02 -0.23319367055E+02  0.78179268714E+01  0.31268914843E+02  0.00000000000E+00 0.  1.
         13    1    3    3    0    0 -0.47881703305E+02 -0.12148222535E+02 -0.71015284664E+02  0.86506690366E+02  0.00000000000E+00 0. -1.
         21    1    1    2  502  501  0.37464145179E+01 -0.64105391623E+02 -0.36958081718E+03  0.37511800448E+03  0.00000000000E+00 0. -1.
<scales pt_clust_5="13000.00000" pt_clust_6="13000.00000" pt_clust_7="13000.00000" pt_clust_8="13000.00000" pt_clust_9="64.21477"></scales>
<clustering>
<clus scale="   64.215">  2  9  1 -1</clus>
<clus scale="   88.334">  7  8 -1 -1</clus>
<clus scale="   92.014">  5  6 -1 -1</clus>
<clus scale="  105.776">  1  7  2 -1</clus>
<clus scale="   64.215">  2  5  1 -1</clus>
</clustering>
</event>
<event>
 9    1  0.9000149E-006  0.2157821E+03  0.7546771E-02  0.1137093E+00
         -1   -1    0    0    0  501 -0.00000000000E+00  0.00000000000E+00  0.61354962238E+02  0.61354962238E+02  0.00000000000E+00 0.  1.
          1   -1    0    0  502    0  0.00000000000E+00 -0.00000000000E+00 -0.92601212981E+03  0.92601212981E+03  0.00000000000E+00 0. -1.
         23    2    1    2    0    0  0.39572703004E+02  0.18289336133E+03 -0.32874574925E+03  0.38933781338E+03  0.92163902012E+02 0.  0.
         23    2    1    2    0    0 -0.13274497027E+02 -0.20582382461E+03 -0.41818941252E+03  0.47524543432E+03  0.91848674731E+02 0.  0.
        -13    1    3    3    0    0  0.25033628668E+02  0.21081671391E+02 -0.12245979769E+03  0.12675772751E+03  0.00000000000E+00 0. -1.
         13    1    3    3    0    0  0.14539074336E+02  0.16181168994E+03 -0.20628595155E+03  0.26258008586E+03  0.00000000000E+00 0.  1.
        -13    1    4    4    0    0  0.72332180505E+01 -0.49026385386E+02 -0.34888192138E+02  0.60606038132E+02  0.00000000000E+00 0.  1.
         13    1    4    4    0    0 -0.20507715077E+02 -0.15679743922E+03 -0.38330122038E+03  0.41463939619E+03  0.00000000000E+00 0. -1.
         21    1    1    2  502  501 -0.26298205977E+02  0.22930463276E+02 -0.11772200580E+03  0.12278384435E+03  0.00000000000E+00 0.  1.
<scales pt_clust_5="13000.00000" pt_clust_6="13000.00000" pt_clust_7="13000.00000" pt_clust_8="13000.00000" pt_clust_9="34.89129"></scales>
<clustering>
<clus scale="   34.891">  2  9  1 -1</clus>
<clus scale="   91.849">  7  8 -1 -1</clus>
<clus scale="   92.164">  5  6 -1 -1</clus>
<clus scale="  215.648">  2  7  1 -1</clus>
<clus scale="   34.891">  2  5  1 -1</clus>
</clustering>
</event>
<event>
 9    1  0.9000149E-006  0.1013462E+03  0.7546771E-02  0.1278197E+00
          1   -1    0    0  502    0  0.00000000000E+00  0.00000000000E+00  0.32564663421E+03  0.32564663421E+03  0.00000000000E+00 0. -1.
         -1   -1    0    0    0  501 -0.00000000000E+00 -0.00000000000E+00 -0.23561349139E+03  0.23561349139E+03  0.00000000000E+00 0.  1.
         23    2    1    2    0    0  0.36626058546E+02  0.10463319430E+01 -0.19134190305E+03  0.21624548240E+03  0.93849996368E+02 0.  0.
         23    2    1    2    0    0 -0.48579072735E+02 -0.33703361300E+02  0.68492501009E+02  0.12931036874E+03  0.92380224611E+02 0.  0.
        -11    1    4    4    0    0 -0.26448638810E+02 -0.65660905590E+02  0.45431608145E+02  0.84112520094E+02  0.00000000000E+00 0.  1.
         11    1    4    4    0    0 -0.22130433926E+02  0.31957544291E+02  0.23060892864E+02  0.45197848649E+02  0.00000000000E+00 0. -1.
        -11    1    3    3    0    0  0.61671563654E+02 -0.22999128055E+02 -0.11852465535E+03  0.13557446507E+03  0.00000000000E+00 0.  1.
         11    1    3    3    0    0 -0.25045505108E+02  0.24045459998E+02 -0.72817247705E+02  0.80671017323E+02  0.00000000000E+00 0. -1.
         21    1    1    2  502  501  0.11953014189E+02  0.32657029357E+02  0.21288254486E+03  0.21570427447E+03  0.00000000000E+00 0. -1.
<scales pt_clust_5="13000.00000" pt_clust_6="13000.00000" pt_clust_7="13000.00000" pt_clust_8="13000.00000" pt_clust_9="34.77580"></scales>
<clustering>
<clus scale="   34.776">  1  9  2 -1</clus>
<clus scale="   92.380">  5  6 -1 -1</clus>
<clus scale="   93.850">  7  8 -1 -1</clus>
<clus scale="   99.987">  1  5  2 -1</clus>
<clus scale="   34.776">  1  5  2 -1</clus>
</clustering>
</event>
<event>
 9    1  0.9000149E-006  0.1035682E+03  0.7546771E-02  0.1273570E+00
          1   -1    0    0  502    0  0.00000000000E+00  0.00000000000E+00  0.68022888192E+03  0.68022888192E+03  0.00000000000E+00 0. -1.
         -1   -1    0    0    0  501 -0.00000000000E+00 -0.00000000000E+00 -0.24505913566E+02  0.24505913566E+02  0.00000000000E+00 0.  1.
         23    2    1    2    0    0  0.26457656151E+02  0.49685217864E+02  0.14788876280E+03  0.18204621806E+03  0.90006171493E+02 0.  0.
         23    2    1    2    0    0 -0.17976517582E+02 -0.23957591067E+02  0.41432407115E+03  0.42533363030E+03  0.91362682624E+02 0.  0.
        -11    1    3    3    0    0 -0.26455571583E+02 -0.80732825276E+01  0.34215683906E+02  0.43997592931E+02  0.00000000000E+00 0.  1.
         11    1    3    3    0    0  0.52913227735E+02  0.57758500392E+02  0.11367307889E+03  0.13804862513E+03  0.00000000000E+00 0. -1.
        -11    1    4    4    0    0 -0.44702592484E+02  0.15366118867E+02  0.24183931643E+03  0.24641569421E+03  0.00000000000E+00 0. -1.
         11    1    4    4    0    0  0.26726074902E+02 -0.39323709933E+02  0.17248475473E+03  0.17891793609E+03  0.00000000000E+00 0.  1.
         21    1    1    2  502  501 -0.84811385691E+01 -0.25727626798E+02  0.93510134402E+02  0.97354947116E+02  0.00000000000E+00 0. -1.
<scales pt_clust_5="13000.00000" pt_clust_6="13000.00000" pt_clust_7="13000.00000" pt_clust_8="13000.00000" pt_clust_9="27.08949"></scales>
<clustering>
<clus scale="   27.089">  1  9  2 -1</clus>
<clus scale="   90.006">  5  6 -1 -1</clus>
<clus scale="   91.363">  7  8 -1 -1</clus>
<clus scale="  102.374">  2  5  1 -1</clus>
<clus scale="   27.089">  1  5  2 -1</clus>
</clustering>
</event>
<event>
 9    1  0.9000149E-006  0.1292205E+03  0.7546771E-02  0.1235352E+00
         -2   -1    0    0    0  501 -0.00000000000E+00  0.00000000000E+00  0.95837110845E+02  0.95837110845E+02  0.00000000000E+00 0.  1.
          2   -1    0    0  502    0  0.00000000000E+00 -0.00000000000E+00 -0.20970331241E+03  0.20970331241E+03  0.00000000000E+00 0. -1.
         23    2    1    2    0    0 -0.44137566509E+02  0.26207297729E+02 -0.23409391312E+02  0.12544138388E+03  0.11203835931E+03 0.  0.
         23    2    1    2    0    0  0.71572327274E+02 -0.39360063227E+02 -0.59983826417E+02  0.13703787262E+03  0.92246986353E+02 0.  0.
        -11    1    3    3    0    0 -0.65618444265E+02 -0.11234204724E+02  0.14337114141E+02  0.68099489171E+02  0.00000000000E+00 0.  1.
         11    1    3    3    0    0  0.21480877756E+02  0.37441502453E+02 -0.37746505453E+02  0.57341894711E+02  0.00000000000E+00 0. -1.
        -11    1    4    4    0    0  0.23509903887E+02  0.20618988133E+02  0.10263664775E+02  0.32912020099E+02  0.00000000000E+00 0.  1.
         11    1    4    4    0    0  0.48062423387E+02 -0.59979051360E+02 -0.70247491192E+02  0.10412585252E+03  0.00000000000E+00 0. -1.
         21    1    1    2  502  501 -0.27434760765E+02  0.13152765498E+02 -0.30472983832E+02  0.43061166753E+02  0.00000000000E+00 0.  1.
<scales pt_clust_5="13000.00000" pt_clust_6="13000.00000" pt_clust_7="13000.00000" pt_clust_8="13000.00000" pt_clust_9="30.42468"></scales>
<clustering>
<clus scale="   30.425">  2  9  1 -1</clus>
<clus scale="   92.247">  7  8 -1 -1</clus>
<clus scale="  112.038">  5  6 -1 -1</clus>
<clus scale="  112.494">  2  7  1 -1</clus>
<clus scale="   30.425">  2  5  1 -1</clus>
</clustering>
</event>
<event>
 9    1  0.9000149E-006  0.1375908E+03  0.7546771E-02  0.1217321E+00
          1   -1    0    0  502    0  0.00000000000E+00  0.00000000000E+00  0.36515368855E+03  0.36515368855E+03  0.00000000000E+00 0. -1.
         -1   -1    0    0    0  501 -0.00000000000E+00 -0.00000000000E+00 -0.31195021263E+03  0.31195021263E+03  0.00000000000E+00 0.  1.
         23    2    1    2    0    0 -0.10311631176E+03  0.47806506405E+02 -0.18216615216E+03  0.23464738698E+03  0.94638540879E+02 0.  0.
         23    2    1    2    0    0  0.93853879144E+01 -0.11078023418E+03 -0.36027744563E+02  0.14850462977E+03  0.91625765455E+02 0.  0.
        -11    1    4    4    0    0 -0.30459923174E+02 -0.48160754606E+01 -0.87763220016E+01  0.32062834099E+02  0.00000000000E+00 0.  1.
         11    1    4    4    0    0  0.39845311088E+02 -0.10596415872E+03 -0.27251422562E+02  0.11644179567E+03  0.00000000000E+00 0. -1.
        -13    1    3    3    0    0 -0.13040668338E+02  0.50702452061E+02 -0.99122106605E+02  0.11209812529E+03  0.00000000000E+00 0.  1.
         13    1    3    3    0    0 -0.90075643426E+02 -0.28959456559E+01 -0.83044045552E+02  0.12254926169E+03  0.00000000000E+00 0. -1.
         21    1    1    2  502  501  0.93730923851E+02  0.62973727771E+02  0.27139737265E+03  0.29395188442E+03  0.00000000000E+00 0. -1.
<scales pt_clust_5="13000.00000" pt_clust_6="13000.00000" pt_clust_7="13000.00000" pt_clust_8="13000.00000" pt_clust_9="112.92111"></scales>
<clustering>
<clus scale="   91.626">  5  6 -1 -1</clus>
<clus scale="   94.639">  7  8 -1 -1</clus>
<clus scale="  112.921">  1  9  2 -1</clus>
<clus scale="  135.536">  1  5  2 -1</clus>
<clus scale="  112.921">  1  5  2 -1</clus>
</clustering>
</event>
<event>
 9    1  0.9000149E-006  0.1160890E+03  0.7546771E-02  0.1249799E+00
         -1   -1    0    0    0  501 -0.00000000000E+00  0.00000000000E+00  0.20474581504E+03  0.20474581504E+03  0.00000000000E+00 0.  1.
          1   -1    0    0  502    0  0.00000000000E+00 -0.00000000000E+00 -0.11533790354E+03  0.11533790354E+03  0.00000000000E+00 0. -1.
         23    2    1    2    0    0 -0.10626315636E+02 -0.75968820076E+02  0.13169772487E+03  0.17777364337E+03  0.91515011520E+02 0.  0.
         23    2    1    2    0    0  0.20751507269E+02  0.53752595145E+02 -0.20970649034E+02  0.10989731656E+03  0.91201346088E+02 0.  0.
        -11    1    3    3    0    0  0.32527828424E+02 -0.67917096823E+02  0.78074370409E+02  0.10847303341E+03  0.00000000000E+00 0.  1.
         11    1    3    3    0    0 -0.43154144061E+02 -0.80517232532E+01  0.53623354457E+02  0.69300609955E+02  0.00000000000E+00 0. -1.
        -13    1    4    4    0    0 -0.11365231491E+02 -0.20794552381E+02  0.58513213234E+01  0.24409421476E+02  0.00000000000E+00 0.  1.
         13    1    4    4    0    0  0.32116738760E+02  0.74547147526E+02 -0.26821970357E+02  0.85487895088E+02  0.00000000000E+00 0. -1.
         21    1    1    2  502  501 -0.10125191633E+02  0.22216224931E+02 -0.21319164331E+02  0.32412758654E+02  0.00000000000E+00 0. -1.
<scales pt_clust_5="13000.00000" pt_clust_6="13000.00000" pt_clust_7="13000.00000" pt_clust_8="13000.00000" pt_clust_9="24.41475"></scales>
<clustering>
<clus scale="   24.415">  2  9  1 -1</clus>
<clus scale="   91.201">  7  8 -1 -1</clus>
<clus scale="   91.515">  5  6 -1 -1</clus>
<clus scale="  115.842">  2  7  1 -1</clus>
<clus scale="   24.415">  2  5  1 -1</clus>
</clustering>
</event>
<event>
 9    1  0.9000149E-006  0.1406680E+03  0.7546771E-02  0.1217981E+00
         -3   -1    0    0    0  501 -0.00000000000E+00  0.00000000000E+00  0.22537851171E+03  0.22537851171E+03  0.00000000000E+00 0.  1.
          3   -1    0    0  502    0  0.00000000000E+00 -0.00000000000E+00 -0.20145323367E+03  0.20145323367E+03  0.00000000000E+00 0. -1.
         23    2    1    2    0    0 -0.83944267719E+02 -0.25318057134E+02  0.89107812690E+02  0.15357680517E+03  0.89207559682E+02 0.  0.
         23    2    1    2    0    0 -0.29543580003E+02  0.93017492245E+02 -0.33478553902E+02  0.13735848150E+03  0.90672277386E+02 0.  0.
        -13    1    4    4    0    0 -0.22739890172E+02  0.22863132161E+00 -0.37918081299E+02  0.44214655565E+02  0.00000000000E+00 0.  1.
         13    1    4    4    0    0 -0.68036898311E+01  0.92788860923E+02  0.44395273971E+01  0.93143825937E+02  0.00000000000E+00 0. -1.
        -13    1    3    3    0    0 -0.20785209952E+02  0.32226509853E+02  0.17754738018E+02  0.42258769648E+02  0.00000000000E+00 0.  1.
         13    1    3    3    0    0 -0.63159057767E+02 -0.57544566987E+02  0.71353074672E+02  0.11131803552E+03  0.00000000000E+00 0. -1.
         21    1    1    2  502  501  0.11348784772E+03 -0.67699435111E+02 -0.31703980743E+02  0.13589645871E+03  0.00000000000E+00 0.  1.
<scales pt_clust_5="13000.00000" pt_clust_6="13000.00000" pt_clust_7="13000.00000" pt_clust_8="13000.00000" pt_clust_9="107.54544"></scales>
<clustering>
<clus scale="   89.208">  7  8 -1 -1</clus>
<clus scale="   90.672">  5  6 -1 -1</clus>
<clus scale="  125.083">  1  7  2 -1</clus>
<clus scale="  107.545">  1  9  2 -1</clus>
<clus scale="  140.668">  2  5  1 -1</clus>
</clustering>
</event>
<event>
 9    1  0.9000149E-006  0.1052705E+03  0.7546771E-02  0.1270177E+00
         -1   -1    0    0    0  501 -0.00000000000E+00  0.00000000000E+00  0.36608943747E+02  0.36608943747E+02  0.00000000000E+00 0.  1.
          1   -1    0    0  502    0  0.00000000000E+00 -0.00000000000E+00 -0.49546380310E+03  0.49546380310E+03  0.00000000000E+00 0. -1.
         23    2    1    2    0    0 -0.48342682343E+02  0.63447772163E+01 -0.99890500083E+02  0.14184148294E+03  0.88111424585E+02 0.  0.
         23    2    1    2    0    0  0.70312876266E+02  0.21177990818E+02 -0.24561659395E+03  0.27153877010E+03  0.89517509921E+02 0.  0.
        -11    1    3    3    0    0  0.80438589289E+01 -0.21104891839E+02  0.14866543918E+01  0.22634713767E+02  0.00000000000E+00 0.  1.
         11    1    3    3    0    0 -0.56386541272E+02  0.27449669056E+02 -0.10137715447E+03  0.11920676918E+03  0.00000000000E+00 0. -1.
        -13    1    4    4    0    0  0.82605619404E+02  0.10396070242E+01 -0.13371216621E+03  0.15717414715E+03  0.00000000000E+00 0.  1.
         13    1    4    4    0    0 -0.12292743138E+02  0.20138383794E+02 -0.11190442774E+03  0.11436462295E+03  0.00000000000E+00 0. -1.
         21    1    1    2  502  501 -0.21970193922E+02 -0.27522768035E+02 -0.11334776532E+03  0.11869249380E+03  0.00000000000E+00 0. -1.
<scales pt_clust_5="13000.00000" pt_clust_6="13000.00000" pt_clust_7="13000.00000" pt_clust_8="13000.00000" pt_clust_9="35.21636"></scales>
<clustering>
<clus scale="   35.216">  2  9  1 -1</clus>
<clus scale="   88.111">  5  6 -1 -1</clus>
<clus scale="   89.518">  7  8 -1 -1</clus>
<clus scale="  104.077">  1  5  2 -1</clus>
<clus scale="   35.216">  2  5  1 -1</clus>
</clustering>
</event>
<event>
 9    1  0.9000149E-006  0.1297293E+03  0.7546771E-02  0.1228776E+00
          1   -1    0    0  502    0  0.00000000000E+00  0.00000000000E+00  0.11317732226E+03  0.11317732226E+03  0.00000000000E+00 0. -1.
         -1   -1    0    0    0  501 -0.00000000000E+00 -0.00000000000E+00 -0.19005294285E+03  0.19005294285E+03  0.00000000000E+00 0.  1.
         23    2    1    2    0    0  0.99143320390E+02 -0.33962616352E+01 -0.80791094879E+02  0.15579690611E+03  0.88907493325E+02 0.  0.
         23    2    1    2    0    0 -0.79113081566E+02 -0.74285705214E+00 -0.10999630211E+02  0.12211926978E+03  0.92372575343E+02 0.  0.
        -11    1    4    4    0    0  0.41062349628E+01  0.28120800081E+02 -0.18192648800E+02  0.33743340575E+02  0.00000000000E+00 0.  1.
         11    1    4    4    0    0 -0.83219316529E+02 -0.28863657133E+02  0.71930185891E+01  0.88375929206E+02  0.00000000000E+00 0. -1.
        -13    1    3    3    0    0  0.53637761261E+02 -0.56621139783E+01 -0.93986228601E+02  0.10836272484E+03  0.00000000000E+00 0.  1.
         13    1    3    3    0    0  0.45505559129E+02  0.22658523432E+01  0.13195133723E+02  0.47434181266E+02  0.00000000000E+00 0. -1.
         21    1    1    2  502  501 -0.20030238824E+02  0.41391186873E+01  0.14915104501E+02  0.25314089222E+02  0.00000000000E+00 0. -1.
<scales pt_clust_5="13000.00000" pt_clust_6="13000.00000" pt_clust_7="13000.00000" pt_clust_8="13000.00000" pt_clust_9="20.45343"></scales>
<clustering>
<clus scale="   20.453">  1  9  2 -1</clus>
<clus scale="   88.907">  7  8 -1 -1</clus>
<clus scale="   92.373">  5  6 -1 -1</clus>
<clus scale="  127.285">  2  7  1 -1</clus>
<clus scale="   20.453">  1  5  2 -1</clus>
</clustering>
</event>
<event>
 9    1  0.9000149E-006  0.1288780E+03  0.7546771E-02  0.1229408E+00
          3   -1    0    0  502    0  0.00000000000E+00  0.00000000000E+00  0.16687410405E+03  0.16687410405E+03  0.00000000000E+00 0. -1.
         -3   -1    0    0    0  501 -0.00000000000E+00 -0.00000000000E+00 -0.19539440769E+03  0.19539440769E+03  0.00000000000E+00 0.  1.
         23    2    1    2    0    0  0.66063152835E+02  0.58337958100E+02 -0.10419046008E+03  0.16513165880E+03  0.92979326992E+02 0.  0.
         23    2    1    2    0    0 -0.44037318425E+02 -0.81042739263E+02  0.20130203523E+02  0.13322026011E+03  0.93995753139E+02 0.  0.
        -11    1    3    3    0    0  0.30986479928E+02  0.80746734177E+02 -0.70601951429E+02  0.11164601455E+03  0.00000000000E+00 0. -1.
         11    1    3    3    0    0  0.35076672907E+02 -0.22408776077E+02 -0.33588508649E+02  0.53485644250E+02  0.00000000000E+00 0.  1.
        -11    1    4    4    0    0 -0.68357776977E+02 -0.29353602118E+02  0.14757505302E+02  0.75843283113E+02  0.00000000000E+00 0. -1.
         11    1    4    4    0    0  0.24320458552E+02 -0.51689137145E+02  0.53726982212E+01  0.57376976996E+02  0.00000000000E+00 0.  1.
         21    1    1    2  502  501 -0.22025834410E+02  0.22704781163E+02  0.55539952922E+02  0.63916592836E+02  0.00000000000E+00 0. -1.
<scales pt_clust_5="13000.00000" pt_clust_6="13000.00000" pt_clust_7="13000.00000" pt_clust_8="13000.00000" pt_clust_9="31.63296"></scales>
<clustering>
<clus scale="   31.633">  1  9  2 -1</clus>
<clus scale="   92.979">  5  6 -1 -1</clus>
<clus scale="   93.996">  7  8 -1 -1</clus>
<clus scale="  128.139">  2  5  1 -1</clus>
<clus scale="   31.633">  1  5  2 -1</clus>
</clustering>
</event>
<event>
 9    1  0.9000149E-006  0.1803316E+03  0.7546771E-02  0.1169295E+00
          1   -1    0    0  502    0  0.00000000000E+00  0.00000000000E+00  0.60897660505E+03  0.60897660505E+03  0.00000000000E+00 0. -1.
         -1   -1    0    0    0  501 -0.00000000000E+00 -0.00000000000E+00 -0.70181629090E+02  0.70181629090E+02  0.00000000000E+00 0.  1.
         23    2    1    2    0    0  0.10018597921E+03  0.12528771452E+03  0.13188593516E+03  0.22681934352E+03  0.91207855267E+02 0.  0.
         23    2    1    2    0    0 -0.11007097333E+03 -0.96990511048E+02  0.36712537493E+03  0.40252739693E+03  0.75660332797E+02 0.  0.
        -11    1    3    3    0    0  0.11044002509E+03  0.76001808096E+02  0.99620391738E+02  0.16702543646E+03  0.00000000000E+00 0.  1.
         11    1    3    3    0    0 -0.10254045879E+02  0.49285906428E+02  0.32265543422E+02  0.59793907061E+02  0.00000000000E+00 0. -1.
        -11    1    4    4    0    0 -0.76294598911E+02 -0.42478650675E+02  0.28648033619E+03  0.29949337991E+03  0.00000000000E+00 0. -1.
         11    1    4    4    0    0 -0.33776374419E+02 -0.54511860373E+02  0.80645038746E+02  0.10303401703E+03  0.00000000000E+00 0.  1.
         21    1    1    2  502  501  0.98849941218E+01 -0.28297203476E+02  0.39783665869E+02  0.49811493687E+02  0.00000000000E+00 0.  1.
<scales pt_clust_5="13000.00000" pt_clust_6="13000.00000" pt_clust_7="13000.00000" pt_clust_8="13000.00000" pt_clust_9="29.97407"></scales>
<clustering>
<clus scale="   29.974">  1  9  2 -1</clus>
<clus scale="   75.660">  7  8 -1 -1</clus>
<clus scale="   91.208">  5  6 -1 -1</clus>
<clus scale="  172.989">  1  7  2 -1</clus>
<clus scale="   29.974">  1  5  2 -1</clus>
</clustering>
</event>
<event>
 9    1  0.9000149E-006  0.1044760E+03  0.7546771E-02  0.1276645E+00
         -1   -1    0    0    0  501 -0.00000000000E+00  0.00000000000E+00  0.14564995747E+03  0.14564995747E+03  0.00000000000E+00 0.  1.
          1   -1    0    0  502    0  0.00000000000E+00 -0.00000000000E+00 -0.14148676104E+03  0.14148676104E+03  0.00000000000E+00 0. -1.
         23    2    1    2    0    0  0.53670592098E+01  0.14324003489E+02  0.54403548417E+02  0.10944819568E+03  0.93729286015E+02 0.  0.
         23    2    1    2    0    0  0.14496176144E+02  0.50996729542E+01  0.15348685148E+02  0.10645826859E+03  0.10421916824E+03 0.  0.
        -13    1    4    4    0    0 -0.43256234236E+02 -0.11651577868E+02  0.11232977627E+02  0.46184855239E+02  0.00000000000E+00 0. -1.
         13    1    4    4    0    0  0.57752410381E+02  0.16751250822E+02  0.41157075213E+01  0.60273413354E+02  0.00000000000E+00 0.  1.
        -13    1    3    3    0    0 -0.21384035409E+01  0.53741901884E+02  0.23006348115E+02  0.58498349049E+02  0.00000000000E+00 0.  1.
         13    1    3    3    0    0  0.75054627506E+01 -0.39417898396E+02  0.31397200302E+02  0.50949846632E+02  0.00000000000E+00 0. -1.
         21    1    1    2  502  501 -0.19863235354E+02 -0.19423676443E+02 -0.65589037136E+02  0.71230254230E+02  0.00000000000E+00 0. -1.
<scales pt_clust_5="13000.00000" pt_clust_6="13000.00000" pt_clust_7="13000.00000" pt_clust_8="13000.00000" pt_clust_9="27.78178"></scales>
<clustering>
<clus scale="   27.782">  2  9  1 -1</clus>
<clus scale="   93.729">  7  8 -1 -1</clus>
<clus scale="   94.015">  1  7  2 -1</clus>
<clus scale="  104.219">  5  6 -1 -1</clus>
<clus scale="   27.782">  2  5  1 -1</clus>
</clustering>
</event>
<event>
 9    1  0.9000149E-006  0.5274897E+03  0.7546771E-02  0.1006864E+00
          1   -1    0    0  502    0  0.00000000000E+00  0.00000000000E+00  0.11344410763E+04  0.11344410763E+04  0.00000000000E+00 0. -1.
         -1   -1    0    0    0  501 -0.00000000000E+00 -0.00000000000E+00 -0.88887883788E+03  0.88887883788E+03  0.00000000000E+00 0.  1.
         23    2    1    2    0    0 -0.26871749145E+03  0.38322163712E+03 -0.42772794898E+03  0.64075022913E+03  0.92421558199E+02 0.  0.
         23    2    1    2    0    0  0.39682457991E+03 -0.71921098894E+03  0.34445127407E+03  0.89529635151E+03  0.90413953497E+02 0.  0.
        -11    1    3    3    0    0 -0.78687629829E+02  0.15150514527E+03 -0.10539149757E+03  0.20063130336E+03  0.00000000000E+00 0. -1.
         11    1    3    3    0    0 -0.19002986162E+03  0.23171649185E+03 -0.32233645142E+03  0.44011892576E+03  0.00000000000E+00 0.  1.
        -13    1    4    4    0    0  0.26810307169E+02 -0.26614960384E+02 -0.13275265109E+00  0.37777854756E+02  0.00000000000E+00 0.  1.
         13    1    4    4    0    0  0.37001427274E+03 -0.69259602856E+03  0.34458402673E+03  0.85751849676E+03  0.00000000000E+00 0. -1.
         21    1    1    2  502  501 -0.12810708846E+03  0.33598935182E+03  0.32883891332E+03  0.48727333352E+03  0.00000000000E+00 0.  1.
<scales pt_clust_5="13000.00000" pt_clust_6="13000.00000" pt_clust_7="13000.00000" pt_clust_8="13000.00000" pt_clust_9="359.58347"></scales>
<clustering>
<clus scale="   90.414">  7  8 -1 -1</clus>
<clus scale="   92.422">  5  6 -1 -1</clus>
<clus scale="  359.583">  1  9  2 -1</clus>
<clus scale="  527.142">  1  7  2 -1</clus>
<clus scale="  359.583">  1  5  2 -1</clus>
</clustering>
</event>
<event>
 9    1  0.9000149E-006  0.9280692E+02  0.7546771E-02  0.1296466E+00
         -2   -1    0    0    0  501 -0.00000000000E+00  0.00000000000E+00  0.43365349140E+02  0.43365349140E+02  0.00000000000E+00 0.  1.
          2   -1    0    0  502    0  0.00000000000E+00 -0.00000000000E+00 -0.49000381062E+03  0.49000381062E+03  0.00000000000E+00 0. -1.
         23    2    1    2    0    0 -0.13565100242E+02  0.18616994172E+01 -0.31214872002E+02  0.97119832323E+02  0.90941826060E+02 0.  0.
         23    2    1    2    0    0  0.37459281536E+02 -0.17717208579E+00 -0.24009862685E+03  0.25929562713E+03  0.90463486941E+02 0.  0.
        -13    1    4    4    0    0  0.40417526637E+02 -0.40621711794E+02 -0.14491106805E+03  0.15582977113E+03  0.00000000000E+00 0.  1.
         13    1    4    4    0    0 -0.29582451011E+01  0.40444539708E+02 -0.95187558807E+02  0.10346585600E+03  0.00000000000E+00 0. -1.
        -13    1    3    3    0    0 -0.45993467253E+02  0.11122288259E+02 -0.40342020653E+02  0.62181853916E+02  0.00000000000E+00 0. -1.
         13    1    3    3    0    0  0.32428367011E+02 -0.92605888418E+01  0.91271486512E+01  0.34937978407E+02  0.00000000000E+00 0.  1.
         21    1    1    2  502  501 -0.23894181295E+02 -0.16845273314E+01 -0.17532496263E+03  0.17695370031E+03  0.00000000000E+00 0. -1.
<scales pt_clust_5="13000.00000" pt_clust_6="13000.00000" pt_clust_7="13000.00000" pt_clust_8="13000.00000" pt_clust_9="23.95349"></scales>
<clustering>
<clus scale="   23.953">  2  9  1 -1</clus>
<clus scale="   90.463">  5  6 -1 -1</clus>
<clus scale="   90.942">  7  8 -1 -1</clus>
<clus scale="   92.338">  2  5  1 -1</clus>
<clus scale="   23.953">  2  5  1 -1</clus>
</clustering>
</event>
<event>
 9    1  0.9000149E-006  0.9256636E+02  0.7546771E-02  0.1297005E+00
          1   -1    0    0  502    0  0.00000000000E+00  0.00000000000E+00  0.27266576602E+03  0.27266576602E+03  0.00000000000E+00 0. -1.
         -1   -1    0    0    0  501 -0.00000000000E+00 -0.00000000000E+00 -0.84336622810E+02  0.84336622810E+02  0.00000000000E+00 0.  1.
         23    2    1    2    0    0 -0.14042068054E+02  0.48201142339E+01 -0.37776225854E+02  0.99456469941E+02  0.90797208090E+02 0.  0.
         23    2    1    2    0    0  0.38057128145E+02 -0.13004017441E+00  0.16832337736E+03  0.19479658844E+03  0.90358118567E+02 0.  0.
        -11    1    4    4    0    0 -0.25201132215E+02 -0.11458827818E+02  0.23344599040E+02  0.36212872080E+02  0.00000000000E+00 0.  1.
         11    1    4    4    0    0  0.63258260361E+02  0.11328787644E+02  0.14497877832E+03  0.15858371636E+03  0.00000000000E+00 0. -1.
        -13    1    3    3    0    0  0.29951424658E+02 -0.35145530234E+00  0.12493744292E+02  0.32454660779E+02  0.00000000000E+00 0. -1.
         13    1    3    3    0    0 -0.43993492711E+02  0.51715695362E+01 -0.50269970146E+02  0.67001809162E+02  0.00000000000E+00 0.  1.
         21    1    1    2  502  501 -0.24015060091E+02 -0.46900740595E+01  0.57781991704E+02  0.62749330444E+02  0.00000000000E+00 0.  1.
<scales pt_clust_5="13000.00000" pt_clust_6="13000.00000" pt_clust_7="13000.00000" pt_clust_8="13000.00000" pt_clust_9="24.46875"></scales>
<clustering>
<clus scale="   24.469">  1  9  2 -1</clus>
<clus scale="   90.358">  5  6 -1 -1</clus>
<clus scale="   90.797">  7  8 -1 -1</clus>
<clus scale="   92.136">  1  5  2 -1</clus>
<clus scale="   24.469">  1  5  2 -1</clus>
</clustering>
</event>
<event>
 9    1  0.9000149E-006  0.1042978E+03  0.7546771E-02  0.1271960E+00
         -1   -1    0    0    0  501 -0.00000000000E+00  0.00000000000E+00  0.29744138614E+02  0.29744138614E+02  0.00000000000E+00 0.  1.
          1   -1    0    0  502    0  0.00000000000E+00 -0.00000000000E+00 -0.81696453722E+03  0.81696453722E+03  0.00000000000E+00 0. -1.
         23    2    1    2    0    0 -0.43641411585E+02  0.24627705929E+02 -0.16509348694E+03  0.19564390881E+03  0.92247400617E+02 0.  0.
         23    2    1    2    0    0 -0.24286741571E+01 -0.67201067510E+02 -0.26119286311E+03  0.28472021428E+03  0.91225033557E+02 0.  0.
        -11    1    3    3    0    0 -0.54058546147E+02 -0.60070064544E+01 -0.43000066840E+02  0.69335534081E+02  0.00000000000E+00 0.  1.
         11    1    3    3    0    0  0.10417134562E+02  0.30634712384E+02 -0.12209342010E+03  0.12630837473E+03  0.00000000000E+00 0. -1.
        -11    1    4    4    0    0 -0.31203931202E+02  0.84130848986E+01 -0.80284040221E+02  0.86544742383E+02  0.00000000000E+00 0.  1.
         11    1    4    4    0    0  0.28775257045E+02 -0.75614152409E+02 -0.18090882289E+03  0.19817547190E+03  0.00000000000E+00 0. -1.
         21    1    1    2  502  501  0.46070085742E+02  0.42573361581E+02 -0.36093404855E+03  0.36634455274E+03  0.00000000000E+00 0. -1.
<scales pt_clust_5="13000.00000" pt_clust_6="13000.00000" pt_clust_7="13000.00000" pt_clust_8="13000.00000" pt_clust_9="62.72913"></scales>
<clustering>
<clus scale="   62.729">  2  9  1 -1</clus>
<clus scale="   91.225">  7  8 -1 -1</clus>
<clus scale="   92.247">  5  6 -1 -1</clus>
<clus scale="  103.395">  2  7  1 -1</clus>
<clus scale="   62.729">  2  5  1 -1</clus>
</clustering>
</event>
<event>
 9    1  0.9000149E-006  0.1499946E+03  0.7546771E-02  0.1200599E+00
          2   -1    0    0  502    0  0.00000000000E+00  0.00000000000E+00  0.55226179117E+03  0.55226179117E+03  0.00000000000E+00 0. -1.
         -2   -1    0    0    0  501 -0.00000000000E+00 -0.00000000000E+00 -0.51399162257E+02  0.51399162257E+02  0.00000000000E+00 0.  1.
         23    2    1    2    0    0 -0.73306455366E+01 -0.11595345573E+03  0.16507791628E+03  0.22183237924E+03  0.91977952661E+02 0.  0.
         23    2    1    2    0    0  0.34341373458E+02  0.11880377570E+03  0.27087053284E+03  0.31146129141E+03  0.91343436746E+02 0.  0.
        -11    1    3    3    0    0  0.12259512159E+02 -0.46530780038E+02  0.13564127996E+03  0.14392347258E+03  0.00000000000E+00 0.  1.
         11    1    3    3    0    0 -0.19590157696E+02 -0.69422675694E+02  0.29436636312E+02  0.77908906656E+02  0.00000000000E+00 0. -1.
        -11    1    4    4    0    0 -0.19940158778E+02  0.49692080213E+02  0.48070875214E+02  0.71956388263E+02  0.00000000000E+00 0.  1.
         11    1    4    4    0    0  0.54281532236E+02  0.69111695486E+02  0.22279965763E+03  0.23950490315E+03  0.00000000000E+00 0. -1.
         21    1    1    2  502  501 -0.27010727921E+02 -0.28503199675E+01  0.64914179794E+02  0.70367282775E+02  0.00000000000E+00 0.  1.
<scales pt_clust_5="13000.00000" pt_clust_6="13000.00000" pt_clust_7="13000.00000" pt_clust_8="13000.00000" pt_clust_9="27.16070"></scales>
<clustering>
<clus scale="   27.161">  1  9  2 -1</clus>
<clus scale="   91.343">  7  8 -1 -1</clus>
<clus scale="   91.978">  5  6 -1 -1</clus>
<clus scale="  149.606">  1  7  2 -1</clus>
<clus scale="   27.161">  1  5  2 -1</clus>
</clustering>
</event>
<event>
 9    1  0.9000149E-006  0.1996560E+03  0.7546771E-02  0.1177663E+00
         -2   -1    0    0    0  501 -0.00000000000E+00  0.00000000000E+00  0.21438080361E+03  0.21438080361E+03  0.00000000000E+00 0.  1.
          2   -1    0    0  502    0  0.00000000000E+00 -0.00000000000E+00 -0.98242047958E+03  0.98242047958E+03  0.00000000000E+00 0. -1.
         23    2    1    2    0    0  0.17402214080E+03 -0.22473993781E+02  0.13032269827E+03  0.23699075298E+03  0.91606907081E+02 0.  0.
         23    2    1    2    0    0  0.19748309664E+02  0.38831019096E+02 -0.55756826557E+03  0.56743932300E+03  0.95954003229E+02 0.  0.
        -11    1    4    4    0    0  0.50456173422E+02  0.51508856137E+02 -0.37312629759E+03  0.38002923789E+03  0.00000000000E+00 0.  1.
         11    1    4    4    0    0 -0.30707863757E+02 -0.12677837041E+02 -0.18444196799E+03  0.18741008512E+03  0.00000000000E+00 0. -1.
        -11    1    3    3    0    0  0.79894403480E+02 -0.52483304278E+02  0.41773369304E+02  0.10431983186E+03  0.00000000000E+00 0.  1.
         11    1    3    3    0    0  0.94127737321E+02  0.30009310498E+02  0.88549328969E+02  0.13267092112E+03  0.00000000000E+00 0. -1.
         21    1    1    2  502  501 -0.19377045047E+03 -0.16357025315E+02 -0.34079410866E+03  0.39237120721E+03  0.00000000000E+00 0. -1.
<scales pt_clust_5="13000.00000" pt_clust_6="13000.00000" pt_clust_7="13000.00000" pt_clust_8="13000.00000" pt_clust_9="177.39984"></scales>
<clustering>
<clus scale="   91.607">  7  8 -1 -1</clus>
<clus scale="   95.954">  5  6 -1 -1</clus>
<clus scale="  105.380">  2  5  1 -1</clus>
<clus scale="  177.400">  2  9  1 -1</clus>
<clus scale="  105.380">  2  5  1 -1</clus>
</clustering>
</event>
<event>
 9    1  0.9000149E-006  0.1009621E+03  0.7546771E-02  0.1278881E+00
          2   -1    0    0  502    0  0.00000000000E+00  0.00000000000E+00  0.11758433102E+03  0.11758433102E+03  0.00000000000E+00 0. -1.
         -2   -1    0    0    0  501 -0.00000000000E+00 -0.00000000000E+00 -0.55345502900E+03  0.55345502900E+03  0.00000000000E+00 0.  1.
         23    2    1    2    0    0  0.42158014866E+02  0.54397245998E+01 -0.43593689546E+03  0.44730000899E+03  0.90716219023E+02 0.  0.
         23    2    1    2    0    0 -0.34210531063E+02  0.78948275639E+02  0.37023818703E+02  0.13127117894E+03  0.91968302181E+02 0.  0.
        -11    1    3    3    0    0 -0.16045226222E+01 -0.38263699254E+02 -0.16089383966E+03  0.16538897428E+03  0.00000000000E+00 0. -1.
         11    1    3    3    0    0  0.43762537488E+02  0.43703423853E+02 -0.27504305580E+03  0.28191103471E+03  0.00000000000E+00 0.  1.
        -11    1    4    4    0    0 -0.30849483956E+02  0.44107082287E+01  0.46585417950E+02  0.56047713361E+02  0.00000000000E+00 0. -1.
         11    1    4    4    0    0 -0.33610471076E+01  0.74537567411E+02 -0.95615992468E+01  0.75223465576E+02  0.00000000000E+00 0.  1.
         21    1    1    2  502  501 -0.79474838024E+01 -0.84388000239E+02 -0.36957621223E+02  0.92468172090E+02  0.00000000000E+00 0. -1.
<scales pt_clust_5="13000.00000" pt_clust_6="13000.00000" pt_clust_7="13000.00000" pt_clust_8="13000.00000" pt_clust_9="84.76141"></scales>
<clustering>
<clus scale="   84.761">  1  9  2 -1</clus>
<clus scale="   90.716">  5  6 -1 -1</clus>
<clus scale="   91.968">  7  8 -1 -1</clus>
<clus scale="   99.823">  2  5  1 -1</clus>
<clus scale="   84.761">  1  5  2 -1</clus>
</clustering>
</event>
<event>
 9    1  0.9000149E-006  0.1126678E+03  0.7546771E-02  0.1255883E+00
          2   -1    0    0  502    0  0.00000000000E+00  0.00000000000E+00  0.17242177536E+03  0.17242177536E+03  0.00000000000E+00 0. -1.
         -2   -1    0    0    0  501 -0.00000000000E+00 -0.00000000000E+00 -0.26914935121E+03  0.26914935121E+03  0.00000000000E+00 0.  1.
         23    2    1    2    0    0 -0.83872117420E+02  0.30600565000E+02 -0.18480703134E+03  0.22506228865E+03  0.92349706444E+02 0.  0.
         23    2    1    2    0    0  0.29670642171E+02 -0.55812718502E+02  0.10566621146E+03  0.15419714890E+03  0.92822443033E+02 0.  0.
        -13    1    4    4    0    0 -0.27099199748E+02 -0.44120684644E+02  0.33644672780E+02  0.61749214140E+02  0.00000000000E+00 0.  1.
         13    1    4    4    0    0  0.56769841919E+02 -0.11692033858E+02  0.72021538680E+02  0.92447934758E+02  0.00000000000E+00 0. -1.
        -13    1    3    3    0    0 -0.63711587908E+02  0.79354764710E+01 -0.36849371027E+02  0.74027119124E+02  0.00000000000E+00 0. -1.
         13    1    3    3    0    0 -0.20160529512E+02  0.22665088529E+02 -0.14795766032E+03  0.15103516953E+03  0.00000000000E+00 0.  1.
         21    1    1    2  502  501  0.54201475249E+02  0.25212153502E+02 -0.17586755972E+02  0.62311689024E+02  0.00000000000E+00 0.  1.
<scales pt_clust_5="13000.00000" pt_clust_6="13000.00000" pt_clust_7="13000.00000" pt_clust_8="13000.00000" pt_clust_9="59.77836"></scales>
<clustering>
<clus scale="   59.778">  2  9  1 -1</clus>
<clus scale="   92.350">  7  8 -1 -1</clus>
<clus scale="   92.822">  5  6 -1 -1</clus>
<clus scale="  112.279">  2  7  1 -1</clus>
<clus scale="  112.668">  1  5  2 -1</clus>
</clustering>
</event>
<event>
 9    1  0.9000149E-006  0.1104006E+03  0.7546771E-02  0.1261439E+00
          2   -1    0    0  502    0  0.00000000000E+00  0.00000000000E+00  0.46296537276E+03  0.46296537276E+03  0.00000000000E+00 0. -1.
         -2   -1    0    0    0  501 -0.00000000000E+00 -0.00000000000E+00 -0.41776518391E+02  0.41776518391E+02  0.00000000000E+00 0.  1.
         23    2    1    2    0    0 -0.52797907106E+02 -0.45931398207E+02  0.12279264676E+03  0.17107977848E+03  0.96399917899E+02 0.  0.
         23    2    1    2    0    0  0.16211323172E+02  0.34267432823E+02  0.14893458117E+03  0.17934618999E+03  0.92447187336E+02 0.  0.
        -11    1    3    3    0    0 -0.52521973698E+02  0.11948273979E+02  0.89075191037E+02  0.10409470991E+03  0.00000000000E+00 0.  1.
         11    1    3    3    0    0 -0.27593340820E+00 -0.57879672186E+02  0.33717455722E+02  0.66985068575E+02  0.00000000000E+00 0. -1.
        -11    1    4    4    0    0  0.32753070136E+02  0.59398524773E+02  0.11856664623E+03  0.13659794269E+03  0.00000000000E+00 0. -1.
         11    1    4    4    0    0 -0.16541746964E+02 -0.25131091950E+02  0.30367934933E+02  0.42748247301E+02  0.00000000000E+00 0.  1.
         21    1    1    2  502  501  0.36586583934E+02  0.11663965384E+02  0.14946162645E+03  0.15431592268E+03  0.00000000000E+00 0.  1.
<scales pt_clust_5="13000.00000" pt_clust_6="13000.00000" pt_clust_7="13000.00000" pt_clust_8="13000.00000" pt_clust_9="38.40086"></scales>
<clustering>
<clus scale="   38.401">  1  9  2 -1</clus>
<clus scale="   92.447">  7  8 -1 -1</clus>
<clus scale="   96.400">  5  6 -1 -1</clus>
<clus scale="  106.966">  1  7  2 -1</clus>
<clus scale="   38.401">  1  5  2 -1</clus>
</clustering>
</event>
<event>
 9    1  0.9000149E-006  0.9896156E+02  0.7546771E-02  0.1286596E+00
         -3   -1    0    0    0  501 -0.00000000000E+00  0.00000000000E+00  0.12241841988E+03  0.12241841988E+03  0.00000000000E+00 0.  1.
          3   -1    0    0  502    0  0.00000000000E+00 -0.00000000000E+00 -0.12122547297E+03  0.12122547297E+03  0.00000000000E+00 0. -1.
         23    2    1    2    0    0  0.30193760906E+02  0.24130753766E+01  0.47352297601E+02  0.10541315786E+03  0.89175151423E+02 0.  0.
         23    2    1    2    0    0  0.13330751302E+01 -0.90773232120E+01 -0.27466389804E+02  0.10097781059E+03  0.96736450094E+02 0.  0.
        -13    1    3    3    0    0  0.45654402122E+02  0.33134529763E+02  0.15416414393E+02  0.58479802740E+02  0.00000000000E+00 0.  1.
         13    1    3    3    0    0 -0.15460641216E+02 -0.30721454386E+02  0.31935883208E+02  0.46933355119E+02  0.00000000000E+00 0. -1.
        -13    1    4    4    0    0 -0.44877667848E+02 -0.72228063459E+01 -0.30323897738E+02  0.54641676192E+02  0.00000000000E+00 0. -1.
         13    1    4    4    0    0  0.46210742979E+02 -0.18545168661E+01  0.28575079342E+01  0.46336134399E+02  0.00000000000E+00 0.  1.
         21    1    1    2  502  501 -0.31526836036E+02  0.66642478354E+01 -0.18692960892E+02  0.37252924403E+02  0.00000000000E+00 0. -1.
<scales pt_clust_5="13000.00000" pt_clust_6="13000.00000" pt_clust_7="13000.00000" pt_clust_8="13000.00000" pt_clust_9="32.22349"></scales>
<clustering>
<clus scale="   32.223">  2  9  1 -1</clus>
<clus scale="   89.175">  5  6 -1 -1</clus>
<clus scale="   91.584">  1  5  2 -1</clus>
<clus scale="   96.736">  7  8 -1 -1</clus>
<clus scale="   32.223">  2  5  1 -1</clus>
</clustering>
</event>
<event>
 9    1  0.9000149E-006  0.1201882E+03  0.7546771E-02  0.1246595E+00
         -2   -1    0    0    0  501 -0.00000000000E+00  0.00000000000E+00  0.29634017317E+03  0.29634017317E+03  0.00000000000E+00 0.  1.
          2   -1    0    0  502    0  0.00000000000E+00 -0.00000000000E+00 -0.94695766780E+02  0.94695766780E+02  0.00000000000E+00 0. -1.
         23    2    1    2    0    0  0.10374114531E+02 -0.59082383905E+02  0.20691986075E+03  0.23825368328E+03  0.10173808766E+03 0.  0.
         23    2    1    2    0    0 -0.30366656899E+02  0.77257927700E+02 -0.14836801375E+02  0.12412093257E+03  0.91076637972E+02 0.  0.
        -13    1    4    4    0    0 -0.44447547069E+02  0.27304108894E+02  0.25808100490E+02  0.58199285682E+02  0.00000000000E+00 0.  1.
         13    1    4    4    0    0  0.14080890171E+02  0.49953818806E+02 -0.40644901865E+02  0.65921646892E+02  0.00000000000E+00 0. -1.
        -13    1    3    3    0    0  0.54127582468E+02 -0.39281073108E+02  0.92333195145E+02  0.11400972245E+03  0.00000000000E+00 0.  1.
         13    1    3    3    0    0 -0.43753467938E+02 -0.19801310797E+02  0.11458666561E+03  0.12424396082E+03  0.00000000000E+00 0. -1.
         21    1    1    2  502  501  0.19992542368E+02 -0.18175543795E+02  0.95613470162E+01  0.28661324103E+02  0.00000000000E+00 0.  1.
<scales pt_clust_5="13000.00000" pt_clust_6="13000.00000" pt_clust_7="13000.00000" pt_clust_8="13000.00000" pt_clust_9="27.01948"></scales>
<clustering>
<clus scale="   27.019">  2  9  1 -1</clus>
<clus scale="   91.077">  5  6 -1 -1</clus>
<clus scale="  101.738">  7  8 -1 -1</clus>
<clus scale="  111.308">  2  5  1 -1</clus>
<clus scale="   27.019">  2  5  1 -1</clus>
</clustering>
</event>
<event>
 9    1  0.9000149E-006  0.3073447E+03  0.7546771E-02  0.1081836E+00
         -1   -1    0    0    0  501 -0.00000000000E+00  0.00000000000E+00  0.48254176188E+03  0.48254176188E+03  0.00000000000E+00 0.  1.
          1   -1    0    0  502    0  0.00000000000E+00 -0.00000000000E+00 -0.40290170715E+03  0.40290170715E+03  0.00000000000E+00 0. -1.
         23    2    1    2    0    0  0.28140508501E+03 -0.21504372060E+03  0.23996408200E+03  0.43652347369E+03  0.86817963553E+02 0.  0.
         23    2    1    2    0    0 -0.88005362488E+02  0.16864115175E+03 -0.12827058719E+03  0.24746510190E+03  0.92740774379E+02 0.  0.
        -13    1    4    4    0    0  0.18889115506E+02  0.40749116472E+02 -0.28946857450E+02  0.53434162612E+02  0.00000000000E+00 0.  1.
         13    1    4    4    0    0 -0.10689447799E+03  0.12789203528E+03 -0.99323729737E+02  0.19403093929E+03  0.00000000000E+00 0. -1.
        -13    1    3    3    0    0  0.59124835401E+02 -0.68237593811E+02  0.23549899746E+02  0.93309769844E+02  0.00000000000E+00 0. -1.
         13    1    3    3    0    0  0.22228024961E+03 -0.14680612679E+03  0.21641418225E+03  0.34321370385E+03  0.00000000000E+00 0.  1.
         21    1    1    2  502  501 -0.19339972252E+03  0.46402568857E+02 -0.32053440073E+02  0.20145489344E+03  0.00000000000E+00 0. -1.
<scales pt_clust_5="13000.00000" pt_clust_6="13000.00000" pt_clust_7="13000.00000" pt_clust_8="13000.00000" pt_clust_9="198.88854"></scales>
<clustering>
<clus scale="   86.818">  7  8 -1 -1</clus>
<clus scale="   92.741">  5  6 -1 -1</clus>
<clus scale="  198.889">  2  9  1 -1</clus>
<clus scale="  305.610">  1  7  2 -1</clus>
<clus scale="  198.889">  2  5  1 -1</clus>
</clustering>
</event>
<event>
 9    1  0.9000149E-006  0.9347766E+02  0.7546771E-02  0.1295133E+00
         -4   -1    0    0    0  501 -0.00000000000E+00  0.00000000000E+00  0.15629822968E+03  0.15629822968E+03  0.00000000000E+00 0.  1.
          4   -1    0    0  502    0  0.00000000000E+00 -0.00000000000E+00 -0.10093591961E+03  0.10093591961E+03  0.00000000000E+00 0. -1.
         23    2    1    2    0    0 -0.36688241704E+01  0.44850187546E+01  0.22115519330E+02  0.92739044890E+02  0.89876907979E+02 0.  0.
         23    2    1    2    0    0 -0.21187986248E+02  0.44510555180E+02  0.67442959278E+01  0.10349666573E+03  0.90752157032E+02 0.  0.
        -11    1    4    4    0    0 -0.19336443632E+02 -0.25852181621E+02 -0.30672750163E+01  0.32429022849E+02  0.00000000000E+00 0.  1.
         11    1    4    4    0    0 -0.18515426151E+01  0.70362736802E+02  0.98115709441E+01  0.71067642881E+02  0.00000000000E+00 0. -1.
        -13    1    3    3    0    0  0.42557345388E+01  0.31685599588E+02 -0.23056967223E+02  0.39417156610E+02  0.00000000000E+00 0. -1.
         13    1    3    3    0    0 -0.79245587092E+01 -0.27200580833E+02  0.45172486553E+02  0.53321888280E+02  0.00000000000E+00 0.  1.
         21    1    1    2  502  501  0.24856810418E+02 -0.48995573935E+02  0.26502494811E+02  0.60998438673E+02  0.00000000000E+00 0. -1.
<scales pt_clust_5="13000.00000" pt_clust_6="13000.00000" pt_clust_7="13000.00000" pt_clust_8="13000.00000" pt_clust_9="54.94022"></scales>
<clustering>
<clus scale="   54.940">  1  9  2 -1</clus>
<clus scale="   89.877">  7  8 -1 -1</clus>
<clus scale="   90.752">  5  6 -1 -1</clus>
<clus scale="   92.628">  1  7  2 -1</clus>
<clus scale="   93.478">  2  5  1 -1</clus>
</clustering>
</event>
<event>
 9    1  0.9000149E-006  0.1052850E+03  0.7546771E-02  0.1283239E+00
         -1   -1    0    0    0  501 -0.00000000000E+00  0.00000000000E+00  0.11136898988E+03  0.11136898988E+03  0.00000000000E+00 0.  1.
          1   -1    0    0  502    0  0.00000000000E+00 -0.00000000000E+00 -0.15516201758E+03  0.15516201758E+03  0.00000000000E+00 0. -1.
         23    2    1    2    0    0 -0.25851069832E+02  0.11078261125E+02  0.87913042605E+01  0.10214331761E+03  0.97800637114E+02 0.  0.
         23    2    1    2    0    0  0.23052564392E+02 -0.45994425873E+02  0.14318257305E+02  0.88869965823E+02  0.71034853394E+02 0.  0.
        -11    1    4    4    0    0  0.46536900374E+02 -0.15965355836E+02  0.12200650432E+02  0.50689560605E+02  0.00000000000E+00 0. -1.
         11    1    4    4    0    0 -0.23484335981E+02 -0.30029070036E+02  0.21176068727E+01  0.38180405218E+02  0.00000000000E+00 0.  1.
        -13    1    3    3    0    0  0.90092505901E+01  0.31603280327E+02 -0.31160360574E+02  0.45286885461E+02  0.00000000000E+00 0. -1.
         13    1    3    3    0    0 -0.34860320422E+02 -0.20525019203E+02  0.39951664834E+02  0.56856432145E+02  0.00000000000E+00 0.  1.
         21    1    1    2  502  501  0.27985054399E+01  0.34916164748E+02 -0.66902589267E+02  0.75517724039E+02  0.00000000000E+00 0. -1.
<scales pt_clust_5="13000.00000" pt_clust_6="13000.00000" pt_clust_7="13000.00000" pt_clust_8="13000.00000" pt_clust_9="35.02813"></scales>
<clustering>
<clus scale="   35.028">  2  9  1 -1</clus>
<clus scale="   71.035">  5  6 -1 -1</clus>
<clus scale="   81.030">  2  5  1 -1</clus>
<clus scale="   97.801">  7  8 -1 -1</clus>
<clus scale="   35.028">  2  5  1 -1</clus>
</clustering>
</event>
<event>
 9    1  0.9000149E-006  0.1160418E+03  0.7546771E-02  0.1250534E+00
          1   -1    0    0  502    0  0.00000000000E+00  0.00000000000E+00  0.16050843305E+03  0.16050843305E+03  0.00000000000E+00 0. -1.
         -1   -1    0    0    0  501 -0.00000000000E+00 -0.00000000000E+00 -0.15860662043E+03  0.15860662043E+03  0.00000000000E+00 0.  1.
         23    2    1    2    0    0  0.63545128031E+02  0.76127586990E+01 -0.28630648231E+02  0.11564691252E+03  0.91970413532E+02 0.  0.
         23    2    1    2    0    0 -0.69635655997E+02  0.37105533148E+02 -0.31452241570E+02  0.12679400262E+03  0.94135702179E+02 0.  0.
        -11    1    3    3    0    0 -0.18565051220E+02  0.21801989558E+02 -0.92897479398E+01  0.30104605831E+02  0.00000000000E+00 0.  1.
         11    1    3    3    0    0  0.82110179252E+02 -0.14189230859E+02 -0.19340900291E+02  0.85542306686E+02  0.00000000000E+00 0. -1.
        -13    1    4    4    0    0 -0.17834186745E+02 -0.13705894862E+02  0.25900188355E+02  0.34303491479E+02  0.00000000000E+00 0. -1.
         13    1    4    4    0    0 -0.51801469252E+02  0.50811428010E+02 -0.57352429925E+02  0.92490511142E+02  0.00000000000E+00 0.  1.
         21    1    1    2  502  501  0.60905279659E+01 -0.44718291847E+02  0.61984702416E+02  0.76674138340E+02  0.00000000000E+00 0. -1.
<scales pt_clust_5="13000.00000" pt_clust_6="13000.00000" pt_clust_7="13000.00000" pt_clust_8="13000.00000" pt_clust_9="45.13114"></scales>
<clustering>
<clus scale="   45.131">  1  9  2 -1</clus>
<clus scale="   91.970">  5  6 -1 -1</clus>
<clus scale="   94.136">  7  8 -1 -1</clus>
<clus scale="  114.292">  2  5  1 -1</clus>
<clus scale="   45.131">  1  5  2 -1</clus>
</clustering>
</event>
<event>
 9    1  0.9000149E-006  0.1008354E+03  0.7546771E-02  0.1280290E+00
          1   -1    0    0  502    0  0.00000000000E+00  0.00000000000E+00  0.29337344534E+03  0.29337344534E+03  0.00000000000E+00 0. -1.
         -1   -1    0    0    0  501 -0.00000000000E+00 -0.00000000000E+00 -0.69154005116E+02  0.69154005116E+02  0.00000000000E+00 0.  1.
         23    2    1    2    0    0  0.16567904857E+02  0.51559248812E+02  0.23780906064E+01  0.10255519913E+03  0.87057808056E+02 0.  0.
         23    2    1    2    0    0 -0.49939068370E+01 -0.17526197346E+02  0.11720810765E+03  0.14933626556E+03  0.90727465597E+02 0.  0.
        -11    1    4    4    0    0  0.33941389349E+02 -0.30130985410E+01  0.11843841513E+02  0.36074551356E+02  0.00000000000E+00 0.  1.
         11    1    4    4    0    0 -0.38935296186E+02 -0.14513098805E+02  0.10536426613E+03  0.11326171420E+03  0.00000000000E+00 0. -1.
        -13    1    3    3    0    0  0.25808149085E+02 -0.88672148083E+01 -0.23654450214E+02  0.36114001060E+02  0.00000000000E+00 0.  1.
         13    1    3    3    0    0 -0.92402442271E+01  0.60426463621E+02  0.26032540820E+02  0.66441198067E+02  0.00000000000E+00 0. -1.
         21    1    1    2  502  501 -0.11573998020E+02 -0.34033051466E+02  0.10463324197E+03  0.11063598577E+03  0.00000000000E+00 0. -1.
<scales pt_clust_5="13000.00000" pt_clust_6="13000.00000" pt_clust_7="13000.00000" pt_clust_8="13000.00000" pt_clust_9="35.94727"></scales>
<clustering>
<clus scale="   35.947">  1  9  2 -1</clus>
<clus scale="   87.058">  7  8 -1 -1</clus>
<clus scale="   90.727">  5  6 -1 -1</clus>
<clus scale="   97.547">  2  7  1 -1</clus>
<clus scale="   35.947">  1  5  2 -1</clus>
</clustering>
</event>
<event>
 9    1  0.9000149E-006  0.9899212E+02  0.7546771E-02  0.1282520E+00
          2   -1    0    0  502    0  0.00000000000E+00  0.00000000000E+00  0.47246713278E+02  0.47246713278E+02  0.00000000000E+00 0. -1.
         -2   -1    0    0    0  501 -0.00000000000E+00 -0.00000000000E+00 -0.41151001929E+03  0.41151001929E+03  0.00000000000E+00 0.  1.
         23    2    1    2    0    0 -0.19592627795E+01  0.47286517794E+02 -0.17959062911E+03  0.20563882304E+03  0.88287473646E+02 0.  0.
         23    2    1    2    0    0  0.54254748120E+02 -0.24161701176E+02 -0.15705457588E+03  0.18961724469E+03  0.88097640040E+02 0.  0.
        -11    1    4    4    0    0  0.44541098442E+02 -0.53730971463E+02 -0.13329521954E+03  0.15046109895E+03  0.00000000000E+00 0.  1.
         11    1    4    4    0    0  0.97136496775E+01  0.29569270287E+02 -0.23759356343E+02  0.39156145740E+02  0.00000000000E+00 0. -1.
        -13    1    3    3    0    0  0.35174654538E+02  0.57980801525E+01 -0.11481240039E+03  0.12021963790E+03  0.00000000000E+00 0.  1.
         13    1    3    3    0    0 -0.37133917318E+02  0.41488437642E+02 -0.64778228726E+02  0.85419185141E+02  0.00000000000E+00 0. -1.
         21    1    1    2  502  501 -0.52295485341E+02 -0.23124816618E+02 -0.27618101019E+02  0.63500664835E+02  0.00000000000E+00 0. -1.
<scales pt_clust_5="13000.00000" pt_clust_6="13000.00000" pt_clust_7="13000.00000" pt_clust_8="13000.00000" pt_clust_9="57.18020"></scales>
<clustering>
<clus scale="   57.180">  1  9  2 -1</clus>
<clus scale="   88.098">  5  6 -1 -1</clus>
<clus scale="   88.287">  7  8 -1 -1</clus>
<clus scale="   98.823">  1  5  2 -1</clus>
<clus scale="   57.180">  1  5  2 -1</clus>
</clustering>
</event>
<event>
 9    1  0.9000149E-006  0.1017192E+03  0.7546771E-02  0.1283063E+00
         -1   -1    0    0    0  501 -0.00000000000E+00  0.00000000000E+00  0.27034588567E+02  0.27034588567E+02  0.00000000000E+00 0.  1.
          1   -1    0    0  502    0  0.00000000000E+00 -0.00000000000E+00 -0.57090904290E+03  0.57090904290E+03  0.00000000000E+00 0. -1.
         23    2    1    2    0    0 -0.27234337589E+00  0.31369123408E+01 -0.92155707649E+02  0.12889069621E+03  0.90056775019E+02 0.  0.
         23    2    1    2    0    0 -0.17538981600E+02  0.61978680260E+01 -0.33357798587E+03  0.34921295533E+03  0.10163358733E+03 0.  0.
        -11    1    3    3    0    0  0.41304835760E+02 -0.16038783849E+02 -0.46543835740E+02  0.64262436071E+02  0.00000000000E+00 0. -1.
         11    1    3    3    0    0 -0.41577179136E+02  0.19175696190E+02 -0.45611871910E+02  0.64628260137E+02  0.00000000000E+00 0.  1.
        -11    1    4    4    0    0 -0.28318283849E+02 -0.42725465970E+02 -0.13472144263E+03  0.14414318488E+03  0.00000000000E+00 0.  1.
         11    1    4    4    0    0  0.10779302249E+02  0.48923333996E+02 -0.19885654323E+03  0.20506977045E+03  0.00000000000E+00 0. -1.
         21    1    1    2  502  501  0.17811324976E+02 -0.93347803667E+01 -0.11814076082E+03  0.11983997992E+03  0.00000000000E+00 0. -1.
<scales pt_clust_5="13000.00000" pt_clust_6="13000.00000" pt_clust_7="13000.00000" pt_clust_8="13000.00000" pt_clust_9="20.10924"></scales>
<clustering>
<clus scale="   20.109">  2  9  1 -1</clus>
<clus scale="   90.057">  5  6 -1 -1</clus>
<clus scale="   90.153">  1  5  2 -1</clus>
<clus scale="  101.634">  7  8 -1 -1</clus>
<clus scale="   20.109">  2  5  1 -1</clus>
</clustering>
</event>
<event>
 9    1  0.9000149E-006  0.2276395E+03  0.7546771E-02  0.1128394E+00
          2   -1    0    0  502    0  0.00000000000E+00  0.00000000000E+00  0.13970680361E+03  0.13970680361E+03  0.00000000000E+00 0. -1.
         -2   -1    0    0    0  501 -0.00000000000E+00 -0.00000000000E+00 -0.54199123099E+03  0.54199123099E+03  0.00000000000E+00 0.  1.
         23    2    1    2    0    0  0.20025026304E+03 -0.65764694126E+02 -0.34967966095E+03  0.41833062209E+03  0.91101488747E+02 0.  0.
         23    2    1    2    0    0 -0.18165951540E+03  0.94558503253E+02 -0.43035813030E+02  0.22778280614E+03  0.89952406837E+02 0.  0.
        -11    1    4    4    0    0 -0.40604116948E+02 -0.16232891951E+02 -0.19422749788E+01  0.43771834852E+02  0.00000000000E+00 0.  1.
         11    1    4    4    0    0 -0.14105539845E+03  0.11079139520E+03 -0.41093538051E+02  0.18401097129E+03  0.00000000000E+00 0. -1.
        -13    1    3    3    0    0  0.13179816994E+03 -0.32993832010E+02 -0.29502594786E+03  0.32480711270E+03  0.00000000000E+00 0.  1.
         13    1    3    3    0    0  0.68452093101E+02 -0.32770862116E+02 -0.54653713096E+02  0.93523509391E+02  0.00000000000E+00 0. -1.
         21    1    1    2  502  501 -0.18590747641E+02 -0.28793809126E+02 -0.95689533940E+01  0.35584606375E+02  0.00000000000E+00 0. -1.
<scales pt_clust_5="13000.00000" pt_clust_6="13000.00000" pt_clust_7="13000.00000" pt_clust_8="13000.00000" pt_clust_9="34.27389"></scales>
<clustering>
<clus scale="   34.274">  1  9  2 -1</clus>
<clus scale="   89.952">  5  6 -1 -1</clus>
<clus scale="   91.101">  7  8 -1 -1</clus>
<clus scale="  227.182">  1  5  2 -1</clus>
<clus scale="   34.274">  1  5  2 -1</clus>
</clustering>
</event>
<event>
 9    1  0.9000149E-006  0.1078850E+03  0.7546771E-02  0.1265510E+00
         -1   -1    0    0    0  501 -0.00000000000E+00  0.00000000000E+00  0.39586318315E+03  0.39586318315E+03  0.00000000000E+00 0.  1.
          1   -1    0    0  502    0  0.00000000000E+00 -0.00000000000E+00 -0.37109436570E+02  0.37109436570E+02  0.00000000000E+00 0. -1.
         23    2    1    2    0    0  0.58724966510E+02 -0.10653781241E+01  0.20538778236E+03  0.23326174645E+03  0.93686415726E+02 0.  0.
         23    2    1    2    0    0 -0.37910076570E+02 -0.31342156468E+01  0.14219302041E+03  0.17571648008E+03  0.95970980544E+02 0.  0.
        -11    1    3    3    0    0  0.80297748134E+02  0.16079550945E+02  0.16711081520E+03  0.18609756814E+03  0.00000000000E+00 0.  1.
         11    1    3    3    0    0 -0.21572781624E+02 -0.17144929069E+02  0.38276967162E+02  0.47164178303E+02  0.00000000000E+00 0. -1.
        -13    1    4    4    0    0 -0.26661392283E+01 -0.45795960014E+02  0.47465620660E+02  0.66010327954E+02  0.00000000000E+00 0. -1.
         13    1    4    4    0    0 -0.35243937342E+02  0.42661744367E+02  0.94727399747E+02  0.10970615213E+03  0.00000000000E+00 0.  1.
         21    1    1    2  502  501 -0.20814889940E+02  0.41995937709E+01  0.11172943811E+02  0.23994393188E+02  0.00000000000E+00 0.  1.
<scales pt_clust_5="13000.00000" pt_clust_6="13000.00000" pt_clust_7="13000.00000" pt_clust_8="13000.00000" pt_clust_9="21.23432"></scales>
<clustering>
<clus scale="   21.234">  2  9  1 -1</clus>
<clus scale="   93.686">  5  6 -1 -1</clus>
<clus scale="   95.971">  7  8 -1 -1</clus>
<clus scale="  105.858">  1  5  2 -1</clus>
<clus scale="   21.234">  2  5  1 -1</clus>
</clustering>
</event>
<event>
 9    1  0.9000149E-006  0.1380670E+03  0.7546771E-02  0.1220891E+00
          2   -1    0    0  502    0  0.00000000000E+00  0.00000000000E+00  0.14816471070E+03  0.14816471070E+03  0.00000000000E+00 0. -1.
         -2   -1    0    0    0  501 -0.00000000000E+00 -0.00000000000E+00 -0.48749998933E+03  0.48749998933E+03  0.00000000000E+00 0.  1.
         23    2    1    2    0    0  0.12278841466E+02  0.80593705521E+02 -0.38670631162E+03  0.40529855000E+03  0.89883412632E+02 0.  0.
         23    2    1    2    0    0 -0.15927811168E+02 -0.13087178206E+03  0.16377701948E+02  0.17119025519E+03  0.10796645703E+03 0.  0.
        -11    1    3    3    0    0 -0.81814194269E+01  0.95593786817E+02 -0.30185945482E+03  0.31674001668E+03  0.00000000000E+00 0.  1.
         11    1    3    3    0    0  0.20460260893E+02 -0.15000081296E+02 -0.84846856804E+02  0.88558533322E+02  0.00000000000E+00 0. -1.
        -11    1    4    4    0    0  0.12292220860E+02 -0.13211055911E+03  0.35169629100E+02  0.13726325559E+03  0.00000000000E+00 0. -1.
         11    1    4    4    0    0 -0.28220032029E+02  0.12387770557E+01 -0.18791927152E+02  0.33926999607E+02  0.00000000000E+00 0.  1.
         21    1    1    2  502  501  0.36489697024E+01  0.50278076537E+02  0.30993331046E+02  0.59175894835E+02  0.00000000000E+00 0.  1.
<scales pt_clust_5="13000.00000" pt_clust_6="13000.00000" pt_clust_7="13000.00000" pt_clust_8="13000.00000" pt_clust_9="50.41032"></scales>
<clustering>
<clus scale="   50.410">  1  9  2 -1</clus>
<clus scale="   89.883">  5  6 -1 -1</clus>
<clus scale="  107.966">  7  8 -1 -1</clus>
<clus scale="  124.438">  2  5  1 -1</clus>
<clus scale="   50.410">  1  5  2 -1</clus>
</clustering>
</event>
<event>
 9    1  0.9000149E-006  0.1159566E+03  0.7546771E-02  0.1251090E+00
         -1   -1    0    0    0  501 -0.00000000000E+00  0.00000000000E+00  0.44001451100E+02  0.44001451100E+02  0.00000000000E+00 0.  1.
          1   -1    0    0  502    0  0.00000000000E+00 -0.00000000000E+00 -0.40144832266E+03  0.40144832266E+03  0.00000000000E+00 0. -1.
         23    2    1    2    0    0  0.68853046117E+02  0.18296615704E+02 -0.97769881398E+02  0.15118075312E+03  0.90670625334E+02 0.  0.
         23    2    1    2    0    0 -0.56864236390E+02 -0.35997444457E+02 -0.23282957560E+03  0.25994942615E+03  0.93993273675E+02 0.  0.
        -13    1    4    4    0    0  0.24985953443E+02 -0.79742307323E+01 -0.81727714193E+02  0.85833009340E+02  0.00000000000E+00 0.  1.
         13    1    4    4    0    0 -0.81850189834E+02 -0.28023213725E+02 -0.15110186140E+03  0.17411641681E+03  0.00000000000E+00 0. -1.
        -13    1    3    3    0    0  0.50836303070E+02 -0.28037947198E+02 -0.25372730229E+02  0.63357964236E+02  0.00000000000E+00 0.  1.
         13    1    3    3    0    0  0.18016743047E+02  0.46334562902E+02 -0.72397151169E+02  0.87822788881E+02  0.00000000000E+00 0. -1.
         21    1    1    2  502  501 -0.11988809727E+02  0.17700828753E+02 -0.26847414566E+02  0.34319594492E+02  0.00000000000E+00 0. -1.
<scales pt_clust_5="13000.00000" pt_clust_6="13000.00000" pt_clust_7="13000.00000" pt_clust_8="13000.00000" pt_clust_9="21.37875"></scales>
<clustering>
<clus scale="   21.379">  1  9  2 -1</clus>
<clus scale="   90.671">  7  8 -1 -1</clus>
<clus scale="   93.993">  5  6 -1 -1</clus>
<clus scale="  113.280">  1  7  2 -1</clus>
<clus scale="  115.957">  2  5  1 -1</clus>
</clustering>
</event>
<event>
 9    1  0.9000149E-006  0.1008679E+03  0.7546771E-02  0.1278819E+00
         -2   -1    0    0    0  501 -0.00000000000E+00  0.00000000000E+00  0.28727392136E+02  0.28727392136E+02  0.00000000000E+00 0.  1.
          2   -1    0    0  502    0  0.00000000000E+00 -0.00000000000E+00 -0.49865406812E+03  0.49865406812E+03  0.00000000000E+00 0. -1.
         23    2    1    2    0    0 -0.21900609857E+02  0.48750242283E+02 -0.13638779300E+03  0.17147078709E+03  0.89131239818E+02 0.  0.
         23    2    1    2    0    0  0.20992231063E+02 -0.28257809753E+02 -0.21577631892E+03  0.23637496119E+03  0.89858360173E+02 0.  0.
        -11    1    3    3    0    0 -0.43718981206E+02  0.52082857758E+02 -0.55947248597E+02  0.88057186053E+02  0.00000000000E+00 0.  1.
         11    1    3    3    0    0  0.21818371349E+02 -0.33326154750E+01 -0.80440544404E+02  0.83413601039E+02  0.00000000000E+00 0. -1.
        -11    1    4    4    0    0 -0.19689099863E+01  0.31693392178E+02 -0.59905100053E+02  0.67800949305E+02  0.00000000000E+00 0.  1.
         11    1    4    4    0    0  0.22961141049E+02 -0.59951201931E+02 -0.15587121887E+03  0.16857401189E+03  0.00000000000E+00 0. -1.
         21    1    1    2  502  501  0.90837879422E+00 -0.20492432530E+02 -0.11776256406E+03  0.11953571197E+03  0.00000000000E+00 0.  1.
<scales pt_clust_5="13000.00000" pt_clust_6="13000.00000" pt_clust_7="13000.00000" pt_clust_8="13000.00000" pt_clust_9="20.51256"></scales>
<clustering>
<clus scale="   20.513">  2  9  1 -1</clus>
<clus scale="   89.131">  5  6 -1 -1</clus>
<clus scale="   89.858">  7  8 -1 -1</clus>
<clus scale="  100.221">  1  5  2 -1</clus>
<clus scale="   20.513">  2  5  1 -1</clus>
</clustering>
</event>
<event>
 9    1  0.9000149E-006  0.1245917E+03  0.7546771E-02  0.1237717E+00
         -1   -1    0    0    0  501 -0.00000000000E+00  0.00000000000E+00  0.48613847122E+03  0.48613847122E+03  0.00000000000E+00 0.  1.
          1   -1    0    0  502    0  0.00000000000E+00 -0.00000000000E+00 -0.46032867884E+02  0.46032867884E+02  0.00000000000E+00 0. -1.
         23    2    1    2    0    0  0.57239657749E+02  0.65625993763E+02  0.30347115893E+03  0.33047925582E+03  0.97665985626E+02 0.  0.
         23    2    1    2    0    0 -0.41690913419E+02 -0.47696082130E+02  0.13892741051E+03  0.17784878496E+03  0.91193839753E+02 0.  0.
        -13    1    3    3    0    0 -0.11062000025E+02  0.57501787727E+02  0.17809915315E+03  0.18747835019E+03  0.00000000000E+00 0.  1.
         13    1    3    3    0    0  0.68301657774E+02  0.81242060362E+01  0.12537200579E+03  0.14300090564E+03  0.00000000000E+00 0. -1.
        -13    1    4    4    0    0 -0.37497399926E+02  0.14473611517E+02  0.90191210553E+02  0.98742062428E+02  0.00000000000E+00 0.  1.
         13    1    4    4    0    0 -0.41935134936E+01 -0.62169693647E+02  0.48736199952E+02  0.79106722529E+02  0.00000000000E+00 0. -1.
         21    1    1    2  502  501 -0.15548744330E+02 -0.17929911633E+02 -0.22929661021E+01  0.23843298324E+02  0.00000000000E+00 0.  1.
<scales pt_clust_5="13000.00000" pt_clust_6="13000.00000" pt_clust_7="13000.00000" pt_clust_8="13000.00000" pt_clust_9="23.73279"></scales>
<clustering>
<clus scale="   23.733">  2  9  1 -1</clus>
<clus scale="   91.194">  7  8 -1 -1</clus>
<clus scale="   97.666">  5  6 -1 -1</clus>
<clus scale="  119.586">  2  7  1 -1</clus>
<clus scale="   23.733">  2  5  1 -1</clus>
</clustering>
</event>
<event>
 9    1  0.9000149E-006  0.1044648E+03  0.7546771E-02  0.1271594E+00
          3   -1    0    0  502    0  0.00000000000E+00  0.00000000000E+00  0.51284831904E+03  0.51284831904E+03  0.00000000000E+00 0. -1.
         -3   -1    0    0    0  501 -0.00000000000E+00 -0.00000000000E+00 -0.44412886967E+02  0.44412886967E+02  0.00000000000E+00 0.  1.
         23    2    1    2    0    0 -0.41126428213E+02 -0.41623547669E+02  0.53141533382E+02  0.12057980966E+03  0.91058031543E+02 0.  0.
         23    2    1    2    0    0  0.13843946279E+02  0.10908552309E+02  0.30003314801E+03  0.31431806275E+03  0.92007082925E+02 0.  0.
        -13    1    3    3    0    0 -0.13539988024E+02  0.28344163397E+02  0.64875575377E+01  0.32075088109E+02  0.00000000000E+00 0. -1.
         13    1    3    3    0    0 -0.27586440189E+02 -0.69967711066E+02  0.46653975844E+02  0.88504721548E+02  0.00000000000E+00 0.  1.
        -13    1    4    4    0    0  0.46568407738E+02  0.30311844918E+02  0.17204011645E+03  0.18079055897E+03  0.00000000000E+00 0. -1.
         13    1    4    4    0    0 -0.32724461459E+02 -0.19403292609E+02  0.12799303155E+03  0.13352750379E+03  0.00000000000E+00 0.  1.
         21    1    1    2  502  501  0.27282481934E+02  0.30714995360E+02  0.11526075069E+03  0.12236333360E+03  0.00000000000E+00 0. -1.
<scales pt_clust_5="13000.00000" pt_clust_6="13000.00000" pt_clust_7="13000.00000" pt_clust_8="13000.00000" pt_clust_9="41.08217"></scales>
<clustering>
<clus scale="   41.082">  1  9  2 -1</clus>
<clus scale="   91.058">  5  6 -1 -1</clus>
<clus scale="   92.007">  7  8 -1 -1</clus>
<clus scale="  103.630">  2  5  1 -1</clus>
<clus scale="   41.082">  1  5  2 -1</clus>
</clustering>
</event>
<event>
 9    1  0.9000149E-006  0.9623098E+02  0.7546771E-02  0.1290317E+00
          1   -1    0    0  502    0  0.00000000000E+00  0.00000000000E+00  0.59538970239E+03  0.59538970239E+03  0.00000000000E+00 0. -1.
         -1   -1    0    0    0  501 -0.00000000000E+00 -0.00000000000E+00 -0.29107766297E+02  0.29107766297E+02  0.00000000000E+00 0.  1.
         23    2    1    2    0    0  0.37665616600E+01 -0.14342877378E+02  0.12707856053E+03  0.15706729161E+03  0.91111296940E+02 0.  0.
         23    2    1    2    0    0 -0.23228567109E+02  0.51425016480E+02  0.20984211622E+03  0.23427691850E+03  0.87566330014E+02 0.  0.
        -13    1    3    3    0    0 -0.14149480885E+02  0.33343924002E+02  0.79498995545E+02  0.87361978971E+02  0.00000000000E+00 0. -1.
         13    1    3    3    0    0  0.17916042545E+02 -0.47686801380E+02  0.47579564986E+02  0.69705312642E+02  0.00000000000E+00 0.  1.
        -13    1    4    4    0    0  0.22699369633E+02  0.37119530911E+02  0.45148100461E+02  0.62701450797E+02  0.00000000000E+00 0.  1.
         13    1    4    4    0    0 -0.45927936742E+02  0.14305485569E+02  0.16469401576E+03  0.17157546770E+03  0.00000000000E+00 0. -1.
         21    1    1    2  502  501  0.19462005449E+02 -0.37082139102E+02  0.22936125934E+03  0.23315325857E+03  0.00000000000E+00 0. -1.
<scales pt_clust_5="13000.00000" pt_clust_6="13000.00000" pt_clust_7="13000.00000" pt_clust_8="13000.00000" pt_clust_9="41.87905"></scales>
<clustering>
<clus scale="   41.879">  1  9  2 -1</clus>
<clus scale="   87.566">  7  8 -1 -1</clus>
<clus scale="   91.111">  5  6 -1 -1</clus>
<clus scale="   92.882">  1  7  2 -1</clus>
<clus scale="   41.879">  1  5  2 -1</clus>
</clustering>
</event>
<event>
 9    1  0.9000149E-006  0.9168569E+02  0.7546771E-02  0.1299184E+00
         -1   -1    0    0    0  501 -0.00000000000E+00  0.00000000000E+00  0.15183443855E+03  0.15183443855E+03  0.00000000000E+00 0.  1.
          1   -1    0    0  502    0  0.00000000000E+00 -0.00000000000E+00 -0.20738909255E+03  0.20738909255E+03  0.00000000000E+00 0. -1.
         23    2    1    2    0    0  0.28811686636E+01 -0.31258701060E+01  0.11093984758E+03  0.14386948620E+03  0.91502497680E+02 0.  0.
         23    2    1    2    0    0 -0.27304880147E+02 -0.23764260947E+02 -0.10199543360E+03  0.14132886945E+03  0.90887206408E+02 0.  0.
        -11    1    4    4    0    0  0.93764788515E+01  0.23382955269E+02 -0.68180584172E+02  0.72686126674E+02  0.00000000000E+00 0.  1.
         11    1    4    4    0    0 -0.36681358998E+02 -0.47147216216E+02 -0.33814849423E+02  0.68642742780E+02  0.00000000000E+00 0. -1.
        -13    1    3    3    0    0  0.24062687079E+02 -0.18603325790E+02  0.11350608318E+03  0.11751054233E+03  0.00000000000E+00 0.  1.
         13    1    3    3    0    0 -0.21181518416E+02  0.15477455684E+02 -0.25662355990E+01  0.26358943871E+02  0.00000000000E+00 0. -1.
         21    1    1    2  502  501  0.24423711483E+02  0.26890131053E+02 -0.64499067976E+02  0.74025175450E+02  0.00000000000E+00 0. -1.
<scales pt_clust_5="13000.00000" pt_clust_6="13000.00000" pt_clust_7="13000.00000" pt_clust_8="13000.00000" pt_clust_9="36.32626"></scales>
<clustering>
<clus scale="   36.326">  2  9  1 -1</clus>
<clus scale="   90.887">  5  6 -1 -1</clus>
<clus scale="   91.072">  2  5  1 -1</clus>
<clus scale="   91.502">  7  8 -1 -1</clus>
<clus scale="   36.326">  2  5  1 -1</clus>
</clustering>
</event>
<event>
 9    1  0.9000149E-006  0.1113719E+03  0.7546771E-02  0.1258290E+00
          1   -1    0    0  502    0  0.00000000000E+00  0.00000000000E+00  0.57664263321E+03  0.57664263321E+03  0.00000000000E+00 0. -1.
         -1   -1    0    0    0  501 -0.00000000000E+00 -0.00000000000E+00 -0.80470842217E+02  0.80470842217E+02  0.00000000000E+00 0.  1.
         23    2    1    2    0    0 -0.62646507308E+02  0.22099102873E+01 -0.26094663549E+02  0.11313276256E+03  0.90491004626E+02 0.  0.
         23    2    1    2    0    0  0.78014449606E+02 -0.21151110978E+02  0.47965699836E+03  0.49488378332E+03  0.91134510908E+02 0.  0.
        -11    1    3    3    0    0 -0.60361505017E+02 -0.26571755861E+02 -0.43886665388E+02  0.79218740815E+02  0.00000000000E+00 0.  1.
         11    1    3    3    0    0 -0.22850022917E+01  0.28781666148E+02  0.17792001839E+02  0.33914021749E+02  0.00000000000E+00 0. -1.
        -13    1    4    4    0    0  0.45333389557E+02  0.31127521988E+02  0.15604377593E+03  0.16544998894E+03  0.00000000000E+00 0.  1.
         13    1    4    4    0    0  0.32681060050E+02 -0.52278632966E+02  0.32361322243E+03  0.32943379439E+03  0.00000000000E+00 0. -1.
         21    1    1    2  502  501 -0.15367942298E+02  0.18941200691E+02  0.42609456184E+02  0.49096929541E+02  0.00000000000E+00 0.  1.
<scales pt_clust_5="13000.00000" pt_clust_6="13000.00000" pt_clust_7="13000.00000" pt_clust_8="13000.00000" pt_clust_9="24.39145"></scales>
<clustering>
<clus scale="   24.391">  1  9  2 -1</clus>
<clus scale="   90.491">  5  6 -1 -1</clus>
<clus scale="   91.135">  7  8 -1 -1</clus>
<clus scale="  110.846">  2  5  1 -1</clus>
<clus scale="   24.391">  1  5  2 -1</clus>
</clustering>
</event>
<event>
 9    1  0.9000149E-006  0.9473331E+02  0.7546771E-02  0.1293209E+00
          1   -1    0    0  502    0  0.00000000000E+00  0.00000000000E+00  0.57411573812E+02  0.57411573812E+02  0.00000000000E+00 0. -1.
         -1   -1    0    0    0  501 -0.00000000000E+00 -0.00000000000E+00 -0.26319262795E+03  0.26319262795E+03  0.00000000000E+00 0.  1.
         23    2    1    2    0    0  0.12563508699E+02  0.26551397553E+02 -0.11521844642E+03  0.14866400751E+03  0.89234961023E+02 0.  0.
         23    2    1    2    0    0  0.71091547740E+01 -0.19603420164E+02 -0.10904593993E+03  0.14406688000E+03  0.91811844190E+02 0.  0.
        -11    1    3    3    0    0  0.29854337582E+02  0.43597324176E+02 -0.31546039781E+02  0.61539912037E+02  0.00000000000E+00 0. -1.
         11    1    3    3    0    0 -0.17290828883E+02 -0.17045926623E+02 -0.83672406643E+02  0.87124095469E+02  0.00000000000E+00 0.  1.
        -13    1    4    4    0    0 -0.36205033134E+02  0.44444010778E+00 -0.16189975157E+02  0.39662542113E+02  0.00000000000E+00 0. -1.
         13    1    4    4    0    0  0.43314187908E+02 -0.20047860272E+02 -0.92855964771E+02  0.10440433788E+03  0.00000000000E+00 0.  1.
         21    1    1    2  502  501 -0.19672663473E+02 -0.69479773892E+01  0.18483332216E+02  0.27873314258E+02  0.00000000000E+00 0. -1.
<scales pt_clust_5="13000.00000" pt_clust_6="13000.00000" pt_clust_7="13000.00000" pt_clust_8="13000.00000" pt_clust_9="20.86356"></scales>
<clustering>
<clus scale="   20.864">  1  9  2 -1</clus>
<clus scale="   89.235">  5  6 -1 -1</clus>
<clus scale="   91.812">  7  8 -1 -1</clus>
<clus scale="   92.238">  2  5  1 -1</clus>
<clus scale="   20.864">  1  5  2 -1</clus>
</clustering>
</event>
<event>
 9    1  0.9000149E-006  0.9619714E+02  0.7546771E-02  0.1289340E+00
          1   -1    0    0  502    0  0.00000000000E+00  0.00000000000E+00  0.37768896495E+02  0.37768896495E+02  0.00000000000E+00 0. -1.
         -1   -1    0    0    0  501 -0.00000000000E+00 -0.00000000000E+00 -0.47198895427E+03  0.47198895427E+03  0.00000000000E+00 0.  1.
         23    2    1    2    0    0  0.70779742025E+01 -0.20361649433E+01 -0.32708846501E+03  0.34011807139E+03  0.92947269232E+02 0.  0.
         23    2    1    2    0    0 -0.13282166652E+02 -0.17204277930E+02 -0.50084857397E+02  0.10911691872E+03  0.94475424739E+02 0.  0.
        -11    1    4    4    0    0  0.36491561812E+02  0.77455717184E+01 -0.35648466874E+02  0.51598848390E+02  0.00000000000E+00 0.  1.
         11    1    4    4    0    0 -0.49773728464E+02 -0.24949849649E+02 -0.14436390522E+02  0.57518070326E+02  0.00000000000E+00 0. -1.
        -11    1    3    3    0    0  0.43703627609E+02  0.11048488628E+02 -0.24706671250E+03  0.25114544907E+03  0.00000000000E+00 0.  1.
         11    1    3    3    0    0 -0.36625653406E+02 -0.13084653571E+02 -0.80021752514E+02  0.88972622316E+02  0.00000000000E+00 0. -1.
         21    1    1    2  502  501  0.62041924498E+01  0.19240442874E+02 -0.57046735365E+02  0.60522860654E+02  0.00000000000E+00 0.  1.
<scales pt_clust_5="13000.00000" pt_clust_6="13000.00000" pt_clust_7="13000.00000" pt_clust_8="13000.00000" pt_clust_9="20.21600"></scales>
<clustering>
<clus scale="   20.216">  2  9  1 -1</clus>
<clus scale="   92.947">  7  8 -1 -1</clus>
<clus scale="   94.475">  5  6 -1 -1</clus>
<clus scale="   94.697">  2  7  1 -1</clus>
<clus scale="   96.197">  1  5  2 -1</clus>
</clustering>
</event>
<event>
 9    1  0.9000149E-006  0.9667041E+02  0.7546771E-02  0.1288855E+00
         -3   -1    0    0    0  501 -0.00000000000E+00  0.00000000000E+00  0.18783990585E+03  0.18783990585E+03  0.00000000000E+00 0.  1.
          3   -1    0    0  502    0  0.00000000000E+00 -0.00000000000E+00 -0.85607201716E+02  0.85607201716E+02  0.00000000000E+00 0. -1.
         23    2    1    2    0    0  0.17246368049E+02 -0.34617710847E+02  0.96951771598E+02  0.13668418248E+03  0.88244527364E+02 0.  0.
         23    2    1    2    0    0  0.20890066518E+02  0.27543883949E+02  0.96032717519E+01  0.97735892339E+02  0.90912163107E+02 0.  0.
        -11    1    4    4    0    0  0.37053290187E+02  0.46675891227E+02  0.28790716209E+02  0.66185273856E+02  0.00000000000E+00 0.  1.
         11    1    4    4    0    0 -0.16163223669E+02 -0.19132007278E+02 -0.19187444457E+02  0.31550618483E+02  0.00000000000E+00 0. -1.
        -13    1    3    3    0    0 -0.33879679093E+00  0.28264381513E+02  0.15319588477E+02  0.32150891694E+02  0.00000000000E+00 0.  1.
         13    1    3    3    0    0  0.17585164840E+02 -0.62882092360E+02  0.81632183121E+02  0.10453329079E+03  0.00000000000E+00 0. -1.
         21    1    1    2  502  501 -0.38136434567E+02  0.70738268978E+01 -0.43223392179E+01  0.39027032744E+02  0.00000000000E+00 0.  1.
<scales pt_clust_5="13000.00000" pt_clust_6="13000.00000" pt_clust_7="13000.00000" pt_clust_8="13000.00000" pt_clust_9="38.78694"></scales>
<clustering>
<clus scale="   38.787">  2  9  1 -1</clus>
<clus scale="   88.245">  7  8 -1 -1</clus>
<clus scale="   90.912">  5  6 -1 -1</clus>
<clus scale="   94.166">  1  7  2 -1</clus>
<clus scale="   38.787">  2  5  1 -1</clus>
</clustering>
</event>
<event>
 9    1  0.9000149E-006  0.1001485E+03  0.7546771E-02  0.1280181E+00
         -2   -1    0    0    0  501 -0.00000000000E+00  0.00000000000E+00  0.80674527726E+02  0.80674527726E+02  0.00000000000E+00 0.  1.
          2   -1    0    0  502    0  0.00000000000E+00 -0.00000000000E+00 -0.34817719101E+03  0.34817719101E+03  0.00000000000E+00 0. -1.
         23    2    1    2    0    0 -0.10278146689E+02 -0.42076843962E+02  0.25494642403E+02  0.10412656403E+03  0.91193549381E+02 0.  0.
         23    2    1    2    0    0  0.40128804987E+02  0.20231164099E+02 -0.19049346460E+03  0.21575115337E+03  0.90780940367E+02 0.  0.
        -13    1    3    3    0    0 -0.44134850316E+02 -0.25297090521E+02 -0.10496465432E+02  0.51942310189E+02  0.00000000000E+00 0. -1.
         13    1    3    3    0    0  0.33856703626E+02 -0.16779753441E+02  0.35991107835E+02  0.52184253843E+02  0.00000000000E+00 0.  1.
        -13    1    4    4    0    0  0.36179801293E+02  0.46182336829E+02 -0.65078309100E+02  0.87618334679E+02  0.00000000000E+00 0. -1.
         13    1    4    4    0    0  0.39490036947E+01 -0.25951172730E+02 -0.12541515550E+03  0.12813281869E+03  0.00000000000E+00 0.  1.
         21    1    1    2  502  501 -0.29850658298E+02  0.21845679863E+02 -0.10250384109E+03  0.10897400133E+03  0.00000000000E+00 0. -1.
<scales pt_clust_5="13000.00000" pt_clust_6="13000.00000" pt_clust_7="13000.00000" pt_clust_8="13000.00000" pt_clust_9="36.99048"></scales>
<clustering>
<clus scale="   36.990">  2  9  1 -1</clus>
<clus scale="   90.781">  7  8 -1 -1</clus>
<clus scale="   91.194">  5  6 -1 -1</clus>
<clus scale="   99.773">  2  7  1 -1</clus>
<clus scale="   36.990">  2  5  1 -1</clus>
</clustering>
</event>
<event>
 9    1  0.9000149E-006  0.1101082E+03  0.7546771E-02  0.1260625E+00
          1   -1    0    0  502    0  0.00000000000E+00  0.00000000000E+00  0.16296472459E+03  0.16296472459E+03  0.00000000000E+00 0. -1.
         -1   -1    0    0    0  501 -0.00000000000E+00 -0.00000000000E+00 -0.10367485815E+03  0.10367485815E+03  0.00000000000E+00 0.  1.
         23    2    1    2    0    0  0.48081211946E+02 -0.55590417118E+02 -0.54276205529E+00  0.11567344133E+03  0.89319387716E+02 0.  0.
         23    2    1    2    0    0 -0.36150345748E+02  0.37972407919E+02  0.20359965566E+02  0.10612385182E+03  0.89994402413E+02 0.  0.
        -11    1    4    4    0    0 -0.38254404710E+02 -0.21987229848E+02  0.99484874624E+01  0.45230632970E+02  0.00000000000E+00 0. -1.
         11    1    4    4    0    0  0.21040589618E+01  0.59959637766E+02  0.10411478104E+02  0.60893218846E+02  0.00000000000E+00 0.  1.
        -13    1    3    3    0    0  0.34472464299E+02  0.26992045348E+01 -0.32815298966E+02  0.47670539605E+02  0.00000000000E+00 0.  1.
         13    1    3    3    0    0  0.13608747647E+02 -0.58289621653E+02  0.32272536911E+02  0.68002901729E+02  0.00000000000E+00 0. -1.
         21    1    1    2  502  501 -0.11930866197E+02  0.17618009199E+02  0.39472662927E+02  0.44842289582E+02  0.00000000000E+00 0. -1.
<scales pt_clust_5="13000.00000" pt_clust_6="13000.00000" pt_clust_7="13000.00000" pt_clust_8="13000.00000" pt_clust_9="21.27768"></scales>
<clustering>
<clus scale="   21.278">  1  9  2 -1</clus>
<clus scale="   89.319">  7  8 -1 -1</clus>
<clus scale="   89.994">  5  6 -1 -1</clus>
<clus scale="  109.557">  2  7  1 -1</clus>
<clus scale="   21.278">  1  5  2 -1</clus>
</clustering>
</event>
<event>
 9    1  0.1315633E-005  0.1180789E+03  0.7546771E-02  0.1254303E+00
          1   -1    0    0  502    0  0.00000000000E+00  0.00000000000E+00  0.33710196574E+03  0.33710196574E+03  0.00000000000E+00 0. -1.
         -1   -1    0    0    0  501 -0.00000000000E+00 -0.00000000000E+00 -0.48800066857E+03  0.48800066857E+03  0.00000000000E+00 0.  1.
         23    2    1    2    0    0  0.39966755777E+02 -0.30265223132E+02 -0.46607940601E+03  0.48096906591E+03  0.10764712888E+03 0.  0.
         23    2    1    2    0    0 -0.17558649087E+02 -0.54060445059E+01  0.16295920593E+03  0.18619070909E+03  0.88168848692E+02 0.  0.
        -11    1    4    4    0    0 -0.48196456043E+02 -0.24383991183E+02  0.96409973179E+02  0.11050954859E+03  0.00000000000E+00 0.  1.
         11    1    4    4    0    0  0.30637806956E+02  0.18977946677E+02  0.66549232747E+02  0.75681160498E+02  0.00000000000E+00 0. -1.
        -11    1    3    3    0    0 -0.12499883577E+02  0.27809682930E+02 -0.58768708658E+02  0.66207149700E+02  0.00000000000E+00 0. -1.
         11    1    3    3    0    0  0.52466639354E+02 -0.58074906062E+02 -0.40731069735E+03  0.41476191621E+03  0.00000000000E+00 0.  1.
         21    1    1    2  502  501 -0.22408106690E+02  0.35671267638E+02  0.15222149726E+03  0.15794285931E+03  0.00000000000E+00 0. -1.
<scales pt_clust_5="13000.00000" pt_clust_6="13000.00000" pt_clust_7="13000.00000" pt_clust_8="13000.00000" pt_clust_9="42.12556"></scales>
<clustering>
<clus scale="   42.126">  1  9  2 -1</clus>
<clus scale="   88.169">  5  6 -1 -1</clus>
<clus scale="  100.640">  1  5  2 -1</clus>
<clus scale="  107.647">  7  8 -1 -1</clus>
<clus scale="   42.126">  1  5  2 -1</clus>
</clustering>
</event>
<event>
 9    1  0.9000149E-006  0.1147064E+03  0.7546771E-02  0.1252293E+00
          1   -1    0    0  502    0  0.00000000000E+00  0.00000000000E+00  0.55910431772E+03  0.55910431772E+03  0.00000000000E+00 0. -1.
         -1   -1    0    0    0  501 -0.00000000000E+00 -0.00000000000E+00 -0.14663086557E+03  0.14663086557E+03  0.00000000000E+00 0.  1.
         23    2    1    2    0    0 -0.68461281162E+02 -0.45326600274E+01 -0.10818310013E+03  0.15712507079E+03  0.90979188230E+02 0.  0.
         23    2    1    2    0    0  0.79037545342E+02 -0.39745673260E+02  0.37734289668E+03  0.39823979613E+03  0.91545734108E+02 0.  0.
        -13    1    4    4    0    0 -0.19534903284E+02 -0.16242718216E+02  0.61580061167E+02  0.66614880280E+02  0.00000000000E+00 0.  1.
         13    1    4    4    0    0  0.98572448627E+02 -0.23502955045E+02  0.31576283551E+03  0.33162491585E+03  0.00000000000E+00 0. -1.
        -13    1    3    3    0    0 -0.59795911324E+02  0.37365686924E+02 -0.75334424982E+02  0.10318440366E+03  0.00000000000E+00 0.  1.
         13    1    3    3    0    0 -0.86653698380E+01 -0.41898346951E+02 -0.32848675150E+02  0.53940667133E+02  0.00000000000E+00 0. -1.
         21    1    1    2  502  501 -0.10576264180E+02  0.44278333288E+02  0.14331365561E+03  0.15037031637E+03  0.00000000000E+00 0.  1.
<scales pt_clust_5="13000.00000" pt_clust_6="13000.00000" pt_clust_7="13000.00000" pt_clust_8="13000.00000" pt_clust_9="45.52393"></scales>
<clustering>
<clus scale="   45.524">  1  9  2 -1</clus>
<clus scale="   90.979">  7  8 -1 -1</clus>
<clus scale="   91.546">  5  6 -1 -1</clus>
<clus scale="  114.255">  2  7  1 -1</clus>
<clus scale="   45.524">  1  5  2 -1</clus>
</clustering>
</event>
<event>
 9    1  0.9000149E-006  0.9390076E+02  0.7546771E-02  0.1294398E+00
         -2   -1    0    0    0  501 -0.00000000000E+00  0.00000000000E+00  0.21017619359E+03  0.21017619359E+03  0.00000000000E+00 0.  1.
          2   -1    0    0  502    0  0.00000000000E+00 -0.00000000000E+00 -0.73699850301E+02  0.73699850301E+02  0.00000000000E+00 0. -1.
         23    2    1    2    0    0  0.91057049876E+01 -0.10815145497E+02  0.13232789997E+03  0.16256139942E+03  0.93357668326E+02 0.  0.
         23    2    1    2    0    0 -0.79654543106E+01 -0.14799679073E+02 -0.58549398886E+01  0.93792161207E+02  0.92088056878E+02 0.  0.
        -11    1    3    3    0    0  0.36229830848E+02 -0.26331093647E+02  0.12149700862E+03  0.12948918967E+03  0.00000000000E+00 0.  1.
         11    1    3    3    0    0 -0.27124125861E+02  0.15515948150E+02  0.10830891350E+02  0.33072209756E+02  0.00000000000E+00 0. -1.
        -13    1    4    4    0    0 -0.48199756728E+02 -0.11750369727E+02  0.96951067785E+01  0.50549805467E+02  0.00000000000E+00 0. -1.
         13    1    4    4    0    0  0.40234302417E+02 -0.30493093466E+01 -0.15550046667E+02  0.43242355739E+02  0.00000000000E+00 0.  1.
         21    1    1    2  502  501 -0.11402506770E+01  0.25614824570E+02  0.10003383204E+02  0.27522483262E+02  0.00000000000E+00 0.  1.
<scales pt_clust_5="13000.00000" pt_clust_6="13000.00000" pt_clust_7="13000.00000" pt_clust_8="13000.00000" pt_clust_9="25.64019"></scales>
<clustering>
<clus scale="   25.640">  2  9  1 -1</clus>
<clus scale="   92.088">  7  8 -1 -1</clus>
<clus scale="   92.639">  2  7  1 -1</clus>
<clus scale="   93.358">  5  6 -1 -1</clus>
<clus scale="   25.640">  2  5  1 -1</clus>
</clustering>
</event>
<event>
 9    1  0.9000149E-006  0.1529298E+03  0.7546771E-02  0.1217676E+00
         -1   -1    0    0    0  501 -0.00000000000E+00  0.00000000000E+00  0.71470357947E+03  0.71470357947E+03  0.00000000000E+00 0.  1.
          1   -1    0    0  502    0  0.00000000000E+00 -0.00000000000E+00 -0.74532632569E+02  0.74532632569E+02  0.00000000000E+00 0. -1.
         23    2    1    2    0    0 -0.24089560375E+02 -0.20342902849E+02  0.21049851869E+03  0.23218092692E+03  0.92758912464E+02 0.  0.
         23    2    1    2    0    0 -0.16916887719E+02 -0.10027653636E+03  0.40499896873E+03  0.42728873510E+03  0.90608684137E+02 0.  0.
        -11    1    4    4    0    0 -0.42508356204E+02 -0.93426639889E+02  0.36616271702E+03  0.38027704732E+03  0.00000000000E+00 0.  1.
         11    1    4    4    0    0  0.25591468486E+02 -0.68498964670E+01  0.38836251714E+02  0.47011687782E+02  0.00000000000E+00 0. -1.
        -13    1    3    3    0    0 -0.38774350254E+02  0.27141794386E+02  0.86705155971E+02  0.98782140653E+02  0.00000000000E+00 0. -1.
         13    1    3    3    0    0  0.14684789879E+02 -0.47484697235E+02  0.12379336272E+03  0.13339878627E+03  0.00000000000E+00 0.  1.
         21    1    1    2  502  501  0.41006448094E+02  0.12061943920E+03  0.24673459484E+02  0.12976655001E+03  0.00000000000E+00 0. -1.
<scales pt_clust_5="13000.00000" pt_clust_6="13000.00000" pt_clust_7="13000.00000" pt_clust_8="13000.00000" pt_clust_9="123.19740"></scales>
<clustering>
<clus scale="   90.609">  5  6 -1 -1</clus>
<clus scale="   92.759">  7  8 -1 -1</clus>
<clus scale="   97.971">  1  7  2 -1</clus>
<clus scale="  123.197">  2  9  1 -1</clus>
<clus scale="  123.197">  2  5  1 -1</clus>
</clustering>
</event>
<event>
 9    1  0.9000149E-006  0.9890412E+02  0.7546771E-02  0.1285893E+00
         -2   -1    0    0    0  501 -0.00000000000E+00  0.00000000000E+00  0.82219854752E+02  0.82219854752E+02  0.00000000000E+00 0.  1.
          2   -1    0    0  502    0  0.00000000000E+00 -0.00000000000E+00 -0.37938189510E+03  0.37938189510E+03  0.00000000000E+00 0. -1.
         23    2    1    2    0    0  0.39891920052E+02  0.28131902699E+02  0.20475295540E+02  0.10598723012E+03  0.91822034321E+02 0.  0.
         23    2    1    2    0    0 -0.99523142656E+01 -0.29975619190E+01 -0.29378781855E+03  0.30982244008E+03  0.97829587099E+02 0.  0.
        -11    1    3    3    0    0 -0.20860579454E+02  0.22299237873E+02 -0.16419590913E+02  0.34670199748E+02  0.00000000000E+00 0. -1.
         11    1    3    3    0    0  0.60752499506E+02  0.58326648264E+01  0.36894886452E+02  0.71317030375E+02  0.00000000000E+00 0.  1.
        -11    1    4    4    0    0 -0.71429725750E+01 -0.43764111022E+02 -0.74005252558E+02  0.86273384522E+02  0.00000000000E+00 0.  1.
         11    1    4    4    0    0 -0.28093416905E+01  0.40766549103E+02 -0.21978256600E+03  0.22354905556E+03  0.00000000000E+00 0. -1.
         21    1    1    2  502  501 -0.29939605786E+02 -0.25134340780E+02 -0.23849517331E+02  0.45792079643E+02  0.00000000000E+00 0. -1.
<scales pt_clust_5="13000.00000" pt_clust_6="13000.00000" pt_clust_7="13000.00000" pt_clust_8="13000.00000" pt_clust_9="39.09111"></scales>
<clustering>
<clus scale="   39.091">  1  9  2 -1</clus>
<clus scale="   91.822">  5  6 -1 -1</clus>
<clus scale="   92.966">  1  5  2 -1</clus>
<clus scale="   97.830">  7  8 -1 -1</clus>
<clus scale="   98.904">  2  5  1 -1</clus>
</clustering>
</event>
<event>
 9    1  0.9000149E-006  0.9321975E+02  0.7546771E-02  0.1296206E+00
          2   -1    0    0  502    0  0.00000000000E+00  0.00000000000E+00  0.54019038132E+03  0.54019038132E+03  0.00000000000E+00 0. -1.
         -2   -1    0    0    0  501 -0.00000000000E+00 -0.00000000000E+00 -0.56797812855E+02  0.56797812855E+02  0.00000000000E+00 0.  1.
         23    2    1    2    0    0  0.23206500821E+01  0.49489420943E+02  0.52006282788E+02  0.11558032609E+03  0.90551477772E+02 0.  0.
         23    2    1    2    0    0 -0.26685241731E+02  0.23327460042E+02  0.89454732721E+02  0.13096084158E+03  0.88838731998E+02 0.  0.
        -11    1    3    3    0    0  0.17375216248E+02 -0.15181857025E+02  0.42694084614E+02  0.48530112131E+02  0.00000000000E+00 0. -1.
         11    1    3    3    0    0 -0.15054566166E+02  0.64671277968E+02  0.93121981736E+01  0.67050213954E+02  0.00000000000E+00 0.  1.
        -11    1    4    4    0    0 -0.55837440535E+02 -0.33834021986E+01  0.48543619626E+02  0.74065850311E+02  0.00000000000E+00 0.  1.
         11    1    4    4    0    0  0.29152198804E+02  0.26710862241E+02  0.40911113095E+02  0.56894991269E+02  0.00000000000E+00 0. -1.
         21    1    1    2  502  501  0.24364591649E+02 -0.72816880985E+02  0.34193155296E+03  0.35044702651E+03  0.00000000000E+00 0. -1.
<scales pt_clust_5="13000.00000" pt_clust_6="13000.00000" pt_clust_7="13000.00000" pt_clust_8="13000.00000" pt_clust_9="76.78497"></scales>
<clustering>
<clus scale="   76.785">  1  9  2 -1</clus>
<clus scale="   88.839">  7  8 -1 -1</clus>
<clus scale="   90.551">  5  6 -1 -1</clus>
<clus scale="   91.557">  1  7  2 -1</clus>
<clus scale="   76.785">  1  5  2 -1</clus>
</clustering>
</event>
<event>
 9    1  0.9000149E-006  0.1314997E+03  0.7546771E-02  0.1227281E+00
          2   -1    0    0  502    0  0.00000000000E+00  0.00000000000E+00  0.30590463969E+03  0.30590463969E+03  0.00000000000E+00 0. -1.
         -2   -1    0    0    0  501 -0.00000000000E+00 -0.00000000000E+00 -0.13016312086E+03  0.13016312086E+03  0.00000000000E+00 0.  1.
         23    2    1    2    0    0  0.75345322959E+02 -0.55601247618E+01 -0.30927208001E+02  0.12652928648E+03  0.96671275274E+02 0.  0.
         23    2    1    2    0    0 -0.12655357829E+03 -0.51254984233E+01  0.84013173589E+02  0.17619361029E+03  0.89128536729E+02 0.  0.
        -11    1    3    3    0    0  0.59098279676E+02 -0.41444406145E+02 -0.44580702031E+02  0.84839168165E+02  0.00000000000E+00 0.  1.
         11    1    3    3    0    0  0.16247043283E+02  0.35884281383E+02  0.13653494030E+02  0.41690118314E+02  0.00000000000E+00 0. -1.
        -13    1    4    4    0    0 -0.74301527786E+02 -0.29791128763E+02  0.76252892203E+01  0.80413763872E+02  0.00000000000E+00 0.  1.
         13    1    4    4    0    0 -0.52252050500E+02  0.24665630340E+02  0.76387884369E+02  0.95779846418E+02  0.00000000000E+00 0. -1.
         21    1    1    2  502  501  0.51208255327E+02  0.10685623185E+02  0.12265555324E+03  0.13334486379E+03  0.00000000000E+00 0. -1.
<scales pt_clust_5="13000.00000" pt_clust_6="13000.00000" pt_clust_7="13000.00000" pt_clust_8="13000.00000" pt_clust_9="52.31126"></scales>
<clustering>
<clus scale="   52.311">  1  9  2 -1</clus>
<clus scale="   89.129">  7  8 -1 -1</clus>
<clus scale="   96.671">  5  6 -1 -1</clus>
<clus scale="  126.058">  1  7  2 -1</clus>
<clus scale="   52.311">  1  5  2 -1</clus>
</clustering>
</event>
<event>
 9    1  0.9000149E-006  0.9196846E+02  0.7546771E-02  0.1298317E+00
         -1   -1    0    0    0  501 -0.00000000000E+00  0.00000000000E+00  0.15234082743E+03  0.15234082743E+03  0.00000000000E+00 0.  1.
          1   -1    0    0  502    0  0.00000000000E+00 -0.00000000000E+00 -0.45551534872E+03  0.45551534872E+03  0.00000000000E+00 0. -1.
         23    2    1    2    0    0 -0.15016527041E+02 -0.63336149357E+01  0.12643100186E+03  0.15617856033E+03  0.90229339528E+02 0.  0.
         23    2    1    2    0    0  0.24386800226E+02 -0.19337046673E+02 -0.21504161480E+03  0.23538046915E+03  0.90512053147E+02 0.  0.
        -11    1    3    3    0    0  0.15365948812E+02  0.16498992004E+02  0.11397540709E+03  0.11618400295E+03  0.00000000000E+00 0.  1.
         11    1    3    3    0    0 -0.30382475853E+02 -0.22832606940E+02  0.12455594769E+02  0.39994557376E+02  0.00000000000E+00 0. -1.
        -11    1    4    4    0    0  0.17283052447E+02 -0.44787167626E+02 -0.19846433871E+03  0.20418787433E+03  0.00000000000E+00 0. -1.
         11    1    4    4    0    0  0.71037477788E+01  0.25450120954E+02 -0.16577276089E+02  0.31192594820E+02  0.00000000000E+00 0.  1.
         21    1    1    2  502  501 -0.93702731850E+01  0.25670661608E+02 -0.21456390836E+03  0.21629714667E+03  0.00000000000E+00 0.  1.
<scales pt_clust_5="13000.00000" pt_clust_6="13000.00000" pt_clust_7="13000.00000" pt_clust_8="13000.00000" pt_clust_9="27.32737"></scales>
<clustering>
<clus scale="   27.327">  2  9  1 -1</clus>
<clus scale="   90.229">  5  6 -1 -1</clus>
<clus scale="   90.512">  7  8 -1 -1</clus>
<clus scale="   91.690">  1  5  2 -1</clus>
<clus scale="   27.327">  2  5  1 -1</clus>
</clustering>
</event>
<event>
 9    1  0.9000149E-006  0.1199324E+03  0.7546771E-02  0.1243738E+00
          3   -1    0    0  502    0  0.00000000000E+00  0.00000000000E+00  0.10076127777E+03  0.10076127777E+03  0.00000000000E+00 0. -1.
         -3   -1    0    0    0  501 -0.00000000000E+00 -0.00000000000E+00 -0.21715395081E+03  0.21715395081E+03  0.00000000000E+00 0.  1.
         23    2    1    2    0    0  0.62536296786E+02  0.54862150179E+02 -0.11870211555E+03  0.17140759335E+03  0.91486211442E+02 0.  0.
         23    2    1    2    0    0 -0.32035390830E+02 -0.61716334040E+02 -0.72654900908E+01  0.11381261367E+03  0.89807302214E+02 0.  0.
        -11    1    4    4    0    0 -0.40081088820E+02  0.68995102609E+01 -0.16930637260E+02  0.44053869307E+02  0.00000000000E+00 0.  1.
         11    1    4    4    0    0  0.80456979906E+01 -0.68615844300E+02  0.96651471689E+01  0.69758744362E+02  0.00000000000E+00 0. -1.
        -13    1    3    3    0    0  0.22871621744E+02  0.74288248005E+02 -0.89093438702E+02  0.11823491740E+03  0.00000000000E+00 0.  1.
         13    1    3    3    0    0  0.39664675042E+02 -0.19426097827E+02 -0.29608676848E+02  0.53172675949E+02  0.00000000000E+00 0. -1.
         21    1    1    2  502  501 -0.30500905956E+02  0.68541838610E+01  0.95749325963E+01  0.32695021559E+02  0.00000000000E+00 0. -1.
<scales pt_clust_5="13000.00000" pt_clust_6="13000.00000" pt_clust_7="13000.00000" pt_clust_8="13000.00000" pt_clust_9="31.26156"></scales>
<clustering>
<clus scale="   31.262">  1  9  2 -1</clus>
<clus scale="   89.807">  5  6 -1 -1</clus>
<clus scale="   91.486">  7  8 -1 -1</clus>
<clus scale="  118.657">  1  5  2 -1</clus>
<clus scale="   31.262">  1  5  2 -1</clus>
</clustering>
</event>
<event>
 9    1  0.9000149E-006  0.1148406E+03  0.7546771E-02  0.1252638E+00
          2   -1    0    0  502    0  0.00000000000E+00  0.00000000000E+00  0.47636928079E+02  0.47636928079E+02  0.00000000000E+00 0. -1.
         -2   -1    0    0    0  501 -0.00000000000E+00 -0.00000000000E+00 -0.49333467904E+03  0.49333467904E+03  0.00000000000E+00 0.  1.
         23    2    1    2    0    0  0.37387345927E+02 -0.30657237332E+02 -0.16241399239E+03  0.19106274166E+03  0.88255234919E+02 0.  0.
         23    2    1    2    0    0 -0.95247383436E+02  0.47775136996E+02 -0.23763862726E+03  0.27424986440E+03  0.85943837409E+02 0.  0.
        -11    1    4    4    0    0 -0.10328633970E+03  0.18714824747E+02 -0.20135753002E+03  0.22707524640E+03  0.00000000000E+00 0.  1.
         11    1    4    4    0    0  0.80389562617E+01  0.29060312249E+02 -0.36281097245E+02  0.47174617996E+02  0.00000000000E+00 0. -1.
        -11    1    3    3    0    0 -0.10412550068E+02 -0.27788841691E+02 -0.10018754490E+02  0.31321180740E+02  0.00000000000E+00 0.  1.
         11    1    3    3    0    0  0.47799895995E+02 -0.28683956408E+01 -0.15239523790E+03  0.15974156092E+03  0.00000000000E+00 0. -1.
         21    1    1    2  502  501  0.57860037509E+02 -0.17117899664E+02 -0.45645131311E+02  0.75659001063E+02  0.00000000000E+00 0. -1.
<scales pt_clust_5="13000.00000" pt_clust_6="13000.00000" pt_clust_7="13000.00000" pt_clust_8="13000.00000" pt_clust_9="60.33910"></scales>
<clustering>
<clus scale="   60.339">  1  9  2 -1</clus>
<clus scale="   85.944">  5  6 -1 -1</clus>
<clus scale="   88.255">  7  8 -1 -1</clus>
<clus scale="  113.074">  1  5  2 -1</clus>
<clus scale="   60.339">  1  5  2 -1</clus>
</clustering>
</event>
<event>
 9    1  0.9000149E-006  0.1015487E+03  0.7546771E-02  0.1277230E+00
         -1   -1    0    0    0  501 -0.00000000000E+00  0.00000000000E+00  0.32285622969E+02  0.32285622969E+02  0.00000000000E+00 0.  1.
          1   -1    0    0  502    0  0.00000000000E+00 -0.00000000000E+00 -0.67759931845E+03  0.67759931845E+03  0.00000000000E+00 0. -1.
         23    2    1    2    0    0 -0.12829387432E+02 -0.43400468924E+02 -0.10939825334E+03  0.15055717337E+03  0.93012314969E+02 0.  0.
         23    2    1    2    0    0  0.45289941034E+02  0.93640676145E+01 -0.27224098292E+03  0.29149127949E+03  0.93344248444E+02 0.  0.
        -11    1    4    4    0    0  0.41651833502E+02 -0.28867778558E+02 -0.22486290767E+03  0.23050282237E+03  0.00000000000E+00 0.  1.
         11    1    4    4    0    0  0.36381075326E+01  0.38231846172E+02 -0.47378075245E+02  0.60988457122E+02  0.00000000000E+00 0. -1.
        -11    1    3    3    0    0  0.15979264042E+02 -0.30849222787E+02  0.20117517539E+01  0.34800266824E+02  0.00000000000E+00 0.  1.
         11    1    3    3    0    0 -0.28808651474E+02 -0.12551246137E+02 -0.11141000509E+03  0.11575690655E+03  0.00000000000E+00 0. -1.
         21    1    1    2  502  501 -0.32460553602E+02  0.34036401310E+02 -0.26367445923E+03  0.26783648856E+03  0.00000000000E+00 0. -1.
<scales pt_clust_5="13000.00000" pt_clust_6="13000.00000" pt_clust_7="13000.00000" pt_clust_8="13000.00000" pt_clust_9="47.03365"></scales>
<clustering>
<clus scale="   47.034">  2  9  1 -1</clus>
<clus scale="   93.012">  7  8 -1 -1</clus>
<clus scale="   93.344">  5  6 -1 -1</clus>
<clus scale="  101.244">  1  7  2 -1</clus>
<clus scale="   47.034">  2  5  1 -1</clus>
</clustering>
</event>
<event>
 9    1  0.9000149E-006  0.1763996E+03  0.7546771E-02  0.1171713E+00
         -2   -1    0    0    0  501 -0.00000000000E+00  0.00000000000E+00  0.69266557032E+02  0.69266557032E+02  0.00000000000E+00 0.  1.
          2   -1    0    0  502    0  0.00000000000E+00 -0.00000000000E+00 -0.10887054031E+04  0.10887054031E+04  0.00000000000E+00 0. -1.
         23    2    1    2    0    0 -0.10664894869E+03 -0.84300376734E+02 -0.20080549899E+03  0.26003262113E+03  0.93880582938E+02 0.  0.
         23    2    1    2    0    0  0.36725215415E+02  0.20391193080E+03 -0.44056976258E+03  0.49528772002E+03  0.90991169551E+02 0.  0.
        -11    1    4    4    0    0  0.55806189788E+02  0.63293635148E+02 -0.16547695419E+03  0.18574993253E+03  0.00000000000E+00 0. -1.
         11    1    4    4    0    0 -0.19080974373E+02  0.14061829565E+03 -0.27509280839E+03  0.30953778749E+03  0.00000000000E+00 0.  1.
        -13    1    3    3    0    0 -0.47460452909E+02  0.29433268793E+01 -0.21850186552E+02  0.52331524112E+02  0.00000000000E+00 0.  1.
         13    1    3    3    0    0 -0.59188495785E+02 -0.87243703613E+02 -0.17895531244E+03  0.20770109702E+03  0.00000000000E+00 0. -1.
         21    1    1    2  502  501  0.69923733280E+02 -0.11961155407E+03 -0.37806358453E+03  0.40265161901E+03  0.00000000000E+00 0. -1.
<scales pt_clust_5="13000.00000" pt_clust_6="13000.00000" pt_clust_7="13000.00000" pt_clust_8="13000.00000" pt_clust_9="138.55054"></scales>
<clustering>
<clus scale="   90.991">  5  6 -1 -1</clus>
<clus scale="   93.881">  7  8 -1 -1</clus>
<clus scale="  138.551">  2  9  1 -1</clus>
<clus scale="  174.879">  2  5  1 -1</clus>
<clus scale="  138.551">  2  5  1 -1</clus>
</clustering>
</event>
<event>
 9    1  0.9000149E-006  0.1524477E+03  0.7546771E-02  0.1197849E+00
         -2   -1    0    0    0  501 -0.00000000000E+00  0.00000000000E+00  0.47114184941E+02  0.47114184941E+02  0.00000000000E+00 0.  1.
          2   -1    0    0  502    0  0.00000000000E+00 -0.00000000000E+00 -0.60306781808E+03  0.60306781808E+03  0.00000000000E+00 0. -1.
         23    2    1    2    0    0 -0.10888966439E+03 -0.14571637784E+02 -0.20890528670E+03  0.25379580835E+03  0.93282377165E+02 0.  0.
         23    2    1    2    0    0  0.12825738650E+03  0.22320490165E+02 -0.25276642889E+03  0.29982412473E+03  0.95160268622E+02 0.  0.
        -11    1    4    4    0    0  0.17429501744E+02 -0.17995392954E+02 -0.11849715780E+03  0.12111646505E+03  0.00000000000E+00 0. -1.
         11    1    4    4    0    0  0.11082788475E+03  0.40315883119E+02 -0.13426927109E+03  0.17870765968E+03  0.00000000000E+00 0.  1.
        -13    1    3    3    0    0 -0.10207671171E+03 -0.45959285240E+02 -0.15932602285E+03  0.19472209050E+03  0.00000000000E+00 0. -1.
         13    1    3    3    0    0 -0.68129526808E+01  0.31387647455E+02 -0.49579263849E+02  0.59073717852E+02  0.00000000000E+00 0.  1.
         21    1    1    2  502  501 -0.19367722107E+02 -0.77488523812E+01 -0.94281917555E+02  0.96562069938E+02  0.00000000000E+00 0.  1.
<scales pt_clust_5="13000.00000" pt_clust_6="13000.00000" pt_clust_7="13000.00000" pt_clust_8="13000.00000" pt_clust_9="20.86033"></scales>
<clustering>
<clus scale="   20.860">  2  9  1 -1</clus>
<clus scale="   93.282">  7  8 -1 -1</clus>
<clus scale="   95.160">  5  6 -1 -1</clus>
<clus scale="  151.283">  1  7  2 -1</clus>
<clus scale="   20.860">  2  5  1 -1</clus>
</clustering>
</event>
<event>
 9    1  0.9000149E-006  0.1117300E+03  0.7546771E-02  0.1257710E+00
          2   -1    0    0  502    0  0.00000000000E+00  0.00000000000E+00  0.58201841164E+03  0.58201841164E+03  0.00000000000E+00 0. -1.
         -2   -1    0    0    0  501 -0.00000000000E+00 -0.00000000000E+00 -0.75713197943E+02  0.75713197943E+02  0.00000000000E+00 0.  1.
         23    2    1    2    0    0  0.77845573662E+02 -0.52452345344E+01  0.24822133448E+01  0.12028435817E+03  0.91513494162E+02 0.  0.
         23    2    1    2    0    0  0.44665040635E+01  0.38021032238E+02  0.27340691704E+03  0.29058473400E+03  0.90678535475E+02 0.  0.
        -11    1    3    3    0    0  0.72479237043E+02  0.34104739811E+02  0.65103296410E+01  0.80366395166E+02  0.00000000000E+00 0.  1.
         11    1    3    3    0    0  0.53663366188E+01 -0.39349974345E+02 -0.40281162961E+01  0.39917963006E+02  0.00000000000E+00 0. -1.
        -13    1    4    4    0    0 -0.40264507489E+02  0.34811965851E+02  0.13600882532E+03  0.14605308656E+03  0.00000000000E+00 0. -1.
         13    1    4    4    0    0  0.44731011552E+02  0.32090663866E+01  0.13739809172E+03  0.14453164743E+03  0.00000000000E+00 0.  1.
         21    1    1    2  502  501 -0.82312077725E+02 -0.32775797704E+02  0.23041608331E+03  0.24686251741E+03  0.00000000000E+00 0. -1.
<scales pt_clust_5="13000.00000" pt_clust_6="13000.00000" pt_clust_7="13000.00000" pt_clust_8="13000.00000" pt_clust_9="88.59758"></scales>
<clustering>
<clus scale="   88.598">  1  9  2 -1</clus>
<clus scale="   90.679">  7  8 -1 -1</clus>
<clus scale="   91.513">  5  6 -1 -1</clus>
<clus scale="  111.047">  1  7  2 -1</clus>
<clus scale="   88.598">  1  5  2 -1</clus>
</clustering>
</event>
<event>
 9    1  0.9000149E-006  0.1014115E+03  0.7546771E-02  0.1281542E+00
         -1   -1    0    0    0  501 -0.00000000000E+00  0.00000000000E+00  0.29280286136E+02  0.29280286136E+02  0.00000000000E+00 0.  1.
          1   -1    0    0  502    0  0.00000000000E+00 -0.00000000000E+00 -0.43509825595E+03  0.43509825595E+03  0.00000000000E+00 0. -1.
         23    2    1    2    0    0  0.13934627409E+02  0.18141685076E+02 -0.15248064337E+03  0.17884754771E+03  0.90624522850E+02 0.  0.
         23    2    1    2    0    0  0.78192545718E+01 -0.29031144066E+02 -0.17109035877E+03  0.19976167940E+03  0.98635032454E+02 0.  0.
        -11    1    3    3    0    0  0.42185783785E+02 -0.16360189173E+02 -0.52083419176E+02  0.68992598852E+02  0.00000000000E+00 0. -1.
         11    1    3    3    0    0 -0.28251156376E+02  0.34501874249E+02 -0.10039722420E+03  0.10985494886E+03  0.00000000000E+00 0.  1.
        -13    1    4    4    0    0  0.74935447392E+01 -0.62297009935E+02 -0.73410271725E+02  0.96571935128E+02  0.00000000000E+00 0. -1.
         13    1    4    4    0    0  0.32570983261E+00  0.33265865870E+02 -0.97680087043E+02  0.10318974428E+03  0.00000000000E+00 0.  1.
         21    1    1    2  502  501 -0.21753881981E+02  0.10889458990E+02 -0.82246967674E+02  0.85769314967E+02  0.00000000000E+00 0.  1.
<scales pt_clust_5="13000.00000" pt_clust_6="13000.00000" pt_clust_7="13000.00000" pt_clust_8="13000.00000" pt_clust_9="24.32718"></scales>
<clustering>
<clus scale="   24.327">  2  9  1 -1</clus>
<clus scale="   90.625">  5  6 -1 -1</clus>
<clus scale="   93.639">  1  5  2 -1</clus>
<clus scale="   98.635">  7  8 -1 -1</clus>
<clus scale="   24.327">  2  5  1 -1</clus>
</clustering>
</event>
<event>
 9    1  0.9000149E-006  0.1052279E+03  0.7546771E-02  0.1273454E+00
          2   -1    0    0  502    0  0.00000000000E+00  0.00000000000E+00  0.22505364970E+03  0.22505364970E+03  0.00000000000E+00 0. -1.
         -2   -1    0    0    0  501 -0.00000000000E+00 -0.00000000000E+00 -0.97066408627E+02  0.97066408627E+02  0.00000000000E+00 0.  1.
         23    2    1    2    0    0 -0.63075359142E+01 -0.53544288676E+02 -0.30070995306E+02  0.10613722781E+03  0.86336959113E+02 0.  0.
         23    2    1    2    0    0  0.24165271790E+02  0.21142418184E+02  0.74672702207E+02  0.12475823268E+03  0.94644820031E+02 0.  0.
        -11    1    4    4    0    0  0.29893566606E+02 -0.19984306669E+02  0.75064475821E+02  0.83232646046E+02  0.00000000000E+00 0.  1.
         11    1    4    4    0    0 -0.57282948160E+01  0.41126724853E+02 -0.39177361456E+00  0.41525586632E+02  0.00000000000E+00 0. -1.
        -11    1    3    3    0    0  0.35429503192E+02 -0.17463823450E+02 -0.32146527571E+02  0.50927733710E+02  0.00000000000E+00 0.  1.
         11    1    3    3    0    0 -0.41737039106E+02 -0.36080465227E+02  0.20755322654E+01  0.55209494098E+02  0.00000000000E+00 0. -1.
         21    1    1    2  502  501 -0.17857735876E+02  0.32401870493E+02  0.83385534169E+02  0.91224597838E+02  0.00000000000E+00 0. -1.
<scales pt_clust_5="13000.00000" pt_clust_6="13000.00000" pt_clust_7="13000.00000" pt_clust_8="13000.00000" pt_clust_9="36.99703"></scales>
<clustering>
<clus scale="   36.997">  1  9  2 -1</clus>
<clus scale="   86.337">  7  8 -1 -1</clus>
<clus scale="   94.645">  5  6 -1 -1</clus>
<clus scale="   97.823">  2  7  1 -1</clus>
<clus scale="   36.997">  1  5  2 -1</clus>
</clustering>
</event>
<event>
 9    1  0.9000149E-006  0.1109094E+03  0.7546771E-02  0.1264929E+00
         -4   -1    0    0    0  501 -0.00000000000E+00  0.00000000000E+00  0.21559830265E+03  0.21559830265E+03  0.00000000000E+00 0.  1.
          4   -1    0    0  502    0  0.00000000000E+00 -0.00000000000E+00 -0.16040417690E+03  0.16040417690E+03  0.00000000000E+00 0. -1.
         23    2    1    2    0    0  0.71686629233E+02 -0.20573379599E+02  0.14270206722E+03  0.19010045340E+03  0.10105476552E+03 0.  0.
         23    2    1    2    0    0 -0.40931261900E+02 -0.15236130457E+02 -0.97151436282E+02  0.13772308238E+03  0.87302565700E+02 0.  0.
        -13    1    4    4    0    0  0.20419395410E+02 -0.43277023615E+01  0.16227373948E+01  0.20935949783E+02  0.00000000000E+00 0.  1.
         13    1    4    4    0    0 -0.61350657310E+02 -0.10908428096E+02 -0.98774173677E+02  0.11678713260E+03  0.00000000000E+00 0. -1.
        -13    1    3    3    0    0  0.65158675578E+02 -0.48801022117E+02  0.13873728906E+03  0.16085778856E+03  0.00000000000E+00 0.  1.
         13    1    3    3    0    0  0.65279536550E+01  0.28227642518E+02  0.39647781543E+01  0.29242664839E+02  0.00000000000E+00 0. -1.
         21    1    1    2  502  501 -0.30755367334E+02  0.35809510056E+02  0.96434948210E+01  0.48178943768E+02  0.00000000000E+00 0.  1.
<scales pt_clust_5="13000.00000" pt_clust_6="13000.00000" pt_clust_7="13000.00000" pt_clust_8="13000.00000" pt_clust_9="47.20396"></scales>
<clustering>
<clus scale="   47.204">  1  9  2 -1</clus>
<clus scale="   87.303">  5  6 -1 -1</clus>
<clus scale="   98.542">  2  5  1 -1</clus>
<clus scale="  101.055">  7  8 -1 -1</clus>
<clus scale="   98.542">  2  5  1 -1</clus>
</clustering>
</event>
<event>
 9    1  0.9000149E-006  0.1900761E+03  0.7546771E-02  0.1158415E+00
         -1   -1    0    0    0  501 -0.00000000000E+00  0.00000000000E+00  0.13852879245E+03  0.13852879245E+03  0.00000000000E+00 0.  1.
          1   -1    0    0  502    0  0.00000000000E+00 -0.00000000000E+00 -0.31456794823E+03  0.31456794823E+03  0.00000000000E+00 0. -1.
         23    2    1    2    0    0  0.16882728725E+03  0.56135207653E+02 -0.51988572992E+02  0.20713097371E+03  0.92447899322E+02 0.  0.
         23    2    1    2    0    0 -0.14750564668E+03 -0.41173250923E+02 -0.82884484199E+02  0.19725108563E+03  0.92655278677E+02 0.  0.
        -13    1    4    4    0    0 -0.79156347043E+02  0.25684784164E+02 -0.42747792253E+02  0.93556449041E+02  0.00000000000E+00 0. -1.
         13    1    4    4    0    0 -0.68349299638E+02 -0.66858035087E+02 -0.40136691947E+02  0.10369463659E+03  0.00000000000E+00 0.  1.
        -13    1    3    3    0    0  0.97649669534E+02  0.78981405696E+02 -0.28661055299E+02  0.12882149082E+03  0.00000000000E+00 0. -1.
         13    1    3    3    0    0  0.71177617712E+02 -0.22846198043E+02 -0.23327517694E+02  0.78309482887E+02  0.00000000000E+00 0.  1.
         21    1    1    2  502  501 -0.21321640566E+02 -0.14961956731E+02 -0.41166098584E+02  0.48714681342E+02  0.00000000000E+00 0. -1.
<scales pt_clust_5="13000.00000" pt_clust_6="13000.00000" pt_clust_7="13000.00000" pt_clust_8="13000.00000" pt_clust_9="26.04750"></scales>
<clustering>
<clus scale="   26.048">  2  9  1 -1</clus>
<clus scale="   92.448">  7  8 -1 -1</clus>
<clus scale="   92.655">  5  6 -1 -1</clus>
<clus scale="  189.975">  1  7  2 -1</clus>
<clus scale="   26.048">  2  5  1 -1</clus>
</clustering>
</event>
<event>
 9    1  0.9000149E-006  0.1375976E+03  0.7546771E-02  0.1217639E+00
          2   -1    0    0  502    0  0.00000000000E+00  0.00000000000E+00  0.22203189416E+03  0.22203189416E+03  0.00000000000E+00 0. -1.
         -2   -1    0    0    0  501 -0.00000000000E+00 -0.00000000000E+00 -0.11126379311E+03  0.11126379311E+03  0.00000000000E+00 0.  1.
         23    2    1    2    0    0  0.88081883642E+02 -0.59706259354E+02  0.13409146536E+02  0.14058363886E+03  0.90888385802E+02 0.  0.
         23    2    1    2    0    0 -0.84937947045E+02  0.33806211934E+02  0.55135225867E+02  0.14307798697E+03  0.95258083173E+02 0.  0.
        -11    1    3    3    0    0  0.35705779304E+02 -0.56339150894E+02 -0.29363119737E+02  0.72877948652E+02  0.00000000000E+00 0.  1.
         11    1    3    3    0    0  0.52376104338E+02 -0.33671084598E+01  0.42772266273E+02  0.67705690212E+02  0.00000000000E+00 0. -1.
        -13    1    4    4    0    0 -0.77571581677E+02 -0.62607999840E+01  0.43129276917E+01  0.77943243746E+02  0.00000000000E+00 0.  1.
         13    1    4    4    0    0 -0.73663653677E+01  0.40067011918E+02  0.50822298176E+02  0.65134743222E+02  0.00000000000E+00 0. -1.
         21    1    1    2  502  501 -0.31439365967E+01  0.25900047420E+02  0.42223728648E+02  0.49634061436E+02  0.00000000000E+00 0. -1.
<scales pt_clust_5="13000.00000" pt_clust_6="13000.00000" pt_clust_7="13000.00000" pt_clust_8="13000.00000" pt_clust_9="26.09017"></scales>
<clustering>
<clus scale="   26.090">  1  9  2 -1</clus>
<clus scale="   90.888">  5  6 -1 -1</clus>
<clus scale="   95.258">  7  8 -1 -1</clus>
<clus scale="  134.609">  2  5  1 -1</clus>
<clus scale="   26.090">  1  5  2 -1</clus>
</clustering>
</event>
<event>
 9    1  0.9000149E-006  0.1777618E+03  0.7546771E-02  0.1170001E+00
         -1   -1    0    0    0  501 -0.00000000000E+00  0.00000000000E+00  0.47965243310E+02  0.47965243310E+02  0.00000000000E+00 0.  1.
          1   -1    0    0  502    0  0.00000000000E+00 -0.00000000000E+00 -0.12717320503E+04  0.12717320503E+04  0.00000000000E+00 0. -1.
         23    2    1    2    0    0  0.13333508664E+03  0.78439970022E+02 -0.18594970367E+03  0.25883038412E+03  0.92112980745E+02 0.  0.
         23    2    1    2    0    0 -0.98940470921E+02 -0.10909070286E+03 -0.80680472952E+03  0.82530550803E+03  0.92224247134E+02 0.  0.
        -11    1    3    3    0    0 -0.42546840529E+01  0.31722736911E+02 -0.52812782376E+02  0.61754549272E+02  0.00000000000E+00 0. -1.
         11    1    3    3    0    0  0.13758977069E+03  0.46717233112E+02 -0.13313692129E+03  0.19707583485E+03  0.00000000000E+00 0.  1.
        -11    1    4    4    0    0 -0.47967901025E+02  0.14977627904E+01 -0.15630908539E+03  0.16351052871E+03  0.00000000000E+00 0.  1.
         11    1    4    4    0    0 -0.50972569896E+02 -0.11058846565E+03 -0.65049564413E+03  0.66179497932E+03  0.00000000000E+00 0. -1.
         21    1    1    2  502  501 -0.34394615719E+02  0.30650732837E+02 -0.23101237377E+03  0.23556140144E+03  0.00000000000E+00 0.  1.
<scales pt_clust_5="13000.00000" pt_clust_6="13000.00000" pt_clust_7="13000.00000" pt_clust_8="13000.00000" pt_clust_9="46.07013"></scales>
<clustering>
<clus scale="   46.070">  2  9  1 -1</clus>
<clus scale="   92.113">  5  6 -1 -1</clus>
<clus scale="   92.224">  7  8 -1 -1</clus>
<clus scale="  177.704">  1  5  2 -1</clus>
<clus scale="   46.070">  2  5  1 -1</clus>
</clustering>
</event>
<event>
 9    1  0.9000149E-006  0.1044790E+03  0.7546771E-02  0.1271456E+00
          1   -1    0    0  502    0  0.00000000000E+00  0.00000000000E+00  0.78463374325E+02  0.78463374325E+02  0.00000000000E+00 0. -1.
         -1   -1    0    0    0  501 -0.00000000000E+00 -0.00000000000E+00 -0.28450977711E+03  0.28450977711E+03  0.00000000000E+00 0.  1.
         23    2    1    2    0    0  0.52965293329E+02 -0.19321822276E+02 -0.17704643434E+03  0.20805012890E+03  0.93598937534E+02 0.  0.
         23    2    1    2    0    0 -0.25319709492E+02 -0.24831172094E+02 -0.12235303809E+02  0.10019808126E+03  0.92910053450E+02 0.  0.
        -11    1    4    4    0    0 -0.49324749564E+02 -0.26471961637E+02  0.20462003473E+02  0.59601923279E+02  0.00000000000E+00 0.  1.
         11    1    4    4    0    0  0.24005040072E+02  0.16407895421E+01 -0.32697307282E+02  0.40596157979E+02  0.00000000000E+00 0. -1.
        -11    1    3    3    0    0  0.67508926743E+02  0.31133861806E+01 -0.16580037785E+03  0.17904444604E+03  0.00000000000E+00 0.  1.
         11    1    3    3    0    0 -0.14543633414E+02 -0.22435208456E+02 -0.11246056495E+02  0.29005682858E+02  0.00000000000E+00 0. -1.
         21    1    1    2  502  501 -0.27645583837E+02  0.44152994370E+02 -0.16764664631E+02  0.54724941277E+02  0.00000000000E+00 0. -1.
<scales pt_clust_5="13000.00000" pt_clust_6="13000.00000" pt_clust_7="13000.00000" pt_clust_8="13000.00000" pt_clust_9="52.09381"></scales>
<clustering>
<clus scale="   52.094">  1  9  2 -1</clus>
<clus scale="   92.910">  5  6 -1 -1</clus>
<clus scale="   93.599">  7  8 -1 -1</clus>
<clus scale="  103.862">  1  5  2 -1</clus>
<clus scale="   52.094">  1  5  2 -1</clus>
</clustering>
</event>
<event>
 9    1  0.9000149E-006  0.1067568E+03  0.7546771E-02  0.1268087E+00
         -4   -1    0    0    0  501 -0.00000000000E+00  0.00000000000E+00  0.49429243199E+03  0.49429243199E+03  0.00000000000E+00 0.  1.
          4   -1    0    0  502    0  0.00000000000E+00 -0.00000000000E+00 -0.72578531775E+02  0.72578531775E+02  0.00000000000E+00 0. -1.
         23    2    1    2    0    0 -0.49533570860E+02 -0.59810350473E+01  0.28783617247E+03  0.30666042925E+03  0.93282416700E+02 0.  0.
         23    2    1    2    0    0  0.55113309389E+02 -0.22718098835E+02  0.17746522843E+03  0.20772583213E+03  0.90014027489E+02 0.  0.
        -11    1    3    3    0    0 -0.60587777199E+02  0.21511647867E+02  0.11913278743E+03  0.13537448349E+03  0.00000000000E+00 0. -1.
         11    1    3    3    0    0  0.11054206339E+02 -0.27492682914E+02  0.16870338504E+03  0.17128594576E+03  0.00000000000E+00 0.  1.
        -13    1    4    4    0    0  0.22307011462E+02 -0.55468185611E+02  0.11843987149E+03  0.13267375601E+03  0.00000000000E+00 0. -1.
         13    1    4    4    0    0  0.32806297927E+02  0.32750086777E+02  0.59025356944E+02  0.75052076120E+02  0.00000000000E+00 0.  1.
         21    1    1    2  502  501 -0.55797385289E+01  0.28699133882E+02 -0.43587500689E+02  0.52484702380E+02  0.00000000000E+00 0. -1.
<scales pt_clust_5="13000.00000" pt_clust_6="13000.00000" pt_clust_7="13000.00000" pt_clust_8="13000.00000" pt_clust_9="29.23651"></scales>
<clustering>
<clus scale="   29.237">  2  9  1 -1</clus>
<clus scale="   90.014">  7  8 -1 -1</clus>
<clus scale="   93.282">  5  6 -1 -1</clus>
<clus scale="  103.913">  2  7  1 -1</clus>
<clus scale="   29.237">  2  5  1 -1</clus>
</clustering>
</event>
<event>
 9    1  0.9000149E-006  0.1203622E+03  0.7546771E-02  0.1243227E+00
         -3   -1    0    0    0  501 -0.00000000000E+00  0.00000000000E+00  0.12838943453E+03  0.12838943453E+03  0.00000000000E+00 0.  1.
          3   -1    0    0  502    0  0.00000000000E+00 -0.00000000000E+00 -0.24609935871E+03  0.24609935871E+03  0.00000000000E+00 0. -1.
         23    2    1    2    0    0 -0.74683894529E+02  0.34167441744E+02  0.72079558840E+02  0.14295298889E+03  0.92168302870E+02 0.  0.
         23    2    1    2    0    0  0.51840252482E+02 -0.20057261294E+02 -0.14752380613E+03  0.18146269162E+03  0.89865063109E+02 0.  0.
        -11    1    3    3    0    0 -0.81150987065E+02  0.56585218741E+02  0.50078250803E+02  0.11088372687E+03  0.00000000000E+00 0.  1.
         11    1    3    3    0    0  0.64670925355E+01 -0.22417776996E+02  0.22001308037E+02  0.32069262022E+02  0.00000000000E+00 0. -1.
        -13    1    4    4    0    0  0.49044797352E+02 -0.53053385160E+02 -0.10737389968E+03  0.12941873186E+03  0.00000000000E+00 0. -1.
         13    1    4    4    0    0  0.27954551300E+01  0.32996123866E+02 -0.40149906454E+02  0.52043959763E+02  0.00000000000E+00 0.  1.
         21    1    1    2  502  501  0.22843642047E+02 -0.14110180450E+02 -0.42265676893E+02  0.50073112720E+02  0.00000000000E+00 0. -1.
<scales pt_clust_5="13000.00000" pt_clust_6="13000.00000" pt_clust_7="13000.00000" pt_clust_8="13000.00000" pt_clust_9="26.85012"></scales>
<clustering>
<clus scale="   26.850">  2  9  1 -1</clus>
<clus scale="   89.865">  7  8 -1 -1</clus>
<clus scale="   92.168">  5  6 -1 -1</clus>
<clus scale="  118.608">  2  7  1 -1</clus>
<clus scale="   26.850">  2  5  1 -1</clus>
</clustering>
</event>
<event>
 9    1  0.9000149E-006  0.1397359E+03  0.7546771E-02  0.1213985E+00
          1   -1    0    0  502    0  0.00000000000E+00  0.00000000000E+00  0.13933981556E+03  0.13933981556E+03  0.00000000000E+00 0. -1.
         -1   -1    0    0    0  501 -0.00000000000E+00 -0.00000000000E+00 -0.33911108500E+03  0.33911108500E+03  0.00000000000E+00 0.  1.
         23    2    1    2    0    0  0.74084525551E+02 -0.90447048528E+02 -0.16772439238E+03  0.22292549092E+03  0.88854471962E+02 0.  0.
         23    2    1    2    0    0 -0.29086051731E+02  0.94560169898E+02 -0.10469352347E+03  0.16997241059E+03  0.90234485464E+02 0.  0.
        -11    1    4    4    0    0 -0.45859271955E+02  0.98686787369E+01 -0.28973624116E+02  0.55135601372E+02  0.00000000000E+00 0. -1.
         11    1    4    4    0    0  0.16773220224E+02  0.84691491162E+02 -0.75719899356E+02  0.11483680921E+03  0.00000000000E+00 0.  1.
        -11    1    3    3    0    0 -0.77547658912E+01 -0.54999586443E+02 -0.46565556597E+02  0.72480631648E+02  0.00000000000E+00 0. -1.
         11    1    3    3    0    0  0.81839291442E+02 -0.35447462085E+02 -0.12115883578E+03  0.15044485927E+03  0.00000000000E+00 0.  1.
         21    1    1    2  502  501 -0.44998473820E+02 -0.41131213708E+01  0.72646646409E+02  0.85552999059E+02  0.00000000000E+00 0. -1.
<scales pt_clust_5="13000.00000" pt_clust_6="13000.00000" pt_clust_7="13000.00000" pt_clust_8="13000.00000" pt_clust_9="45.18606"></scales>
<clustering>
<clus scale="   45.186">  1  9  2 -1</clus>
<clus scale="   88.854">  7  8 -1 -1</clus>
<clus scale="   90.234">  5  6 -1 -1</clus>
<clus scale="  138.849">  2  7  1 -1</clus>
<clus scale="   45.186">  1  5  2 -1</clus>
</clustering>
</event>
<event>
 9    1  0.9000149E-006  0.1095571E+03  0.7546771E-02  0.1263233E+00
          2   -1    0    0  502    0  0.00000000000E+00  0.00000000000E+00  0.48593484299E+03  0.48593484299E+03  0.00000000000E+00 0. -1.
         -2   -1    0    0    0  501 -0.00000000000E+00 -0.00000000000E+00 -0.37950511982E+02  0.37950511982E+02  0.00000000000E+00 0.  1.
         23    2    1    2    0    0 -0.26366962819E+02 -0.63505444728E+02  0.96738397595E+02  0.14770842473E+03  0.87927827948E+02 0.  0.
         23    2    1    2    0    0  0.41656061429E+01  0.36579305410E+02  0.26801652152E+03  0.28592698719E+03  0.92552624697E+02 0.  0.
        -11    1    4    4    0    0  0.28275755128E+02  0.56579112744E+02  0.13230397186E+03  0.14664602040E+03  0.00000000000E+00 0.  1.
         11    1    4    4    0    0 -0.24110148986E+02 -0.19999807335E+02  0.13571254966E+03  0.13928096680E+03  0.00000000000E+00 0. -1.
        -11    1    3    3    0    0 -0.24180143258E+01  0.20360618108E+02  0.35984071720E+02  0.41415636909E+02  0.00000000000E+00 0.  1.
         11    1    3    3    0    0 -0.23948948494E+02 -0.83866062836E+02  0.60754325876E+02  0.10629278782E+03  0.00000000000E+00 0. -1.
         21    1    1    2  502  501  0.22201356677E+02  0.26926139318E+02  0.83229411893E+02  0.90249943053E+02  0.00000000000E+00 0.  1.
<scales pt_clust_5="13000.00000" pt_clust_6="13000.00000" pt_clust_7="13000.00000" pt_clust_8="13000.00000" pt_clust_9="34.89867"></scales>
<clustering>
<clus scale="   34.899">  1  9  2 -1</clus>
<clus scale="   87.928">  7  8 -1 -1</clus>
<clus scale="   92.553">  5  6 -1 -1</clus>
<clus scale="  105.679">  2  7  1 -1</clus>
<clus scale="   34.899">  1  5  2 -1</clus>
</clustering>
</event>
<event>
 9    1  0.9000149E-006  0.9897258E+02  0.7546771E-02  0.1282636E+00
         -2   -1    0    0    0  501 -0.00000000000E+00  0.00000000000E+00  0.28854313067E+03  0.28854313067E+03  0.00000000000E+00 0.  1.
          2   -1    0    0  502    0  0.00000000000E+00 -0.00000000000E+00 -0.53890412528E+02  0.53890412528E+02  0.00000000000E+00 0. -1.
         23    2    1    2    0    0  0.46964224793E+02 -0.41689369823E+01  0.16007740599E+03  0.19035998404E+03  0.91592189459E+02 0.  0.
         23    2    1    2    0    0 -0.18169467583E+02 -0.18264310473E+02  0.60081078636E+02  0.11279924898E+03  0.91925078038E+02 0.  0.
        -11    1    4    4    0    0  0.13109181097E+02  0.27898720767E+02  0.45852537585E+02  0.55250741646E+02  0.00000000000E+00 0. -1.
         11    1    4    4    0    0 -0.31278648680E+02 -0.46163031240E+02  0.14228541051E+02  0.57548507339E+02  0.00000000000E+00 0.  1.
        -13    1    3    3    0    0 -0.24353301590E+02 -0.13370174135E+02  0.25187263771E+02  0.37499908147E+02  0.00000000000E+00 0. -1.
         13    1    3    3    0    0  0.71317526384E+02  0.92012371529E+01  0.13489014222E+03  0.15286007590E+03  0.00000000000E+00 0.  1.
         21    1    1    2  502  501 -0.28794757210E+02  0.22433247455E+02  0.14494233516E+02  0.39274310171E+02  0.00000000000E+00 0. -1.
<scales pt_clust_5="13000.00000" pt_clust_6="13000.00000" pt_clust_7="13000.00000" pt_clust_8="13000.00000" pt_clust_9="36.50190"></scales>
<clustering>
<clus scale="   36.502">  2  9  1 -1</clus>
<clus scale="   91.592">  7  8 -1 -1</clus>
<clus scale="   91.925">  5  6 -1 -1</clus>
<clus scale="   98.663">  1  7  2 -1</clus>
<clus scale="   36.502">  2  5  1 -1</clus>
</clustering>
</event>
<event>
 9    1  0.9000149E-006  0.1031240E+03  0.7546771E-02  0.1276065E+00
         -1   -1    0    0    0  501 -0.00000000000E+00  0.00000000000E+00  0.10232662591E+03  0.10232662591E+03  0.00000000000E+00 0.  1.
          1   -1    0    0  502    0  0.00000000000E+00 -0.00000000000E+00 -0.22048525307E+03  0.22048525307E+03  0.00000000000E+00 0. -1.
         23    2    1    2    0    0  0.82532416185E+01  0.90943369724E+02 -0.35745414630E+02  0.13594849476E+03  0.94156497745E+02 0.  0.
         23    2    1    2    0    0 -0.64338628004E+00 -0.19023195904E+02 -0.65762994727E+02  0.11264983388E+03  0.89459027881E+02 0.  0.
        -11    1    3    3    0    0  0.38318737497E+02  0.76350948145E+02 -0.50695922915E+02  0.99337150786E+02  0.00000000000E+00 0. -1.
         11    1    3    3    0    0 -0.30065495879E+02  0.14592421579E+02  0.14950508285E+02  0.36611343979E+02  0.00000000000E+00 0.  1.
        -13    1    4    4    0    0  0.66810772021E+01  0.35148814995E+02 -0.34368593354E+02  0.49611250712E+02  0.00000000000E+00 0.  1.
         13    1    4    4    0    0 -0.73244634821E+01 -0.54172010899E+02 -0.31394401374E+02  0.63038583168E+02  0.00000000000E+00 0. -1.
         21    1    1    2  502  501 -0.76098553385E+01 -0.71920173820E+02 -0.16650217798E+02  0.74213550335E+02  0.00000000000E+00 0. -1.
<scales pt_clust_5="13000.00000" pt_clust_6="13000.00000" pt_clust_7="13000.00000" pt_clust_8="13000.00000" pt_clust_9="72.32165"></scales>
<clustering>
<clus scale="   72.322">  1  9  2 -1</clus>
<clus scale="   89.459">  7  8 -1 -1</clus>
<clus scale="   94.156">  5  6 -1 -1</clus>
<clus scale="   98.854">  2  7  1 -1</clus>
<clus scale="   98.854">  2  5  1 -1</clus>
</clustering>
</event>
<event>
 9    1  0.9000149E-006  0.1046263E+03  0.7546771E-02  0.1274111E+00
         -2   -1    0    0    0  501 -0.00000000000E+00  0.00000000000E+00  0.11709726358E+03  0.11709726358E+03  0.00000000000E+00 0.  1.
          2   -1    0    0  502    0  0.00000000000E+00 -0.00000000000E+00 -0.35071956008E+03  0.35071956008E+03  0.00000000000E+00 0. -1.
         23    2    1    2    0    0  0.27801983562E+02 -0.43343554079E+02  0.73883599169E+02  0.12725612782E+03  0.89909520468E+02 0.  0.
         23    2    1    2    0    0 -0.33149554461E+02  0.68690945755E+02 -0.28469335710E+03  0.30604260355E+03  0.82428324170E+02 0.  0.
        -13    1    3    3    0    0  0.41597067103E+02 -0.64858599741E+02  0.62784215952E+02  0.99392211590E+02  0.00000000000E+00 0.  1.
         13    1    3    3    0    0 -0.13795083541E+02  0.21515045662E+02  0.11099383217E+02  0.27863916228E+02  0.00000000000E+00 0. -1.
        -13    1    4    4    0    0 -0.33951691992E+02 -0.84366263220E+00 -0.44462425898E+02  0.55949409939E+02  0.00000000000E+00 0.  1.
         13    1    4    4    0    0  0.80213753068E+00  0.69534608387E+02 -0.24023093120E+03  0.25009319361E+03  0.00000000000E+00 0. -1.
         21    1    1    2  502  501  0.53475708991E+01 -0.25347391676E+02 -0.22812538567E+02  0.34518092287E+02  0.00000000000E+00 0.  1.
<scales pt_clust_5="13000.00000" pt_clust_6="13000.00000" pt_clust_7="13000.00000" pt_clust_8="13000.00000" pt_clust_9="25.90534"></scales>
<clustering>
<clus scale="   25.905">  2  9  1 -1</clus>
<clus scale="   82.428">  7  8 -1 -1</clus>
<clus scale="   89.910">  5  6 -1 -1</clus>
<clus scale="   98.272">  2  7  1 -1</clus>
<clus scale="   25.905">  2  5  1 -1</clus>
</clustering>
</event>
<event>
 9    1  0.9000149E-006  0.2100534E+03  0.7546771E-02  0.1142787E+00
          1   -1    0    0  502    0  0.00000000000E+00  0.00000000000E+00  0.22044984434E+03  0.22044984434E+03  0.00000000000E+00 0. -1.
         -1   -1    0    0    0  501 -0.00000000000E+00 -0.00000000000E+00 -0.24024446269E+03  0.24024446269E+03  0.00000000000E+00 0.  1.
         23    2    1    2    0    0  0.88148473041E+02 -0.14962299466E+03 -0.53972322644E+02  0.21005183185E+03  0.10512643161E+03 0.  0.
         23    2    1    2    0    0 -0.85373079828E+02  0.17405372139E+03  0.79707150329E+01  0.21470684520E+03  0.91936045106E+02 0.  0.
        -11    1    3    3    0    0  0.51857179105E+02 -0.60649384828E+02 -0.77377449237E+02  0.11115207850E+03  0.00000000000E+00 0.  1.
         11    1    3    3    0    0  0.36291293936E+02 -0.88973609829E+02  0.23405126593E+02  0.98899753348E+02  0.00000000000E+00 0. -1.
        -11    1    4    4    0    0 -0.54137677955E+02  0.16606529289E+03  0.27786428825E+02  0.17686338033E+03  0.00000000000E+00 0.  1.
         11    1    4    4    0    0 -0.31235401873E+02  0.79884284999E+01 -0.19815713792E+02  0.37843464868E+02  0.00000000000E+00 0. -1.
         21    1    1    2  502  501 -0.27753932127E+01 -0.24430726729E+02  0.26206989265E+02  0.35935629983E+02  0.00000000000E+00 0.  1.
<scales pt_clust_5="13000.00000" pt_clust_6="13000.00000" pt_clust_7="13000.00000" pt_clust_8="13000.00000" pt_clust_9="24.58787"></scales>
<clustering>
<clus scale="   24.588">  1  9  2 -1</clus>
<clus scale="   91.936">  7  8 -1 -1</clus>
<clus scale="  105.126">  5  6 -1 -1</clus>
<clus scale="  203.772">  1  7  2 -1</clus>
<clus scale="   24.588">  1  5  2 -1</clus>
</clustering>
</event>
<event>
 9    1  0.9000149E-006  0.1087760E+03  0.7546771E-02  0.1266632E+00
         -1   -1    0    0    0  501 -0.00000000000E+00  0.00000000000E+00  0.36720287341E+03  0.36720287341E+03  0.00000000000E+00 0.  1.
          1   -1    0    0  502    0  0.00000000000E+00 -0.00000000000E+00 -0.60062177872E+02  0.60062177872E+02  0.00000000000E+00 0. -1.
         23    2    1    2    0    0  0.16908110250E+02 -0.40428243054E+02  0.18239709775E+03  0.21280553625E+03  0.10048466529E+03 0.  0.
         23    2    1    2    0    0 -0.62985524431E+02 -0.20206705323E+01  0.74538063071E+02  0.13417480866E+03  0.92063548894E+02 0.  0.
        -11    1    4    4    0    0 -0.26275446561E+02  0.43128998404E+02  0.19676384596E+02  0.54200274041E+02  0.00000000000E+00 0.  1.
         11    1    4    4    0    0 -0.36710077870E+02 -0.45149668936E+02  0.54861678475E+02  0.79974534618E+02  0.00000000000E+00 0. -1.
        -13    1    3    3    0    0  0.39263347101E+02 -0.65215413082E+02  0.13135114086E+03  0.15181496216E+03  0.00000000000E+00 0. -1.
         13    1    3    3    0    0 -0.22355236851E+02  0.24787170028E+02  0.51045956892E+02  0.60990574089E+02  0.00000000000E+00 0.  1.
         21    1    1    2  502  501  0.46077414182E+02  0.42448913586E+02  0.50205534715E+02  0.80284706379E+02  0.00000000000E+00 0. -1.
<scales pt_clust_5="13000.00000" pt_clust_6="13000.00000" pt_clust_7="13000.00000" pt_clust_8="13000.00000" pt_clust_9="62.65013"></scales>
<clustering>
<clus scale="   62.650">  2  9  1 -1</clus>
<clus scale="   92.064">  5  6 -1 -1</clus>
<clus scale="  100.485">  7  8 -1 -1</clus>
<clus scale="  101.048">  2  5  1 -1</clus>
<clus scale="   62.650">  2  5  1 -1</clus>
</clustering>
</event>
<event>
 9    1  0.9000149E-006  0.1039757E+03  0.7546771E-02  0.1272254E+00
         -1   -1    0    0    0  501 -0.00000000000E+00  0.00000000000E+00  0.15400578012E+03  0.15400578012E+03  0.00000000000E+00 0.  1.
          1   -1    0    0  502    0  0.00000000000E+00 -0.00000000000E+00 -0.24544614797E+03  0.24544614797E+03  0.00000000000E+00 0. -1.
         23    2    1    2    0    0 -0.45409971478E+01 -0.60212156022E+02  0.10182045748E+03  0.14931270215E+03  0.90998643259E+02 0.  0.
         23    2    1    2    0    0  0.93684765911E+01  0.87949668423E+01 -0.67580840205E+02  0.11426247825E+03  0.91233898185E+02 0.  0.
        -11    1    4    4    0    0 -0.36521053745E+02 -0.48619738247E+00 -0.54577885465E+02  0.65671678343E+02  0.00000000000E+00 0. -1.
         11    1    4    4    0    0  0.45889530336E+02  0.92811642248E+01 -0.13002954740E+02  0.48590799909E+02  0.00000000000E+00 0.  1.
        -13    1    3    3    0    0  0.20711683131E+02 -0.27385389064E+02  0.10228479229E+03  0.10789398540E+03  0.00000000000E+00 0.  1.
         13    1    3    3    0    0 -0.25252680279E+02 -0.32826766958E+02 -0.46433481425E+00  0.41418716748E+02  0.00000000000E+00 0. -1.
         21    1    1    2  502  501 -0.48274794432E+01  0.51417189180E+02 -0.12567998512E+03  0.13587674768E+03  0.00000000000E+00 0. -1.
<scales pt_clust_5="13000.00000" pt_clust_6="13000.00000" pt_clust_7="13000.00000" pt_clust_8="13000.00000" pt_clust_9="51.64331"></scales>
<clustering>
<clus scale="   51.643">  2  9  1 -1</clus>
<clus scale="   90.999">  7  8 -1 -1</clus>
<clus scale="   91.234">  5  6 -1 -1</clus>
<clus scale="  103.769">  1  7  2 -1</clus>
<clus scale="   51.643">  2  5  1 -1</clus>
</clustering>
</event>
<event>
 9    1  0.9000149E-006  0.9277076E+02  0.7546771E-02  0.1297747E+00
         -1   -1    0    0    0  501 -0.00000000000E+00  0.00000000000E+00  0.26162789716E+02  0.26162789716E+02  0.00000000000E+00 0.  1.
          1   -1    0    0  502    0  0.00000000000E+00 -0.00000000000E+00 -0.70188821036E+03  0.70188821036E+03  0.00000000000E+00 0. -1.
         23    2    1    2    0    0  0.26818135185E+02 -0.38881397314E+02 -0.25017578919E+03  0.27056247996E+03  0.91570489951E+02 0.  0.
         23    2    1    2    0    0  0.30616475487E+02 -0.69847251702E+01 -0.24240561192E+03  0.26014575338E+03  0.89045928338E+02 0.  0.
        -13    1    3    3    0    0  0.59366808273E+02 -0.37954448247E+02 -0.17287282815E+03  0.18668147412E+03  0.00000000000E+00 0.  1.
         13    1    3    3    0    0 -0.32548673089E+02 -0.92694906633E+00 -0.77302961046E+02  0.83881005841E+02  0.00000000000E+00 0. -1.
        -13    1    4    4    0    0  0.49178906533E+01  0.37067260347E+02 -0.59593397813E+02  0.70352970804E+02  0.00000000000E+00 0.  1.
         13    1    4    4    0    0  0.25698584833E+02 -0.44051985517E+02 -0.18281221411E+03  0.18979278257E+03  0.00000000000E+00 0. -1.
         21    1    1    2  502  501 -0.57434610671E+02  0.45866122484E+02 -0.18314401953E+03  0.19734276674E+03  0.00000000000E+00 0.  1.
<scales pt_clust_5="13000.00000" pt_clust_6="13000.00000" pt_clust_7="13000.00000" pt_clust_8="13000.00000" pt_clust_9="73.50126"></scales>
<clustering>
<clus scale="   73.501">  1  9  2 -1</clus>
<clus scale="   89.046">  7  8 -1 -1</clus>
<clus scale="   90.280">  2  7  1 -1</clus>
<clus scale="   91.570">  5  6 -1 -1</clus>
<clus scale="   90.280">  2  5  1 -1</clus>
</clustering>
</event>
<event>
 9    1  0.9000149E-006  0.1250925E+03  0.7546771E-02  0.1235139E+00
         -2   -1    0    0    0  501 -0.00000000000E+00  0.00000000000E+00  0.78487426092E+02  0.78487426092E+02  0.00000000000E+00 0.  1.
          2   -1    0    0  502    0  0.00000000000E+00 -0.00000000000E+00 -0.34235161029E+03  0.34235161029E+03  0.00000000000E+00 0. -1.
         23    2    1    2    0    0  0.90632335545E+02  0.14478487309E+02 -0.78160542510E+01  0.12974809608E+03  0.91376314713E+02 0.  0.
         23    2    1    2    0    0 -0.63895211890E+02 -0.13378441197E+02 -0.20468041604E+03  0.23317094450E+03  0.90625801262E+02 0.  0.
        -11    1    3    3    0    0 -0.36200025793E-01  0.35098407662E+02  0.64205755671E+01  0.35680853710E+02  0.00000000000E+00 0. -1.
         11    1    3    3    0    0  0.90668535570E+02 -0.20619920354E+02 -0.14236629818E+02  0.94067242367E+02  0.00000000000E+00 0.  1.
        -13    1    4    4    0    0 -0.30897939533E+01 -0.40815163333E+02 -0.49310338617E+02  0.64085364001E+02  0.00000000000E+00 0.  1.
         13    1    4    4    0    0 -0.60805417937E+02  0.27436722136E+02 -0.15537007743E+03  0.16908558050E+03  0.00000000000E+00 0. -1.
         21    1    1    2  502  501 -0.26737123654E+02 -0.11000461118E+01 -0.51367713902E+02  0.57919995807E+02  0.00000000000E+00 0. -1.
<scales pt_clust_5="13000.00000" pt_clust_6="13000.00000" pt_clust_7="13000.00000" pt_clust_8="13000.00000" pt_clust_9="26.75974"></scales>
<clustering>
<clus scale="   26.760">  2  9  1 -1</clus>
<clus scale="   90.626">  7  8 -1 -1</clus>
<clus scale="   91.376">  5  6 -1 -1</clus>
<clus scale="  124.545">  2  7  1 -1</clus>
<clus scale="   26.760">  2  5  1 -1</clus>
</clustering>
</event>
<event>
 9    1  0.9000149E-006  0.2182862E+03  0.7546771E-02  0.1135800E+00
          1   -1    0    0  502    0  0.00000000000E+00  0.00000000000E+00  0.82163032714E+03  0.82163032714E+03  0.00000000000E+00 0. -1.
         -1   -1    0    0    0  501 -0.00000000000E+00 -0.00000000000E+00 -0.88672742954E+02  0.88672742954E+02  0.00000000000E+00 0.  1.
         23    2    1    2    0    0  0.50288149343E+02 -0.16554530847E+03  0.90772458786E+02  0.21636364791E+03  0.92948597319E+02 0.  0.
         23    2    1    2    0    0 -0.47466629488E+02  0.19476903326E+03  0.61223110730E+03  0.65199624318E+03  0.10041969495E+03 0.  0.
        -13    1    4    4    0    0 -0.68206537898E+02  0.90478648930E+02  0.38092899709E+03  0.39742347508E+03  0.00000000000E+00 0.  1.
         13    1    4    4    0    0  0.20739908411E+02  0.10429038433E+03  0.23130211022E+03  0.25457276810E+03  0.00000000000E+00 0. -1.
        -13    1    3    3    0    0  0.19436629978E+02 -0.31128057674E+02 -0.17852265259E+02  0.40809826444E+02  0.00000000000E+00 0.  1.
         13    1    3    3    0    0  0.30851519365E+02 -0.13441725080E+03  0.10862472405E+03  0.17555382147E+03  0.00000000000E+00 0. -1.
         21    1    1    2  502  501 -0.28215198555E+01 -0.29223724790E+02  0.29954018095E+02  0.41943179004E+02  0.00000000000E+00 0. -1.
<scales pt_clust_5="13000.00000" pt_clust_6="13000.00000" pt_clust_7="13000.00000" pt_clust_8="13000.00000" pt_clust_9="29.35962"></scales>
<clustering>
<clus scale="   29.360">  2  9  1 -1</clus>
<clus scale="   92.949">  7  8 -1 -1</clus>
<clus scale="  100.420">  5  6 -1 -1</clus>
<clus scale="  214.952">  2  7  1 -1</clus>
<clus scale="  218.286">  1  5  2 -1</clus>
</clustering>
</event>
<event>
 9    1  0.9000149E-006  0.1068785E+03  0.7546771E-02  0.1268477E+00
          1   -1    0    0  502    0  0.00000000000E+00  0.00000000000E+00  0.13531729648E+03  0.13531729648E+03  0.00000000000E+00 0. -1.
         -1   -1    0    0    0  501 -0.00000000000E+00 -0.00000000000E+00 -0.22253045285E+03  0.22253045285E+03  0.00000000000E+00 0.  1.
         23    2    1    2    0    0 -0.19440476693E+02 -0.50031805591E+02 -0.16967278070E+03  0.20188624034E+03  0.95331462928E+02 0.  0.
         23    2    1    2    0    0 -0.89048436504E+01  0.25111271470E+02  0.56220803881E+02  0.10999450011E+03  0.90709090334E+02 0.  0.
        -11    1    4    4    0    0 -0.14949893396E+02 -0.18905547345E+02  0.60728356733E+02  0.65336454943E+02  0.00000000000E+00 0.  1.
         11    1    4    4    0    0  0.60450497461E+01  0.44016818815E+02 -0.45075528525E+01  0.44658045162E+02  0.00000000000E+00 0. -1.
        -11    1    3    3    0    0 -0.50800790409E+02 -0.10205500299E+02 -0.50382013023E+02  0.72271846378E+02  0.00000000000E+00 0.  1.
         11    1    3    3    0    0  0.31360313717E+02 -0.39826305291E+02 -0.11929076768E+03  0.12961439397E+03  0.00000000000E+00 0. -1.
         21    1    1    2  502  501  0.28345320343E+02  0.24920534121E+02  0.26238820462E+02  0.45967008881E+02  0.00000000000E+00 0. -1.
<scales pt_clust_5="13000.00000" pt_clust_6="13000.00000" pt_clust_7="13000.00000" pt_clust_8="13000.00000" pt_clust_9="37.74242"></scales>
<clustering>
<clus scale="   37.742">  1  9  2 -1</clus>
<clus scale="   90.709">  5  6 -1 -1</clus>
<clus scale="   95.331">  7  8 -1 -1</clus>
<clus scale="  102.777">  1  5  2 -1</clus>
<clus scale="   37.742">  1  5  2 -1</clus>
</clustering>
</event>
<event>
 9    1  0.9000149E-006  0.1021365E+03  0.7546771E-02  0.1278067E+00
         -2   -1    0    0    0  501 -0.00000000000E+00  0.00000000000E+00  0.20214416353E+03  0.20214416353E+03  0.00000000000E+00 0.  1.
          2   -1    0    0  502    0  0.00000000000E+00 -0.00000000000E+00 -0.17975733641E+03  0.17975733641E+03  0.00000000000E+00 0. -1.
         23    2    1    2    0    0  0.89071296865E+01  0.22289987869E+02  0.13760002291E+03  0.16722444773E+03  0.91946011843E+02 0.  0.
         23    2    1    2    0    0 -0.33178868214E+02 -0.12731371330E+02 -0.14330660648E+03  0.17634007052E+03  0.96416346632E+02 0.  0.
        -11    1    4    4    0    0  0.21437249847E+02 -0.29632305782E+02 -0.23174498418E+02  0.43297651251E+02  0.00000000000E+00 0.  1.
         11    1    4    4    0    0 -0.54616118061E+02  0.16900934452E+02 -0.12013210806E+03  0.13304241926E+03  0.00000000000E+00 0. -1.
        -11    1    3    3    0    0  0.19857903999E+02 -0.15133454855E+02  0.12312620335E+03  0.12563208093E+03  0.00000000000E+00 0.  1.
         11    1    3    3    0    0 -0.10950774313E+02  0.37423442724E+02  0.14473819566E+02  0.41592366802E+02  0.00000000000E+00 0. -1.
         21    1    1    2  502  501  0.24271738528E+02 -0.95586165382E+01  0.28093410685E+02  0.38336981691E+02  0.00000000000E+00 0.  1.
<scales pt_clust_5="13000.00000" pt_clust_6="13000.00000" pt_clust_7="13000.00000" pt_clust_8="13000.00000" pt_clust_9="26.08610"></scales>
<clustering>
<clus scale="   26.086">  1  9  2 -1</clus>
<clus scale="   91.946">  7  8 -1 -1</clus>
<clus scale="   96.416">  5  6 -1 -1</clus>
<clus scale="   97.928">  1  7  2 -1</clus>
<clus scale="  102.136">  2  5  1 -1</clus>
</clustering>
</event>
<event>
 9    1  0.9000149E-006  0.1115648E+03  0.7546771E-02  0.1259660E+00
          2   -1    0    0  502    0  0.00000000000E+00  0.00000000000E+00  0.28511683043E+03  0.28511683043E+03  0.00000000000E+00 0. -1.
         -2   -1    0    0    0  501 -0.00000000000E+00 -0.00000000000E+00 -0.10473070446E+03  0.10473070446E+03  0.00000000000E+00 0.  1.
         23    2    1    2    0    0 -0.46664746075E+02 -0.47056495557E+02 -0.50587509278E+02  0.12354216785E+03  0.91168299540E+02 0.  0.
         23    2    1    2    0    0  0.23491403794E+02  0.49540393592E+02  0.21530910516E+03  0.23822421598E+03  0.85945736750E+02 0.  0.
        -11    1    3    3    0    0 -0.15885836656E+02  0.21906815537E+02 -0.38503348372E+02  0.47061408915E+02  0.00000000000E+00 0. -1.
         11    1    3    3    0    0 -0.30778909419E+02 -0.68963311094E+02 -0.12084160906E+02  0.76480758932E+02  0.00000000000E+00 0.  1.
        -11    1    4    4    0    0 -0.59526072352E+01  0.55882887727E+02  0.19223756493E+03  0.20028382872E+03  0.00000000000E+00 0. -1.
         11    1    4    4    0    0  0.29444011029E+02 -0.63424941354E+01  0.23071540225E+02  0.37940387264E+02  0.00000000000E+00 0.  1.
         21    1    1    2  502  501  0.23173342281E+02 -0.24838980348E+01  0.15664530096E+02  0.28081151064E+02  0.00000000000E+00 0. -1.
<scales pt_clust_5="13000.00000" pt_clust_6="13000.00000" pt_clust_7="13000.00000" pt_clust_8="13000.00000" pt_clust_9="23.30608"></scales>
<clustering>
<clus scale="   23.306">  1  9  2 -1</clus>
<clus scale="   85.946">  7  8 -1 -1</clus>
<clus scale="   91.168">  5  6 -1 -1</clus>
<clus scale="  107.339">  1  7  2 -1</clus>
<clus scale="   23.306">  1  5  2 -1</clus>
</clustering>
</event>
<event>
 9    1  0.9000149E-006  0.1314887E+03  0.7546771E-02  0.1225444E+00
         -1   -1    0    0    0  501 -0.00000000000E+00  0.00000000000E+00  0.19181246280E+02  0.19181246280E+02  0.00000000000E+00 0.  1.
          1   -1    0    0  502    0  0.00000000000E+00 -0.00000000000E+00 -0.11456914840E+04  0.11456914840E+04  0.00000000000E+00 0. -1.
         23    2    1    2    0    0 -0.41100985009E+02  0.70733726700E+02 -0.46369615635E+03  0.47945326163E+03  0.90381157390E+02 0.  0.
         23    2    1    2    0    0  0.49339931611E+02 -0.98348632083E+02 -0.48711511820E+03  0.50737287672E+03  0.89661671659E+02 0.  0.
        -13    1    3    3    0    0  0.27553121382E+02  0.79178517038E+01 -0.12075306416E+03  0.12410950558E+03  0.00000000000E+00 0.  1.
         13    1    3    3    0    0 -0.68654106390E+02  0.62815874996E+02 -0.34294309219E+03  0.35534375604E+03  0.00000000000E+00 0. -1.
        -13    1    4    4    0    0  0.34339318855E+02 -0.75253434606E+02 -0.46429956047E+03  0.47161037955E+03  0.00000000000E+00 0. -1.
         13    1    4    4    0    0  0.15000612757E+02 -0.23095197477E+02 -0.22815557729E+02  0.35762497173E+02  0.00000000000E+00 0.  1.
         21    1    1    2  502  501 -0.82389466028E+01  0.27614905383E+02 -0.17569896318E+03  0.17804659194E+03  0.00000000000E+00 0.  1.
<scales pt_clust_5="13000.00000" pt_clust_6="13000.00000" pt_clust_7="13000.00000" pt_clust_8="13000.00000" pt_clust_9="28.81776"></scales>
<clustering>
<clus scale="   28.818">  2  9  1 -1</clus>
<clus scale="   89.662">  7  8 -1 -1</clus>
<clus scale="   90.381">  5  6 -1 -1</clus>
<clus scale="  130.995">  2  7  1 -1</clus>
<clus scale="   28.818">  2  5  1 -1</clus>
</clustering>
</event>
<event>
 9    1  0.9000149E-006  0.9610308E+02  0.7546771E-02  0.1289868E+00
         -1   -1    0    0    0  501 -0.00000000000E+00  0.00000000000E+00  0.44431105215E+03  0.44431105215E+03  0.00000000000E+00 0.  1.
          1   -1    0    0  502    0  0.00000000000E+00 -0.00000000000E+00 -0.43167746200E+03  0.43167746200E+03  0.00000000000E+00 0. -1.
         23    2    1    2    0    0 -0.87468453280E+01 -0.14140168714E+02  0.41061027493E+03  0.42115523562E+03  0.92165519252E+02 0.  0.
         23    2    1    2    0    0  0.39362349478E+02  0.76734638151E+02 -0.14894597711E+03  0.19623770615E+03  0.94269475276E+02 0.  0.
        -13    1    4    4    0    0  0.21201861454E+02  0.92304603044E+01  0.79669298958E+01  0.24457970041E+02  0.00000000000E+00 0.  1.
         13    1    4    4    0    0  0.18160488023E+02  0.67504177846E+02 -0.15691290701E+03  0.17177973611E+03  0.00000000000E+00 0. -1.
        -13    1    3    3    0    0 -0.43792174745E+02 -0.30031347921E+02  0.19312490770E+03  0.20029195292E+03  0.00000000000E+00 0.  1.
         13    1    3    3    0    0  0.35045329417E+02  0.15891179207E+02  0.21748536722E+03  0.22086328270E+03  0.00000000000E+00 0. -1.
         21    1    1    2  502  501 -0.30615504150E+02 -0.62594469437E+02 -0.24903070766E+03  0.25859557238E+03  0.00000000000E+00 0.  1.
<scales pt_clust_5="13000.00000" pt_clust_6="13000.00000" pt_clust_7="13000.00000" pt_clust_8="13000.00000" pt_clust_9="69.68053"></scales>
<clustering>
<clus scale="   69.681">  2  9  1 -1</clus>
<clus scale="   92.166">  7  8 -1 -1</clus>
<clus scale="   94.040">  1  7  2 -1</clus>
<clus scale="   94.269">  5  6 -1 -1</clus>
<clus scale="   69.681">  2  5  1 -1</clus>
</clustering>
</event>
<event>
 9    1  0.9000149E-006  0.1458155E+03  0.7546771E-02  0.1205867E+00
          2   -1    0    0  502    0  0.00000000000E+00  0.00000000000E+00  0.64552652071E+03  0.64552652071E+03  0.00000000000E+00 0. -1.
         -2   -1    0    0    0  501 -0.00000000000E+00 -0.00000000000E+00 -0.44144651280E+02  0.44144651280E+02  0.00000000000E+00 0.  1.
         23    2    1    2    0    0  0.10078177206E+03  0.37062448937E+02  0.22141045024E+03  0.26237566532E+03  0.91037418552E+02 0.  0.
         23    2    1    2    0    0 -0.12317441298E+03 -0.56272763337E+01  0.26933504703E+03  0.31012039289E+03  0.91813333869E+02 0.  0.
        -13    1    3    3    0    0  0.92012393799E+02 -0.58708068573E+01  0.17922497759E+03  0.20154984390E+03  0.00000000000E+00 0. -1.
         13    1    3    3    0    0  0.87693782564E+01  0.42933255795E+02  0.42185472650E+02  0.60825821415E+02  0.00000000000E+00 0.  1.
        -13    1    4    4    0    0 -0.70089961379E+02  0.32733778718E+02  0.20144823030E+03  0.21579039007E+03  0.00000000000E+00 0.  1.
         13    1    4    4    0    0 -0.53084451602E+02 -0.38361055052E+02  0.67886816728E+02  0.94330002820E+02  0.00000000000E+00 0. -1.
         21    1    1    2  502  501  0.22392640925E+02 -0.31435172604E+02  0.11063637216E+03  0.11717511378E+03  0.00000000000E+00 0. -1.
<scales pt_clust_5="13000.00000" pt_clust_6="13000.00000" pt_clust_7="13000.00000" pt_clust_8="13000.00000" pt_clust_9="38.59534"></scales>
<clustering>
<clus scale="   38.595">  1  9  2 -1</clus>
<clus scale="   91.037">  5  6 -1 -1</clus>
<clus scale="   91.813">  7  8 -1 -1</clus>
<clus scale="  145.328">  2  5  1 -1</clus>
<clus scale="   38.595">  1  5  2 -1</clus>
</clustering>
</event>
<event>
 9    1  0.9000149E-006  0.9474025E+02  0.7546771E-02  0.1292860E+00
          2   -1    0    0  502    0  0.00000000000E+00  0.00000000000E+00  0.18584012855E+03  0.18584012855E+03  0.00000000000E+00 0. -1.
         -2   -1    0    0    0  501 -0.00000000000E+00 -0.00000000000E+00 -0.10975955403E+03  0.10975955403E+03  0.00000000000E+00 0.  1.
         23    2    1    2    0    0 -0.25663725802E+02  0.41614945275E+01 -0.54310924331E+02  0.10894712445E+03  0.90795674821E+02 0.  0.
         23    2    1    2    0    0 -0.36877061448E+01  0.17010407236E+02  0.75297711492E+02  0.12073532679E+03  0.92759477400E+02 0.  0.
        -11    1    4    4    0    0 -0.51059042317E+01  0.50621950618E+02  0.17397036709E+02  0.53770893880E+02  0.00000000000E+00 0.  1.
         11    1    4    4    0    0  0.14181980870E+01 -0.33611543381E+02  0.57900674783E+02  0.66964432907E+02  0.00000000000E+00 0. -1.
        -13    1    3    3    0    0  0.14332095578E+02  0.26751221556E+02 -0.55212872343E+02  0.63003952977E+02  0.00000000000E+00 0. -1.
         13    1    3    3    0    0 -0.39995821380E+02 -0.22589727029E+02  0.90194801148E+00  0.45943171476E+02  0.00000000000E+00 0.  1.
         21    1    1    2  502  501  0.29351431946E+02 -0.21171901764E+02  0.55093787360E+02  0.65917231338E+02  0.00000000000E+00 0.  1.
<scales pt_clust_5="13000.00000" pt_clust_6="13000.00000" pt_clust_7="13000.00000" pt_clust_8="13000.00000" pt_clust_9="36.19055"></scales>
<clustering>
<clus scale="   36.191">  1  9  2 -1</clus>
<clus scale="   90.796">  7  8 -1 -1</clus>
<clus scale="   92.759">  5  6 -1 -1</clus>
<clus scale="   92.818">  2  7  1 -1</clus>
<clus scale="   36.191">  1  5  2 -1</clus>
</clustering>
</event>
<event>
 9    1  0.9000149E-006  0.1063227E+03  0.7546771E-02  0.1267849E+00
          1   -1    0    0  502    0  0.00000000000E+00  0.00000000000E+00  0.83689707774E+02  0.83689707774E+02  0.00000000000E+00 0. -1.
         -1   -1    0    0    0  501 -0.00000000000E+00 -0.00000000000E+00 -0.24905535032E+03  0.24905535032E+03  0.00000000000E+00 0.  1.
         23    2    1    2    0    0  0.75112755190E+02 -0.23885054458E+02 -0.13016398821E+03  0.17681684897E+03  0.90050610418E+02 0.  0.
         23    2    1    2    0    0 -0.48556532601E+02 -0.11607921768E+01  0.30869761011E+01  0.10302691790E+03  0.90807114774E+02 0.  0.
        -11    1    4    4    0    0  0.20764647509E+02 -0.35385482385E+01  0.22678036558E+02  0.30951336836E+02  0.00000000000E+00 0. -1.
         11    1    4    4    0    0 -0.69321180110E+02  0.23777560617E+01 -0.19591060457E+02  0.72075581063E+02  0.00000000000E+00 0.  1.
        -13    1    3    3    0    0  0.76300661846E+02  0.14174522403E+01 -0.46413831971E+02  0.89319896817E+02  0.00000000000E+00 0. -1.
         13    1    3    3    0    0 -0.11879066568E+01 -0.25302506698E+02 -0.83750156236E+02  0.87496952158E+02  0.00000000000E+00 0.  1.
         21    1    1    2  502  501 -0.26556222588E+02  0.25045846635E+02 -0.38288630439E+02  0.52901291220E+02  0.00000000000E+00 0.  1.
<scales pt_clust_5="13000.00000" pt_clust_6="13000.00000" pt_clust_7="13000.00000" pt_clust_8="13000.00000" pt_clust_9="36.50380"></scales>
<clustering>
<clus scale="   36.504">  2  9  1 -1</clus>
<clus scale="   90.051">  7  8 -1 -1</clus>
<clus scale="   90.807">  5  6 -1 -1</clus>
<clus scale="  105.677">  2  7  1 -1</clus>
<clus scale="  106.323">  1  5  2 -1</clus>
</clustering>
</event>
<event>
 9    1  0.9000149E-006  0.9468372E+02  0.7546771E-02  0.1292561E+00
          2   -1    0    0  502    0  0.00000000000E+00  0.00000000000E+00  0.27048833878E+02  0.27048833878E+02  0.00000000000E+00 0. -1.
         -2   -1    0    0    0  501 -0.00000000000E+00 -0.00000000000E+00 -0.50987977734E+03  0.50987977734E+03  0.00000000000E+00 0.  1.
         23    2    1    2    0    0 -0.44722523505E+01 -0.13065158830E+01 -0.20501006373E+03  0.22480574540E+03  0.92123769524E+02 0.  0.
         23    2    1    2    0    0 -0.92313209856E+01  0.41020143603E+02 -0.19091622106E+03  0.21559628995E+03  0.90911425624E+02 0.  0.
        -11    1    4    4    0    0  0.22068336837E+02 -0.20802867213E+02 -0.48212752144E+02  0.56958232455E+02  0.00000000000E+00 0. -1.
         11    1    4    4    0    0 -0.31299657822E+02  0.61823010816E+02 -0.14270346892E+03  0.15863805750E+03  0.00000000000E+00 0.  1.
        -11    1    3    3    0    0 -0.46631375475E+02  0.99265186442E+01 -0.12290716682E+03  0.13183016577E+03  0.00000000000E+00 0.  1.
         11    1    3    3    0    0  0.42159123125E+02 -0.11233034527E+02 -0.82102896903E+02  0.92975579628E+02  0.00000000000E+00 0. -1.
         21    1    1    2  502  501  0.13703573336E+02 -0.39713627720E+02 -0.86904658675E+02  0.96526575865E+02  0.00000000000E+00 0. -1.
<scales pt_clust_5="13000.00000" pt_clust_6="13000.00000" pt_clust_7="13000.00000" pt_clust_8="13000.00000" pt_clust_9="42.01143"></scales>
<clustering>
<clus scale="   42.011">  2  9  1 -1</clus>
<clus scale="   90.911">  5  6 -1 -1</clus>
<clus scale="   92.124">  7  8 -1 -1</clus>
<clus scale="   93.505">  1  5  2 -1</clus>
<clus scale="   93.505">  1  5  2 -1</clus>
</clustering>
</event>
<event>
 9    1  0.9000149E-006  0.9257972E+02  0.7546771E-02  0.1299788E+00
         -1   -1    0    0    0  501 -0.00000000000E+00  0.00000000000E+00  0.23902155530E+03  0.23902155530E+03  0.00000000000E+00 0.  1.
          1   -1    0    0  502    0  0.00000000000E+00 -0.00000000000E+00 -0.23608222465E+03  0.23608222465E+03  0.00000000000E+00 0. -1.
         23    2    1    2    0    0 -0.11934188393E+02 -0.12336118611E+02  0.15132875440E+03  0.17691583134E+03  0.90023412476E+02 0.  0.
         23    2    1    2    0    0 -0.22329270971E+01  0.38270170636E+02  0.44443563284E+02  0.10310375369E+03  0.84767693044E+02 0.  0.
        -11    1    3    3    0    0  0.22665556378E+02 -0.20480951899E+02  0.11502174836E+02  0.32641949430E+02  0.00000000000E+00 0. -1.
         11    1    3    3    0    0 -0.34599744771E+02  0.81448332877E+01  0.13982657957E+03  0.14427388191E+03  0.00000000000E+00 0.  1.
        -11    1    4    4    0    0 -0.37694944467E+02  0.42504939699E+02  0.21997401698E+02  0.60921789359E+02  0.00000000000E+00 0.  1.
         11    1    4    4    0    0  0.35462017370E+02 -0.42347690639E+01  0.22446161586E+02  0.42181964332E+02  0.00000000000E+00 0. -1.
         21    1    1    2  502  501  0.14167115490E+02 -0.25934052024E+02 -0.19283298705E+03  0.19508419492E+03  0.00000000000E+00 0. -1.
<scales pt_clust_5="13000.00000" pt_clust_6="13000.00000" pt_clust_7="13000.00000" pt_clust_8="13000.00000" pt_clust_9="29.55135"></scales>
<clustering>
<clus scale="   29.551">  2  9  1 -1</clus>
<clus scale="   84.768">  7  8 -1 -1</clus>
<clus scale="   87.478">  2  7  1 -1</clus>
<clus scale="   90.023">  5  6 -1 -1</clus>
<clus scale="   29.551">  2  5  1 -1</clus>
</clustering>
</event>
<event>
 9    1  0.9000149E-006  0.1308026E+03  0.7546771E-02  0.1226814E+00
          1   -1    0    0  502    0  0.00000000000E+00  0.00000000000E+00  0.93493734479E+03  0.93493734479E+03  0.00000000000E+00 0. -1.
         -1   -1    0    0    0  501 -0.00000000000E+00 -0.00000000000E+00 -0.53410268993E+02  0.53410268993E+02  0.00000000000E+00 0.  1.
         23    2    1    2    0    0  0.57293497109E+02  0.28258023842E+02  0.12544776875E+03  0.16721749320E+03  0.90241268972E+02 0.  0.
         23    2    1    2    0    0 -0.13168746007E+03 -0.43986820795E+02  0.20232075681E+03  0.26217539188E+03  0.92335366611E+02 0.  0.
        -11    1    3    3    0    0 -0.34263143462E+01  0.29201509797E+02  0.17937957477E+01  0.29456501958E+02  0.00000000000E+00 0.  1.
         11    1    3    3    0    0  0.60719811455E+02 -0.94348595494E+00  0.12365397301E+03  0.13776099125E+03  0.00000000000E+00 0. -1.
        -13    1    4    4    0    0 -0.11416112067E+03 -0.59437638568E+02  0.20112281161E+03  0.23878019118E+03  0.00000000000E+00 0.  1.
         13    1    4    4    0    0 -0.17526339407E+02  0.15450817772E+02  0.11979451931E+01  0.23395200694E+02  0.00000000000E+00 0. -1.
         21    1    1    2  502  501  0.74393962964E+02  0.15728796953E+02  0.55375855023E+03  0.55895472870E+03  0.00000000000E+00 0. -1.
<scales pt_clust_5="13000.00000" pt_clust_6="13000.00000" pt_clust_7="13000.00000" pt_clust_8="13000.00000" pt_clust_9="76.03852"></scales>
<clustering>
<clus scale="   76.039">  1  9  2 -1</clus>
<clus scale="   90.241">  5  6 -1 -1</clus>
<clus scale="   92.335">  7  8 -1 -1</clus>
<clus scale="  129.333">  2  5  1 -1</clus>
<clus scale="   76.039">  1  5  2 -1</clus>
</clustering>
</event>
<event>
 9    1  0.9000149E-006  0.9692330E+02  0.7546771E-02  0.1287684E+00
         -1   -1    0    0    0  501 -0.00000000000E+00  0.00000000000E+00  0.13255343072E+03  0.13255343072E+03  0.00000000000E+00 0.  1.
          1   -1    0    0  502    0  0.00000000000E+00 -0.00000000000E+00 -0.11977883416E+03  0.11977883416E+03  0.00000000000E+00 0. -1.
         23    2    1    2    0    0 -0.14086252020E+02  0.20499544785E+02  0.29014899472E+02  0.99147493947E+02  0.91486104585E+02 0.  0.
         23    2    1    2    0    0 -0.54543989003E+01 -0.34021408663E+02  0.27953830171E+02  0.10300709422E+03  0.92961487315E+02 0.  0.
        -13    1    4    4    0    0 -0.41879766778E+02 -0.54923688827E+01  0.36658102830E+02  0.55927609322E+02  0.00000000000E+00 0.  1.
         13    1    4    4    0    0  0.36425367878E+02 -0.28529039780E+02 -0.87042726588E+01  0.47079484899E+02  0.00000000000E+00 0. -1.
        -13    1    3    3    0    0  0.21441358405E+02  0.80608564893E+01 -0.24615805189E+02  0.33625096620E+02  0.00000000000E+00 0. -1.
         13    1    3    3    0    0 -0.35527610425E+02  0.12438688295E+02  0.53630704661E+02  0.65522397327E+02  0.00000000000E+00 0.  1.
         21    1    1    2  502  501  0.19540650920E+02  0.13521863878E+02 -0.44194133082E+02  0.50177676710E+02  0.00000000000E+00 0. -1.
<scales pt_clust_5="13000.00000" pt_clust_6="13000.00000" pt_clust_7="13000.00000" pt_clust_8="13000.00000" pt_clust_9="23.76295"></scales>
<clustering>
<clus scale="   23.763">  2  9  1 -1</clus>
<clus scale="   91.486">  7  8 -1 -1</clus>
<clus scale="   92.961">  5  6 -1 -1</clus>
<clus scale="   95.509">  1  7  2 -1</clus>
<clus scale="   23.763">  2  5  1 -1</clus>
</clustering>
</event>
<event>
 9    1  0.9000149E-006  0.2790909E+03  0.7546771E-02  0.1130540E+00
          1   -1    0    0  502    0  0.00000000000E+00  0.00000000000E+00  0.60397212377E+03  0.60397212377E+03  0.00000000000E+00 0. -1.
         -1   -1    0    0    0  501 -0.00000000000E+00 -0.00000000000E+00 -0.31034762556E+03  0.31034762556E+03  0.00000000000E+00 0.  1.
         23    2    1    2    0    0 -0.44642861681E+02  0.59301022304E+02 -0.85324245514E+02  0.14475970768E+03  0.90363431480E+02 0.  0.
         23    2    1    2    0    0  0.10733415689E+03  0.20728184612E+03 -0.55558517061E+02  0.25595203557E+03  0.89097198214E+02 0.  0.
        -11    1    3    3    0    0  0.23161637346E+02  0.49594367511E+01 -0.10471718177E+01  0.23709787563E+02  0.00000000000E+00 0. -1.
         11    1    3    3    0    0 -0.67804499028E+02  0.54341585553E+02 -0.84277073697E+02  0.12104992011E+03  0.00000000000E+00 0.  1.
        -13    1    4    4    0    0  0.13507923190E+02  0.11471769501E+03 -0.44143033371E+02  0.12365767640E+03  0.00000000000E+00 0.  1.
         13    1    4    4    0    0  0.93826233698E+02  0.92564151102E+02 -0.11415483690E+02  0.13229435917E+03  0.00000000000E+00 0. -1.
         21    1    1    2  502  501 -0.62691295207E+02 -0.26658286842E+03  0.43450726079E+03  0.51360800608E+03  0.00000000000E+00 0. -1.
<scales pt_clust_5="13000.00000" pt_clust_6="13000.00000" pt_clust_7="13000.00000" pt_clust_8="13000.00000" pt_clust_9="264.48708"></scales>
<clustering>
<clus scale="   89.097">  7  8 -1 -1</clus>
<clus scale="   90.363">  5  6 -1 -1</clus>
<clus scale="  116.941">  2  5  1 -1</clus>
<clus scale="  264.487">  1  9  2 -1</clus>
<clus scale="  264.487">  1  5  2 -1</clus>
</clustering>
</event>
<event>
 9    1  0.9000149E-006  0.1158261E+03  0.7546771E-02  0.1250870E+00
          1   -1    0    0  502    0  0.00000000000E+00  0.00000000000E+00  0.35486906908E+03  0.35486906908E+03  0.00000000000E+00 0. -1.
         -1   -1    0    0    0  501 -0.00000000000E+00 -0.00000000000E+00 -0.12391568736E+03  0.12391568736E+03  0.00000000000E+00 0.  1.
         23    2    1    2    0    0  0.10087645853E+03 -0.42924620951E+02 -0.44523886666E+02  0.14817158211E+03  0.89184406108E+02 0.  0.
         23    2    1    2    0    0 -0.66020456825E+02  0.10399603806E+02  0.25451717667E+03  0.27853493473E+03  0.91300953815E+02 0.  0.
        -13    1    3    3    0    0  0.66145345698E+02 -0.69359423538E+02 -0.41432237139E+02  0.10441535646E+03  0.00000000000E+00 0.  1.
         13    1    3    3    0    0  0.34731112833E+02  0.26434802587E+02 -0.30916495274E+01  0.43756225651E+02  0.00000000000E+00 0. -1.
        -13    1    4    4    0    0 -0.77372206207E+01  0.32540229396E+02  0.17140000631E+03  0.17463302458E+03  0.00000000000E+00 0. -1.
         13    1    4    4    0    0 -0.58283236204E+02 -0.22140625590E+02  0.83117170362E+02  0.10390191015E+03  0.00000000000E+00 0.  1.
         21    1    1    2  502  501 -0.34856001706E+02  0.32525017145E+02  0.20960091713E+02  0.52078239600E+02  0.00000000000E+00 0. -1.
<scales pt_clust_5="13000.00000" pt_clust_6="13000.00000" pt_clust_7="13000.00000" pt_clust_8="13000.00000" pt_clust_9="47.67408"></scales>
<clustering>
<clus scale="   47.674">  2  9  1 -1</clus>
<clus scale="   89.184">  5  6 -1 -1</clus>
<clus scale="   91.301">  7  8 -1 -1</clus>
<clus scale="  114.165">  2  5  1 -1</clus>
<clus scale="  115.826">  1  5  2 -1</clus>
</clustering>
</event>
<event>
 9    1  0.9000149E-006  0.1145926E+03  0.7546771E-02  0.1252578E+00
          1   -1    0    0  502    0  0.00000000000E+00  0.00000000000E+00  0.12716550972E+03  0.12716550972E+03  0.00000000000E+00 0. -1.
         -1   -1    0    0    0  501 -0.00000000000E+00 -0.00000000000E+00 -0.19566940898E+03  0.19566940898E+03  0.00000000000E+00 0.  1.
         23    2    1    2    0    0 -0.12283088605E+02 -0.63852310801E+02 -0.11112680206E+03  0.15864059934E+03  0.92680536039E+02 0.  0.
         23    2    1    2    0    0  0.42740032249E+02  0.65454842659E+02  0.12423503145E+02  0.12127349383E+03  0.91879650036E+02 0.  0.
        -11    1    4    4    0    0  0.62441392887E+02  0.13384865744E+02  0.14792045969E+02  0.65550643022E+02  0.00000000000E+00 0.  1.
         11    1    4    4    0    0 -0.19701360638E+02  0.52069976914E+02 -0.23685428236E+01  0.55722850806E+02  0.00000000000E+00 0. -1.
        -11    1    3    3    0    0 -0.29847124442E+02 -0.48468220430E+02 -0.13824224992E+02  0.58575834827E+02  0.00000000000E+00 0. -1.
         11    1    3    3    0    0  0.17564035837E+02 -0.15384090371E+02 -0.97302577071E+02  0.10006476451E+03  0.00000000000E+00 0.  1.
         21    1    1    2  502  501 -0.30456943645E+02 -0.16025318580E+01  0.30199399662E+02  0.42920825533E+02  0.00000000000E+00 0.  1.
<scales pt_clust_5="13000.00000" pt_clust_6="13000.00000" pt_clust_7="13000.00000" pt_clust_8="13000.00000" pt_clust_9="30.49907"></scales>
<clustering>
<clus scale="   30.499">  1  9  2 -1</clus>
<clus scale="   91.880">  5  6 -1 -1</clus>
<clus scale="   92.681">  7  8 -1 -1</clus>
<clus scale="  113.946">  1  5  2 -1</clus>
<clus scale="   30.499">  1  5  2 -1</clus>
</clustering>
</event>
<event>
 9    1  0.9000149E-006  0.9528133E+02  0.7546771E-02  0.1293857E+00
          1   -1    0    0  502    0  0.00000000000E+00  0.00000000000E+00  0.25359155864E+03  0.25359155864E+03  0.00000000000E+00 0. -1.
         -1   -1    0    0    0  501 -0.00000000000E+00 -0.00000000000E+00 -0.91170589748E+02  0.91170589748E+02  0.00000000000E+00 0.  1.
         23    2    1    2    0    0 -0.18127998669E+01  0.12677939305E+02 -0.35630348915E+02  0.95764219185E+02  0.87961625292E+02 0.  0.
         23    2    1    2    0    0 -0.21429017683E+02 -0.43022742549E+02  0.17525139147E+03  0.20449145992E+03  0.93773918515E+02 0.  0.
        -11    1    3    3    0    0  0.68571190190E+01 -0.35856022403E+02 -0.29723891508E+01  0.36626623119E+02  0.00000000000E+00 0.  1.
         11    1    3    3    0    0 -0.86699188858E+01  0.48533961708E+02 -0.32657959764E+02  0.59137596067E+02  0.00000000000E+00 0. -1.
        -13    1    4    4    0    0 -0.47701095167E+02  0.62649770068E+01  0.64643643465E+02  0.80581915201E+02  0.00000000000E+00 0.  1.
         13    1    4    4    0    0  0.26272077484E+02 -0.49287719556E+02  0.11060774800E+03  0.12390954472E+03  0.00000000000E+00 0. -1.
         21    1    1    2  502  501  0.23241817550E+02  0.30344803244E+02  0.22799926339E+02  0.44506469282E+02  0.00000000000E+00 0.  1.
<scales pt_clust_5="13000.00000" pt_clust_6="13000.00000" pt_clust_7="13000.00000" pt_clust_8="13000.00000" pt_clust_9="38.22289"></scales>
<clustering>
<clus scale="   38.223">  1  9  2 -1</clus>
<clus scale="   87.962">  5  6 -1 -1</clus>
<clus scale="   89.567">  2  5  1 -1</clus>
<clus scale="   93.774">  7  8 -1 -1</clus>
<clus scale="   38.223">  1  5  2 -1</clus>
</clustering>
</event>
<event>
 9    1  0.9000149E-006  0.1676950E+03  0.7546771E-02  0.1180608E+00
          2   -1    0    0  502    0  0.00000000000E+00  0.00000000000E+00  0.31458915759E+03  0.31458915759E+03  0.00000000000E+00 0. -1.
         -2   -1    0    0    0  501 -0.00000000000E+00 -0.00000000000E+00 -0.18902226881E+03  0.18902226881E+03  0.00000000000E+00 0.  1.
         23    2    1    2    0    0  0.83302712655E+00 -0.12269158465E+03 -0.11380208163E+03  0.18980485172E+03  0.89560309704E+02 0.  0.
         23    2    1    2    0    0  0.11953005634E+02  0.14309230831E+03  0.23336033668E+03  0.28899174365E+03  0.91874360521E+02 0.  0.
        -11    1    4    4    0    0  0.34462271915E+02  0.78285303316E+02  0.18856347098E+03  0.20705656109E+03  0.00000000000E+00 0. -1.
         11    1    4    4    0    0 -0.22509266280E+02  0.64807004998E+02  0.44796865697E+02  0.81935182563E+02  0.00000000000E+00 0.  1.
        -11    1    3    3    0    0  0.36770603295E+02 -0.63624873345E+02 -0.91074949843E+02  0.11702498991E+03  0.00000000000E+00 0.  1.
         11    1    3    3    0    0 -0.35937576168E+02 -0.59066711310E+02 -0.22727131786E+02  0.72779861810E+02  0.00000000000E+00 0. -1.
         21    1    1    2  502  501 -0.12786032761E+02 -0.20400723659E+02  0.60086337262E+01  0.24814831026E+02  0.00000000000E+00 0. -1.
<scales pt_clust_5="13000.00000" pt_clust_6="13000.00000" pt_clust_7="13000.00000" pt_clust_8="13000.00000" pt_clust_9="24.07638"></scales>
<clustering>
<clus scale="   24.076">  2  9  1 -1</clus>
<clus scale="   89.560">  7  8 -1 -1</clus>
<clus scale="   91.874">  5  6 -1 -1</clus>
<clus scale="  166.438">  2  7  1 -1</clus>
<clus scale="  167.695">  1  5  2 -1</clus>
</clustering>
</event>
<event>
 9    1  0.9000149E-006  0.9684507E+02  0.7546771E-02  0.1289878E+00
          4   -1    0    0  502    0  0.00000000000E+00  0.00000000000E+00  0.62011867927E+03  0.62011867927E+03  0.00000000000E+00 0. -1.
         -4   -1    0    0    0  501 -0.00000000000E+00 -0.00000000000E+00 -0.33653577772E+02  0.33653577772E+02  0.00000000000E+00 0.  1.
         23    2    1    2    0    0 -0.21796362604E+02  0.25143841224E+02  0.62249692222E+02  0.11436097142E+03  0.89978405342E+02 0.  0.
         23    2    1    2    0    0  0.45147804487E+02 -0.20073541462E+02  0.34614373471E+03  0.35974348367E+03  0.84608614482E+02 0.  0.
        -11    1    4    4    0    0  0.77826822558E+01 -0.48222722721E+02  0.21578667801E+03  0.22124622378E+03  0.00000000000E+00 0. -1.
         11    1    4    4    0    0  0.37365122231E+02  0.28149181259E+02  0.13035705670E+03  0.13849725988E+03  0.00000000000E+00 0.  1.
        -13    1    3    3    0    0 -0.45993396067E+02 -0.11814066113E+02  0.15285396525E+02  0.49885949794E+02  0.00000000000E+00 0. -1.
         13    1    3    3    0    0  0.24197033463E+02  0.36957907337E+02  0.46964295698E+02  0.64475021625E+02  0.00000000000E+00 0.  1.
         21    1    1    2  502  501 -0.23351441883E+02 -0.50702997618E+01  0.17807167456E+03  0.17966780195E+03  0.00000000000E+00 0. -1.
<scales pt_clust_5="13000.00000" pt_clust_6="13000.00000" pt_clust_7="13000.00000" pt_clust_8="13000.00000" pt_clust_9="23.89556"></scales>
<clustering>
<clus scale="   23.896">  1  9  2 -1</clus>
<clus scale="   84.609">  5  6 -1 -1</clus>
<clus scale="   89.978">  7  8 -1 -1</clus>
<clus scale="   91.877">  1  5  2 -1</clus>
<clus scale="   23.896">  1  5  2 -1</clus>
</clustering>
</event>
<event>
 9    1  0.9000149E-006  0.1119011E+03  0.7546771E-02  0.1257165E+00
         -1   -1    0    0    0  501 -0.00000000000E+00  0.00000000000E+00  0.54532337584E+02  0.54532337584E+02  0.00000000000E+00 0.  1.
          1   -1    0    0  502    0  0.00000000000E+00 -0.00000000000E+00 -0.41049120286E+03  0.41049120286E+03  0.00000000000E+00 0. -1.
         23    2    1    2    0    0 -0.66119411415E+02 -0.23101673151E+02 -0.51141579399E+02  0.12441912770E+03  0.89214316816E+02 0.  0.
         23    2    1    2    0    0  0.65502958181E+02 -0.79142015970E+01 -0.17634754730E+03  0.20844224634E+03  0.89422818681E+02 0.  0.
        -11    1    3    3    0    0 -0.19844123949E+02 -0.50663879661E+02 -0.71579109092E+01  0.54880357563E+02  0.00000000000E+00 0. -1.
         11    1    3    3    0    0 -0.46275287467E+02  0.27562206511E+02 -0.43983668490E+02  0.69538770134E+02  0.00000000000E+00 0.  1.
        -13    1    4    4    0    0  0.64891754978E+02  0.18267244082E+02 -0.16789460592E+03  0.18092327315E+03  0.00000000000E+00 0. -1.
         13    1    4    4    0    0  0.61120320269E+00 -0.26181445679E+02 -0.84529413834E+01  0.27518973187E+02  0.00000000000E+00 0.  1.
         21    1    1    2  502  501  0.61645323427E+00  0.31015874748E+02 -0.12846973858E+03  0.13216216641E+03  0.00000000000E+00 0.  1.
<scales pt_clust_5="13000.00000" pt_clust_6="13000.00000" pt_clust_7="13000.00000" pt_clust_8="13000.00000" pt_clust_9="31.02200"></scales>
<clustering>
<clus scale="   31.022">  2  9  1 -1</clus>
<clus scale="   89.214">  5  6 -1 -1</clus>
<clus scale="   89.423">  7  8 -1 -1</clus>
<clus scale="  111.735">  1  5  2 -1</clus>
<clus scale="   31.022">  2  5  1 -1</clus>
</clustering>
</event>
<event>
 9    1  0.9000149E-006  0.1623753E+03  0.7546771E-02  0.1205003E+00
         -1   -1    0    0    0  501 -0.00000000000E+00  0.00000000000E+00  0.15605566475E+03  0.15605566475E+03  0.00000000000E+00 0.  1.
          1   -1    0    0  502    0  0.00000000000E+00 -0.00000000000E+00 -0.86684678323E+03  0.86684678323E+03  0.00000000000E+00 0. -1.
         23    2    1    2    0    0 -0.42453234546E+01  0.62857874394E+02  0.10463678702E+03  0.14981571407E+03  0.86756877765E+02 0.  0.
         23    2    1    2    0    0 -0.10733072035E+03 -0.98256835039E+02 -0.63108361122E+03  0.65471750806E+03  0.95990634140E+02 0.  0.
        -11    1    4    4    0    0 -0.14449931533E+02 -0.68814796323E+02 -0.35625657140E+03  0.36312948294E+03  0.00000000000E+00 0. -1.
         11    1    4    4    0    0 -0.92880788821E+02 -0.29442038716E+02 -0.27482703982E+03  0.29158802511E+03  0.00000000000E+00 0.  1.
        -13    1    3    3    0    0 -0.33340571831E+02  0.51906329742E+01  0.99177519525E+01  0.35169563610E+02  0.00000000000E+00 0. -1.
         13    1    3    3    0    0  0.29095248377E+02  0.57667241420E+02  0.94719035064E+02  0.11464615046E+03  0.00000000000E+00 0.  1.
         21    1    1    2  502  501  0.11157604381E+03  0.35398960645E+02 -0.18434429428E+03  0.21836922585E+03  0.00000000000E+00 0. -1.
<scales pt_clust_5="13000.00000" pt_clust_6="13000.00000" pt_clust_7="13000.00000" pt_clust_8="13000.00000" pt_clust_9="130.96382"></scales>
<clustering>
<clus scale="   86.757">  7  8 -1 -1</clus>
<clus scale="   95.991">  5  6 -1 -1</clus>
<clus scale="  107.219">  1  7  2 -1</clus>
<clus scale="  130.964">  1  9  2 -1</clus>
<clus scale="  162.375">  2  5  1 -1</clus>
</clustering>
</event>
<event>
 9    1  0.9000149E-006  0.1472658E+03  0.7546771E-02  0.1204804E+00
         -1   -1    0    0    0  501 -0.00000000000E+00  0.00000000000E+00  0.49823747060E+02  0.49823747060E+02  0.00000000000E+00 0.  1.
          1   -1    0    0  502    0  0.00000000000E+00 -0.00000000000E+00 -0.83108522269E+03  0.83108522269E+03  0.00000000000E+00 0. -1.
         23    2    1    2    0    0 -0.59544221053E+02 -0.95229128873E+02 -0.12403609070E+03  0.19173916645E+03  0.93620803816E+02 0.  0.
         23    2    1    2    0    0  0.16346548466E+02  0.12544683455E+03 -0.48574306254E+03  0.50976708441E+03  0.88949646415E+02 0.  0.
        -11    1    3    3    0    0 -0.42120807686E+02 -0.69709033439E+02 -0.20916556406E+02  0.84089322241E+02  0.00000000000E+00 0.  1.
         11    1    3    3    0    0 -0.17423413366E+02 -0.25520095434E+02 -0.10311953430E+03  0.10764984421E+03  0.00000000000E+00 0. -1.
        -11    1    4    4    0    0  0.34771091914E+02  0.26727594557E+02 -0.74593308086E+02  0.86530657890E+02  0.00000000000E+00 0.  1.
         11    1    4    4    0    0 -0.18424543449E+02  0.98719239997E+02 -0.41114975445E+03  0.42323642652E+03  0.00000000000E+00 0. -1.
         21    1    1    2  502  501  0.43197672587E+02 -0.30217705681E+02 -0.17148232238E+03  0.17940271889E+03  0.00000000000E+00 0.  1.
<scales pt_clust_5="13000.00000" pt_clust_6="13000.00000" pt_clust_7="13000.00000" pt_clust_8="13000.00000" pt_clust_9="52.71763"></scales>
<clustering>
<clus scale="   52.718">  2  9  1 -1</clus>
<clus scale="   88.950">  7  8 -1 -1</clus>
<clus scale="   93.621">  5  6 -1 -1</clus>
<clus scale="  144.341">  2  7  1 -1</clus>
<clus scale="   52.718">  2  5  1 -1</clus>
</clustering>
</event>
<event>
 9    1  0.9000149E-006  0.2053636E+03  0.7546771E-02  0.1145415E+00
         -1   -1    0    0    0  501 -0.00000000000E+00  0.00000000000E+00  0.17227217962E+03  0.17227217962E+03  0.00000000000E+00 0.  1.
          1   -1    0    0  502    0  0.00000000000E+00 -0.00000000000E+00 -0.75925009111E+03  0.75925009111E+03  0.00000000000E+00 0. -1.
         23    2    1    2    0    0 -0.11878014446E+03 -0.14523816494E+03  0.78043076952E+02  0.22272645823E+03  0.91178429810E+02 0.  0.
         23    2    1    2    0    0  0.57802338747E+02  0.14702635368E+03 -0.52686634457E+03  0.55777198645E+03  0.92539639004E+02 0.  0.
        -11    1    3    3    0    0 -0.53424853540E+02 -0.63216401938E+02 -0.13078360092E+02  0.83794820558E+02  0.00000000000E+00 0. -1.
         11    1    3    3    0    0 -0.65355290919E+02 -0.82021763001E+02  0.91121437044E+02  0.13893163767E+03  0.00000000000E+00 0.  1.
        -13    1    4    4    0    0  0.49644821568E+02  0.72078650498E+02 -0.40595634859E+03  0.41528363455E+03  0.00000000000E+00 0. -1.
         13    1    4    4    0    0  0.81575171793E+01  0.74947703184E+02 -0.12090999598E+03  0.14248835190E+03  0.00000000000E+00 0.  1.
         21    1    1    2  502  501  0.60977805712E+02 -0.17881887425E+01 -0.13815464388E+03  0.15102382605E+03  0.00000000000E+00 0.  1.
<scales pt_clust_5="13000.00000" pt_clust_6="13000.00000" pt_clust_7="13000.00000" pt_clust_8="13000.00000" pt_clust_9="61.00402"></scales>
<clustering>
<clus scale="   61.004">  2  9  1 -1</clus>
<clus scale="   91.178">  5  6 -1 -1</clus>
<clus scale="   92.540">  7  8 -1 -1</clus>
<clus scale="  204.754">  1  5  2 -1</clus>
<clus scale="   61.004">  2  5  1 -1</clus>
</clustering>
</event>
<event>
 9    1  0.9000149E-006  0.1274068E+03  0.7546771E-02  0.1232377E+00
          1   -1    0    0  502    0  0.00000000000E+00  0.00000000000E+00  0.49260975146E+03  0.49260975146E+03  0.00000000000E+00 0. -1.
         -1   -1    0    0    0  501 -0.00000000000E+00 -0.00000000000E+00 -0.10947493843E+03  0.10947493843E+03  0.00000000000E+00 0.  1.
         23    2    1    2    0    0 -0.73679281485E+02  0.36034988794E+02 -0.50378623034E+02  0.13544927592E+03  0.95296084656E+02 0.  0.
         23    2    1    2    0    0  0.10231397813E+03 -0.36972546669E+02  0.38275850081E+03  0.40835258356E+03  0.91720462473E+02 0.  0.
        -11    1    3    3    0    0 -0.86454286603E+01  0.55869793492E+02 -0.13598164813E+02  0.58147118139E+02  0.00000000000E+00 0. -1.
         11    1    3    3    0    0 -0.65033852825E+02 -0.19834804698E+02 -0.36780458220E+02  0.77302157780E+02  0.00000000000E+00 0.  1.
        -13    1    4    4    0    0  0.35082738053E+02  0.74814469874E+01  0.30790004648E+02  0.47273617849E+02  0.00000000000E+00 0.  1.
         13    1    4    4    0    0  0.67231240079E+02 -0.44453993656E+02  0.35196849616E+03  0.36107896571E+03  0.00000000000E+00 0. -1.
         21    1    1    2  502  501 -0.28634696647E+02  0.93755787525E+00  0.50754935257E+02  0.58282830403E+02  0.00000000000E+00 0.  1.
<scales pt_clust_5="13000.00000" pt_clust_6="13000.00000" pt_clust_7="13000.00000" pt_clust_8="13000.00000" pt_clust_9="28.65004"></scales>
<clustering>
<clus scale="   28.650">  1  9  2 -1</clus>
<clus scale="   91.720">  7  8 -1 -1</clus>
<clus scale="   95.296">  5  6 -1 -1</clus>
<clus scale="  124.755">  1  7  2 -1</clus>
<clus scale="   28.650">  1  5  2 -1</clus>
</clustering>
</event>
<event>
 9    1  0.9000149E-006  0.9701567E+02  0.7546771E-02  0.1286947E+00
          1   -1    0    0  502    0  0.00000000000E+00  0.00000000000E+00  0.79357653060E+02  0.79357653060E+02  0.00000000000E+00 0. -1.
         -1   -1    0    0    0  501 -0.00000000000E+00 -0.00000000000E+00 -0.23648610866E+03  0.23648610866E+03  0.00000000000E+00 0.  1.
         23    2    1    2    0    0 -0.25910564262E+02 -0.23627225006E+02 -0.12228743424E+03  0.15707934918E+03  0.92141750927E+02 0.  0.
         23    2    1    2    0    0  0.35789267603E+02 -0.21857332856E+02 -0.46149495875E+02  0.11086540024E+03  0.91666495114E+02 0.  0.
        -11    1    4    4    0    0  0.59390016027E+02  0.10944115888E+02 -0.27159414058E+02  0.66216172105E+02  0.00000000000E+00 0.  1.
         11    1    4    4    0    0 -0.23600748425E+02 -0.32801448744E+02 -0.18990081817E+02  0.44649228138E+02  0.00000000000E+00 0. -1.
        -11    1    3    3    0    0  0.15675507474E+01  0.33907929395E+02 -0.32813230043E+02  0.47211364703E+02  0.00000000000E+00 0.  1.
         11    1    3    3    0    0 -0.27478115009E+02 -0.57535154401E+02 -0.89474204197E+02  0.10986798448E+03  0.00000000000E+00 0. -1.
         21    1    1    2  502  501 -0.98787033406E+01  0.45484557862E+02  0.11308474512E+02  0.47899012301E+02  0.00000000000E+00 0. -1.
<scales pt_clust_5="13000.00000" pt_clust_6="13000.00000" pt_clust_7="13000.00000" pt_clust_8="13000.00000" pt_clust_9="46.54497"></scales>
<clustering>
<clus scale="   46.545">  1  9  2 -1</clus>
<clus scale="   91.666">  5  6 -1 -1</clus>
<clus scale="   92.142">  7  8 -1 -1</clus>
<clus scale="   96.564">  1  5  2 -1</clus>
<clus scale="   46.545">  1  5  2 -1</clus>
</clustering>
</event>
<event>
 9    1  0.9000149E-006  0.1029702E+03  0.7546771E-02  0.1278107E+00
          4   -1    0    0  502    0  0.00000000000E+00  0.00000000000E+00  0.95288468616E+02  0.95288468616E+02  0.00000000000E+00 0. -1.
         -4   -1    0    0    0  501 -0.00000000000E+00 -0.00000000000E+00 -0.14964979758E+03  0.14964979758E+03  0.00000000000E+00 0.  1.
         23    2    1    2    0    0  0.10763431314E+02 -0.60029667523E+01 -0.60618897762E+02  0.11656181727E+03  0.98793316662E+02 0.  0.
         23    2    1    2    0    0 -0.31387119131E+02  0.18686678586E+02  0.20684172284E+02  0.10019241207E+03  0.90974398868E+02 0.  0.
        -11    1    4    4    0    0 -0.19497339118E+02  0.46183287265E+02  0.40354371513E+02  0.64354623420E+02  0.00000000000E+00 0. -1.
         11    1    4    4    0    0 -0.11889780013E+02 -0.27496608679E+02 -0.19670199229E+02  0.35837788650E+02  0.00000000000E+00 0.  1.
        -11    1    3    3    0    0 -0.32642831622E+02 -0.10616662170E+02  0.79905129739E+01  0.35243669921E+02  0.00000000000E+00 0. -1.
         11    1    3    3    0    0  0.43406262936E+02  0.46136954173E+01 -0.68609410736E+02  0.81318147353E+02  0.00000000000E+00 0.  1.
         21    1    1    2  502  501  0.20623687817E+02 -0.12683711833E+02 -0.14426603486E+02  0.28184036851E+02  0.00000000000E+00 0.  1.
<scales pt_clust_5="13000.00000" pt_clust_6="13000.00000" pt_clust_7="13000.00000" pt_clust_8="13000.00000" pt_clust_9="24.21184"></scales>
<clustering>
<clus scale="   24.212">  2  9  1 -1</clus>
<clus scale="   90.974">  5  6 -1 -1</clus>
<clus scale="   95.494">  1  5  2 -1</clus>
<clus scale="   98.793">  7  8 -1 -1</clus>
<clus scale="   95.494">  1  5  2 -1</clus>
</clustering>
</event>
<event>
 9    1  0.9000149E-006  0.1029914E+03  0.7546771E-02  0.1275919E+00
         -1   -1    0    0    0  501 -0.00000000000E+00  0.00000000000E+00  0.12099068539E+03  0.12099068539E+03  0.00000000000E+00 0.  1.
          1   -1    0    0  502    0  0.00000000000E+00 -0.00000000000E+00 -0.10875323630E+03  0.10875323630E+03  0.00000000000E+00 0. -1.
         23    2    1    2    0    0  0.19244258345E+02 -0.26729395717E+02  0.10947080757E+02  0.10159415829E+03  0.95481581195E+02 0.  0.
         23    2    1    2    0    0 -0.63370238981E+01  0.46435448997E+02  0.89291013363E+01  0.10338536397E+03  0.91719113800E+02 0.  0.
        -13    1    3    3    0    0  0.37668569138E+02  0.22953544690E+02  0.18940479925E+02  0.48005500669E+02  0.00000000000E+00 0.  1.
         13    1    3    3    0    0 -0.18424310793E+02 -0.49682940406E+02 -0.79933991686E+01  0.53588657623E+02  0.00000000000E+00 0. -1.
        -13    1    4    4    0    0  0.18171838553E+02 -0.19851695769E+02 -0.12303300648E+02  0.29591835836E+02  0.00000000000E+00 0. -1.
         13    1    4    4    0    0 -0.24508862451E+02  0.66287144766E+02  0.21232401984E+02  0.73793528130E+02  0.00000000000E+00 0.  1.
         21    1    1    2  502  501 -0.12907234447E+02 -0.19706053280E+02 -0.76387330041E+01  0.24764399425E+02  0.00000000000E+00 0. -1.
<scales pt_clust_5="13000.00000" pt_clust_6="13000.00000" pt_clust_7="13000.00000" pt_clust_8="13000.00000" pt_clust_9="23.55685"></scales>
<clustering>
<clus scale="   23.557">  2  9  1 -1</clus>
<clus scale="   91.719">  7  8 -1 -1</clus>
<clus scale="   95.482">  5  6 -1 -1</clus>
<clus scale="   99.513">  2  7  1 -1</clus>
<clus scale="   23.557">  2  5  1 -1</clus>
</clustering>
</event>
<event>
 9    1  0.9000149E-006  0.9196514E+02  0.7546771E-02  0.1304574E+00
         -1   -1    0    0    0  501 -0.00000000000E+00  0.00000000000E+00  0.25842750930E+03  0.25842750930E+03  0.00000000000E+00 0.  1.
          1   -1    0    0  502    0  0.00000000000E+00 -0.00000000000E+00 -0.71138628084E+02  0.71138628084E+02  0.00000000000E+00 0. -1.
         23    2    1    2    0    0  0.11810885651E+02  0.40377458647E+01  0.19309610587E+03  0.20982757726E+03  0.81152360822E+02 0.  0.
         23    2    1    2    0    0  0.19444396352E+01  0.17622918026E+02  0.11244656181E+01  0.93159589786E+02  0.91449968075E+02 0.  0.
        -11    1    3    3    0    0  0.23512467876E+02  0.36034008269E+02  0.14231414182E+03  0.14867616103E+03  0.00000000000E+00 0. -1.
         11    1    3    3    0    0 -0.11701582226E+02 -0.31996262404E+02  0.50781964054E+02  0.61151416235E+02  0.00000000000E+00 0.  1.
        -11    1    4    4    0    0 -0.17293123983E+02  0.38928234413E+02  0.30266285879E+02  0.52254259468E+02  0.00000000000E+00 0. -1.
         11    1    4    4    0    0  0.19237563618E+02 -0.21305316387E+02 -0.29141820261E+02  0.40905330318E+02  0.00000000000E+00 0.  1.
         21    1    1    2  502  501 -0.13755325286E+02 -0.21660663891E+02 -0.69316902729E+01  0.26578970333E+02  0.00000000000E+00 0.  1.
<scales pt_clust_5="13000.00000" pt_clust_6="13000.00000" pt_clust_7="13000.00000" pt_clust_8="13000.00000" pt_clust_9="25.65918"></scales>
<clustering>
<clus scale="   25.659">  2  9  1 -1</clus>
<clus scale="   81.152">  5  6 -1 -1</clus>
<clus scale="   81.732">  1  5  2 -1</clus>
<clus scale="   91.450">  7  8 -1 -1</clus>
<clus scale="   25.659">  2  5  1 -1</clus>
</clustering>
</event>
<event>
 9    1  0.9000149E-006  0.9846267E+02  0.7546771E-02  0.1283686E+00
         -1   -1    0    0    0  501 -0.00000000000E+00  0.00000000000E+00  0.33449275779E+03  0.33449275779E+03  0.00000000000E+00 0.  1.
          1   -1    0    0  502    0  0.00000000000E+00 -0.00000000000E+00 -0.47849037449E+02  0.47849037449E+02  0.00000000000E+00 0. -1.
         23    2    1    2    0    0  0.25290222510E+02  0.34375775805E+01  0.21938797121E+03  0.23876526429E+03  0.90699268045E+02 0.  0.
         23    2    1    2    0    0 -0.37571263188E+02 -0.20434171668E+02  0.36809104546E+02  0.10660753939E+03  0.90449444929E+02 0.  0.
        -11    1    3    3    0    0  0.53525665612E+02 -0.10126695493E+02  0.86413498667E+02  0.10215106261E+03  0.00000000000E+00 0. -1.
         11    1    3    3    0    0 -0.28235443101E+02  0.13564273074E+02  0.13297447254E+03  0.13661420168E+03  0.00000000000E+00 0.  1.
        -11    1    4    4    0    0  0.23730362258E+02  0.49884768254E+01  0.31888670837E+02  0.40061232154E+02  0.00000000000E+00 0. -1.
         11    1    4    4    0    0 -0.61301625447E+02 -0.25422648493E+02  0.49204337088E+01  0.66546307236E+02  0.00000000000E+00 0.  1.
         21    1    1    2  502  501  0.12281040678E+02  0.16996594087E+02  0.30446644585E+02  0.36968991563E+02  0.00000000000E+00 0. -1.
<scales pt_clust_5="13000.00000" pt_clust_6="13000.00000" pt_clust_7="13000.00000" pt_clust_8="13000.00000" pt_clust_9="20.96922"></scales>
<clustering>
<clus scale="   20.969">  1  9  2 -1</clus>
<clus scale="   90.449">  7  8 -1 -1</clus>
<clus scale="   90.699">  5  6 -1 -1</clus>
<clus scale="   98.233">  2  7  1 -1</clus>
<clus scale="   98.233">  2  5  1 -1</clus>
</clustering>
</event>
<event>
 9    1  0.9000149E-006  0.1801965E+03  0.7546771E-02  0.1189085E+00
          1   -1    0    0  502    0  0.00000000000E+00  0.00000000000E+00  0.14195285226E+03  0.14195285226E+03  0.00000000000E+00 0. -1.
         -1   -1    0    0    0  501 -0.00000000000E+00 -0.00000000000E+00 -0.44794263526E+03  0.44794263526E+03  0.00000000000E+00 0.  1.
         23    2    1    2    0    0  0.56921583498E+02  0.50587339474E+02 -0.19566010109E+03  0.22497617862E+03  0.80822399141E+02 0.  0.
         23    2    1    2    0    0 -0.79553891340E+02  0.11766687181E+03 -0.96509289604E+02  0.19458814846E+03  0.91521528577E+02 0.  0.
        -11    1    3    3    0    0  0.32890821482E+02  0.70336023338E+02 -0.11732381318E+03  0.14069058055E+03  0.00000000000E+00 0. -1.
         11    1    3    3    0    0  0.24030762016E+02 -0.19748683864E+02 -0.78336287916E+02  0.84285598069E+02  0.00000000000E+00 0.  1.
        -11    1    4    4    0    0 -0.79684386343E+02  0.37032044554E+02 -0.57520993740E+02  0.10502208564E+03  0.00000000000E+00 0.  1.
         11    1    4    4    0    0  0.13049500321E+00  0.80634827255E+02 -0.38988295863E+02  0.89566062824E+02  0.00000000000E+00 0. -1.
         21    1    1    2  502  501  0.22632307842E+02 -0.16825421128E+03 -0.13820392306E+02  0.17033116044E+03  0.00000000000E+00 0.  1.
<scales pt_clust_5="13000.00000" pt_clust_6="13000.00000" pt_clust_7="13000.00000" pt_clust_8="13000.00000" pt_clust_9="155.22436"></scales>
<clustering>
<clus scale="   80.822">  5  6 -1 -1</clus>
<clus scale="   91.522">  7  8 -1 -1</clus>
<clus scale="  111.047">  2  5  1 -1</clus>
<clus scale="  155.224">  1  9  2 -1</clus>
<clus scale="  155.224">  1  5  2 -1</clus>
</clustering>
</event>
<event>
 9    1  0.9000149E-006  0.1595652E+03  0.7546771E-02  0.1192310E+00
          2   -1    0    0  502    0  0.00000000000E+00  0.00000000000E+00  0.13424056801E+03  0.13424056801E+03  0.00000000000E+00 0. -1.
         -2   -1    0    0    0  501 -0.00000000000E+00 -0.00000000000E+00 -0.28537985409E+03  0.28537985409E+03  0.00000000000E+00 0.  1.
         23    2    1    2    0    0 -0.31444318827E+01 -0.11596293239E+03 -0.10381263397E+03  0.17962857337E+03  0.89621829153E+02 0.  0.
         23    2    1    2    0    0 -0.24948878256E+02  0.15596731997E+03 -0.70106599404E+02  0.18606123498E+03  0.68960832777E+02 0.  0.
        -11    1    4    4    0    0 -0.32477806279E+02  0.10287390796E+03 -0.76221361211E+02  0.13208915453E+03  0.00000000000E+00 0.  1.
         11    1    4    4    0    0  0.75289280225E+01  0.53093412011E+02  0.61147618076E+01  0.53972080450E+02  0.00000000000E+00 0. -1.
        -13    1    3    3    0    0 -0.38462406333E+02 -0.37697434389E+02 -0.67623139959E+02  0.86448495177E+02  0.00000000000E+00 0.  1.
         13    1    3    3    0    0  0.35317974450E+02 -0.78265497996E+02 -0.36189494014E+02  0.93180078197E+02  0.00000000000E+00 0. -1.
         21    1    1    2  502  501  0.28093310139E+02 -0.40004387584E+02  0.22779947300E+02  0.53930613750E+02  0.00000000000E+00 0. -1.
<scales pt_clust_5="13000.00000" pt_clust_6="13000.00000" pt_clust_7="13000.00000" pt_clust_8="13000.00000" pt_clust_9="48.88338"></scales>
<clustering>
<clus scale="   48.883">  1  9  2 -1</clus>
<clus scale="   68.961">  5  6 -1 -1</clus>
<clus scale="   89.622">  7  8 -1 -1</clus>
<clus scale="  148.945">  1  5  2 -1</clus>
<clus scale="   48.883">  1  5  2 -1</clus>
</clustering>
</event>
<event>
 9    1  0.9000149E-006  0.1862734E+03  0.7546771E-02  0.1161872E+00
         -1   -1    0    0    0  501 -0.00000000000E+00  0.00000000000E+00  0.15614623556E+03  0.15614623556E+03  0.00000000000E+00 0.  1.
          1   -1    0    0  502    0  0.00000000000E+00 -0.00000000000E+00 -0.60985321332E+03  0.60985321332E+03  0.00000000000E+00 0. -1.
         23    2    1    2    0    0  0.10350316593E+03  0.12251705301E+03 -0.21203592099E+02  0.18544564446E+03  0.90648558164E+02 0.  0.
         23    2    1    2    0    0 -0.30822595347E+02 -0.17749303748E+03 -0.80871137691E+02  0.21730449330E+03  0.90704416424E+02 0.  0.
        -11    1    3    3    0    0  0.34256020423E+02  0.65949179118E+02  0.32534114791E+02  0.81124828424E+02  0.00000000000E+00 0.  1.
         11    1    3    3    0    0  0.69247145510E+02  0.56567873889E+02 -0.53737706889E+02  0.10432081604E+03  0.00000000000E+00 0. -1.
        -13    1    4    4    0    0 -0.37057834593E+02 -0.25112218403E+02 -0.38437277556E+02  0.59002804372E+02  0.00000000000E+00 0.  1.
         13    1    4    4    0    0  0.62352392463E+01 -0.15238081908E+03 -0.42433860135E+02  0.15830168893E+03  0.00000000000E+00 0. -1.
         21    1    1    2  502  501 -0.72680570587E+02  0.54975984474E+02 -0.35163224797E+03  0.36324931111E+03  0.00000000000E+00 0. -1.
<scales pt_clust_5="13000.00000" pt_clust_6="13000.00000" pt_clust_7="13000.00000" pt_clust_8="13000.00000" pt_clust_9="91.13081"></scales>
<clustering>
<clus scale="   90.649">  5  6 -1 -1</clus>
<clus scale="   90.704">  7  8 -1 -1</clus>
<clus scale="   91.131">  2  9  1 -1</clus>
<clus scale="  186.246">  1  5  2 -1</clus>
<clus scale="   91.131">  2  5  1 -1</clus>
</clustering>
</event>
<event>
 9    1  0.9000149E-006  0.1621435E+03  0.7546771E-02  0.1207949E+00
         -2   -1    0    0    0  501 -0.00000000000E+00  0.00000000000E+00  0.58026707386E+03  0.58026707386E+03  0.00000000000E+00 0.  1.
          2   -1    0    0  502    0  0.00000000000E+00 -0.00000000000E+00 -0.31604444314E+03  0.31604444314E+03  0.00000000000E+00 0. -1.
         23    2    1    2    0    0  0.12923652378E+03 -0.51767571444E+02  0.51325753368E+03  0.53808353383E+03  0.81967267696E+02 0.  0.
         23    2    1    2    0    0  0.18528726746E+02  0.14046138800E+02 -0.69504999943E+02  0.12266809308E+03  0.98366194972E+02 0.  0.
        -13    1    3    3    0    0  0.13508563615E+02  0.17200001312E+02  0.35512172375E+02  0.41706542926E+02  0.00000000000E+00 0. -1.
         13    1    3    3    0    0  0.11572796017E+03 -0.68967572756E+02  0.47774536130E+03  0.49637699091E+03  0.00000000000E+00 0.  1.
        -13    1    4    4    0    0  0.29100563864E+02  0.53124366496E+02 -0.40427451430E+02  0.72824583500E+02  0.00000000000E+00 0.  1.
         13    1    4    4    0    0 -0.10571837118E+02 -0.39078227696E+02 -0.29077548513E+02  0.49843509582E+02  0.00000000000E+00 0. -1.
         21    1    1    2  502  501 -0.14776525053E+03  0.37721432645E+02 -0.17952990301E+03  0.23555989009E+03  0.00000000000E+00 0. -1.
<scales pt_clust_5="13000.00000" pt_clust_6="13000.00000" pt_clust_7="13000.00000" pt_clust_8="13000.00000" pt_clust_9="139.89955"></scales>
<clustering>
<clus scale="   81.967">  5  6 -1 -1</clus>
<clus scale="   98.366">  7  8 -1 -1</clus>
<clus scale="  101.077">  2  7  1 -1</clus>
<clus scale="  139.900">  2  9  1 -1</clus>
<clus scale="  101.077">  2  5  1 -1</clus>
</clustering>
</event>
<event>
 9    1  0.9000149E-006  0.1194812E+03  0.7546771E-02  0.1244137E+00
         -1   -1    0    0    0  501 -0.00000000000E+00  0.00000000000E+00  0.19584636766E+03  0.19584636766E+03  0.00000000000E+00 0.  1.
          1   -1    0    0  502    0  0.00000000000E+00 -0.00000000000E+00 -0.18226324746E+03  0.18226324746E+03  0.00000000000E+00 0. -1.
         23    2    1    2    0    0 -0.68823618941E+01  0.64606479325E+02  0.79133532745E+02  0.13762662096E+03  0.91965247335E+02 0.  0.
         23    2    1    2    0    0  0.73914300124E+02 -0.10058853644E+03 -0.35818378464E+02  0.15880078662E+03  0.91396696705E+02 0.  0.
        -11    1    3    3    0    0 -0.30966102699E+01  0.19769056736E+02 -0.20288508992E+02  0.28496108444E+02  0.00000000000E+00 0. -1.
         11    1    3    3    0    0 -0.37857516241E+01  0.44837422590E+02  0.99422041737E+02  0.10913051252E+03  0.00000000000E+00 0.  1.
        -13    1    4    4    0    0 -0.10545659105E+02 -0.50966704601E+02  0.57994308001E+01  0.52368399836E+02  0.00000000000E+00 0. -1.
         13    1    4    4    0    0  0.84459959229E+02 -0.49621831840E+02 -0.41617809264E+02  0.10643238678E+03  0.00000000000E+00 0.  1.
         21    1    1    2  502  501 -0.67031938230E+02  0.35982057115E+02 -0.29732034090E+02  0.81682207538E+02  0.00000000000E+00 0. -1.
<scales pt_clust_5="13000.00000" pt_clust_6="13000.00000" pt_clust_7="13000.00000" pt_clust_8="13000.00000" pt_clust_9="76.07884"></scales>
<clustering>
<clus scale="   76.079">  2  9  1 -1</clus>
<clus scale="   91.397">  7  8 -1 -1</clus>
<clus scale="   91.965">  5  6 -1 -1</clus>
<clus scale="  119.044">  2  7  1 -1</clus>
<clus scale="   76.079">  2  5  1 -1</clus>
</clustering>
</event>
<event>
 9    1  0.9000149E-006  0.9978077E+02  0.7546771E-02  0.1281274E+00
          1   -1    0    0  502    0  0.00000000000E+00  0.00000000000E+00  0.11306647202E+03  0.11306647202E+03  0.00000000000E+00 0. -1.
         -1   -1    0    0    0  501 -0.00000000000E+00 -0.00000000000E+00 -0.42329795219E+03  0.42329795219E+03  0.00000000000E+00 0.  1.
         23    2    1    2    0    0  0.42799111745E+02  0.42342954595E+01 -0.34406781628E+03  0.35860150791E+03  0.91447723057E+02 0.  0.
         23    2    1    2    0    0  0.24030561831E+02  0.12426991331E+01  0.51296492254E+02  0.10847323601E+03  0.92499192487E+02 0.  0.
        -11    1    4    4    0    0 -0.24320438675E+02 -0.35940268275E-01 -0.13343479394E+02  0.27740466315E+02  0.00000000000E+00 0.  1.
         11    1    4    4    0    0  0.48351000506E+02  0.12786394014E+01  0.64639971648E+02  0.80732769699E+02  0.00000000000E+00 0. -1.
        -13    1    3    3    0    0 -0.25691934733E+02 -0.10433898057E+02 -0.61177579392E+02  0.67168727539E+02  0.00000000000E+00 0.  1.
         13    1    3    3    0    0  0.68491046478E+02  0.14668193517E+02 -0.28289023689E+03  0.29143278037E+03  0.00000000000E+00 0. -1.
         21    1    1    2  502  501 -0.66829673576E+02 -0.54769945926E+01 -0.17460156146E+02  0.69289680276E+02  0.00000000000E+00 0.  1.
<scales pt_clust_5="13000.00000" pt_clust_6="13000.00000" pt_clust_7="13000.00000" pt_clust_8="13000.00000" pt_clust_9="67.05373"></scales>
<clustering>
<clus scale="   67.054">  1  9  2 -1</clus>
<clus scale="   91.448">  7  8 -1 -1</clus>
<clus scale="   92.499">  5  6 -1 -1</clus>
<clus scale="   98.807">  2  7  1 -1</clus>
<clus scale="   67.054">  1  5  2 -1</clus>
</clustering>
</event>
<event>
 9    1  0.9000149E-006  0.9185475E+02  0.7546771E-02  0.1299559E+00
         -4   -1    0    0    0  501 -0.00000000000E+00  0.00000000000E+00  0.51571125256E+02  0.51571125256E+02  0.00000000000E+00 0.  1.
          4   -1    0    0  502    0  0.00000000000E+00 -0.00000000000E+00 -0.24708014664E+03  0.24708014664E+03  0.00000000000E+00 0. -1.
         23    2    1    2    0    0  0.19715866334E+02  0.70675419067E+01 -0.41225713802E+02  0.10235745146E+03  0.91317155329E+02 0.  0.
         23    2    1    2    0    0  0.56088108167E+01 -0.10856780217E+02 -0.14112857593E+03  0.16750589650E+03  0.89395872287E+02 0.  0.
        -13    1    3    3    0    0  0.50832505797E+02 -0.91544360942E+01 -0.49507650616E+01  0.51886967733E+02  0.00000000000E+00 0. -1.
         13    1    3    3    0    0 -0.31116639463E+02  0.16221978001E+02 -0.36274948740E+02  0.50470483729E+02  0.00000000000E+00 0.  1.
        -13    1    4    4    0    0  0.33313947755E+02  0.13859649944E+02 -0.20950333063E+02  0.41723200584E+02  0.00000000000E+00 0.  1.
         13    1    4    4    0    0 -0.27705136938E+02 -0.24716430161E+02 -0.12017824287E+03  0.12578269591E+03  0.00000000000E+00 0. -1.
         21    1    1    2  502  501 -0.25324677150E+02  0.37892383106E+01 -0.13154731654E+02  0.28787923938E+02  0.00000000000E+00 0. -1.
<scales pt_clust_5="13000.00000" pt_clust_6="13000.00000" pt_clust_7="13000.00000" pt_clust_8="13000.00000" pt_clust_9="25.60659"></scales>
<clustering>
<clus scale="   25.607">  1  9  2 -1</clus>
<clus scale="   89.396">  7  8 -1 -1</clus>
<clus scale="   89.945">  2  7  1 -1</clus>
<clus scale="   91.317">  5  6 -1 -1</clus>
<clus scale="   89.945">  2  5  1 -1</clus>
</clustering>
</event>
<event>
 9    1  0.9000149E-006  0.1574791E+03  0.7546771E-02  0.1191688E+00
          1   -1    0    0  502    0  0.00000000000E+00  0.00000000000E+00  0.25953102801E+03  0.25953102801E+03  0.00000000000E+00 0. -1.
         -1   -1    0    0    0  501 -0.00000000000E+00 -0.00000000000E+00 -0.13469967347E+03  0.13469967347E+03  0.00000000000E+00 0.  1.
         23    2    1    2    0    0 -0.12845326325E+03  0.17638469056E+02 -0.22079341727E+02  0.15987005092E+03  0.90882228294E+02 0.  0.
         23    2    1    2    0    0  0.12739761844E+03  0.24437069047E+01  0.10576268422E+03  0.18856144672E+03  0.90186190324E+02 0.  0.
        -13    1    3    3    0    0 -0.31924237790E+02 -0.35680022822E+02 -0.10247119367E+02  0.48961458744E+02  0.00000000000E+00 0.  1.
         13    1    3    3    0    0 -0.96529025463E+02  0.53318491877E+02 -0.11832222360E+02  0.11090859218E+03  0.00000000000E+00 0. -1.
        -13    1    4    4    0    0  0.11085983942E+02  0.31147165194E+02  0.82081062868E+01  0.34064907873E+02  0.00000000000E+00 0.  1.
         13    1    4    4    0    0  0.11631163450E+03 -0.28703458290E+02  0.97554577938E+02  0.15449653884E+03  0.00000000000E+00 0. -1.
         21    1    1    2  502  501  0.10556448113E+01 -0.20082175960E+02  0.41148012045E+02  0.45799203842E+02  0.00000000000E+00 0. -1.
<scales pt_clust_5="13000.00000" pt_clust_6="13000.00000" pt_clust_7="13000.00000" pt_clust_8="13000.00000" pt_clust_9="20.10990"></scales>
<clustering>
<clus scale="   20.110">  1  9  2 -1</clus>
<clus scale="   90.186">  7  8 -1 -1</clus>
<clus scale="   90.882">  5  6 -1 -1</clus>
<clus scale="  157.078">  1  7  2 -1</clus>
<clus scale="   20.110">  1  5  2 -1</clus>
</clustering>
</event>
<event>
 9    1  0.9000149E-006  0.9542393E+02  0.7546771E-02  0.1290787E+00
          1   -1    0    0  502    0  0.00000000000E+00  0.00000000000E+00  0.24988551687E+03  0.24988551687E+03  0.00000000000E+00 0. -1.
         -1   -1    0    0    0  501 -0.00000000000E+00 -0.00000000000E+00 -0.15447841833E+03  0.15447841833E+03  0.00000000000E+00 0.  1.
         23    2    1    2    0    0 -0.27509996405E+02  0.62181984392E+01 -0.11417554888E+03  0.14938955453E+03  0.92117952361E+02 0.  0.
         23    2    1    2    0    0  0.30855710393E+01 -0.13238285620E+02  0.77183452005E+02  0.12015827953E+03  0.91082127342E+02 0.  0.
        -13    1    3    3    0    0 -0.59649791613E+02  0.16389916956E+02 -0.82633881908E+02  0.10322347338E+03  0.00000000000E+00 0.  1.
         13    1    3    3    0    0  0.32139795208E+02 -0.10171718517E+02 -0.31541666970E+02  0.46166081151E+02  0.00000000000E+00 0. -1.
        -13    1    4    4    0    0  0.10089212117E+02  0.32876563456E+02  0.57831844258E+01  0.34872709213E+02  0.00000000000E+00 0. -1.
         13    1    4    4    0    0 -0.70036410774E+01 -0.46114849075E+02  0.71400267579E+02  0.85285570315E+02  0.00000000000E+00 0.  1.
         21    1    1    2  502  501  0.24424425366E+02  0.70200871807E+01  0.13239919542E+03  0.13481610113E+03  0.00000000000E+00 0. -1.
<scales pt_clust_5="13000.00000" pt_clust_6="13000.00000" pt_clust_7="13000.00000" pt_clust_8="13000.00000" pt_clust_9="25.41327"></scales>
<clustering>
<clus scale="   25.413">  1  9  2 -1</clus>
<clus scale="   91.082">  7  8 -1 -1</clus>
<clus scale="   92.118">  5  6 -1 -1</clus>
<clus scale="   94.424">  1  7  2 -1</clus>
<clus scale="   25.413">  1  5  2 -1</clus>
</clustering>
</event>
<event>
 9    1  0.9000149E-006  0.1422119E+03  0.7546771E-02  0.1210876E+00
         -1   -1    0    0    0  501 -0.00000000000E+00  0.00000000000E+00  0.12452256185E+03  0.12452256185E+03  0.00000000000E+00 0.  1.
          1   -1    0    0  502    0  0.00000000000E+00 -0.00000000000E+00 -0.37545755090E+03  0.37545755090E+03  0.00000000000E+00 0. -1.
         23    2    1    2    0    0  0.32866987170E+02 -0.84584945168E+02 -0.16019550703E+02  0.13043252495E+03  0.92310160685E+02 0.  0.
         23    2    1    2    0    0  0.23448590648E+02  0.16254934004E+03 -0.13498228947E+03  0.23085178607E+03  0.90001135059E+02 0.  0.
        -13    1    4    4    0    0 -0.29499316959E+02  0.57545687776E+02 -0.74369745363E+02  0.98552396765E+02  0.00000000000E+00 0. -1.
         13    1    4    4    0    0  0.52947907606E+02  0.10500365226E+03 -0.60612544110E+02  0.13229938931E+03  0.00000000000E+00 0.  1.
        -13    1    3    3    0    0  0.12718229495E+02 -0.91263136840E+02  0.14477591886E+02  0.93275474666E+02  0.00000000000E+00 0.  1.
         13    1    3    3    0    0  0.20148757675E+02  0.66781916718E+01 -0.30497142588E+02  0.37157050285E+02  0.00000000000E+00 0. -1.
         21    1    1    2  502  501 -0.56315577818E+02 -0.77964394867E+02 -0.99933148871E+02  0.13869580172E+03  0.00000000000E+00 0. -1.
<scales pt_clust_5="13000.00000" pt_clust_6="13000.00000" pt_clust_7="13000.00000" pt_clust_8="13000.00000" pt_clust_9="96.17635"></scales>
<clustering>
<clus scale="   90.001">  5  6 -1 -1</clus>
<clus scale="   92.310">  7  8 -1 -1</clus>
<clus scale="   96.176">  2  9  1 -1</clus>
<clus scale="  140.724">  2  5  1 -1</clus>
<clus scale="   96.176">  2  5  1 -1</clus>
</clustering>
</event>
<event>
 9    1  0.9000149E-006  0.1180867E+03  0.7546771E-02  0.1248868E+00
         -2   -1    0    0    0  501 -0.00000000000E+00  0.00000000000E+00  0.76659683127E+02  0.76659683127E+02  0.00000000000E+00 0.  1.
          2   -1    0    0  502    0  0.00000000000E+00 -0.00000000000E+00 -0.49028347686E+03  0.49028347686E+03  0.00000000000E+00 0. -1.
         23    2    1    2    0    0  0.60259584300E+02  0.28034289679E+02 -0.41720270317E+02  0.11992886364E+03  0.90692957172E+02 0.  0.
         23    2    1    2    0    0 -0.29784551222E+02 -0.70131745281E+02 -0.73749624892E+02  0.14436487769E+03  0.97962388448E+02 0.  0.
        -11    1    4    4    0    0 -0.11511280495E+02 -0.92900927288E+02 -0.64718341205E+02  0.11380490129E+03  0.00000000000E+00 0.  1.
         11    1    4    4    0    0 -0.18273270727E+02  0.22769182007E+02 -0.90312836862E+01  0.30559976396E+02  0.00000000000E+00 0. -1.
        -13    1    3    3    0    0  0.56906256620E+02 -0.10252529784E+02  0.65885833079E+01  0.58196613643E+02  0.00000000000E+00 0.  1.
         13    1    3    3    0    0  0.33533276804E+01  0.38286819463E+02 -0.48308853625E+02  0.61732249997E+02  0.00000000000E+00 0. -1.
         21    1    1    2  502  501 -0.30475033079E+02  0.42097455602E+02 -0.29815389852E+03  0.30264941866E+03  0.00000000000E+00 0. -1.
<scales pt_clust_5="13000.00000" pt_clust_6="13000.00000" pt_clust_7="13000.00000" pt_clust_8="13000.00000" pt_clust_9="51.97041"></scales>
<clustering>
<clus scale="   51.970">  2  9  1 -1</clus>
<clus scale="   90.693">  7  8 -1 -1</clus>
<clus scale="   97.962">  5  6 -1 -1</clus>
<clus scale="  112.130">  1  7  2 -1</clus>
<clus scale="   51.970">  2  5  1 -1</clus>
</clustering>
</event>
<event>
 9    1  0.9000149E-006  0.3076567E+03  0.7546771E-02  0.1081707E+00
         -1   -1    0    0    0  501 -0.00000000000E+00  0.00000000000E+00  0.10680415667E+03  0.10680415667E+03  0.00000000000E+00 0.  1.
          1   -1    0    0  502    0  0.00000000000E+00 -0.00000000000E+00 -0.10808552234E+04  0.10808552234E+04  0.00000000000E+00 0. -1.
         23    2    1    2    0    0 -0.18885315504E+03  0.22171813157E+03 -0.31354021641E+03  0.43728408640E+03  0.89919190810E+02 0.  0.
         23    2    1    2    0    0  0.22603456932E+03 -0.19890092961E+03 -0.58511449952E+03  0.66326793470E+03  0.83139457124E+02 0.  0.
        -11    1    4    4    0    0  0.15009824664E+03 -0.17924910204E+03 -0.44606262469E+03  0.50361849586E+03  0.00000000000E+00 0. -1.
         11    1    4    4    0    0  0.75936322687E+02 -0.19651827565E+02 -0.13905187483E+03  0.15964943885E+03  0.00000000000E+00 0.  1.
        -13    1    3    3    0    0 -0.18780321126E+02  0.74917664383E+01 -0.63685015402E+02  0.66817723791E+02  0.00000000000E+00 0. -1.
         13    1    3    3    0    0 -0.17007283391E+03  0.21422636513E+03 -0.24985520101E+03  0.37046636261E+03  0.00000000000E+00 0.  1.
         21    1    1    2  502  501 -0.37181414288E+02 -0.22817201957E+02 -0.75396350771E+02  0.87107358950E+02  0.00000000000E+00 0. -1.
<scales pt_clust_5="13000.00000" pt_clust_6="13000.00000" pt_clust_7="13000.00000" pt_clust_8="13000.00000" pt_clust_9="43.62433"></scales>
<clustering>
<clus scale="   43.624">  2  9  1 -1</clus>
<clus scale="   83.139">  5  6 -1 -1</clus>
<clus scale="   89.919">  7  8 -1 -1</clus>
<clus scale="  305.744">  2  5  1 -1</clus>
<clus scale="   43.624">  2  5  1 -1</clus>
</clustering>
</event>
<event>
 9    1  0.9000149E-006  0.1719041E+03  0.7546771E-02  0.1176118E+00
          1   -1    0    0  502    0  0.00000000000E+00  0.00000000000E+00  0.59098015023E+02  0.59098015023E+02  0.00000000000E+00 0. -1.
         -1   -1    0    0    0  501 -0.00000000000E+00 -0.00000000000E+00 -0.10113594866E+04  0.10113594866E+04  0.00000000000E+00 0.  1.
         23    2    1    2    0    0 -0.85592521562E+02  0.10689429938E+03 -0.59825550875E+03  0.62060803247E+03  0.92153161815E+02 0.  0.
         23    2    1    2    0    0  0.10306837810E+03 -0.12348009224E+03 -0.37497567847E+03  0.41790853840E+03  0.90390061837E+02 0.  0.
        -11    1    3    3    0    0 -0.49284048289E+02 -0.23115492941E+01 -0.20543985202E+03  0.21128131360E+03  0.00000000000E+00 0. -1.
         11    1    3    3    0    0 -0.36308473272E+02  0.10920584867E+03 -0.39281565672E+03  0.40932671887E+03  0.00000000000E+00 0.  1.
        -11    1    4    4    0    0  0.40606274831E+02 -0.93906634583E+02 -0.29485219947E+03  0.31209797357E+03  0.00000000000E+00 0.  1.
         11    1    4    4    0    0  0.62462103265E+02 -0.29573457662E+02 -0.80123478999E+02  0.10581056483E+03  0.00000000000E+00 0. -1.
         21    1    1    2  502  501 -0.17475856534E+02  0.16585792868E+02  0.20969715609E+02  0.31940930785E+02  0.00000000000E+00 0. -1.
<scales pt_clust_5="13000.00000" pt_clust_6="13000.00000" pt_clust_7="13000.00000" pt_clust_8="13000.00000" pt_clust_9="24.09344"></scales>
<clustering>
<clus scale="   24.093">  1  9  2 -1</clus>
<clus scale="   90.390">  7  8 -1 -1</clus>
<clus scale="   92.153">  5  6 -1 -1</clus>
<clus scale="  170.965">  1  7  2 -1</clus>
<clus scale="   24.093">  1  5  2 -1</clus>
</clustering>
</event>
<event>
 9    1  0.9000149E-006  0.1030878E+03  0.7546771E-02  0.1277917E+00
          1   -1    0    0  502    0  0.00000000000E+00  0.00000000000E+00  0.15835965096E+03  0.15835965096E+03  0.00000000000E+00 0. -1.
         -1   -1    0    0    0  501 -0.00000000000E+00 -0.00000000000E+00 -0.19906689278E+03  0.19906689278E+03  0.00000000000E+00 0.  1.
         23    2    1    2    0    0 -0.48693446793E+02  0.70437429121E+01 -0.14858968511E+03  0.17594943272E+03  0.80365678480E+02 0.  0.
         23    2    1    2    0    0  0.74242423721E+02 -0.68948019389E+01  0.10325615151E+03  0.15551223126E+03  0.89234216943E+02 0.  0.
        -13    1    3    3    0    0 -0.17871114376E+02  0.34156530200E+02 -0.11969527490E+03  0.12574976786E+03  0.00000000000E+00 0.  1.
         13    1    3    3    0    0 -0.30822332417E+02 -0.27112787287E+02 -0.28894410213E+02  0.50199664856E+02  0.00000000000E+00 0. -1.
        -13    1    4    4    0    0  0.45062593664E+02  0.22046490329E+02  0.10282692166E+03  0.11441180403E+03  0.00000000000E+00 0. -1.
         13    1    4    4    0    0  0.29179830057E+02 -0.28941292268E+02  0.42922985066E+00  0.41100427231E+02  0.00000000000E+00 0.  1.
         21    1    1    2  502  501 -0.25548976928E+02 -0.14894097320E+00  0.46262917827E+01  0.25964879764E+02  0.00000000000E+00 0.  1.
<scales pt_clust_5="13000.00000" pt_clust_6="13000.00000" pt_clust_7="13000.00000" pt_clust_8="13000.00000" pt_clust_9="25.54941"></scales>
<clustering>
<clus scale="   25.549">  1  9  2 -1</clus>
<clus scale="   80.366">  5  6 -1 -1</clus>
<clus scale="   89.234">  7  8 -1 -1</clus>
<clus scale="   95.514">  2  5  1 -1</clus>
<clus scale="   25.549">  1  5  2 -1</clus>
</clustering>
</event>
<event>
 9    1  0.9000149E-006  0.1013958E+03  0.7546771E-02  0.1279323E+00
         -1   -1    0    0    0  501 -0.00000000000E+00  0.00000000000E+00  0.14469045486E+03  0.14469045486E+03  0.00000000000E+00 0.  1.
          1   -1    0    0  502    0  0.00000000000E+00 -0.00000000000E+00 -0.13687000603E+03  0.13687000603E+03  0.00000000000E+00 0. -1.
         23    2    1    2    0    0  0.29596085584E+02  0.29794880638E+02  0.65830082791E+02  0.11773339896E+03  0.88112940229E+02 0.  0.
         23    2    1    2    0    0  0.50239797394E+01 -0.57142731671E+02 -0.34995902271E+02  0.11406677933E+03  0.92173666602E+02 0.  0.
        -13    1    4    4    0    0  0.26373896457E+02 -0.64587547268E+01 -0.50142065064E+02  0.57022141453E+02  0.00000000000E+00 0. -1.
         13    1    4    4    0    0 -0.21349916718E+02 -0.50683976945E+02  0.15146162793E+02  0.57044637874E+02  0.00000000000E+00 0.  1.
        -13    1    3    3    0    0 -0.28189583149E+02  0.26610048150E+02  0.18415222023E+02  0.42916985714E+02  0.00000000000E+00 0.  1.
         13    1    3    3    0    0  0.57785668733E+02  0.31848324881E+01  0.47414860769E+02  0.74816413243E+02  0.00000000000E+00 0. -1.
         21    1    1    2  502  501 -0.34620065323E+02  0.27347851033E+02 -0.23013731691E+02  0.49760282611E+02  0.00000000000E+00 0. -1.
<scales pt_clust_5="13000.00000" pt_clust_6="13000.00000" pt_clust_7="13000.00000" pt_clust_8="13000.00000" pt_clust_9="44.11863"></scales>
<clustering>
<clus scale="   44.119">  2  9  1 -1</clus>
<clus scale="   88.113">  7  8 -1 -1</clus>
<clus scale="   92.174">  5  6 -1 -1</clus>
<clus scale="   97.719">  1  7  2 -1</clus>
<clus scale="   44.119">  2  5  1 -1</clus>
</clustering>
</event>
<event>
 9    1  0.9000149E-006  0.9735676E+02  0.7546771E-02  0.1292882E+00
         -2   -1    0    0    0  501 -0.00000000000E+00  0.00000000000E+00  0.35022872868E+02  0.35022872868E+02  0.00000000000E+00 0.  1.
          2   -1    0    0  502    0  0.00000000000E+00 -0.00000000000E+00 -0.40117741908E+03  0.40117741908E+03  0.00000000000E+00 0. -1.
         23    2    1    2    0    0  0.32273939657E+02 -0.25636583038E+02 -0.77504622106E+02  0.12479554242E+03  0.88702420422E+02 0.  0.
         23    2    1    2    0    0 -0.16299318442E+02  0.38092234101E+02 -0.16516277360E+03  0.18626719280E+03  0.75498604271E+02 0.  0.
        -11    1    3    3    0    0 -0.19154770438E+02 -0.19574416861E+02 -0.66410059119E+02  0.71835638635E+02  0.00000000000E+00 0. -1.
         11    1    3    3    0    0  0.51428710095E+02 -0.60621661772E+01 -0.11094562988E+02  0.52959903782E+02  0.00000000000E+00 0.  1.
        -13    1    4    4    0    0 -0.10893160148E+02 -0.19508183794E+02 -0.19949036476E+02  0.29953200652E+02  0.00000000000E+00 0.  1.
         13    1    4    4    0    0 -0.54061582946E+01  0.57600417895E+02 -0.14521373713E+03  0.15631399214E+03  0.00000000000E+00 0. -1.
         21    1    1    2  502  501 -0.15974621214E+02 -0.12455651062E+02 -0.12348715051E+03  0.12513755674E+03  0.00000000000E+00 0. -1.
<scales pt_clust_5="13000.00000" pt_clust_6="13000.00000" pt_clust_7="13000.00000" pt_clust_8="13000.00000" pt_clust_9="20.25665"></scales>
<clustering>
<clus scale="   20.257">  2  9  1 -1</clus>
<clus scale="   75.499">  7  8 -1 -1</clus>
<clus scale="   85.500">  2  7  1 -1</clus>
<clus scale="   88.702">  5  6 -1 -1</clus>
<clus scale="   20.257">  2  5  1 -1</clus>
</clustering>
</event>
<event>
 9    1  0.9000149E-006  0.9927676E+02  0.7546771E-02  0.1282243E+00
         -1   -1    0    0    0  501 -0.00000000000E+00  0.00000000000E+00  0.61158185891E+02  0.61158185891E+02  0.00000000000E+00 0.  1.
          1   -1    0    0  502    0  0.00000000000E+00 -0.00000000000E+00 -0.56612884658E+03  0.56612884658E+03  0.00000000000E+00 0. -1.
         23    2    1    2    0    0 -0.29411868838E+01  0.29963370068E+02 -0.14638324156E+02  0.96163057389E+02  0.90147650808E+02 0.  0.
         23    2    1    2    0    0 -0.33332400168E+02 -0.88140084505E+02 -0.26532891040E+03  0.29590738343E+03  0.91005634287E+02 0.  0.
        -11    1    3    3    0    0 -0.41871206535E+02 -0.48435565145E+01 -0.87949680491E+00  0.42159595480E+02  0.00000000000E+00 0.  1.
         11    1    3    3    0    0  0.38930019651E+02  0.34806926582E+02 -0.13758827351E+02  0.54003461910E+02  0.00000000000E+00 0. -1.
        -13    1    4    4    0    0 -0.56292531453E+02 -0.38161983373E+02 -0.94392442028E+02  0.11634053113E+03  0.00000000000E+00 0.  1.
         13    1    4    4    0    0  0.22960131284E+02 -0.49978101131E+02 -0.17093646838E+03  0.17956685229E+03  0.00000000000E+00 0. -1.
         21    1    1    2  502  501  0.36273587052E+02  0.58176714437E+02 -0.22500342613E+03  0.23521659166E+03  0.00000000000E+00 0. -1.
<scales pt_clust_5="13000.00000" pt_clust_6="13000.00000" pt_clust_7="13000.00000" pt_clust_8="13000.00000" pt_clust_9="68.55876"></scales>
<clustering>
<clus scale="   68.559">  2  9  1 -1</clus>
<clus scale="   90.148">  5  6 -1 -1</clus>
<clus scale="   91.006">  7  8 -1 -1</clus>
<clus scale="   98.491">  1  5  2 -1</clus>
<clus scale="   68.559">  2  5  1 -1</clus>
</clustering>
</event>
<event>
 9    1  0.9000149E-006  0.9435000E+02  0.7546771E-02  0.1292843E+00
         -1   -1    0    0    0  501 -0.00000000000E+00  0.00000000000E+00  0.72031586359E+02  0.72031586359E+02  0.00000000000E+00 0.  1.
          1   -1    0    0  502    0  0.00000000000E+00 -0.00000000000E+00 -0.29978853643E+03  0.29978853643E+03  0.00000000000E+00 0. -1.
         23    2    1    2    0    0 -0.61006839940E+01  0.14067142796E+02  0.10137934005E+02  0.93878764296E+02  0.92061619735E+02 0.  0.
         23    2    1    2    0    0 -0.88055667368E+01 -0.49772212103E+02 -0.18170670271E+03  0.20971995415E+03  0.91707809134E+02 0.  0.
        -11    1    3    3    0    0  0.41711616819E+02 -0.41923973974E+01  0.13069832974E+01  0.41942143232E+02  0.00000000000E+00 0. -1.
         11    1    3    3    0    0 -0.47812300813E+02  0.18259540194E+02  0.88309507080E+01  0.51936621064E+02  0.00000000000E+00 0.  1.
        -13    1    4    4    0    0  0.31807911725E+02 -0.39538487067E+02 -0.14638582273E+03  0.15493174079E+03  0.00000000000E+00 0. -1.
         13    1    4    4    0    0 -0.40613478462E+02 -0.10233725036E+02 -0.35320879985E+02  0.54788213366E+02  0.00000000000E+00 0.  1.
         21    1    1    2  502  501  0.14906250731E+02  0.35705069307E+02 -0.56188181363E+02  0.68221404339E+02  0.00000000000E+00 0. -1.
<scales pt_clust_5="13000.00000" pt_clust_6="13000.00000" pt_clust_7="13000.00000" pt_clust_8="13000.00000" pt_clust_9="38.69171"></scales>
<clustering>
<clus scale="   38.692">  2  9  1 -1</clus>
<clus scale="   91.708">  7  8 -1 -1</clus>
<clus scale="   92.062">  5  6 -1 -1</clus>
<clus scale="   94.005">  2  7  1 -1</clus>
<clus scale="   38.692">  2  5  1 -1</clus>
</clustering>
</event>
<event>
 9    1  0.9000149E-006  0.1022635E+03  0.7546771E-02  0.1276445E+00
          2   -1    0    0  502    0  0.00000000000E+00  0.00000000000E+00  0.99800603245E+02  0.99800603245E+02  0.00000000000E+00 0. -1.
         -2   -1    0    0    0  501 -0.00000000000E+00 -0.00000000000E+00 -0.15020833910E+03  0.15020833910E+03  0.00000000000E+00 0.  1.
         23    2    1    2    0    0  0.37554257280E+02  0.49124552213E+01 -0.45978622813E+02  0.10716145399E+03  0.89079116576E+02 0.  0.
         23    2    1    2    0    0 -0.42363074180E+02 -0.34531219531E+02  0.14952193161E+02  0.10712591295E+03  0.90914014144E+02 0.  0.
        -11    1    3    3    0    0  0.58121529108E+02  0.29138994678E+02 -0.30856176228E+02  0.71967331256E+02  0.00000000000E+00 0.  1.
         11    1    3    3    0    0 -0.20567271828E+02 -0.24226539457E+02 -0.15122446586E+02  0.35194122737E+02  0.00000000000E+00 0. -1.
        -13    1    4    4    0    0  0.27888396313E+02 -0.25213775058E+01  0.10118991392E+02  0.29774384633E+02  0.00000000000E+00 0.  1.
         13    1    4    4    0    0 -0.70251470493E+02 -0.32009842026E+02  0.48332017695E+01  0.77351528313E+02  0.00000000000E+00 0. -1.
         21    1    1    2  502  501  0.48088169005E+01  0.29618764310E+02 -0.19381306200E+02  0.35721575403E+02  0.00000000000E+00 0. -1.
<scales pt_clust_5="13000.00000" pt_clust_6="13000.00000" pt_clust_7="13000.00000" pt_clust_8="13000.00000" pt_clust_9="30.00660"></scales>
<clustering>
<clus scale="   30.007">  2  9  1 -1</clus>
<clus scale="   89.079">  5  6 -1 -1</clus>
<clus scale="   90.914">  7  8 -1 -1</clus>
<clus scale="  100.636">  2  5  1 -1</clus>
<clus scale="  102.264">  1  5  2 -1</clus>
</clustering>
</event>
<event>
 9    1  0.9000149E-006  0.1061375E+03  0.7546771E-02  0.1271210E+00
          1   -1    0    0  502    0  0.00000000000E+00  0.00000000000E+00  0.16304032654E+03  0.16304032654E+03  0.00000000000E+00 0. -1.
         -1   -1    0    0    0  501 -0.00000000000E+00 -0.00000000000E+00 -0.13235396062E+03  0.13235396062E+03  0.00000000000E+00 0.  1.
         23    2    1    2    0    0 -0.54245256558E+02 -0.20593237387E+02 -0.60066696826E+02  0.11894089694E+03  0.84689430346E+02 0.  0.
         23    2    1    2    0    0  0.14956690041E+02  0.44938350617E+02  0.73234624893E+02  0.12702494029E+03  0.92351866465E+02 0.  0.
        -11    1    4    4    0    0  0.33081640579E+02  0.29990749501E+02 -0.53795885303E+01  0.44975326256E+02  0.00000000000E+00 0.  1.
         11    1    4    4    0    0 -0.18124950538E+02  0.14947601115E+02  0.78614213423E+02  0.82049614035E+02  0.00000000000E+00 0. -1.
        -13    1    3    3    0    0  0.86742683969E+01  0.19028328858E+02  0.33943639597E+01  0.21185890070E+02  0.00000000000E+00 0. -1.
         13    1    3    3    0    0 -0.62919524955E+02 -0.39621566245E+02 -0.63461060786E+02  0.97755006871E+02  0.00000000000E+00 0.  1.
         21    1    1    2  502  501  0.39288566517E+02 -0.24345113230E+02  0.17518437850E+02  0.49428449924E+02  0.00000000000E+00 0. -1.
<scales pt_clust_5="13000.00000" pt_clust_6="13000.00000" pt_clust_7="13000.00000" pt_clust_8="13000.00000" pt_clust_9="46.21987"></scales>
<clustering>
<clus scale="   46.220">  1  9  2 -1</clus>
<clus scale="   84.689">  7  8 -1 -1</clus>
<clus scale="   92.352">  5  6 -1 -1</clus>
<clus scale="   99.542">  2  7  1 -1</clus>
<clus scale="   46.220">  1  5  2 -1</clus>
</clustering>
</event>
<event>
 9    1  0.9000149E-006  0.1034383E+03  0.7546771E-02  0.1276878E+00
         -2   -1    0    0    0  501 -0.00000000000E+00  0.00000000000E+00  0.29486601966E+02  0.29486601966E+02  0.00000000000E+00 0.  1.
          2   -1    0    0  502    0  0.00000000000E+00 -0.00000000000E+00 -0.43882707831E+03  0.43882707831E+03  0.00000000000E+00 0. -1.
         23    2    1    2    0    0  0.38546282983E+02  0.13859064546E+02 -0.14281124892E+03  0.17817914581E+03  0.98360894564E+02 0.  0.
         23    2    1    2    0    0 -0.18093774260E+02 -0.82150451255E+01 -0.20855147919E+03  0.22839654489E+03  0.90974670151E+02 0.  0.
        -11    1    3    3    0    0  0.17017120979E+02  0.37578397374E+02 -0.11227575650E+02  0.42752506483E+02  0.00000000000E+00 0.  1.
         11    1    3    3    0    0  0.21529162004E+02 -0.23719332827E+02 -0.13158367327E+03  0.13542663932E+03  0.00000000000E+00 0. -1.
        -13    1    4    4    0    0 -0.12006763932E+02 -0.41201422639E+02 -0.48037716311E+02  0.64415384777E+02  0.00000000000E+00 0. -1.
         13    1    4    4    0    0 -0.60870103277E+01  0.32986377514E+02 -0.16051376288E+03  0.16398116011E+03  0.00000000000E+00 0.  1.
         21    1    1    2  502  501 -0.20452508723E+02 -0.56440194209E+01 -0.57977748226E+02  0.61737989582E+02  0.00000000000E+00 0.  1.
<scales pt_clust_5="13000.00000" pt_clust_6="13000.00000" pt_clust_7="13000.00000" pt_clust_8="13000.00000" pt_clust_9="21.21698"></scales>
<clustering>
<clus scale="   21.217">  2  9  1 -1</clus>
<clus scale="   90.975">  7  8 -1 -1</clus>
<clus scale="   96.442">  2  7  1 -1</clus>
<clus scale="   98.361">  5  6 -1 -1</clus>
<clus scale="   21.217">  2  5  1 -1</clus>
</clustering>
</event>
<event>
 9    1  0.9000149E-006  0.1033262E+03  0.7546771E-02  0.1274329E+00
         -1   -1    0    0    0  501 -0.00000000000E+00  0.00000000000E+00  0.17575072812E+03  0.17575072812E+03  0.00000000000E+00 0.  1.
          1   -1    0    0  502    0  0.00000000000E+00 -0.00000000000E+00 -0.99757946284E+02  0.99757946284E+02  0.00000000000E+00 0. -1.
         23    2    1    2    0    0  0.48002164464E+02 -0.47228982645E+01  0.67662426055E+02  0.12265618370E+03  0.90220961751E+02 0.  0.
         23    2    1    2    0    0 -0.41194910055E+02 -0.36512179865E+02  0.20578925600E+02  0.10930139608E+03  0.92158250376E+02 0.  0.
        -11    1    3    3    0    0 -0.22270072379E+02  0.10807580165E+02  0.36797791740E+02  0.44349040460E+02  0.00000000000E+00 0.  1.
         11    1    3    3    0    0  0.70272236843E+02 -0.15530478430E+02  0.30864634315E+02  0.78307143241E+02  0.00000000000E+00 0. -1.
        -11    1    4    4    0    0 -0.61686982587E+02 -0.26583126466E+02  0.41016538502E+02  0.78703893577E+02  0.00000000000E+00 0.  1.
         11    1    4    4    0    0  0.20492072532E+02 -0.99290533987E+01 -0.20437612902E+02  0.30597502499E+02  0.00000000000E+00 0. -1.
         21    1    1    2  502  501 -0.68072544084E+01  0.41235078129E+02 -0.12248569817E+02  0.43551094630E+02  0.00000000000E+00 0. -1.
<scales pt_clust_5="13000.00000" pt_clust_6="13000.00000" pt_clust_7="13000.00000" pt_clust_8="13000.00000" pt_clust_9="41.79319"></scales>
<clustering>
<clus scale="   41.793">  2  9  1 -1</clus>
<clus scale="   90.221">  5  6 -1 -1</clus>
<clus scale="   92.158">  7  8 -1 -1</clus>
<clus scale="  101.602">  1  5  2 -1</clus>
<clus scale="   41.793">  2  5  1 -1</clus>
</clustering>
</event>
<event>
 9    1  0.9000149E-006  0.1086448E+03  0.7546771E-02  0.1267094E+00
         -1   -1    0    0    0  501 -0.00000000000E+00  0.00000000000E+00  0.96388509970E+02  0.96388509970E+02  0.00000000000E+00 0.  1.
          1   -1    0    0  502    0  0.00000000000E+00 -0.00000000000E+00 -0.23041704954E+03  0.23041704954E+03  0.00000000000E+00 0. -1.
         23    2    1    2    0    0  0.63625224047E+01 -0.64535415841E+02  0.37015685999E+02  0.11107780345E+03  0.82236341231E+02 0.  0.
         23    2    1    2    0    0 -0.11733192424E+01  0.32795201431E+02 -0.11298764537E+03  0.14935806762E+03  0.92003926226E+02 0.  0.
        -13    1    4    4    0    0  0.37784561632E+02  0.33291210931E+02 -0.32496464971E+02  0.59933280059E+02  0.00000000000E+00 0.  1.
         13    1    4    4    0    0 -0.38957880874E+02 -0.49600950049E+00 -0.80491180402E+02  0.89424787560E+02  0.00000000000E+00 0. -1.
        -13    1    3    3    0    0 -0.21346770561E+02 -0.48708174279E+00  0.35319160552E+02  0.41271842267E+02  0.00000000000E+00 0. -1.
         13    1    3    3    0    0  0.27709292965E+02 -0.64048334099E+02  0.16965254464E+01  0.69805961178E+02  0.00000000000E+00 0.  1.
         21    1    1    2  502  501 -0.51892031623E+01  0.31740214410E+02 -0.58056580195E+02  0.66369688445E+02  0.00000000000E+00 0. -1.
<scales pt_clust_5="13000.00000" pt_clust_6="13000.00000" pt_clust_7="13000.00000" pt_clust_8="13000.00000" pt_clust_9="32.16161"></scales>
<clustering>
<clus scale="   32.162">  2  9  1 -1</clus>
<clus scale="   82.236">  7  8 -1 -1</clus>
<clus scale="   92.004">  5  6 -1 -1</clus>
<clus scale="  100.508">  1  7  2 -1</clus>
<clus scale="   32.162">  2  5  1 -1</clus>
</clustering>
</event>
<event>
 9    1  0.9000149E-006  0.1562095E+03  0.7546771E-02  0.1193831E+00
         -4   -1    0    0    0  501 -0.00000000000E+00  0.00000000000E+00  0.29805583163E+03  0.29805583163E+03  0.00000000000E+00 0.  1.
          4   -1    0    0  502    0  0.00000000000E+00 -0.00000000000E+00 -0.26969274265E+03  0.26969274265E+03  0.00000000000E+00 0. -1.
         23    2    1    2    0    0  0.72802250676E+02 -0.99835441577E+02  0.22904386014E+03  0.27467746394E+03  0.87859753188E+02 0.  0.
         23    2    1    2    0    0 -0.70209269256E+02  0.13275205700E+03 -0.18781270538E+03  0.25763364090E+03  0.92460967397E+02 0.  0.
        -11    1    3    3    0    0  0.39403259533E+01 -0.43821438820E+02  0.14827214877E+03  0.15466245430E+03  0.00000000000E+00 0. -1.
         11    1    3    3    0    0  0.68861924722E+02 -0.56014002757E+02  0.80771711367E+02  0.12001500964E+03  0.00000000000E+00 0.  1.
        -11    1    4    4    0    0 -0.44665855639E+01  0.10261395167E+03 -0.94450599533E+02  0.13953669487E+03  0.00000000000E+00 0.  1.
         11    1    4    4    0    0 -0.65742683692E+02  0.30138105332E+02 -0.93362105847E+02  0.11809694602E+03  0.00000000000E+00 0. -1.
         21    1    1    2  502  501 -0.25929814200E+01 -0.32916615427E+02 -0.12868065781E+02  0.35437469446E+02  0.00000000000E+00 0. -1.
<scales pt_clust_5="13000.00000" pt_clust_6="13000.00000" pt_clust_7="13000.00000" pt_clust_8="13000.00000" pt_clust_9="33.01859"></scales>
<clustering>
<clus scale="   33.019">  2  9  1 -1</clus>
<clus scale="   87.860">  5  6 -1 -1</clus>
<clus scale="   92.461">  7  8 -1 -1</clus>
<clus scale="  153.531">  1  5  2 -1</clus>
<clus scale="   33.019">  2  5  1 -1</clus>
</clustering>
</event>
<event>
 9    1  0.9000149E-006  0.9893815E+02  0.7546771E-02  0.1284539E+00
         -1   -1    0    0    0  501 -0.00000000000E+00  0.00000000000E+00  0.52225584014E+03  0.52225584014E+03  0.00000000000E+00 0.  1.
          1   -1    0    0  502    0  0.00000000000E+00 -0.00000000000E+00 -0.26487036753E+02  0.26487036753E+02  0.00000000000E+00 0. -1.
         23    2    1    2    0    0 -0.15902137773E+02 -0.13051666218E+02  0.27571847354E+03  0.29087833428E+03  0.90367608845E+02 0.  0.
         23    2    1    2    0    0  0.39031620701E+02  0.29275644939E+02  0.17718178805E+03  0.20652350306E+03  0.94223354317E+02 0.  0.
        -13    1    3    3    0    0 -0.40655535812E+02 -0.39264788806E+02  0.16150610050E+03  0.17111053951E+03  0.00000000000E+00 0. -1.
         13    1    3    3    0    0  0.24753398039E+02  0.26213122588E+02  0.11421237303E+03  0.11976779477E+03  0.00000000000E+00 0.  1.
        -13    1    4    4    0    0  0.30983175296E+02  0.63518912093E+02  0.12493062275E+03  0.14353490811E+03  0.00000000000E+00 0.  1.
         13    1    4    4    0    0  0.80484454046E+01 -0.34243267154E+02  0.52251165296E+02  0.62988594949E+02  0.00000000000E+00 0. -1.
         21    1    1    2  502  501 -0.23129482928E+02 -0.16223978720E+02  0.42868541800E+02  0.51341039550E+02  0.00000000000E+00 0. -1.
<scales pt_clust_5="13000.00000" pt_clust_6="13000.00000" pt_clust_7="13000.00000" pt_clust_8="13000.00000" pt_clust_9="28.25226"></scales>
<clustering>
<clus scale="   28.252">  2  9  1 -1</clus>
<clus scale="   90.368">  5  6 -1 -1</clus>
<clus scale="   94.223">  7  8 -1 -1</clus>
<clus scale="   95.273">  1  5  2 -1</clus>
<clus scale="   28.252">  2  5  1 -1</clus>
</clustering>
</event>
<event>
 9    1  0.9000149E-006  0.9401092E+02  0.7546771E-02  0.1294057E+00
         -2   -1    0    0    0  501 -0.00000000000E+00  0.00000000000E+00  0.10784894622E+03  0.10784894622E+03  0.00000000000E+00 0.  1.
          2   -1    0    0  502    0  0.00000000000E+00 -0.00000000000E+00 -0.33060768380E+03  0.33060768380E+03  0.00000000000E+00 0. -1.
         23    2    1    2    0    0 -0.92393395524E+01 -0.10188578908E+02  0.71874315881E+02  0.11716690638E+03  0.91504066206E+02 0.  0.
         23    2    1    2    0    0  0.26778373359E+02  0.26091824927E+02 -0.19764391969E+03  0.22145274147E+03  0.92630087473E+02 0.  0.
        -11    1    3    3    0    0 -0.45038038258E+01 -0.50233920954E+02  0.51131148178E+02  0.71820090347E+02  0.00000000000E+00 0.  1.
         11    1    3    3    0    0 -0.47355357265E+01  0.40045342047E+02  0.20743167702E+02  0.45346816036E+02  0.00000000000E+00 0. -1.
        -13    1    4    4    0    0  0.52679407162E+02  0.42802108237E+02 -0.11920677873E+03  0.13717651586E+03  0.00000000000E+00 0. -1.
         13    1    4    4    0    0 -0.25901033804E+02 -0.16710283310E+02 -0.78437140967E+02  0.84276225612E+02  0.00000000000E+00 0.  1.
         21    1    1    2  502  501 -0.17539033806E+02 -0.15903246020E+02 -0.96989133767E+02  0.99836982174E+02  0.00000000000E+00 0. -1.
<scales pt_clust_5="13000.00000" pt_clust_6="13000.00000" pt_clust_7="13000.00000" pt_clust_8="13000.00000" pt_clust_9="23.67553"></scales>
<clustering>
<clus scale="   23.676">  2  9  1 -1</clus>
<clus scale="   91.504">  5  6 -1 -1</clus>
<clus scale="   92.630">  7  8 -1 -1</clus>
<clus scale="   92.902">  1  5  2 -1</clus>
<clus scale="   23.676">  2  5  1 -1</clus>
</clustering>
</event>
<event>
 9    1  0.9000149E-006  0.9734123E+02  0.7546771E-02  0.1285991E+00
         -1   -1    0    0    0  501 -0.00000000000E+00  0.00000000000E+00  0.19035789411E+02  0.19035789411E+02  0.00000000000E+00 0.  1.
          1   -1    0    0  502    0  0.00000000000E+00 -0.00000000000E+00 -0.75452226250E+03  0.75452226250E+03  0.00000000000E+00 0. -1.
         23    2    1    2    0    0  0.44951582581E+02  0.11033684392E+02 -0.19577607039E+03  0.22043667158E+03  0.90120305542E+02 0.  0.
         23    2    1    2    0    0 -0.17380887237E+02 -0.91583860765E+01 -0.37982308297E+03  0.39086351459E+03  0.90126252581E+02 0.  0.
        -13    1    4    4    0    0 -0.38835504800E+02 -0.39249516898E+02 -0.23499118011E+03  0.24139091893E+03  0.00000000000E+00 0.  1.
         13    1    4    4    0    0  0.21454617563E+02  0.30091130822E+02 -0.14483190286E+03  0.14947259566E+03  0.00000000000E+00 0. -1.
        -13    1    3    3    0    0 -0.20160363766E+02  0.27169350725E+02 -0.56668392432E+02  0.65999398382E+02  0.00000000000E+00 0. -1.
         13    1    3    3    0    0  0.65111946347E+02 -0.16135666333E+02 -0.13910767796E+03  0.15443727319E+03  0.00000000000E+00 0.  1.
         21    1    1    2  502  501 -0.27570695345E+02 -0.18752983156E+01 -0.15988731973E+03  0.16225786575E+03  0.00000000000E+00 0. -1.
<scales pt_clust_5="13000.00000" pt_clust_6="13000.00000" pt_clust_7="13000.00000" pt_clust_8="13000.00000" pt_clust_9="27.63440"></scales>
<clustering>
<clus scale="   27.634">  2  9  1 -1</clus>
<clus scale="   90.120">  7  8 -1 -1</clus>
<clus scale="   90.126">  5  6 -1 -1</clus>
<clus scale="   97.336">  1  7  2 -1</clus>
<clus scale="   27.634">  2  5  1 -1</clus>
</clustering>
</event>
<event>
 9    1  0.9000149E-006  0.1049538E+03  0.7546771E-02  0.1276002E+00
          2   -1    0    0  502    0  0.00000000000E+00  0.00000000000E+00  0.45452777463E+03  0.45452777463E+03  0.00000000000E+00 0. -1.
         -2   -1    0    0    0  501 -0.00000000000E+00 -0.00000000000E+00 -0.14787008799E+03  0.14787008799E+03  0.00000000000E+00 0.  1.
         23    2    1    2    0    0  0.19000834152E+02  0.80459542273E+01 -0.10704463744E+03  0.15007114281E+03  0.10313595115E+03 0.  0.
         23    2    1    2    0    0  0.10353588356E+02 -0.39677098192E+02  0.12513442824E+03  0.16055002111E+03  0.91848871713E+02 0.  0.
        -11    1    3    3    0    0 -0.21566190166E+02 -0.32139611119E+02 -0.14507312732E+02  0.41334214446E+02  0.00000000000E+00 0.  1.
         11    1    3    3    0    0  0.40567024318E+02  0.40185565346E+02 -0.92537324712E+02  0.10873692836E+03  0.00000000000E+00 0. -1.
        -13    1    4    4    0    0 -0.39444204399E+02 -0.30685542876E+02  0.61091619205E+02  0.78928028858E+02  0.00000000000E+00 0.  1.
         13    1    4    4    0    0  0.49797792755E+02 -0.89915553159E+01  0.64042809031E+02  0.81621992250E+02  0.00000000000E+00 0. -1.
         21    1    1    2  502  501 -0.29354422508E+02  0.31631143964E+02  0.28856789586E+03  0.29177669871E+03  0.00000000000E+00 0. -1.
<scales pt_clust_5="13000.00000" pt_clust_6="13000.00000" pt_clust_7="13000.00000" pt_clust_8="13000.00000" pt_clust_9="43.15335"></scales>
<clustering>
<clus scale="   43.153">  1  9  2 -1</clus>
<clus scale="   91.849">  7  8 -1 -1</clus>
<clus scale="   93.886">  1  7  2 -1</clus>
<clus scale="  103.136">  5  6 -1 -1</clus>
<clus scale="   43.153">  1  5  2 -1</clus>
</clustering>
</event>
<event>
 9    1  0.9000149E-006  0.1674617E+03  0.7546771E-02  0.1181504E+00
         -2   -1    0    0    0  501 -0.00000000000E+00  0.00000000000E+00  0.30038740668E+03  0.30038740668E+03  0.00000000000E+00 0.  1.
          2   -1    0    0  502    0  0.00000000000E+00 -0.00000000000E+00 -0.23392905668E+03  0.23392905668E+03  0.00000000000E+00 0. -1.
         23    2    1    2    0    0 -0.87740428944E+02  0.99225656421E+02  0.21316083515E+03  0.26896615425E+03  0.96752967549E+02 0.  0.
         23    2    1    2    0    0  0.10249683781E+03 -0.12845901537E+03 -0.13282916381E+03  0.22978614284E+03  0.90281583340E+02 0.  0.
        -11    1    3    3    0    0 -0.43614036089E+02  0.48725307292E+01  0.17381158107E+02  0.47202016449E+02  0.00000000000E+00 0. -1.
         11    1    3    3    0    0 -0.44126392855E+02  0.94353125692E+02  0.19577967704E+03  0.22176413781E+03  0.00000000000E+00 0.  1.
        -13    1    4    4    0    0  0.81675525203E+02 -0.44948597792E+02 -0.35236774784E+02  0.99663926061E+02  0.00000000000E+00 0.  1.
         13    1    4    4    0    0  0.20821312607E+02 -0.83510417575E+02 -0.97592389030E+02  0.13012221678E+03  0.00000000000E+00 0. -1.
         21    1    1    2  502  501 -0.14756408866E+02  0.29233358946E+02 -0.13873321333E+02  0.35564166273E+02  0.00000000000E+00 0. -1.
<scales pt_clust_5="13000.00000" pt_clust_6="13000.00000" pt_clust_7="13000.00000" pt_clust_8="13000.00000" pt_clust_9="32.74662"></scales>
<clustering>
<clus scale="   32.747">  2  9  1 -1</clus>
<clus scale="   90.282">  7  8 -1 -1</clus>
<clus scale="   96.753">  5  6 -1 -1</clus>
<clus scale="  163.808">  2  7  1 -1</clus>
<clus scale="   32.747">  2  5  1 -1</clus>
</clustering>
</event>
<event>
 9    1  0.9000149E-006  0.9443679E+02  0.7546771E-02  0.1292562E+00
         -1   -1    0    0    0  501 -0.00000000000E+00  0.00000000000E+00  0.94237957168E+02  0.94237957168E+02  0.00000000000E+00 0.  1.
          1   -1    0    0  502    0  0.00000000000E+00 -0.00000000000E+00 -0.90263054372E+03  0.90263054372E+03  0.00000000000E+00 0. -1.
         23    2    1    2    0    0  0.43585729254E+01  0.34559438210E+02  0.44047342886E+02  0.10758430221E+03  0.91765253440E+02 0.  0.
         23    2    1    2    0    0  0.25613285789E+02  0.45813373826E+02 -0.16077471599E+03  0.19232016179E+03  0.91562163026E+02 0.  0.
        -13    1    4    4    0    0  0.25612142018E+02 -0.23789131864E+02 -0.66598466456E+02  0.75214761502E+02  0.00000000000E+00 0. -1.
         13    1    4    4    0    0  0.11437703614E-02  0.69602505690E+02 -0.94176249537E+02  0.11710540029E+03  0.00000000000E+00 0.  1.
        -13    1    3    3    0    0  0.25663084210E+01  0.56197232300E+02  0.58767267303E+02  0.81352975135E+02  0.00000000000E+00 0.  1.
         13    1    3    3    0    0  0.17922645044E+01 -0.21637794091E+02 -0.14719924417E+02  0.26231327073E+02  0.00000000000E+00 0. -1.
         21    1    1    2  502  501 -0.29971858714E+02 -0.80372812036E+02 -0.69166521344E+03  0.69696403689E+03  0.00000000000E+00 0. -1.
<scales pt_clust_5="13000.00000" pt_clust_6="13000.00000" pt_clust_7="13000.00000" pt_clust_8="13000.00000" pt_clust_9="85.77938"></scales>
<clustering>
<clus scale="   85.779">  2  9  1 -1</clus>
<clus scale="   91.562">  5  6 -1 -1</clus>
<clus scale="   91.765">  7  8 -1 -1</clus>
<clus scale="   94.239">  2  5  1 -1</clus>
<clus scale="   85.779">  2  5  1 -1</clus>
</clustering>
</event>
<event>
 9    1  0.9000149E-006  0.9759696E+02  0.7546771E-02  0.1287135E+00
          2   -1    0    0  502    0  0.00000000000E+00  0.00000000000E+00  0.36799830133E+03  0.36799830133E+03  0.00000000000E+00 0. -1.
         -2   -1    0    0    0  501 -0.00000000000E+00 -0.00000000000E+00 -0.89058939927E+02  0.89058939927E+02  0.00000000000E+00 0.  1.
         23    2    1    2    0    0  0.28052734760E+01 -0.12040070156E+02  0.43877967082E+01  0.92573169219E+02  0.91638998525E+02 0.  0.
         23    2    1    2    0    0 -0.54257575735E+02 -0.18300903084E+02  0.32881594733E+02  0.11554173244E+03  0.94815004531E+02 0.  0.
        -13    1    3    3    0    0  0.42392686222E+02 -0.39778325850E+01  0.22659990778E+02  0.48233164723E+02  0.00000000000E+00 0. -1.
         13    1    3    3    0    0 -0.39587412746E+02 -0.80622375708E+01 -0.18272194069E+02  0.44340004496E+02  0.00000000000E+00 0.  1.
        -13    1    4    4    0    0 -0.64440763885E+02  0.21101274621E+02  0.31639413039E+02  0.74825986784E+02  0.00000000000E+00 0. -1.
         13    1    4    4    0    0  0.10183188150E+02 -0.39402177705E+02  0.12421816942E+01  0.40715745654E+02  0.00000000000E+00 0.  1.
         21    1    1    2  502  501  0.51452302259E+02  0.30340973240E+02  0.24166996996E+03  0.24894233960E+03  0.00000000000E+00 0. -1.
<scales pt_clust_5="13000.00000" pt_clust_6="13000.00000" pt_clust_7="13000.00000" pt_clust_8="13000.00000" pt_clust_9="59.73202"></scales>
<clustering>
<clus scale="   59.732">  1  9  2 -1</clus>
<clus scale="   91.639">  5  6 -1 -1</clus>
<clus scale="   94.514">  2  5  1 -1</clus>
<clus scale="   94.815">  7  8 -1 -1</clus>
<clus scale="   59.732">  1  5  2 -1</clus>
</clustering>
</event>
<event>
 9    1  0.1785433E-005  0.1271218E+03  0.7546771E-02  0.1244214E+00
          1   -1    0    0  502    0  0.00000000000E+00  0.00000000000E+00  0.70456142849E+03  0.70456142849E+03  0.00000000000E+00 0. -1.
         -1   -1    0    0    0  501 -0.00000000000E+00 -0.00000000000E+00 -0.62099495750E+02  0.62099495750E+02  0.00000000000E+00 0.  1.
         23    2    1    2    0    0  0.27277325650E+02  0.21450067449E+02  0.17317640066E+02  0.12800622920E+03  0.12198990192E+03 0.  0.
         23    2    1    2    0    0 -0.46517259881E+02 -0.11155973012E+02  0.56995318301E+03  0.57930655239E+03  0.91984453132E+02 0.  0.
        -11    1    4    4    0    0 -0.12212281372E+02  0.39833660572E+02  0.20134727244E+03  0.20561270498E+03  0.00000000000E+00 0.  1.
         11    1    4    4    0    0 -0.34304978509E+02 -0.50989633584E+02  0.36860591057E+03  0.37369384741E+03  0.00000000000E+00 0. -1.
        -13    1    3    3    0    0  0.41619476028E+02 -0.14118542076E+02 -0.39743718216E+02  0.59254342903E+02  0.00000000000E+00 0.  1.
         13    1    3    3    0    0 -0.14342150379E+02  0.35568609525E+02  0.57061358282E+02  0.68751886302E+02  0.00000000000E+00 0. -1.
         21    1    1    2  502  501  0.19239934231E+02 -0.10294094437E+02  0.55191109661E+02  0.59348142642E+02  0.00000000000E+00 0.  1.
<scales pt_clust_5="13000.00000" pt_clust_6="13000.00000" pt_clust_7="13000.00000" pt_clust_8="13000.00000" pt_clust_9="21.82071"></scales>
<clustering>
<clus scale="   21.821">  1  9  2 -1</clus>
<clus scale="   91.984">  5  6 -1 -1</clus>
<clus scale="   98.689">  1  5  2 -1</clus>
<clus scale="  121.990">  7  8 -1 -1</clus>
<clus scale="   21.821">  1  5  2 -1</clus>
</clustering>
</event>
<event>
 9    1  0.1044247E-005  0.9591846E+02  0.7546771E-02  0.1289373E+00
          2   -1    0    0  502    0  0.00000000000E+00  0.00000000000E+00  0.16778901545E+03  0.16778901545E+03  0.00000000000E+00 0. -1.
         -2   -1    0    0    0  501 -0.00000000000E+00 -0.00000000000E+00 -0.18662694730E+03  0.18662694730E+03  0.00000000000E+00 0.  1.
         23    2    1    2    0    0  0.23435015661E+02  0.12406133065E+02 -0.14557315755E+03  0.17418211704E+03  0.91895340462E+02 0.  0.
         23    2    1    2    0    0 -0.19344223579E+02 -0.38401598014E+02  0.10827323864E+03  0.14808818125E+03  0.91422828137E+02 0.  0.
        -13    1    4    4    0    0 -0.40260948822E+02 -0.52008305927E+02  0.10358057093E+03  0.12269776917E+03  0.00000000000E+00 0. -1.
         13    1    4    4    0    0  0.20916725243E+02  0.13606707913E+02  0.46926677050E+01  0.25390412075E+02  0.00000000000E+00 0.  1.
        -13    1    3    3    0    0  0.58194750382E+02  0.10520602482E+02 -0.75182539452E+02  0.95654201617E+02  0.00000000000E+00 0.  1.
         13    1    3    3    0    0 -0.34759734720E+02  0.18855305824E+01 -0.70390618103E+02  0.78527915420E+02  0.00000000000E+00 0. -1.
         21    1    1    2  502  501 -0.40907920828E+01  0.25995464950E+02  0.18461987061E+02  0.32145664467E+02  0.00000000000E+00 0. -1.
<scales pt_clust_5="13000.00000" pt_clust_6="13000.00000" pt_clust_7="13000.00000" pt_clust_8="13000.00000" pt_clust_9="26.31537"></scales>
<clustering>
<clus scale="   26.315">  1  9  2 -1</clus>
<clus scale="   91.423">  5  6 -1 -1</clus>
<clus scale="   91.895">  7  8 -1 -1</clus>
<clus scale="   95.466">  1  5  2 -1</clus>
<clus scale="   26.315">  1  5  2 -1</clus>
</clustering>
</event>
<event>
 9    1  0.9000149E-006  0.9967571E+02  0.7546771E-02  0.1281527E+00
         -1   -1    0    0    0  501 -0.00000000000E+00  0.00000000000E+00  0.37841027215E+02  0.37841027215E+02  0.00000000000E+00 0.  1.
          1   -1    0    0  502    0  0.00000000000E+00 -0.00000000000E+00 -0.49493538379E+03  0.49493538379E+03  0.00000000000E+00 0. -1.
         23    2    1    2    0    0  0.28700892052E+02  0.53371571355E+02 -0.90388515130E+02  0.14245970844E+03  0.91937038384E+02 0.  0.
         23    2    1    2    0    0 -0.11055073046E+02 -0.30830316087E+02 -0.32961904829E+03  0.34346680029E+03  0.90818516133E+02 0.  0.
        -11    1    4    4    0    0  0.29807441744E+02  0.12508053297E+02 -0.17108636621E+03  0.17411341041E+03  0.00000000000E+00 0. -1.
         11    1    4    4    0    0 -0.40862514790E+02 -0.43338369384E+02 -0.15853268208E+03  0.16935338988E+03  0.00000000000E+00 0.  1.
        -13    1    3    3    0    0 -0.30172402016E+02  0.79856429058E+01 -0.46901427133E+02  0.56337271882E+02  0.00000000000E+00 0.  1.
         13    1    3    3    0    0  0.58873294068E+02  0.45385928449E+02 -0.43487087997E+02  0.86122436554E+02  0.00000000000E+00 0. -1.
         21    1    1    2  502  501 -0.17645819006E+02 -0.22541255268E+02 -0.37086793153E+02  0.46849902282E+02  0.00000000000E+00 0.  1.
<scales pt_clust_5="13000.00000" pt_clust_6="13000.00000" pt_clust_7="13000.00000" pt_clust_8="13000.00000" pt_clust_9="28.62662"></scales>
<clustering>
<clus scale="   28.627">  1  9  2 -1</clus>
<clus scale="   90.819">  5  6 -1 -1</clus>
<clus scale="   91.937">  7  8 -1 -1</clus>
<clus scale="   98.645">  2  5  1 -1</clus>
<clus scale="   98.645">  2  5  1 -1</clus>
</clustering>
</event>
<event>
 9    1  0.9000149E-006  0.9217788E+02  0.7546771E-02  0.1301072E+00
         -1   -1    0    0    0  501 -0.00000000000E+00  0.00000000000E+00  0.38377540700E+03  0.38377540700E+03  0.00000000000E+00 0.  1.
          1   -1    0    0  502    0  0.00000000000E+00 -0.00000000000E+00 -0.51812519056E+02  0.51812519056E+02  0.00000000000E+00 0. -1.
         23    2    1    2    0    0  0.69774876709E+01 -0.38290213055E+01  0.25153501161E+03  0.26759053573E+03  0.90947710317E+02 0.  0.
         23    2    1    2    0    0 -0.31838725963E+02 -0.23009715035E+00  0.10065617142E+03  0.13569040140E+03  0.85243549731E+02 0.  0.
        -11    1    4    4    0    0 -0.45877853990E+02 -0.23894281120E+02  0.29841341702E+02  0.59717835121E+02  0.00000000000E+00 0.  1.
         11    1    4    4    0    0  0.14039128027E+02  0.23664183969E+02  0.70814829718E+02  0.75972566276E+02  0.00000000000E+00 0. -1.
        -13    1    3    3    0    0 -0.41388856126E+02 -0.53180045792E+01  0.13806808039E+03  0.14423631098E+03  0.00000000000E+00 0.  1.
         13    1    3    3    0    0  0.48366343797E+02  0.14889832738E+01  0.11346693122E+03  0.12335422475E+03  0.00000000000E+00 0. -1.
         21    1    1    2  502  501  0.24861238293E+02  0.40591184558E+01 -0.20228295077E+02  0.32306988931E+02  0.00000000000E+00 0. -1.
<scales pt_clust_5="13000.00000" pt_clust_6="13000.00000" pt_clust_7="13000.00000" pt_clust_8="13000.00000" pt_clust_9="25.19043"></scales>
<clustering>
<clus scale="   25.190">  2  9  1 -1</clus>
<clus scale="   85.244">  5  6 -1 -1</clus>
<clus scale="   86.555">  2  5  1 -1</clus>
<clus scale="   90.948">  7  8 -1 -1</clus>
<clus scale="   25.190">  2  5  1 -1</clus>
</clustering>
</event>
<event>
 9    1  0.9000149E-006  0.1090778E+03  0.7546771E-02  0.1262559E+00
          1   -1    0    0  502    0  0.00000000000E+00  0.00000000000E+00  0.39346459771E+03  0.39346459771E+03  0.00000000000E+00 0. -1.
         -1   -1    0    0    0  501 -0.00000000000E+00 -0.00000000000E+00 -0.90214471506E+02  0.90214471506E+02  0.00000000000E+00 0.  1.
         23    2    1    2    0    0  0.44809362440E+02  0.28510936544E+02  0.18123199421E+02  0.10652314849E+03  0.90542687957E+02 0.  0.
         23    2    1    2    0    0 -0.20053110734E+02 -0.76797048062E+02  0.41949613448E+02  0.12799808664E+03  0.91235005749E+02 0.  0.
        -11    1    4    4    0    0 -0.28912116753E+02 -0.95475455767E+02  0.30242345319E+02  0.10424045568E+03  0.00000000000E+00 0.  1.
         11    1    4    4    0    0  0.88590060183E+01  0.18678407705E+02  0.11707268129E+02  0.23757630965E+02  0.00000000000E+00 0. -1.
        -13    1    3    3    0    0  0.71341287931E+02  0.10459851635E+02  0.18466037204E+02  0.74431057965E+02  0.00000000000E+00 0.  1.
         13    1    3    3    0    0 -0.26531925491E+02  0.18051084909E+02 -0.34283778342E+00  0.32092090527E+02  0.00000000000E+00 0. -1.
         21    1    1    2  502  501 -0.24756251706E+02  0.48286111518E+02  0.24317731333E+03  0.24915783408E+03  0.00000000000E+00 0. -1.
<scales pt_clust_5="13000.00000" pt_clust_6="13000.00000" pt_clust_7="13000.00000" pt_clust_8="13000.00000" pt_clust_9="54.26252"></scales>
<clustering>
<clus scale="   54.263">  1  9  2 -1</clus>
<clus scale="   90.543">  7  8 -1 -1</clus>
<clus scale="   91.235">  5  6 -1 -1</clus>
<clus scale="  108.499">  2  7  1 -1</clus>
<clus scale="   54.263">  1  5  2 -1</clus>
</clustering>
</event>
<event>
 9    1  0.9000149E-006  0.1577977E+03  0.7546771E-02  0.1216370E+00
          1   -1    0    0  502    0  0.00000000000E+00  0.00000000000E+00  0.10840424481E+04  0.10840424481E+04  0.00000000000E+00 0. -1.
         -1   -1    0    0    0  501 -0.00000000000E+00 -0.00000000000E+00 -0.47205668416E+02  0.47205668416E+02  0.00000000000E+00 0.  1.
         23    2    1    2    0    0  0.10326943108E+02 -0.63890668290E+01  0.10690351445E+03  0.14082718385E+03  0.90865110907E+02 0.  0.
         23    2    1    2    0    0 -0.10138069404E+03  0.93579697211E+02  0.25704925254E+03  0.30582916663E+03  0.91771215953E+02 0.  0.
        -13    1    3    3    0    0 -0.22994324554E+02  0.24038946637E+02  0.83739415274E+02  0.90104936533E+02  0.00000000000E+00 0.  1.
         13    1    3    3    0    0  0.33321267662E+02 -0.30428013466E+02  0.23164099172E+02  0.50722247313E+02  0.00000000000E+00 0. -1.
        -13    1    4    4    0    0 -0.10343470184E+02  0.58081506838E+02  0.14843986813E+03  0.15973366353E+03  0.00000000000E+00 0. -1.
         13    1    4    4    0    0 -0.91037223852E+02  0.35498190373E+02  0.10860938441E+03  0.14609550311E+03  0.00000000000E+00 0.  1.
         21    1    1    2  502  501  0.91053750928E+02 -0.87190630382E+02  0.67288401267E+03  0.68459176601E+03  0.00000000000E+00 0. -1.
<scales pt_clust_5="13000.00000" pt_clust_6="13000.00000" pt_clust_7="13000.00000" pt_clust_8="13000.00000" pt_clust_9="128.36732"></scales>
<clustering>
<clus scale="   90.865">  5  6 -1 -1</clus>
<clus scale="   91.673">  2  5  1 -1</clus>
<clus scale="   91.771">  7  8 -1 -1</clus>
<clus scale="  128.367">  1  9  2 -1</clus>
<clus scale="  128.367">  1  5  2 -1</clus>
</clustering>
</event>
<event>
 9    1  0.9000149E-006  0.1788596E+03  0.7546771E-02  0.1174045E+00
          2   -1    0    0  502    0  0.00000000000E+00  0.00000000000E+00  0.91196546459E+02  0.91196546459E+02  0.00000000000E+00 0. -1.
         -2   -1    0    0    0  501 -0.00000000000E+00 -0.00000000000E+00 -0.58491684671E+03  0.58491684671E+03  0.00000000000E+00 0.  1.
         23    2    1    2    0    0  0.12392206854E+03 -0.80982753337E+01 -0.41977064875E+03  0.45449147727E+03  0.12220001726E+03 0.  0.
         23    2    1    2    0    0 -0.15161974278E+03  0.94377300237E+01 -0.78311784431E+02  0.19355087209E+03  0.90838248323E+02 0.  0.
        -11    1    4    4    0    0 -0.15347796159E+03  0.29460366037E+02 -0.64038426684E+02  0.16889143837E+03  0.00000000000E+00 0. -1.
         11    1    4    4    0    0  0.18582188174E+01 -0.20022636013E+02 -0.14273357747E+02  0.24659433721E+02  0.00000000000E+00 0.  1.
        -13    1    3    3    0    0  0.77332525789E+02  0.13619856450E+02 -0.38380609903E+03  0.39175622738E+03  0.00000000000E+00 0.  1.
         13    1    3    3    0    0  0.46589542756E+02 -0.21718131784E+02 -0.35964549723E+02  0.62735249894E+02  0.00000000000E+00 0. -1.
         21    1    1    2  502  501  0.27697674232E+02 -0.13394546900E+01  0.43621329362E+01  0.28071043808E+02  0.00000000000E+00 0.  1.
<scales pt_clust_5="13000.00000" pt_clust_6="13000.00000" pt_clust_7="13000.00000" pt_clust_8="13000.00000" pt_clust_9="27.73004"></scales>
<clustering>
<clus scale="   27.730">  1  9  2 -1</clus>
<clus scale="   90.838">  5  6 -1 -1</clus>
<clus scale="  122.200">  7  8 -1 -1</clus>
<clus scale="  159.090">  1  5  2 -1</clus>
<clus scale="   27.730">  1  5  2 -1</clus>
</clustering>
</event>
<event>
 9    1  0.9000149E-006  0.1091876E+03  0.7546771E-02  0.1262149E+00
         -3   -1    0    0    0  501 -0.00000000000E+00  0.00000000000E+00  0.11991993834E+03  0.11991993834E+03  0.00000000000E+00 0.  1.
          3   -1    0    0  502    0  0.00000000000E+00 -0.00000000000E+00 -0.21708989464E+03  0.21708989464E+03  0.00000000000E+00 0. -1.
         23    2    1    2    0    0  0.64200200240E+01 -0.68803073824E+02  0.44902668663E+02  0.12302743829E+03  0.91347803992E+02 0.  0.
         23    2    1    2    0    0 -0.14744578714E+02  0.40412548873E+02 -0.41283727075E+02  0.10894086899E+03  0.91176697172E+02 0.  0.
        -13    1    4    4    0    0 -0.32607160753E+02  0.50279318198E+02  0.31870160874E+01  0.60011614229E+02  0.00000000000E+00 0.  1.
         13    1    4    4    0    0  0.17862582039E+02 -0.98667693251E+01 -0.44470743162E+02  0.48929254761E+02  0.00000000000E+00 0. -1.
        -13    1    3    3    0    0  0.36983271398E+02 -0.64916247136E+02  0.82807744272E+01  0.75169493351E+02  0.00000000000E+00 0. -1.
         13    1    3    3    0    0 -0.30563251374E+02 -0.38868266875E+01  0.36621894236E+02  0.47857944938E+02  0.00000000000E+00 0.  1.
         21    1    1    2  502  501  0.83245586901E+01  0.28390524951E+02 -0.10078889789E+03  0.10504152570E+03  0.00000000000E+00 0. -1.
<scales pt_clust_5="13000.00000" pt_clust_6="13000.00000" pt_clust_7="13000.00000" pt_clust_8="13000.00000" pt_clust_9="29.58581"></scales>
<clustering>
<clus scale="   29.586">  2  9  1 -1</clus>
<clus scale="   91.177">  5  6 -1 -1</clus>
<clus scale="   91.348">  7  8 -1 -1</clus>
<clus scale="  109.044">  2  5  1 -1</clus>
<clus scale="   29.586">  2  5  1 -1</clus>
</clustering>
</event>
<event>
 9    1  0.9000149E-006  0.1195440E+03  0.7546771E-02  0.1245171E+00
          3   -1    0    0  502    0  0.00000000000E+00  0.00000000000E+00  0.10332027817E+03  0.10332027817E+03  0.00000000000E+00 0. -1.
         -3   -1    0    0    0  501 -0.00000000000E+00 -0.00000000000E+00 -0.18788189376E+03  0.18788189376E+03  0.00000000000E+00 0.  1.
         23    2    1    2    0    0 -0.30202604161E+02 -0.53146039235E+02 -0.75600705709E+02  0.13795162580E+03  0.97869737779E+02 0.  0.
         23    2    1    2    0    0  0.90784839014E+01  0.73857436450E+02  0.61053470952E+01  0.12005141164E+03  0.94009182444E+02 0.  0.
        -13    1    3    3    0    0 -0.21092287142E+01 -0.51101993609E+02 -0.92070350960E+02  0.10532241985E+03  0.00000000000E+00 0.  1.
         13    1    3    3    0    0 -0.28093375446E+02 -0.20440456263E+01  0.16469645251E+02  0.32629205954E+02  0.00000000000E+00 0. -1.
        -13    1    4    4    0    0 -0.31772446400E+02  0.72287831495E+02  0.23319642746E+01  0.78996563152E+02  0.00000000000E+00 0. -1.
         13    1    4    4    0    0  0.40850930301E+02  0.15696049549E+01  0.37733828206E+01  0.41054848484E+02  0.00000000000E+00 0.  1.
         21    1    1    2  502  501  0.21124120259E+02 -0.20711397215E+02 -0.15066256975E+02  0.33199134485E+02  0.00000000000E+00 0.  1.
<scales pt_clust_5="13000.00000" pt_clust_6="13000.00000" pt_clust_7="13000.00000" pt_clust_8="13000.00000" pt_clust_9="29.58362"></scales>
<clustering>
<clus scale="   29.584">  2  9  1 -1</clus>
<clus scale="   94.009">  7  8 -1 -1</clus>
<clus scale="   97.870">  5  6 -1 -1</clus>
<clus scale="  116.405">  1  7  2 -1</clus>
<clus scale="  116.405">  1  5  2 -1</clus>
</clustering>
</event>
<event>
 9    1  0.9000149E-006  0.2996782E+03  0.7546771E-02  0.1086001E+00
          2   -1    0    0  502    0  0.00000000000E+00  0.00000000000E+00  0.16114881919E+04  0.16114881919E+04  0.00000000000E+00 0.  1.
         -2   -1    0    0    0  501 -0.00000000000E+00 -0.00000000000E+00 -0.70353998596E+02  0.70353998596E+02  0.00000000000E+00 0. -1.
         23    2    1    2    0    0 -0.26504057731E+03  0.47977082176E+02  0.47276990385E+03  0.55277456014E+03  0.97468068224E+02 0.  0.
         23    2    1    2    0    0  0.30043251712E+03 -0.74862126234E+02  0.91640837452E+03  0.97074519012E+03  0.81718296407E+02 0.  0.
        -11    1    3    3    0    0 -0.21881874979E+03  0.86453455095E+01  0.31418941134E+03  0.38297698816E+03  0.00000000000E+00 0.  1.
         11    1    3    3    0    0 -0.46221827512E+02  0.39331736667E+02  0.15858049251E+03  0.16979757198E+03  0.00000000000E+00 0. -1.
        -13    1    4    4    0    0  0.10253599348E+03 -0.32333941333E+02  0.44336784511E+03  0.45621722874E+03  0.00000000000E+00 0.  1.
         13    1    4    4    0    0  0.19789652364E+03 -0.42528184901E+02  0.47304052941E+03  0.51452796138E+03  0.00000000000E+00 0. -1.
         21    1    1    2  502  501 -0.35391939809E+02  0.26885044057E+02  0.15195591497E+03  0.15832244026E+03  0.00000000000E+00 0.  1.
<scales pt_clust_5="13000.00000" pt_clust_6="13000.00000" pt_clust_7="13000.00000" pt_clust_8="13000.00000" pt_clust_9="44.44542"></scales>
<clustering>
<clus scale="   44.445">  1  9  2 -1</clus>
<clus scale="   81.718">  7  8 -1 -1</clus>
<clus scale="   97.468">  5  6 -1 -1</clus>
<clus scale="  294.932">  1  7  2 -1</clus>
<clus scale="   44.445">  1  5  2 -1</clus>
</clustering>
</event>
<event>
 9    1  0.9000149E-006  0.1172330E+03  0.7546771E-02  0.1248055E+00
         -1   -1    0    0    0  501 -0.00000000000E+00  0.00000000000E+00  0.84171203542E+02  0.84171203542E+02  0.00000000000E+00 0.  1.
          1   -1    0    0  502    0  0.00000000000E+00 -0.00000000000E+00 -0.73807228990E+03  0.73807228990E+03  0.00000000000E+00 0. -1.
         23    2    1    2    0    0  0.28103536798E+02 -0.69921726541E+02  0.32572204763E+02  0.12310758826E+03  0.91736978050E+02 0.  0.
         23    2    1    2    0    0 -0.22619596241E+02  0.41487100153E+02 -0.49313306691E+03  0.50363898991E+03  0.90769955731E+02 0.  0.
        -13    1    4    4    0    0 -0.31724722950E+02  0.66019961010E+02 -0.40977933586E+03  0.41627418535E+03  0.00000000000E+00 0. -1.
         13    1    4    4    0    0  0.91051267095E+01 -0.24532860857E+02 -0.83353731055E+02  0.87364804555E+02  0.00000000000E+00 0.  1.
        -13    1    3    3    0    0  0.30388663871E+02  0.10611114419E+02 -0.76135644088E+01  0.33076169731E+02  0.00000000000E+00 0. -1.
         13    1    3    3    0    0 -0.22851270729E+01 -0.80532840961E+02  0.40185769172E+02  0.90031418532E+02  0.00000000000E+00 0.  1.
         21    1    1    2  502  501 -0.54839405571E+01  0.28434626388E+02 -0.19334022421E+03  0.19549691527E+03  0.00000000000E+00 0.  1.
<scales pt_clust_5="13000.00000" pt_clust_6="13000.00000" pt_clust_7="13000.00000" pt_clust_8="13000.00000" pt_clust_9="28.95862"></scales>
<clustering>
<clus scale="   28.959">  2  9  1 -1</clus>
<clus scale="   90.770">  5  6 -1 -1</clus>
<clus scale="   91.737">  7  8 -1 -1</clus>
<clus scale="  116.478">  2  5  1 -1</clus>
<clus scale="   28.959">  2  5  1 -1</clus>
</clustering>
</event>
<event>
 9    1  0.9000149E-006  0.1230409E+03  0.7546771E-02  0.1239138E+00
         -1   -1    0    0    0  501 -0.00000000000E+00  0.00000000000E+00  0.16736258070E+03  0.16736258070E+03  0.00000000000E+00 0.  1.
          1   -1    0    0  502    0  0.00000000000E+00 -0.00000000000E+00 -0.27110819899E+03  0.27110819899E+03  0.00000000000E+00 0. -1.
         23    2    1    2    0    0  0.67375296622E+02 -0.27430183794E+02  0.76966342976E+02  0.14110774241E+03  0.93250905841E+02 0.  0.
         23    2    1    2    0    0 -0.13192791148E+03 -0.82049790538E+01 -0.14301198830E+03  0.21454883030E+03  0.90035972116E+02 0.  0.
        -11    1    4    4    0    0 -0.11343473625E+03  0.21511049213E+02 -0.73906224413E+02  0.13708499055E+03  0.00000000000E+00 0. -1.
         11    1    4    4    0    0 -0.18493175230E+02 -0.29716028267E+02 -0.69105763887E+02  0.77463839748E+02  0.00000000000E+00 0.  1.
        -13    1    3    3    0    0  0.69525450779E+00 -0.48081610756E+02  0.25900952380E+02  0.54618531708E+02  0.00000000000E+00 0. -1.
         13    1    3    3    0    0  0.66680042114E+02  0.20651426962E+02  0.51065390596E+02  0.86489210706E+02  0.00000000000E+00 0.  1.
         21    1    1    2  502  501  0.64552614862E+02  0.35635162848E+02 -0.37699972965E+02  0.82814206983E+02  0.00000000000E+00 0.  1.
<scales pt_clust_5="13000.00000" pt_clust_6="13000.00000" pt_clust_7="13000.00000" pt_clust_8="13000.00000" pt_clust_9="73.73537"></scales>
<clustering>
<clus scale="   73.735">  2  9  1 -1</clus>
<clus scale="   90.036">  5  6 -1 -1</clus>
<clus scale="   93.251">  7  8 -1 -1</clus>
<clus scale="  120.623">  2  5  1 -1</clus>
<clus scale="   73.735">  2  5  1 -1</clus>
</clustering>
</event>
<event>
 9    1  0.9000149E-006  0.1032358E+03  0.7546771E-02  0.1274643E+00
         -1   -1    0    0    0  501 -0.00000000000E+00  0.00000000000E+00  0.71278098732E+02  0.71278098732E+02  0.00000000000E+00 0.  1.
          1   -1    0    0  502    0  0.00000000000E+00 -0.00000000000E+00 -0.56315122482E+03  0.56315122482E+03  0.00000000000E+00 0. -1.
         23    2    1    2    0    0 -0.52058892806E+02  0.13300999159E+01  0.16906966842E+02  0.10720523480E+03  0.92169514233E+02 0.  0.
         23    2    1    2    0    0  0.68312629076E+01 -0.12161228336E+02 -0.31073634896E+03  0.32379307741E+03  0.89946188304E+02 0.  0.
        -11    1    4    4    0    0 -0.36680930023E+02 -0.25880349066E+02 -0.13708489999E+03  0.14424823361E+03  0.00000000000E+00 0.  1.
         11    1    4    4    0    0  0.43512192930E+02  0.13719120730E+02 -0.17365144897E+03  0.17954484381E+03  0.00000000000E+00 0. -1.
        -13    1    3    3    0    0 -0.63876722095E+02 -0.29562773504E+02  0.21989296161E+02  0.73740913668E+02  0.00000000000E+00 0.  1.
         13    1    3    3    0    0  0.11817829290E+02  0.30892873420E+02 -0.50823293192E+01  0.33464321128E+02  0.00000000000E+00 0. -1.
         21    1    1    2  502  501  0.45227629898E+02  0.10831128420E+02 -0.19804374397E+03  0.20343101134E+03  0.00000000000E+00 0. -1.
<scales pt_clust_5="13000.00000" pt_clust_6="13000.00000" pt_clust_7="13000.00000" pt_clust_8="13000.00000" pt_clust_9="46.50647"></scales>
<clustering>
<clus scale="   46.506">  2  9  1 -1</clus>
<clus scale="   89.946">  5  6 -1 -1</clus>
<clus scale="   92.170">  7  8 -1 -1</clus>
<clus scale="  101.256">  2  5  1 -1</clus>
<clus scale="   46.506">  2  5  1 -1</clus>
</clustering>
</event>
<event>
 9    1  0.9000149E-006  0.9354961E+02  0.7546771E-02  0.1295690E+00
          1   -1    0    0  502    0  0.00000000000E+00  0.00000000000E+00  0.33911994359E+03  0.33911994359E+03  0.00000000000E+00 0. -1.
         -1   -1    0    0    0  501 -0.00000000000E+00 -0.00000000000E+00 -0.43963434004E+02  0.43963434004E+02  0.00000000000E+00 0.  1.
         23    2    1    2    0    0 -0.89878945012E+00 -0.16318146347E+01  0.61096541584E+02  0.11050065467E+03  0.92055073986E+02 0.  0.
         23    2    1    2    0    0  0.50523959650E+01  0.21355264862E+02  0.23482372473E+03  0.25241219343E+03  0.89934196241E+02 0.  0.
        -11    1    4    4    0    0  0.25555910112E+02 -0.16721969163E+02  0.29074247018E+02  0.42166819112E+02  0.00000000000E+00 0.  1.
         11    1    4    4    0    0 -0.20503514147E+02  0.38077234025E+02  0.20574947771E+03  0.21024537431E+03  0.00000000000E+00 0. -1.
        -13    1    3    3    0    0 -0.34065449811E+02  0.30016432303E+02  0.37792702235E+02  0.59073931825E+02  0.00000000000E+00 0. -1.
         13    1    3    3    0    0  0.33166660361E+02 -0.31648246937E+02  0.23303839349E+02  0.51426722841E+02  0.00000000000E+00 0.  1.
         21    1    1    2  502  501 -0.41536065149E+01 -0.19723450228E+02 -0.76375672680E+00  0.20170529500E+02  0.00000000000E+00 0.  1.
<scales pt_clust_5="13000.00000" pt_clust_6="13000.00000" pt_clust_7="13000.00000" pt_clust_8="13000.00000" pt_clust_9="20.15606"></scales>
<clustering>
<clus scale="   20.156">  2  9  1 -1</clus>
<clus scale="   89.934">  5  6 -1 -1</clus>
<clus scale="   91.463">  1  5  2 -1</clus>
<clus scale="   92.055">  7  8 -1 -1</clus>
<clus scale="   91.463">  1  5  2 -1</clus>
</clustering>
</event>
<event>
 9    1  0.9000149E-006  0.1189654E+03  0.7546771E-02  0.1255936E+00
          1   -1    0    0  502    0  0.00000000000E+00  0.00000000000E+00  0.39019401587E+03  0.39019401587E+03  0.00000000000E+00 0. -1.
         -1   -1    0    0    0  501 -0.00000000000E+00 -0.00000000000E+00 -0.10463006947E+03  0.10463006947E+03  0.00000000000E+00 0.  1.
         23    2    1    2    0    0  0.32992377005E+02 -0.15947113830E+02 -0.20591868520E+02  0.12264098933E+03  0.11521275899E+03 0.  0.
         23    2    1    2    0    0 -0.23645482486E+02 -0.35319692054E+02  0.51990087472E+02  0.11273008132E+03  0.90545637944E+02 0.  0.
        -11    1    4    4    0    0 -0.55277941851E+02 -0.44132360158E+01  0.24241917096E+02  0.60521054616E+02  0.00000000000E+00 0. -1.
         11    1    4    4    0    0  0.31632459365E+02 -0.30906456038E+02  0.27748170376E+02  0.52209026705E+02  0.00000000000E+00 0.  1.
        -11    1    3    3    0    0  0.20582092160E+02 -0.57639701334E+02  0.18726133538E+02  0.64004888602E+02  0.00000000000E+00 0.  1.
         11    1    3    3    0    0  0.12410284844E+02  0.41692587505E+02 -0.39318002057E+02  0.58636100728E+02  0.00000000000E+00 0. -1.
         21    1    1    2  502  501 -0.93468945185E+01  0.51266805884E+02  0.25416572744E+03  0.25945301469E+03  0.00000000000E+00 0. -1.
<scales pt_clust_5="13000.00000" pt_clust_6="13000.00000" pt_clust_7="13000.00000" pt_clust_8="13000.00000" pt_clust_9="52.11190"></scales>
<clustering>
<clus scale="   52.112">  1  9  2 -1</clus>
<clus scale="   90.546">  5  6 -1 -1</clus>
<clus scale="   95.275">  1  5  2 -1</clus>
<clus scale="  115.213">  7  8 -1 -1</clus>
<clus scale="   52.112">  1  5  2 -1</clus>
</clustering>
</event>
<event>
 9    1  0.9000149E-006  0.1499927E+03  0.7546771E-02  0.1200971E+00
          1   -1    0    0  502    0  0.00000000000E+00  0.00000000000E+00  0.21481844213E+03  0.21481844213E+03  0.00000000000E+00 0. -1.
         -1   -1    0    0    0  501 -0.00000000000E+00 -0.00000000000E+00 -0.30474504557E+03  0.30474504557E+03  0.00000000000E+00 0.  1.
         23    2    1    2    0    0 -0.12218815169E+03 -0.20700736959E+02 -0.23751172799E+03  0.28238026862E+03  0.89265504238E+02 0.  0.
         23    2    1    2    0    0  0.76892438550E+02  0.51847042756E+02  0.10832164992E+03  0.16963017005E+03  0.91870843034E+02 0.  0.
        -11    1    4    4    0    0  0.12727215093E+02  0.54997617435E+02  0.18913661213E+02  0.59535254329E+02  0.00000000000E+00 0.  1.
         11    1    4    4    0    0  0.64165223457E+02 -0.31505746786E+01  0.89407988709E+02  0.11009491572E+03  0.00000000000E+00 0. -1.
        -13    1    3    3    0    0 -0.36292233231E+02 -0.38245097177E+02 -0.14789763756E+03  0.15701440968E+03  0.00000000000E+00 0.  1.
         13    1    3    3    0    0 -0.85895918458E+02  0.17544360218E+02 -0.89614090426E+02  0.12536585893E+03  0.00000000000E+00 0. -1.
         21    1    1    2  502  501  0.45295713139E+02 -0.31146305797E+02  0.39263474626E+02  0.67553049030E+02  0.00000000000E+00 0.  1.
<scales pt_clust_5="13000.00000" pt_clust_6="13000.00000" pt_clust_7="13000.00000" pt_clust_8="13000.00000" pt_clust_9="54.97085"></scales>
<clustering>
<clus scale="   54.971">  1  9  2 -1</clus>
<clus scale="   89.266">  7  8 -1 -1</clus>
<clus scale="   91.871">  5  6 -1 -1</clus>
<clus scale="  148.411">  2  7  1 -1</clus>
<clus scale="   54.971">  1  5  2 -1</clus>
</clustering>
</event>
<event>
 9    1  0.9000149E-006  0.1366286E+03  0.7546771E-02  0.1221158E+00
          2   -1    0    0  502    0  0.00000000000E+00  0.00000000000E+00  0.43876917202E+03  0.43876917202E+03  0.00000000000E+00 0. -1.
         -2   -1    0    0    0  501 -0.00000000000E+00 -0.00000000000E+00 -0.78143653014E+02  0.78143653014E+02  0.00000000000E+00 0.  1.
         23    2    1    2    0    0 -0.61063202112E+02 -0.76880427841E+02  0.10565471399E+02  0.12940449205E+03  0.83633596960E+02 0.  0.
         23    2    1    2    0    0  0.74087331028E+02  0.53320209655E+02  0.32312960521E+03  0.34942998556E+03  0.96729497388E+02 0.  0.
        -11    1    3    3    0    0 -0.58538805096E+02 -0.45048974772E+02 -0.28301968232E+02  0.79102485650E+02  0.00000000000E+00 0.  1.
         11    1    3    3    0    0 -0.25243970151E+01 -0.31831453069E+02  0.38867439631E+02  0.50302006403E+02  0.00000000000E+00 0. -1.
        -13    1    4    4    0    0 -0.66035059175E+01  0.30267153395E+02  0.25282578460E+02  0.39986443185E+02  0.00000000000E+00 0. -1.
         13    1    4    4    0    0  0.80690836946E+02  0.23053056260E+02  0.29784702675E+03  0.30944354237E+03  0.00000000000E+00 0.  1.
         21    1    1    2  502  501 -0.13024128917E+02  0.23560218186E+02  0.26930442396E+02  0.38078347426E+02  0.00000000000E+00 0. -1.
<scales pt_clust_5="13000.00000" pt_clust_6="13000.00000" pt_clust_7="13000.00000" pt_clust_8="13000.00000" pt_clust_9="26.92047"></scales>
<clustering>
<clus scale="   26.920">  1  9  2 -1</clus>
<clus scale="   83.634">  5  6 -1 -1</clus>
<clus scale="   96.729">  7  8 -1 -1</clus>
<clus scale="  127.692">  2  5  1 -1</clus>
<clus scale="   26.920">  1  5  2 -1</clus>
</clustering>
</event>
<event>
 9    1  0.9000149E-006  0.1267254E+03  0.7546771E-02  0.1237506E+00
         -2   -1    0    0    0  501 -0.00000000000E+00  0.00000000000E+00  0.62062315161E+02  0.62062315161E+02  0.00000000000E+00 0.  1.
          2   -1    0    0  502    0  0.00000000000E+00 -0.00000000000E+00 -0.50734830158E+03  0.50734830158E+03  0.00000000000E+00 0. -1.
         23    2    1    2    0    0 -0.54874507810E+02  0.50620207810E+02 -0.30797096840E+02  0.13164524402E+03  0.10396341690E+03 0.  0.
         23    2    1    2    0    0  0.63741327431E+02 -0.23855572853E+02 -0.30500647611E+03  0.32471067342E+03  0.88181776958E+02 0.  0.
        -11    1    3    3    0    0 -0.13742097305E+02 -0.32376836445E+02 -0.11694333138E+02  0.37065647223E+02  0.00000000000E+00 0.  1.
         11    1    3    3    0    0 -0.41132410504E+02  0.82997044254E+02 -0.19102763701E+02  0.94579596795E+02  0.00000000000E+00 0. -1.
        -13    1    4    4    0    0  0.82495474246E+02 -0.19048593335E+01 -0.22694856634E+03  0.24148454096E+03  0.00000000000E+00 0. -1.
         13    1    4    4    0    0 -0.18754146815E+02 -0.21950713519E+02 -0.78057909769E+02  0.83226132460E+02  0.00000000000E+00 0.  1.
         21    1    1    2  502  501 -0.88668196210E+01 -0.26764634957E+02 -0.10948241348E+03  0.11305469931E+03  0.00000000000E+00 0.  1.
<scales pt_clust_5="13000.00000" pt_clust_6="13000.00000" pt_clust_7="13000.00000" pt_clust_8="13000.00000" pt_clust_9="28.19514"></scales>
<clustering>
<clus scale="   28.195">  2  9  1 -1</clus>
<clus scale="   88.182">  7  8 -1 -1</clus>
<clus scale="  103.963">  5  6 -1 -1</clus>
<clus scale="  114.136">  2  7  1 -1</clus>
<clus scale="   28.195">  2  5  1 -1</clus>
</clustering>
</event>
<event>
 9    1  0.9000149E-006  0.1212177E+03  0.7546771E-02  0.1241945E+00
         -1   -1    0    0    0  501 -0.00000000000E+00  0.00000000000E+00  0.13090573132E+03  0.13090573132E+03  0.00000000000E+00 0.  1.
          1   -1    0    0  502    0  0.00000000000E+00 -0.00000000000E+00 -0.18607782700E+03  0.18607782700E+03  0.00000000000E+00 0. -1.
         23    2    1    2    0    0  0.48449660419E+02 -0.84908285579E+02 -0.32183229442E+02  0.13757397771E+03  0.91291032040E+02 0.  0.
         23    2    1    2    0    0 -0.32836908365E+02  0.60281072808E+02 -0.64046126702E+02  0.12905130152E+03  0.88545252768E+02 0.  0.
        -11    1    3    3    0    0  0.69466453948E+02 -0.87562002930E+02 -0.32459101748E+02  0.11638851261E+03  0.00000000000E+00 0.  1.
         11    1    3    3    0    0 -0.21016793529E+02  0.26537173503E+01  0.27587230536E+00  0.21185465101E+02  0.00000000000E+00 0. -1.
        -11    1    4    4    0    0  0.18647345827E+02  0.57452625650E+02 -0.36858277725E+02  0.70760584631E+02  0.00000000000E+00 0. -1.
         11    1    4    4    0    0 -0.51484254192E+02  0.28284471577E+01 -0.27187848978E+02  0.58290716886E+02  0.00000000000E+00 0.  1.
         21    1    1    2  502  501 -0.15612752055E+02  0.24627212771E+02  0.41057260465E+02  0.50358279086E+02  0.00000000000E+00 0. -1.
<scales pt_clust_5="13000.00000" pt_clust_6="13000.00000" pt_clust_7="13000.00000" pt_clust_8="13000.00000" pt_clust_9="29.15918"></scales>
<clustering>
<clus scale="   29.159">  1  9  2 -1</clus>
<clus scale="   88.545">  7  8 -1 -1</clus>
<clus scale="   91.291">  5  6 -1 -1</clus>
<clus scale="  119.164">  2  7  1 -1</clus>
<clus scale="  119.164">  2  5  1 -1</clus>
</clustering>
</event>
<event>
 9    1  0.9000149E-006  0.9480566E+02  0.7546771E-02  0.1293266E+00
         -2   -1    0    0    0  501 -0.00000000000E+00  0.00000000000E+00  0.85719371303E+02  0.85719371303E+02  0.00000000000E+00 0.  1.
          2   -1    0    0  502    0  0.00000000000E+00 -0.00000000000E+00 -0.19511537676E+03  0.19511537676E+03  0.00000000000E+00 0. -1.
         23    2    1    2    0    0  0.92652347849E+01 -0.12885467536E+02  0.20974004325E+02  0.96090566868E+02  0.92420821974E+02 0.  0.
         23    2    1    2    0    0 -0.59105486068E+01  0.35541302121E+02 -0.67202153943E+02  0.11755252419E+03  0.89467020221E+02 0.  0.
        -13    1    4    4    0    0  0.40476310583E+02  0.11114376229E+02 -0.42018784951E+02  0.59392250051E+02  0.00000000000E+00 0. -1.
         13    1    4    4    0    0 -0.46386859189E+02  0.24426925892E+02 -0.25183368992E+02  0.58160274138E+02  0.00000000000E+00 0.  1.
        -13    1    3    3    0    0  0.51559921470E+01  0.36304432154E+02 -0.97572518190E+01  0.37944696759E+02  0.00000000000E+00 0. -1.
         13    1    3    3    0    0  0.41092426379E+01 -0.49189899690E+02  0.30731256144E+02  0.58145870109E+02  0.00000000000E+00 0.  1.
         21    1    1    2  502  501 -0.33546861781E+01 -0.22655834585E+02 -0.63167855836E+02  0.67191657005E+02  0.00000000000E+00 0. -1.
<scales pt_clust_5="13000.00000" pt_clust_6="13000.00000" pt_clust_7="13000.00000" pt_clust_8="13000.00000" pt_clust_9="22.90285"></scales>
<clustering>
<clus scale="   22.903">  2  9  1 -1</clus>
<clus scale="   89.467">  5  6 -1 -1</clus>
<clus scale="   91.929">  2  5  1 -1</clus>
<clus scale="   92.421">  7  8 -1 -1</clus>
<clus scale="   22.903">  2  5  1 -1</clus>
</clustering>
</event>
<event>
 9    1  0.9000149E-006  0.1106334E+03  0.7546771E-02  0.1268250E+00
          2   -1    0    0  502    0  0.00000000000E+00  0.00000000000E+00  0.39693790431E+03  0.39693790431E+03  0.00000000000E+00 0. -1.
         -2   -1    0    0    0  501 -0.00000000000E+00 -0.00000000000E+00 -0.45577283162E+02  0.45577283162E+02  0.00000000000E+00 0.  1.
         23    2    1    2    0    0 -0.25627010568E+02 -0.63198953763E+01  0.88221304203E+02  0.14175725621E+03  0.10777493412E+03 0.  0.
         23    2    1    2    0    0  0.23755092289E+02 -0.14195251865E+02  0.10312662455E+03  0.13942462078E+03  0.89656648407E+02 0.  0.
        -13    1    4    4    0    0  0.53636760108E+02 -0.22094805210E+02  0.86989398671E+02  0.10455734280E+03  0.00000000000E+00 0.  1.
         13    1    4    4    0    0 -0.29881667819E+02  0.78995533451E+01  0.16137225877E+02  0.34867277980E+02  0.00000000000E+00 0. -1.
        -13    1    3    3    0    0  0.16270384837E+02  0.29348048890E+02 -0.45824037412E+01  0.33867858220E+02  0.00000000000E+00 0.  1.
         13    1    3    3    0    0 -0.41897395405E+02 -0.35667944266E+02  0.92803707944E+02  0.10788939799E+03  0.00000000000E+00 0. -1.
         21    1    1    2  502  501  0.18719182788E+01  0.20515147241E+02  0.16001269240E+03  0.16133331049E+03  0.00000000000E+00 0. -1.
<scales pt_clust_5="13000.00000" pt_clust_6="13000.00000" pt_clust_7="13000.00000" pt_clust_8="13000.00000" pt_clust_9="20.60037"></scales>
<clustering>
<clus scale="   20.600">  1  9  2 -1</clus>
<clus scale="   89.657">  5  6 -1 -1</clus>
<clus scale="   93.073">  1  5  2 -1</clus>
<clus scale="  107.775">  7  8 -1 -1</clus>
<clus scale="   20.600">  1  5  2 -1</clus>
</clustering>
</event>
<event>
 9    1  0.9000149E-006  0.1471540E+03  0.7546771E-02  0.1218440E+00
          2   -1    0    0  502    0  0.00000000000E+00  0.00000000000E+00  0.42780620268E+03  0.42780620268E+03  0.00000000000E+00 0. -1.
         -2   -1    0    0    0  501 -0.00000000000E+00 -0.00000000000E+00 -0.14191969327E+03  0.14191969327E+03  0.00000000000E+00 0.  1.
         23    2    1    2    0    0  0.41088046490E+02  0.42199940965E+02 -0.50104716180E+02  0.11924751612E+03  0.90776786328E+02 0.  0.
         23    2    1    2    0    0  0.38618089145E+02  0.55277986253E+02  0.29955353131E+02  0.11955094127E+03  0.94064296119E+02 0.  0.
        -13    1    4    4    0    0  0.27177503024E+02 -0.72044502964E+01  0.46111518025E+02  0.54007340883E+02  0.00000000000E+00 0. -1.
         13    1    4    4    0    0  0.11440586122E+02  0.62482436549E+02 -0.16156164894E+02  0.65543600389E+02  0.00000000000E+00 0.  1.
        -13    1    3    3    0    0  0.13077967499E+02 -0.15567411458E+02  0.16908997942E+02  0.26444124958E+02  0.00000000000E+00 0. -1.
         13    1    3    3    0    0  0.28010078991E+02  0.57767352423E+02 -0.67013714123E+02  0.92803391164E+02  0.00000000000E+00 0.  1.
         21    1    1    2  502  501 -0.79706135636E+02 -0.97477927218E+02  0.30603587247E+03  0.33092743856E+03  0.00000000000E+00 0. -1.
<scales pt_clust_5="13000.00000" pt_clust_6="13000.00000" pt_clust_7="13000.00000" pt_clust_8="13000.00000" pt_clust_9="113.16448"></scales>
<clustering>
<clus scale="   90.777">  7  8 -1 -1</clus>
<clus scale="   94.064">  5  6 -1 -1</clus>
<clus scale="  108.210">  2  7  1 -1</clus>
<clus scale="  113.164">  1  9  2 -1</clus>
<clus scale="  113.164">  1  5  2 -1</clus>
</clustering>
</event>
<event>
 9    1  0.9000149E-006  0.1274279E+03  0.7546771E-02  0.1231326E+00
          2   -1    0    0  502    0  0.00000000000E+00  0.00000000000E+00  0.21556206202E+03  0.21556206202E+03  0.00000000000E+00 0. -1.
         -2   -1    0    0    0  501 -0.00000000000E+00 -0.00000000000E+00 -0.13985578476E+03  0.13985578476E+03  0.00000000000E+00 0.  1.
         23    2    1    2    0    0 -0.89285453337E+02 -0.52870482806E+02 -0.39833286577E+02  0.14437342281E+03  0.92140188657E+02 0.  0.
         23    2    1    2    0    0  0.49807312660E+02  0.43732759135E+02  0.31591539446E+02  0.11782804996E+03  0.92152598315E+02 0.  0.
        -11    1    3    3    0    0 -0.57839827215E+02 -0.46110001191E+02  0.19839285754E+02  0.76584431064E+02  0.00000000000E+00 0. -1.
         11    1    3    3    0    0 -0.31445626122E+02 -0.67604816142E+01 -0.59672572331E+02  0.67788991750E+02  0.00000000000E+00 0.  1.
        -13    1    4    4    0    0  0.20089909822E+01 -0.27567412858E+02  0.64597339450E+01  0.28385321191E+02  0.00000000000E+00 0. -1.
         13    1    4    4    0    0  0.47798321678E+02  0.71300171993E+02  0.25131805501E+02  0.89442728767E+02  0.00000000000E+00 0.  1.
         21    1    1    2  502  501  0.39478140677E+02  0.91377236707E+01  0.83948024393E+02  0.93216374016E+02  0.00000000000E+00 0.  1.
<scales pt_clust_5="13000.00000" pt_clust_6="13000.00000" pt_clust_7="13000.00000" pt_clust_8="13000.00000" pt_clust_9="40.52187"></scales>
<clustering>
<clus scale="   40.522">  1  9  2 -1</clus>
<clus scale="   92.140">  5  6 -1 -1</clus>
<clus scale="   92.153">  7  8 -1 -1</clus>
<clus scale="  127.419">  2  5  1 -1</clus>
<clus scale="   40.522">  1  5  2 -1</clus>
</clustering>
</event>
<event>
 9    1  0.9000149E-006  0.1041636E+03  0.7546771E-02  0.1272909E+00
          1   -1    0    0  502    0  0.00000000000E+00  0.00000000000E+00  0.47010975529E+03  0.47010975529E+03  0.00000000000E+00 0. -1.
         -1   -1    0    0    0  501 -0.00000000000E+00 -0.00000000000E+00 -0.34502556960E+02  0.34502556960E+02  0.00000000000E+00 0.  1.
         23    2    1    2    0    0  0.46559375418E+02  0.15484655777E+02  0.87840738476E+02  0.13453911051E+03  0.89315322968E+02 0.  0.
         23    2    1    2    0    0 -0.52013632693E+02  0.42320698133E+01  0.30176957449E+03  0.31973224770E+03  0.91872225028E+02 0.  0.
        -11    1    3    3    0    0  0.46178698708E+02  0.48985438735E+02  0.49116604723E+02  0.83333584358E+02  0.00000000000E+00 0.  1.
         11    1    3    3    0    0  0.38067670983E+00 -0.33500782958E+02  0.38724133753E+02  0.51205526152E+02  0.00000000000E+00 0. -1.
        -13    1    4    4    0    0 -0.39184725227E+02 -0.42118721150E+02  0.16862184732E+03  0.17816497062E+03  0.00000000000E+00 0.  1.
         13    1    4    4    0    0 -0.12828907466E+02  0.46350790964E+02  0.13314772716E+03  0.14156727707E+03  0.00000000000E+00 0. -1.
         21    1    1    2  502  501  0.54542572751E+01 -0.19716725590E+02  0.45996885369E+02  0.50340954045E+02  0.00000000000E+00 0. -1.
<scales pt_clust_5="13000.00000" pt_clust_6="13000.00000" pt_clust_7="13000.00000" pt_clust_8="13000.00000" pt_clust_9="20.45723"></scales>
<clustering>
<clus scale="   20.457">  1  9  2 -1</clus>
<clus scale="   89.315">  5  6 -1 -1</clus>
<clus scale="   91.872">  7  8 -1 -1</clus>
<clus scale="  101.916">  2  5  1 -1</clus>
<clus scale="   20.457">  1  5  2 -1</clus>
</clustering>
</event>
<event>
 9    1  0.9000149E-006  0.1326602E+03  0.7546771E-02  0.1225509E+00
          1   -1    0    0  502    0  0.00000000000E+00  0.00000000000E+00  0.14860087709E+03  0.14860087709E+03  0.00000000000E+00 0. -1.
         -1   -1    0    0    0  501 -0.00000000000E+00 -0.00000000000E+00 -0.44255453547E+03  0.44255453547E+03  0.00000000000E+00 0.  1.
         23    2    1    2    0    0 -0.89768933208E+02  0.41508824206E+02 -0.39480210863E+03  0.41541332857E+03  0.83175024595E+02 0.  0.
         23    2    1    2    0    0  0.65574755561E+02 -0.25976671664E+02  0.80944201258E+02  0.14077373942E+03  0.91051886062E+02 0.  0.
        -11    1    4    4    0    0  0.20189670838E+02 -0.48287364389E+02  0.94243154554E+01  0.53179978282E+02  0.00000000000E+00 0.  1.
         11    1    4    4    0    0  0.45385084723E+02  0.22310692725E+02  0.71519885803E+02  0.87593761139E+02  0.00000000000E+00 0. -1.
        -13    1    3    3    0    0 -0.44268876439E+02 -0.23062266231E+02 -0.16730862427E+03  0.17459604034E+03  0.00000000000E+00 0.  1.
         13    1    3    3    0    0 -0.45500056769E+02  0.64571090437E+02 -0.22749348436E+03  0.24081728823E+03  0.00000000000E+00 0. -1.
         21    1    1    2  502  501  0.24194177647E+02 -0.15532152542E+02  0.19904248982E+02  0.34968344572E+02  0.00000000000E+00 0.  1.
<scales pt_clust_5="13000.00000" pt_clust_6="13000.00000" pt_clust_7="13000.00000" pt_clust_8="13000.00000" pt_clust_9="28.75076"></scales>
<clustering>
<clus scale="   28.751">  1  9  2 -1</clus>
<clus scale="   83.175">  7  8 -1 -1</clus>
<clus scale="   91.052">  5  6 -1 -1</clus>
<clus scale="  127.383">  2  7  1 -1</clus>
<clus scale="   28.751">  1  5  2 -1</clus>
</clustering>
</event>
<event>
 9    1  0.9000149E-006  0.1926178E+03  0.7546771E-02  0.1156132E+00
          2   -1    0    0  502    0  0.00000000000E+00  0.00000000000E+00  0.12425166933E+03  0.12425166933E+03  0.00000000000E+00 0. -1.
         -2   -1    0    0    0  501 -0.00000000000E+00 -0.00000000000E+00 -0.95797826232E+03  0.95797826232E+03  0.00000000000E+00 0.  1.
         23    2    1    2    0    0 -0.14098951613E+03  0.91521779042E+02 -0.62747399318E+03  0.65621575627E+03  0.92958200077E+02 0.  0.
         23    2    1    2    0    0  0.12805067748E+03 -0.11378112795E+03 -0.28383131104E+03  0.34427465864E+03  0.92853144114E+02 0.  0.
        -11    1    3    3    0    0 -0.97412250893E+02  0.18657730152E+02 -0.42952925027E+03  0.44083175289E+03  0.00000000000E+00 0.  1.
         11    1    3    3    0    0 -0.43577265233E+02  0.72864048889E+02 -0.19794474291E+03  0.21538400338E+03  0.00000000000E+00 0. -1.
        -13    1    4    4    0    0  0.10859669049E+03 -0.61828871090E+02 -0.24947354520E+03  0.27902168418E+03  0.00000000000E+00 0.  1.
         13    1    4    4    0    0  0.19453986990E+02 -0.51952256858E+02 -0.34357765843E+02  0.65252974463E+02  0.00000000000E+00 0. -1.
         21    1    1    2  502  501  0.12938838646E+02  0.22259348907E+02  0.77578711235E+02  0.81739516735E+02  0.00000000000E+00 0. -1.
<scales pt_clust_5="13000.00000" pt_clust_6="13000.00000" pt_clust_7="13000.00000" pt_clust_8="13000.00000" pt_clust_9="25.74669"></scales>
<clustering>
<clus scale="   25.747">  1  9  2 -1</clus>
<clus scale="   92.853">  7  8 -1 -1</clus>
<clus scale="   92.958">  5  6 -1 -1</clus>
<clus scale="  192.567">  1  7  2 -1</clus>
<clus scale="   25.747">  1  5  2 -1</clus>
</clustering>
</event>
<event>
 9    1  0.9000149E-006  0.9894331E+02  0.7546771E-02  0.1283101E+00
          1   -1    0    0  502    0  0.00000000000E+00  0.00000000000E+00  0.20104331641E+03  0.20104331641E+03  0.00000000000E+00 0. -1.
         -1   -1    0    0    0  501 -0.00000000000E+00 -0.00000000000E+00 -0.73716473381E+02  0.73716473381E+02  0.00000000000E+00 0.  1.
         23    2    1    2    0    0 -0.16033834937E+02  0.30744538171E+02  0.33527101312E+02  0.10432485243E+03  0.92505663734E+02 0.  0.
         23    2    1    2    0    0  0.43624028188E+02 -0.77230283747E+01  0.48277832072E+02  0.11243965363E+03  0.91374097182E+02 0.  0.
        -11    1    4    4    0    0  0.26272974501E+01 -0.22553677423E+02  0.62567914352E+02  0.66560611202E+02  0.00000000000E+00 0. -1.
         11    1    4    4    0    0  0.40996730738E+02  0.14830649048E+02 -0.14290082280E+02  0.45879042426E+02  0.00000000000E+00 0.  1.
        -11    1    3    3    0    0 -0.39200515372E+02  0.38411938848E+02 -0.86857478039E+01  0.55566173761E+02  0.00000000000E+00 0. -1.
         11    1    3    3    0    0  0.23166680435E+02 -0.76674006768E+01  0.42212849116E+02  0.48758678674E+02  0.00000000000E+00 0.  1.
         21    1    1    2  502  501 -0.27590193251E+02 -0.23021509796E+02  0.45521909641E+02  0.57995283724E+02  0.00000000000E+00 0. -1.
<scales pt_clust_5="13000.00000" pt_clust_6="13000.00000" pt_clust_7="13000.00000" pt_clust_8="13000.00000" pt_clust_9="35.93339"></scales>
<clustering>
<clus scale="   35.933">  1  9  2 -1</clus>
<clus scale="   91.374">  5  6 -1 -1</clus>
<clus scale="   92.506">  7  8 -1 -1</clus>
<clus scale="   97.886">  1  5  2 -1</clus>
<clus scale="   35.933">  1  5  2 -1</clus>
</clustering>
</event>
<event>
 9    1  0.9000149E-006  0.1094831E+03  0.7546771E-02  0.1263117E+00
          1   -1    0    0  502    0  0.00000000000E+00  0.00000000000E+00  0.17914597081E+03  0.17914597081E+03  0.00000000000E+00 0. -1.
         -1   -1    0    0    0  501 -0.00000000000E+00 -0.00000000000E+00 -0.11415126499E+03  0.11415126499E+03  0.00000000000E+00 0.  1.
         23    2    1    2    0    0  0.49583154498E+02  0.34508857419E+02 -0.26288958418E+02  0.11133930905E+03  0.89755122164E+02 0.  0.
         23    2    1    2    0    0 -0.51825775195E+02 -0.11983368909E+02  0.23198718394E+02  0.11020845406E+03  0.93692105887E+02 0.  0.
        -11    1    3    3    0    0  0.62575241809E+02 -0.81046063205E+01 -0.20876068933E+02  0.66461686596E+02  0.00000000000E+00 0.  1.
         11    1    3    3    0    0 -0.12992087311E+02  0.42613463739E+02 -0.54128894853E+01  0.44877622454E+02  0.00000000000E+00 0. -1.
        -13    1    4    4    0    0 -0.11381617655E+02 -0.49081734619E+02 -0.60260814195E+00  0.50387707134E+02  0.00000000000E+00 0.  1.
         13    1    4    4    0    0 -0.40444157540E+02  0.37098365710E+02  0.23801326536E+02  0.59820746923E+02  0.00000000000E+00 0. -1.
         21    1    1    2  502  501  0.22426206971E+01 -0.22525488510E+02  0.68084945851E+02  0.71749472693E+02  0.00000000000E+00 0.  1.
<scales pt_clust_5="13000.00000" pt_clust_6="13000.00000" pt_clust_7="13000.00000" pt_clust_8="13000.00000" pt_clust_9="22.63685"></scales>
<clustering>
<clus scale="   22.637">  1  9  2 -1</clus>
<clus scale="   89.755">  5  6 -1 -1</clus>
<clus scale="   93.692">  7  8 -1 -1</clus>
<clus scale="  106.134">  2  5  1 -1</clus>
<clus scale="   22.637">  1  5  2 -1</clus>
</clustering>
</event>
<event>
 9    1  0.9000149E-006  0.1053517E+03  0.7546771E-02  0.1269599E+00
         -2   -1    0    0    0  501 -0.00000000000E+00  0.00000000000E+00  0.17723737225E+03  0.17723737225E+03  0.00000000000E+00 0.  1.
          2   -1    0    0  502    0  0.00000000000E+00 -0.00000000000E+00 -0.17707239367E+03  0.17707239367E+03  0.00000000000E+00 0. -1.
         23    2    1    2    0    0 -0.52191236372E+01 -0.48414320794E+02  0.11457815320E+03  0.15498482614E+03  0.92309032242E+02 0.  0.
         23    2    1    2    0    0 -0.36958277394E+02  0.64242593624E+02 -0.85852296207E+02  0.14598460649E+03  0.91912259606E+02 0.  0.
        -11    1    4    4    0    0 -0.40933189958E+02  0.41978784327E+02 -0.10237492244E+03  0.11797613792E+03  0.00000000000E+00 0. -1.
         11    1    4    4    0    0  0.39749125645E+01  0.22263809298E+02  0.16522626233E+02  0.28008468576E+02  0.00000000000E+00 0.  1.
        -13    1    3    3    0    0 -0.45938189064E+02 -0.39456291403E+02  0.52164716478E+02  0.79926677593E+02  0.00000000000E+00 0.  1.
         13    1    3    3    0    0  0.40719065427E+02 -0.89580293913E+01  0.62413436726E+02  0.75058148550E+02  0.00000000000E+00 0. -1.
         21    1    1    2  502  501  0.42177401031E+02 -0.15828272830E+02 -0.28560878425E+02  0.53340333285E+02  0.00000000000E+00 0.  1.
<scales pt_clust_5="13000.00000" pt_clust_6="13000.00000" pt_clust_7="13000.00000" pt_clust_8="13000.00000" pt_clust_9="45.04961"></scales>
<clustering>
<clus scale="   45.050">  2  9  1 -1</clus>
<clus scale="   91.912">  5  6 -1 -1</clus>
<clus scale="   92.309">  7  8 -1 -1</clus>
<clus scale="  105.004">  2  5  1 -1</clus>
<clus scale="   45.050">  2  5  1 -1</clus>
</clustering>
</event>
<event>
 9    1  0.9000149E-006  0.1092500E+03  0.7546771E-02  0.1263018E+00
          1   -1    0    0  502    0  0.00000000000E+00  0.00000000000E+00  0.83037307322E+03  0.83037307322E+03  0.00000000000E+00 0. -1.
         -1   -1    0    0    0  501 -0.00000000000E+00 -0.00000000000E+00 -0.26648099555E+02  0.26648099555E+02  0.00000000000E+00 0.  1.
         23    2    1    2    0    0 -0.15977652867E+02 -0.67554072173E+02  0.17028713300E+03  0.20503964540E+03  0.90690189445E+02 0.  0.
         23    2    1    2    0    0  0.45050734979E+02  0.26465348784E+02  0.46790670774E+03  0.47896683649E+03  0.87991817265E+02 0.  0.
        -13    1    4    4    0    0 -0.25145476240E+02 -0.42575026426E+01  0.13050748222E+03  0.13297602874E+03  0.00000000000E+00 0. -1.
         13    1    4    4    0    0  0.70196211219E+02  0.30722851427E+02  0.33739922552E+03  0.34599080775E+03  0.00000000000E+00 0.  1.
        -13    1    3    3    0    0  0.20399711713E+02 -0.13033751927E+02  0.18250686121E+01  0.24276692581E+02  0.00000000000E+00 0.  1.
         13    1    3    3    0    0 -0.36377364580E+02 -0.54520320247E+02  0.16846206438E+03  0.18076295281E+03  0.00000000000E+00 0. -1.
         21    1    1    2  502  501 -0.29073082112E+02  0.41088723389E+02  0.16553113293E+03  0.17301469089E+03  0.00000000000E+00 0. -1.
<scales pt_clust_5="13000.00000" pt_clust_6="13000.00000" pt_clust_7="13000.00000" pt_clust_8="13000.00000" pt_clust_9="50.33416"></scales>
<clustering>
<clus scale="   50.334">  1  9  2 -1</clus>
<clus scale="   87.992">  5  6 -1 -1</clus>
<clus scale="   90.690">  7  8 -1 -1</clus>
<clus scale="  107.021">  1  5  2 -1</clus>
<clus scale="   50.334">  1  5  2 -1</clus>
</clustering>
</event>
<event>
 9    1  0.9000149E-006  0.1400964E+03  0.7546771E-02  0.1213311E+00
          1   -1    0    0  502    0  0.00000000000E+00  0.00000000000E+00  0.15543026630E+03  0.15543026630E+03  0.00000000000E+00 0. -1.
         -1   -1    0    0    0  501 -0.00000000000E+00 -0.00000000000E+00 -0.15680239805E+03  0.15680239805E+03  0.00000000000E+00 0.  1.
         23    2    1    2    0    0  0.76361534846E+02 -0.78633708492E+02 -0.17788667715E+02  0.14329455390E+03  0.90567921270E+02 0.  0.
         23    2    1    2    0    0 -0.86551954935E+02  0.58118903185E+02 -0.36502701555E+01  0.13848521887E+03  0.91081192143E+02 0.  0.
        -11    1    3    3    0    0  0.85897445459E+02 -0.31989803710E+02 -0.25320225704E+02  0.95093808986E+02  0.00000000000E+00 0.  1.
         11    1    3    3    0    0 -0.95359106130E+01 -0.46643904782E+02  0.75315579890E+01  0.48200744914E+02  0.00000000000E+00 0. -1.
        -11    1    4    4    0    0 -0.20792349369E+02  0.59129510060E+02 -0.27608668410E+02  0.68489848325E+02  0.00000000000E+00 0.  1.
         11    1    4    4    0    0 -0.65759605566E+02 -0.10106068756E+01  0.23958398255E+02  0.69995370542E+02  0.00000000000E+00 0. -1.
         21    1    1    2  502  501  0.10190420089E+02  0.20514805307E+02  0.20066806119E+02  0.30452891590E+02  0.00000000000E+00 0.  1.
<scales pt_clust_5="13000.00000" pt_clust_6="13000.00000" pt_clust_7="13000.00000" pt_clust_8="13000.00000" pt_clust_9="22.90637"></scales>
<clustering>
<clus scale="   22.906">  1  9  2 -1</clus>
<clus scale="   90.568">  5  6 -1 -1</clus>
<clus scale="   91.081">  7  8 -1 -1</clus>
<clus scale="  139.763">  2  5  1 -1</clus>
<clus scale="   22.906">  1  5  2 -1</clus>
</clustering>
</event>
<event>
 9    1  0.9000149E-006  0.9480746E+02  0.7546771E-02  0.1292962E+00
          2   -1    0    0  502    0  0.00000000000E+00  0.00000000000E+00  0.39134775421E+03  0.39134775421E+03  0.00000000000E+00 0. -1.
         -2   -1    0    0    0  501 -0.00000000000E+00 -0.00000000000E+00 -0.75279935419E+02  0.75279935419E+02  0.00000000000E+00 0.  1.
         23    2    1    2    0    0 -0.21586332520E+02 -0.16181077256E+02 -0.18728336977E+02  0.97217963286E+02  0.91502922176E+02 0.  0.
         23    2    1    2    0    0 -0.76363301890E+01  0.31868136820E+02  0.12463559070E+03  0.15664809690E+03  0.89054500787E+02 0.  0.
        -11    1    3    3    0    0  0.29824608819E+02  0.96826852163E+01 -0.23913112779E+02  0.39434739089E+02  0.00000000000E+00 0. -1.
         11    1    3    3    0    0 -0.51410941339E+02 -0.25863762472E+02  0.51847758025E+01  0.57783224198E+02  0.00000000000E+00 0.  1.
        -11    1    4    4    0    0  0.32508154438E+02  0.39188674034E+02  0.88694307709E+02  0.10227029137E+03  0.00000000000E+00 0. -1.
         11    1    4    4    0    0 -0.40144484627E+02 -0.73205372147E+01  0.35941282995E+02  0.54377805531E+02  0.00000000000E+00 0.  1.
         21    1    1    2  502  501  0.29222662709E+02 -0.15687059564E+02  0.21016056506E+03  0.21276162944E+03  0.00000000000E+00 0. -1.
<scales pt_clust_5="13000.00000" pt_clust_6="13000.00000" pt_clust_7="13000.00000" pt_clust_8="13000.00000" pt_clust_9="33.16697"></scales>
<clustering>
<clus scale="   33.167">  1  9  2 -1</clus>
<clus scale="   89.055">  7  8 -1 -1</clus>
<clus scale="   91.503">  5  6 -1 -1</clus>
<clus scale="   92.447">  1  7  2 -1</clus>
<clus scale="   33.167">  1  5  2 -1</clus>
</clustering>
</event>
<event>
 9    1  0.9000149E-006  0.1177678E+03  0.7546771E-02  0.1247282E+00
          1   -1    0    0  502    0  0.00000000000E+00  0.00000000000E+00  0.45503610357E+03  0.45503610357E+03  0.00000000000E+00 0. -1.
         -1   -1    0    0    0  501 -0.00000000000E+00 -0.00000000000E+00 -0.13605414943E+03  0.13605414943E+03  0.00000000000E+00 0.  1.
         23    2    1    2    0    0  0.77818170835E+02 -0.56594876247E+01 -0.91444053283E+02  0.14953045647E+03  0.88936185090E+02 0.  0.
         23    2    1    2    0    0 -0.56514634960E+02  0.23132182391E+02  0.18722856477E+03  0.21666819128E+03  0.90341395950E+02 0.  0.
        -13    1    3    3    0    0 -0.18780522252E+02  0.80760420767E+01 -0.11977933616E+02  0.23693909880E+02  0.00000000000E+00 0. -1.
         13    1    3    3    0    0  0.96598693087E+02 -0.13735529701E+02 -0.79466119667E+02  0.12583654659E+03  0.00000000000E+00 0.  1.
        -13    1    4    4    0    0 -0.60339589428E+02 -0.12642974011E+02  0.66446958246E+02  0.90641652149E+02  0.00000000000E+00 0. -1.
         13    1    4    4    0    0  0.38249544680E+01  0.35775156402E+02  0.12078160652E+03  0.12602653913E+03  0.00000000000E+00 0.  1.
         21    1    1    2  502  501 -0.21303535874E+02 -0.17472694766E+02  0.22319744266E+03  0.22489160525E+03  0.00000000000E+00 0.  1.
<scales pt_clust_5="13000.00000" pt_clust_6="13000.00000" pt_clust_7="13000.00000" pt_clust_8="13000.00000" pt_clust_9="27.55242"></scales>
<clustering>
<clus scale="   27.552">  1  9  2 -1</clus>
<clus scale="   88.936">  5  6 -1 -1</clus>
<clus scale="   90.341">  7  8 -1 -1</clus>
<clus scale="  116.693">  2  5  1 -1</clus>
<clus scale="   27.552">  1  5  2 -1</clus>
</clustering>
</event>
<event>
 9    1  0.9000149E-006  0.1032622E+03  0.7546771E-02  0.1275460E+00
         -1   -1    0    0    0  501 -0.00000000000E+00  0.00000000000E+00  0.55919725225E+02  0.55919725225E+02  0.00000000000E+00 0.  1.
          1   -1    0    0  502    0  0.00000000000E+00 -0.00000000000E+00 -0.27287714842E+03  0.27287714842E+03  0.00000000000E+00 0. -1.
         23    2    1    2    0    0  0.36845718148E+02 -0.34690293004E+02 -0.81423985967E+02  0.13422682736E+03  0.93946539684E+02 0.  0.
         23    2    1    2    0    0 -0.17024016254E+01  0.43216683909E+02 -0.11754698333E+03  0.15418112996E+03  0.89910775809E+02 0.  0.
        -11    1    4    4    0    0  0.42097851384E+02  0.66698444274E+01 -0.46797771303E+02  0.63298872934E+02  0.00000000000E+00 0.  1.
         11    1    4    4    0    0 -0.43800253009E+02  0.36546839481E+02 -0.70749212023E+02  0.90882257023E+02  0.00000000000E+00 0. -1.
        -13    1    3    3    0    0  0.37029769009E+02 -0.61615528168E+02 -0.33616642606E+02  0.79358400717E+02  0.00000000000E+00 0.  1.
         13    1    3    3    0    0 -0.18405086125E+00  0.26925235164E+02 -0.47807343361E+02  0.54868426646E+02  0.00000000000E+00 0. -1.
         21    1    1    2  502  501 -0.35143316523E+02 -0.85263909049E+01 -0.17986453905E+02  0.40388916328E+02  0.00000000000E+00 0. -1.
<scales pt_clust_5="13000.00000" pt_clust_6="13000.00000" pt_clust_7="13000.00000" pt_clust_8="13000.00000" pt_clust_9="36.16285"></scales>
<clustering>
<clus scale="   36.163">  1  9  2 -1</clus>
<clus scale="   89.911">  5  6 -1 -1</clus>
<clus scale="   93.947">  7  8 -1 -1</clus>
<clus scale="   99.605">  2  5  1 -1</clus>
<clus scale="   99.605">  2  5  1 -1</clus>
</clustering>
</event>
<event>
 9    1  0.9000149E-006  0.1332963E+03  0.7546771E-02  0.1226783E+00
          2   -1    0    0  502    0  0.00000000000E+00  0.00000000000E+00  0.80783505688E+02  0.80783505688E+02  0.00000000000E+00 0. -1.
         -2   -1    0    0    0  501 -0.00000000000E+00 -0.00000000000E+00 -0.31574239801E+03  0.31574239801E+03  0.00000000000E+00 0.  1.
         23    2    1    2    0    0  0.41709256183E+01  0.90929550528E+02 -0.89899783535E+02  0.15699890784E+03  0.91000583539E+02 0.  0.
         23    2    1    2    0    0 -0.51212753015E+02 -0.62940170447E+02 -0.82844723921E+02  0.15665982137E+03  0.10533204747E+03 0.  0.
        -11    1    4    4    0    0  0.24898053294E+02  0.79911905841E+01 -0.30564401658E+02  0.40223809287E+02  0.00000000000E+00 0. -1.
         11    1    4    4    0    0 -0.76110806309E+02 -0.70931361032E+02 -0.52280322263E+02  0.11643601209E+03  0.00000000000E+00 0.  1.
        -13    1    3    3    0    0 -0.11900848354E+02  0.58305143482E+02 -0.10249001427E+03  0.11851296543E+03  0.00000000000E+00 0.  1.
         13    1    3    3    0    0  0.16071773972E+02  0.32624407046E+02  0.12590230739E+02  0.38485942418E+02  0.00000000000E+00 0. -1.
         21    1    1    2  502  501  0.47041827396E+02 -0.27989380081E+02 -0.62214384864E+02  0.82867174479E+02  0.00000000000E+00 0. -1.
<scales pt_clust_5="13000.00000" pt_clust_6="13000.00000" pt_clust_7="13000.00000" pt_clust_8="13000.00000" pt_clust_9="54.73882"></scales>
<clustering>
<clus scale="   54.739">  2  9  1 -1</clus>
<clus scale="   91.001">  7  8 -1 -1</clus>
<clus scale="  105.332">  5  6 -1 -1</clus>
<clus scale="  122.287">  2  7  1 -1</clus>
<clus scale="  133.296">  1  5  2 -1</clus>
</clustering>
</event>
<event>
 9    1  0.9000149E-006  0.2327409E+03  0.7546771E-02  0.1124808E+00
          1   -1    0    0  502    0  0.00000000000E+00  0.00000000000E+00  0.88832657074E+03  0.88832657074E+03  0.00000000000E+00 0. -1.
         -1   -1    0    0    0  501 -0.00000000000E+00 -0.00000000000E+00 -0.88607724465E+02  0.88607724465E+02  0.00000000000E+00 0.  1.
         23    2    1    2    0    0 -0.20078279536E+03 -0.46916012183E+02  0.19930781847E+03  0.30067699712E+03  0.90378133310E+02 0.  0.
         23    2    1    2    0    0  0.20915488718E+03  0.98179105111E+02  0.41524908937E+03  0.48394780778E+03  0.91590233734E+02 0.  0.
        -11    1    3    3    0    0 -0.63290367338E+02 -0.34203390463E+02  0.20585091500E+02  0.74828393735E+02  0.00000000000E+00 0. -1.
         11    1    3    3    0    0 -0.13749242803E+03 -0.12712621720E+02  0.17872272697E+03  0.22584860338E+03  0.00000000000E+00 0.  1.
        -13    1    4    4    0    0  0.13132958760E+03  0.46006246829E+02  0.16000965954E+03  0.21205453655E+03  0.00000000000E+00 0.  1.
         13    1    4    4    0    0  0.77825299584E+02  0.52172858281E+02  0.25523942983E+03  0.27189327123E+03  0.00000000000E+00 0. -1.
         21    1    1    2  502  501 -0.83720918159E+01 -0.51263092928E+02  0.18516193844E+03  0.19230949031E+03  0.00000000000E+00 0.  1.
<scales pt_clust_5="13000.00000" pt_clust_6="13000.00000" pt_clust_7="13000.00000" pt_clust_8="13000.00000" pt_clust_9="51.94224"></scales>
<clustering>
<clus scale="   51.942">  1  9  2 -1</clus>
<clus scale="   90.378">  5  6 -1 -1</clus>
<clus scale="   91.590">  7  8 -1 -1</clus>
<clus scale="  232.267">  2  5  1 -1</clus>
<clus scale="   51.942">  1  5  2 -1</clus>
</clustering>
</event>
<event>
 9    1  0.9000149E-006  0.9422689E+02  0.7546771E-02  0.1293850E+00
         -2   -1    0    0    0  501 -0.00000000000E+00  0.00000000000E+00  0.15957194375E+03  0.15957194375E+03  0.00000000000E+00 0.  1.
          2   -1    0    0  502    0  0.00000000000E+00 -0.00000000000E+00 -0.13382224765E+03  0.13382224765E+03  0.00000000000E+00 0. -1.
         23    2    1    2    0    0  0.94006807700E+01  0.24709753273E+02  0.76341625103E+02  0.12084824291E+03  0.89873852624E+02 0.  0.
         23    2    1    2    0    0 -0.25414006061E+02 -0.19203376341E+01  0.19615670332E+02  0.97015219266E+02  0.91529333254E+02 0.  0.
        -11    1    4    4    0    0  0.25668665522E+01 -0.44150972017E+02  0.11643362671E+02  0.45732537959E+02  0.00000000000E+00 0. -1.
         11    1    4    4    0    0 -0.27980872613E+02  0.42230634383E+02  0.79723076610E+01  0.51282681307E+02  0.00000000000E+00 0.  1.
        -11    1    3    3    0    0  0.49094106731E+02  0.14554009779E+02  0.52991826914E+02  0.73689783797E+02  0.00000000000E+00 0.  1.
         11    1    3    3    0    0 -0.39693425961E+02  0.10155743493E+02  0.23349798189E+02  0.47158459113E+02  0.00000000000E+00 0. -1.
         21    1    1    2  502  501  0.16013325291E+02 -0.22789415638E+02 -0.70207599333E+02  0.75530729218E+02  0.00000000000E+00 0. -1.
<scales pt_clust_5="13000.00000" pt_clust_6="13000.00000" pt_clust_7="13000.00000" pt_clust_8="13000.00000" pt_clust_9="27.85290"></scales>
<clustering>
<clus scale="   27.853">  2  9  1 -1</clus>
<clus scale="   89.874">  7  8 -1 -1</clus>
<clus scale="   91.529">  5  6 -1 -1</clus>
<clus scale="   92.620">  1  7  2 -1</clus>
<clus scale="   27.853">  2  5  1 -1</clus>
</clustering>
</event>
<event>
 9    1  0.9000149E-006  0.1185212E+03  0.7546771E-02  0.1256063E+00
          1   -1    0    0  502    0  0.00000000000E+00  0.00000000000E+00  0.54885823635E+03  0.54885823635E+03  0.00000000000E+00 0. -1.
         -1   -1    0    0    0  501 -0.00000000000E+00 -0.00000000000E+00 -0.37859576085E+02  0.37859576085E+02  0.00000000000E+00 0.  1.
         23    2    1    2    0    0 -0.24294029783E+02 -0.42765836657E+02  0.88680509078E+02  0.14965827303E+03  0.11006475061E+03 0.  0.
         23    2    1    2    0    0  0.96609769177E+01  0.26668865358E+02  0.35848564963E+03  0.36962196104E+03  0.85462683290E+02 0.  0.
        -13    1    3    3    0    0  0.11910796300E+01 -0.65006189922E+02  0.12364735915E+02  0.66182400177E+02  0.00000000000E+00 0.  1.
         13    1    3    3    0    0 -0.25485109413E+02  0.22240353265E+02  0.76315773163E+02  0.83475872853E+02  0.00000000000E+00 0. -1.
        -13    1    4    4    0    0  0.12972672607E+02  0.57082209447E+02  0.20930734625E+03  0.21733898422E+03  0.00000000000E+00 0. -1.
         13    1    4    4    0    0 -0.33116956891E+01 -0.30413344089E+02  0.14917830339E+03  0.15228297682E+03  0.00000000000E+00 0.  1.
         21    1    1    2  502  501  0.14633052865E+02  0.16096971299E+02  0.63832501553E+02  0.67437578364E+02  0.00000000000E+00 0.  1.
<scales pt_clust_5="13000.00000" pt_clust_6="13000.00000" pt_clust_7="13000.00000" pt_clust_8="13000.00000" pt_clust_9="21.75405"></scales>
<clustering>
<clus scale="   21.754">  1  9  2 -1</clus>
<clus scale="   85.463">  7  8 -1 -1</clus>
<clus scale="   96.109">  1  7  2 -1</clus>
<clus scale="  110.065">  5  6 -1 -1</clus>
<clus scale="   21.754">  1  5  2 -1</clus>
</clustering>
</event>
<event>
 9    1  0.9000149E-006  0.9798307E+02  0.7546771E-02  0.1289050E+00
          2   -1    0    0  502    0  0.00000000000E+00  0.00000000000E+00  0.29362591060E+03  0.29362591060E+03  0.00000000000E+00 0. -1.
         -2   -1    0    0    0  501 -0.00000000000E+00 -0.00000000000E+00 -0.83166993392E+02  0.83166993392E+02  0.00000000000E+00 0.  1.
         23    2    1    2    0    0  0.53434731076E+01  0.56022570646E+02 -0.32476333154E+02  0.10483332485E+03  0.82269269217E+02 0.  0.
         23    2    1    2    0    0 -0.30129920341E+02 -0.36102760010E+02  0.14387125638E+03  0.16791707952E+03  0.72704785290E+02 0.  0.
        -11    1    3    3    0    0  0.30343645002E+02 -0.39466290356E+01  0.31056027022E+01  0.30756421133E+02  0.00000000000E+00 0. -1.
         11    1    3    3    0    0 -0.25000171894E+02  0.59969199682E+02 -0.35581935856E+02  0.74076903718E+02  0.00000000000E+00 0.  1.
        -11    1    4    4    0    0  0.19689285874E+02 -0.28777235888E+02  0.73872291019E+02  0.81687897904E+02  0.00000000000E+00 0.  1.
         11    1    4    4    0    0 -0.49819206214E+02 -0.73255241219E+01  0.69998965358E+02  0.86229181619E+02  0.00000000000E+00 0. -1.
         21    1    1    2  502  501  0.24786447233E+02 -0.19919810636E+02  0.99063993982E+02  0.10404249961E+03  0.00000000000E+00 0.  1.
<scales pt_clust_5="13000.00000" pt_clust_6="13000.00000" pt_clust_7="13000.00000" pt_clust_8="13000.00000" pt_clust_9="31.79885"></scales>
<clustering>
<clus scale="   31.799">  1  9  2 -1</clus>
<clus scale="   72.705">  7  8 -1 -1</clus>
<clus scale="   82.269">  5  6 -1 -1</clus>
<clus scale="   90.102">  1  7  2 -1</clus>
<clus scale="   31.799">  1  5  2 -1</clus>
</clustering>
</event>
<event>
 9    1  0.9000149E-006  0.9119992E+02  0.7546771E-02  0.1300337E+00
         -2   -1    0    0    0  501 -0.00000000000E+00  0.00000000000E+00  0.57868808892E+02  0.57868808892E+02  0.00000000000E+00 0.  1.
          2   -1    0    0  502    0  0.00000000000E+00 -0.00000000000E+00 -0.18983235489E+03  0.18983235489E+03  0.00000000000E+00 0. -1.
         23    2    1    2    0    0  0.20266812286E+01  0.71051565486E+00 -0.48623068570E+02  0.10198507292E+03  0.89622207254E+02 0.  0.
         23    2    1    2    0    0 -0.22693750974E+02 -0.10269246453E+02 -0.52345732006E+02  0.10725609411E+03  0.90240402857E+02 0.  0.
        -13    1    4    4    0    0 -0.57178395365E+02 -0.30927203268E+01 -0.40332710486E+02  0.70040426545E+02  0.00000000000E+00 0.  1.
         13    1    4    4    0    0  0.34484644391E+02 -0.71765261266E+01 -0.12013021520E+02  0.37215667561E+02  0.00000000000E+00 0. -1.
        -13    1    3    3    0    0  0.41123243989E+02  0.10766175358E+02 -0.44281796525E+02  0.61383297659E+02  0.00000000000E+00 0.  1.
         13    1    3    3    0    0 -0.39096562760E+02 -0.10055659704E+02 -0.43412720448E+01  0.40601775266E+02  0.00000000000E+00 0. -1.
         21    1    1    2  502  501  0.20667069746E+02  0.95587307986E+01 -0.30994745425E+02  0.38459996754E+02  0.00000000000E+00 0. -1.
<scales pt_clust_5="13000.00000" pt_clust_6="13000.00000" pt_clust_7="13000.00000" pt_clust_8="13000.00000" pt_clust_9="22.77053"></scales>
<clustering>
<clus scale="   22.771">  2  9  1 -1</clus>
<clus scale="   89.622">  7  8 -1 -1</clus>
<clus scale="   90.240">  5  6 -1 -1</clus>
<clus scale="   90.588">  1  7  2 -1</clus>
<clus scale="   22.771">  2  5  1 -1</clus>
</clustering>
</event>
<event>
 9    1  0.9000149E-006  0.1678147E+03  0.7546771E-02  0.1180374E+00
          2   -1    0    0  502    0  0.00000000000E+00  0.00000000000E+00  0.77972350623E+03  0.77972350623E+03  0.00000000000E+00 0. -1.
         -2   -1    0    0    0  501 -0.00000000000E+00 -0.00000000000E+00 -0.49861081018E+02  0.49861081018E+02  0.00000000000E+00 0.  1.
         23    2    1    2    0    0  0.12814053661E+03  0.51775531022E+02  0.17943179318E+03  0.24440098568E+03  0.91844273979E+02 0.  0.
         23    2    1    2    0    0 -0.14361649495E+03 -0.31248119479E+02  0.46452608452E+03  0.49551492702E+03  0.90268583176E+02 0.  0.
        -11    1    4    4    0    0 -0.98141550756E+02 -0.63160450305E+02  0.32618680057E+03  0.34643734691E+03  0.00000000000E+00 0.  1.
         11    1    4    4    0    0 -0.45474944196E+02  0.31912330826E+02  0.13833928395E+03  0.14907758011E+03  0.00000000000E+00 0. -1.
        -13    1    3    3    0    0  0.54113285944E+02  0.42120048248E+02  0.25210985267E+02  0.73061206931E+02  0.00000000000E+00 0.  1.
         13    1    3    3    0    0  0.74027250668E+02  0.96554827742E+01  0.15422080791E+03  0.17133977875E+03  0.00000000000E+00 0. -1.
         21    1    1    2  502  501  0.15475958341E+02 -0.20527411543E+02  0.85904547508E+02  0.89668674541E+02  0.00000000000E+00 0.  1.
<scales pt_clust_5="13000.00000" pt_clust_6="13000.00000" pt_clust_7="13000.00000" pt_clust_8="13000.00000" pt_clust_9="25.70758"></scales>
<clustering>
<clus scale="   25.708">  1  9  2 -1</clus>
<clus scale="   90.269">  5  6 -1 -1</clus>
<clus scale="   91.844">  7  8 -1 -1</clus>
<clus scale="  166.958">  1  5  2 -1</clus>
<clus scale="   25.708">  1  5  2 -1</clus>
</clustering>
</event>
<event>
 9    1  0.9000149E-006  0.1217495E+03  0.7546771E-02  0.1243378E+00
         -2   -1    0    0    0  501 -0.00000000000E+00  0.00000000000E+00  0.16734772303E+03  0.16734772303E+03  0.00000000000E+00 0.  1.
          2   -1    0    0  502    0  0.00000000000E+00 -0.00000000000E+00 -0.26076168972E+03  0.26076168972E+03  0.00000000000E+00 0. -1.
         23    2    1    2    0    0 -0.53767301498E+02 -0.53848825781E+02  0.10360358461E+03  0.16332248769E+03  0.10074677907E+03 0.  0.
         23    2    1    2    0    0  0.18551148930E+02  0.45785489155E+02 -0.53853809285E+02  0.11713513255E+03  0.91542068793E+02 0.  0.
        -11    1    4    4    0    0 -0.11377729899E+02  0.40749650530E+02  0.12545023504E+02  0.44128951616E+02  0.00000000000E+00 0.  1.
         11    1    4    4    0    0  0.29928878829E+02  0.50358386254E+01 -0.66398832790E+02  0.73006180933E+02  0.00000000000E+00 0. -1.
        -13    1    3    3    0    0  0.17056035333E+02 -0.31431553736E+02 -0.95091246455E-01  0.35761151462E+02  0.00000000000E+00 0. -1.
         13    1    3    3    0    0 -0.70823336831E+02 -0.22417272045E+02  0.10369867586E+03  0.12756133623E+03  0.00000000000E+00 0.  1.
         21    1    1    2  502  501  0.35216152567E+02  0.80633366252E+01 -0.14316374202E+03  0.14765179250E+03  0.00000000000E+00 0. -1.
<scales pt_clust_5="13000.00000" pt_clust_6="13000.00000" pt_clust_7="13000.00000" pt_clust_8="13000.00000" pt_clust_9="36.12748"></scales>
<clustering>
<clus scale="   36.127">  2  9  1 -1</clus>
<clus scale="   91.542">  5  6 -1 -1</clus>
<clus scale="  100.747">  7  8 -1 -1</clus>
<clus scale="  114.250">  2  5  1 -1</clus>
<clus scale="   36.127">  2  5  1 -1</clus>
</clustering>
</event>
<event>
 9    1  0.9000149E-006  0.1679671E+03  0.7546771E-02  0.1180233E+00
          1   -1    0    0  502    0  0.00000000000E+00  0.00000000000E+00  0.48166204804E+03  0.48166204804E+03  0.00000000000E+00 0. -1.
         -1   -1    0    0    0  501 -0.00000000000E+00 -0.00000000000E+00 -0.86624125578E+02  0.86624125578E+02  0.00000000000E+00 0.  1.
         23    2    1    2    0    0 -0.14870742131E+03 -0.91681781000E+00  0.69491257407E+02  0.18873488388E+03  0.93150865963E+02 0.  0.
         23    2    1    2    0    0  0.12332666514E+03 -0.12865854097E+02  0.21005632691E+03  0.26050439547E+03  0.91454267527E+02 0.  0.
        -11    1    3    3    0    0 -0.45957500384E+02 -0.19720667766E+01  0.72584429762E+02  0.85932999092E+02  0.00000000000E+00 0. -1.
         11    1    3    3    0    0 -0.10274992093E+03  0.10552489666E+01 -0.30931723558E+01  0.10280188479E+03  0.00000000000E+00 0.  1.
        -11    1    4    4    0    0  0.25356470235E+02  0.19026209576E+02  0.11851585218E+03  0.12268233146E+03  0.00000000000E+00 0.  1.
         11    1    4    4    0    0  0.97970194908E+02 -0.31892063673E+02  0.91540474725E+02  0.13782206401E+03  0.00000000000E+00 0. -1.
         21    1    1    2  502  501  0.25380756170E+02  0.13782671907E+02  0.11549033814E+03  0.11904689426E+03  0.00000000000E+00 0. -1.
<scales pt_clust_5="13000.00000" pt_clust_6="13000.00000" pt_clust_7="13000.00000" pt_clust_8="13000.00000" pt_clust_9="28.88157"></scales>
<clustering>
<clus scale="   28.882">  1  9  2 -1</clus>
<clus scale="   91.454">  7  8 -1 -1</clus>
<clus scale="   93.151">  5  6 -1 -1</clus>
<clus scale="  167.032">  1  7  2 -1</clus>
<clus scale="   28.882">  1  5  2 -1</clus>
</clustering>
</event>
<event>
 9    1  0.9000149E-006  0.1072674E+03  0.7546771E-02  0.1266319E+00
          1   -1    0    0  502    0  0.00000000000E+00  0.00000000000E+00  0.14704325546E+03  0.14704325546E+03  0.00000000000E+00 0. -1.
         -1   -1    0    0    0  501 -0.00000000000E+00 -0.00000000000E+00 -0.13819614487E+03  0.13819614487E+03  0.00000000000E+00 0.  1.
         23    2    1    2    0    0 -0.58981532197E+02 -0.26089603279E+02 -0.68279351349E+02  0.13032323684E+03  0.90347040352E+02 0.  0.
         23    2    1    2    0    0  0.22832843178E+02  0.20232507387E+02  0.64059550497E+02  0.11603458089E+03  0.91813424240E+02 0.  0.
        -11    1    3    3    0    0 -0.55038515980E+02 -0.55467916456E+02 -0.34601658722E+02  0.85458778271E+02  0.00000000000E+00 0.  1.
         11    1    3    3    0    0 -0.39430162175E+01  0.29378313178E+02 -0.33677692627E+02  0.44864458570E+02  0.00000000000E+00 0. -1.
        -13    1    4    4    0    0  0.10173134567E+02  0.56793022376E+02  0.33382968306E+02  0.66658552568E+02  0.00000000000E+00 0.  1.
         13    1    4    4    0    0  0.12659708610E+02 -0.36560514989E+02  0.30676582191E+02  0.49376028326E+02  0.00000000000E+00 0. -1.
         21    1    1    2  502  501  0.36148689020E+02  0.58570958911E+01  0.13066911449E+02  0.38881582593E+02  0.00000000000E+00 0. -1.
<scales pt_clust_5="13000.00000" pt_clust_6="13000.00000" pt_clust_7="13000.00000" pt_clust_8="13000.00000" pt_clust_9="36.62012"></scales>
<clustering>
<clus scale="   36.620">  1  9  2 -1</clus>
<clus scale="   90.347">  5  6 -1 -1</clus>
<clus scale="   91.813">  7  8 -1 -1</clus>
<clus scale="  106.015">  2  5  1 -1</clus>
<clus scale="   36.620">  1  5  2 -1</clus>
</clustering>
</event>
<event>
 9    1  0.9000149E-006  0.9424401E+02  0.7546771E-02  0.1298436E+00
         -2   -1    0    0    0  501 -0.00000000000E+00  0.00000000000E+00  0.15499081080E+03  0.15499081080E+03  0.00000000000E+00 0.  1.
          2   -1    0    0  502    0  0.00000000000E+00 -0.00000000000E+00 -0.12963517472E+03  0.12963517472E+03  0.00000000000E+00 0. -1.
         23    2    1    2    0    0  0.25806717300E+02  0.14631934462E+02  0.10770836199E+03  0.13802588000E+03  0.81055364673E+02 0.  0.
         23    2    1    2    0    0 -0.87799504382E+01  0.95177419218E+01 -0.59287060630E+02  0.10911487411E+03  0.90683103453E+02 0.  0.
        -11    1    4    4    0    0 -0.35645152052E+02 -0.17400154770E+01  0.73078710646E+01  0.36428141569E+02  0.00000000000E+00 0.  1.
         11    1    4    4    0    0  0.26865201614E+02  0.11257757399E+02 -0.66594931695E+02  0.72686732537E+02  0.00000000000E+00 0. -1.
        -11    1    3    3    0    0 -0.29609435105E+02  0.39863801960E+01  0.38165679615E+02  0.48468845404E+02  0.00000000000E+00 0.  1.
         11    1    3    3    0    0  0.55416152405E+02  0.10645554266E+02  0.69542682380E+02  0.89557034596E+02  0.00000000000E+00 0. -1.
         21    1    1    2  502  501 -0.17026766862E+02 -0.24149676384E+02 -0.23065665283E+02  0.37485231414E+02  0.00000000000E+00 0.  1.
<scales pt_clust_5="13000.00000" pt_clust_6="13000.00000" pt_clust_7="13000.00000" pt_clust_8="13000.00000" pt_clust_9="29.54856"></scales>
<clustering>
<clus scale="   29.549">  2  9  1 -1</clus>
<clus scale="   81.055">  7  8 -1 -1</clus>
<clus scale="   85.020">  1  7  2 -1</clus>
<clus scale="   90.683">  5  6 -1 -1</clus>
<clus scale="   29.549">  2  5  1 -1</clus>
</clustering>
</event>
<event>
 9    1  0.9000149E-006  0.1895974E+03  0.7546771E-02  0.1158894E+00
         -1   -1    0    0    0  501 -0.00000000000E+00  0.00000000000E+00  0.30299188703E+03  0.30299188703E+03  0.00000000000E+00 0.  1.
          1   -1    0    0  502    0  0.00000000000E+00 -0.00000000000E+00 -0.54176438309E+03  0.54176438309E+03  0.00000000000E+00 0. -1.
         23    2    1    2    0    0  0.16258156132E+03 -0.29626752174E+02  0.23277264386E+03  0.29975223440E+03  0.91420948224E+02 0.  0.
         23    2    1    2    0    0 -0.16152451765E+03  0.93242222927E+02 -0.38827189306E+03  0.44020671180E+03  0.90788789147E+02 0.  0.
        -13    1    4    4    0    0 -0.32351285548E+02  0.68711598507E+02 -0.14158402478E+03  0.16066712644E+03  0.00000000000E+00 0.  1.
         13    1    4    4    0    0 -0.12917323210E+03  0.24530624420E+02 -0.24668786828E+03  0.27953958536E+03  0.00000000000E+00 0. -1.
        -13    1    3    3    0    0  0.28358819723E+02 -0.37740728515E+02  0.10097153464E+03  0.11146226291E+03  0.00000000000E+00 0. -1.
         13    1    3    3    0    0  0.13422274159E+03  0.81139763411E+01  0.13180110921E+03  0.18828997149E+03  0.00000000000E+00 0.  1.
         21    1    1    2  502  501 -0.10570436692E+01 -0.63615470753E+02 -0.83273246855E+02  0.10479732393E+03  0.00000000000E+00 0. -1.
<scales pt_clust_5="13000.00000" pt_clust_6="13000.00000" pt_clust_7="13000.00000" pt_clust_8="13000.00000" pt_clust_9="63.62425"></scales>
<clustering>
<clus scale="   63.624">  2  9  1 -1</clus>
<clus scale="   90.789">  5  6 -1 -1</clus>
<clus scale="   91.421">  7  8 -1 -1</clus>
<clus scale="  189.293">  2  5  1 -1</clus>
<clus scale="   63.624">  2  5  1 -1</clus>
</clustering>
</event>
<event>
 9    1  0.9000149E-006  0.9985668E+02  0.7546771E-02  0.1282868E+00
          3   -1    0    0  502    0  0.00000000000E+00  0.00000000000E+00  0.35139425008E+03  0.35139425008E+03  0.00000000000E+00 0. -1.
         -3   -1    0    0    0  501 -0.00000000000E+00 -0.00000000000E+00 -0.36497692702E+02  0.36497692702E+02  0.00000000000E+00 0.  1.
         23    2    1    2    0    0  0.33780754629E+02 -0.41366351895E+01  0.97028223108E+02  0.13694534600E+03  0.90450542157E+02 0.  0.
         23    2    1    2    0    0 -0.20570371210E+02  0.24540224096E+02  0.17184318203E+03  0.19889724224E+03  0.94892944883E+02 0.  0.
        -11    1    4    4    0    0  0.57529105835E+00 -0.33427934104E+02  0.33075754373E+02  0.47029387256E+02  0.00000000000E+00 0.  1.
         11    1    4    4    0    0 -0.21145662269E+02  0.57968158200E+02  0.13876742766E+03  0.15186785498E+03  0.00000000000E+00 0. -1.
        -13    1    3    3    0    0  0.47449775850E+01  0.27892902469E+02 -0.25294133303E+01  0.28406456172E+02  0.00000000000E+00 0.  1.
         13    1    3    3    0    0  0.29035777044E+02 -0.32029537659E+02  0.99557636438E+02  0.10853888982E+03  0.00000000000E+00 0. -1.
         21    1    1    2  502  501 -0.13210383419E+02 -0.20403588907E+02  0.46025152235E+02  0.52049354545E+02  0.00000000000E+00 0. -1.
<scales pt_clust_5="13000.00000" pt_clust_6="13000.00000" pt_clust_7="13000.00000" pt_clust_8="13000.00000" pt_clust_9="24.30680"></scales>
<clustering>
<clus scale="   24.307">  1  9  2 -1</clus>
<clus scale="   90.451">  7  8 -1 -1</clus>
<clus scale="   94.893">  5  6 -1 -1</clus>
<clus scale="   95.645">  2  7  1 -1</clus>
<clus scale="   24.307">  1  5  2 -1</clus>
</clustering>
</event>
<event>
 9    1  0.9000149E-006  0.9946656E+02  0.7546771E-02  0.1281929E+00
          2   -1    0    0  502    0  0.00000000000E+00  0.00000000000E+00  0.59366013974E+03  0.59366013974E+03  0.00000000000E+00 0. -1.
         -2   -1    0    0    0  501 -0.00000000000E+00 -0.00000000000E+00 -0.45290493925E+02  0.45290493925E+02  0.00000000000E+00 0.  1.
         23    2    1    2    0    0  0.75184078208E+00 -0.46074811316E+02  0.37515555321E+02  0.10690131555E+03  0.88865183695E+02 0.  0.
         23    2    1    2    0    0 -0.32052170444E+02  0.26411575582E+02  0.25538473854E+03  0.27391961571E+03  0.89920399440E+02 0.  0.
        -11    1    4    4    0    0 -0.59624057802E+02  0.27156130724E+02  0.13047318011E+03  0.14599909052E+03  0.00000000000E+00 0. -1.
         11    1    4    4    0    0  0.27571887358E+02 -0.74455514196E+00  0.12491155843E+03  0.12792052519E+03  0.00000000000E+00 0.  1.
        -13    1    3    3    0    0  0.42779912461E+02 -0.17679083086E+02  0.47841022407E+01  0.46535561920E+02  0.00000000000E+00 0.  1.
         13    1    3    3    0    0 -0.42028071679E+02 -0.28395728230E+02  0.32731453080E+02  0.60365753632E+02  0.00000000000E+00 0. -1.
         21    1    1    2  502  501  0.31300329662E+02  0.19663235734E+02  0.25546935195E+03  0.25812970241E+03  0.00000000000E+00 0.  1.
<scales pt_clust_5="13000.00000" pt_clust_6="13000.00000" pt_clust_7="13000.00000" pt_clust_8="13000.00000" pt_clust_9="36.96422"></scales>
<clustering>
<clus scale="   36.964">  1  9  2 -1</clus>
<clus scale="   88.865">  7  8 -1 -1</clus>
<clus scale="   89.920">  5  6 -1 -1</clus>
<clus scale="   98.514">  2  7  1 -1</clus>
<clus scale="   36.964">  1  5  2 -1</clus>
</clustering>
</event>
<event>
 9    1  0.9000149E-006  0.1684230E+03  0.7546771E-02  0.1179568E+00
         -1   -1    0    0    0  501 -0.00000000000E+00  0.00000000000E+00  0.19599366579E+03  0.19599366579E+03  0.00000000000E+00 0.  1.
          1   -1    0    0  502    0  0.00000000000E+00 -0.00000000000E+00 -0.26711060049E+03  0.26711060049E+03  0.00000000000E+00 0. -1.
         23    2    1    2    0    0  0.29811729046E+02 -0.14364512568E+03  0.11346560066E+03  0.20638569626E+03  0.90542541214E+02 0.  0.
         23    2    1    2    0    0 -0.18602901524E+02  0.12085616192E+03 -0.16754542829E+03  0.22613691372E+03  0.90078595624E+02 0.  0.
        -13    1    3    3    0    0  0.17526595303E+02 -0.88290590744E+02  0.11922917173E+03  0.14939211943E+03  0.00000000000E+00 0.  1.
         13    1    3    3    0    0  0.12285133743E+02 -0.55354534932E+02 -0.57635710680E+01  0.56993576832E+02  0.00000000000E+00 0. -1.
        -13    1    4    4    0    0 -0.21412996129E+02 -0.25253480923E+01 -0.51491947717E+01  0.22167724128E+02  0.00000000000E+00 0.  1.
         13    1    4    4    0    0  0.28100946053E+01  0.12338151001E+03 -0.16239623351E+03  0.20396918960E+03  0.00000000000E+00 0. -1.
         21    1    1    2  502  501 -0.11208827522E+02  0.22788963754E+02 -0.17037107078E+02  0.30581656283E+02  0.00000000000E+00 0. -1.
<scales pt_clust_5="13000.00000" pt_clust_6="13000.00000" pt_clust_7="13000.00000" pt_clust_8="13000.00000" pt_clust_9="25.39635"></scales>
<clustering>
<clus scale="   25.396">  2  9  1 -1</clus>
<clus scale="   90.079">  7  8 -1 -1</clus>
<clus scale="   90.543">  5  6 -1 -1</clus>
<clus scale="  168.174">  2  7  1 -1</clus>
<clus scale="   25.396">  2  5  1 -1</clus>
</clustering>
</event>
<event>
 9    1  0.9000149E-006  0.1100422E+03  0.7546771E-02  0.1260569E+00
         -2   -1    0    0    0  501 -0.00000000000E+00  0.00000000000E+00  0.59146083567E+02  0.59146083567E+02  0.00000000000E+00 0.  1.
          2   -1    0    0  502    0  0.00000000000E+00 -0.00000000000E+00 -0.30302385202E+03  0.30302385202E+03  0.00000000000E+00 0. -1.
         23    2    1    2    0    0 -0.45164079811E+01 -0.59604033354E+02 -0.62186903277E+02  0.12576195810E+03  0.91519508489E+02 0.  0.
         23    2    1    2    0    0  0.40023263671E+02  0.56226348544E+02 -0.12557569451E+03  0.16991694098E+03  0.91319482457E+02 0.  0.
        -11    1    3    3    0    0  0.16954794181E+02  0.12387797519E+02 -0.43567191811E+02  0.48363444618E+02  0.00000000000E+00 0.  1.
         11    1    3    3    0    0 -0.21471202162E+02 -0.71991830874E+02 -0.18619711466E+02  0.77398513486E+02  0.00000000000E+00 0. -1.
        -13    1    4    4    0    0  0.73075606683E+01  0.73388682632E+02 -0.10279030822E+03  0.12651144867E+03  0.00000000000E+00 0.  1.
         13    1    4    4    0    0  0.32715703003E+02 -0.17162334089E+02 -0.22785386290E+02  0.43405492310E+02  0.00000000000E+00 0. -1.
         21    1    1    2  502  501 -0.35506855690E+02  0.33776848109E+01 -0.56115170666E+02  0.66491036497E+02  0.00000000000E+00 0. -1.
<scales pt_clust_5="13000.00000" pt_clust_6="13000.00000" pt_clust_7="13000.00000" pt_clust_8="13000.00000" pt_clust_9="35.66715"></scales>
<clustering>
<clus scale="   35.667">  2  9  1 -1</clus>
<clus scale="   91.319">  7  8 -1 -1</clus>
<clus scale="   91.520">  5  6 -1 -1</clus>
<clus scale="  109.876">  2  7  1 -1</clus>
<clus scale="   35.667">  2  5  1 -1</clus>
</clustering>
</event>
<event>
 9    1  0.9000149E-006  0.1681550E+03  0.7546771E-02  0.1180435E+00
         -1   -1    0    0    0  501 -0.00000000000E+00  0.00000000000E+00  0.20667625773E+03  0.20667625773E+03  0.00000000000E+00 0.  1.
          1   -1    0    0  502    0  0.00000000000E+00 -0.00000000000E+00 -0.32010636707E+03  0.32010636707E+03  0.00000000000E+00 0. -1.
         23    2    1    2    0    0  0.12596643148E+03  0.68463761169E+02  0.13222775574E+03  0.21562125139E+03  0.91943005224E+02 0.  0.
         23    2    1    2    0    0 -0.12292653934E+03 -0.35956833908E+02 -0.22221650818E+03  0.27096885573E+03  0.87407758744E+02 0.  0.
        -13    1    3    3    0    0  0.28298727151E+02 -0.99904564344E+01 -0.43117070210E+01  0.30318608074E+02  0.00000000000E+00 0. -1.
         13    1    3    3    0    0  0.97667704325E+02  0.78454217603E+02  0.13653946276E+03  0.18530264331E+03  0.00000000000E+00 0.  1.
        -13    1    4    4    0    0 -0.19226170966E+02  0.22029033642E+02 -0.82705724480E+02  0.87722065838E+02  0.00000000000E+00 0.  1.
         13    1    4    4    0    0 -0.10370036838E+03 -0.57985867550E+02 -0.13951078370E+03  0.18324678989E+03  0.00000000000E+00 0. -1.
         21    1    1    2  502  501 -0.30398921330E+01 -0.32506927260E+02 -0.23441356909E+02  0.40192517685E+02  0.00000000000E+00 0.  1.
<scales pt_clust_5="13000.00000" pt_clust_6="13000.00000" pt_clust_7="13000.00000" pt_clust_8="13000.00000" pt_clust_9="32.64876"></scales>
<clustering>
<clus scale="   32.649">  2  9  1 -1</clus>
<clus scale="   87.408">  7  8 -1 -1</clus>
<clus scale="   91.943">  5  6 -1 -1</clus>
<clus scale="  165.719">  2  7  1 -1</clus>
<clus scale="   32.649">  2  5  1 -1</clus>
</clustering>
</event>
<event>
 9    1  0.9000149E-006  0.1232576E+03  0.7546771E-02  0.1238033E+00
          2   -1    0    0  502    0  0.00000000000E+00  0.00000000000E+00  0.47932487536E+03  0.47932487536E+03  0.00000000000E+00 0. -1.
         -2   -1    0    0    0  501 -0.00000000000E+00 -0.00000000000E+00 -0.84992038645E+02  0.84992038645E+02  0.00000000000E+00 0.  1.
         23    2    1    2    0    0 -0.58336888583E+02  0.70295057203E+02 -0.17468042472E+02  0.12832467567E+03  0.88416640063E+02 0.  0.
         23    2    1    2    0    0  0.31503855508E+02 -0.42482306135E+02  0.27711781825E+03  0.29587411785E+03  0.89162599649E+02 0.  0.
        -11    1    4    4    0    0  0.57325672001E+02 -0.46710151201E+02  0.16613540174E+03  0.18184895547E+03  0.00000000000E+00 0.  1.
         11    1    4    4    0    0 -0.25821816493E+02  0.42278450656E+01  0.11098241651E+03  0.11402516238E+03  0.00000000000E+00 0. -1.
        -13    1    3    3    0    0 -0.61005299948E+02  0.37641086949E+02  0.23892406877E+02  0.75560208806E+02  0.00000000000E+00 0. -1.
         13    1    3    3    0    0  0.26684113643E+01  0.32653970254E+02 -0.41360449349E+02  0.52764466859E+02  0.00000000000E+00 0.  1.
         21    1    1    2  502  501  0.26833033076E+02 -0.27812751068E+02  0.13468306094E+03  0.14011812049E+03  0.00000000000E+00 0. -1.
<scales pt_clust_5="13000.00000" pt_clust_6="13000.00000" pt_clust_7="13000.00000" pt_clust_8="13000.00000" pt_clust_9="38.64661"></scales>
<clustering>
<clus scale="   38.647">  1  9  2 -1</clus>
<clus scale="   88.417">  7  8 -1 -1</clus>
<clus scale="   89.163">  5  6 -1 -1</clus>
<clus scale="  122.719">  2  7  1 -1</clus>
<clus scale="   38.647">  1  5  2 -1</clus>
</clustering>
</event>
<event>
 9    1  0.9000149E-006  0.3643796E+03  0.7546771E-02  0.1056916E+00
          2   -1    0    0  502    0  0.00000000000E+00  0.00000000000E+00  0.27051712489E+04  0.27051712489E+04  0.00000000000E+00 0. -1.
         -2   -1    0    0    0  501 -0.00000000000E+00 -0.00000000000E+00 -0.72275077884E+02  0.72275077884E+02  0.00000000000E+00 0.  1.
         23    2    1    2    0    0 -0.11293757700E+03 -0.31362317023E+03  0.66513069456E+03  0.74966973798E+03  0.92149259335E+02 0.  0.
         23    2    1    2    0    0  0.94574004508E+02  0.38268268720E+03  0.14580405724E+04  0.15130670440E+04  0.89996041643E+02 0.  0.
        -11    1    3    3    0    0 -0.90150907292E+02 -0.11611740745E+03  0.27875647431E+03  0.31514379316E+03  0.00000000000E+00 0. -1.
         11    1    3    3    0    0 -0.22786669703E+02 -0.19750576278E+03  0.38637422025E+03  0.43452594482E+03  0.00000000000E+00 0.  1.
        -13    1    4    4    0    0  0.30468981719E+02  0.13425143460E+03  0.35935734640E+03  0.38482399737E+03  0.00000000000E+00 0.  1.
         13    1    4    4    0    0  0.64105022790E+02  0.24843125260E+03  0.10986832260E+04  0.11282430466E+04  0.00000000000E+00 0. -1.
         21    1    1    2  502  501  0.18363572487E+02 -0.69059516979E+02  0.50972490408E+03  0.51470954481E+03  0.00000000000E+00 0. -1.
<scales pt_clust_5="13000.00000" pt_clust_6="13000.00000" pt_clust_7="13000.00000" pt_clust_8="13000.00000" pt_clust_9="71.45934"></scales>
<clustering>
<clus scale="   71.459">  1  9  2 -1</clus>
<clus scale="   89.996">  7  8 -1 -1</clus>
<clus scale="   92.149">  5  6 -1 -1</clus>
<clus scale="  363.841">  1  7  2 -1</clus>
<clus scale="   71.459">  1  5  2 -1</clus>
</clustering>
</event>
<event>
 9    1  0.9000149E-006  0.1905329E+03  0.7546771E-02  0.1159704E+00
         -2   -1    0    0    0  501 -0.00000000000E+00  0.00000000000E+00  0.71414386182E+02  0.71414386182E+02  0.00000000000E+00 0.  1.
          2   -1    0    0  502    0  0.00000000000E+00 -0.00000000000E+00 -0.62146638660E+03  0.62146638660E+03  0.00000000000E+00 0. -1.
         23    2    1    2    0    0  0.15114881290E+03  0.98423381092E+02 -0.27958639640E+03  0.34504250712E+03  0.91392850278E+02 0.  0.
         23    2    1    2    0    0 -0.14689068553E+03 -0.56557655460E+02 -0.23685693423E+03  0.29398278018E+03  0.74491783868E+02 0.  0.
        -11    1    4    4    0    0 -0.11818048818E+03 -0.16485701584E+02 -0.19815959738E+03  0.23131284482E+03  0.00000000000E+00 0.  1.
         11    1    4    4    0    0 -0.28710197346E+02 -0.40071953876E+02 -0.38697336847E+02  0.62669935361E+02  0.00000000000E+00 0. -1.
        -11    1    3    3    0    0  0.86528885158E+02  0.97468308566E+02 -0.22686311962E+03  0.26163752442E+03  0.00000000000E+00 0. -1.
         11    1    3    3    0    0  0.64619927740E+02  0.95507252582E+00 -0.52723276780E+02  0.83404982700E+02  0.00000000000E+00 0.  1.
         21    1    1    2  502  501 -0.42581273672E+01 -0.41865725632E+02 -0.33608669793E+02  0.53855485484E+02  0.00000000000E+00 0.  1.
<scales pt_clust_5="13000.00000" pt_clust_6="13000.00000" pt_clust_7="13000.00000" pt_clust_8="13000.00000" pt_clust_9="42.08171"></scales>
<clustering>
<clus scale="   42.082">  1  9  2 -1</clus>
<clus scale="   74.492">  5  6 -1 -1</clus>
<clus scale="   91.393">  7  8 -1 -1</clus>
<clus scale="  183.028">  2  5  1 -1</clus>
<clus scale="  183.028">  2  5  1 -1</clus>
</clustering>
</event>
<event>
 9    1  0.9000149E-006  0.9826368E+02  0.7546771E-02  0.1287535E+00
          2   -1    0    0  502    0  0.00000000000E+00  0.00000000000E+00  0.28142836517E+03  0.28142836517E+03  0.00000000000E+00 0. -1.
         -2   -1    0    0    0  501 -0.00000000000E+00 -0.00000000000E+00 -0.64041654426E+02  0.64041654426E+02  0.00000000000E+00 0.  1.
         23    2    1    2    0    0 -0.18459100193E+02  0.15065740257E+02  0.86465007032E+01  0.93042613179E+02  0.89523466104E+02 0.  0.
         23    2    1    2    0    0 -0.63261087254E+01 -0.23569592875E+02  0.10078052584E+03  0.14133323239E+03  0.96035528993E+02 0.  0.
        -13    1    3    3    0    0 -0.35626599572E+02 -0.55299891344E+01 -0.29383875670E+02  0.46510724852E+02  0.00000000000E+00 0.  1.
         13    1    3    3    0    0  0.17167499379E+02  0.20595729392E+02  0.38030376374E+02  0.46531888326E+02  0.00000000000E+00 0. -1.
        -13    1    4    4    0    0 -0.29612960710E+02  0.19218076114E+02  0.81726747527E+02  0.89025407345E+02  0.00000000000E+00 0.  1.
         13    1    4    4    0    0  0.23286851985E+02 -0.42787668989E+02  0.19053778316E+02  0.52307825045E+02  0.00000000000E+00 0. -1.
         21    1    1    2  502  501  0.24785208918E+02  0.85038526172E+01  0.10795968420E+03  0.11109417403E+03  0.00000000000E+00 0. -1.
<scales pt_clust_5="13000.00000" pt_clust_6="13000.00000" pt_clust_7="13000.00000" pt_clust_8="13000.00000" pt_clust_9="26.20347"></scales>
<clustering>
<clus scale="   26.203">  1  9  2 -1</clus>
<clus scale="   89.523">  5  6 -1 -1</clus>
<clus scale="   91.910">  2  5  1 -1</clus>
<clus scale="   96.036">  7  8 -1 -1</clus>
<clus scale="   26.203">  1  5  2 -1</clus>
</clustering>
</event>
<event>
 9    1  0.9000149E-006  0.9748080E+02  0.7546771E-02  0.1287106E+00
         -1   -1    0    0    0  501 -0.00000000000E+00  0.00000000000E+00  0.41618988019E+02  0.41618988019E+02  0.00000000000E+00 0.  1.
          1   -1    0    0  502    0  0.00000000000E+00 -0.00000000000E+00 -0.46220784557E+03  0.46220784557E+03  0.00000000000E+00 0. -1.
         23    2    1    2    0    0  0.21722787889E+02 -0.38582446659E+02 -0.57510679234E+02  0.11632991136E+03  0.90910314858E+02 0.  0.
         23    2    1    2    0    0 -0.24197839684E+02  0.72443228832E+01 -0.31865840471E+03  0.33307890894E+03  0.93596821667E+02 0.  0.
        -11    1    3    3    0    0  0.56799360750E+01 -0.63959506593E+02 -0.17961497942E+02  0.66676049417E+02  0.00000000000E+00 0.  1.
         11    1    3    3    0    0  0.16042851814E+02  0.25377059934E+02 -0.39549181291E+02  0.49653861945E+02  0.00000000000E+00 0. -1.
        -13    1    4    4    0    0 -0.36489941537E+02 -0.36396945198E+02 -0.16333087857E+03  0.17126946414E+03  0.00000000000E+00 0.  1.
         13    1    4    4    0    0  0.12292101853E+02  0.43641268081E+02 -0.15532752615E+03  0.16180944480E+03  0.00000000000E+00 0. -1.
         21    1    1    2  502  501  0.24750517950E+01  0.31338123776E+02 -0.44419773600E+02  0.54418013285E+02  0.00000000000E+00 0.  1.
<scales pt_clust_5="13000.00000" pt_clust_6="13000.00000" pt_clust_7="13000.00000" pt_clust_8="13000.00000" pt_clust_9="31.43571"></scales>
<clustering>
<clus scale="   31.436">  1  9  2 -1</clus>
<clus scale="   90.910">  5  6 -1 -1</clus>
<clus scale="   93.597">  7  8 -1 -1</clus>
<clus scale="   94.904">  1  5  2 -1</clus>
<clus scale="   97.481">  2  5  1 -1</clus>
</clustering>
</event>
<event>
 9    1  0.9000149E-006  0.1372727E+03  0.7546771E-02  0.1220583E+00
          1   -1    0    0  502    0  0.00000000000E+00  0.00000000000E+00  0.32347631724E+03  0.32347631724E+03  0.00000000000E+00 0. -1.
         -1   -1    0    0    0  501 -0.00000000000E+00 -0.00000000000E+00 -0.10491557125E+03  0.10491557125E+03  0.00000000000E+00 0.  1.
         23    2    1    2    0    0  0.92219920384E+02  0.43889352825E+02 -0.31752083941E+02  0.13258636040E+03  0.78359167448E+02 0.  0.
         23    2    1    2    0    0 -0.93124769198E+02 -0.20151041189E+02  0.20492496551E+03  0.24457678198E+03  0.93516168102E+02 0.  0.
        -11    1    3    3    0    0  0.87791616352E+01  0.41089134127E+02  0.30680050600E+01  0.42128414133E+02  0.00000000000E+00 0.  1.
         11    1    3    3    0    0  0.83440758749E+02  0.28002186982E+01 -0.34820089000E+02  0.90457946270E+02  0.00000000000E+00 0. -1.
        -11    1    4    4    0    0 -0.56259227439E+02  0.12214020283E+02  0.34241300173E+02  0.66983203873E+02  0.00000000000E+00 0.  1.
         11    1    4    4    0    0 -0.36865541759E+02 -0.32365061472E+02  0.17068366533E+03  0.17759357811E+03  0.00000000000E+00 0. -1.
         21    1    1    2  502  501  0.90484881442E+00 -0.23738311636E+02  0.45387864423E+02  0.51228746106E+02  0.00000000000E+00 0.  1.
<scales pt_clust_5="13000.00000" pt_clust_6="13000.00000" pt_clust_7="13000.00000" pt_clust_8="13000.00000" pt_clust_9="23.75555"></scales>
<clustering>
<clus scale="   23.756">  1  9  2 -1</clus>
<clus scale="   78.359">  5  6 -1 -1</clus>
<clus scale="   93.516">  7  8 -1 -1</clus>
<clus scale="  127.431">  2  5  1 -1</clus>
<clus scale="   23.756">  1  5  2 -1</clus>
</clustering>
</event>
<event>
 9    1  0.9000149E-006  0.9314142E+02  0.7546771E-02  0.1295492E+00
         -1   -1    0    0    0  501 -0.00000000000E+00  0.00000000000E+00  0.33262313826E+03  0.33262313826E+03  0.00000000000E+00 0.  1.
          1   -1    0    0  502    0  0.00000000000E+00 -0.00000000000E+00 -0.16099950383E+03  0.16099950383E+03  0.00000000000E+00 0. -1.
         23    2    1    2    0    0 -0.17611215061E+02 -0.12790375226E+01  0.27858679663E+03  0.29365205387E+03  0.91154454945E+02 0.  0.
         23    2    1    2    0    0  0.29663763705E+02 -0.32837175918E+02 -0.16508575971E+02  0.10254773609E+03  0.91023546937E+02 0.  0.
        -11    1    3    3    0    0  0.32305283949E+02  0.19933843403E+02  0.97950341987E+02  0.10504884092E+03  0.00000000000E+00 0.  1.
         11    1    3    3    0    0 -0.49916499009E+02 -0.21212880926E+02  0.18063645464E+03  0.18860321295E+03  0.00000000000E+00 0. -1.
        -13    1    4    4    0    0  0.43789323251E+02  0.18589173083E+02 -0.11773378462E+02  0.49006883467E+02  0.00000000000E+00 0.  1.
         13    1    4    4    0    0 -0.14125559546E+02 -0.51426349001E+02 -0.47351975093E+01  0.53540852623E+02  0.00000000000E+00 0. -1.
         21    1    1    2  502  501 -0.12052548644E+02  0.34116213440E+02 -0.90454586224E+02  0.97422852131E+02  0.00000000000E+00 0.  1.
<scales pt_clust_5="13000.00000" pt_clust_6="13000.00000" pt_clust_7="13000.00000" pt_clust_8="13000.00000" pt_clust_9="36.18259"></scales>
<clustering>
<clus scale="   36.183">  2  9  1 -1</clus>
<clus scale="   91.024">  7  8 -1 -1</clus>
<clus scale="   91.154">  5  6 -1 -1</clus>
<clus scale="   93.013">  2  7  1 -1</clus>
<clus scale="   36.183">  2  5  1 -1</clus>
</clustering>
</event>
<event>
 9    1  0.9000149E-006  0.9855773E+02  0.7546771E-02  0.1283635E+00
          1   -1    0    0  502    0  0.00000000000E+00  0.00000000000E+00  0.79055441436E+03  0.79055441436E+03  0.00000000000E+00 0. -1.
         -1   -1    0    0    0  501 -0.00000000000E+00 -0.00000000000E+00 -0.33274205181E+02  0.33274205181E+02  0.00000000000E+00 0.  1.
         23    2    1    2    0    0  0.17817044437E+02 -0.37070049081E+02  0.61206028110E+02  0.11699478910E+03  0.90829330005E+02 0.  0.
         23    2    1    2    0    0  0.14736398376E+01  0.13515649370E+02  0.52951066866E+03  0.53751063678E+03  0.91385403820E+02 0.  0.
        -11    1    4    4    0    0 -0.43910303282E+02  0.16237597923E+02  0.25555265447E+03  0.25980556870E+03  0.00000000000E+00 0.  1.
         11    1    4    4    0    0  0.45383943119E+02 -0.27219485532E+01  0.27395801419E+03  0.27770506808E+03  0.00000000000E+00 0. -1.
        -11    1    3    3    0    0 -0.10026342052E+02  0.24295295492E+02  0.48636564974E+00  0.26287363305E+02  0.00000000000E+00 0. -1.
         11    1    3    3    0    0  0.27843386489E+02 -0.61365344573E+02  0.60719662460E+02  0.90707425798E+02  0.00000000000E+00 0.  1.
         21    1    1    2  502  501 -0.19290684275E+02  0.23554399710E+02  0.16656351241E+03  0.16932319366E+03  0.00000000000E+00 0.  1.
<scales pt_clust_5="13000.00000" pt_clust_6="13000.00000" pt_clust_7="13000.00000" pt_clust_8="13000.00000" pt_clust_9="30.44569"></scales>
<clustering>
<clus scale="   30.446">  1  9  2 -1</clus>
<clus scale="   90.829">  7  8 -1 -1</clus>
<clus scale="   91.385">  5  6 -1 -1</clus>
<clus scale="   98.042">  2  7  1 -1</clus>
<clus scale="   30.446">  1  5  2 -1</clus>
</clustering>
</event>
<event>
 9    1  0.9000149E-006  0.1230897E+03  0.7546771E-02  0.1239195E+00
         -1   -1    0    0    0  501 -0.00000000000E+00  0.00000000000E+00  0.18378207509E+03  0.18378207509E+03  0.00000000000E+00 0.  1.
          1   -1    0    0  502    0  0.00000000000E+00 -0.00000000000E+00 -0.23728719303E+03  0.23728719303E+03  0.00000000000E+00 0. -1.
         23    2    1    2    0    0 -0.77383042189E+02  0.60972393284E+02  0.88538718972E+02  0.16196777280E+03  0.93213125180E+02 0.  0.
         23    2    1    2    0    0  0.43700177951E+02 -0.34460724433E+02  0.53804665061E+01  0.10557192435E+03  0.89550179840E+02 0.  0.
        -13    1    4    4    0    0 -0.18407673441E+02 -0.38532408730E+02  0.71894328818E+01  0.43304467543E+02  0.00000000000E+00 0.  1.
         13    1    4    4    0    0  0.62107851393E+02  0.40716842970E+01 -0.18089663756E+01  0.62267456805E+02  0.00000000000E+00 0. -1.
        -13    1    3    3    0    0  0.12514358030E+02  0.24255286865E+02 -0.42908334092E+01  0.27628596583E+02  0.00000000000E+00 0. -1.
         13    1    3    3    0    0 -0.89897400220E+02  0.36717106419E+02  0.92829552381E+02  0.13433917621E+03  0.00000000000E+00 0.  1.
         21    1    1    2  502  501  0.33682864238E+02 -0.26511668851E+02 -0.14742430341E+03  0.15352957098E+03  0.00000000000E+00 0.  1.
<scales pt_clust_5="13000.00000" pt_clust_6="13000.00000" pt_clust_7="13000.00000" pt_clust_8="13000.00000" pt_clust_9="42.86495"></scales>
<clustering>
<clus scale="   42.865">  2  9  1 -1</clus>
<clus scale="   89.550">  5  6 -1 -1</clus>
<clus scale="   93.213">  7  8 -1 -1</clus>
<clus scale="  120.340">  2  5  1 -1</clus>
<clus scale="   42.865">  2  5  1 -1</clus>
</clustering>
</event>
<event>
 9    1  0.9000149E-006  0.2015201E+03  0.7546771E-02  0.1148577E+00
          2   -1    0    0  502    0  0.00000000000E+00  0.00000000000E+00  0.14806714301E+04  0.14806714301E+04  0.00000000000E+00 0. -1.
         -2   -1    0    0    0  501 -0.00000000000E+00 -0.00000000000E+00 -0.49498285595E+02  0.49498285595E+02  0.00000000000E+00 0.  1.
         23    2    1    2    0    0  0.16114370962E+03  0.91988240293E+02  0.27201254348E+03  0.34128885539E+03  0.89767073582E+02 0.  0.
         23    2    1    2    0    0 -0.10741383034E+03 -0.13504045192E+03  0.87884653883E+03  0.90023511494E+03  0.90985541494E+02 0.  0.
        -13    1    3    3    0    0  0.15085884043E+03  0.52178114530E+02  0.18047164497E+03  0.24093766831E+03  0.00000000000E+00 0.  1.
         13    1    3    3    0    0  0.10284869183E+02  0.39810125764E+02  0.91540898516E+02  0.10035118708E+03  0.00000000000E+00 0. -1.
        -13    1    4    4    0    0 -0.74464548932E+02 -0.14280007792E+03  0.73993005908E+03  0.75725380398E+03  0.00000000000E+00 0. -1.
         13    1    4    4    0    0 -0.32949281410E+02  0.77596259948E+01  0.13891647974E+03  0.14298131096E+03  0.00000000000E+00 0.  1.
         21    1    1    2  502  501 -0.53729879273E+02  0.43052211628E+02  0.28031406218E+03  0.28864574535E+03  0.00000000000E+00 0. -1.
<scales pt_clust_5="13000.00000" pt_clust_6="13000.00000" pt_clust_7="13000.00000" pt_clust_8="13000.00000" pt_clust_9="68.85051"></scales>
<clustering>
<clus scale="   68.851">  1  9  2 -1</clus>
<clus scale="   89.767">  5  6 -1 -1</clus>
<clus scale="   90.986">  7  8 -1 -1</clus>
<clus scale="  200.973">  2  5  1 -1</clus>
<clus scale="   68.851">  1  5  2 -1</clus>
</clustering>
</event>
<event>
 9    1  0.9000149E-006  0.9375518E+02  0.7546771E-02  0.1295231E+00
         -2   -1    0    0    0  501 -0.00000000000E+00  0.00000000000E+00  0.32618153094E+02  0.32618153094E+02  0.00000000000E+00 0.  1.
          2   -1    0    0  502    0  0.00000000000E+00 -0.00000000000E+00 -0.33405227593E+03  0.33405227593E+03  0.00000000000E+00 0. -1.
         23    2    1    2    0    0 -0.17641394019E+02  0.10799138692E+02 -0.11303373451E+03  0.14659910944E+03  0.91032046945E+02 0.  0.
         23    2    1    2    0    0  0.28094820959E+02  0.66192190395E+01 -0.15466117826E+03  0.18068848555E+03  0.88854463729E+02 0.  0.
        -11    1    4    4    0    0 -0.29961703173E+02 -0.11674201923E+02 -0.45727655980E+02  0.55901781448E+02  0.00000000000E+00 0.  1.
         11    1    4    4    0    0  0.58056524132E+02  0.18293420963E+02 -0.10893352228E+03  0.12478670410E+03  0.00000000000E+00 0. -1.
        -13    1    3    3    0    0 -0.35366985248E+02 -0.36652108573E+01 -0.46878574295E+01  0.35864096579E+02  0.00000000000E+00 0.  1.
         13    1    3    3    0    0  0.17725591229E+02  0.14464349549E+02 -0.10834587708E+03  0.11073501286E+03  0.00000000000E+00 0. -1.
         21    1    1    2  502  501 -0.10453426941E+02 -0.17418357731E+02 -0.33739210064E+02  0.39382834034E+02  0.00000000000E+00 0.  1.
<scales pt_clust_5="13000.00000" pt_clust_6="13000.00000" pt_clust_7="13000.00000" pt_clust_8="13000.00000" pt_clust_9="20.31436"></scales>
<clustering>
<clus scale="   20.314">  2  9  1 -1</clus>
<clus scale="   88.854">  5  6 -1 -1</clus>
<clus scale="   91.032">  7  8 -1 -1</clus>
<clus scale="   91.642">  2  5  1 -1</clus>
<clus scale="   20.314">  2  5  1 -1</clus>
</clustering>
</event>
<event>
 9    1  0.9000149E-006  0.9966046E+02  0.7546771E-02  0.1281017E+00
          2   -1    0    0  502    0  0.00000000000E+00  0.00000000000E+00  0.73347192068E+03  0.73347192068E+03  0.00000000000E+00 0. -1.
         -2   -1    0    0    0  501 -0.00000000000E+00 -0.00000000000E+00 -0.33438511298E+02  0.33438511298E+02  0.00000000000E+00 0.  1.
         23    2    1    2    0    0 -0.83610003651E+01 -0.33531019234E+02  0.80292860516E+02  0.12806041920E+03  0.93585746449E+02 0.  0.
         23    2    1    2    0    0 -0.34570428986E+02  0.36691779791E+02  0.35289677181E+03  0.36855628479E+03  0.93574581171E+02 0.  0.
        -11    1    3    3    0    0  0.34257838027E+02  0.11303504670E+02  0.41751006653E+02  0.55177126063E+02  0.00000000000E+00 0.  1.
         11    1    3    3    0    0 -0.42618838392E+02 -0.44834523904E+02  0.38541853863E+02  0.72883293139E+02  0.00000000000E+00 0. -1.
        -13    1    4    4    0    0  0.31825967922E+02  0.36492540741E+01  0.11359910508E+03  0.11802951311E+03  0.00000000000E+00 0.  1.
         13    1    4    4    0    0 -0.66396396908E+02  0.33042525717E+02  0.23929766673E+03  0.25052677168E+03  0.00000000000E+00 0. -1.
         21    1    1    2  502  501  0.42931429351E+02 -0.31607605564E+01  0.26684377705E+03  0.27029372798E+03  0.00000000000E+00 0. -1.
<scales pt_clust_5="13000.00000" pt_clust_6="13000.00000" pt_clust_7="13000.00000" pt_clust_8="13000.00000" pt_clust_9="43.04763"></scales>
<clustering>
<clus scale="   43.048">  1  9  2 -1</clus>
<clus scale="   93.575">  7  8 -1 -1</clus>
<clus scale="   93.586">  5  6 -1 -1</clus>
<clus scale="   99.650">  1  7  2 -1</clus>
<clus scale="   43.048">  1  5  2 -1</clus>
</clustering>
</event>
<event>
 9    1  0.9000149E-006  0.9711426E+02  0.7546771E-02  0.1288194E+00
          2   -1    0    0  502    0  0.00000000000E+00  0.00000000000E+00  0.91075822077E+02  0.91075822077E+02  0.00000000000E+00 0. -1.
         -2   -1    0    0    0  501 -0.00000000000E+00 -0.00000000000E+00 -0.20931915105E+03  0.20931915105E+03  0.00000000000E+00 0.  1.
         23    2    1    2    0    0 -0.26301606164E+02 -0.17326816943E+02 -0.69412425937E+02  0.12179510552E+03  0.94994577641E+02 0.  0.
         23    2    1    2    0    0  0.57498092194E+01 -0.46966154371E+02 -0.38774808255E+02  0.11035701040E+03  0.91849355071E+02 0.  0.
        -11    1    4    4    0    0  0.42540978698E+02  0.87272440320E+00 -0.11161317070E+02  0.43989447771E+02  0.00000000000E+00 0. -1.
         11    1    4    4    0    0 -0.36791169479E+02 -0.47838878774E+02 -0.27613491185E+02  0.66367562630E+02  0.00000000000E+00 0.  1.
        -13    1    3    3    0    0  0.26235092110E+02 -0.30413099711E+02 -0.50322395490E+02  0.64386180038E+02  0.00000000000E+00 0. -1.
         13    1    3    3    0    0 -0.52536698273E+02  0.13086282768E+02 -0.19090030448E+02  0.57408925479E+02  0.00000000000E+00 0.  1.
         21    1    1    2  502  501  0.20551796944E+02  0.64292971315E+02 -0.10056094784E+02  0.68242857212E+02  0.00000000000E+00 0. -1.
<scales pt_clust_5="13000.00000" pt_clust_6="13000.00000" pt_clust_7="13000.00000" pt_clust_8="13000.00000" pt_clust_9="67.49787"></scales>
<clustering>
<clus scale="   67.498">  1  9  2 -1</clus>
<clus scale="   91.849">  5  6 -1 -1</clus>
<clus scale="   94.040">  1  5  2 -1</clus>
<clus scale="   94.995">  7  8 -1 -1</clus>
<clus scale="   67.498">  1  5  2 -1</clus>
</clustering>
</event>
<event>
 9    1  0.9000149E-006  0.9782393E+02  0.7546771E-02  0.1285823E+00
         -1   -1    0    0    0  501 -0.00000000000E+00  0.00000000000E+00  0.22303430172E+02  0.22303430172E+02  0.00000000000E+00 0.  1.
          1   -1    0    0  502    0  0.00000000000E+00 -0.00000000000E+00 -0.74264826895E+03  0.74264826895E+03  0.00000000000E+00 0. -1.
         23    2    1    2    0    0  0.15519101670E+02 -0.41549621938E+02 -0.15124470508E+03  0.18227319271E+03  0.91549671576E+02 0.  0.
         23    2    1    2    0    0 -0.21409956983E+01  0.12453710218E+02 -0.36616616737E+03  0.37723328139E+03  0.89819862478E+02 0.  0.
        -11    1    3    3    0    0 -0.26844708325E+02 -0.21791201652E+02 -0.12275296437E+03  0.12752954597E+03  0.00000000000E+00 0. -1.
         11    1    3    3    0    0  0.42363809995E+02 -0.19758420285E+02 -0.28491740716E+02  0.54743646741E+02  0.00000000000E+00 0.  1.
        -11    1    4    4    0    0 -0.45284193955E+02  0.68488553004E+00 -0.16091301589E+03  0.16716496635E+03  0.00000000000E+00 0. -1.
         11    1    4    4    0    0  0.43143198256E+02  0.11768824687E+02 -0.20525315148E+03  0.21006831504E+03  0.00000000000E+00 0.  1.
         21    1    1    2  502  501 -0.13378105971E+02  0.29095911720E+02 -0.20293396632E+03  0.20544522503E+03  0.00000000000E+00 0. -1.
<scales pt_clust_5="13000.00000" pt_clust_6="13000.00000" pt_clust_7="13000.00000" pt_clust_8="13000.00000" pt_clust_9="32.02414"></scales>
<clustering>
<clus scale="   32.024">  2  9  1 -1</clus>
<clus scale="   89.820">  7  8 -1 -1</clus>
<clus scale="   91.550">  5  6 -1 -1</clus>
<clus scale="   96.207">  2  7  1 -1</clus>
<clus scale="   32.024">  2  5  1 -1</clus>
</clustering>
</event>
<event>
 9    1  0.9000149E-006  0.1029010E+03  0.7546771E-02  0.1274755E+00
         -1   -1    0    0    0  501 -0.00000000000E+00  0.00000000000E+00  0.44616345839E+02  0.44616345839E+02  0.00000000000E+00 0.  1.
          1   -1    0    0  502    0  0.00000000000E+00 -0.00000000000E+00 -0.55776268874E+03  0.55776268874E+03  0.00000000000E+00 0. -1.
         23    2    1    2    0    0 -0.36890275236E+02  0.27333014465E+02 -0.67098914099E+02  0.12207072747E+03  0.91054995171E+02 0.  0.
         23    2    1    2    0    0  0.72304898537E+02  0.21837478954E+02 -0.29194742265E+03  0.31472224228E+03  0.90066188762E+02 0.  0.
        -13    1    3    3    0    0  0.10243545719E+02  0.35910563545E+02  0.26684949194E+01  0.37438211338E+02  0.00000000000E+00 0. -1.
         13    1    3    3    0    0 -0.47133820955E+02 -0.85775490805E+01 -0.69767409018E+02  0.84632516134E+02  0.00000000000E+00 0.  1.
        -13    1    4    4    0    0  0.34954522890E+02  0.53457858240E+02 -0.11991392394E+03  0.13586357287E+03  0.00000000000E+00 0.  1.
         13    1    4    4    0    0  0.37350375647E+02 -0.31620379286E+02 -0.17203349871E+03  0.17885866942E+03  0.00000000000E+00 0. -1.
         21    1    1    2  502  501 -0.35414623301E+02 -0.49170493418E+02 -0.15410000615E+03  0.16558606482E+03  0.00000000000E+00 0. -1.
<scales pt_clust_5="13000.00000" pt_clust_6="13000.00000" pt_clust_7="13000.00000" pt_clust_8="13000.00000" pt_clust_9="60.59648"></scales>
<clustering>
<clus scale="   60.596">  2  9  1 -1</clus>
<clus scale="   90.066">  7  8 -1 -1</clus>
<clus scale="   91.055">  5  6 -1 -1</clus>
<clus scale="  102.027">  2  7  1 -1</clus>
<clus scale="   60.596">  2  5  1 -1</clus>
</clustering>
</event>
<event>
 9    1  0.9000149E-006  0.9914340E+02  0.7546771E-02  0.1282907E+00
         -1   -1    0    0    0  501 -0.00000000000E+00  0.00000000000E+00  0.43070724003E+03  0.43070724003E+03  0.00000000000E+00 0.  1.
          1   -1    0    0  502    0  0.00000000000E+00 -0.00000000000E+00 -0.34953339465E+02  0.34953339465E+02  0.00000000000E+00 0. -1.
         23    2    1    2    0    0  0.14020538865E+02  0.22139546526E+02  0.20866141192E+03  0.22888141026E+03  0.90334822250E+02 0.  0.
         23    2    1    2    0    0 -0.88860462471E+01 -0.57036271024E+02  0.15395145470E+03  0.18838007289E+03  0.91945110963E+02 0.  0.
        -13    1    3    3    0    0  0.48389466462E+02  0.24834055088E+02  0.16185635334E+03  0.17075054868E+03  0.00000000000E+00 0.  1.
         13    1    3    3    0    0 -0.34368927597E+02 -0.26945085613E+01  0.46805058572E+02  0.58130861584E+02  0.00000000000E+00 0. -1.
        -13    1    4    4    0    0  0.26281073160E+02 -0.65940698503E+02  0.87512630716E+02  0.11268243457E+03  0.00000000000E+00 0.  1.
         13    1    4    4    0    0 -0.35167119407E+02  0.89044274789E+01  0.66438823979E+02  0.75697638324E+02  0.00000000000E+00 0. -1.
         21    1    1    2  502  501 -0.51344926175E+01  0.34896724497E+02  0.33141033959E+02  0.48399096344E+02  0.00000000000E+00 0.  1.
<scales pt_clust_5="13000.00000" pt_clust_6="13000.00000" pt_clust_7="13000.00000" pt_clust_8="13000.00000" pt_clust_9="35.27243"></scales>
<clustering>
<clus scale="   35.272">  2  9  1 -1</clus>
<clus scale="   90.335">  5  6 -1 -1</clus>
<clus scale="   91.945">  7  8 -1 -1</clus>
<clus scale="   97.652">  1  5  2 -1</clus>
<clus scale="   35.272">  2  5  1 -1</clus>
</clustering>
</event>
<event>
 9    1  0.9000149E-006  0.1156726E+03  0.7546771E-02  0.1253765E+00
          3   -1    0    0  502    0  0.00000000000E+00  0.00000000000E+00  0.46976604362E+03  0.46976604362E+03  0.00000000000E+00 0. -1.
         -3   -1    0    0    0  501 -0.00000000000E+00 -0.00000000000E+00 -0.94632024755E+02  0.94632024755E+02  0.00000000000E+00 0.  1.
         23    2    1    2    0    0 -0.88597632279E+02  0.19943116316E+02 -0.14043664150E+02  0.13615115154E+03  0.10046214825E+03 0.  0.
         23    2    1    2    0    0  0.50881378764E+02 -0.18268872131E+02  0.37167652196E+03  0.38663430443E+03  0.91760459847E+02 0.  0.
        -11    1    3    3    0    0  0.10895941408E+01 -0.20181854073E+02  0.23475662360E+02  0.30977430049E+02  0.00000000000E+00 0. -1.
         11    1    3    3    0    0 -0.89687226420E+02  0.40124970389E+02 -0.37519326509E+02  0.10517372150E+03  0.00000000000E+00 0.  1.
        -11    1    4    4    0    0  0.69980584630E+02  0.83856986724E+01  0.29379983939E+03  0.30213564469E+03  0.00000000000E+00 0. -1.
         11    1    4    4    0    0 -0.19099205866E+02 -0.26654570803E+02  0.77876682571E+02  0.84498659739E+02  0.00000000000E+00 0.  1.
         21    1    1    2  502  501  0.37716253515E+02 -0.16742441854E+01  0.17501161058E+02  0.41612612405E+02  0.00000000000E+00 0. -1.
<scales pt_clust_5="13000.00000" pt_clust_6="13000.00000" pt_clust_7="13000.00000" pt_clust_8="13000.00000" pt_clust_9="37.75340"></scales>
<clustering>
<clus scale="   37.753">  2  9  1 -1</clus>
<clus scale="   91.760">  7  8 -1 -1</clus>
<clus scale="  100.462">  5  6 -1 -1</clus>
<clus scale="  108.201">  1  7  2 -1</clus>
<clus scale="  108.201">  1  5  2 -1</clus>
</clustering>
</event>
<event>
 9    1  0.9000149E-006  0.1027265E+03  0.7546771E-02  0.1274955E+00
          2   -1    0    0  502    0  0.00000000000E+00  0.00000000000E+00  0.16423442688E+03  0.16423442688E+03  0.00000000000E+00 0. -1.
         -2   -1    0    0    0  501 -0.00000000000E+00 -0.00000000000E+00 -0.19872681080E+03  0.19872681080E+03  0.00000000000E+00 0.  1.
         23    2    1    2    0    0 -0.26264243700E+01  0.45283833845E+02 -0.14949742795E+03  0.18140423266E+03  0.92198107080E+02 0.  0.
         23    2    1    2    0    0  0.29287474402E+02 -0.42344105615E+02  0.11356190412E+03  0.15469557833E+03  0.91562199901E+02 0.  0.
        -11    1    4    4    0    0  0.53444205439E+02 -0.11927110119E+02  0.99148589563E+02  0.11326509552E+03  0.00000000000E+00 0. -1.
         11    1    4    4    0    0 -0.24156731037E+02 -0.30416995496E+02  0.14413314556E+02  0.41430482811E+02  0.00000000000E+00 0.  1.
        -13    1    3    3    0    0 -0.28491940848E+01  0.70951886228E+02 -0.78212054395E+02  0.10563812531E+03  0.00000000000E+00 0.  1.
         13    1    3    3    0    0  0.22276971485E+00 -0.25668052383E+02 -0.71285373556E+02  0.75766107347E+02  0.00000000000E+00 0. -1.
         21    1    1    2  502  501 -0.26661050032E+02 -0.29397282301E+01  0.14431399111E+01  0.26861426687E+02  0.00000000000E+00 0.  1.
<scales pt_clust_5="13000.00000" pt_clust_6="13000.00000" pt_clust_7="13000.00000" pt_clust_8="13000.00000" pt_clust_9="26.82263"></scales>
<clustering>
<clus scale="   26.823">  1  9  2 -1</clus>
<clus scale="   91.562">  5  6 -1 -1</clus>
<clus scale="   92.198">  7  8 -1 -1</clus>
<clus scale="  102.156">  1  5  2 -1</clus>
<clus scale="   26.823">  1  5  2 -1</clus>
</clustering>
</event>
<event>
 9    1  0.9000149E-006  0.9515581E+02  0.7546771E-02  0.1291281E+00
         -1   -1    0    0    0  501 -0.00000000000E+00  0.00000000000E+00  0.33187099101E+03  0.33187099101E+03  0.00000000000E+00 0.  1.
          1   -1    0    0  502    0  0.00000000000E+00 -0.00000000000E+00 -0.26896876336E+03  0.26896876336E+03  0.00000000000E+00 0. -1.
         23    2    1    2    0    0 -0.18474547383E+02  0.14723030382E+02  0.16225925885E+03  0.18758216531E+03  0.91109412989E+02 0.  0.
         23    2    1    2    0    0 -0.17341317024E+02 -0.36734241805E+02  0.13882444072E+03  0.17139464618E+03  0.91944404948E+02 0.  0.
        -13    1    3    3    0    0  0.16785683907E+02 -0.28278176610E+02  0.93714747460E+02  0.99317009360E+02  0.00000000000E+00 0.  1.
         13    1    3    3    0    0 -0.35260231289E+02  0.43001206992E+02  0.68544511393E+02  0.88265155953E+02  0.00000000000E+00 0. -1.
        -13    1    4    4    0    0  0.15230305195E+01 -0.50974299725E+02  0.13867911488E+03  0.14775857253E+03  0.00000000000E+00 0.  1.
         13    1    4    4    0    0 -0.18864347544E+02  0.14240057920E+02  0.14532584231E+00  0.23636073646E+02  0.00000000000E+00 0. -1.
         21    1    1    2  502  501  0.35815864407E+02  0.22011211423E+02 -0.23818147192E+03  0.24186294288E+03  0.00000000000E+00 0. -1.
<scales pt_clust_5="13000.00000" pt_clust_6="13000.00000" pt_clust_7="13000.00000" pt_clust_8="13000.00000" pt_clust_9="42.03891"></scales>
<clustering>
<clus scale="   42.039">  2  9  1 -1</clus>
<clus scale="   91.109">  5  6 -1 -1</clus>
<clus scale="   91.944">  7  8 -1 -1</clus>
<clus scale="   94.349">  1  5  2 -1</clus>
<clus scale="   42.039">  2  5  1 -1</clus>
</clustering>
</event>
<event>
 9    1  0.9000149E-006  0.2196027E+03  0.7546771E-02  0.1137424E+00
          1   -1    0    0  502    0  0.00000000000E+00  0.00000000000E+00  0.19963653463E+03  0.19963653463E+03  0.00000000000E+00 0. -1.
         -1   -1    0    0    0  501 -0.00000000000E+00 -0.00000000000E+00 -0.67311929948E+03  0.67311929948E+03  0.00000000000E+00 0.  1.
         23    2    1    2    0    0 -0.18216909906E+03 -0.59780875553E+02 -0.49832990105E+03  0.54159770024E+03  0.90752657735E+02 0.  0.
         23    2    1    2    0    0  0.80298104549E+02  0.13028028192E+03  0.53806201680E+02  0.20393198368E+03  0.12358158914E+03 0.  0.
        -11    1    4    4    0    0  0.12473058202E+02  0.56539828821E+02  0.81511803914E+02  0.99982516479E+02  0.00000000000E+00 0.  1.
         11    1    4    4    0    0  0.67825046347E+02  0.73740453100E+02 -0.27705602234E+02  0.10394946720E+03  0.00000000000E+00 0. -1.
        -13    1    3    3    0    0 -0.10815871390E+03 -0.78946515838E+02 -0.28255039857E+03  0.31267489105E+03  0.00000000000E+00 0.  1.
         13    1    3    3    0    0 -0.74010385155E+02  0.19165640285E+02 -0.21577950248E+03  0.22892280919E+03  0.00000000000E+00 0. -1.
         21    1    1    2  502  501  0.10187099451E+03 -0.70499406368E+02 -0.28959065485E+02  0.12722615020E+03  0.00000000000E+00 0.  1.
<scales pt_clust_5="13000.00000" pt_clust_6="13000.00000" pt_clust_7="13000.00000" pt_clust_8="13000.00000" pt_clust_9="123.88650"></scales>
<clustering>
<clus scale="   90.753">  7  8 -1 -1</clus>
<clus scale="  123.582">  5  6 -1 -1</clus>
<clus scale="  123.887">  1  9  2 -1</clus>
<clus scale="  202.951">  2  7  1 -1</clus>
<clus scale="  123.887">  1  5  2 -1</clus>
</clustering>
</event>
<event>
 9    1  0.9000149E-006  0.1095073E+03  0.7546771E-02  0.1264552E+00
          3   -1    0    0  502    0  0.00000000000E+00  0.00000000000E+00  0.19385188836E+03  0.19385188836E+03  0.00000000000E+00 0. -1.
         -3   -1    0    0    0  501 -0.00000000000E+00 -0.00000000000E+00 -0.36358121535E+03  0.36358121535E+03  0.00000000000E+00 0.  1.
         23    2    1    2    0    0  0.29855523119E+02  0.29712545977E+02 -0.29455995461E+03  0.31310365434E+03  0.97437897419E+02 0.  0.
         23    2    1    2    0    0  0.32810727054E+02  0.39251827601E+02  0.58582145257E+02  0.12999657943E+03  0.10416330036E+03 0.  0.
        -11    1    4    4    0    0 -0.18801349481E+02 -0.20151260591E+02  0.40937200683E+02  0.49349958921E+02  0.00000000000E+00 0.  1.
         11    1    4    4    0    0  0.51612076536E+02  0.59403088191E+02  0.17644944574E+02  0.80646620512E+02  0.00000000000E+00 0. -1.
        -13    1    3    3    0    0 -0.22325508411E+02  0.37671995997E+02 -0.71176758169E+02  0.83568765168E+02  0.00000000000E+00 0. -1.
         13    1    3    3    0    0  0.52181031530E+02 -0.79594500204E+01 -0.22338319644E+03  0.22953488917E+03  0.00000000000E+00 0.  1.
         21    1    1    2  502  501 -0.62666250173E+02 -0.68964373577E+02  0.66248482359E+02  0.11433286994E+03  0.00000000000E+00 0. -1.
<scales pt_clust_5="13000.00000" pt_clust_6="13000.00000" pt_clust_7="13000.00000" pt_clust_8="13000.00000" pt_clust_9="93.18339"></scales>
<clustering>
<clus scale="   93.183">  1  9  2 -1</clus>
<clus scale="   97.438">  7  8 -1 -1</clus>
<clus scale="  103.131">  2  7  1 -1</clus>
<clus scale="  104.163">  5  6 -1 -1</clus>
<clus scale="   93.183">  1  5  2 -1</clus>
</clustering>
</event>
<event>
 9    1  0.9000149E-006  0.1376821E+03  0.7546771E-02  0.1217001E+00
         -2   -1    0    0    0  501 -0.00000000000E+00  0.00000000000E+00  0.78372095183E+02  0.78372095183E+02  0.00000000000E+00 0.  1.
          2   -1    0    0  502    0  0.00000000000E+00 -0.00000000000E+00 -0.37594004957E+03  0.37594004957E+03  0.00000000000E+00 0. -1.
         23    2    1    2    0    0  0.93545553611E+02  0.40645036681E+02 -0.40375913974E+02  0.14338096812E+03  0.92331457174E+02 0.  0.
         23    2    1    2    0    0 -0.10263187557E+03 -0.18467863593E+02 -0.16157836006E+03  0.21235955737E+03  0.90081359323E+02 0.  0.
        -11    1    4    4    0    0 -0.81442780303E+02  0.10650481475E+02 -0.52478155238E+02  0.97469564462E+02  0.00000000000E+00 0.  1.
         11    1    4    4    0    0 -0.21189095267E+02 -0.29118345068E+02 -0.10910020483E+03  0.11488999291E+03  0.00000000000E+00 0. -1.
        -13    1    3    3    0    0  0.20869540915E+02 -0.81529695202E+01 -0.50511064941E+02  0.55257364500E+02  0.00000000000E+00 0. -1.
         13    1    3    3    0    0  0.72676012696E+02  0.48798006201E+02  0.10135150967E+02  0.88123603624E+02  0.00000000000E+00 0.  1.
         21    1    1    2  502  501  0.90863219599E+01 -0.22177173088E+02 -0.95613680349E+02  0.98571619257E+02  0.00000000000E+00 0. -1.
<scales pt_clust_5="13000.00000" pt_clust_6="13000.00000" pt_clust_7="13000.00000" pt_clust_8="13000.00000" pt_clust_9="23.96640"></scales>
<clustering>
<clus scale="   23.966">  2  9  1 -1</clus>
<clus scale="   90.081">  5  6 -1 -1</clus>
<clus scale="   92.331">  7  8 -1 -1</clus>
<clus scale="  136.183">  2  5  1 -1</clus>
<clus scale="   23.966">  2  5  1 -1</clus>
</clustering>
</event>
<event>
 9    1  0.9000149E-006  0.2243083E+03  0.7546771E-02  0.1130784E+00
          1   -1    0    0  502    0  0.00000000000E+00  0.00000000000E+00  0.82905090488E+03  0.82905090488E+03  0.00000000000E+00 0. -1.
         -1   -1    0    0    0  501 -0.00000000000E+00 -0.00000000000E+00 -0.19093309142E+03  0.19093309142E+03  0.00000000000E+00 0.  1.
         23    2    1    2    0    0 -0.18307955753E+03  0.11650886463E+03 -0.58192015162E+02  0.24261372893E+03  0.91556927174E+02 0.  0.
         23    2    1    2    0    0  0.16894678546E+03 -0.49451916420E+02  0.21921267476E+03  0.29537642534E+03  0.90578846944E+02 0.  0.
        -11    1    4    4    0    0  0.12606027645E+02  0.17660102573E+02  0.54116582201E+02  0.58304336245E+02  0.00000000000E+00 0.  1.
         11    1    4    4    0    0  0.15634075781E+03 -0.67112018993E+02  0.16509609256E+03  0.23707208909E+03  0.00000000000E+00 0. -1.
        -13    1    3    3    0    0 -0.14795592413E+03  0.12476675250E+03 -0.68142415364E+02  0.20518549360E+03  0.00000000000E+00 0.  1.
         13    1    3    3    0    0 -0.35123633399E+02 -0.82578878699E+01  0.99504002019E+01  0.37428235323E+02  0.00000000000E+00 0. -1.
         21    1    1    2  502  501  0.14132772066E+02 -0.67056948208E+02  0.47709715386E+03  0.48199384204E+03  0.00000000000E+00 0. -1.
<scales pt_clust_5="13000.00000" pt_clust_6="13000.00000" pt_clust_7="13000.00000" pt_clust_8="13000.00000" pt_clust_9="68.53006"></scales>
<clustering>
<clus scale="   68.530">  1  9  2 -1</clus>
<clus scale="   90.579">  5  6 -1 -1</clus>
<clus scale="   91.557">  7  8 -1 -1</clus>
<clus scale="  223.911">  1  5  2 -1</clus>
<clus scale="   68.530">  1  5  2 -1</clus>
</clustering>
</event>
<event>
 9    1  0.9000149E-006  0.1093118E+03  0.7546771E-02  0.1262071E+00
          1   -1    0    0  502    0  0.00000000000E+00  0.00000000000E+00  0.16275676132E+03  0.16275676132E+03  0.00000000000E+00 0. -1.
         -1   -1    0    0    0  501 -0.00000000000E+00 -0.00000000000E+00 -0.12015777527E+03  0.12015777527E+03  0.00000000000E+00 0.  1.
         23    2    1    2    0    0 -0.79426521880E+01 -0.53172480000E+02 -0.34175832599E+02  0.11226830858E+03  0.92443427162E+02 0.  0.
         23    2    1    2    0    0  0.40488259156E+02  0.60792215495E+02  0.49030564968E+02  0.12720637862E+03  0.91882935664E+02 0.  0.
        -11    1    4    4    0    0  0.14459709279E+02  0.82251486538E+02  0.37616802757E+02  0.91593744763E+02  0.00000000000E+00 0. -1.
         11    1    4    4    0    0  0.26028549877E+02 -0.21459271043E+02  0.11413762211E+02  0.35612633856E+02  0.00000000000E+00 0.  1.
        -11    1    3    3    0    0  0.99956722590E+01 -0.65286021282E+02 -0.52133810335E+02  0.84143402705E+02  0.00000000000E+00 0.  1.
         11    1    3    3    0    0 -0.17938324447E+02  0.12113541282E+02  0.17957977736E+02  0.28124905879E+02  0.00000000000E+00 0. -1.
         21    1    1    2  502  501 -0.32545606968E+02 -0.76197354948E+01  0.27744253681E+02  0.43439849381E+02  0.00000000000E+00 0. -1.
<scales pt_clust_5="13000.00000" pt_clust_6="13000.00000" pt_clust_7="13000.00000" pt_clust_8="13000.00000" pt_clust_9="33.42569"></scales>
<clustering>
<clus scale="   33.426">  1  9  2 -1</clus>
<clus scale="   91.883">  5  6 -1 -1</clus>
<clus scale="   92.443">  7  8 -1 -1</clus>
<clus scale="  108.838">  1  5  2 -1</clus>
<clus scale="   33.426">  1  5  2 -1</clus>
</clustering>
</event>
<event>
 9    1  0.9000149E-006  0.9381861E+02  0.7546771E-02  0.1295078E+00
          1   -1    0    0  502    0  0.00000000000E+00  0.00000000000E+00  0.87434191876E+02  0.87434191876E+02  0.00000000000E+00 0. -1.
         -1   -1    0    0    0  501 -0.00000000000E+00 -0.00000000000E+00 -0.15987229432E+03  0.15987229432E+03  0.00000000000E+00 0.  1.
         23    2    1    2    0    0 -0.28137040987E+02 -0.36203612592E+01 -0.79493696643E+02  0.12254263499E+03  0.88840584713E+02 0.  0.
         23    2    1    2    0    0  0.13023754318E+02 -0.10103796005E+02 -0.16114490182E+02  0.93883165718E+02  0.91009159655E+02 0.  0.
        -11    1    4    4    0    0  0.43015621455E+02 -0.32539675249E+02 -0.16572335357E+02  0.56425317488E+02  0.00000000000E+00 0. -1.
         11    1    4    4    0    0 -0.29991867136E+02  0.22435879244E+02  0.45784517522E+00  0.37457848230E+02  0.00000000000E+00 0.  1.
        -13    1    3    3    0    0 -0.16570677255E+02 -0.26428159721E+02  0.73198839045E+01  0.32040843799E+02  0.00000000000E+00 0. -1.
         13    1    3    3    0    0 -0.11566363732E+02  0.22807798462E+02 -0.86813580548E+02  0.90501791188E+02  0.00000000000E+00 0.  1.
         21    1    1    2  502  501  0.15113286669E+02  0.13724157264E+02  0.23170084379E+02  0.30880685495E+02  0.00000000000E+00 0. -1.
<scales pt_clust_5="13000.00000" pt_clust_6="13000.00000" pt_clust_7="13000.00000" pt_clust_8="13000.00000" pt_clust_9="20.41480"></scales>
<clustering>
<clus scale="   20.415">  1  9  2 -1</clus>
<clus scale="   88.841">  7  8 -1 -1</clus>
<clus scale="   91.009">  5  6 -1 -1</clus>
<clus scale="   91.716">  2  7  1 -1</clus>
<clus scale="   20.415">  1  5  2 -1</clus>
</clustering>
</event>
<event>
 9    1  0.9000149E-006  0.9433448E+02  0.7546771E-02  0.1293886E+00
          4   -1    0    0  502    0  0.00000000000E+00  0.00000000000E+00  0.28546481532E+03  0.28546481532E+03  0.00000000000E+00 0. -1.
         -4   -1    0    0    0  501 -0.00000000000E+00 -0.00000000000E+00 -0.15087870234E+03  0.15087870234E+03  0.00000000000E+00 0.  1.
         23    2    1    2    0    0  0.11477178288E+02  0.22917553052E+02 -0.95979236437E+02  0.13240658676E+03  0.87535995631E+02 0.  0.
         23    2    1    2    0    0 -0.84714207944E+02 -0.16517910143E+02  0.14359024275E+03  0.19005415291E+03  0.89738981730E+02 0.  0.
        -11    1    3    3    0    0  0.30757101724E+01 -0.33752072516E+02 -0.34034306516E+02  0.48031202486E+02  0.00000000000E+00 0.  1.
         11    1    3    3    0    0  0.84014681159E+01  0.56669625568E+02 -0.61944929921E+02  0.84375384274E+02  0.00000000000E+00 0. -1.
        -13    1    4    4    0    0 -0.40502739119E+02  0.37148998597E+02  0.64943482225E+02  0.85077469735E+02  0.00000000000E+00 0. -1.
         13    1    4    4    0    0 -0.44211468825E+02 -0.53666908740E+02  0.78646760526E+02  0.10497668318E+03  0.00000000000E+00 0.  1.
         21    1    1    2  502  501  0.73237029656E+02 -0.63996429083E+01  0.86975106664E+02  0.11388277798E+03  0.00000000000E+00 0. -1.
<scales pt_clust_5="13000.00000" pt_clust_6="13000.00000" pt_clust_7="13000.00000" pt_clust_8="13000.00000" pt_clust_9="73.51611"></scales>
<clustering>
<clus scale="   73.516">  1  9  2 -1</clus>
<clus scale="   87.536">  5  6 -1 -1</clus>
<clus scale="   89.739">  7  8 -1 -1</clus>
<clus scale="   92.241">  2  5  1 -1</clus>
<clus scale="   73.516">  1  5  2 -1</clus>
</clustering>
</event>
<event>
 9    1  0.9000149E-006  0.1029466E+03  0.7546771E-02  0.1275256E+00
          1   -1    0    0  502    0  0.00000000000E+00  0.00000000000E+00  0.12713559436E+03  0.12713559436E+03  0.00000000000E+00 0. -1.
         -1   -1    0    0    0  501 -0.00000000000E+00 -0.00000000000E+00 -0.26754365720E+03  0.26754365720E+03  0.00000000000E+00 0.  1.
         23    2    1    2    0    0  0.36990524052E+02 -0.14205208978E+02 -0.10111723004E+03  0.14082971162E+03  0.89656157805E+02 0.  0.
         23    2    1    2    0    0 -0.55681138447E+02  0.26137784883E+02 -0.12552052400E+03  0.16481423752E+03  0.87319860089E+02 0.  0.
        -11    1    4    4    0    0 -0.74641302154E+01 -0.25721475926E+02 -0.69630164659E+02  0.74603400687E+02  0.00000000000E+00 0.  1.
         11    1    4    4    0    0 -0.48217008231E+02  0.51859260809E+02 -0.55890359342E+02  0.90210836831E+02  0.00000000000E+00 0. -1.
        -11    1    3    3    0    0  0.85550962413E+01  0.32179633162E+02 -0.10108420888E+02  0.34797968834E+02  0.00000000000E+00 0. -1.
         11    1    3    3    0    0  0.28435427811E+02 -0.46384842140E+02 -0.91008809148E+02  0.10603174278E+03  0.00000000000E+00 0.  1.
         21    1    1    2  502  501  0.18690614394E+02 -0.11932575905E+02  0.86229691201E+02  0.89035302430E+02  0.00000000000E+00 0. -1.
<scales pt_clust_5="13000.00000" pt_clust_6="13000.00000" pt_clust_7="13000.00000" pt_clust_8="13000.00000" pt_clust_9="22.17488"></scales>
<clustering>
<clus scale="   22.175">  1  9  2 -1</clus>
<clus scale="   87.320">  5  6 -1 -1</clus>
<clus scale="   89.656">  7  8 -1 -1</clus>
<clus scale="  100.918">  1  5  2 -1</clus>
<clus scale="   22.175">  1  5  2 -1</clus>
</clustering>
</event>
<event>
 9    1  0.9000149E-006  0.1011180E+03  0.7546771E-02  0.1278099E+00
         -1   -1    0    0    0  501 -0.00000000000E+00  0.00000000000E+00  0.40972914388E+02  0.40972914388E+02  0.00000000000E+00 0.  1.
          1   -1    0    0  502    0  0.00000000000E+00 -0.00000000000E+00 -0.40564123911E+03  0.40564123911E+03  0.00000000000E+00 0. -1.
         23    2    1    2    0    0 -0.32108119913E+02 -0.13494499313E+01 -0.11668464199E+03  0.15154427804E+03  0.91200932833E+02 0.  0.
         23    2    1    2    0    0  0.49878543694E+02 -0.37633792684E+02 -0.13563883628E+03  0.17483325171E+03  0.90909848336E+02 0.  0.
        -13    1    3    3    0    0  0.21861566221E+02  0.27211974133E+02 -0.51627872690E+02  0.62320597336E+02  0.00000000000E+00 0.  1.
         13    1    3    3    0    0 -0.53969686133E+02 -0.28561424064E+02 -0.65056769304E+02  0.89223680703E+02  0.00000000000E+00 0. -1.
        -13    1    4    4    0    0  0.52048807176E+02 -0.63455072787E+02 -0.11699574470E+03  0.14291126222E+03  0.00000000000E+00 0.  1.
         13    1    4    4    0    0 -0.21702634824E+01  0.25821280102E+02 -0.18643091581E+02  0.31921989496E+02  0.00000000000E+00 0. -1.
         21    1    1    2  502  501 -0.17770423781E+02  0.38983242616E+02 -0.11234484645E+03  0.12023662375E+03  0.00000000000E+00 0. -1.
<scales pt_clust_5="13000.00000" pt_clust_6="13000.00000" pt_clust_7="13000.00000" pt_clust_8="13000.00000" pt_clust_9="42.84252"></scales>
<clustering>
<clus scale="   42.843">  2  9  1 -1</clus>
<clus scale="   90.910">  7  8 -1 -1</clus>
<clus scale="   91.201">  5  6 -1 -1</clus>
<clus scale="  100.856">  2  7  1 -1</clus>
<clus scale="   42.843">  2  5  1 -1</clus>
</clustering>
</event>
<event>
 9    1  0.9000149E-006  0.1175526E+03  0.7546771E-02  0.1247281E+00
         -1   -1    0    0    0  501 -0.00000000000E+00  0.00000000000E+00  0.18329380700E+03  0.18329380700E+03  0.00000000000E+00 0.  1.
          1   -1    0    0  502    0  0.00000000000E+00 -0.00000000000E+00 -0.36335583845E+03  0.36335583845E+03  0.00000000000E+00 0. -1.
         23    2    1    2    0    0  0.43176212223E+02 -0.68729145364E+02  0.13379959927E+03  0.18134342547E+03  0.91625457554E+02 0.  0.
         23    2    1    2    0    0 -0.40733789817E+02  0.15196645866E+02 -0.92159440390E+02  0.13721949278E+03  0.91900201673E+02 0.  0.
        -11    1    4    4    0    0 -0.37067313833E+02  0.46183503880E+02 -0.87521568610E+02  0.10567368053E+03  0.00000000000E+00 0. -1.
         11    1    4    4    0    0 -0.36664759838E+01 -0.30986858014E+02 -0.46378717803E+01  0.31545812248E+02  0.00000000000E+00 0.  1.
        -13    1    3    3    0    0  0.22866337206E+02 -0.56712335854E+02  0.14337950382E+03  0.15587443835E+03  0.00000000000E+00 0.  1.
         13    1    3    3    0    0  0.20309875017E+02 -0.12016809509E+02 -0.95799045456E+01  0.25468987124E+02  0.00000000000E+00 0. -1.
         21    1    1    2  502  501 -0.24424224060E+01  0.53532499498E+02 -0.22170219033E+03  0.22808672720E+03  0.00000000000E+00 0. -1.
<scales pt_clust_5="13000.00000" pt_clust_6="13000.00000" pt_clust_7="13000.00000" pt_clust_8="13000.00000" pt_clust_9="53.58819"></scales>
<clustering>
<clus scale="   53.588">  2  9  1 -1</clus>
<clus scale="   91.625">  7  8 -1 -1</clus>
<clus scale="   91.900">  5  6 -1 -1</clus>
<clus scale="  117.338">  1  7  2 -1</clus>
<clus scale="   53.588">  2  5  1 -1</clus>
</clustering>
</event>
<event>
 9    1  0.9000149E-006  0.1077215E+03  0.7546771E-02  0.1265792E+00
         -1   -1    0    0    0  501 -0.00000000000E+00  0.00000000000E+00  0.38020272027E+03  0.38020272027E+03  0.00000000000E+00 0.  1.
          1   -1    0    0  502    0  0.00000000000E+00 -0.00000000000E+00 -0.52233660585E+02  0.52233660585E+02  0.00000000000E+00 0. -1.
         23    2    1    2    0    0 -0.46412636041E+01 -0.52235719446E+02  0.22806857444E+03  0.25119440756E+03  0.91286603787E+02 0.  0.
         23    2    1    2    0    0 -0.25061024105E+02  0.68891751493E+02  0.88503995343E+02  0.14533195685E+03  0.88962307399E+02 0.  0.
        -13    1    4    4    0    0  0.21743333444E+02 -0.11447990097E+01 -0.17889363052E+01  0.21846816865E+02  0.00000000000E+00 0. -1.
         13    1    4    4    0    0 -0.46804357549E+02  0.70036550502E+02  0.90292931648E+02  0.12348513999E+03  0.00000000000E+00 0.  1.
        -13    1    3    3    0    0  0.10192194968E+02 -0.75989932546E+02  0.17833792238E+03  0.19412049157E+03  0.00000000000E+00 0. -1.
         13    1    3    3    0    0 -0.14833458572E+02  0.23754213100E+02  0.49730652058E+02  0.57073915998E+02  0.00000000000E+00 0.  1.
         21    1    1    2  502  501  0.29702287709E+02 -0.16656032047E+02  0.11396489906E+02  0.35910016442E+02  0.00000000000E+00 0.  1.
<scales pt_clust_5="13000.00000" pt_clust_6="13000.00000" pt_clust_7="13000.00000" pt_clust_8="13000.00000" pt_clust_9="34.05362"></scales>
<clustering>
<clus scale="   34.054">  2  9  1 -1</clus>
<clus scale="   88.962">  5  6 -1 -1</clus>
<clus scale="   91.287">  7  8 -1 -1</clus>
<clus scale="  105.759">  2  5  1 -1</clus>
<clus scale="   34.054">  2  5  1 -1</clus>
</clustering>
</event>
<event>
 9    1  0.9000149E-006  0.9668923E+02  0.7546771E-02  0.1287691E+00
          1   -1    0    0  502    0  0.00000000000E+00  0.00000000000E+00  0.81676950314E+02  0.81676950314E+02  0.00000000000E+00 0. -1.
         -1   -1    0    0    0  501 -0.00000000000E+00 -0.00000000000E+00 -0.19885362165E+03  0.19885362165E+03  0.00000000000E+00 0.  1.
         23    2    1    2    0    0  0.31098882686E+02  0.22901241705E+02 -0.11817480042E+03  0.15438970320E+03  0.91538459807E+02 0.  0.
         23    2    1    2    0    0  0.15927075845E+01 -0.20298667330E+02 -0.12393326735E+01  0.93269609241E+02  0.91011600632E+02 0.  0.
        -11    1    4    4    0    0 -0.30111987935E+02  0.24053792838E+02 -0.35398246754E+01  0.38702029999E+02  0.00000000000E+00 0.  1.
         11    1    4    4    0    0  0.31704695519E+02 -0.44352460168E+02  0.23004920019E+01  0.54567579242E+02  0.00000000000E+00 0. -1.
        -13    1    3    3    0    0  0.32970185742E+02  0.45051346385E+02 -0.29841199890E+02  0.63302086615E+02  0.00000000000E+00 0.  1.
         13    1    3    3    0    0 -0.18713030557E+01 -0.22150104680E+02 -0.88333600531E+02  0.91087616585E+02  0.00000000000E+00 0. -1.
         21    1    1    2  502  501 -0.32691590271E+02 -0.26025743754E+01  0.22374617534E+01  0.32871259527E+02  0.00000000000E+00 0. -1.
<scales pt_clust_5="13000.00000" pt_clust_6="13000.00000" pt_clust_7="13000.00000" pt_clust_8="13000.00000" pt_clust_9="32.79502"></scales>
<clustering>
<clus scale="   32.795">  1  9  2 -1</clus>
<clus scale="   91.012">  5  6 -1 -1</clus>
<clus scale="   91.538">  7  8 -1 -1</clus>
<clus scale="   96.191">  1  5  2 -1</clus>
<clus scale="   32.795">  1  5  2 -1</clus>
</clustering>
</event>
<event>
 9    1  0.9000149E-006  0.3296244E+03  0.7546771E-02  0.1112059E+00
          1   -1    0    0  502    0  0.00000000000E+00  0.00000000000E+00  0.45554381328E+03  0.45554381328E+03  0.00000000000E+00 0. -1.
         -1   -1    0    0    0  501 -0.00000000000E+00 -0.00000000000E+00 -0.43660662253E+03  0.43660662253E+03  0.00000000000E+00 0.  1.
         23    2    1    2    0    0 -0.15513075913E+03 -0.29171286635E+03 -0.24268223720E+03  0.41992468242E+03  0.90995174777E+02 0.  0.
         23    2    1    2    0    0  0.10631693602E+02  0.60154812169E+02  0.36248166294E+02  0.11826061673E+03  0.94551623850E+02 0.  0.
        -11    1    3    3    0    0 -0.10742596113E+03 -0.17441951166E+03 -0.96235082220E+02  0.22632652125E+03  0.00000000000E+00 0.  1.
         11    1    3    3    0    0 -0.47704798001E+02 -0.11729335469E+03 -0.14644715498E+03  0.19359816117E+03  0.00000000000E+00 0. -1.
        -13    1    4    4    0    0 -0.40586661609E+01 -0.20638283183E+02  0.28998386610E+02  0.35823427108E+02  0.00000000000E+00 0.  1.
         13    1    4    4    0    0  0.14690359763E+02  0.80793095353E+02  0.72497796842E+01  0.82437189618E+02  0.00000000000E+00 0. -1.
         21    1    1    2  502  501  0.14449906553E+03  0.23155805418E+03  0.22537126165E+03  0.35396513666E+03  0.00000000000E+00 0. -1.
<scales pt_clust_5="13000.00000" pt_clust_6="13000.00000" pt_clust_7="13000.00000" pt_clust_8="13000.00000" pt_clust_9="316.81562"></scales>
<clustering>
<clus scale="   90.995">  5  6 -1 -1</clus>
<clus scale="   94.552">  7  8 -1 -1</clus>
<clus scale="  112.568">  1  7  2 -1</clus>
<clus scale="  316.816">  1  9  2 -1</clus>
<clus scale="  112.568">  1  5  2 -1</clus>
</clustering>
</event>
<event>
 9    1  0.9000149E-006  0.9741830E+02  0.7546771E-02  0.1286275E+00
          2   -1    0    0  502    0  0.00000000000E+00  0.00000000000E+00  0.19707417542E+03  0.19707417542E+03  0.00000000000E+00 0. -1.
         -2   -1    0    0    0  501 -0.00000000000E+00 -0.00000000000E+00 -0.10266990020E+03  0.10266990020E+03  0.00000000000E+00 0.  1.
         23    2    1    2    0    0 -0.29430021970E+02  0.21211093928E+01 -0.40173270894E+02  0.10371002213E+03  0.90946422124E+02 0.  0.
         23    2    1    2    0    0  0.45655773809E+02  0.25543739499E+02  0.12243792043E+03  0.16174135166E+03  0.91827491352E+02 0.  0.
        -11    1    3    3    0    0 -0.29503930464E+02 -0.20684787044E+02 -0.62277256439E+02  0.71949975659E+02  0.00000000000E+00 0.  1.
         11    1    3    3    0    0  0.73908493645E-01  0.22805896437E+02  0.22103985544E+02  0.31760046468E+02  0.00000000000E+00 0. -1.
        -13    1    4    4    0    0  0.59496009200E+02  0.46582311440E+02  0.11051728429E+03  0.13387963615E+03  0.00000000000E+00 0. -1.
         13    1    4    4    0    0 -0.13840235392E+02 -0.21038571941E+02  0.11920636141E+02  0.27861715508E+02  0.00000000000E+00 0.  1.
         21    1    1    2  502  501 -0.16225751838E+02 -0.27664848892E+02  0.12139625695E+02  0.34292701832E+02  0.00000000000E+00 0.  1.
<scales pt_clust_5="13000.00000" pt_clust_6="13000.00000" pt_clust_7="13000.00000" pt_clust_8="13000.00000" pt_clust_9="32.07209"></scales>
<clustering>
<clus scale="   32.072">  1  9  2 -1</clus>
<clus scale="   90.946">  5  6 -1 -1</clus>
<clus scale="   91.827">  7  8 -1 -1</clus>
<clus scale="   96.588">  2  5  1 -1</clus>
<clus scale="   32.072">  1  5  2 -1</clus>
</clustering>
</event>
<event>
 9    1  0.9000149E-006  0.9407371E+02  0.7546771E-02  0.1293516E+00
         -1   -1    0    0    0  501 -0.00000000000E+00  0.00000000000E+00  0.17045481484E+03  0.17045481484E+03  0.00000000000E+00 0.  1.
          1   -1    0    0  502    0  0.00000000000E+00 -0.00000000000E+00 -0.86529763391E+02  0.86529763391E+02  0.00000000000E+00 0. -1.
         23    2    1    2    0    0 -0.17799932596E+02 -0.28464045995E+02  0.80804686665E+02  0.12488172450E+03  0.89101112294E+02 0.  0.
         23    2    1    2    0    0 -0.18691861332E+02  0.27542218643E+02  0.92039270816E+00  0.95533185060E+02  0.89542073000E+02 0.  0.
        -11    1    3    3    0    0  0.15995461095E+02 -0.42596985202E+02  0.75099943008E+02  0.87808651986E+02  0.00000000000E+00 0.  1.
         11    1    3    3    0    0 -0.33795393691E+02  0.14132939206E+02  0.57047436574E+01  0.37073072513E+02  0.00000000000E+00 0. -1.
        -13    1    4    4    0    0 -0.47438251329E+02  0.40637084305E+02 -0.73093647444E+01  0.62890278445E+02  0.00000000000E+00 0. -1.
         13    1    4    4    0    0  0.28746389997E+02 -0.13094865662E+02  0.82297574525E+01  0.32642906615E+02  0.00000000000E+00 0.  1.
         21    1    1    2  502  501  0.36491793928E+02  0.92182735242E+00  0.21999720790E+01  0.36569668674E+02  0.00000000000E+00 0. -1.
<scales pt_clust_5="13000.00000" pt_clust_6="13000.00000" pt_clust_7="13000.00000" pt_clust_8="13000.00000" pt_clust_9="36.50344"></scales>
<clustering>
<clus scale="   36.503">  2  9  1 -1</clus>
<clus scale="   89.101">  5  6 -1 -1</clus>
<clus scale="   89.542">  7  8 -1 -1</clus>
<clus scale="   93.654">  1  5  2 -1</clus>
<clus scale="   36.503">  2  5  1 -1</clus>
</clustering>
</event>
<event>
 9    1  0.9000149E-006  0.2069890E+03  0.7546771E-02  0.1144022E+00
          2   -1    0    0  502    0  0.00000000000E+00  0.00000000000E+00  0.67535361117E+03  0.67535361117E+03  0.00000000000E+00 0. -1.
         -2   -1    0    0    0  501 -0.00000000000E+00 -0.00000000000E+00 -0.10071417154E+03  0.10071417154E+03  0.00000000000E+00 0.  1.
         23    2    1    2    0    0 -0.13110589005E+03  0.12608353937E+03  0.78379153513E+02  0.21837506650E+03  0.91970455333E+02 0.  0.
         23    2    1    2    0    0  0.15276124893E+03 -0.12023801143E+03  0.35897507904E+03  0.41858717051E+03  0.92514503603E+02 0.  0.
        -13    1    3    3    0    0  0.20989861213E+01  0.37836840963E+02  0.37786958740E+02  0.53515292465E+02  0.00000000000E+00 0. -1.
         13    1    3    3    0    0 -0.13320487617E+03  0.88246698411E+02  0.40592194773E+02  0.16485977403E+03  0.00000000000E+00 0.  1.
        -13    1    4    4    0    0  0.83380630464E+02 -0.11746645564E+03  0.21577773046E+03  0.25944310879E+03  0.00000000000E+00 0.  1.
         13    1    4    4    0    0  0.69380618469E+02 -0.27715557945E+01  0.14319734858E+03  0.15914406172E+03  0.00000000000E+00 0. -1.
         21    1    1    2  502  501 -0.21655358880E+02 -0.58455279395E+01  0.13728520707E+03  0.13910554571E+03  0.00000000000E+00 0.  1.
<scales pt_clust_5="13000.00000" pt_clust_6="13000.00000" pt_clust_7="13000.00000" pt_clust_8="13000.00000" pt_clust_9="22.43044"></scales>
<clustering>
<clus scale="   22.430">  1  9  2 -1</clus>
<clus scale="   91.970">  5  6 -1 -1</clus>
<clus scale="   92.515">  7  8 -1 -1</clus>
<clus scale="  206.746">  2  5  1 -1</clus>
<clus scale="   22.430">  1  5  2 -1</clus>
</clustering>
</event>
<event>
 9    1  0.9000149E-006  0.9428044E+02  0.7546771E-02  0.1292969E+00
          2   -1    0    0  502    0  0.00000000000E+00  0.00000000000E+00  0.44653277144E+03  0.44653277144E+03  0.00000000000E+00 0. -1.
         -2   -1    0    0    0  501 -0.00000000000E+00 -0.00000000000E+00 -0.48306732387E+02  0.48306732387E+02  0.00000000000E+00 0.  1.
         23    2    1    2    0    0  0.26133893334E+02 -0.23441317568E+02  0.42068166104E+02  0.10639869949E+03  0.91205684604E+02 0.  0.
         23    2    1    2    0    0  0.30124962082E+01  0.16346743119E+01  0.12789772672E+03  0.15729639910E+03  0.91501810785E+02 0.  0.
        -11    1    3    3    0    0  0.51014179222E+02 -0.13384912445E+02  0.55351627474E+02  0.76455248525E+02  0.00000000000E+00 0. -1.
         11    1    3    3    0    0 -0.24880285888E+02 -0.10056405122E+02 -0.13283461371E+02  0.29943450967E+02  0.00000000000E+00 0.  1.
        -13    1    4    4    0    0 -0.22509004905E+02 -0.31783691969E+02  0.98694138116E+02  0.10610085426E+03  0.00000000000E+00 0.  1.
         13    1    4    4    0    0  0.25521501114E+02  0.33418366281E+02  0.29203588603E+02  0.51195544838E+02  0.00000000000E+00 0. -1.
         21    1    1    2  502  501 -0.29146389543E+02  0.21806643256E+02  0.22826014623E+03  0.23114440524E+03  0.00000000000E+00 0. -1.
<scales pt_clust_5="13000.00000" pt_clust_6="13000.00000" pt_clust_7="13000.00000" pt_clust_8="13000.00000" pt_clust_9="36.40112"></scales>
<clustering>
<clus scale="   36.401">  1  9  2 -1</clus>
<clus scale="   91.206">  5  6 -1 -1</clus>
<clus scale="   91.502">  7  8 -1 -1</clus>
<clus scale="   93.993">  2  5  1 -1</clus>
<clus scale="   36.401">  1  5  2 -1</clus>
</clustering>
</event>
<event>
 9    1  0.9000149E-006  0.1222989E+03  0.7546771E-02  0.1239530E+00
          3   -1    0    0  502    0  0.00000000000E+00  0.00000000000E+00  0.11169940912E+03  0.11169940912E+03  0.00000000000E+00 0. -1.
         -3   -1    0    0    0  501 -0.00000000000E+00 -0.00000000000E+00 -0.18368558575E+03  0.18368558575E+03  0.00000000000E+00 0.  1.
         23    2    1    2    0    0 -0.44421958731E+01 -0.88683134623E+02 -0.84671425518E+02  0.15341253472E+03  0.92096275930E+02 0.  0.
         23    2    1    2    0    0  0.18050058311E+02  0.64584834873E+02  0.66366216273E+01  0.11364424343E+03  0.91509364638E+02 0.  0.
        -13    1    3    3    0    0  0.21337723549E+02 -0.36789367349E+02  0.88069297180E+01  0.43431762654E+02  0.00000000000E+00 0. -1.
         13    1    3    3    0    0 -0.25779919422E+02 -0.51893767274E+02 -0.93478355236E+02  0.10998077207E+03  0.00000000000E+00 0.  1.
        -13    1    4    4    0    0 -0.36340402576E+02  0.29621701673E+02 -0.74421381281E+01  0.47470574984E+02  0.00000000000E+00 0.  1.
         13    1    4    4    0    0  0.54390460887E+02  0.34963133201E+02  0.14078759755E+02  0.66173668441E+02  0.00000000000E+00 0. -1.
         21    1    1    2  502  501 -0.13607862437E+02  0.24098299750E+02  0.60486272563E+01  0.28328216722E+02  0.00000000000E+00 0.  1.
<scales pt_clust_5="13000.00000" pt_clust_6="13000.00000" pt_clust_7="13000.00000" pt_clust_8="13000.00000" pt_clust_9="27.67493"></scales>
<clustering>
<clus scale="   27.675">  1  9  2 -1</clus>
<clus scale="   91.509">  7  8 -1 -1</clus>
<clus scale="   92.096">  5  6 -1 -1</clus>
<clus scale="  121.858">  1  7  2 -1</clus>
<clus scale="   27.675">  1  5  2 -1</clus>
</clustering>
</event>
<event>
 9    1  0.9000149E-006  0.1237017E+03  0.7546771E-02  0.1237126E+00
          3   -1    0    0  502    0  0.00000000000E+00  0.00000000000E+00  0.17588201607E+03  0.17588201607E+03  0.00000000000E+00 0. -1.
         -3   -1    0    0    0  501 -0.00000000000E+00 -0.00000000000E+00 -0.13366700552E+03  0.13366700552E+03  0.00000000000E+00 0.  1.
         23    2    1    2    0    0 -0.10281843608E+03  0.32444175706E+02 -0.49570705433E+00  0.14044039292E+03  0.89994460398E+02 0.  0.
         23    2    1    2    0    0  0.63963923954E+02  0.37670554207E+01  0.28462251595E+02  0.11411821900E+03  0.90040512370E+02 0.  0.
        -11    1    4    4    0    0  0.58267937181E+01  0.41000831030E+02  0.88432396336E+01  0.42346458617E+02  0.00000000000E+00 0. -1.
         11    1    4    4    0    0  0.58137130236E+02 -0.37233775609E+02  0.19619011962E+02  0.71771760384E+02  0.00000000000E+00 0.  1.
        -13    1    3    3    0    0 -0.46053049746E+02  0.40863833680E+00 -0.42687497234E+02  0.62795483885E+02  0.00000000000E+00 0.  1.
         13    1    3    3    0    0 -0.56765386331E+02  0.32035537369E+02  0.42191790180E+02  0.77644909031E+02  0.00000000000E+00 0. -1.
         21    1    1    2  502  501  0.38854512123E+02 -0.36211231127E+02  0.14248466015E+02  0.54990409672E+02  0.00000000000E+00 0.  1.
<scales pt_clust_5="13000.00000" pt_clust_6="13000.00000" pt_clust_7="13000.00000" pt_clust_8="13000.00000" pt_clust_9="53.11239"></scales>
<clustering>
<clus scale="   53.112">  1  9  2 -1</clus>
<clus scale="   89.994">  7  8 -1 -1</clus>
<clus scale="   90.041">  5  6 -1 -1</clus>
<clus scale="  123.668">  2  7  1 -1</clus>
<clus scale="   53.112">  1  5  2 -1</clus>
</clustering>
</event>
<event>
 9    1  0.9000149E-006  0.1348424E+03  0.7546771E-02  0.1220603E+00
         -1   -1    0    0    0  501 -0.00000000000E+00  0.00000000000E+00  0.96723099283E+02  0.96723099283E+02  0.00000000000E+00 0.  1.
          1   -1    0    0  502    0  0.00000000000E+00 -0.00000000000E+00 -0.24946864147E+03  0.24946864147E+03  0.00000000000E+00 0. -1.
         23    2    1    2    0    0  0.41896096586E+02 -0.73868440454E+02 -0.58572120455E+02  0.13848607417E+03  0.92389772385E+02 0.  0.
         23    2    1    2    0    0 -0.33839185480E+02  0.10915680849E+03 -0.61421824298E+02  0.15889122333E+03  0.91725029505E+02 0.  0.
        -13    1    3    3    0    0  0.46909178435E+02 -0.19357457802E+02 -0.65988880504E+02  0.83244907016E+02  0.00000000000E+00 0. -1.
         13    1    3    3    0    0 -0.50130818490E+01 -0.54510982652E+02  0.74167600490E+01  0.55241167158E+02  0.00000000000E+00 0.  1.
        -13    1    4    4    0    0 -0.44703704703E+02  0.15972683230E+02 -0.13489036584E+01  0.47490708195E+02  0.00000000000E+00 0.  1.
         13    1    4    4    0    0  0.10864519223E+02  0.93184125258E+02 -0.60072920640E+02  0.11140051513E+03  0.00000000000E+00 0. -1.
         21    1    1    2  502  501 -0.80569111059E+01 -0.35288368035E+02 -0.32751597429E+02  0.48814443245E+02  0.00000000000E+00 0.  1.
<scales pt_clust_5="13000.00000" pt_clust_6="13000.00000" pt_clust_7="13000.00000" pt_clust_8="13000.00000" pt_clust_9="36.19645"></scales>
<clustering>
<clus scale="   36.196">  2  9  1 -1</clus>
<clus scale="   91.725">  7  8 -1 -1</clus>
<clus scale="   92.390">  5  6 -1 -1</clus>
<clus scale="  134.388">  2  7  1 -1</clus>
<clus scale="   36.196">  2  5  1 -1</clus>
</clustering>
</event>
<event>
 9    1  0.9000149E-006  0.1986220E+03  0.7546771E-02  0.1151791E+00
          2   -1    0    0  502    0  0.00000000000E+00  0.00000000000E+00  0.42986721898E+03  0.42986721898E+03  0.00000000000E+00 0. -1.
         -2   -1    0    0    0  501 -0.00000000000E+00 -0.00000000000E+00 -0.41428325216E+03  0.41428325216E+03  0.00000000000E+00 0.  1.
         23    2    1    2    0    0  0.16139390558E+03  0.63402104207E+02 -0.36031513728E+03  0.41004069313E+03  0.90766471217E+02 0.  0.
         23    2    1    2    0    0 -0.13612058413E+03 -0.66412016244E+02  0.36280438339E+03  0.40548684912E+03  0.99263260453E+02 0.  0.
        -11    1    4    4    0    0 -0.71429397053E+02  0.18367288376E+02  0.16599846497E+03  0.18164527634E+03  0.00000000000E+00 0.  1.
         11    1    4    4    0    0 -0.64691187074E+02 -0.84779304620E+02  0.19680591843E+03  0.22384157278E+03  0.00000000000E+00 0. -1.
        -11    1    3    3    0    0  0.64531243679E+02  0.53304051777E+02 -0.24609308058E+03  0.25993731485E+03  0.00000000000E+00 0.  1.
         11    1    3    3    0    0  0.96862661898E+02  0.10098052430E+02 -0.11422205670E+03  0.15010337828E+03  0.00000000000E+00 0. -1.
         21    1    1    2  502  501 -0.25273321449E+02  0.30099120373E+01  0.13094720702E+02  0.28622928883E+02  0.00000000000E+00 0. -1.
<scales pt_clust_5="13000.00000" pt_clust_6="13000.00000" pt_clust_7="13000.00000" pt_clust_8="13000.00000" pt_clust_9="25.45192"></scales>
<clustering>
<clus scale="   25.452">  1  9  2 -1</clus>
<clus scale="   90.766">  7  8 -1 -1</clus>
<clus scale="   99.263">  5  6 -1 -1</clus>
<clus scale="  194.515">  2  7  1 -1</clus>
<clus scale="   25.452">  1  5  2 -1</clus>
</clustering>
</event>
<event>
 9    1  0.9000149E-006  0.9803570E+02  0.7546771E-02  0.1287150E+00
         -4   -1    0    0    0  501 -0.00000000000E+00  0.00000000000E+00  0.73911585503E+03  0.73911585503E+03  0.00000000000E+00 0.  1.
          4   -1    0    0  502    0  0.00000000000E+00 -0.00000000000E+00 -0.26211971282E+02  0.26211971282E+02  0.00000000000E+00 0. -1.
         23    2    1    2    0    0 -0.29212066193E+02 -0.45973759255E+01  0.52258623719E+03  0.53193743472E+03  0.94797565782E+02 0.  0.
         23    2    1    2    0    0  0.94721008504E+01 -0.29331343398E+02  0.12199810315E+03  0.15459709088E+03  0.89814669930E+02 0.  0.
        -11    1    4    4    0    0  0.43452915195E+02 -0.13697300866E+02  0.10303784016E+03  0.11266129946E+03  0.00000000000E+00 0.  1.
         11    1    4    4    0    0 -0.33980814344E+02 -0.15634042532E+02  0.18960262991E+02  0.41935791420E+02  0.00000000000E+00 0. -1.
        -13    1    3    3    0    0  0.42450226614E+01 -0.45930100760E+02  0.24330207699E+03  0.24763581131E+03  0.00000000000E+00 0. -1.
         13    1    3    3    0    0 -0.33457088855E+02  0.41332724835E+02  0.27928416020E+03  0.28430162341E+03  0.00000000000E+00 0.  1.
         21    1    1    2  502  501  0.19739965343E+02  0.33928719323E+02  0.68319543398E+02  0.78793300710E+02  0.00000000000E+00 0.  1.
<scales pt_clust_5="13000.00000" pt_clust_6="13000.00000" pt_clust_7="13000.00000" pt_clust_8="13000.00000" pt_clust_9="39.25333"></scales>
<clustering>
<clus scale="   39.253">  2  9  1 -1</clus>
<clus scale="   89.815">  5  6 -1 -1</clus>
<clus scale="   93.226">  2  5  1 -1</clus>
<clus scale="   94.798">  7  8 -1 -1</clus>
<clus scale="   39.253">  2  5  1 -1</clus>
</clustering>
</event>
<event>
 9    1  0.9000149E-006  0.1471215E+03  0.7546771E-02  0.1204201E+00
          1   -1    0    0  502    0  0.00000000000E+00  0.00000000000E+00  0.28782156431E+03  0.28782156431E+03  0.00000000000E+00 0. -1.
         -1   -1    0    0    0  501 -0.00000000000E+00 -0.00000000000E+00 -0.44093109245E+03  0.44093109245E+03  0.00000000000E+00 0.  1.
         23    2    1    2    0    0 -0.78680624352E+02  0.89840653152E+02 -0.33968326582E+03  0.37170315158E+03  0.92285037839E+02 0.  0.
         23    2    1    2    0    0  0.35495249450E+02 -0.93503494525E+02 -0.26911992559E+02  0.13920885234E+03  0.93016305039E+02 0.  0.
        -11    1    3    3    0    0 -0.73447623251E+02  0.14339654471E+02 -0.15521659416E+03  0.17231474155E+03  0.00000000000E+00 0.  1.
         11    1    3    3    0    0 -0.52330011014E+01  0.75500998681E+02 -0.18446667166E+03  0.19938841003E+03  0.00000000000E+00 0. -1.
        -13    1    4    4    0    0  0.28471147269E+02 -0.27570651207E+02  0.31669233461E+02  0.50731522575E+02  0.00000000000E+00 0. -1.
         13    1    4    4    0    0  0.70241021805E+01 -0.65932843319E+02 -0.58581226020E+02  0.88477329760E+02  0.00000000000E+00 0.  1.
         21    1    1    2  502  501  0.43185374902E+02  0.36628413728E+01  0.21348573024E+03  0.21784065284E+03  0.00000000000E+00 0. -1.
<scales pt_clust_5="13000.00000" pt_clust_6="13000.00000" pt_clust_7="13000.00000" pt_clust_8="13000.00000" pt_clust_9="43.34043"></scales>
<clustering>
<clus scale="   43.340">  1  9  2 -1</clus>
<clus scale="   92.285">  5  6 -1 -1</clus>
<clus scale="   93.016">  7  8 -1 -1</clus>
<clus scale="  146.660">  2  5  1 -1</clus>
<clus scale="   43.340">  1  5  2 -1</clus>
</clustering>
</event>
<event>
 9    1  0.9000149E-006  0.1380225E+03  0.7546771E-02  0.1217306E+00
         -1   -1    0    0    0  501 -0.00000000000E+00  0.00000000000E+00  0.97928913514E+02  0.97928913514E+02  0.00000000000E+00 0.  1.
          1   -1    0    0  502    0  0.00000000000E+00 -0.00000000000E+00 -0.38404822156E+03  0.38404822156E+03  0.00000000000E+00 0. -1.
         23    2    1    2    0    0 -0.11536612569E+03 -0.95772828321E+01 -0.23002967939E+02  0.14626034492E+03  0.86382201051E+02 0.  0.
         23    2    1    2    0    0  0.80986317321E+02  0.32582976536E+02 -0.84624819041E+02  0.15249436724E+03  0.92047477367E+02 0.  0.
        -11    1    3    3    0    0 -0.14438465763E+02  0.25636873334E+02 -0.26085555988E+02  0.39321429261E+02  0.00000000000E+00 0. -1.
         11    1    3    3    0    0 -0.10092765993E+03 -0.35214156166E+02  0.30825880489E+01  0.10693891566E+03  0.00000000000E+00 0.  1.
        -13    1    4    4    0    0  0.45982730029E+02 -0.25415072506E+02 -0.13445967758E+02  0.54232199111E+02  0.00000000000E+00 0.  1.
         13    1    4    4    0    0  0.35003587291E+02  0.57998049042E+02 -0.71178851283E+02  0.98262168131E+02  0.00000000000E+00 0. -1.
         21    1    1    2  502  501  0.34379808369E+02 -0.23005693704E+02 -0.17849152107E+03  0.18322242292E+03  0.00000000000E+00 0. -1.
<scales pt_clust_5="13000.00000" pt_clust_6="13000.00000" pt_clust_7="13000.00000" pt_clust_8="13000.00000" pt_clust_9="41.36705"></scales>
<clustering>
<clus scale="   41.367">  2  9  1 -1</clus>
<clus scale="   86.382">  5  6 -1 -1</clus>
<clus scale="   92.047">  7  8 -1 -1</clus>
<clus scale="  134.311">  1  5  2 -1</clus>
<clus scale="   41.367">  2  5  1 -1</clus>
</clustering>
</event>
<event>
 9    1  0.9000149E-006  0.9783534E+02  0.7546771E-02  0.1285013E+00
          1   -1    0    0  502    0  0.00000000000E+00  0.00000000000E+00  0.20819778427E+02  0.20819778427E+02  0.00000000000E+00 0. -1.
         -1   -1    0    0    0  501 -0.00000000000E+00 -0.00000000000E+00 -0.76710083538E+03  0.76710083538E+03  0.00000000000E+00 0.  1.
         23    2    1    2    0    0  0.33046082741E+02  0.45609459511E+01 -0.46010090234E+03  0.47028047294E+03  0.91422300776E+02 0.  0.
         23    2    1    2    0    0 -0.36852752723E+02  0.28437595820E+02 -0.23818328924E+03  0.25926982666E+03  0.91229060636E+02 0.  0.
        -11    1    4    4    0    0 -0.99421865615E+01  0.57095576785E+02 -0.17959648602E+03  0.18871579094E+03  0.00000000000E+00 0.  1.
         11    1    4    4    0    0 -0.26910566161E+02 -0.28657980965E+02 -0.58586803222E+02  0.70554035716E+02  0.00000000000E+00 0. -1.
        -11    1    3    3    0    0  0.50627881240E+02 -0.29761459054E+02 -0.27224924071E+03  0.27851135681E+03  0.00000000000E+00 0.  1.
         11    1    3    3    0    0 -0.17581798498E+02  0.34322405005E+02 -0.18785166163E+03  0.19176911612E+03  0.00000000000E+00 0. -1.
         21    1    1    2  502  501  0.38066699811E+01 -0.32998541771E+02 -0.47996865377E+02  0.58370314213E+02  0.00000000000E+00 0.  1.
<scales pt_clust_5="13000.00000" pt_clust_6="13000.00000" pt_clust_7="13000.00000" pt_clust_8="13000.00000" pt_clust_9="33.21738"></scales>
<clustering>
<clus scale="   33.217">  1  9  2 -1</clus>
<clus scale="   91.229">  5  6 -1 -1</clus>
<clus scale="   91.422">  7  8 -1 -1</clus>
<clus scale="   97.655">  1  5  2 -1</clus>
<clus scale="   33.217">  1  5  2 -1</clus>
</clustering>
</event>
<event>
 9    1  0.9000149E-006  0.9909065E+02  0.7546771E-02  0.1283121E+00
         -2   -1    0    0    0  501 -0.00000000000E+00  0.00000000000E+00  0.26327102562E+03  0.26327102562E+03  0.00000000000E+00 0.  1.
          2   -1    0    0  502    0  0.00000000000E+00 -0.00000000000E+00 -0.15622783221E+03  0.15622783221E+03  0.00000000000E+00 0. -1.
         23    2    1    2    0    0  0.34251782495E+01 -0.22789523618E+02  0.13777033106E+03  0.16703172990E+03  0.91585154044E+02 0.  0.
         23    2    1    2    0    0  0.19606404147E+02  0.70008498711E+02  0.72681162002E+02  0.13647849991E+03  0.89767636994E+02 0.  0.
        -13    1    3    3    0    0  0.47078616885E+01 -0.47297998267E+02  0.29338174448E+02  0.55856898246E+02  0.00000000000E+00 0.  1.
         13    1    3    3    0    0 -0.12826834390E+01  0.24508474649E+02  0.10843215661E+03  0.11117483165E+03  0.00000000000E+00 0. -1.
        -13    1    4    4    0    0  0.19084881025E+02  0.48926307795E+02  0.93249061651E+02  0.10702057642E+03  0.00000000000E+00 0.  1.
         13    1    4    4    0    0  0.52152312255E+00  0.21082190916E+02 -0.20567899650E+02  0.29457923487E+02  0.00000000000E+00 0. -1.
         21    1    1    2  502  501 -0.23031582397E+02 -0.47218975093E+02 -0.10340829965E+03  0.11598862803E+03  0.00000000000E+00 0. -1.
<scales pt_clust_5="13000.00000" pt_clust_6="13000.00000" pt_clust_7="13000.00000" pt_clust_8="13000.00000" pt_clust_9="52.53651"></scales>
<clustering>
<clus scale="   52.537">  2  9  1 -1</clus>
<clus scale="   89.768">  7  8 -1 -1</clus>
<clus scale="   91.585">  5  6 -1 -1</clus>
<clus scale="   97.413">  2  7  1 -1</clus>
<clus scale="   52.537">  2  5  1 -1</clus>
</clustering>
</event>
<event>
 9    1  0.9000149E-006  0.1650816E+03  0.7546771E-02  0.1183142E+00
          3   -1    0    0  502    0  0.00000000000E+00  0.00000000000E+00  0.75025893578E+02  0.75025893578E+02  0.00000000000E+00 0. -1.
         -3   -1    0    0    0  501 -0.00000000000E+00 -0.00000000000E+00 -0.68029799719E+03  0.68029799719E+03  0.00000000000E+00 0.  1.
         23    2    1    2    0    0  0.18792639927E+02 -0.14178609131E+03 -0.51219403882E+03  0.53966938278E+03  0.91890425513E+02 0.  0.
         23    2    1    2    0    0 -0.84649730048E-01  0.12100118425E+03 -0.10580274950E+03  0.18493124547E+03  0.91455180232E+02 0.  0.
        -11    1    3    3    0    0  0.49276045927E+02 -0.39222932446E+02 -0.18552500589E+03  0.19592369674E+03  0.00000000000E+00 0.  1.
         11    1    3    3    0    0 -0.30483406000E+02 -0.10256315887E+03 -0.32666903293E+03  0.34374568604E+03  0.00000000000E+00 0. -1.
        -11    1    4    4    0    0 -0.46698297464E+01  0.10059227205E+03 -0.28222785479E+02  0.10458077321E+03  0.00000000000E+00 0. -1.
         11    1    4    4    0    0  0.45851800164E+01  0.20408912203E+02 -0.77579964024E+02  0.80350472252E+02  0.00000000000E+00 0.  1.
         21    1    1    2  502  501 -0.18707990197E+02  0.20784907061E+02  0.12724684714E+02  0.30723262519E+02  0.00000000000E+00 0.  1.
<scales pt_clust_5="13000.00000" pt_clust_6="13000.00000" pt_clust_7="13000.00000" pt_clust_8="13000.00000" pt_clust_9="27.96429"></scales>
<clustering>
<clus scale="   27.964">  1  9  2 -1</clus>
<clus scale="   91.455">  7  8 -1 -1</clus>
<clus scale="   91.890">  5  6 -1 -1</clus>
<clus scale="  164.840">  1  7  2 -1</clus>
<clus scale="   27.964">  1  5  2 -1</clus>
</clustering>
</event>
<event>
 9    1  0.9000149E-006  0.1287262E+03  0.7546771E-02  0.1237348E+00
          2   -1    0    0  502    0  0.00000000000E+00  0.00000000000E+00  0.20658381219E+03  0.20658381219E+03  0.00000000000E+00 0. -1.
         -2   -1    0    0    0  501 -0.00000000000E+00 -0.00000000000E+00 -0.25332360783E+03  0.25332360783E+03  0.00000000000E+00 0.  1.
         23    2    1    2    0    0  0.63913271550E+02  0.13065945126E+02 -0.18896270452E+03  0.23042133250E+03  0.11459258950E+03 0.  0.
         23    2    1    2    0    0 -0.40170157941E+02  0.28616054512E+02  0.32081081652E+02  0.10935138544E+03  0.92173800691E+02 0.  0.
        -11    1    4    4    0    0  0.14397544409E+02  0.15217231254E+02  0.46793310341E+02  0.51268580093E+02  0.00000000000E+00 0.  1.
         11    1    4    4    0    0 -0.54567702351E+02  0.13398823257E+02 -0.14712228689E+02  0.58082805352E+02  0.00000000000E+00 0. -1.
        -13    1    3    3    0    0  0.28325852676E+02  0.61597809756E+02 -0.12747532638E+03  0.14438352722E+03  0.00000000000E+00 0.  1.
         13    1    3    3    0    0  0.35587418875E+02 -0.48531864630E+02 -0.61487378140E+02  0.86037805278E+02  0.00000000000E+00 0. -1.
         21    1    1    2  502  501 -0.23743113609E+02 -0.41681999638E+02  0.11014182723E+03  0.12013470208E+03  0.00000000000E+00 0. -1.
<scales pt_clust_5="13000.00000" pt_clust_6="13000.00000" pt_clust_7="13000.00000" pt_clust_8="13000.00000" pt_clust_9="47.97004"></scales>
<clustering>
<clus scale="   47.970">  1  9  2 -1</clus>
<clus scale="   92.174">  5  6 -1 -1</clus>
<clus scale="  109.247">  1  5  2 -1</clus>
<clus scale="  114.593">  7  8 -1 -1</clus>
<clus scale="   47.970">  1  5  2 -1</clus>
</clustering>
</event>
<event>
 9    1  0.9000149E-006  0.1323787E+03  0.7546771E-02  0.1226137E+00
          2   -1    0    0  502    0  0.00000000000E+00  0.00000000000E+00  0.12230814494E+03  0.12230814494E+03  0.00000000000E+00 0.  1.
         -2   -1    0    0    0  501 -0.00000000000E+00 -0.00000000000E+00 -0.26339609299E+03  0.26339609299E+03  0.00000000000E+00 0. -1.
         23    2    1    2    0    0  0.77344814842E+02  0.47194549188E+02 -0.18214567701E+03  0.22587954267E+03  0.98157904866E+02 0.  0.
         23    2    1    2    0    0 -0.83513294131E+02 -0.20296357085E+02  0.22444539920E+02  0.12653785580E+03  0.90120248392E+02 0.  0.
        -11    1    4    4    0    0 -0.39061880470E+01  0.22039549886E+02 -0.17015924701E+02  0.28116574430E+02  0.00000000000E+00 0. -1.
         11    1    4    4    0    0 -0.79607106084E+02 -0.42335906971E+02  0.39460464621E+02  0.98421281368E+02  0.00000000000E+00 0.  1.
        -11    1    3    3    0    0  0.48752057217E+01  0.36532858209E+02 -0.13215199355E+03  0.13719535983E+03  0.00000000000E+00 0. -1.
         11    1    3    3    0    0  0.72469609120E+02  0.10661690979E+02 -0.49993683468E+02  0.88684182847E+02  0.00000000000E+00 0.  1.
         21    1    1    2  502  501  0.61684792890E+01 -0.26898192103E+02  0.18613189044E+02  0.33286839465E+02  0.00000000000E+00 0.  1.
<scales pt_clust_5="13000.00000" pt_clust_6="13000.00000" pt_clust_7="13000.00000" pt_clust_8="13000.00000" pt_clust_9="27.59643"></scales>
<clustering>
<clus scale="   27.596">  1  9  2 -1</clus>
<clus scale="   90.120">  5  6 -1 -1</clus>
<clus scale="   98.158">  7  8 -1 -1</clus>
<clus scale="  126.534">  1  5  2 -1</clus>
<clus scale="   27.596">  1  5  2 -1</clus>
</clustering>
</event>
<event>
 9    1  0.9000149E-006  0.1499050E+03  0.7546771E-02  0.1201535E+00
         -2   -1    0    0    0  501 -0.00000000000E+00  0.00000000000E+00  0.63708152427E+02  0.63708152427E+02  0.00000000000E+00 0.  1.
          2   -1    0    0  502    0  0.00000000000E+00 -0.00000000000E+00 -0.78165592623E+03  0.78165592623E+03  0.00000000000E+00 0. -1.
         23    2    1    2    0    0  0.95851619311E+02 -0.73121900057E+02 -0.53630799985E+02  0.15937451736E+03  0.89384723993E+02 0.  0.
         23    2    1    2    0    0 -0.70513405180E+02  0.70324385941E+02 -0.45769971453E+03  0.47780564498E+03  0.94294995213E+02 0.  0.
        -13    1    4    4    0    0  0.19926481997E+01  0.25026587509E+02 -0.20750290750E+02  0.32571080661E+02  0.00000000000E+00 0.  1.
         13    1    4    4    0    0 -0.72506053380E+02  0.45297798431E+02 -0.43694942378E+03  0.44523456432E+03  0.00000000000E+00 0. -1.
        -13    1    3    3    0    0 -0.13836995377E+02 -0.18757498542E+02 -0.23920799206E+02  0.33399263873E+02  0.00000000000E+00 0. -1.
         13    1    3    3    0    0  0.10968861469E+03 -0.54364401515E+02 -0.29710000779E+02  0.12597525348E+03  0.00000000000E+00 0.  1.
         21    1    1    2  502  501 -0.25338214131E+02  0.27975141165E+01 -0.20661725928E+03  0.20818391632E+03  0.00000000000E+00 0. -1.
<scales pt_clust_5="13000.00000" pt_clust_6="13000.00000" pt_clust_7="13000.00000" pt_clust_8="13000.00000" pt_clust_9="25.49218"></scales>
<clustering>
<clus scale="   25.492">  2  9  1 -1</clus>
<clus scale="   89.385">  7  8 -1 -1</clus>
<clus scale="   94.295">  5  6 -1 -1</clus>
<clus scale="  146.866">  1  7  2 -1</clus>
<clus scale="   25.492">  2  5  1 -1</clus>
</clustering>
</event>
<event>
 9    1  0.9000149E-006  0.1179474E+03  0.7546771E-02  0.1247100E+00
          1   -1    0    0  502    0  0.00000000000E+00  0.00000000000E+00  0.15163600409E+03  0.15163600409E+03  0.00000000000E+00 0. -1.
         -1   -1    0    0    0  501 -0.00000000000E+00 -0.00000000000E+00 -0.24829484079E+03  0.24829484079E+03  0.00000000000E+00 0.  1.
         23    2    1    2    0    0  0.33740072129E+02 -0.64420801339E+02 -0.14631975375E+03  0.18882770362E+03  0.94646707307E+02 0.  0.
         23    2    1    2    0    0 -0.47965300541E+02  0.48037972115E+02 -0.37681394523E+02  0.12110628793E+03  0.92943685430E+02 0.  0.
        -11    1    4    4    0    0 -0.42379950507E+02  0.71952737061E+02 -0.10002209391E+02  0.84102917715E+02  0.00000000000E+00 0. -1.
         11    1    4    4    0    0 -0.55853500341E+01 -0.23914764946E+02 -0.27679185132E+02  0.37003370211E+02  0.00000000000E+00 0.  1.
        -13    1    3    3    0    0  0.19843081074E+02 -0.88961879920E+02 -0.11265085711E+03  0.14490748618E+03  0.00000000000E+00 0.  1.
         13    1    3    3    0    0  0.13896991055E+02  0.24541078581E+02 -0.33668896647E+02  0.43920217437E+02  0.00000000000E+00 0. -1.
         21    1    1    2  502  501  0.14225228413E+02  0.16382829224E+02  0.87342311580E+02  0.89996853327E+02  0.00000000000E+00 0. -1.
<scales pt_clust_5="13000.00000" pt_clust_6="13000.00000" pt_clust_7="13000.00000" pt_clust_8="13000.00000" pt_clust_9="21.69687"></scales>
<clustering>
<clus scale="   21.697">  1  9  2 -1</clus>
<clus scale="   92.944">  5  6 -1 -1</clus>
<clus scale="   94.647">  7  8 -1 -1</clus>
<clus scale="  116.585">  1  5  2 -1</clus>
<clus scale="   21.697">  1  5  2 -1</clus>
</clustering>
</event>
<event>
 9    1  0.9000149E-006  0.1200579E+03  0.7546771E-02  0.1248843E+00
          2   -1    0    0  502    0  0.00000000000E+00  0.00000000000E+00  0.69948197889E+03  0.69948197889E+03  0.00000000000E+00 0. -1.
         -2   -1    0    0    0  501 -0.00000000000E+00 -0.00000000000E+00 -0.49208286064E+02  0.49208286064E+02  0.00000000000E+00 0.  1.
         23    2    1    2    0    0 -0.11062985409E+02  0.99072431369E+02  0.83610931534E+02  0.14933761079E+03  0.73302099709E+02 0.  0.
         23    2    1    2    0    0 -0.18486970497E+02 -0.42281726328E+02  0.17788705651E+03  0.20534131841E+03  0.91606439254E+02 0.  0.
        -11    1    3    3    0    0 -0.15380547361E+02  0.14514757727E+02 -0.97628493728E+01  0.23292759752E+02  0.00000000000E+00 0.  1.
         11    1    3    3    0    0  0.43175619521E+01  0.84557673642E+02  0.93373780907E+02  0.12604485104E+03  0.00000000000E+00 0. -1.
        -13    1    4    4    0    0 -0.55600554054E+02 -0.31490121756E+02  0.11297109916E+03  0.12979028710E+03  0.00000000000E+00 0.  1.
         13    1    4    4    0    0  0.37113583557E+02 -0.10791604572E+02  0.64915957349E+02  0.75551031311E+02  0.00000000000E+00 0. -1.
         21    1    1    2  502  501  0.29549955906E+02 -0.56790705041E+02  0.38877570478E+03  0.39401133575E+03  0.00000000000E+00 0. -1.
<scales pt_clust_5="13000.00000" pt_clust_6="13000.00000" pt_clust_7="13000.00000" pt_clust_8="13000.00000" pt_clust_9="64.01862"></scales>
<clustering>
<clus scale="   64.019">  1  9  2 -1</clus>
<clus scale="   73.302">  5  6 -1 -1</clus>
<clus scale="   91.606">  7  8 -1 -1</clus>
<clus scale="  106.749">  2  5  1 -1</clus>
<clus scale="   64.019">  1  5  2 -1</clus>
</clustering>
</event>
<event>
 9    1  0.9000149E-006  0.9432843E+02  0.7546771E-02  0.1293428E+00
          2   -1    0    0  502    0  0.00000000000E+00  0.00000000000E+00  0.23830887843E+03  0.23830887843E+03  0.00000000000E+00 0. -1.
         -2   -1    0    0    0  501 -0.00000000000E+00 -0.00000000000E+00 -0.12858213599E+03  0.12858213599E+03  0.00000000000E+00 0.  1.
         23    2    1    2    0    0 -0.24555434677E+02  0.46874081440E+01 -0.80014504968E+02  0.12354152813E+03  0.90748261695E+02 0.  0.
         23    2    1    2    0    0  0.47019189280E+01  0.14983249625E+02  0.60853000863E+02  0.11146591278E+03  0.92059525234E+02 0.  0.
        -13    1    4    4    0    0 -0.39471189119E+02  0.23589098865E+02  0.18176778283E+02  0.49445076848E+02  0.00000000000E+00 0.  1.
         13    1    4    4    0    0  0.44173108047E+02 -0.86058492399E+01  0.42676222579E+02  0.62020835929E+02  0.00000000000E+00 0. -1.
        -13    1    3    3    0    0  0.34210313187E+01  0.33545664579E+02  0.31126535846E+00  0.33721090632E+02  0.00000000000E+00 0. -1.
         13    1    3    3    0    0 -0.27976465996E+02 -0.28858256435E+02 -0.80325770326E+02  0.89820437499E+02  0.00000000000E+00 0.  1.
         21    1    1    2  502  501  0.19853515749E+02 -0.19670657769E+02  0.12888824654E+03  0.13188357351E+03  0.00000000000E+00 0.  1.
<scales pt_clust_5="13000.00000" pt_clust_6="13000.00000" pt_clust_7="13000.00000" pt_clust_8="13000.00000" pt_clust_9="27.94811"></scales>
<clustering>
<clus scale="   27.948">  1  9  2 -1</clus>
<clus scale="   90.748">  7  8 -1 -1</clus>
<clus scale="   92.060">  5  6 -1 -1</clus>
<clus scale="   93.049">  2  7  1 -1</clus>
<clus scale="   27.948">  1  5  2 -1</clus>
</clustering>
</event>
<event>
 9    1  0.9000149E-006  0.2480133E+03  0.7546771E-02  0.1114865E+00
          2   -1    0    0  502    0  0.00000000000E+00  0.00000000000E+00  0.59172796038E+03  0.59172796038E+03  0.00000000000E+00 0. -1.
         -2   -1    0    0    0  501 -0.00000000000E+00 -0.00000000000E+00 -0.22641154092E+03  0.22641154092E+03  0.00000000000E+00 0.  1.
         23    2    1    2    0    0 -0.13586104235E+03  0.22733868602E+03 -0.46513101844E+02  0.28378362634E+03  0.90711503939E+02 0.  0.
         23    2    1    2    0    0  0.44093676189E+01 -0.17031332681E+03  0.21001414893E+03  0.28684652380E+03  0.95649953751E+02 0.  0.
        -13    1    4    4    0    0  0.48914176977E+02 -0.10457895428E+03  0.13488986352E+03  0.17755176617E+03  0.00000000000E+00 0. -1.
         13    1    4    4    0    0 -0.44504809358E+02 -0.65734372528E+02  0.75124285410E+02  0.10929475763E+03  0.00000000000E+00 0.  1.
        -13    1    3    3    0    0 -0.54278501670E+02  0.13531263765E+03 -0.64626899497E+02  0.15947508204E+03  0.00000000000E+00 0. -1.
         13    1    3    3    0    0 -0.81582540679E+02  0.92026048368E+02  0.18113797653E+02  0.12430854431E+03  0.00000000000E+00 0.  1.
         21    1    1    2  502  501  0.13145167473E+03 -0.57025359211E+02  0.20181537238E+03  0.24750935116E+03  0.00000000000E+00 0. -1.
<scales pt_clust_5="13000.00000" pt_clust_6="13000.00000" pt_clust_7="13000.00000" pt_clust_8="13000.00000" pt_clust_9="143.28794"></scales>
<clustering>
<clus scale="   90.712">  7  8 -1 -1</clus>
<clus scale="   95.650">  5  6 -1 -1</clus>
<clus scale="  143.288">  1  9  2 -1</clus>
<clus scale="  246.151">  2  7  1 -1</clus>
<clus scale="  143.288">  1  5  2 -1</clus>
</clustering>
</event>
<event>
 9    1  0.9000149E-006  0.9716880E+02  0.7546771E-02  0.1287085E+00
         -1   -1    0    0    0  501 -0.00000000000E+00  0.00000000000E+00  0.11390444816E+03  0.11390444816E+03  0.00000000000E+00 0.  1.
          1   -1    0    0  502    0  0.00000000000E+00 -0.00000000000E+00 -0.27417855353E+03  0.27417855353E+03  0.00000000000E+00 0. -1.
         23    2    1    2    0    0 -0.93839527828E+01  0.34760080034E+02  0.73146222386E+02  0.12162344038E+03  0.90252809741E+02 0.  0.
         23    2    1    2    0    0 -0.67315293990E+01 -0.38661176819E+01 -0.18724044770E+03  0.20860865814E+03  0.91642384513E+02 0.  0.
        -11    1    3    3    0    0  0.25198518800E+02 -0.20046346296E+02  0.20988223911E+02  0.38436010361E+02  0.00000000000E+00 0.  1.
         11    1    3    3    0    0 -0.34582471583E+02  0.54806426330E+02  0.52157998476E+02  0.83187430017E+02  0.00000000000E+00 0. -1.
        -13    1    4    4    0    0 -0.44092719815E+01  0.43793216100E+02 -0.82337055961E+02  0.93363152475E+02  0.00000000000E+00 0. -1.
         13    1    4    4    0    0 -0.23222574176E+01 -0.47659333781E+02 -0.10490339174E+03  0.11524550566E+03  0.00000000000E+00 0.  1.
         21    1    1    2  502  501  0.16115482182E+02 -0.30893962352E+02 -0.46179880051E+02  0.57850903167E+02  0.00000000000E+00 0. -1.
<scales pt_clust_5="13000.00000" pt_clust_6="13000.00000" pt_clust_7="13000.00000" pt_clust_8="13000.00000" pt_clust_9="34.84459"></scales>
<clustering>
<clus scale="   34.845">  2  9  1 -1</clus>
<clus scale="   90.253">  5  6 -1 -1</clus>
<clus scale="   91.642">  7  8 -1 -1</clus>
<clus scale="   95.859">  1  5  2 -1</clus>
<clus scale="   34.845">  2  5  1 -1</clus>
</clustering>
</event>
<event>
 9    1  0.9000149E-006  0.1037419E+03  0.7546771E-02  0.1273646E+00
          1   -1    0    0  502    0  0.00000000000E+00  0.00000000000E+00  0.57570198007E+03  0.57570198007E+03  0.00000000000E+00 0. -1.
         -1   -1    0    0    0  501 -0.00000000000E+00 -0.00000000000E+00 -0.30678630205E+02  0.30678630205E+02  0.00000000000E+00 0.  1.
         23    2    1    2    0    0 -0.43687546074E+02 -0.23464294157E+02  0.10349237815E+03  0.14727794706E+03  0.92308973419E+02 0.  0.
         23    2    1    2    0    0  0.44385099710E+02  0.17339170630E+00  0.38696891063E+03  0.39977331779E+03  0.90020557009E+02 0.  0.
        -11    1    4    4    0    0  0.69128305903E+02 -0.60974882451E+01  0.33188320575E+03  0.33906100380E+03  0.00000000000E+00 0. -1.
         11    1    4    4    0    0 -0.24743206194E+02  0.62708799514E+01  0.55085704882E+02  0.60712313994E+02  0.00000000000E+00 0.  1.
        -11    1    3    3    0    0  0.85433448187E+01  0.28078114616E+02  0.17255199539E+02  0.34045721790E+02  0.00000000000E+00 0. -1.
         11    1    3    3    0    0 -0.52230890892E+02 -0.51542408772E+02  0.86237178611E+02  0.11323222527E+03  0.00000000000E+00 0.  1.
         21    1    1    2  502  501 -0.69755363608E+00  0.23290902450E+02  0.54562061082E+02  0.59329345416E+02  0.00000000000E+00 0. -1.
<scales pt_clust_5="13000.00000" pt_clust_6="13000.00000" pt_clust_7="13000.00000" pt_clust_8="13000.00000" pt_clust_9="23.30135"></scales>
<clustering>
<clus scale="   23.301">  1  9  2 -1</clus>
<clus scale="   90.021">  5  6 -1 -1</clus>
<clus scale="   92.309">  7  8 -1 -1</clus>
<clus scale="  101.711">  1  5  2 -1</clus>
<clus scale="   23.301">  1  5  2 -1</clus>
</clustering>
</event>
<event>
 9    1  0.9000149E-006  0.1041661E+03  0.7546771E-02  0.1272880E+00
         -1   -1    0    0    0  501 -0.00000000000E+00  0.00000000000E+00  0.40672225503E+03  0.40672225503E+03  0.00000000000E+00 0.  1.
          1   -1    0    0  502    0  0.00000000000E+00 -0.00000000000E+00 -0.66981634628E+02  0.66981634628E+02  0.00000000000E+00 0. -1.
         23    2    1    2    0    0 -0.21711135265E+02  0.71841328654E+02  0.23057675992E+03  0.26017154727E+03  0.94292321505E+02 0.  0.
         23    2    1    2    0    0  0.22463230841E+02  0.13133347896E+02  0.77070751883E+02  0.12269606703E+03  0.91855008035E+02 0.  0.
        -11    1    4    4    0    0  0.43478146141E+01 -0.37595094402E+02  0.15522483761E+02  0.40905282265E+02  0.00000000000E+00 0. -1.
         11    1    4    4    0    0  0.18115416227E+02  0.50728442298E+02  0.61548268121E+02  0.81790784761E+02  0.00000000000E+00 0.  1.
        -13    1    3    3    0    0  0.28139880167E+02 -0.53061063954E+01  0.57115648723E+02  0.63892135275E+02  0.00000000000E+00 0. -1.
         13    1    3    3    0    0 -0.49851015433E+02  0.77147435050E+02  0.17346111120E+03  0.19627941199E+03  0.00000000000E+00 0.  1.
         21    1    1    2  502  501 -0.75209557571E+00 -0.84974676550E+02  0.32093108600E+02  0.90836275365E+02  0.00000000000E+00 0. -1.
<scales pt_clust_5="13000.00000" pt_clust_6="13000.00000" pt_clust_7="13000.00000" pt_clust_8="13000.00000" pt_clust_9="84.97800"></scales>
<clustering>
<clus scale="   84.978">  2  9  1 -1</clus>
<clus scale="   91.855">  5  6 -1 -1</clus>
<clus scale="   94.292">  7  8 -1 -1</clus>
<clus scale="  101.965">  2  5  1 -1</clus>
<clus scale="   84.978">  2  5  1 -1</clus>
</clustering>
</event>
<event>
 9    1  0.9000149E-006  0.9431224E+02  0.7546771E-02  0.1293071E+00
         -1   -1    0    0    0  501 -0.00000000000E+00  0.00000000000E+00  0.30762259053E+03  0.30762259053E+03  0.00000000000E+00 0.  1.
          1   -1    0    0  502    0  0.00000000000E+00 -0.00000000000E+00 -0.56360424815E+02  0.56360424815E+02  0.00000000000E+00 0. -1.
         23    2    1    2    0    0  0.14905647366E+01  0.17221943769E+02  0.14507888122E+03  0.17197831861E+03  0.90718483044E+02 0.  0.
         23    2    1    2    0    0  0.50408711495E+02 -0.26932361488E+02  0.77870960091E+02  0.13209297168E+03  0.90101478635E+02 0.  0.
        -11    1    3    3    0    0 -0.32731352925E+02 -0.44788689036E+01  0.11967539188E+03  0.12415152497E+03  0.00000000000E+00 0.  1.
         11    1    3    3    0    0  0.34221917662E+02  0.21700812672E+02  0.25403489335E+02  0.47826793636E+02  0.00000000000E+00 0. -1.
        -13    1    4    4    0    0  0.18416476083E+02  0.27890928897E+02  0.24446135525E+01  0.33511888062E+02  0.00000000000E+00 0. -1.
         13    1    4    4    0    0  0.31992235412E+02 -0.54823290385E+02  0.75426346538E+02  0.98581083619E+02  0.00000000000E+00 0.  1.
         21    1    1    2  502  501 -0.51899276232E+02  0.97104177192E+01  0.28312324405E+02  0.59911725054E+02  0.00000000000E+00 0. -1.
<scales pt_clust_5="13000.00000" pt_clust_6="13000.00000" pt_clust_7="13000.00000" pt_clust_8="13000.00000" pt_clust_9="52.79988"></scales>
<clustering>
<clus scale="   52.800">  2  9  1 -1</clus>
<clus scale="   90.101">  7  8 -1 -1</clus>
<clus scale="   90.718">  5  6 -1 -1</clus>
<clus scale="   93.719">  2  7  1 -1</clus>
<clus scale="   52.800">  2  5  1 -1</clus>
</clustering>
</event>
<event>
 9    1  0.9000149E-006  0.1141843E+03  0.7546771E-02  0.1253113E+00
         -2   -1    0    0    0  501 -0.00000000000E+00  0.00000000000E+00  0.66574038991E+02  0.66574038991E+02  0.00000000000E+00 0.  1.
          2   -1    0    0  502    0  0.00000000000E+00 -0.00000000000E+00 -0.33067299573E+03  0.33067299573E+03  0.00000000000E+00 0. -1.
         23    2    1    2    0    0  0.53458323668E+02 -0.33336488593E+02 -0.30419044491E+02  0.11444143598E+03  0.90567158283E+02 0.  0.
         23    2    1    2    0    0 -0.81026608351E+02  0.27502425244E+02 -0.15359900587E+03  0.19791155783E+03  0.90855024436E+02 0.  0.
        -11    1    3    3    0    0 -0.21258498796E+02  0.10485403711E+02 -0.63123865086E+01  0.24529852944E+02  0.00000000000E+00 0.  1.
         11    1    3    3    0    0  0.74716822463E+02 -0.43821892304E+02 -0.24106657982E+02  0.89911583031E+02  0.00000000000E+00 0. -1.
        -13    1    4    4    0    0 -0.80795164197E+02  0.49154558214E+02 -0.89325899584E+02  0.13008899065E+03  0.00000000000E+00 0.  1.
         13    1    4    4    0    0 -0.23144415352E+00 -0.21652132969E+02 -0.64273106282E+02  0.67822567185E+02  0.00000000000E+00 0. -1.
         21    1    1    2  502  501  0.27568284683E+02  0.58340633484E+01 -0.80080906379E+02  0.84894040910E+02  0.00000000000E+00 0. -1.
<scales pt_clust_5="13000.00000" pt_clust_6="13000.00000" pt_clust_7="13000.00000" pt_clust_8="13000.00000" pt_clust_9="28.17883"></scales>
<clustering>
<clus scale="   28.179">  2  9  1 -1</clus>
<clus scale="   90.567">  5  6 -1 -1</clus>
<clus scale="   90.855">  7  8 -1 -1</clus>
<clus scale="  113.955">  1  5  2 -1</clus>
<clus scale="   28.179">  2  5  1 -1</clus>
</clustering>
</event>
<event>
 9    1  0.9000149E-006  0.9813280E+02  0.7546771E-02  0.1284823E+00
          1   -1    0    0  502    0  0.00000000000E+00  0.00000000000E+00  0.34465293132E+03  0.34465293132E+03  0.00000000000E+00 0. -1.
         -1   -1    0    0    0  501 -0.00000000000E+00 -0.00000000000E+00 -0.41850630449E+02  0.41850630449E+02  0.00000000000E+00 0.  1.
         23    2    1    2    0    0 -0.39339350720E+02 -0.25816925977E+02  0.98777765722E+02  0.14258744942E+03  0.91433230001E+02 0.  0.
         23    2    1    2    0    0  0.20417707219E+02 -0.39223436906E+01  0.12105314560E+03  0.15376787755E+03  0.92511775250E+02 0.  0.
        -11    1    3    3    0    0 -0.63574395295E+02 -0.39635647165E+02  0.73044742791E+02  0.10463375513E+03  0.00000000000E+00 0.  1.
         11    1    3    3    0    0  0.24235044576E+02  0.13818721188E+02  0.25733022931E+02  0.37953694287E+02  0.00000000000E+00 0. -1.
        -11    1    4    4    0    0  0.22973205373E+01 -0.27942227871E+02 -0.10064040114E+01  0.28054565210E+02  0.00000000000E+00 0. -1.
         11    1    4    4    0    0  0.18120386681E+02  0.24019884181E+02  0.12205954961E+03  0.12571331234E+03  0.00000000000E+00 0.  1.
         21    1    1    2  502  501  0.18921643501E+02  0.29739269667E+02  0.82971389550E+02  0.90148234797E+02  0.00000000000E+00 0.  1.
<scales pt_clust_5="13000.00000" pt_clust_6="13000.00000" pt_clust_7="13000.00000" pt_clust_8="13000.00000" pt_clust_9="35.24844"></scales>
<clustering>
<clus scale="   35.248">  1  9  2 -1</clus>
<clus scale="   91.433">  5  6 -1 -1</clus>
<clus scale="   92.512">  7  8 -1 -1</clus>
<clus scale="   97.117">  2  5  1 -1</clus>
<clus scale="   35.248">  1  5  2 -1</clus>
</clustering>
</event>
<event>
 9    1  0.9000149E-006  0.1107780E+03  0.7546771E-02  0.1259614E+00
         -1   -1    0    0    0  501 -0.00000000000E+00  0.00000000000E+00  0.87892909280E+02  0.87892909280E+02  0.00000000000E+00 0.  1.
          1   -1    0    0  502    0  0.00000000000E+00 -0.00000000000E+00 -0.53301873395E+03  0.53301873395E+03  0.00000000000E+00 0. -1.
         23    2    1    2    0    0  0.50219322854E+02 -0.23222819183E+02  0.33003003816E+02  0.11469103949E+03  0.94887072665E+02 0.  0.
         23    2    1    2    0    0 -0.49563403866E+02  0.57343808457E+02 -0.27494230947E+03  0.30018800038E+03  0.93673468305E+02 0.  0.
        -11    1    3    3    0    0  0.42341258576E+02  0.22667263016E+02  0.45840529330E+02  0.66392327265E+02  0.00000000000E+00 0. -1.
         11    1    3    3    0    0  0.78780642776E+01 -0.45890082199E+02 -0.12837525513E+02  0.48298712222E+02  0.00000000000E+00 0.  1.
        -13    1    4    4    0    0 -0.12929542231E+01  0.62538150975E+02 -0.20991474409E+03  0.21903627974E+03  0.00000000000E+00 0. -1.
         13    1    4    4    0    0 -0.48270449643E+02 -0.51943425179E+01 -0.65027565384E+02  0.81151720639E+02  0.00000000000E+00 0.  1.
         21    1    1    2  502  501 -0.65591898814E+00 -0.34120989274E+02 -0.20318651901E+03  0.20603260336E+03  0.00000000000E+00 0. -1.
<scales pt_clust_5="13000.00000" pt_clust_6="13000.00000" pt_clust_7="13000.00000" pt_clust_8="13000.00000" pt_clust_9="34.12729"></scales>
<clustering>
<clus scale="   34.127">  2  9  1 -1</clus>
<clus scale="   93.673">  7  8 -1 -1</clus>
<clus scale="   94.887">  5  6 -1 -1</clus>
<clus scale="  109.740">  2  7  1 -1</clus>
<clus scale="   34.127">  2  5  1 -1</clus>
</clustering>
</event>
<event>
 9    1  0.9000149E-006  0.2740108E+03  0.7546771E-02  0.1100024E+00
         -1   -1    0    0    0  501 -0.00000000000E+00  0.00000000000E+00  0.14310388780E+04  0.14310388780E+04  0.00000000000E+00 0.  1.
          1   -1    0    0  502    0  0.00000000000E+00 -0.00000000000E+00 -0.25902433880E+03  0.25902433880E+03  0.00000000000E+00 0. -1.
         23    2    1    2    0    0  0.23446604653E+03 -0.12498461088E+03  0.13096171723E+04  0.13392983127E+04  0.89595493517E+02 0.  0.
         23    2    1    2    0    0 -0.12771207384E+03  0.15576640369E+03 -0.87633210938E+02  0.22894178398E+03  0.64507476053E+02 0.  0.
        -11    1    4    4    0    0 -0.49169113990E+02  0.10801742539E+03 -0.59835717521E+02  0.13291229834E+03  0.00000000000E+00 0.  1.
         11    1    4    4    0    0 -0.78542959853E+02  0.47748978298E+02 -0.27797493416E+02  0.96029485634E+02  0.00000000000E+00 0. -1.
        -13    1    3    3    0    0  0.15850656469E+03 -0.37408817852E+02  0.69317344608E+03  0.71204857773E+03  0.00000000000E+00 0. -1.
         13    1    3    3    0    0  0.75959481842E+02 -0.87575793029E+02  0.61644372623E+03  0.62724973497E+03  0.00000000000E+00 0.  1.
         21    1    1    2  502  501 -0.10675397269E+03 -0.30781792812E+02 -0.49969422143E+02  0.12182312015E+03  0.00000000000E+00 0. -1.
<scales pt_clust_5="13000.00000" pt_clust_6="13000.00000" pt_clust_7="13000.00000" pt_clust_8="13000.00000" pt_clust_9="111.10324"></scales>
<clustering>
<clus scale="   64.507">  5  6 -1 -1</clus>
<clus scale="   89.595">  7  8 -1 -1</clus>
<clus scale="  111.103">  2  9  1 -1</clus>
<clus scale="  266.863">  2  5  1 -1</clus>
<clus scale="  111.103">  2  5  1 -1</clus>
</clustering>
</event>
<event>
 9    1  0.9000149E-006  0.1090016E+03  0.7546771E-02  0.1264168E+00
          3   -1    0    0  502    0  0.00000000000E+00  0.00000000000E+00  0.42598119948E+03  0.42598119948E+03  0.00000000000E+00 0. -1.
         -3   -1    0    0    0  501 -0.00000000000E+00 -0.00000000000E+00 -0.59052640987E+02  0.59052640987E+02  0.00000000000E+00 0.  1.
         23    2    1    2    0    0 -0.51419383147E+02 -0.11789719766E+02  0.22051179816E+02  0.11186268764E+03  0.96146013431E+02 0.  0.
         23    2    1    2    0    0  0.48725496406E+02 -0.18611664836E+02  0.30590761907E+03  0.32367222986E+03  0.91998222314E+02 0.  0.
        -13    1    4    4    0    0  0.96778141612E+01  0.30737088982E+02  0.45413857163E+02  0.55685250726E+02  0.00000000000E+00 0. -1.
         13    1    4    4    0    0  0.39047682245E+02 -0.49348753819E+02  0.26049376191E+03  0.26798697913E+03  0.00000000000E+00 0.  1.
        -13    1    3    3    0    0 -0.25561641942E+02 -0.48016397224E+02 -0.12143495881E+02  0.55735414535E+02  0.00000000000E+00 0.  1.
         13    1    3    3    0    0 -0.25857741204E+02  0.36226677458E+02  0.34194675697E+02  0.56127273102E+02  0.00000000000E+00 0. -1.
         21    1    1    2  502  501  0.26938867406E+01  0.30401384602E+02  0.38969759611E+02  0.49498922975E+02  0.00000000000E+00 0.  1.
<scales pt_clust_5="13000.00000" pt_clust_6="13000.00000" pt_clust_7="13000.00000" pt_clust_8="13000.00000" pt_clust_9="30.52050"></scales>
<clustering>
<clus scale="   30.521">  1  9  2 -1</clus>
<clus scale="   91.998">  5  6 -1 -1</clus>
<clus scale="   96.146">  7  8 -1 -1</clus>
<clus scale="  105.361">  1  5  2 -1</clus>
<clus scale="   30.521">  1  5  2 -1</clus>
</clustering>
</event>
<event>
 9    1  0.9000149E-006  0.1093893E+03  0.7546771E-02  0.1265086E+00
         -1   -1    0    0    0  501 -0.00000000000E+00  0.00000000000E+00  0.22004737105E+02  0.22004737105E+02  0.00000000000E+00 0.  1.
          1   -1    0    0  502    0  0.00000000000E+00 -0.00000000000E+00 -0.69760213505E+03  0.69760213505E+03  0.00000000000E+00 0. -1.
         23    2    1    2    0    0  0.39266989527E+02  0.20036901460E+02 -0.24609395015E+03  0.26713522071E+03  0.94104303604E+02 0.  0.
         23    2    1    2    0    0 -0.57613916306E+02 -0.43763540647E+02 -0.34365950083E+03  0.36153900407E+03  0.85871928509E+02 0.  0.
        -11    1    3    3    0    0  0.13287643038E+02 -0.28465641144E+02 -0.27589067277E+02  0.41809219276E+02  0.00000000000E+00 0.  1.
         11    1    3    3    0    0  0.25979346489E+02  0.48502542604E+02 -0.21850488287E+03  0.22532600143E+03  0.00000000000E+00 0. -1.
        -13    1    4    4    0    0 -0.55346314933E+02 -0.67277164706E+02 -0.24298252068E+03  0.25812775291E+03  0.00000000000E+00 0.  1.
         13    1    4    4    0    0 -0.22676013733E+01  0.23513624059E+02 -0.10067698016E+03  0.10341125116E+03  0.00000000000E+00 0. -1.
         21    1    1    2  502  501  0.18346926779E+02  0.23726639187E+02 -0.85843946963E+02  0.90932647380E+02  0.00000000000E+00 0. -1.
<scales pt_clust_5="13000.00000" pt_clust_6="13000.00000" pt_clust_7="13000.00000" pt_clust_8="13000.00000" pt_clust_9="29.99272"></scales>
<clustering>
<clus scale="   29.993">  2  9  1 -1</clus>
<clus scale="   85.872">  7  8 -1 -1</clus>
<clus scale="   94.104">  5  6 -1 -1</clus>
<clus scale="  102.393">  2  7  1 -1</clus>
<clus scale="   29.993">  2  5  1 -1</clus>
</clustering>
</event>
<event>
 9    1  0.9000149E-006  0.9908434E+02  0.7546771E-02  0.1285237E+00
          2   -1    0    0  502    0  0.00000000000E+00  0.00000000000E+00  0.24165319196E+03  0.24165319196E+03  0.00000000000E+00 0. -1.
         -2   -1    0    0    0  501 -0.00000000000E+00 -0.00000000000E+00 -0.14903090194E+03  0.14903090194E+03  0.00000000000E+00 0.  1.
         23    2    1    2    0    0 -0.99374938972E+00 -0.23580119405E+02 -0.11400367660E+03  0.15115420222E+03  0.96404071507E+02 0.  0.
         23    2    1    2    0    0  0.21394036170E+02  0.13591175728E+02  0.18743642437E+03  0.20979457213E+03  0.90768521389E+02 0.  0.
        -11    1    4    4    0    0  0.25165839510E+01  0.51403756535E+02  0.11369488052E+03  0.12480066200E+03  0.00000000000E+00 0. -1.
         11    1    4    4    0    0  0.18877452219E+02 -0.37812580807E+02  0.73741543850E+02  0.84993910129E+02  0.00000000000E+00 0.  1.
        -11    1    3    3    0    0  0.14637129067E+02 -0.51741362742E+02 -0.10458219355E+03  0.11759612823E+03  0.00000000000E+00 0.  1.
         11    1    3    3    0    0 -0.15630878456E+02  0.28161243337E+02 -0.94214830450E+01  0.33558073997E+02  0.00000000000E+00 0. -1.
         21    1    1    2  502  501 -0.20400286781E+02  0.99889436769E+01  0.19189542256E+02  0.29735319546E+02  0.00000000000E+00 0. -1.
<scales pt_clust_5="13000.00000" pt_clust_6="13000.00000" pt_clust_7="13000.00000" pt_clust_8="13000.00000" pt_clust_9="22.71455"></scales>
<clustering>
<clus scale="   22.715">  1  9  2 -1</clus>
<clus scale="   90.769">  5  6 -1 -1</clus>
<clus scale="   93.610">  1  5  2 -1</clus>
<clus scale="   96.404">  7  8 -1 -1</clus>
<clus scale="   22.715">  1  5  2 -1</clus>
</clustering>
</event>
<event>
 9    1  0.9000149E-006  0.1517372E+03  0.7546771E-02  0.1199055E+00
          1   -1    0    0  502    0  0.00000000000E+00  0.00000000000E+00  0.85038759904E+02  0.85038759904E+02  0.00000000000E+00 0. -1.
         -1   -1    0    0    0  501 -0.00000000000E+00 -0.00000000000E+00 -0.70321442545E+03  0.70321442545E+03  0.00000000000E+00 0.  1.
         23    2    1    2    0    0 -0.10225886819E+03  0.42780568023E+02 -0.44084502801E+03  0.46386466840E+03  0.92406919370E+02 0.  0.
         23    2    1    2    0    0  0.16601841307E+03 -0.13908494370E+00 -0.15691518609E+03  0.24501367017E+03  0.88584367262E+02 0.  0.
        -13    1    3    3    0    0 -0.41969074756E+01 -0.24295482724E+02 -0.96499931327E+02  0.99599805518E+02  0.00000000000E+00 0.  1.
         13    1    3    3    0    0 -0.98061960710E+02  0.67076050746E+02 -0.34434509668E+03  0.36426486288E+03  0.00000000000E+00 0. -1.
        -13    1    4    4    0    0  0.50595017769E+02  0.39326305476E+01 -0.10849973195E+03  0.11978110552E+03  0.00000000000E+00 0.  1.
         13    1    4    4    0    0  0.11542339530E+03 -0.40717154913E+01 -0.48415454136E+02  0.12523256465E+03  0.00000000000E+00 0. -1.
         21    1    1    2  502  501 -0.63759544887E+02 -0.42641483079E+02 -0.20415451450E+02  0.79374846779E+02  0.00000000000E+00 0. -1.
<scales pt_clust_5="13000.00000" pt_clust_6="13000.00000" pt_clust_7="13000.00000" pt_clust_8="13000.00000" pt_clust_9="76.70447"></scales>
<clustering>
<clus scale="   76.704">  1  9  2 -1</clus>
<clus scale="   88.584">  7  8 -1 -1</clus>
<clus scale="   92.407">  5  6 -1 -1</clus>
<clus scale="  149.440">  1  7  2 -1</clus>
<clus scale="   76.704">  1  5  2 -1</clus>
</clustering>
</event>
<event>
 9    1  0.9000149E-006  0.1403153E+03  0.7546771E-02  0.1213413E+00
         -2   -1    0    0    0  501 -0.00000000000E+00  0.00000000000E+00  0.64411456971E+02  0.64411456971E+02  0.00000000000E+00 0.  1.
          2   -1    0    0  502    0  0.00000000000E+00 -0.00000000000E+00 -0.66590180849E+03  0.66590180849E+03  0.00000000000E+00 0. -1.
         23    2    1    2    0    0 -0.22598740778E+02  0.10082177703E+03 -0.49551638293E+02  0.14650833194E+03  0.91288513308E+02 0.  0.
         23    2    1    2    0    0 -0.29558972359E+01 -0.12542336072E+03 -0.46981184931E+03  0.49434489093E+03  0.88960332136E+02 0.  0.
        -11    1    3    3    0    0  0.77230213010E+01  0.71358344819E+02  0.11045307067E+02  0.72619950713E+02  0.00000000000E+00 0. -1.
         11    1    3    3    0    0 -0.30321762079E+02  0.29463432210E+02 -0.60596945361E+02  0.73888381226E+02  0.00000000000E+00 0.  1.
        -13    1    4    4    0    0 -0.34785185762E+02 -0.72548083554E+02 -0.16779891324E+03  0.18609059315E+03  0.00000000000E+00 0.  1.
         13    1    4    4    0    0  0.31829288526E+02 -0.52875277162E+02 -0.30201293607E+03  0.30825429778E+03  0.00000000000E+00 0. -1.
         21    1    1    2  502  501  0.25554638014E+02  0.24601583686E+02 -0.82126863913E+02  0.89460042589E+02  0.00000000000E+00 0.  1.
<scales pt_clust_5="13000.00000" pt_clust_6="13000.00000" pt_clust_7="13000.00000" pt_clust_8="13000.00000" pt_clust_9="35.47221"></scales>
<clustering>
<clus scale="   35.472">  2  9  1 -1</clus>
<clus scale="   88.960">  7  8 -1 -1</clus>
<clus scale="   91.289">  5  6 -1 -1</clus>
<clus scale="  138.812">  2  7  1 -1</clus>
<clus scale="   35.472">  2  5  1 -1</clus>
</clustering>
</event>
<event>
 9    1  0.9000149E-006  0.1015781E+03  0.7546771E-02  0.1277255E+00
         -2   -1    0    0    0  501 -0.00000000000E+00  0.00000000000E+00  0.17652926688E+03  0.17652926688E+03  0.00000000000E+00 0.  1.
          2   -1    0    0  502    0  0.00000000000E+00 -0.00000000000E+00 -0.26784526780E+03  0.26784526780E+03  0.00000000000E+00 0. -1.
         23    2    1    2    0    0  0.17750670643E+02  0.40388913873E+02  0.12994065725E+03  0.16433182133E+03  0.90410300426E+02 0.  0.
         23    2    1    2    0    0  0.15429692178E+02 -0.78990802757E+02 -0.15085357071E+03  0.19316557582E+03  0.89880573889E+02 0.  0.
        -11    1    4    4    0    0 -0.25520376121E+02 -0.69275457592E+02 -0.68641458553E+02  0.10080688694E+03  0.00000000000E+00 0. -1.
         11    1    4    4    0    0  0.40950068300E+02 -0.97153451658E+01 -0.82212112162E+02  0.92358688879E+02  0.00000000000E+00 0.  1.
        -11    1    3    3    0    0  0.21044659688E+02 -0.24465930745E+02  0.24579985974E+02  0.40566429213E+02  0.00000000000E+00 0.  1.
         11    1    3    3    0    0 -0.32939890448E+01  0.64854844618E+02  0.10536067128E+03  0.12376539212E+03  0.00000000000E+00 0. -1.
         21    1    1    2  502  501 -0.33180362821E+02  0.38601888884E+02 -0.70403087451E+02  0.86877137528E+02  0.00000000000E+00 0. -1.
<scales pt_clust_5="13000.00000" pt_clust_6="13000.00000" pt_clust_7="13000.00000" pt_clust_8="13000.00000" pt_clust_9="50.90228"></scales>
<clustering>
<clus scale="   50.902">  2  9  1 -1</clus>
<clus scale="   89.881">  5  6 -1 -1</clus>
<clus scale="   90.410">  7  8 -1 -1</clus>
<clus scale="  101.107">  2  5  1 -1</clus>
<clus scale="   50.902">  2  5  1 -1</clus>
</clustering>
</event>
<event>
 9    1  0.9000149E-006  0.1410279E+03  0.7546771E-02  0.1212423E+00
         -2   -1    0    0    0  501 -0.00000000000E+00  0.00000000000E+00  0.11135970152E+04  0.11135970152E+04  0.00000000000E+00 0.  1.
          2   -1    0    0  502    0  0.00000000000E+00 -0.00000000000E+00 -0.41893834047E+02  0.41893834047E+02  0.00000000000E+00 0. -1.
         23    2    1    2    0    0  0.97514481065E+02  0.46251810674E+02  0.82112176230E+03  0.83322548816E+03  0.91517547959E+02 0.  0.
         23    2    1    2    0    0 -0.10376263989E+03 -0.26212258054E+02  0.26315146634E+03  0.29779845999E+03  0.89339020740E+02 0.  0.
        -11    1    3    3    0    0  0.32145452352E+02 -0.27956779694E+02  0.25169151035E+03  0.25527147906E+03  0.00000000000E+00 0. -1.
         11    1    3    3    0    0  0.65369028713E+02  0.74208590368E+02  0.56943025195E+03  0.57795400910E+03  0.00000000000E+00 0.  1.
        -13    1    4    4    0    0 -0.53481493713E+02 -0.15591198605E+02  0.22998248461E+03  0.23663325817E+03  0.00000000000E+00 0.  1.
         13    1    4    4    0    0 -0.50281146176E+02 -0.10621059449E+02  0.33168981723E+02  0.61165201816E+02  0.00000000000E+00 0. -1.
         21    1    1    2  502  501  0.62481588239E+01 -0.20039552620E+02 -0.12570047455E+02  0.24466901130E+02  0.00000000000E+00 0. -1.
<scales pt_clust_5="13000.00000" pt_clust_6="13000.00000" pt_clust_7="13000.00000" pt_clust_8="13000.00000" pt_clust_9="20.99103"></scales>
<clustering>
<clus scale="   20.991">  2  9  1 -1</clus>
<clus scale="   89.339">  7  8 -1 -1</clus>
<clus scale="   91.518">  5  6 -1 -1</clus>
<clus scale="  139.624">  2  7  1 -1</clus>
<clus scale="   20.991">  2  5  1 -1</clus>
</clustering>
</event>
<event>
 9    1  0.9000149E-006  0.1051299E+03  0.7546771E-02  0.1271954E+00
          1   -1    0    0  502    0  0.00000000000E+00  0.00000000000E+00  0.33039840246E+03  0.33039840246E+03  0.00000000000E+00 0. -1.
         -1   -1    0    0    0  501 -0.00000000000E+00 -0.00000000000E+00 -0.10483894557E+03  0.10483894557E+03  0.00000000000E+00 0.  1.
         23    2    1    2    0    0 -0.43932023561E+02 -0.12565047403E+02 -0.59756343258E+02  0.11826158894E+03  0.91252834189E+02 0.  0.
         23    2    1    2    0    0  0.31530731440E+02 -0.86655409222E+01  0.16058587992E+03  0.18984557808E+03  0.95834440892E+02 0.  0.
        -11    1    3    3    0    0 -0.39439392942E+01 -0.34999647978E+02 -0.63125341950E+02  0.72286505048E+02  0.00000000000E+00 0.  1.
         11    1    3    3    0    0 -0.39988084266E+02  0.22434600576E+02  0.33689986915E+01  0.45975083888E+02  0.00000000000E+00 0. -1.
        -11    1    4    4    0    0  0.16482082335E+01 -0.41188513239E+02  0.27323671051E+02  0.49454961459E+02  0.00000000000E+00 0.  1.
         11    1    4    4    0    0  0.29882523206E+02  0.32522972317E+02  0.13326220887E+03  0.14039061662E+03  0.00000000000E+00 0. -1.
         21    1    1    2  502  501  0.12401292121E+02  0.21230588325E+02  0.12472992023E+03  0.12713018102E+03  0.00000000000E+00 0. -1.
<scales pt_clust_5="13000.00000" pt_clust_6="13000.00000" pt_clust_7="13000.00000" pt_clust_8="13000.00000" pt_clust_9="24.58719"></scales>
<clustering>
<clus scale="   24.587">  1  9  2 -1</clus>
<clus scale="   91.253">  5  6 -1 -1</clus>
<clus scale="   95.834">  7  8 -1 -1</clus>
<clus scale="  100.971">  2  5  1 -1</clus>
<clus scale="   24.587">  1  5  2 -1</clus>
</clustering>
</event>
<event>
 9    1  0.9000149E-006  0.1196226E+03  0.7546771E-02  0.1246368E+00
          1   -1    0    0  502    0  0.00000000000E+00  0.00000000000E+00  0.65349729415E+03  0.65349729415E+03  0.00000000000E+00 0. -1.
         -1   -1    0    0    0  501 -0.00000000000E+00 -0.00000000000E+00 -0.42082175040E+02  0.42082175040E+02  0.00000000000E+00 0.  1.
         23    2    1    2    0    0 -0.80896427892E+02 -0.17029280685E+02  0.69441074581E+02  0.13587471764E+03  0.82496349060E+02 0.  0.
         23    2    1    2    0    0  0.52790681908E+02  0.29087716407E+02  0.41196295712E+03  0.42614494593E+03  0.90846494468E+02 0.  0.
        -11    1    3    3    0    0 -0.17346196315E+02  0.17767853522E+02 -0.11394926875E+02  0.27320898665E+02  0.00000000000E+00 0.  1.
         11    1    3    3    0    0 -0.63550231576E+02 -0.34797134207E+02  0.80836001456E+02  0.10855381897E+03  0.00000000000E+00 0. -1.
        -11    1    4    4    0    0 -0.22625515078E+02  0.72851826896E+01  0.45141811214E+02  0.51017359193E+02  0.00000000000E+00 0.  1.
         11    1    4    4    0    0  0.75416196985E+02  0.21802533718E+02  0.36682114591E+03  0.37512758673E+03  0.00000000000E+00 0. -1.
         21    1    1    2  502  501  0.28105745984E+02 -0.12058435723E+02  0.13001108740E+03  0.13355980562E+03  0.00000000000E+00 0. -1.
<scales pt_clust_5="13000.00000" pt_clust_6="13000.00000" pt_clust_7="13000.00000" pt_clust_8="13000.00000" pt_clust_9="30.58331"></scales>
<clustering>
<clus scale="   30.583">  1  9  2 -1</clus>
<clus scale="   82.496">  5  6 -1 -1</clus>
<clus scale="   90.846">  7  8 -1 -1</clus>
<clus scale="  113.411">  2  5  1 -1</clus>
<clus scale="   30.583">  1  5  2 -1</clus>
</clustering>
</event>
<event>
 9    1  0.9000149E-006  0.9628309E+02  0.7546771E-02  0.1290159E+00
         -2   -1    0    0    0  501 -0.00000000000E+00  0.00000000000E+00  0.57868709307E+02  0.57868709307E+02  0.00000000000E+00 0.  1.
          2   -1    0    0  502    0  0.00000000000E+00 -0.00000000000E+00 -0.35143787586E+03  0.35143787586E+03  0.00000000000E+00 0. -1.
         23    2    1    2    0    0  0.16700004710E+02  0.14431627820E+02 -0.23985554918E+02  0.98594047672E+02  0.93050079811E+02 0.  0.
         23    2    1    2    0    0 -0.39218385690E+02  0.11076385563E+02 -0.11043639532E+03  0.14796865070E+03  0.89653533588E+02 0.  0.
        -13    1    3    3    0    0 -0.29282693876E+02 -0.18531461254E+02  0.50190046888E+01  0.35015448375E+02  0.00000000000E+00 0.  1.
         13    1    3    3    0    0  0.45982698586E+02  0.32963089074E+02 -0.29004559607E+02  0.63578599297E+02  0.00000000000E+00 0. -1.
        -13    1    4    4    0    0 -0.47509005968E+02 -0.28466160069E+02 -0.80376445490E+02  0.97610454905E+02  0.00000000000E+00 0.  1.
         13    1    4    4    0    0  0.82906202781E+01  0.39542545633E+02 -0.30059949827E+02  0.50358195791E+02  0.00000000000E+00 0. -1.
         21    1    1    2  502  501  0.22518380980E+02 -0.25508013384E+02 -0.15914721632E+03  0.16274388680E+03  0.00000000000E+00 0. -1.
<scales pt_clust_5="13000.00000" pt_clust_6="13000.00000" pt_clust_7="13000.00000" pt_clust_8="13000.00000" pt_clust_9="34.02552"></scales>
<clustering>
<clus scale="   34.026">  2  9  1 -1</clus>
<clus scale="   89.654">  7  8 -1 -1</clus>
<clus scale="   93.005">  2  7  1 -1</clus>
<clus scale="   93.050">  5  6 -1 -1</clus>
<clus scale="   34.026">  2  5  1 -1</clus>
</clustering>
</event>
<event>
 9    1  0.9000149E-006  0.1056685E+03  0.7546771E-02  0.1268918E+00
          2   -1    0    0  502    0  0.00000000000E+00  0.00000000000E+00  0.23563808857E+03  0.23563808857E+03  0.00000000000E+00 0. -1.
         -2   -1    0    0    0  501 -0.00000000000E+00 -0.00000000000E+00 -0.61428925713E+02  0.61428925713E+02  0.00000000000E+00 0.  1.
         23    2    1    2    0    0  0.45471908502E+02  0.24925459251E+02  0.49717345870E+02  0.11674121962E+03  0.92020241771E+02 0.  0.
         23    2    1    2    0    0 -0.53468509294E+02 -0.44500037051E+01  0.91010697300E+02  0.14027363767E+03  0.92277095665E+02 0.  0.
        -13    1    3    3    0    0 -0.24234623444E+02 -0.11913244625E+01  0.32113709138E+02  0.40249553315E+02  0.00000000000E+00 0.  1.
         13    1    3    3    0    0  0.69706531946E+02  0.26116783714E+02  0.17603636731E+02  0.76491666302E+02  0.00000000000E+00 0. -1.
        -13    1    4    4    0    0 -0.60566356957E+02 -0.32258428391E+02  0.87740456714E+02  0.11138795959E+03  0.00000000000E+00 0.  1.
         13    1    4    4    0    0  0.70978476625E+01  0.27808424686E+02  0.32702405863E+01  0.28885678085E+02  0.00000000000E+00 0. -1.
         21    1    1    2  502  501  0.79966007922E+01 -0.20475455546E+02  0.33481119683E+02  0.40052156987E+02  0.00000000000E+00 0. -1.
<scales pt_clust_5="13000.00000" pt_clust_6="13000.00000" pt_clust_7="13000.00000" pt_clust_8="13000.00000" pt_clust_9="21.98158"></scales>
<clustering>
<clus scale="   21.982">  1  9  2 -1</clus>
<clus scale="   92.020">  5  6 -1 -1</clus>
<clus scale="   92.277">  7  8 -1 -1</clus>
<clus scale="  105.444">  2  5  1 -1</clus>
<clus scale="   21.982">  1  5  2 -1</clus>
</clustering>
</event>
<event>
 9    1  0.9000149E-006  0.1200470E+03  0.7546771E-02  0.1243505E+00
          1   -1    0    0  502    0  0.00000000000E+00  0.00000000000E+00  0.17514643973E+03  0.17514643973E+03  0.00000000000E+00 0. -1.
         -1   -1    0    0    0  501 -0.00000000000E+00 -0.00000000000E+00 -0.12414185829E+03  0.12414185829E+03  0.00000000000E+00 0.  1.
         23    2    1    2    0    0  0.79652384451E+02  0.31830724157E+02 -0.22581602497E+01  0.12637717731E+03  0.92781432993E+02 0.  0.
         23    2    1    2    0    0 -0.45309123674E+02 -0.54567428506E+02  0.14744022453E+02  0.11651866539E+03  0.91261669092E+02 0.  0.
        -11    1    4    4    0    0  0.25885485115E+02 -0.14771986905E+02  0.18132537804E+02  0.34886370748E+02  0.00000000000E+00 0.  1.
         11    1    4    4    0    0 -0.71194608790E+02 -0.39795441601E+02 -0.33885153516E+01  0.81632294646E+02  0.00000000000E+00 0. -1.
        -11    1    3    3    0    0  0.53220140359E+02 -0.57765992704E-01 -0.42893140831E+02  0.68353552995E+02  0.00000000000E+00 0.  1.
         11    1    3    3    0    0  0.26432244093E+02  0.31888490149E+02  0.40634980582E+02  0.58023624315E+02  0.00000000000E+00 0. -1.
         21    1    1    2  502  501 -0.34343260777E+02  0.22736704349E+02  0.38518719235E+02  0.56392455319E+02  0.00000000000E+00 0. -1.
<scales pt_clust_5="13000.00000" pt_clust_6="13000.00000" pt_clust_7="13000.00000" pt_clust_8="13000.00000" pt_clust_9="41.18759"></scales>
<clustering>
<clus scale="   41.188">  1  9  2 -1</clus>
<clus scale="   91.262">  5  6 -1 -1</clus>
<clus scale="   92.781">  7  8 -1 -1</clus>
<clus scale="  118.876">  1  5  2 -1</clus>
<clus scale="   41.188">  1  5  2 -1</clus>
</clustering>
</event>
<event>
 9    1  0.9000149E-006  0.1562442E+03  0.7546771E-02  0.1212811E+00
          2   -1    0    0  502    0  0.00000000000E+00  0.00000000000E+00  0.48082337329E+03  0.48082337329E+03  0.00000000000E+00 0. -1.
         -2   -1    0    0    0  501 -0.00000000000E+00 -0.00000000000E+00 -0.11346989393E+03  0.11346989393E+03  0.00000000000E+00 0.  1.
         23    2    1    2    0    0  0.30387543961E+02 -0.89695915335E+01  0.40656970193E+02  0.10964682768E+03  0.96775932926E+02 0.  0.
         23    2    1    2    0    0 -0.35382438599E+02 -0.11734744712E+03  0.23130992234E+02  0.15581066549E+03  0.93378693352E+02 0.  0.
        -11    1    3    3    0    0  0.25575014309E+02  0.41802473119E+02  0.30269500983E+02  0.57600093798E+02  0.00000000000E+00 0. -1.
         11    1    3    3    0    0  0.48125296521E+01 -0.50772064652E+02  0.10387469210E+02  0.52046733877E+02  0.00000000000E+00 0.  1.
        -11    1    4    4    0    0 -0.56507441783E+02 -0.11020162087E+03  0.22932564525E+00  0.12384482552E+03  0.00000000000E+00 0.  1.
         11    1    4    4    0    0  0.21125003184E+02 -0.71458262544E+01  0.22901666589E+02  0.31965839969E+02  0.00000000000E+00 0. -1.
         21    1    1    2  502  501  0.49948946380E+01  0.12631703866E+03  0.30356551693E+03  0.32883577405E+03  0.00000000000E+00 0. -1.
<scales pt_clust_5="13000.00000" pt_clust_6="13000.00000" pt_clust_7="13000.00000" pt_clust_8="13000.00000" pt_clust_9="125.27037"></scales>
<clustering>
<clus scale="   93.379">  7  8 -1 -1</clus>
<clus scale="   96.776">  5  6 -1 -1</clus>
<clus scale="  101.830">  2  5  1 -1</clus>
<clus scale="  125.270">  1  9  2 -1</clus>
<clus scale="  125.270">  1  5  2 -1</clus>
</clustering>
</event>
<event>
 9    1  0.9000149E-006  0.9997037E+02  0.7546771E-02  0.1280806E+00
          1   -1    0    0  502    0  0.00000000000E+00  0.00000000000E+00  0.20275747712E+03  0.20275747712E+03  0.00000000000E+00 0. -1.
         -1   -1    0    0    0  501 -0.00000000000E+00 -0.00000000000E+00 -0.98198005317E+02  0.98198005317E+02  0.00000000000E+00 0.  1.
         23    2    1    2    0    0 -0.30046196228E+02  0.26700513720E+02 -0.17316438465E+02  0.10201963679E+03  0.92154521909E+02 0.  0.
         23    2    1    2    0    0  0.38757587677E+02 -0.84324547419E+01  0.28634748953E+02  0.10352345398E+03  0.91235408597E+02 0.  0.
        -13    1    4    4    0    0 -0.28415408907E+02  0.74979336521E+01  0.17595440938E+01  0.29440626146E+02  0.00000000000E+00 0.  1.
         13    1    4    4    0    0  0.67172996584E+02 -0.15930388394E+02  0.26875204859E+02  0.74082827839E+02  0.00000000000E+00 0. -1.
        -13    1    3    3    0    0  0.13593337034E+02 -0.16917486469E+02  0.20333369345E+02  0.29739301758E+02  0.00000000000E+00 0. -1.
         13    1    3    3    0    0 -0.43639533261E+02  0.43618000188E+02 -0.37649807810E+02  0.72280335028E+02  0.00000000000E+00 0.  1.
         21    1    1    2  502  501 -0.87113914489E+01 -0.18268058978E+02  0.93241161314E+02  0.95412391663E+02  0.00000000000E+00 0. -1.
<scales pt_clust_5="13000.00000" pt_clust_6="13000.00000" pt_clust_7="13000.00000" pt_clust_8="13000.00000" pt_clust_9="20.23883"></scales>
<clustering>
<clus scale="   20.239">  1  9  2 -1</clus>
<clus scale="   91.235">  5  6 -1 -1</clus>
<clus scale="   92.155">  7  8 -1 -1</clus>
<clus scale="   99.124">  1  5  2 -1</clus>
<clus scale="   20.239">  1  5  2 -1</clus>
</clustering>
</event>
<event>
 9    1  0.9000149E-006  0.9636432E+02  0.7546771E-02  0.1288216E+00
          1   -1    0    0  502    0  0.00000000000E+00  0.00000000000E+00  0.23897770532E+03  0.23897770532E+03  0.00000000000E+00 0. -1.
         -1   -1    0    0    0  501 -0.00000000000E+00 -0.00000000000E+00 -0.62713896667E+02  0.62713896667E+02  0.00000000000E+00 0.  1.
         23    2    1    2    0    0 -0.22624567828E+02 -0.24188149812E+02  0.30020270665E+02  0.10147569599E+03  0.91099739658E+02 0.  0.
         23    2    1    2    0    0  0.34767737360E+02 -0.85863016779E+01  0.12660792421E+03  0.16012627435E+03  0.91259723467E+02 0.  0.
        -11    1    3    3    0    0  0.14418071225E+02  0.21352335917E+02 -0.12844039146E+02  0.28788406843E+02  0.00000000000E+00 0.  1.
         11    1    3    3    0    0 -0.37042639053E+02 -0.45540485729E+02  0.42864309811E+02  0.72687289150E+02  0.00000000000E+00 0. -1.
        -11    1    4    4    0    0 -0.15484753618E+01  0.36575098483E+02  0.29388546136E+02  0.46944885227E+02  0.00000000000E+00 0.  1.
         11    1    4    4    0    0  0.36316212722E+02 -0.45161400161E+02  0.97219378078E+02  0.11318138913E+03  0.00000000000E+00 0. -1.
         21    1    1    2  502  501 -0.12143169532E+02  0.32774451489E+02  0.19635613775E+02  0.40089631640E+02  0.00000000000E+00 0.  1.
<scales pt_clust_5="13000.00000" pt_clust_6="13000.00000" pt_clust_7="13000.00000" pt_clust_8="13000.00000" pt_clust_9="34.95170"></scales>
<clustering>
<clus scale="   34.952">  2  9  1 -1</clus>
<clus scale="   91.100">  5  6 -1 -1</clus>
<clus scale="   91.260">  7  8 -1 -1</clus>
<clus scale="   96.213">  2  5  1 -1</clus>
<clus scale="   96.364">  1  5  2 -1</clus>
</clustering>
</event>
<event>
 9    1  0.9000149E-006  0.1633306E+03  0.7546771E-02  0.1206036E+00
         -2   -1    0    0    0  501 -0.00000000000E+00  0.00000000000E+00  0.10404193597E+03  0.10404193597E+03  0.00000000000E+00 0.  1.
          2   -1    0    0  502    0  0.00000000000E+00 -0.00000000000E+00 -0.69446258523E+03  0.69446258523E+03  0.00000000000E+00 0. -1.
         23    2    1    2    0    0  0.13464311570E+03  0.17715447195E+02 -0.11639423442E+02  0.16464537231E+03  0.92358089901E+02 0.  0.
         23    2    1    2    0    0 -0.14279832330E+02  0.46460704679E+02 -0.13649495753E+03  0.17101679822E+03  0.90848011265E+02 0.  0.
        -11    1    4    4    0    0 -0.50118807807E+02  0.39108017579E+02 -0.10498679018E+03  0.12273368750E+03  0.00000000000E+00 0.  1.
         11    1    4    4    0    0  0.35838975476E+02  0.73526870995E+01 -0.31508167348E+02  0.48283110716E+02  0.00000000000E+00 0. -1.
        -13    1    3    3    0    0  0.77494694013E+01 -0.25670832845E+02 -0.14549632406E+02  0.30507994659E+02  0.00000000000E+00 0. -1.
         13    1    3    3    0    0  0.12689364630E+03  0.43386280040E+02  0.29102089641E+01  0.13413737765E+03  0.00000000000E+00 0.  1.
         21    1    1    2  502  501 -0.12036328337E+03 -0.64176151873E+02 -0.44228626829E+03  0.46284235067E+03  0.00000000000E+00 0. -1.
<scales pt_clust_5="13000.00000" pt_clust_6="13000.00000" pt_clust_7="13000.00000" pt_clust_8="13000.00000" pt_clust_9="134.71037"></scales>
<clustering>
<clus scale="   90.848">  5  6 -1 -1</clus>
<clus scale="   92.358">  7  8 -1 -1</clus>
<clus scale="  103.033">  2  5  1 -1</clus>
<clus scale="  134.710">  2  9  1 -1</clus>
<clus scale="  103.033">  2  5  1 -1</clus>
</clustering>
</event>
<event>
 9    1  0.9000149E-006  0.1493829E+03  0.7546771E-02  0.1201379E+00
         -1   -1    0    0    0  501 -0.00000000000E+00  0.00000000000E+00  0.64378469514E+03  0.64378469514E+03  0.00000000000E+00 0.  1.
          1   -1    0    0  502    0  0.00000000000E+00 -0.00000000000E+00 -0.10036562010E+03  0.10036562010E+03  0.00000000000E+00 0. -1.
         23    2    1    2    0    0  0.90093082133E+02 -0.79273768060E+02  0.52274510340E+03  0.54410429654E+03  0.91574825372E+02 0.  0.
         23    2    1    2    0    0 -0.66740276782E+02  0.88669697324E+02  0.58285732323E+02  0.15478807414E+03  0.90804964269E+02 0.  0.
        -11    1    4    4    0    0  0.12957586021E+02  0.22977107403E+02  0.42906612963E+02  0.50366893254E+02  0.00000000000E+00 0.  1.
         11    1    4    4    0    0 -0.79697862803E+02  0.65692589920E+02  0.15379119360E+02  0.10442118089E+03  0.00000000000E+00 0. -1.
        -13    1    3    3    0    0  0.20373145825E+01 -0.58025098468E+02  0.25221730578E+03  0.25881389460E+03  0.00000000000E+00 0.  1.
         13    1    3    3    0    0  0.88055767551E+02 -0.21248669592E+02  0.27052779762E+03  0.28529040195E+03  0.00000000000E+00 0. -1.
         21    1    1    2  502  501 -0.23352805351E+02 -0.93959292636E+01 -0.37611760675E+02  0.45257944557E+02  0.00000000000E+00 0. -1.
<scales pt_clust_5="13000.00000" pt_clust_6="13000.00000" pt_clust_7="13000.00000" pt_clust_8="13000.00000" pt_clust_9="25.17215"></scales>
<clustering>
<clus scale="   25.172">  2  9  1 -1</clus>
<clus scale="   90.805">  5  6 -1 -1</clus>
<clus scale="   91.575">  7  8 -1 -1</clus>
<clus scale="  148.912">  2  5  1 -1</clus>
<clus scale="   25.172">  2  5  1 -1</clus>
</clustering>
</event>
<event>
 9    1  0.9000149E-006  0.9511217E+02  0.7546771E-02  0.1296531E+00
         -1   -1    0    0    0  501 -0.00000000000E+00  0.00000000000E+00  0.30596791538E+03  0.30596791538E+03  0.00000000000E+00 0.  1.
          1   -1    0    0  502    0  0.00000000000E+00 -0.00000000000E+00 -0.10155641214E+03  0.10155641214E+03  0.00000000000E+00 0. -1.
         23    2    1    2    0    0 -0.12413543513E+01 -0.13080145866E+02  0.19481003208E+03  0.21580010723E+03  0.91902701277E+02 0.  0.
         23    2    1    2    0    0 -0.22814496938E+01  0.51326447921E+02  0.70450777057E+02  0.11976709557E+03  0.82105029830E+02 0.  0.
        -13    1    3    3    0    0  0.38038279643E+02 -0.22870548453E+02  0.14485337269E+03  0.15150073361E+03  0.00000000000E+00 0.  1.
         13    1    3    3    0    0 -0.39279633995E+02  0.97904025871E+01  0.49956659390E+02  0.64299373613E+02  0.00000000000E+00 0. -1.
        -13    1    4    4    0    0 -0.32836707418E+02  0.17017051991E+02  0.16299169155E+01  0.37020076197E+02  0.00000000000E+00 0. -1.
         13    1    4    4    0    0  0.30555257724E+02  0.34309395931E+02  0.68820860142E+02  0.82747019368E+02  0.00000000000E+00 0.  1.
         21    1    1    2  502  501  0.35228040451E+01 -0.38246302055E+02 -0.60849305909E+02  0.71957124726E+02  0.00000000000E+00 0. -1.
<scales pt_clust_5="13000.00000" pt_clust_6="13000.00000" pt_clust_7="13000.00000" pt_clust_8="13000.00000" pt_clust_9="38.40820"></scales>
<clustering>
<clus scale="   38.408">  2  9  1 -1</clus>
<clus scale="   82.105">  7  8 -1 -1</clus>
<clus scale="   85.682">  2  7  1 -1</clus>
<clus scale="   91.903">  5  6 -1 -1</clus>
<clus scale="   38.408">  2  5  1 -1</clus>
</clustering>
</event>
<event>
 9    1  0.9000149E-006  0.1015037E+03  0.7546771E-02  0.1277480E+00
          1   -1    0    0  502    0  0.00000000000E+00  0.00000000000E+00  0.17575041338E+02  0.17575041338E+02  0.00000000000E+00 0. -1.
         -1   -1    0    0    0  501 -0.00000000000E+00 -0.00000000000E+00 -0.85329742762E+03  0.85329742762E+03  0.00000000000E+00 0.  1.
         23    2    1    2    0    0  0.26645744052E+02  0.47347735437E+02 -0.46257437925E+03  0.47465520711E+03  0.91491560095E+02 0.  0.
         23    2    1    2    0    0 -0.46102813121E+01 -0.30084894857E+02 -0.33579050629E+03  0.34953589357E+03  0.92161386623E+02 0.  0.
        -11    1    4    4    0    0 -0.15189868236E+02 -0.60510150275E+02 -0.18163190976E+03  0.19204780922E+03  0.00000000000E+00 0.  1.
         11    1    4    4    0    0  0.10579586924E+02  0.30425255418E+02 -0.15415859653E+03  0.15748808434E+03  0.00000000000E+00 0. -1.
        -11    1    3    3    0    0  0.60745604967E+02  0.33362953977E+02 -0.28627350720E+03  0.29454309726E+03  0.00000000000E+00 0. -1.
         11    1    3    3    0    0 -0.34099860915E+02  0.13984781460E+02 -0.17630087206E+03  0.18011210985E+03  0.00000000000E+00 0.  1.
         21    1    1    2  502  501 -0.22035462740E+02 -0.17262840579E+02 -0.37357500734E+02  0.46681368276E+02  0.00000000000E+00 0. -1.
<scales pt_clust_5="13000.00000" pt_clust_6="13000.00000" pt_clust_7="13000.00000" pt_clust_8="13000.00000" pt_clust_9="27.99227"></scales>
<clustering>
<clus scale="   27.992">  1  9  2 -1</clus>
<clus scale="   91.492">  7  8 -1 -1</clus>
<clus scale="   92.161">  5  6 -1 -1</clus>
<clus scale="  100.896">  2  7  1 -1</clus>
<clus scale="   27.992">  1  5  2 -1</clus>
</clustering>
</event>
<event>
 9    1  0.9000149E-006  0.1160240E+03  0.7546771E-02  0.1250827E+00
          3   -1    0    0  502    0  0.00000000000E+00  0.00000000000E+00  0.15031328997E+03  0.15031328997E+03  0.00000000000E+00 0. -1.
         -3   -1    0    0    0  501 -0.00000000000E+00 -0.00000000000E+00 -0.53204764058E+03  0.53204764058E+03  0.00000000000E+00 0.  1.
         23    2    1    2    0    0  0.29468282466E+02  0.51772380873E+02 -0.32434315621E+03  0.34275231778E+03  0.93444685634E+02 0.  0.
         23    2    1    2    0    0 -0.39349344791E+02 -0.80345089614E+02 -0.17600774504E+03  0.21719978479E+03  0.90516936757E+02 0.  0.
        -11    1    3    3    0    0 -0.33234970560E+02  0.24370888411E+02 -0.14690587869E+03  0.15257732683E+03  0.00000000000E+00 0.  1.
         11    1    3    3    0    0  0.62703253026E+02  0.27401492462E+02 -0.17743727752E+03  0.19017499095E+03  0.00000000000E+00 0. -1.
        -13    1    4    4    0    0 -0.48822504001E+02 -0.40136751873E+02 -0.16148382483E+03  0.17341171076E+03  0.00000000000E+00 0.  1.
         13    1    4    4    0    0  0.94731592105E+01 -0.40208337741E+02 -0.14523920214E+02  0.43788074035E+02  0.00000000000E+00 0. -1.
         21    1    1    2  502  501  0.98810623247E+01  0.28572708741E+02  0.11861655065E+03  0.12240882797E+03  0.00000000000E+00 0. -1.
<scales pt_clust_5="13000.00000" pt_clust_6="13000.00000" pt_clust_7="13000.00000" pt_clust_8="13000.00000" pt_clust_9="30.23301"></scales>
<clustering>
<clus scale="   30.233">  1  9  2 -1</clus>
<clus scale="   90.517">  7  8 -1 -1</clus>
<clus scale="   93.445">  5  6 -1 -1</clus>
<clus scale="  113.679">  1  7  2 -1</clus>
<clus scale="   30.233">  1  5  2 -1</clus>
</clustering>
</event>
<event>
 9    1  0.9000149E-006  0.1111293E+03  0.7546771E-02  0.1258554E+00
         -1   -1    0    0    0  501 -0.00000000000E+00  0.00000000000E+00  0.37138199429E+03  0.37138199429E+03  0.00000000000E+00 0.  1.
          1   -1    0    0  502    0  0.00000000000E+00 -0.00000000000E+00 -0.12148261192E+03  0.12148261192E+03  0.00000000000E+00 0. -1.
         23    2    1    2    0    0 -0.64495254292E+02  0.25276739848E+02  0.31472191619E+03  0.33448872290E+03  0.89634088457E+02 0.  0.
         23    2    1    2    0    0  0.39926279476E+02 -0.21292613158E+02 -0.13276649033E+02  0.10113528559E+03  0.89468393377E+02 0.  0.
        -11    1    3    3    0    0 -0.73270447775E+02  0.48660597334E+02  0.25548210429E+03  0.27019903379E+03  0.00000000000E+00 0.  1.
         11    1    3    3    0    0  0.87751934829E+01 -0.23383857486E+02  0.59239811901E+02  0.64289689109E+02  0.00000000000E+00 0. -1.
        -13    1    4    4    0    0  0.55827580104E+02  0.13295795370E+02 -0.23029546123E+02  0.61837342031E+02  0.00000000000E+00 0.  1.
         13    1    4    4    0    0 -0.15901300628E+02 -0.34588408528E+02  0.97528970906E+01  0.39297943557E+02  0.00000000000E+00 0. -1.
         21    1    1    2  502  501  0.24568974817E+02 -0.39841266905E+01 -0.51545884783E+02  0.57240597718E+02  0.00000000000E+00 0. -1.
<scales pt_clust_5="13000.00000" pt_clust_6="13000.00000" pt_clust_7="13000.00000" pt_clust_8="13000.00000" pt_clust_9="24.88991"></scales>
<clustering>
<clus scale="   24.890">  2  9  1 -1</clus>
<clus scale="   89.468">  7  8 -1 -1</clus>
<clus scale="   89.634">  5  6 -1 -1</clus>
<clus scale="  110.996">  2  7  1 -1</clus>
<clus scale="   24.890">  2  5  1 -1</clus>
</clustering>
</event>
<event>
 9    1  0.9000149E-006  0.9703551E+02  0.7546771E-02  0.1287218E+00
          2   -1    0    0  502    0  0.00000000000E+00  0.00000000000E+00  0.54372768592E+02  0.54372768592E+02  0.00000000000E+00 0. -1.
         -2   -1    0    0    0  501 -0.00000000000E+00 -0.00000000000E+00 -0.34214879441E+03  0.34214879441E+03  0.00000000000E+00 0.  1.
         23    2    1    2    0    0  0.22639910183E+02 -0.19566210519E+01 -0.15716123201E+03  0.18300973692E+03  0.90975365128E+02 0.  0.
         23    2    1    2    0    0 -0.46386537310E+02 -0.15454232960E+02 -0.14753894663E+03  0.17954909524E+03  0.89886554442E+02 0.  0.
        -11    1    3    3    0    0  0.27968685352E+01 -0.34707451622E+02 -0.13356776535E+03  0.13803179928E+03  0.00000000000E+00 0.  1.
         11    1    3    3    0    0  0.19843041648E+02  0.32750830571E+02 -0.23593466657E+02  0.44977937634E+02  0.00000000000E+00 0. -1.
        -13    1    4    4    0    0  0.85046380587E+01  0.29159326207E+02 -0.32343942419E+02  0.44370325495E+02  0.00000000000E+00 0. -1.
         13    1    4    4    0    0 -0.54891175368E+02 -0.44613559167E+02 -0.11519500421E+03  0.13517876974E+03  0.00000000000E+00 0.  1.
         21    1    1    2  502  501  0.23746627127E+02  0.17410854012E+02  0.16924152825E+02  0.33962730841E+02  0.00000000000E+00 0.  1.
<scales pt_clust_5="13000.00000" pt_clust_6="13000.00000" pt_clust_7="13000.00000" pt_clust_8="13000.00000" pt_clust_9="29.44555"></scales>
<clustering>
<clus scale="   29.446">  1  9  2 -1</clus>
<clus scale="   89.887">  7  8 -1 -1</clus>
<clus scale="   90.975">  5  6 -1 -1</clus>
<clus scale="   96.015">  1  7  2 -1</clus>
<clus scale="   29.446">  1  5  2 -1</clus>
</clustering>
</event>
<event>
 9    1  0.9000149E-006  0.1253834E+03  0.7546771E-02  0.1234941E+00
          2   -1    0    0  502    0  0.00000000000E+00  0.00000000000E+00  0.57599656346E+03  0.57599656346E+03  0.00000000000E+00 0. -1.
         -2   -1    0    0    0  501 -0.00000000000E+00 -0.00000000000E+00 -0.51634404491E+02  0.51634404491E+02  0.00000000000E+00 0.  1.
         23    2    1    2    0    0 -0.95825319767E+02 -0.28101560390E+02  0.11902407789E+03  0.17910476651E+03  0.89104414395E+02 0.  0.
         23    2    1    2    0    0  0.46898714134E+02  0.62774630447E+02  0.18734577053E+03  0.22243621497E+03  0.90770525930E+02 0.  0.
        -11    1    3    3    0    0 -0.28037688444E+01  0.21215867549E+02  0.17034672739E+01  0.21468021715E+02  0.00000000000E+00 0. -1.
         11    1    3    3    0    0 -0.93021550923E+02 -0.49317427939E+02  0.11732061062E+03  0.15763674480E+03  0.00000000000E+00 0.  1.
        -13    1    4    4    0    0  0.45176320804E+01  0.71825829351E+02  0.14483584231E+03  0.16173057837E+03  0.00000000000E+00 0. -1.
         13    1    4    4    0    0  0.42381082053E+02 -0.90511989038E+01  0.42509928226E+02  0.60705636603E+02  0.00000000000E+00 0.  1.
         21    1    1    2  502  501  0.48926605634E+02 -0.34673070057E+02  0.21799231054E+03  0.22608998647E+03  0.00000000000E+00 0. -1.
<scales pt_clust_5="13000.00000" pt_clust_6="13000.00000" pt_clust_7="13000.00000" pt_clust_8="13000.00000" pt_clust_9="59.96695"></scales>
<clustering>
<clus scale="   59.967">  1  9  2 -1</clus>
<clus scale="   89.104">  5  6 -1 -1</clus>
<clus scale="   90.771">  7  8 -1 -1</clus>
<clus scale="  124.183">  2  5  1 -1</clus>
<clus scale="   59.967">  1  5  2 -1</clus>
</clustering>
</event>
<event>
 9    1  0.9000149E-006  0.2895068E+03  0.7546771E-02  0.1090671E+00
         -1   -1    0    0    0  501 -0.00000000000E+00  0.00000000000E+00  0.14622532942E+03  0.14622532942E+03  0.00000000000E+00 0.  1.
          1   -1    0    0  502    0  0.00000000000E+00 -0.00000000000E+00 -0.70465273085E+03  0.70465273085E+03  0.00000000000E+00 0. -1.
         23    2    1    2    0    0 -0.78837860292E+02 -0.25246780739E+03 -0.10583296200E+03  0.29917420819E+03  0.91373896809E+02 0.  0.
         23    2    1    2    0    0  0.69216754294E+02  0.27009786346E+03 -0.43515753490E+03  0.52510629209E+03  0.92901684001E+02 0.  0.
        -11    1    3    3    0    0 -0.57508034014E+02 -0.51139538613E+02 -0.21921336250E+02  0.80018568899E+02  0.00000000000E+00 0. -1.
         11    1    3    3    0    0 -0.21329826278E+02 -0.20132826878E+03 -0.83911625746E+02  0.21915563929E+03  0.00000000000E+00 0.  1.
        -11    1    4    4    0    0  0.38624129484E+01  0.63694102674E+02 -0.42352759138E+02  0.76587291086E+02  0.00000000000E+00 0.  1.
         11    1    4    4    0    0  0.65354341345E+02  0.20640376079E+03 -0.39280477576E+03  0.44851900100E+03  0.00000000000E+00 0. -1.
         21    1    1    2  502  501  0.96211059980E+01 -0.17630056071E+02 -0.17436904536E+02  0.26597559991E+02  0.00000000000E+00 0. -1.
<scales pt_clust_5="13000.00000" pt_clust_6="13000.00000" pt_clust_7="13000.00000" pt_clust_8="13000.00000" pt_clust_9="20.08444"></scales>
<clustering>
<clus scale="   20.084">  1  9  2 -1</clus>
<clus scale="   91.374">  5  6 -1 -1</clus>
<clus scale="   92.902">  7  8 -1 -1</clus>
<clus scale="  289.020">  1  5  2 -1</clus>
<clus scale="  289.507">  2  5  1 -1</clus>
</clustering>
</event>
<event>
 9    1  0.9000149E-006  0.1450898E+03  0.7546771E-02  0.1206673E+00
         -1   -1    0    0    0  501 -0.00000000000E+00  0.00000000000E+00  0.39709009327E+03  0.39709009327E+03  0.00000000000E+00 0.  1.
          1   -1    0    0  502    0  0.00000000000E+00 -0.00000000000E+00 -0.98220420108E+02  0.98220420108E+02  0.00000000000E+00 0. -1.
         23    2    1    2    0    0 -0.10315755123E+03  0.17101759823E+02  0.17762108449E+03  0.22491509584E+03  0.90019998446E+02 0.  0.
         23    2    1    2    0    0  0.12256788830E+03 -0.29558364320E+02  0.16167696387E+03  0.22385101184E+03  0.89851269958E+02 0.  0.
        -13    1    4    4    0    0  0.10469169715E+03 -0.57265467714E+02  0.14188275513E+03  0.18539256039E+03  0.00000000000E+00 0. -1.
         13    1    4    4    0    0  0.17876191153E+02  0.27707103394E+02  0.19794208740E+02  0.38458451454E+02  0.00000000000E+00 0.  1.
        -13    1    3    3    0    0 -0.22867677106E+02  0.26290376934E+02  0.12182664257E+03  0.12671166250E+03  0.00000000000E+00 0.  1.
         13    1    3    3    0    0 -0.80289874120E+02 -0.91886171102E+01  0.55794441920E+02  0.98203433340E+02  0.00000000000E+00 0. -1.
         21    1    1    2  502  501 -0.19410337079E+02  0.12456604497E+02 -0.40428375188E+02  0.46544405695E+02  0.00000000000E+00 0. -1.
<scales pt_clust_5="13000.00000" pt_clust_6="13000.00000" pt_clust_7="13000.00000" pt_clust_8="13000.00000" pt_clust_9="23.06357"></scales>
<clustering>
<clus scale="   23.064">  2  9  1 -1</clus>
<clus scale="   89.851">  5  6 -1 -1</clus>
<clus scale="   90.020">  7  8 -1 -1</clus>
<clus scale="  144.985">  2  5  1 -1</clus>
<clus scale="   23.064">  2  5  1 -1</clus>
</clustering>
</event>
<event>
 9    1  0.9000149E-006  0.1205261E+03  0.7546771E-02  0.1244848E+00
          1   -1    0    0  502    0  0.00000000000E+00  0.00000000000E+00  0.10405741513E+03  0.10405741513E+03  0.00000000000E+00 0. -1.
         -1   -1    0    0    0  501 -0.00000000000E+00 -0.00000000000E+00 -0.17964786945E+03  0.17964786945E+03  0.00000000000E+00 0.  1.
         23    2    1    2    0    0  0.41441191264E+02 -0.75019344058E+02 -0.64550804543E+02  0.14034007289E+03  0.90461347412E+02 0.  0.
         23    2    1    2    0    0 -0.20951161305E+02  0.70889211410E+02 -0.30771252257E+02  0.11462089991E+03  0.82017371796E+02 0.  0.
        -11    1    3    3    0    0  0.44050306483E+02 -0.19063150951E+02 -0.69104424511E+02  0.84138307045E+02  0.00000000000E+00 0.  1.
         11    1    3    3    0    0 -0.26091152189E+01 -0.55956193108E+02  0.45536199686E+01  0.56201765845E+02  0.00000000000E+00 0. -1.
        -11    1    4    4    0    0 -0.41071415412E+02  0.12762781255E+02 -0.31158714899E+02  0.53109464914E+02  0.00000000000E+00 0. -1.
         11    1    4    4    0    0  0.20120254107E+02  0.58126430155E+02  0.38746264202E+00  0.61511434996E+02  0.00000000000E+00 0.  1.
         21    1    1    2  502  501 -0.20490029959E+02  0.41301326487E+01  0.19731602480E+02  0.28744311783E+02  0.00000000000E+00 0. -1.
<scales pt_clust_5="13000.00000" pt_clust_6="13000.00000" pt_clust_7="13000.00000" pt_clust_8="13000.00000" pt_clust_9="20.90214"></scales>
<clustering>
<clus scale="   20.902">  1  9  2 -1</clus>
<clus scale="   82.017">  7  8 -1 -1</clus>
<clus scale="   90.461">  5  6 -1 -1</clus>
<clus scale="  114.325">  1  7  2 -1</clus>
<clus scale="   20.902">  1  5  2 -1</clus>
</clustering>
</event>
<event>
 9    1  0.9000149E-006  0.1156273E+03  0.7546771E-02  0.1250730E+00
          1   -1    0    0  502    0  0.00000000000E+00  0.00000000000E+00  0.70384878533E+03  0.70384878533E+03  0.00000000000E+00 0. -1.
         -1   -1    0    0    0  501 -0.00000000000E+00 -0.00000000000E+00 -0.42385478185E+02  0.42385478185E+02  0.00000000000E+00 0.  1.
         23    2    1    2    0    0  0.75939518204E+02  0.48378474916E+01  0.76197094539E+02  0.14256574400E+03  0.93427934536E+02 0.  0.
         23    2    1    2    0    0 -0.44801580527E+02  0.58028393964E+01  0.31632067785E+03  0.33271742422E+03  0.92742970508E+02 0.  0.
        -13    1    3    3    0    0  0.97931907264E+02 -0.11595901823E+00  0.60933518204E+02  0.11534108352E+03  0.00000000000E+00 0.  1.
         13    1    3    3    0    0 -0.21992389060E+02  0.49538065098E+01  0.15263576334E+02  0.27224660476E+02  0.00000000000E+00 0. -1.
        -13    1    4    4    0    0 -0.31673776525E+02  0.48804386840E+02  0.17532278269E+03  0.18472459074E+03  0.00000000000E+00 0.  1.
         13    1    4    4    0    0 -0.13127804001E+02 -0.43001547443E+02  0.14099789517E+03  0.14799283348E+03  0.00000000000E+00 0. -1.
         21    1    1    2  502  501 -0.31137937678E+02 -0.10640686888E+02  0.26894553475E+03  0.27095109530E+03  0.00000000000E+00 0.  1.
<scales pt_clust_5="13000.00000" pt_clust_6="13000.00000" pt_clust_7="13000.00000" pt_clust_8="13000.00000" pt_clust_9="32.90586"></scales>
<clustering>
<clus scale="   32.906">  1  9  2 -1</clus>
<clus scale="   92.743">  7  8 -1 -1</clus>
<clus scale="   93.428">  5  6 -1 -1</clus>
<clus scale="  115.075">  1  7  2 -1</clus>
<clus scale="   32.906">  1  5  2 -1</clus>
</clustering>
</event>
<event>
 9    1  0.9000149E-006  0.1110338E+03  0.7546771E-02  0.1259674E+00
          1   -1    0    0  502    0  0.00000000000E+00  0.00000000000E+00  0.20326664473E+03  0.20326664473E+03  0.00000000000E+00 0. -1.
         -1   -1    0    0    0  501 -0.00000000000E+00 -0.00000000000E+00 -0.28297002873E+03  0.28297002873E+03  0.00000000000E+00 0.  1.
         23    2    1    2    0    0 -0.21811626161E+02 -0.51744937387E+02 -0.23003700249E+03  0.25376560047E+03  0.91250599374E+02 0.  0.
         23    2    1    2    0    0  0.39556798457E+02  0.80749799323E+02  0.75572817435E+02  0.15034099001E+03  0.93839715184E+02 0.  0.
        -11    1    4    4    0    0  0.50025905488E+02  0.27990537206E+02 -0.31410677292E+00  0.57325038648E+02  0.00000000000E+00 0.  1.
         11    1    4    4    0    0 -0.10469107030E+02  0.52759262117E+02  0.75886924208E+02  0.93015951357E+02  0.00000000000E+00 0. -1.
        -11    1    3    3    0    0  0.29523926793E+01 -0.69340841604E+02 -0.19707904729E+03  0.20894262327E+03  0.00000000000E+00 0.  1.
         11    1    3    3    0    0 -0.24764018840E+02  0.17595904216E+02 -0.32957955195E+02  0.44822977198E+02  0.00000000000E+00 0. -1.
         21    1    1    2  502  501 -0.17745172296E+02 -0.29004861935E+02  0.74760801056E+02  0.82130082980E+02  0.00000000000E+00 0.  1.
<scales pt_clust_5="13000.00000" pt_clust_6="13000.00000" pt_clust_7="13000.00000" pt_clust_8="13000.00000" pt_clust_9="34.00255"></scales>
<clustering>
<clus scale="   34.003">  1  9  2 -1</clus>
<clus scale="   91.251">  7  8 -1 -1</clus>
<clus scale="   93.840">  5  6 -1 -1</clus>
<clus scale="  108.854">  2  7  1 -1</clus>
<clus scale="   34.003">  1  5  2 -1</clus>
</clustering>
</event>
<event>
 9    1  0.9000149E-006  0.9389814E+02  0.7546771E-02  0.1294902E+00
         -1   -1    0    0    0  501 -0.00000000000E+00  0.00000000000E+00  0.98334571117E+02  0.98334571117E+02  0.00000000000E+00 0.  1.
          1   -1    0    0  502    0  0.00000000000E+00 -0.00000000000E+00 -0.48348022487E+03  0.48348022487E+03  0.00000000000E+00 0. -1.
         23    2    1    2    0    0 -0.19699329933E+02  0.21611970923E+02  0.46496560481E+02  0.10525919678E+03  0.89791021171E+02 0.  0.
         23    2    1    2    0    0 -0.16073225412E+01  0.30474864712E+02 -0.96579765960E+02  0.13680001628E+03  0.91952663890E+02 0.  0.
        -11    1    3    3    0    0 -0.41721058619E+02 -0.17458294436E+02  0.39139111490E+02  0.59810607965E+02  0.00000000000E+00 0.  1.
         11    1    3    3    0    0  0.22021728685E+02  0.39070265359E+02  0.73574489914E+01  0.45448588814E+02  0.00000000000E+00 0. -1.
        -13    1    4    4    0    0 -0.17215667969E+02 -0.29729257826E+02 -0.39911283548E+02  0.52660407794E+02  0.00000000000E+00 0.  1.
         13    1    4    4    0    0  0.15608345427E+02  0.60204122538E+02 -0.56668482411E+02  0.84139608487E+02  0.00000000000E+00 0. -1.
         21    1    1    2  502  501  0.21306652474E+02 -0.52086835635E+02 -0.33506244827E+03  0.33975558292E+03  0.00000000000E+00 0. -1.
<scales pt_clust_5="13000.00000" pt_clust_6="13000.00000" pt_clust_7="13000.00000" pt_clust_8="13000.00000" pt_clust_9="56.27621"></scales>
<clustering>
<clus scale="   56.276">  2  9  1 -1</clus>
<clus scale="   89.791">  5  6 -1 -1</clus>
<clus scale="   91.782">  1  5  2 -1</clus>
<clus scale="   91.953">  7  8 -1 -1</clus>
<clus scale="   56.276">  2  5  1 -1</clus>
</clustering>
</event>
<event>
 9    1  0.9000149E-006  0.1581997E+03  0.7546771E-02  0.1190997E+00
         -2   -1    0    0    0  501 -0.00000000000E+00  0.00000000000E+00  0.62925889648E+02  0.62925889648E+02  0.00000000000E+00 0.  1.
          2   -1    0    0  502    0  0.00000000000E+00 -0.00000000000E+00 -0.55671055346E+03  0.55671055346E+03  0.00000000000E+00 0. -1.
         23    2    1    2    0    0  0.75568660342E+02  0.93783566694E+02 -0.12048747662E+03  0.19386696699E+03  0.92526693777E+02 0.  0.
         23    2    1    2    0    0 -0.73396675924E+02 -0.12507216529E+03 -0.29009734420E+03  0.33685430422E+03  0.91017770751E+02 0.  0.
        -11    1    4    4    0    0 -0.51602816930E+02 -0.15107517243E+02 -0.13641732381E+03  0.14663142237E+03  0.00000000000E+00 0.  1.
         11    1    4    4    0    0 -0.21793858994E+02 -0.10996464805E+03 -0.15368002039E+03  0.19022288185E+03  0.00000000000E+00 0. -1.
        -13    1    3    3    0    0  0.96397641226E+02  0.84626317694E+02 -0.94489489204E+02  0.15931849375E+03  0.00000000000E+00 0.  1.
         13    1    3    3    0    0 -0.20828980884E+02  0.91572490001E+01 -0.25997987412E+02  0.34548473242E+02  0.00000000000E+00 0. -1.
         21    1    1    2  502  501 -0.21719844176E+01  0.31288598601E+02 -0.83199842998E+02  0.88915171898E+02  0.00000000000E+00 0. -1.
<scales pt_clust_5="13000.00000" pt_clust_6="13000.00000" pt_clust_7="13000.00000" pt_clust_8="13000.00000" pt_clust_9="31.36390"></scales>
<clustering>
<clus scale="   31.364">  2  9  1 -1</clus>
<clus scale="   91.018">  5  6 -1 -1</clus>
<clus scale="   92.527">  7  8 -1 -1</clus>
<clus scale="  157.322">  2  5  1 -1</clus>
<clus scale="   31.364">  2  5  1 -1</clus>
</clustering>
</event>
<event>
 9    1  0.9000149E-006  0.1183521E+03  0.7546771E-02  0.1248449E+00
         -1   -1    0    0    0  501 -0.00000000000E+00  0.00000000000E+00  0.53252124213E+02  0.53252124213E+02  0.00000000000E+00 0.  1.
          1   -1    0    0  502    0  0.00000000000E+00 -0.00000000000E+00 -0.38041907130E+03  0.38041907130E+03  0.00000000000E+00 0. -1.
         23    2    1    2    0    0 -0.68337825815E+02 -0.59086971349E+02 -0.91857408647E+02  0.15349458296E+03  0.83435453230E+02 0.  0.
         23    2    1    2    0    0  0.28851740920E+02  0.49796382478E+02 -0.14182899710E+03  0.17827431840E+03  0.91401124299E+02 0.  0.
        -11    1    3    3    0    0 -0.42281346833E+02 -0.66096653123E+01  0.20104439445E+01  0.42842057029E+02  0.00000000000E+00 0.  1.
         11    1    3    3    0    0 -0.26056478982E+02 -0.52477306036E+02 -0.93867852591E+02  0.11065252594E+03  0.00000000000E+00 0. -1.
        -11    1    4    4    0    0  0.20328537687E+02 -0.17436680345E+02 -0.87220290304E+02  0.91239609308E+02  0.00000000000E+00 0. -1.
         11    1    4    4    0    0  0.85232032328E+01  0.67233062823E+02 -0.54608706793E+02  0.87034709096E+02  0.00000000000E+00 0.  1.
         21    1    1    2  502  501  0.39486084895E+02  0.92905888707E+01 -0.93480541340E+02  0.10190229414E+03  0.00000000000E+00 0. -1.
<scales pt_clust_5="13000.00000" pt_clust_6="13000.00000" pt_clust_7="13000.00000" pt_clust_8="13000.00000" pt_clust_9="40.56434"></scales>
<clustering>
<clus scale="   40.564">  2  9  1 -1</clus>
<clus scale="   83.435">  5  6 -1 -1</clus>
<clus scale="   91.401">  7  8 -1 -1</clus>
<clus scale="  112.314">  1  5  2 -1</clus>
<clus scale="   40.564">  2  5  1 -1</clus>
</clustering>
</event>
<event>
 9    1  0.9000149E-006  0.9998056E+02  0.7546771E-02  0.1280630E+00
          1   -1    0    0  502    0  0.00000000000E+00  0.00000000000E+00  0.45095970028E+03  0.45095970028E+03  0.00000000000E+00 0. -1.
         -1   -1    0    0    0  501 -0.00000000000E+00 -0.00000000000E+00 -0.74331011280E+02  0.74331011280E+02  0.00000000000E+00 0.  1.
         23    2    1    2    0    0  0.49586596676E+01 -0.40030552434E+02 -0.26272122860E+02  0.10394982433E+03  0.92132014547E+02 0.  0.
         23    2    1    2    0    0  0.15273614998E+02  0.29118713737E+02  0.28269383269E+03  0.29895571246E+03  0.91528859755E+02 0.  0.
        -11    1    4    4    0    0  0.46455295885E+02 -0.19050309057E+01  0.19953621998E+03  0.20488149439E+03  0.00000000000E+00 0.  1.
         11    1    4    4    0    0 -0.31181680887E+02  0.31023744643E+02  0.83157612702E+02  0.94074218067E+02  0.00000000000E+00 0. -1.
        -13    1    3    3    0    0 -0.21405622752E+02 -0.60825474029E+02 -0.28062402161E+02  0.70323803874E+02  0.00000000000E+00 0.  1.
         13    1    3    3    0    0  0.26364282419E+02  0.20794921595E+02  0.17902793015E+01  0.33626020454E+02  0.00000000000E+00 0. -1.
         21    1    1    2  502  501 -0.20232274666E+02  0.10911838697E+02  0.12020697918E+03  0.12238517478E+03  0.00000000000E+00 0. -1.
<scales pt_clust_5="13000.00000" pt_clust_6="13000.00000" pt_clust_7="13000.00000" pt_clust_8="13000.00000" pt_clust_9="22.98724"></scales>
<clustering>
<clus scale="   22.987">  1  9  2 -1</clus>
<clus scale="   91.529">  5  6 -1 -1</clus>
<clus scale="   92.132">  7  8 -1 -1</clus>
<clus scale="   99.425">  1  5  2 -1</clus>
<clus scale="   22.987">  1  5  2 -1</clus>
</clustering>
</event>
<event>
 9    1  0.9000149E-006  0.2464602E+03  0.7546771E-02  0.1115622E+00
         -1   -1    0    0    0  501 -0.00000000000E+00  0.00000000000E+00  0.19765780104E+03  0.19765780104E+03  0.00000000000E+00 0.  1.
          1   -1    0    0  502    0  0.00000000000E+00 -0.00000000000E+00 -0.58420313887E+03  0.58420313887E+03  0.00000000000E+00 0. -1.
         23    2    1    2    0    0  0.10807606408E+03 -0.23541622212E+03  0.27694194637E+02  0.27600138230E+03  0.91151310196E+02 0.  0.
         23    2    1    2    0    0 -0.91960952882E+02  0.13174524419E+03 -0.25507328478E+03  0.31522571256E+03  0.92147941012E+02 0.  0.
        -11    1    3    3    0    0  0.83692042466E+02 -0.19436680557E+03 -0.14729046547E+02  0.21213146370E+03  0.00000000000E+00 0. -1.
         11    1    3    3    0    0  0.24384021618E+02 -0.41049416546E+02  0.42423241184E+02  0.63869918597E+02  0.00000000000E+00 0.  1.
        -13    1    4    4    0    0 -0.39341314083E+02  0.14526345684E+02 -0.18133754999E+02  0.45690116908E+02  0.00000000000E+00 0. -1.
         13    1    4    4    0    0 -0.52619638799E+02  0.11721889851E+03 -0.23693952978E+03  0.26953559566E+03  0.00000000000E+00 0.  1.
         21    1    1    2  502  501 -0.16115111202E+02  0.10367097793E+03 -0.15916624770E+03  0.19063384505E+03  0.00000000000E+00 0.  1.
<scales pt_clust_5="13000.00000" pt_clust_6="13000.00000" pt_clust_7="13000.00000" pt_clust_8="13000.00000" pt_clust_9="104.91601"></scales>
<clustering>
<clus scale="   91.151">  5  6 -1 -1</clus>
<clus scale="   92.148">  7  8 -1 -1</clus>
<clus scale="  104.916">  2  9  1 -1</clus>
<clus scale="  246.089">  1  5  2 -1</clus>
<clus scale="  104.916">  2  5  1 -1</clus>
</clustering>
</event>
<event>
 9    1  0.9000149E-006  0.8865458E+02  0.7546771E-02  0.1307660E+00
         -1   -1    0    0    0  501 -0.00000000000E+00  0.00000000000E+00  0.22356010965E+02  0.22356010965E+02  0.00000000000E+00 0.  1.
          1   -1    0    0  502    0  0.00000000000E+00 -0.00000000000E+00 -0.54407653698E+03  0.54407653698E+03  0.00000000000E+00 0. -1.
         23    2    1    2    0    0  0.10103902156E+02 -0.19786334720E+02 -0.12185438002E+03  0.14933869192E+03  0.83426417250E+02 0.  0.
         23    2    1    2    0    0 -0.30506041966E+02  0.22867469672E+01 -0.29101331498E+03  0.30497150455E+03  0.85924509197E+02 0.  0.
        -13    1    3    3    0    0 -0.31004639541E+02  0.12257760297E+02 -0.58137514047E+02  0.67018735441E+02  0.00000000000E+00 0.  1.
         13    1    3    3    0    0  0.41108541697E+02 -0.32044095017E+02 -0.63716865970E+02  0.82319956481E+02  0.00000000000E+00 0. -1.
        -13    1    4    4    0    0 -0.58615645110E+02  0.14774322286E+02 -0.19248540823E+03  0.20175407513E+03  0.00000000000E+00 0.  1.
         13    1    4    4    0    0  0.28109603144E+02 -0.12487575319E+02 -0.98527906758E+02  0.10321742942E+03  0.00000000000E+00 0. -1.
         21    1    1    2  502  501  0.20402139810E+02  0.17499587753E+02 -0.10885283101E+03  0.11212235147E+03  0.00000000000E+00 0. -1.
<scales pt_clust_5="13000.00000" pt_clust_6="13000.00000" pt_clust_7="13000.00000" pt_clust_8="13000.00000" pt_clust_9="26.87904"></scales>
<clustering>
<clus scale="   26.879">  2  9  1 -1</clus>
<clus scale="   83.426">  5  6 -1 -1</clus>
<clus scale="   85.925">  7  8 -1 -1</clus>
<clus scale="   86.236">  1  5  2 -1</clus>
<clus scale="   26.879">  2  5  1 -1</clus>
</clustering>
</event>
<event>
 9    1  0.9000149E-006  0.9476489E+02  0.7546771E-02  0.1291926E+00
         -1   -1    0    0    0  501 -0.00000000000E+00  0.00000000000E+00  0.64549556202E+02  0.64549556202E+02  0.00000000000E+00 0.  1.
          1   -1    0    0  502    0  0.00000000000E+00 -0.00000000000E+00 -0.21634498755E+03  0.21634498755E+03  0.00000000000E+00 0. -1.
         23    2    1    2    0    0  0.15592415314E+02 -0.11379966289E+02 -0.15022979644E+02  0.94836107260E+02  0.91627344580E+02 0.  0.
         23    2    1    2    0    0  0.54907965961E+01  0.27242905941E+02 -0.12355745998E+03  0.15654961264E+03  0.92027227107E+02 0.  0.
        -11    1    3    3    0    0  0.43828029254E+02  0.73149660870E+01 -0.34061561247E+02  0.55987452449E+02  0.00000000000E+00 0. -1.
         11    1    3    3    0    0 -0.28235613940E+02 -0.18694932376E+02  0.19038581603E+02  0.38848654811E+02  0.00000000000E+00 0.  1.
        -13    1    4    4    0    0 -0.76854151294E+01 -0.22799997310E+02 -0.16541089803E+01  0.24117246102E+02  0.00000000000E+00 0.  1.
         13    1    4    4    0    0  0.13176211725E+02  0.50042903251E+02 -0.12190335100E+03  0.13243236654E+03  0.00000000000E+00 0. -1.
         21    1    1    2  502  501 -0.21083211910E+02 -0.15862939652E+02 -0.13214991720E+02  0.29508823850E+02  0.00000000000E+00 0.  1.
<scales pt_clust_5="13000.00000" pt_clust_6="13000.00000" pt_clust_7="13000.00000" pt_clust_8="13000.00000" pt_clust_9="26.38436"></scales>
<clustering>
<clus scale="   26.384">  1  9  2 -1</clus>
<clus scale="   91.627">  5  6 -1 -1</clus>
<clus scale="   92.027">  7  8 -1 -1</clus>
<clus scale="   94.377">  1  5  2 -1</clus>
<clus scale="   94.765">  2  5  1 -1</clus>
</clustering>
</event>
<event>
 9    1  0.9000149E-006  0.1471109E+03  0.7546771E-02  0.1205266E+00
         -1   -1    0    0    0  501 -0.00000000000E+00  0.00000000000E+00  0.10245052247E+04  0.10245052247E+04  0.00000000000E+00 0.  1.
          1   -1    0    0  502    0  0.00000000000E+00 -0.00000000000E+00 -0.63277247464E+02  0.63277247464E+02  0.00000000000E+00 0. -1.
         23    2    1    2    0    0  0.35255454121E+02  0.82491107600E+02  0.42015389241E+03  0.43922129773E+03  0.91314430365E+02 0.  0.
         23    2    1    2    0    0 -0.11000135574E+03 -0.11627323136E+03  0.53661536159E+03  0.56641458652E+03  0.85145022955E+02 0.  0.
        -11    1    3    3    0    0  0.62317332095E+02  0.75863604551E+02  0.35576395896E+03  0.36906196075E+03  0.00000000000E+00 0. -1.
         11    1    3    3    0    0 -0.27061877974E+02  0.66275030491E+01  0.64389933447E+02  0.70159336980E+02  0.00000000000E+00 0.  1.
        -11    1    4    4    0    0 -0.77963281474E+02 -0.12245469643E+03  0.38819582976E+03  0.41445075483E+03  0.00000000000E+00 0. -1.
         11    1    4    4    0    0 -0.32038074266E+02  0.61814650757E+01  0.14841953183E+03  0.15196383169E+03  0.00000000000E+00 0.  1.
         21    1    1    2  502  501  0.74745901618E+02  0.33782123759E+02  0.44587232448E+01  0.82146587923E+02  0.00000000000E+00 0. -1.
<scales pt_clust_5="13000.00000" pt_clust_6="13000.00000" pt_clust_7="13000.00000" pt_clust_8="13000.00000" pt_clust_9="82.02549"></scales>
<clustering>
<clus scale="   82.025">  2  9  1 -1</clus>
<clus scale="   85.145">  7  8 -1 -1</clus>
<clus scale="   91.314">  5  6 -1 -1</clus>
<clus scale="  143.363">  2  7  1 -1</clus>
<clus scale="   82.025">  2  5  1 -1</clus>
</clustering>
</event>
<event>
 9    1  0.9000149E-006  0.9404779E+02  0.7546771E-02  0.1293733E+00
         -3   -1    0    0    0  501 -0.00000000000E+00  0.00000000000E+00  0.30740596762E+03  0.30740596762E+03  0.00000000000E+00 0.  1.
          3   -1    0    0  502    0  0.00000000000E+00 -0.00000000000E+00 -0.56966468199E+02  0.56966468199E+02  0.00000000000E+00 0. -1.
         23    2    1    2    0    0 -0.29056221351E+02  0.23004464657E+02  0.14950893664E+03  0.17859257746E+03  0.90382062363E+02 0.  0.
         23    2    1    2    0    0 -0.10250078036E+02 -0.17858576318E+02  0.11081582027E+03  0.14492421428E+03  0.91098238263E+02 0.  0.
        -13    1    3    3    0    0 -0.50953635898E+02  0.31536168584E+02  0.55451096037E+02  0.81643291163E+02  0.00000000000E+00 0. -1.
         13    1    3    3    0    0  0.21897414547E+02 -0.85317039269E+01  0.94057840598E+02  0.96949286298E+02  0.00000000000E+00 0.  1.
        -13    1    4    4    0    0 -0.42635023422E+02 -0.12747806530E+02  0.10152209545E+03  0.11084668537E+03  0.00000000000E+00 0. -1.
         13    1    4    4    0    0  0.32384945385E+02 -0.51107697872E+01  0.92937248197E+01  0.34077528908E+02  0.00000000000E+00 0.  1.
         21    1    1    2  502  501  0.39306299387E+02 -0.51458883393E+01 -0.98852574763E+01  0.40855644086E+02  0.00000000000E+00 0.  1.
<scales pt_clust_5="13000.00000" pt_clust_6="13000.00000" pt_clust_7="13000.00000" pt_clust_8="13000.00000" pt_clust_9="39.64171"></scales>
<clustering>
<clus scale="   39.642">  2  9  1 -1</clus>
<clus scale="   90.382">  5  6 -1 -1</clus>
<clus scale="   91.098">  7  8 -1 -1</clus>
<clus scale="   93.354">  1  5  2 -1</clus>
<clus scale="   39.642">  2  5  1 -1</clus>
</clustering>
</event>
<event>
 9    1  0.9000149E-006  0.1238055E+03  0.7546771E-02  0.1237163E+00
         -1   -1    0    0    0  501 -0.00000000000E+00  0.00000000000E+00  0.42004324166E+02  0.42004324166E+02  0.00000000000E+00 0.  1.
          1   -1    0    0  502    0  0.00000000000E+00 -0.00000000000E+00 -0.52493936131E+03  0.52493936131E+03  0.00000000000E+00 0. -1.
         23    2    1    2    0    0 -0.89398171281E+02 -0.87670606182E+01 -0.10745429742E+03  0.16726010086E+03  0.91436431057E+02 0.  0.
         23    2    1    2    0    0  0.68568942542E+02  0.11935495297E+02 -0.29196943148E+03  0.31355557319E+03  0.90701668286E+02 0.  0.
        -13    1    3    3    0    0  0.71701669409E+00  0.29950670890E+02 -0.28487869282E+02  0.41341450095E+02  0.00000000000E+00 0.  1.
         13    1    3    3    0    0 -0.90115187975E+02 -0.38717731508E+02 -0.78966428137E+02  0.12591865076E+03  0.00000000000E+00 0. -1.
        -13    1    4    4    0    0  0.34686312851E+02 -0.39352564125E+02 -0.12143080949E+03  0.13227700516E+03  0.00000000000E+00 0.  1.
         13    1    4    4    0    0  0.33882629691E+02  0.51288059422E+02 -0.17053862199E+03  0.18127856802E+03  0.00000000000E+00 0. -1.
         21    1    1    2  502  501  0.20829228739E+02 -0.31684346792E+01 -0.83511308247E+02  0.86128011432E+02  0.00000000000E+00 0.  1.
<scales pt_clust_5="13000.00000" pt_clust_6="13000.00000" pt_clust_7="13000.00000" pt_clust_8="13000.00000" pt_clust_9="21.06883"></scales>
<clustering>
<clus scale="   21.069">  2  9  1 -1</clus>
<clus scale="   90.702">  7  8 -1 -1</clus>
<clus scale="   91.436">  5  6 -1 -1</clus>
<clus scale="  123.264">  2  7  1 -1</clus>
<clus scale="   21.069">  2  5  1 -1</clus>
</clustering>
</event>
<event>
 9    1  0.9000149E-006  0.9491085E+02  0.7546771E-02  0.1291492E+00
         -1   -1    0    0    0  501 -0.00000000000E+00  0.00000000000E+00  0.27764847492E+02  0.27764847492E+02  0.00000000000E+00 0.  1.
          1   -1    0    0  502    0  0.00000000000E+00 -0.00000000000E+00 -0.45005956710E+03  0.45005956710E+03  0.00000000000E+00 0. -1.
         23    2    1    2    0    0  0.10315337213E+02  0.11450311931E+02 -0.16154231445E+03  0.18606281194E+03  0.91027110274E+02 0.  0.
         23    2    1    2    0    0 -0.40720086368E+02 -0.11408779215E+02 -0.19120409543E+03  0.21585759826E+03  0.90814156061E+02 0.  0.
        -13    1    3    3    0    0  0.56840745882E+01 -0.28339809218E+02 -0.13488014456E+03  0.13794240424E+03  0.00000000000E+00 0. -1.
         13    1    3    3    0    0  0.46312626246E+01  0.39790121149E+02 -0.26662169896E+02  0.48120407709E+02  0.00000000000E+00 0.  1.
        -13    1    4    4    0    0 -0.59689605569E+02  0.20417927176E+02 -0.12342088919E+03  0.13860900639E+03  0.00000000000E+00 0.  1.
         13    1    4    4    0    0  0.18969519201E+02 -0.31826706392E+02 -0.67783206233E+02  0.77248591868E+02  0.00000000000E+00 0. -1.
         21    1    1    2  502  501  0.30404749155E+02 -0.41532715609E-01 -0.69548309732E+02  0.75904004392E+02  0.00000000000E+00 0.  1.
<scales pt_clust_5="13000.00000" pt_clust_6="13000.00000" pt_clust_7="13000.00000" pt_clust_8="13000.00000" pt_clust_9="30.40478"></scales>
<clustering>
<clus scale="   30.405">  2  9  1 -1</clus>
<clus scale="   90.814">  7  8 -1 -1</clus>
<clus scale="   91.027">  5  6 -1 -1</clus>
<clus scale="   94.707">  2  7  1 -1</clus>
<clus scale="   30.405">  2  5  1 -1</clus>
</clustering>
</event>
<event>
 9    1  0.9000149E-006  0.1341886E+03  0.7546771E-02  0.1221493E+00
         -1   -1    0    0    0  501 -0.00000000000E+00  0.00000000000E+00  0.38005834429E+03  0.38005834429E+03  0.00000000000E+00 0.  1.
          1   -1    0    0  502    0  0.00000000000E+00 -0.00000000000E+00 -0.64573349386E+02  0.64573349386E+02  0.00000000000E+00 0. -1.
         23    2    1    2    0    0 -0.25068065274E+02  0.77994841498E+02  0.13258013020E+03  0.18031720661E+03  0.90692893202E+02 0.  0.
         23    2    1    2    0    0  0.41444319604E+02 -0.11048281313E+03  0.16892583985E+03  0.22533932649E+03  0.91201913734E+02 0.  0.
        -11    1    4    4    0    0 -0.10098734983E+02 -0.91431544717E+02  0.12379904483E+03  0.15423331456E+03  0.00000000000E+00 0.  1.
         11    1    4    4    0    0  0.51543054586E+02 -0.19051268411E+02  0.45126795012E+02  0.71106011928E+02  0.00000000000E+00 0. -1.
        -11    1    3    3    0    0 -0.41618188959E+02  0.13643570863E+02  0.16964632605E+02  0.46968281186E+02  0.00000000000E+00 0. -1.
         11    1    3    3    0    0  0.16550123685E+02  0.64351270635E+02  0.11561549760E+03  0.13334892542E+03  0.00000000000E+00 0.  1.
         21    1    1    2  502  501 -0.16376254330E+02  0.32487971630E+02  0.13979024854E+02  0.38975160582E+02  0.00000000000E+00 0.  1.
<scales pt_clust_5="13000.00000" pt_clust_6="13000.00000" pt_clust_7="13000.00000" pt_clust_8="13000.00000" pt_clust_9="36.38200"></scales>
<clustering>
<clus scale="   36.382">  2  9  1 -1</clus>
<clus scale="   90.693">  7  8 -1 -1</clus>
<clus scale="   91.202">  5  6 -1 -1</clus>
<clus scale="  133.843">  1  7  2 -1</clus>
<clus scale="   36.382">  2  5  1 -1</clus>
</clustering>
</event>
<event>
 9    1  0.9000149E-006  0.9710225E+02  0.7546771E-02  0.1287120E+00
          1   -1    0    0  502    0  0.00000000000E+00  0.00000000000E+00  0.75741274333E+02  0.75741274333E+02  0.00000000000E+00 0. -1.
         -1   -1    0    0    0  501 -0.00000000000E+00 -0.00000000000E+00 -0.34463877448E+03  0.34463877448E+03  0.00000000000E+00 0.  1.
         23    2    1    2    0    0 -0.22996705821E+02 -0.28283645411E+02 -0.25796581067E+03  0.27600354825E+03  0.91119625197E+02 0.  0.
         23    2    1    2    0    0  0.11267568092E+02  0.28027289936E+01 -0.42399201915E+02  0.10222138092E+03  0.92285995761E+02 0.  0.
        -11    1    4    4    0    0 -0.39485571977E+02  0.70643135085E+01 -0.83953826558E+01  0.40981671142E+02  0.00000000000E+00 0.  1.
         11    1    4    4    0    0  0.50753140069E+02 -0.42615845148E+01 -0.34003819260E+02  0.61239709778E+02  0.00000000000E+00 0. -1.
        -11    1    3    3    0    0 -0.52933058657E+02 -0.39613526105E+02 -0.17135579846E+03  0.18366804244E+03  0.00000000000E+00 0.  1.
         11    1    3    3    0    0  0.29936352836E+02  0.11329880694E+02 -0.86610012206E+02  0.92335505804E+02  0.00000000000E+00 0. -1.
         21    1    1    2  502  501  0.11729137729E+02  0.25480916418E+02  0.31467512435E+02  0.42155119644E+02  0.00000000000E+00 0. -1.
<scales pt_clust_5="13000.00000" pt_clust_6="13000.00000" pt_clust_7="13000.00000" pt_clust_8="13000.00000" pt_clust_9="28.05084"></scales>
<clustering>
<clus scale="   28.051">  1  9  2 -1</clus>
<clus scale="   91.120">  7  8 -1 -1</clus>
<clus scale="   92.286">  5  6 -1 -1</clus>
<clus scale="   95.994">  2  7  1 -1</clus>
<clus scale="   28.051">  1  5  2 -1</clus>
</clustering>
</event>
<event>
 9    1  0.9000149E-006  0.1276468E+03  0.7546771E-02  0.1231803E+00
          1   -1    0    0  502    0  0.00000000000E+00  0.00000000000E+00  0.28869360489E+03  0.28869360489E+03  0.00000000000E+00 0. -1.
         -1   -1    0    0    0  501 -0.00000000000E+00 -0.00000000000E+00 -0.76499965326E+02  0.76499965326E+02  0.00000000000E+00 0.  1.
         23    2    1    2    0    0  0.72244269600E+02  0.65189816925E+02  0.57694515243E+02  0.14750460311E+03  0.94657298340E+02 0.  0.
         23    2    1    2    0    0 -0.41745303676E+02 -0.59547325463E+02  0.95770308879E+02  0.15127286668E+03  0.91776760579E+02 0.  0.
        -11    1    3    3    0    0  0.64404945819E+02 -0.88698090406E+00  0.89707017997E+01  0.65032739999E+02  0.00000000000E+00 0. -1.
         11    1    3    3    0    0  0.78393237815E+01  0.66076797829E+02  0.48723813443E+02  0.82471863112E+02  0.00000000000E+00 0.  1.
        -11    1    4    4    0    0  0.28141512829E+02 -0.15787238584E+02  0.14091176763E+02  0.35209983087E+02  0.00000000000E+00 0.  1.
         11    1    4    4    0    0 -0.69886816505E+02 -0.43760086879E+02  0.81679132116E+02  0.11606288359E+03  0.00000000000E+00 0. -1.
         21    1    1    2  502  501 -0.30498965924E+02 -0.56424914619E+01  0.58728815441E+02  0.66416100423E+02  0.00000000000E+00 0. -1.
<scales pt_clust_5="13000.00000" pt_clust_6="13000.00000" pt_clust_7="13000.00000" pt_clust_8="13000.00000" pt_clust_9="31.01652"></scales>
<clustering>
<clus scale="   31.017">  1  9  2 -1</clus>
<clus scale="   91.777">  7  8 -1 -1</clus>
<clus scale="   94.657">  5  6 -1 -1</clus>
<clus scale="  125.526">  1  7  2 -1</clus>
<clus scale="   31.017">  1  5  2 -1</clus>
</clustering>
</event>
<event>
 9    1  0.9000149E-006  0.2180887E+03  0.7546771E-02  0.1137163E+00
         -1   -1    0    0    0  501 -0.00000000000E+00  0.00000000000E+00  0.10461663809E+03  0.10461663809E+03  0.00000000000E+00 0.  1.
          1   -1    0    0  502    0  0.00000000000E+00 -0.00000000000E+00 -0.16589125573E+04  0.16589125573E+04  0.00000000000E+00 0. -1.
         23    2    1    2    0    0  0.23038301734E+03 -0.55453321456E+01 -0.10535164654E+03  0.27650339678E+03  0.11067101524E+03 0.  0.
         23    2    1    2    0    0 -0.99126532608E+02 -0.61690525931E+02 -0.37525496745E+03  0.40325568944E+03  0.90371843046E+02 0.  0.
        -11    1    4    4    0    0 -0.46160395520E+02 -0.50822416647E+02 -0.91492788116E+02  0.11438806942E+03  0.00000000000E+00 0. -1.
         11    1    4    4    0    0 -0.52966137089E+02 -0.10868109284E+02 -0.28376217933E+03  0.28886762002E+03  0.00000000000E+00 0.  1.
        -13    1    3    3    0    0  0.60840942659E+02 -0.42337784408E+02 -0.64531936207E+02  0.98277561441E+02  0.00000000000E+00 0. -1.
         13    1    3    3    0    0  0.16954207468E+03  0.36792452262E+02 -0.40819710337E+02  0.17822583534E+03  0.00000000000E+00 0.  1.
         21    1    1    2  502  501 -0.13125648473E+03  0.67235858076E+02 -0.10736893052E+04  0.10837701091E+04  0.00000000000E+00 0. -1.
<scales pt_clust_5="13000.00000" pt_clust_6="13000.00000" pt_clust_7="13000.00000" pt_clust_8="13000.00000" pt_clust_9="147.47517"></scales>
<clustering>
<clus scale="   90.372">  5  6 -1 -1</clus>
<clus scale="  110.671">  7  8 -1 -1</clus>
<clus scale="  147.475">  2  9  1 -1</clus>
<clus scale="  208.523">  2  5  1 -1</clus>
<clus scale="  147.475">  2  5  1 -1</clus>
</clustering>
</event>
<event>
 9    1  0.9000149E-006  0.1025305E+03  0.7546771E-02  0.1276049E+00
         -4   -1    0    0    0  501 -0.00000000000E+00  0.00000000000E+00  0.24630406938E+03  0.24630406938E+03  0.00000000000E+00 0.  1.
          4   -1    0    0  502    0  0.00000000000E+00 -0.00000000000E+00 -0.66548703144E+02  0.66548703144E+02  0.00000000000E+00 0. -1.
         23    2    1    2    0    0 -0.51619867720E+02  0.35792876094E+02  0.11336732696E+03  0.15693029879E+03  0.88482920009E+02 0.  0.
         23    2    1    2    0    0  0.20360515033E+02 -0.25525391862E+02  0.74773139558E+02  0.12196841258E+03  0.90659666147E+02 0.  0.
        -11    1    3    3    0    0 -0.29502042464E+02  0.17412756441E+01 -0.65968725239E+01  0.30280708008E+02  0.00000000000E+00 0.  1.
         11    1    3    3    0    0 -0.22117825256E+02  0.34051600450E+02  0.11996419948E+03  0.12664959078E+03  0.00000000000E+00 0. -1.
        -11    1    4    4    0    0 -0.21791781419E+02  0.56244311583E+01  0.64823620509E+02  0.68619368542E+02  0.00000000000E+00 0.  1.
         11    1    4    4    0    0  0.42152296453E+02 -0.31149823020E+02  0.99495190492E+01  0.53349044038E+02  0.00000000000E+00 0. -1.
         21    1    1    2  502  501  0.31259352686E+02 -0.10267484232E+02 -0.83851002736E+01  0.33954061163E+02  0.00000000000E+00 0. -1.
<scales pt_clust_5="13000.00000" pt_clust_6="13000.00000" pt_clust_7="13000.00000" pt_clust_8="13000.00000" pt_clust_9="32.90241"></scales>
<clustering>
<clus scale="   32.902">  2  9  1 -1</clus>
<clus scale="   88.483">  5  6 -1 -1</clus>
<clus scale="   90.660">  7  8 -1 -1</clus>
<clus scale="  100.611">  1  5  2 -1</clus>
<clus scale="   32.902">  2  5  1 -1</clus>
</clustering>
</event>
<event>
 9    1  0.9000149E-006  0.1172403E+03  0.7546771E-02  0.1248415E+00
         -2   -1    0    0    0  501 -0.00000000000E+00  0.00000000000E+00  0.12169734651E+03  0.12169734651E+03  0.00000000000E+00 0.  1.
          2   -1    0    0  502    0  0.00000000000E+00 -0.00000000000E+00 -0.32195473658E+03  0.32195473658E+03  0.00000000000E+00 0. -1.
         23    2    1    2    0    0  0.84944634693E+02 -0.26844906776E+02  0.33782967494E+02  0.13268679306E+03  0.92348558062E+02 0.  0.
         23    2    1    2    0    0 -0.49171813202E+02 -0.19716425265E+01 -0.38007090438E+02  0.10962197603E+03  0.90281139328E+02 0.  0.
        -11    1    3    3    0    0  0.14722628076E+02 -0.41751564766E+02  0.41252937811E+02  0.60512426954E+02  0.00000000000E+00 0.  1.
         11    1    3    3    0    0  0.70222006618E+02  0.14906657990E+02 -0.74699703166E+01  0.72174366103E+02  0.00000000000E+00 0. -1.
        -13    1    4    4    0    0 -0.64870769277E+02 -0.15772585516E+02 -0.51867618053E+02  0.84541356524E+02  0.00000000000E+00 0.  1.
         13    1    4    4    0    0  0.15698956075E+02  0.13800942990E+02  0.13860527615E+02  0.25080619510E+02  0.00000000000E+00 0. -1.
         21    1    1    2  502  501 -0.35772821492E+02  0.28816549302E+02 -0.19603326712E+03  0.20134331399E+03  0.00000000000E+00 0. -1.
<scales pt_clust_5="13000.00000" pt_clust_6="13000.00000" pt_clust_7="13000.00000" pt_clust_8="13000.00000" pt_clust_9="45.93570"></scales>
<clustering>
<clus scale="   45.936">  2  9  1 -1</clus>
<clus scale="   90.281">  7  8 -1 -1</clus>
<clus scale="   92.349">  5  6 -1 -1</clus>
<clus scale="  115.619">  2  7  1 -1</clus>
<clus scale="   45.936">  2  5  1 -1</clus>
</clustering>
</event>
<event>
 9    1  0.9000149E-006  0.1639814E+03  0.7546771E-02  0.1185089E+00
         -2   -1    0    0    0  501 -0.00000000000E+00  0.00000000000E+00  0.42198730852E+02  0.42198730852E+02  0.00000000000E+00 0.  1.
          2   -1    0    0  502    0  0.00000000000E+00 -0.00000000000E+00 -0.90904861860E+03  0.90904861860E+03  0.00000000000E+00 0. -1.
         23    2    1    2    0    0  0.13556411543E+03 -0.98651816411E+00 -0.20096006799E+03  0.25860627639E+03  0.90075827228E+02 0.  0.
         23    2    1    2    0    0 -0.14014151148E+03 -0.20737987951E+02 -0.53441935622E+03  0.55930919577E+03  0.84575533021E+02 0.  0.
        -11    1    4    4    0    0 -0.13088053561E+03 -0.44685787060E+02 -0.42580769662E+03  0.44770384035E+03  0.00000000000E+00 0. -1.
         11    1    4    4    0    0 -0.92609758665E+01  0.23947799109E+02 -0.10861165961E+03  0.11160535542E+03  0.00000000000E+00 0.  1.
        -13    1    3    3    0    0  0.22003848264E+02  0.36843979489E+02 -0.58086981935E+02  0.72220119312E+02  0.00000000000E+00 0. -1.
         13    1    3    3    0    0  0.11356026716E+03 -0.37830497653E+02 -0.14287308606E+03  0.18638615708E+03  0.00000000000E+00 0.  1.
         21    1    1    2  502  501  0.45773960553E+01  0.21724506115E+02 -0.13147046353E+03  0.13333187729E+03  0.00000000000E+00 0.  1.
<scales pt_clust_5="13000.00000" pt_clust_6="13000.00000" pt_clust_7="13000.00000" pt_clust_8="13000.00000" pt_clust_9="22.20150"></scales>
<clustering>
<clus scale="   22.202">  2  9  1 -1</clus>
<clus scale="   84.576">  5  6 -1 -1</clus>
<clus scale="   90.076">  7  8 -1 -1</clus>
<clus scale="  161.026">  2  5  1 -1</clus>
<clus scale="   22.202">  2  5  1 -1</clus>
</clustering>
</event>
<event>
 9    1  0.9000149E-006  0.1131390E+03  0.7546771E-02  0.1254908E+00
          1   -1    0    0  502    0  0.00000000000E+00  0.00000000000E+00  0.15376331992E+03  0.15376331992E+03  0.00000000000E+00 0. -1.
         -1   -1    0    0    0  501 -0.00000000000E+00 -0.00000000000E+00 -0.23199073786E+03  0.23199073786E+03  0.00000000000E+00 0.  1.
         23    2    1    2    0    0  0.43555772274E+02  0.38758868841E+02 -0.86204009234E+02  0.13838022995E+03  0.91206368319E+02 0.  0.
         23    2    1    2    0    0 -0.93755584665E+02  0.48470720616E+01 -0.67159346700E+02  0.14703984343E+03  0.91086409221E+02 0.  0.
        -13    1    4    4    0    0 -0.73725271156E+02  0.44650071810E+02 -0.46296973282E+02  0.97838919939E+02  0.00000000000E+00 0.  1.
         13    1    4    4    0    0 -0.20030313509E+02 -0.39802999748E+02 -0.20862373418E+02  0.49200923496E+02  0.00000000000E+00 0. -1.
        -13    1    3    3    0    0  0.46267265917E+02  0.59658859932E+02 -0.89455124998E+02  0.11705579376E+03  0.00000000000E+00 0.  1.
         13    1    3    3    0    0 -0.27114936429E+01 -0.20899991091E+02  0.32511157646E+01  0.21324436196E+02  0.00000000000E+00 0. -1.
         21    1    1    2  502  501  0.50199812391E+02 -0.43605940903E+02  0.75135937996E+02  0.10033398440E+03  0.00000000000E+00 0. -1.
<scales pt_clust_5="13000.00000" pt_clust_6="13000.00000" pt_clust_7="13000.00000" pt_clust_8="13000.00000" pt_clust_9="66.49435"></scales>
<clustering>
<clus scale="   66.494">  1  9  2 -1</clus>
<clus scale="   91.086">  5  6 -1 -1</clus>
<clus scale="   91.206">  7  8 -1 -1</clus>
<clus scale="  113.042">  1  5  2 -1</clus>
<clus scale="   66.494">  1  5  2 -1</clus>
</clustering>
</event>
<event>
 9    1  0.9000149E-006  0.1024291E+03  0.7546771E-02  0.1275480E+00
          1   -1    0    0  502    0  0.00000000000E+00  0.00000000000E+00  0.41743738270E+03  0.41743738270E+03  0.00000000000E+00 0. -1.
         -1   -1    0    0    0  501 -0.00000000000E+00 -0.00000000000E+00 -0.54743628820E+02  0.54743628820E+02  0.00000000000E+00 0.  1.
         23    2    1    2    0    0  0.46495644749E+02 -0.19905791484E+00  0.18049263890E+02  0.10413196110E+03  0.91410091301E+02 0.  0.
         23    2    1    2    0    0 -0.44050960932E+02 -0.20996722113E+02  0.31533340233E+03  0.33179470682E+03  0.90946266271E+02 0.  0.
        -11    1    3    3    0    0  0.41935067939E+02  0.32770235639E+02 -0.16929631504E+02  0.55848461839E+02  0.00000000000E+00 0.  1.
         11    1    3    3    0    0  0.45605768108E+01 -0.32969293554E+02  0.34978895394E+02  0.48283499265E+02  0.00000000000E+00 0. -1.
        -11    1    4    4    0    0  0.10307562122E+02  0.27065720929E+02  0.65057404908E+02  0.71212814996E+02  0.00000000000E+00 0.  1.
         11    1    4    4    0    0 -0.54358523053E+02 -0.48062443042E+02  0.25027599743E+03  0.26058189183E+03  0.00000000000E+00 0. -1.
         21    1    1    2  502  501 -0.24446838178E+01  0.21195780028E+02  0.29311087655E+02  0.36254343594E+02  0.00000000000E+00 0.  1.
<scales pt_clust_5="13000.00000" pt_clust_6="13000.00000" pt_clust_7="13000.00000" pt_clust_8="13000.00000" pt_clust_9="21.33630"></scales>
<clustering>
<clus scale="   21.336">  1  9  2 -1</clus>
<clus scale="   90.946">  7  8 -1 -1</clus>
<clus scale="   91.410">  5  6 -1 -1</clus>
<clus scale="  102.015">  1  7  2 -1</clus>
<clus scale="   21.336">  1  5  2 -1</clus>
</clustering>
</event>
<event>
 9    1  0.9000149E-006  0.1074325E+03  0.7546771E-02  0.1265712E+00
         -1   -1    0    0    0  501 -0.00000000000E+00  0.00000000000E+00  0.34385950891E+02  0.34385950891E+02  0.00000000000E+00 0.  1.
          1   -1    0    0  502    0  0.00000000000E+00 -0.00000000000E+00 -0.67107388977E+03  0.67107388977E+03  0.00000000000E+00 0. -1.
         23    2    1    2    0    0  0.29405977178E+02  0.34741270367E+02 -0.12703163384E+03  0.16264400272E+03  0.90798503650E+02 0.  0.
         23    2    1    2    0    0 -0.86675824179E+02 -0.25933267381E+02 -0.34126293058E+03  0.36473230458E+03  0.91564367317E+02 0.  0.
        -11    1    4    4    0    0 -0.13674707891E+02 -0.33944789007E+02 -0.38209959803E+02  0.52907914009E+02  0.00000000000E+00 0. -1.
         11    1    4    4    0    0 -0.73001116288E+02  0.80115216267E+01 -0.30305297078E+03  0.31182439057E+03  0.00000000000E+00 0.  1.
        -13    1    3    3    0    0  0.60198653772E+02  0.24796018978E+02 -0.61506572203E+02  0.89564384089E+02  0.00000000000E+00 0.  1.
         13    1    3    3    0    0 -0.30792676594E+02  0.99452513882E+01 -0.65525061639E+02  0.73079618635E+02  0.00000000000E+00 0. -1.
         21    1    1    2  502  501  0.57269847001E+02 -0.88080029860E+01 -0.16839337445E+03  0.17808353335E+03  0.00000000000E+00 0.  1.
<scales pt_clust_5="13000.00000" pt_clust_6="13000.00000" pt_clust_7="13000.00000" pt_clust_8="13000.00000" pt_clust_9="57.94322"></scales>
<clustering>
<clus scale="   57.943">  2  9  1 -1</clus>
<clus scale="   90.799">  7  8 -1 -1</clus>
<clus scale="   91.564">  5  6 -1 -1</clus>
<clus scale="  106.781">  1  7  2 -1</clus>
<clus scale="   57.943">  2  5  1 -1</clus>
</clustering>
</event>
<event>
 9    1  0.9000149E-006  0.9492892E+02  0.7546771E-02  0.1291669E+00
          4   -1    0    0  502    0  0.00000000000E+00  0.00000000000E+00  0.13450024853E+03  0.13450024853E+03  0.00000000000E+00 0. -1.
         -4   -1    0    0    0  501 -0.00000000000E+00 -0.00000000000E+00 -0.11021155100E+03  0.11021155100E+03  0.00000000000E+00 0.  1.
         23    2    1    2    0    0 -0.13955969519E+01  0.36930367721E+02 -0.27945672921E+02  0.10299425103E+03  0.91983995126E+02 0.  0.
         23    2    1    2    0    0 -0.83679928560E+01  0.17073807832E+01  0.39090595559E+02  0.99753729390E+02  0.91377204009E+02 0.  0.
        -13    1    3    3    0    0  0.27659579905E+02  0.55337562588E+02 -0.29553102154E+02  0.68561534701E+02  0.00000000000E+00 0. -1.
         13    1    3    3    0    0 -0.29055176857E+02 -0.18407194867E+02  0.16074292326E+01  0.34432716329E+02  0.00000000000E+00 0.  1.
        -13    1    4    4    0    0 -0.44125542991E+02  0.10588519368E+02 -0.88786903623E+00  0.45386876937E+02  0.00000000000E+00 0. -1.
         13    1    4    4    0    0  0.35757550135E+02 -0.88811385844E+01  0.39978464595E+02  0.54366852453E+02  0.00000000000E+00 0.  1.
         21    1    1    2  502  501  0.97635898079E+01 -0.38637748504E+02  0.13143774896E+02  0.41963819106E+02  0.00000000000E+00 0.  1.
<scales pt_clust_5="13000.00000" pt_clust_6="13000.00000" pt_clust_7="13000.00000" pt_clust_8="13000.00000" pt_clust_9="39.85227"></scales>
<clustering>
<clus scale="   39.852">  1  9  2 -1</clus>
<clus scale="   91.377">  7  8 -1 -1</clus>
<clus scale="   91.984">  5  6 -1 -1</clus>
<clus scale="   94.341">  1  7  2 -1</clus>
<clus scale="   39.852">  1  5  2 -1</clus>
</clustering>
</event>
<event>
 9    1  0.9000149E-006  0.9262289E+02  0.7546771E-02  0.1299251E+00
         -1   -1    0    0    0  501 -0.00000000000E+00  0.00000000000E+00  0.68639254825E+02  0.68639254825E+02  0.00000000000E+00 0.  1.
          1   -1    0    0  502    0  0.00000000000E+00 -0.00000000000E+00 -0.18082015620E+03  0.18082015620E+03  0.00000000000E+00 0. -1.
         23    2    1    2    0    0 -0.45315908385E+01 -0.82224060273E+00 -0.24600643392E+02  0.95553787656E+02  0.92217803515E+02 0.  0.
         23    2    1    2    0    0 -0.73236857392E+01 -0.18917849933E+02 -0.35303691443E+02  0.96782439227E+02  0.87800731742E+02 0.  0.
        -11    1    3    3    0    0  0.28103818581E+02  0.31216663453E+02  0.30447391471E+01  0.42113835404E+02  0.00000000000E+00 0.  1.
         11    1    3    3    0    0 -0.32635409419E+02 -0.32038904056E+02 -0.27645382539E+02  0.53439952253E+02  0.00000000000E+00 0. -1.
        -11    1    4    4    0    0 -0.45490603234E+02 -0.60384240170E+01 -0.32832194561E+02  0.56425265146E+02  0.00000000000E+00 0. -1.
         11    1    4    4    0    0  0.38166917494E+02 -0.12879425916E+02 -0.24714968825E+01  0.40357174081E+02  0.00000000000E+00 0.  1.
         21    1    1    2  502  501  0.11855276578E+02  0.19740090536E+02 -0.52276566538E+02  0.57123184138E+02  0.00000000000E+00 0. -1.
<scales pt_clust_5="13000.00000" pt_clust_6="13000.00000" pt_clust_7="13000.00000" pt_clust_8="13000.00000" pt_clust_9="23.02648"></scales>
<clustering>
<clus scale="   23.026">  2  9  1 -1</clus>
<clus scale="   87.801">  7  8 -1 -1</clus>
<clus scale="   88.226">  2  7  1 -1</clus>
<clus scale="   92.218">  5  6 -1 -1</clus>
<clus scale="   23.026">  2  5  1 -1</clus>
</clustering>
</event>
<event>
 9    1  0.9000149E-006  0.1730513E+03  0.7546771E-02  0.1174727E+00
          1   -1    0    0  502    0  0.00000000000E+00  0.00000000000E+00  0.29816685516E+03  0.29816685516E+03  0.00000000000E+00 0. -1.
         -1   -1    0    0    0  501 -0.00000000000E+00 -0.00000000000E+00 -0.21829490265E+03  0.21829490265E+03  0.00000000000E+00 0.  1.
         23    2    1    2    0    0 -0.21933367575E+02 -0.15523460279E+03 -0.70349270740E+02  0.19298525361E+03  0.87837541520E+02 0.  0.
         23    2    1    2    0    0  0.35746827433E+02  0.13483642668E+03 -0.62638799024E+01  0.16506411589E+03  0.88024022469E+02 0.  0.
        -11    1    3    3    0    0 -0.29679271441E+02 -0.54778129962E+02 -0.67969072244E+02  0.92202480753E+02  0.00000000000E+00 0.  1.
         11    1    3    3    0    0  0.77459038664E+01 -0.10045647282E+03 -0.23801984965E+01  0.10078277285E+03  0.00000000000E+00 0. -1.
        -11    1    4    4    0    0 -0.17927396145E+02  0.83133449511E+02 -0.24179489335E+02  0.88414985521E+02  0.00000000000E+00 0.  1.
         11    1    4    4    0    0  0.53674223579E+02  0.51702977169E+02  0.17915609433E+02  0.76649130368E+02  0.00000000000E+00 0. -1.
         21    1    1    2  502  501 -0.13813459859E+02  0.20398176106E+02  0.15648510316E+03  0.15841238832E+03  0.00000000000E+00 0. -1.
<scales pt_clust_5="13000.00000" pt_clust_6="13000.00000" pt_clust_7="13000.00000" pt_clust_8="13000.00000" pt_clust_9="24.63528"></scales>
<clustering>
<clus scale="   24.635">  1  9  2 -1</clus>
<clus scale="   87.838">  5  6 -1 -1</clus>
<clus scale="   88.024">  7  8 -1 -1</clus>
<clus scale="  172.957">  2  5  1 -1</clus>
<clus scale="   24.635">  1  5  2 -1</clus>
</clustering>
</event>
<event>
 9    1  0.9000149E-006  0.1789224E+03  0.7546771E-02  0.1169287E+00
         -1   -1    0    0    0  501 -0.00000000000E+00  0.00000000000E+00  0.54447289164E+03  0.54447289164E+03  0.00000000000E+00 0.  1.
          1   -1    0    0  502    0  0.00000000000E+00 -0.00000000000E+00 -0.88769811513E+02  0.88769811513E+02  0.00000000000E+00 0. -1.
         23    2    1    2    0    0 -0.13134684443E+03 -0.58824571048E+02  0.21972865169E+03  0.27792566826E+03  0.90827710529E+02 0.  0.
         23    2    1    2    0    0  0.12207518636E+03  0.12484919256E+03  0.20035466957E+03  0.27972615244E+03  0.87264280949E+02 0.  0.
        -11    1    3    3    0    0 -0.20823202126E+02 -0.55660893801E+02  0.83061893908E+02  0.10213236052E+03  0.00000000000E+00 0. -1.
         11    1    3    3    0    0 -0.11052364230E+03 -0.31636772476E+01  0.13666675779E+03  0.17579330774E+03  0.00000000000E+00 0.  1.
        -13    1    4    4    0    0  0.76522511688E+02  0.80885315165E+02  0.18277892309E+03  0.21402397933E+03  0.00000000000E+00 0.  1.
         13    1    4    4    0    0  0.45552674677E+02  0.43963877399E+02  0.17575746479E+02  0.65702173104E+02  0.00000000000E+00 0. -1.
         21    1    1    2  502  501  0.92716580653E+01 -0.66024621516E+02  0.35619758868E+02  0.75590882462E+02  0.00000000000E+00 0.  1.
<scales pt_clust_5="13000.00000" pt_clust_6="13000.00000" pt_clust_7="13000.00000" pt_clust_8="13000.00000" pt_clust_9="66.67244"></scales>
<clustering>
<clus scale="   66.672">  2  9  1 -1</clus>
<clus scale="   87.264">  7  8 -1 -1</clus>
<clus scale="   90.828">  5  6 -1 -1</clus>
<clus scale="  177.140">  2  7  1 -1</clus>
<clus scale="   66.672">  2  5  1 -1</clus>
</clustering>
</event>
<event>
 9    1  0.9000149E-006  0.1071713E+03  0.7546771E-02  0.1266118E+00
         -1   -1    0    0    0  501 -0.00000000000E+00  0.00000000000E+00  0.60519778457E+02  0.60519778457E+02  0.00000000000E+00 0.  1.
          1   -1    0    0  502    0  0.00000000000E+00 -0.00000000000E+00 -0.26507871212E+03  0.26507871212E+03  0.00000000000E+00 0. -1.
         23    2    1    2    0    0  0.75814906807E+01 -0.45984039719E+02 -0.45576303656E+02  0.11224212296E+03  0.91373321060E+02 0.  0.
         23    2    1    2    0    0 -0.34350747926E+01  0.70790837022E+02 -0.11980706871E+03  0.16680215663E+03  0.91902575592E+02 0.  0.
        -11    1    3    3    0    0 -0.34359461411E+02 -0.49736157398E+02 -0.25967582653E+02  0.65791893801E+02  0.00000000000E+00 0.  1.
         11    1    3    3    0    0  0.41940952091E+02  0.37521176791E+01 -0.19608721003E+02  0.46450229157E+02  0.00000000000E+00 0. -1.
        -13    1    4    4    0    0 -0.23919217001E+02 -0.13702544863E+02 -0.17993692981E+02  0.32919016765E+02  0.00000000000E+00 0.  1.
         13    1    4    4    0    0  0.20484142208E+02  0.84493381886E+02 -0.10181337572E+03  0.13388313987E+03  0.00000000000E+00 0. -1.
         21    1    1    2  502  501 -0.41464158880E+01 -0.24806797304E+02 -0.39175561301E+02  0.46554210985E+02  0.00000000000E+00 0.  1.
<scales pt_clust_5="13000.00000" pt_clust_6="13000.00000" pt_clust_7="13000.00000" pt_clust_8="13000.00000" pt_clust_9="25.15094"></scales>
<clustering>
<clus scale="   25.151">  2  9  1 -1</clus>
<clus scale="   91.373">  5  6 -1 -1</clus>
<clus scale="   91.903">  7  8 -1 -1</clus>
<clus scale="  106.718">  1  5  2 -1</clus>
<clus scale="   25.151">  2  5  1 -1</clus>
</clustering>
</event>
<event>
 9    1  0.9000149E-006  0.1224466E+03  0.7546771E-02  0.1241058E+00
         -1   -1    0    0    0  501 -0.00000000000E+00  0.00000000000E+00  0.44550768892E+03  0.44550768892E+03  0.00000000000E+00 0.  1.
          1   -1    0    0  502    0  0.00000000000E+00 -0.00000000000E+00 -0.22419094808E+03  0.22419094808E+03  0.00000000000E+00 0. -1.
         23    2    1    2    0    0  0.12575657488E+03  0.76829884402E+01 -0.96945155942E+00  0.15802887366E+03  0.95385746497E+02 0.  0.
         23    2    1    2    0    0 -0.42725591652E+02  0.60838994588E+02 -0.11147339373E+03  0.16097777931E+03  0.89222578295E+02 0.  0.
        -13    1    3    3    0    0  0.10639514401E+01  0.20756754198E+02 -0.22706397310E+02  0.30782386463E+02  0.00000000000E+00 0.  1.
         13    1    3    3    0    0  0.12469262344E+03 -0.13073765758E+02  0.21736945751E+02  0.12724648719E+03  0.00000000000E+00 0. -1.
        -13    1    4    4    0    0 -0.13165011509E+01  0.50760676228E+02 -0.10660780099E+03  0.11808303289E+03  0.00000000000E+00 0. -1.
         13    1    4    4    0    0 -0.41409090501E+02  0.10078318360E+02 -0.48655927390E+01  0.42894746413E+02  0.00000000000E+00 0.  1.
         21    1    1    2  502  501 -0.83030983232E+02 -0.68521983028E+02  0.33375958612E+03  0.35069198403E+03  0.00000000000E+00 0.  1.
<scales pt_clust_5="13000.00000" pt_clust_6="13000.00000" pt_clust_7="13000.00000" pt_clust_8="13000.00000" pt_clust_9="107.65411"></scales>
<clustering>
<clus scale="   89.223">  7  8 -1 -1</clus>
<clus scale="   95.386">  5  6 -1 -1</clus>
<clus scale="  107.654">  1  9  2 -1</clus>
<clus scale="  117.709">  2  7  1 -1</clus>
<clus scale="  117.709">  2  5  1 -1</clus>
</clustering>
</event>
<event>
 9    1  0.9000149E-006  0.9927659E+02  0.7546771E-02  0.1282902E+00
          1   -1    0    0  502    0  0.00000000000E+00  0.00000000000E+00  0.24992931063E+03  0.24992931063E+03  0.00000000000E+00 0. -1.
         -1   -1    0    0    0  501 -0.00000000000E+00 -0.00000000000E+00 -0.63171639518E+02  0.63171639518E+02  0.00000000000E+00 0.  1.
         23    2    1    2    0    0  0.26872647164E+02 -0.59655096424E+01  0.49156786963E+02  0.10848929755E+03  0.92713599361E+02 0.  0.
         23    2    1    2    0    0 -0.14325754787E+02  0.37014459760E+02  0.57471218589E+02  0.11776566758E+03  0.94818321083E+02 0.  0.
        -11    1    3    3    0    0  0.17337624574E+01 -0.35995451812E+02  0.58052528436E+02  0.68328431427E+02  0.00000000000E+00 0. -1.
         11    1    3    3    0    0  0.25138884706E+02  0.30029942170E+02 -0.88957414734E+01  0.40160866118E+02  0.00000000000E+00 0.  1.
        -11    1    4    4    0    0  0.28025599656E+00  0.68223302035E+02  0.35608913555E+02  0.76957730012E+02  0.00000000000E+00 0.  1.
         11    1    4    4    0    0 -0.14606010783E+02 -0.31208842276E+02  0.21862305034E+02  0.40807937568E+02  0.00000000000E+00 0. -1.
         21    1    1    2  502  501 -0.12546892377E+02 -0.31048950117E+02  0.80129665563E+02  0.86845985025E+02  0.00000000000E+00 0. -1.
<scales pt_clust_5="13000.00000" pt_clust_6="13000.00000" pt_clust_7="13000.00000" pt_clust_8="13000.00000" pt_clust_9="33.48823"></scales>
<clustering>
<clus scale="   33.488">  1  9  2 -1</clus>
<clus scale="   92.714">  5  6 -1 -1</clus>
<clus scale="   94.818">  7  8 -1 -1</clus>
<clus scale="   97.268">  2  5  1 -1</clus>
<clus scale="   33.488">  1  5  2 -1</clus>
</clustering>
</event>
<event>
 9    1  0.9000149E-006  0.1217113E+03  0.7546771E-02  0.1245351E+00
          1   -1    0    0  502    0  0.00000000000E+00  0.00000000000E+00  0.86715816720E+03  0.86715816720E+03  0.00000000000E+00 0. -1.
         -1   -1    0    0    0  501 -0.00000000000E+00 -0.00000000000E+00 -0.26460089756E+02  0.26460089756E+02  0.00000000000E+00 0.  1.
         23    2    1    2    0    0  0.33450429742E+02 -0.46024780038E+02  0.28870778488E+03  0.30851103917E+03  0.92680443521E+02 0.  0.
         23    2    1    2    0    0 -0.27159175464E+02  0.93852059415E+02  0.49559399774E+03  0.51089420947E+03  0.76509168145E+02 0.  0.
        -11    1    3    3    0    0  0.55128716931E+02 -0.31116656143E+02  0.26700012175E+03  0.27440205308E+03  0.00000000000E+00 0.  1.
         11    1    3    3    0    0 -0.21678287189E+02 -0.14908123896E+02  0.21707663132E+02  0.34108986091E+02  0.00000000000E+00 0. -1.
        -13    1    4    4    0    0 -0.43627851355E+00  0.72949017151E+02  0.43813369458E+03  0.44416537885E+03  0.00000000000E+00 0. -1.
         13    1    4    4    0    0 -0.26722896950E+02  0.20903042264E+02  0.57460303158E+02  0.66728830623E+02  0.00000000000E+00 0.  1.
         21    1    1    2  502  501 -0.62912542783E+01 -0.47827279377E+02  0.56396294821E+02  0.74213008311E+02  0.00000000000E+00 0.  1.
<scales pt_clust_5="13000.00000" pt_clust_6="13000.00000" pt_clust_7="13000.00000" pt_clust_8="13000.00000" pt_clust_9="48.23928"></scales>
<clustering>
<clus scale="   48.239">  2  9  1 -1</clus>
<clus scale="   76.509">  7  8 -1 -1</clus>
<clus scale="   92.680">  5  6 -1 -1</clus>
<clus scale="  109.898">  1  7  2 -1</clus>
<clus scale="  109.898">  1  5  2 -1</clus>
</clustering>
</event>
<event>
 9    1  0.9000149E-006  0.3947596E+03  0.7546771E-02  0.1045774E+00
          1   -1    0    0  502    0  0.00000000000E+00  0.00000000000E+00  0.24221227091E+03  0.24221227091E+03  0.00000000000E+00 0. -1.
         -1   -1    0    0    0  501 -0.00000000000E+00 -0.00000000000E+00 -0.12156670793E+04  0.12156670793E+04  0.00000000000E+00 0.  1.
         23    2    1    2    0    0  0.34416278370E+03  0.16644817592E+03 -0.96168095884E+03  0.10394873621E+04  0.97727643943E+02 0.  0.
         23    2    1    2    0    0 -0.33466289016E+03 -0.18812790161E+03 -0.14515912036E+02  0.39456390820E+03  0.89881079977E+02 0.  0.
        -11    1    3    3    0    0  0.33160961025E+03  0.14502691402E+03 -0.93702365718E+03  0.10044954323E+04  0.00000000000E+00 0.  1.
         11    1    3    3    0    0  0.12553173451E+02  0.21421261898E+02 -0.24657301666E+02  0.34991929790E+02  0.00000000000E+00 0. -1.
        -13    1    4    4    0    0 -0.25525273909E+02 -0.20610187243E+02 -0.27363810986E+02  0.42721160776E+02  0.00000000000E+00 0.  1.
         13    1    4    4    0    0 -0.30913761625E+03 -0.16751771437E+03  0.12847898950E+02  0.35184274743E+03  0.00000000000E+00 0. -1.
         21    1    1    2  502  501 -0.94998935367E+01  0.21679725694E+02  0.27420625451E+01  0.23828079872E+02  0.00000000000E+00 0.  1.
<scales pt_clust_5="13000.00000" pt_clust_6="13000.00000" pt_clust_7="13000.00000" pt_clust_8="13000.00000" pt_clust_9="23.66978"></scales>
<clustering>
<clus scale="   23.670">  1  9  2 -1</clus>
<clus scale="   89.881">  7  8 -1 -1</clus>
<clus scale="   97.728">  5  6 -1 -1</clus>
<clus scale="  392.891">  1  7  2 -1</clus>
<clus scale="   23.670">  1  5  2 -1</clus>
</clustering>
</event>
<event>
 9    1  0.9000149E-006  0.9870404E+02  0.7546771E-02  0.1285060E+00
          2   -1    0    0  502    0  0.00000000000E+00  0.00000000000E+00  0.25805526183E+03  0.25805526183E+03  0.00000000000E+00 0. -1.
         -2   -1    0    0    0  501 -0.00000000000E+00 -0.00000000000E+00 -0.18161944498E+03  0.18161944498E+03  0.00000000000E+00 0.  1.
         23    2    1    2    0    0 -0.49923467966E+01 -0.16275581407E+02 -0.14624759303E+03  0.17617663801E+03  0.96747254426E+02 0.  0.
         23    2    1    2    0    0  0.91794581051E+01  0.50580372897E+02  0.17137173024E+03  0.20163338512E+03  0.92979113213E+02 0.  0.
        -13    1    3    3    0    0 -0.21816580358E+02 -0.47702130555E+02 -0.12273441229E+03  0.13347356442E+03  0.00000000000E+00 0.  1.
         13    1    3    3    0    0  0.16824233561E+02  0.31426549148E+02 -0.23513180738E+02  0.42703073597E+02  0.00000000000E+00 0. -1.
        -13    1    4    4    0    0 -0.17557963554E+02  0.66155741611E+02  0.14731311993E+03  0.16243774049E+03  0.00000000000E+00 0. -1.
         13    1    4    4    0    0  0.26737421659E+02 -0.15575368714E+02  0.24058610316E+02  0.39195644629E+02  0.00000000000E+00 0.  1.
         21    1    1    2  502  501 -0.41871113085E+01 -0.34304791490E+02  0.51311679632E+02  0.61864683680E+02  0.00000000000E+00 0.  1.
<scales pt_clust_5="13000.00000" pt_clust_6="13000.00000" pt_clust_7="13000.00000" pt_clust_8="13000.00000" pt_clust_9="34.55938"></scales>
<clustering>
<clus scale="   34.559">  1  9  2 -1</clus>
<clus scale="   92.979">  7  8 -1 -1</clus>
<clus scale="   95.014">  1  7  2 -1</clus>
<clus scale="   96.747">  5  6 -1 -1</clus>
<clus scale="   34.559">  1  5  2 -1</clus>
</clustering>
</event>
<event>
 9    1  0.9000149E-006  0.1800687E+03  0.7546771E-02  0.1167959E+00
          1   -1    0    0  502    0  0.00000000000E+00  0.00000000000E+00  0.19754021509E+03  0.19754021509E+03  0.00000000000E+00 0. -1.
         -1   -1    0    0    0  501 -0.00000000000E+00 -0.00000000000E+00 -0.26235332880E+03  0.26235332880E+03  0.00000000000E+00 0.  1.
         23    2    1    2    0    0  0.87884384800E+02  0.11332617479E+03 -0.87356088779E+02  0.19129480498E+03  0.91630394411E+02 0.  0.
         23    2    1    2    0    0 -0.98786920160E+02 -0.14185175572E+03 -0.40119934294E+02  0.19889067442E+03  0.89817120025E+02 0.  0.
        -11    1    4    4    0    0 -0.74952666401E+02 -0.96616813365E+02 -0.68758078469E+02  0.14028679261E+03  0.00000000000E+00 0.  1.
         11    1    4    4    0    0 -0.23834253759E+02 -0.45234942353E+02  0.28638144175E+02  0.58603881815E+02  0.00000000000E+00 0. -1.
        -13    1    3    3    0    0  0.62109543579E+02  0.12388862525E+03 -0.86622067286E+02  0.16343001380E+03  0.00000000000E+00 0. -1.
         13    1    3    3    0    0  0.25774841221E+02 -0.10562450460E+02 -0.73402149236E+00  0.27864791175E+02  0.00000000000E+00 0.  1.
         21    1    1    2  502  501  0.10902535360E+02  0.28525580925E+02  0.62662909363E+02  0.69708064485E+02  0.00000000000E+00 0. -1.
<scales pt_clust_5="13000.00000" pt_clust_6="13000.00000" pt_clust_7="13000.00000" pt_clust_8="13000.00000" pt_clust_9="30.53808"></scales>
<clustering>
<clus scale="   30.538">  1  9  2 -1</clus>
<clus scale="   89.817">  5  6 -1 -1</clus>
<clus scale="   91.630">  7  8 -1 -1</clus>
<clus scale="  179.153">  1  5  2 -1</clus>
<clus scale="   30.538">  1  5  2 -1</clus>
</clustering>
</event>
<event>
 9    1  0.9000149E-006  0.1274870E+03  0.7546771E-02  0.1231829E+00
         -1   -1    0    0    0  501 -0.00000000000E+00  0.00000000000E+00  0.29426869347E+03  0.29426869347E+03  0.00000000000E+00 0.  1.
          1   -1    0    0  502    0  0.00000000000E+00 -0.00000000000E+00 -0.12009972623E+03  0.12009972623E+03  0.00000000000E+00 0. -1.
         23    2    1    2    0    0  0.12318145454E+02  0.89508917935E+02  0.11953275252E+03  0.17539670420E+03  0.91172045180E+02 0.  0.
         23    2    1    2    0    0  0.41887456399E+02 -0.81766138242E+02  0.10246346657E+03  0.16626928138E+03  0.93308368235E+02 0.  0.
        -11    1    4    4    0    0  0.54789745304E+02 -0.44164921248E+02  0.17577178235E+02  0.72535602665E+02  0.00000000000E+00 0. -1.
         11    1    4    4    0    0 -0.12902288905E+02 -0.37601216993E+02  0.84886288332E+02  0.93733678713E+02  0.00000000000E+00 0.  1.
        -11    1    3    3    0    0 -0.32767381729E+02  0.14198228408E+02  0.58321513445E+02  0.68386328500E+02  0.00000000000E+00 0.  1.
         11    1    3    3    0    0  0.45085527183E+02  0.75310689527E+02  0.61211239073E+02  0.10701037570E+03  0.00000000000E+00 0. -1.
         21    1    1    2  502  501 -0.54205601853E+02 -0.77427796931E+01 -0.47827251841E+02  0.72702434128E+02  0.00000000000E+00 0. -1.
<scales pt_clust_5="13000.00000" pt_clust_6="13000.00000" pt_clust_7="13000.00000" pt_clust_8="13000.00000" pt_clust_9="54.75580"></scales>
<clustering>
<clus scale="   54.756">  2  9  1 -1</clus>
<clus scale="   91.172">  7  8 -1 -1</clus>
<clus scale="   93.308">  5  6 -1 -1</clus>
<clus scale="  125.932">  1  7  2 -1</clus>
<clus scale="   54.756">  2  5  1 -1</clus>
</clustering>
</event>
<event>
 9    1  0.9000149E-006  0.1451195E+03  0.7546771E-02  0.1206695E+00
         -1   -1    0    0    0  501 -0.00000000000E+00  0.00000000000E+00  0.28270162730E+03  0.28270162730E+03  0.00000000000E+00 0.  1.
          1   -1    0    0  502    0  0.00000000000E+00 -0.00000000000E+00 -0.96458078738E+02  0.96458078738E+02  0.00000000000E+00 0. -1.
         23    2    1    2    0    0  0.10147241643E+02  0.10617874325E+03  0.10407768006E+03  0.17467673215E+03  0.91120278944E+02 0.  0.
         23    2    1    2    0    0  0.61513283228E+01 -0.12002626287E+03  0.95995679967E+02  0.17901415242E+03  0.91579220210E+02 0.  0.
        -11    1    4    4    0    0 -0.24405713124E+02 -0.19713869724E+01  0.11245389377E+01  0.24511013596E+02  0.00000000000E+00 0.  1.
         11    1    4    4    0    0  0.30557041446E+02 -0.11805487590E+03  0.94871141029E+02  0.15450313882E+03  0.00000000000E+00 0. -1.
        -13    1    3    3    0    0  0.16997433357E+02 -0.11976040960E+02  0.24122764044E+02  0.31847229753E+02  0.00000000000E+00 0. -1.
         13    1    3    3    0    0 -0.68501917136E+01  0.11815478421E+03  0.79954916017E+02  0.14282950239E+03  0.00000000000E+00 0.  1.
         21    1    1    2  502  501 -0.16298569966E+02  0.13847519618E+02 -0.13829811463E+02  0.25468821481E+02  0.00000000000E+00 0. -1.
<scales pt_clust_5="13000.00000" pt_clust_6="13000.00000" pt_clust_7="13000.00000" pt_clust_8="13000.00000" pt_clust_9="21.38685"></scales>
<clustering>
<clus scale="   21.387">  2  9  1 -1</clus>
<clus scale="   91.120">  7  8 -1 -1</clus>
<clus scale="   91.579">  5  6 -1 -1</clus>
<clus scale="  144.830">  1  7  2 -1</clus>
<clus scale="   21.387">  2  5  1 -1</clus>
</clustering>
</event>
<event>
 9    1  0.9000149E-006  0.1130417E+03  0.7546771E-02  0.1255887E+00
          1   -1    0    0  502    0  0.00000000000E+00  0.00000000000E+00  0.72590697508E+03  0.72590697508E+03  0.00000000000E+00 0. -1.
         -1   -1    0    0    0  501 -0.00000000000E+00 -0.00000000000E+00 -0.22663193081E+02  0.22663193081E+02  0.00000000000E+00 0.  1.
         23    2    1    2    0    0  0.46987449769E+02 -0.54491800557E+02  0.26815925776E+03  0.29217551032E+03  0.90994310518E+02 0.  0.
         23    2    1    2    0    0 -0.25590860460E+02  0.53952645186E+02  0.40208803562E+03  0.41706435166E+03  0.93285073718E+02 0.  0.
        -11    1    3    3    0    0  0.38653356966E+02 -0.34589391635E+01  0.21324499610E+03  0.21674749047E+03  0.00000000000E+00 0.  1.
         11    1    3    3    0    0  0.83340928027E+01 -0.51032861394E+02  0.54914261662E+02  0.75428019852E+02  0.00000000000E+00 0. -1.
        -13    1    4    4    0    0  0.33033952829E+02  0.35561905717E+02  0.20234183630E+03  0.20808197878E+03  0.00000000000E+00 0. -1.
         13    1    4    4    0    0 -0.58624813289E+02  0.18390739469E+02  0.19974619932E+03  0.20898237288E+03  0.00000000000E+00 0.  1.
         21    1    1    2  502  501 -0.21396589309E+02  0.53915537118E+00  0.32996488623E+02  0.39330306177E+02  0.00000000000E+00 0.  1.
<scales pt_clust_5="13000.00000" pt_clust_6="13000.00000" pt_clust_7="13000.00000" pt_clust_8="13000.00000" pt_clust_9="21.40338"></scales>
<clustering>
<clus scale="   21.403">  2  9  1 -1</clus>
<clus scale="   90.994">  5  6 -1 -1</clus>
<clus scale="   93.285">  7  8 -1 -1</clus>
<clus scale="  111.159">  2  5  1 -1</clus>
<clus scale="  113.042">  1  5  2 -1</clus>
</clustering>
</event>
<event>
 9    1  0.9000149E-006  0.9293374E+02  0.7546771E-02  0.1296143E+00
         -1   -1    0    0    0  501 -0.00000000000E+00  0.00000000000E+00  0.43425770158E+03  0.43425770158E+03  0.00000000000E+00 0.  1.
          1   -1    0    0  502    0  0.00000000000E+00 -0.00000000000E+00 -0.10468851797E+03  0.10468851797E+03  0.00000000000E+00 0. -1.
         23    2    1    2    0    0  0.17614235629E+02 -0.16021298632E+02  0.30860107922E+03  0.32237033311E+03  0.90116936631E+02 0.  0.
         23    2    1    2    0    0  0.98204677028E+01  0.31888458734E+02  0.95742056744E+02  0.13536274916E+03  0.89683984330E+02 0.  0.
        -11    1    4    4    0    0  0.30653389651E+02  0.51404733556E+02  0.86827933186E+02  0.10545694340E+03  0.00000000000E+00 0.  1.
         11    1    4    4    0    0 -0.20832921948E+02 -0.19516274822E+02  0.89141235578E+01  0.29905805768E+02  0.00000000000E+00 0. -1.
        -13    1    3    3    0    0 -0.51614521929E+01 -0.50924725444E+02  0.15616483373E+03  0.16433935483E+03  0.00000000000E+00 0. -1.
         13    1    3    3    0    0  0.22775687822E+02  0.34903426813E+02  0.15243624549E+03  0.15803097828E+03  0.00000000000E+00 0.  1.
         21    1    1    2  502  501 -0.27434703332E+02 -0.15867160102E+02 -0.74773952353E+02  0.81213137281E+02  0.00000000000E+00 0. -1.
<scales pt_clust_5="13000.00000" pt_clust_6="13000.00000" pt_clust_7="13000.00000" pt_clust_8="13000.00000" pt_clust_9="31.69274"></scales>
<clustering>
<clus scale="   31.693">  2  9  1 -1</clus>
<clus scale="   89.684">  5  6 -1 -1</clus>
<clus scale="   90.117">  7  8 -1 -1</clus>
<clus scale="   92.514">  2  5  1 -1</clus>
<clus scale="   31.693">  2  5  1 -1</clus>
</clustering>
</event>
<event>
 9    1  0.9000149E-006  0.1045025E+03  0.7546771E-02  0.1277316E+00
          2   -1    0    0  502    0  0.00000000000E+00  0.00000000000E+00  0.98422229288E+02  0.98422229288E+02  0.00000000000E+00 0. -1.
         -2   -1    0    0    0  501 -0.00000000000E+00 -0.00000000000E+00 -0.20204535182E+03  0.20204535182E+03  0.00000000000E+00 0.  1.
         23    2    1    2    0    0  0.19346600266E+02 -0.90743223718E+01 -0.13625733013E+03  0.16520787339E+03  0.90944747771E+02 0.  0.
         23    2    1    2    0    0  0.52869894310E+01  0.17409747527E+02  0.20214567702E+02  0.10644060799E+03  0.10290735015E+03 0.  0.
        -11    1    3    3    0    0 -0.22165490972E+02 -0.24019991285E+02 -0.14599797920E+02  0.35796970132E+02  0.00000000000E+00 0. -1.
         11    1    3    3    0    0  0.41512091238E+02  0.14945668913E+02 -0.12165753221E+03  0.12941090326E+03  0.00000000000E+00 0.  1.
        -13    1    4    4    0    0  0.29249438155E+02 -0.31844853509E+02  0.27411135735E+02  0.51195651081E+02  0.00000000000E+00 0.  1.
         13    1    4    4    0    0 -0.23962448724E+02  0.49254601036E+02 -0.71965680326E+01  0.55244956906E+02  0.00000000000E+00 0. -1.
         21    1    1    2  502  501 -0.24633589697E+02 -0.83354251553E+01  0.12419639901E+02  0.28819099728E+02  0.00000000000E+00 0.  1.
<scales pt_clust_5="13000.00000" pt_clust_6="13000.00000" pt_clust_7="13000.00000" pt_clust_8="13000.00000" pt_clust_9="26.00564"></scales>
<clustering>
<clus scale="   26.006">  1  9  2 -1</clus>
<clus scale="   90.945">  5  6 -1 -1</clus>
<clus scale="   92.746">  2  5  1 -1</clus>
<clus scale="  102.907">  7  8 -1 -1</clus>
<clus scale="   26.006">  1  5  2 -1</clus>
</clustering>
</event>
<event>
 9    1  0.9000149E-006  0.1480724E+03  0.7546771E-02  0.1202905E+00
         -4   -1    0    0    0  501 -0.00000000000E+00  0.00000000000E+00  0.65125277692E+03  0.65125277692E+03  0.00000000000E+00 0. -1.
          4   -1    0    0  502    0  0.00000000000E+00 -0.00000000000E+00 -0.43674749394E+02  0.43674749394E+02  0.00000000000E+00 0.  1.
         23    2    1    2    0    0 -0.83875851465E+02  0.96557108790E+02  0.37147210155E+03  0.40322863168E+03  0.90793025368E+02 0.  0.
         23    2    1    2    0    0  0.86315860341E+02 -0.70395300185E+02  0.18610172742E+03  0.23521160628E+03  0.91020441364E+02 0.  0.
        -11    1    4    4    0    0  0.87828351447E+02 -0.42108323158E+02  0.81992430092E+02  0.12731727608E+03  0.00000000000E+00 0.  1.
         11    1    4    4    0    0 -0.15124911055E+01 -0.28286977027E+02  0.10410929733E+03  0.10789433020E+03  0.00000000000E+00 0. -1.
        -11    1    3    3    0    0 -0.56704568323E+02  0.29167169168E+02  0.77256456209E+02  0.10017330908E+03  0.00000000000E+00 0.  1.
         11    1    3    3    0    0 -0.27171283142E+02  0.67389939621E+02  0.29421564534E+03  0.30305532260E+03  0.00000000000E+00 0. -1.
         21    1    1    2  502  501 -0.24400088759E+01 -0.26161808605E+02  0.50004198561E+02  0.56487288362E+02  0.00000000000E+00 0.  1.
<scales pt_clust_5="13000.00000" pt_clust_6="13000.00000" pt_clust_7="13000.00000" pt_clust_8="13000.00000" pt_clust_9="26.27535"></scales>
<clustering>
<clus scale="   26.275">  1  9  2 -1</clus>
<clus scale="   90.793">  7  8 -1 -1</clus>
<clus scale="   91.020">  5  6 -1 -1</clus>
<clus scale="  147.933">  1  7  2 -1</clus>
<clus scale="  148.072">  2  5  1 -1</clus>
</clustering>
</event>
<event>
 9    1  0.9000149E-006  0.9303244E+02  0.7546771E-02  0.1296127E+00
          2   -1    0    0  502    0  0.00000000000E+00  0.00000000000E+00  0.26321454621E+03  0.26321454621E+03  0.00000000000E+00 0. -1.
         -2   -1    0    0    0  501 -0.00000000000E+00 -0.00000000000E+00 -0.87221247922E+02  0.87221247922E+02  0.00000000000E+00 0.  1.
         23    2    1    2    0    0 -0.12358912603E+02  0.17472706610E+02 -0.27039462246E+02  0.95702321158E+02  0.89273532245E+02 0.  0.
         23    2    1    2    0    0  0.37058660463E+02 -0.28906241922E+01  0.73497539101E+02  0.12206061115E+03  0.90084429940E+02 0.  0.
        -13    1    4    4    0    0  0.43045738849E+01  0.41345302138E+02  0.23787801953E+02  0.47893871080E+02  0.00000000000E+00 0.  1.
         13    1    4    4    0    0  0.32754086578E+02 -0.44235926330E+02  0.49709737147E+02  0.74166740073E+02  0.00000000000E+00 0. -1.
        -13    1    3    3    0    0  0.33808297991E+02 -0.26400463473E+01  0.73804510095E+01  0.34705070449E+02  0.00000000000E+00 0.  1.
         13    1    3    3    0    0 -0.46167210594E+02  0.20112752957E+02 -0.34419913255E+02  0.60997250709E+02  0.00000000000E+00 0. -1.
         21    1    1    2  502  501 -0.24699747860E+02 -0.14582082417E+02  0.12953522143E+03  0.13267286182E+03  0.00000000000E+00 0. -1.
<scales pt_clust_5="13000.00000" pt_clust_6="13000.00000" pt_clust_7="13000.00000" pt_clust_8="13000.00000" pt_clust_9="28.68300"></scales>
<clustering>
<clus scale="   28.683">  1  9  2 -1</clus>
<clus scale="   89.274">  7  8 -1 -1</clus>
<clus scale="   90.084">  5  6 -1 -1</clus>
<clus scale="   92.247">  2  7  1 -1</clus>
<clus scale="   28.683">  1  5  2 -1</clus>
</clustering>
</event>
<event>
 9    1  0.9000149E-006  0.1659934E+03  0.7546771E-02  0.1182994E+00
          2   -1    0    0  502    0  0.00000000000E+00  0.00000000000E+00  0.92803318433E+03  0.92803318433E+03  0.00000000000E+00 0. -1.
         -2   -1    0    0    0  501 -0.00000000000E+00 -0.00000000000E+00 -0.37802368308E+02  0.37802368308E+02  0.00000000000E+00 0.  1.
         23    2    1    2    0    0  0.67089366677E+02  0.96073207037E+02  0.28882697470E+03  0.32456994448E+03  0.90518414229E+02 0.  0.
         23    2    1    2    0    0 -0.10568638239E+03 -0.10760053459E+03  0.52838084791E+03  0.55786916657E+03  0.96354554148E+02 0.  0.
        -11    1    3    3    0    0  0.89442636316E+02  0.79096809214E+02  0.24462473224E+03  0.27220865167E+03  0.00000000000E+00 0. -1.
         11    1    3    3    0    0 -0.22353269639E+02  0.16976397823E+02  0.44202242456E+02  0.52361292810E+02  0.00000000000E+00 0.  1.
        -13    1    4    4    0    0 -0.96424783194E+02 -0.43491001052E+02  0.23957074582E+03  0.26188422679E+03  0.00000000000E+00 0.  1.
         13    1    4    4    0    0 -0.92615991976E+01 -0.64109533535E+02  0.28881010209E+03  0.29598493979E+03  0.00000000000E+00 0. -1.
         21    1    1    2  502  501  0.38597015715E+02  0.11527327549E+02  0.73022993410E+02  0.83396441585E+02  0.00000000000E+00 0. -1.
<scales pt_clust_5="13000.00000" pt_clust_6="13000.00000" pt_clust_7="13000.00000" pt_clust_8="13000.00000" pt_clust_9="40.28162"></scales>
<clustering>
<clus scale="   40.282">  2  9  1 -1</clus>
<clus scale="   90.518">  5  6 -1 -1</clus>
<clus scale="   96.355">  7  8 -1 -1</clus>
<clus scale="  162.675">  2  5  1 -1</clus>
<clus scale="  165.993">  1  5  2 -1</clus>
</clustering>
</event>
<event>
 9    1  0.9000149E-006  0.1032075E+03  0.7546771E-02  0.1277635E+00
         -3   -1    0    0    0  501 -0.00000000000E+00  0.00000000000E+00  0.13006387102E+03  0.13006387102E+03  0.00000000000E+00 0.  1.
          3   -1    0    0  502    0  0.00000000000E+00 -0.00000000000E+00 -0.18042485876E+03  0.18042485876E+03  0.00000000000E+00 0. -1.
         23    2    1    2    0    0 -0.28325443072E+02  0.19472686070E+02  0.69002964011E+02  0.12592424967E+03  0.99569028240E+02 0.  0.
         23    2    1    2    0    0 -0.30236587817E+01 -0.16983773288E+02 -0.44634504683E+02  0.10348765770E+03  0.91759823569E+02 0.  0.
        -11    1    4    4    0    0  0.27995571232E+02  0.26906696277E+02 -0.12140970410E+02  0.40683233348E+02  0.00000000000E+00 0. -1.
         11    1    4    4    0    0 -0.31019230014E+02 -0.43890469564E+02 -0.32493534273E+02  0.62804424357E+02  0.00000000000E+00 0.  1.
        -11    1    3    3    0    0 -0.44488036016E+02  0.51558244243E+02  0.54334021514E+02  0.87118446909E+02  0.00000000000E+00 0.  1.
         11    1    3    3    0    0  0.16162592944E+02 -0.32085558173E+02  0.14668942497E+02  0.38805802761E+02  0.00000000000E+00 0. -1.
         21    1    1    2  502  501  0.31349101854E+02 -0.24889127827E+01 -0.74729447066E+02  0.81076822413E+02  0.00000000000E+00 0. -1.
<scales pt_clust_5="13000.00000" pt_clust_6="13000.00000" pt_clust_7="13000.00000" pt_clust_8="13000.00000" pt_clust_9="31.44775"></scales>
<clustering>
<clus scale="   31.448">  2  9  1 -1</clus>
<clus scale="   91.760">  5  6 -1 -1</clus>
<clus scale="   95.696">  2  5  1 -1</clus>
<clus scale="   99.569">  7  8 -1 -1</clus>
<clus scale="   31.448">  2  5  1 -1</clus>
</clustering>
</event>
<event>
 9    1  0.9000149E-006  0.9513123E+02  0.7546771E-02  0.1292914E+00
         -2   -1    0    0    0  501 -0.00000000000E+00  0.00000000000E+00  0.33519069042E+02  0.33519069042E+02  0.00000000000E+00 0.  1.
          2   -1    0    0  502    0  0.00000000000E+00 -0.00000000000E+00 -0.38895195730E+03  0.38895195730E+03  0.00000000000E+00 0. -1.
         23    2    1    2    0    0 -0.27656271562E+01  0.76470832601E+00 -0.11745993697E+03  0.15089646841E+03  0.94681961919E+02 0.  0.
         23    2    1    2    0    0 -0.17983323617E+02  0.12404351965E+02 -0.12649694489E+03  0.15742183957E+03  0.91120198813E+02 0.  0.
        -11    1    4    4    0    0  0.99573962680E+01  0.43520165456E+02 -0.95328732573E+02  0.10526500746E+03  0.00000000000E+00 0. -1.
         11    1    4    4    0    0 -0.27940719885E+02 -0.31115813491E+02 -0.31168212318E+02  0.52156832112E+02  0.00000000000E+00 0.  1.
        -13    1    3    3    0    0 -0.16867055092E+01 -0.46843762438E+02 -0.63529589879E+02  0.78950565831E+02  0.00000000000E+00 0.  1.
         13    1    3    3    0    0 -0.10789216470E+01  0.47608470764E+02 -0.53930347092E+02  0.71945902579E+02  0.00000000000E+00 0. -1.
         21    1    1    2  502  501  0.20748950773E+02 -0.13169060291E+02 -0.11147600640E+03  0.11415271836E+03  0.00000000000E+00 0. -1.
<scales pt_clust_5="13000.00000" pt_clust_6="13000.00000" pt_clust_7="13000.00000" pt_clust_8="13000.00000" pt_clust_9="24.57525"></scales>
<clustering>
<clus scale="   24.575">  2  9  1 -1</clus>
<clus scale="   91.120">  5  6 -1 -1</clus>
<clus scale="   91.587">  2  5  1 -1</clus>
<clus scale="   94.682">  7  8 -1 -1</clus>
<clus scale="   24.575">  2  5  1 -1</clus>
</clustering>
</event>
<event>
 9    1  0.9000149E-006  0.9572244E+02  0.7546771E-02  0.1291189E+00
         -2   -1    0    0    0  501 -0.00000000000E+00  0.00000000000E+00  0.26419522715E+03  0.26419522715E+03  0.00000000000E+00 0.  1.
          2   -1    0    0  502    0  0.00000000000E+00 -0.00000000000E+00 -0.67252259869E+02  0.67252259869E+02  0.00000000000E+00 0. -1.
         23    2    1    2    0    0  0.14997514485E+02  0.13019544090E+02  0.11742187944E+03  0.15212983875E+03  0.94663383087E+02 0.  0.
         23    2    1    2    0    0  0.43168238750E+02 -0.12205908109E+02  0.56830584280E+02  0.11687747047E+03  0.91750459200E+02 0.  0.
        -13    1    3    3    0    0  0.36604667466E+02  0.13427746572E+02  0.70001900511E+01  0.39613239189E+02  0.00000000000E+00 0. -1.
         13    1    3    3    0    0 -0.21607152981E+02 -0.40820248205E+00  0.11042168938E+03  0.11251659956E+03  0.00000000000E+00 0.  1.
        -13    1    4    4    0    0  0.53528538017E+02 -0.43181562827E+02  0.44753823290E+02  0.82053984970E+02  0.00000000000E+00 0. -1.
         13    1    4    4    0    0 -0.10360299267E+02  0.30975654717E+02  0.12076760990E+02  0.34823485496E+02  0.00000000000E+00 0.  1.
         21    1    1    2  502  501 -0.58165753235E+02 -0.81363598056E+00  0.22690503568E+02  0.62440177811E+02  0.00000000000E+00 0. -1.
<scales pt_clust_5="13000.00000" pt_clust_6="13000.00000" pt_clust_7="13000.00000" pt_clust_8="13000.00000" pt_clust_9="58.17144"></scales>
<clustering>
<clus scale="   58.171">  2  9  1 -1</clus>
<clus scale="   91.750">  7  8 -1 -1</clus>
<clus scale="   92.843">  2  7  1 -1</clus>
<clus scale="   94.663">  5  6 -1 -1</clus>
<clus scale="   58.171">  2  5  1 -1</clus>
</clustering>
</event>
<event>
 9    1  0.9000149E-006  0.1237612E+03  0.7546771E-02  0.1237195E+00
         -2   -1    0    0    0  501 -0.00000000000E+00  0.00000000000E+00  0.79112562607E+02  0.79112562607E+02  0.00000000000E+00 0.  1.
          2   -1    0    0  502    0  0.00000000000E+00 -0.00000000000E+00 -0.57173532854E+03  0.57173532854E+03  0.00000000000E+00 0. -1.
         23    2    1    2    0    0 -0.39538518004E+01 -0.86343014061E+02  0.13838546919E+02  0.12612811392E+03  0.90807745915E+02 0.  0.
         23    2    1    2    0    0 -0.25144026651E+01  0.60306185900E+02 -0.42811422886E+03  0.44190661218E+03  0.91413908421E+02 0.  0.
        -11    1    4    4    0    0  0.40367725279E+02  0.76614091415E+01 -0.14039134872E+03  0.14628048821E+03  0.00000000000E+00 0.  1.
         11    1    4    4    0    0 -0.42882127944E+02  0.52644776758E+02 -0.28772288014E+03  0.29562612397E+03  0.00000000000E+00 0. -1.
        -11    1    3    3    0    0 -0.13513844109E+02  0.15794149722E+02  0.10971831623E+02  0.23504472707E+02  0.00000000000E+00 0. -1.
         11    1    3    3    0    0  0.95599923088E+01 -0.10213716378E+03  0.28667152956E+01  0.10262364121E+03  0.00000000000E+00 0.  1.
         21    1    1    2  502  501  0.64682544655E+01  0.26036828161E+02 -0.78347083996E+02  0.82813165060E+02  0.00000000000E+00 0.  1.
<scales pt_clust_5="13000.00000" pt_clust_6="13000.00000" pt_clust_7="13000.00000" pt_clust_8="13000.00000" pt_clust_9="26.82825"></scales>
<clustering>
<clus scale="   26.828">  2  9  1 -1</clus>
<clus scale="   90.808">  7  8 -1 -1</clus>
<clus scale="   91.414">  5  6 -1 -1</clus>
<clus scale="  123.314">  1  7  2 -1</clus>
<clus scale="   26.828">  2  5  1 -1</clus>
</clustering>
</event>
<event>
 9    1  0.9000149E-006  0.9466281E+02  0.7546771E-02  0.1292649E+00
          2   -1    0    0  502    0  0.00000000000E+00  0.00000000000E+00  0.90613493674E+02  0.90613493674E+02  0.00000000000E+00 0. -1.
         -2   -1    0    0    0  501 -0.00000000000E+00 -0.00000000000E+00 -0.32123964961E+03  0.32123964961E+03  0.00000000000E+00 0.  1.
         23    2    1    2    0    0  0.33435524177E+02  0.33717419716E+02 -0.18146569362E+03  0.20795060587E+03  0.89771141531E+02 0.  0.
         23    2    1    2    0    0  0.14268113412E+01  0.36357220588E+01 -0.97564261370E+02  0.13352095316E+03  0.91070333105E+02 0.  0.
        -11    1    3    3    0    0  0.36051269691E+02  0.61850999121E+02 -0.11161240915E+03  0.13259928361E+03  0.00000000000E+00 0.  1.
         11    1    3    3    0    0 -0.26157455137E+01 -0.28133579405E+02 -0.69853284468E+02  0.75351322256E+02  0.00000000000E+00 0. -1.
        -13    1    4    4    0    0  0.39779812538E+02  0.22010681182E+02 -0.67724352212E+02  0.81568936821E+02  0.00000000000E+00 0.  1.
         13    1    4    4    0    0 -0.38353001197E+02 -0.18374959123E+02 -0.29839909158E+02  0.51952016344E+02  0.00000000000E+00 0. -1.
         21    1    1    2  502  501 -0.34862335518E+02 -0.37353141775E+02  0.48403799054E+02  0.70381584247E+02  0.00000000000E+00 0. -1.
<scales pt_clust_5="13000.00000" pt_clust_6="13000.00000" pt_clust_7="13000.00000" pt_clust_8="13000.00000" pt_clust_9="51.09442"></scales>
<clustering>
<clus scale="   51.094">  1  9  2 -1</clus>
<clus scale="   89.771">  5  6 -1 -1</clus>
<clus scale="   91.070">  7  8 -1 -1</clus>
<clus scale="   93.414">  2  5  1 -1</clus>
<clus scale="   51.094">  1  5  2 -1</clus>
</clustering>
</event>
<event>
 9    1  0.9000149E-006  0.9446376E+02  0.7546771E-02  0.1293576E+00
          1   -1    0    0  502    0  0.00000000000E+00  0.00000000000E+00  0.89715315806E+02  0.89715315806E+02  0.00000000000E+00 0. -1.
         -1   -1    0    0    0  501 -0.00000000000E+00 -0.00000000000E+00 -0.18402836604E+03  0.18402836604E+03  0.00000000000E+00 0.  1.
         23    2    1    2    0    0 -0.23390306589E+02 -0.10911863011E+02 -0.81769299569E+02  0.12550332266E+03  0.91644369446E+02 0.  0.
         23    2    1    2    0    0  0.21545688018E+02 -0.24343169720E+02 -0.40225692603E+02  0.10337823863E+03  0.89510598773E+02 0.  0.
        -11    1    4    4    0    0 -0.34713719075E+02 -0.13258702414E+02 -0.22128064120E+02  0.43249123730E+02  0.00000000000E+00 0.  1.
         11    1    4    4    0    0  0.56259407093E+02 -0.11084467306E+02 -0.18097628483E+02  0.60129114900E+02  0.00000000000E+00 0. -1.
        -13    1    3    3    0    0 -0.31726619779E+01 -0.27175677351E+02 -0.93212268849E+02  0.97144790326E+02  0.00000000000E+00 0.  1.
         13    1    3    3    0    0 -0.20217644611E+02  0.16263814340E+02  0.11442969279E+02  0.28358532339E+02  0.00000000000E+00 0. -1.
         21    1    1    2  502  501  0.18446185706E+01  0.35255032731E+02  0.27681941940E+02  0.44862120548E+02  0.00000000000E+00 0. -1.
<scales pt_clust_5="13000.00000" pt_clust_6="13000.00000" pt_clust_7="13000.00000" pt_clust_8="13000.00000" pt_clust_9="35.30326"></scales>
<clustering>
<clus scale="   35.303">  1  9  2 -1</clus>
<clus scale="   89.511">  5  6 -1 -1</clus>
<clus scale="   91.644">  7  8 -1 -1</clus>
<clus scale="   92.395">  1  5  2 -1</clus>
<clus scale="   35.303">  1  5  2 -1</clus>
</clustering>
</event>
<event>
 9    1  0.9000149E-006  0.1541997E+03  0.7546771E-02  0.1196010E+00
          1   -1    0    0  502    0  0.00000000000E+00  0.00000000000E+00  0.75146025379E+03  0.75146025379E+03  0.00000000000E+00 0. -1.
         -1   -1    0    0    0  501 -0.00000000000E+00 -0.00000000000E+00 -0.15837325303E+03  0.15837325303E+03  0.00000000000E+00 0.  1.
         23    2    1    2    0    0 -0.10888351570E+03 -0.61699993682E+02 -0.10966710963E+03  0.18856922028E+03  0.88707196393E+02 0.  0.
         23    2    1    2    0    0  0.86156504837E+02  0.50232874064E+02  0.61951217594E+03  0.63421699188E+03  0.92138871786E+02 0.  0.
        -11    1    4    4    0    0  0.50821630736E+02  0.75370523666E+02  0.37282200103E+03  0.38374444418E+03  0.00000000000E+00 0. -1.
         11    1    4    4    0    0  0.35334874101E+02 -0.25137649603E+02  0.24669017491E+03  0.25047254770E+03  0.00000000000E+00 0.  1.
        -13    1    3    3    0    0 -0.71390638952E+02 -0.48260208191E+01 -0.16977760964E+02  0.73540180679E+02  0.00000000000E+00 0.  1.
         13    1    3    3    0    0 -0.37492876749E+02 -0.56873972863E+02 -0.92689348668E+02  0.11502903961E+03  0.00000000000E+00 0. -1.
         21    1    1    2  502  501  0.22727010864E+02  0.11467119618E+02  0.83241934456E+02  0.87047294657E+02  0.00000000000E+00 0. -1.
<scales pt_clust_5="13000.00000" pt_clust_6="13000.00000" pt_clust_7="13000.00000" pt_clust_8="13000.00000" pt_clust_9="25.45608"></scales>
<clustering>
<clus scale="   25.456">  1  9  2 -1</clus>
<clus scale="   88.707">  7  8 -1 -1</clus>
<clus scale="   92.139">  5  6 -1 -1</clus>
<clus scale="  152.174">  2  7  1 -1</clus>
<clus scale="   25.456">  1  5  2 -1</clus>
</clustering>
</event>
<event>
 9    1  0.9000149E-006  0.9352723E+02  0.7546771E-02  0.1295398E+00
          1   -1    0    0  502    0  0.00000000000E+00  0.00000000000E+00  0.33201190156E+03  0.33201190156E+03  0.00000000000E+00 0. -1.
         -1   -1    0    0    0  501 -0.00000000000E+00 -0.00000000000E+00 -0.80459432790E+02  0.80459432790E+02  0.00000000000E+00 0.  1.
         23    2    1    2    0    0  0.23629502283E+02  0.17800709080E+02 -0.30276662327E+02  0.10010216002E+03  0.90711341829E+02 0.  0.
         23    2    1    2    0    0  0.63750824407E+01  0.13531961892E+02  0.17270806313E+03  0.19494081809E+03  0.89163287403E+02 0.  0.
        -11    1    3    3    0    0 -0.29925906609E+02  0.57158568665E+01 -0.33277968034E+02  0.45118223176E+02  0.00000000000E+00 0. -1.
         11    1    3    3    0    0  0.53555408891E+02  0.12084852214E+02  0.30013057073E+01  0.54983936841E+02  0.00000000000E+00 0.  1.
        -11    1    4    4    0    0 -0.73515055004E+01 -0.32121730227E+02  0.11733021373E+03  0.12186972241E+03  0.00000000000E+00 0. -1.
         11    1    4    4    0    0  0.13726587941E+02  0.45653692119E+02  0.55377849399E+02  0.73071095685E+02  0.00000000000E+00 0.  1.
         21    1    1    2  502  501 -0.30004584723E+02 -0.31332670972E+02  0.10912106797E+03  0.11742835624E+03  0.00000000000E+00 0. -1.
<scales pt_clust_5="13000.00000" pt_clust_6="13000.00000" pt_clust_7="13000.00000" pt_clust_8="13000.00000" pt_clust_9="43.38216"></scales>
<clustering>
<clus scale="   43.382">  1  9  2 -1</clus>
<clus scale="   89.163">  7  8 -1 -1</clus>
<clus scale="   90.711">  5  6 -1 -1</clus>
<clus scale="   92.027">  1  7  2 -1</clus>
<clus scale="   43.382">  1  5  2 -1</clus>
</clustering>
</event>
<event>
 9    1  0.9000149E-006  0.1501972E+03  0.7546771E-02  0.1200281E+00
          1   -1    0    0  502    0  0.00000000000E+00  0.00000000000E+00  0.17438683958E+03  0.17438683958E+03  0.00000000000E+00 0. -1.
         -1   -1    0    0    0  501 -0.00000000000E+00 -0.00000000000E+00 -0.20231715085E+03  0.20231715085E+03  0.00000000000E+00 0.  1.
         23    2    1    2    0    0 -0.23426631511E+02  0.13262042429E+03 -0.96380908382E+02  0.18863700998E+03  0.90319754378E+02 0.  0.
         23    2    1    2    0    0  0.23018544755E+02 -0.89493703341E+02  0.36689149991E+02  0.13450514592E+03  0.90590088923E+02 0.  0.
        -13    1    4    4    0    0  0.50603177633E+02 -0.41280082535E+02 -0.43389546108E+01  0.65448860401E+02  0.00000000000E+00 0.  1.
         13    1    4    4    0    0 -0.27584632878E+02 -0.48213620806E+02  0.41028104602E+02  0.69056285517E+02  0.00000000000E+00 0. -1.
        -13    1    3    3    0    0 -0.55905126107E+02  0.99757580778E+02 -0.56260181029E+02  0.12744475673E+03  0.00000000000E+00 0. -1.
         13    1    3    3    0    0  0.32478494596E+02  0.32862843510E+02 -0.40120727352E+02  0.61192253252E+02  0.00000000000E+00 0.  1.
         21    1    1    2  502  501  0.40808675538E+00 -0.43126720948E+02  0.31761447125E+02  0.53561834528E+02  0.00000000000E+00 0. -1.
<scales pt_clust_5="13000.00000" pt_clust_6="13000.00000" pt_clust_7="13000.00000" pt_clust_8="13000.00000" pt_clust_9="43.12865"></scales>
<clustering>
<clus scale="   43.129">  1  9  2 -1</clus>
<clus scale="   90.320">  7  8 -1 -1</clus>
<clus scale="   90.590">  5  6 -1 -1</clus>
<clus scale="  150.034">  2  7  1 -1</clus>
<clus scale="   43.129">  1  5  2 -1</clus>
</clustering>
</event>
<event>
 9    1  0.9000149E-006  0.9696587E+02  0.7546771E-02  0.1287707E+00
          1   -1    0    0  502    0  0.00000000000E+00  0.00000000000E+00  0.13479663568E+03  0.13479663568E+03  0.00000000000E+00 0. -1.
         -1   -1    0    0    0  501 -0.00000000000E+00 -0.00000000000E+00 -0.14138663583E+03  0.14138663583E+03  0.00000000000E+00 0.  1.
         23    2    1    2    0    0  0.10071496163E+02 -0.12179668375E+02 -0.77876703130E+02  0.12223618729E+03  0.92882319283E+02 0.  0.
         23    2    1    2    0    0 -0.12021916848E+02  0.41454917757E+02  0.40858338520E+02  0.11167735828E+03  0.94548357120E+02 0.  0.
        -11    1    3    3    0    0  0.36411656013E+02 -0.35292642259E+02 -0.69798621909E+02  0.86274138139E+02  0.00000000000E+00 0.  1.
         11    1    3    3    0    0 -0.26340159850E+02  0.23112973884E+02 -0.80780812209E+01  0.35962049148E+02  0.00000000000E+00 0. -1.
        -13    1    4    4    0    0 -0.44426231496E+02  0.16513307816E+02  0.50921572359E+02  0.69565694933E+02  0.00000000000E+00 0.  1.
         13    1    4    4    0    0  0.32404314648E+02  0.24941609941E+02 -0.10063233840E+02  0.42111663343E+02  0.00000000000E+00 0. -1.
         21    1    1    2  502  501  0.19504206851E+01 -0.29275249382E+02  0.30428364461E+02  0.42269725939E+02  0.00000000000E+00 0. -1.
<scales pt_clust_5="13000.00000" pt_clust_6="13000.00000" pt_clust_7="13000.00000" pt_clust_8="13000.00000" pt_clust_9="29.34015"></scales>
<clustering>
<clus scale="   29.340">  1  9  2 -1</clus>
<clus scale="   92.882">  5  6 -1 -1</clus>
<clus scale="   94.548">  7  8 -1 -1</clus>
<clus scale="   95.342">  2  5  1 -1</clus>
<clus scale="   29.340">  1  5  2 -1</clus>
</clustering>
</event>
<event>
 9    1  0.9000149E-006  0.2534942E+03  0.7546771E-02  0.1111473E+00
          2   -1    0    0  502    0  0.00000000000E+00  0.00000000000E+00  0.20530836792E+03  0.20530836792E+03  0.00000000000E+00 0. -1.
         -2   -1    0    0    0  501 -0.00000000000E+00 -0.00000000000E+00 -0.10833008062E+04  0.10833008062E+04  0.00000000000E+00 0.  1.
         23    2    1    2    0    0 -0.87166738832E+02  0.21950504529E+03 -0.97069359789E+03  0.10031422458E+04  0.90927437955E+02 0.  0.
         23    2    1    2    0    0  0.91875692567E+02 -0.19526957466E+03  0.59326514035E+02  0.24395308425E+03  0.97067617547E+02 0.  0.
        -11    1    3    3    0    0 -0.56896693226E+02  0.95378454074E+02 -0.28952622099E+03  0.31009630092E+03  0.00000000000E+00 0.  1.
         11    1    3    3    0    0 -0.30270045605E+02  0.12412659122E+03 -0.68116737690E+03  0.69304594484E+03  0.00000000000E+00 0. -1.
        -13    1    4    4    0    0  0.30765524465E+02 -0.32752125405E+01  0.24533410835E+02  0.39485855189E+02  0.00000000000E+00 0.  1.
         13    1    4    4    0    0  0.61110168102E+02 -0.19199436211E+03  0.34793103201E+02  0.20446722906E+03  0.00000000000E+00 0. -1.
         21    1    1    2  502  501 -0.47089537351E+01 -0.24235470640E+02  0.33374645597E+02  0.41513844090E+02  0.00000000000E+00 0.  1.
<scales pt_clust_5="13000.00000" pt_clust_6="13000.00000" pt_clust_7="13000.00000" pt_clust_8="13000.00000" pt_clust_9="24.68871"></scales>
<clustering>
<clus scale="   24.689">  1  9  2 -1</clus>
<clus scale="   90.927">  5  6 -1 -1</clus>
<clus scale="   97.068">  7  8 -1 -1</clus>
<clus scale="  251.207">  2  5  1 -1</clus>
<clus scale="   24.689">  1  5  2 -1</clus>
</clustering>
</event>
<event>
 9    1  0.9000149E-006  0.1308003E+03  0.7546771E-02  0.1226346E+00
          1   -1    0    0  502    0  0.00000000000E+00  0.00000000000E+00  0.55859606473E+03  0.55859606473E+03  0.00000000000E+00 0. -1.
         -1   -1    0    0    0  501 -0.00000000000E+00 -0.00000000000E+00 -0.43660487108E+02  0.43660487108E+02  0.00000000000E+00 0.  1.
         23    2    1    2    0    0 -0.11006425474E+03  0.22998968175E+02  0.19328241960E+03  0.24160920301E+03  0.91508581781E+02 0.  0.
         23    2    1    2    0    0  0.67730523888E+02 -0.32224949544E+02  0.21082720893E+03  0.24165300236E+03  0.91226039520E+02 0.  0.
        -11    1    3    3    0    0 -0.18960887213E+02  0.13304984577E+02 -0.45374055560E+01  0.23603514731E+02  0.00000000000E+00 0.  1.
         11    1    3    3    0    0 -0.91103367531E+02  0.96939835972E+01  0.19781982516E+03  0.21800568827E+03  0.00000000000E+00 0. -1.
        -13    1    4    4    0    0  0.29748466053E+02 -0.62640001976E+02  0.12869915443E+03  0.14619238500E+03  0.00000000000E+00 0. -1.
         13    1    4    4    0    0  0.37982057835E+02  0.30415052433E+02  0.82128054493E+02  0.95460617359E+02  0.00000000000E+00 0.  1.
         21    1    1    2  502  501  0.42333730855E+02  0.92259813690E+01  0.11082594909E+03  0.11899434647E+03  0.00000000000E+00 0. -1.
<scales pt_clust_5="13000.00000" pt_clust_6="13000.00000" pt_clust_7="13000.00000" pt_clust_8="13000.00000" pt_clust_9="43.32740"></scales>
<clustering>
<clus scale="   43.327">  1  9  2 -1</clus>
<clus scale="   91.226">  7  8 -1 -1</clus>
<clus scale="   91.509">  5  6 -1 -1</clus>
<clus scale="  130.603">  1  7  2 -1</clus>
<clus scale="   43.327">  1  5  2 -1</clus>
</clustering>
</event>
<event>
 9    1  0.9000149E-006  0.1425461E+03  0.7546771E-02  0.1210200E+00
          1   -1    0    0  502    0  0.00000000000E+00  0.00000000000E+00  0.57375720419E+03  0.57375720419E+03  0.00000000000E+00 0. -1.
         -1   -1    0    0    0  501 -0.00000000000E+00 -0.00000000000E+00 -0.16670622230E+03  0.16670622230E+03  0.00000000000E+00 0.  1.
         23    2    1    2    0    0  0.19897302122E+00  0.11039115567E+03 -0.12105547378E+03  0.18740370277E+03  0.90991610826E+02 0.  0.
         23    2    1    2    0    0  0.21826433739E+02 -0.85027037055E+02  0.45728574298E+03  0.47467585801E+03  0.92200483776E+02 0.  0.
        -11    1    3    3    0    0 -0.22128920278E+02  0.11127402796E+03 -0.11984060813E+03  0.16502536098E+03  0.00000000000E+00 0.  1.
         11    1    3    3    0    0  0.22327893299E+02 -0.88287229245E+00 -0.12148656514E+01  0.22378341789E+02  0.00000000000E+00 0. -1.
        -11    1    4    4    0    0 -0.30975021189E+02 -0.68153338770E+01  0.88624430301E+02  0.94128584180E+02  0.00000000000E+00 0.  1.
         11    1    4    4    0    0  0.52801454928E+02 -0.78211703178E+02  0.36866131268E+03  0.38054727383E+03  0.00000000000E+00 0. -1.
         21    1    1    2  502  501 -0.22025406760E+02 -0.25364118613E+02  0.70820712691E+02  0.78383865700E+02  0.00000000000E+00 0. -1.
<scales pt_clust_5="13000.00000" pt_clust_6="13000.00000" pt_clust_7="13000.00000" pt_clust_8="13000.00000" pt_clust_9="33.59251"></scales>
<clustering>
<clus scale="   33.593">  1  9  2 -1</clus>
<clus scale="   90.992">  5  6 -1 -1</clus>
<clus scale="   92.200">  7  8 -1 -1</clus>
<clus scale="  141.767">  2  5  1 -1</clus>
<clus scale="   33.593">  1  5  2 -1</clus>
</clustering>
</event>
<event>
 9    1  0.9000149E-006  0.1100614E+03  0.7546771E-02  0.1260996E+00
          2   -1    0    0  502    0  0.00000000000E+00  0.00000000000E+00  0.11473430478E+03  0.11473430478E+03  0.00000000000E+00 0. -1.
         -2   -1    0    0    0  501 -0.00000000000E+00 -0.00000000000E+00 -0.26787554120E+03  0.26787554120E+03  0.00000000000E+00 0.  1.
         23    2    1    2    0    0 -0.99514712064E+01  0.43435751655E+02 -0.14789901107E+03  0.18052111376E+03  0.93424080063E+02 0.  0.
         23    2    1    2    0    0 -0.11085287852E+02 -0.95534462150E+02 -0.33614161547E+02  0.13914599928E+03  0.94773309495E+02 0.  0.
        -11    1    4    4    0    0 -0.49076424356E+02 -0.52352720958E+02 -0.38480940860E+02  0.81425337756E+02  0.00000000000E+00 0. -1.
         11    1    4    4    0    0  0.37991136504E+02 -0.43181741193E+02  0.48667793133E+01  0.57720661519E+02  0.00000000000E+00 0.  1.
        -11    1    3    3    0    0  0.33940328431E+02  0.28198279490E+02 -0.11614607647E+03  0.12424572403E+03  0.00000000000E+00 0.  1.
         11    1    3    3    0    0 -0.43891799638E+02  0.15237472165E+02 -0.31752934604E+02  0.56275389731E+02  0.00000000000E+00 0. -1.
         21    1    1    2  502  501  0.21036759059E+02  0.52098710495E+02  0.28371936196E+02  0.62942732944E+02  0.00000000000E+00 0.  1.
<scales pt_clust_5="13000.00000" pt_clust_6="13000.00000" pt_clust_7="13000.00000" pt_clust_8="13000.00000" pt_clust_9="56.18559"></scales>
<clustering>
<clus scale="   56.186">  1  9  2 -1</clus>
<clus scale="   93.424">  7  8 -1 -1</clus>
<clus scale="   94.773">  5  6 -1 -1</clus>
<clus scale="  108.902">  2  7  1 -1</clus>
<clus scale="   56.186">  1  5  2 -1</clus>
</clustering>
</event>
<event>
 9    1  0.9000149E-006  0.9611167E+02  0.7546771E-02  0.1292061E+00
          3   -1    0    0  502    0  0.00000000000E+00  0.00000000000E+00  0.64658570361E+02  0.64658570361E+02  0.00000000000E+00 0. -1.
         -3   -1    0    0    0  501 -0.00000000000E+00 -0.00000000000E+00 -0.24528997362E+03  0.24528997362E+03  0.00000000000E+00 0.  1.
         23    2    1    2    0    0 -0.19160391238E+00  0.17456104431E+02 -0.13079718481E+03  0.16096097316E+03  0.92172550310E+02 0.  0.
         23    2    1    2    0    0 -0.19649750467E+02 -0.42394098027E+02 -0.60848807331E+02  0.11526956323E+03  0.86029777475E+02 0.  0.
        -11    1    3    3    0    0 -0.18788813610E+02  0.29225816529E+02 -0.72806420514E+01  0.35498952341E+02  0.00000000000E+00 0. -1.
         11    1    3    3    0    0  0.18597209698E+02 -0.11769712098E+02 -0.12351654276E+03  0.12546202081E+03  0.00000000000E+00 0.  1.
        -13    1    4    4    0    0 -0.45360077560E+02 -0.53219833825E+02 -0.45528945568E+02  0.83443227605E+02  0.00000000000E+00 0. -1.
         13    1    4    4    0    0  0.25710327093E+02  0.10825735798E+02 -0.15319861763E+02  0.31826335624E+02  0.00000000000E+00 0.  1.
         21    1    1    2  502  501  0.19841354380E+02  0.24937993596E+02  0.11014588881E+02  0.33718007599E+02  0.00000000000E+00 0. -1.
<scales pt_clust_5="13000.00000" pt_clust_6="13000.00000" pt_clust_7="13000.00000" pt_clust_8="13000.00000" pt_clust_9="31.86821"></scales>
<clustering>
<clus scale="   31.868">  1  9  2 -1</clus>
<clus scale="   86.030">  7  8 -1 -1</clus>
<clus scale="   90.237">  1  7  2 -1</clus>
<clus scale="   92.173">  5  6 -1 -1</clus>
<clus scale="   31.868">  1  5  2 -1</clus>
</clustering>
</event>
<event>
 9    1  0.9000149E-006  0.2864964E+03  0.7546771E-02  0.1092337E+00
          1   -1    0    0  502    0  0.00000000000E+00  0.00000000000E+00  0.12166757744E+03  0.12166757744E+03  0.00000000000E+00 0. -1.
         -1   -1    0    0    0  501 -0.00000000000E+00 -0.00000000000E+00 -0.72788618006E+03  0.72788618006E+03  0.00000000000E+00 0.  1.
         23    2    1    2    0    0  0.14147697354E+03  0.22499758928E+03 -0.29315969612E+03  0.40646452554E+03  0.92904003515E+02 0.  0.
         23    2    1    2    0    0 -0.16297775220E+03 -0.22370868415E+03 -0.30013457215E+03  0.41796985342E+03  0.89502591543E+02 0.  0.
        -11    1    4    4    0    0 -0.83914014990E+02 -0.54114045720E+02 -0.73019897110E+02  0.12370043343E+03  0.00000000000E+00 0. -1.
         11    1    4    4    0    0 -0.79063737214E+02 -0.16959463843E+03 -0.22711467504E+03  0.29426942000E+03  0.00000000000E+00 0.  1.
        -13    1    3    3    0    0  0.52976018094E+02  0.79060825857E+02 -0.44982870868E+02  0.10526410285E+03  0.00000000000E+00 0. -1.
         13    1    3    3    0    0  0.88500955449E+02  0.14593676342E+03 -0.24817682525E+03  0.30120042268E+03  0.00000000000E+00 0.  1.
         21    1    1    2  502  501  0.21500778661E+02 -0.12889051238E+01 -0.12924334359E+02  0.25119378537E+02  0.00000000000E+00 0.  1.
<scales pt_clust_5="13000.00000" pt_clust_6="13000.00000" pt_clust_7="13000.00000" pt_clust_8="13000.00000" pt_clust_9="21.53938"></scales>
<clustering>
<clus scale="   21.539">  1  9  2 -1</clus>
<clus scale="   89.503">  5  6 -1 -1</clus>
<clus scale="   92.904">  7  8 -1 -1</clus>
<clus scale="  285.412">  1  5  2 -1</clus>
<clus scale="   21.539">  1  5  2 -1</clus>
</clustering>
</event>
<event>
 9    1  0.9000149E-006  0.1725922E+03  0.7546771E-02  0.1177371E+00
         -2   -1    0    0    0  501 -0.00000000000E+00  0.00000000000E+00  0.73871170145E+03  0.73871170145E+03  0.00000000000E+00 0.  1.
          2   -1    0    0  502    0  0.00000000000E+00 -0.00000000000E+00 -0.85353711724E+02  0.85353711724E+02  0.00000000000E+00 0. -1.
         23    2    1    2    0    0 -0.39274022495E+02 -0.12112177075E+03  0.54999318162E+03  0.57513857215E+03  0.10990425446E+03 0.  0.
         23    2    1    2    0    0  0.32935822525E+02  0.15854791709E+03  0.82776077358E+02  0.20574368410E+03  0.96210052207E+02 0.  0.
        -11    1    4    4    0    0  0.18045379194E+02  0.52505421483E+02  0.81548248488E+02  0.98653797833E+02  0.00000000000E+00 0.  1.
         11    1    4    4    0    0  0.14890443331E+02  0.10604249560E+03  0.12278288693E+01  0.10708988627E+03  0.00000000000E+00 0. -1.
        -13    1    3    3    0    0  0.55397658808E+00 -0.12766665934E+03  0.42869697391E+03  0.44730322851E+03  0.00000000000E+00 0. -1.
         13    1    3    3    0    0 -0.39827999084E+02  0.65448885842E+01  0.12129620771E+03  0.12783534364E+03  0.00000000000E+00 0.  1.
         21    1    1    2  502  501  0.63381999704E+01 -0.37426146335E+02  0.20588730744E+02  0.43183156924E+02  0.00000000000E+00 0. -1.
<scales pt_clust_5="13000.00000" pt_clust_6="13000.00000" pt_clust_7="13000.00000" pt_clust_8="13000.00000" pt_clust_9="37.95905"></scales>
<clustering>
<clus scale="   37.959">  2  9  1 -1</clus>
<clus scale="   96.210">  5  6 -1 -1</clus>
<clus scale="  109.904">  7  8 -1 -1</clus>
<clus scale="  164.212">  2  5  1 -1</clus>
<clus scale="   37.959">  2  5  1 -1</clus>
</clustering>
</event>
<event>
 9    1  0.9000149E-006  0.1085505E+03  0.7546771E-02  0.1264112E+00
         -2   -1    0    0    0  501 -0.00000000000E+00  0.00000000000E+00  0.98558702082E+02  0.98558702082E+02  0.00000000000E+00 0.  1.
          2   -1    0    0  502    0  0.00000000000E+00 -0.00000000000E+00 -0.26349214486E+03  0.26349214486E+03  0.00000000000E+00 0. -1.
         23    2    1    2    0    0  0.13829092221E+02 -0.47840735379E+02  0.27035957403E+02  0.10834649482E+03  0.92347388670E+02 0.  0.
         23    2    1    2    0    0 -0.37629819332E+02  0.79655940540E+02 -0.14606990001E+03  0.19299647779E+03  0.90278195498E+02 0.  0.
        -13    1    4    4    0    0 -0.26513107849E+02 -0.50514198174E+01 -0.40954613371E+01  0.27298984112E+02  0.00000000000E+00 0.  1.
         13    1    4    4    0    0 -0.11116711483E+02  0.84707360357E+02 -0.14197443868E+03  0.16569749368E+03  0.00000000000E+00 0. -1.
        -13    1    3    3    0    0 -0.24841225685E+02 -0.39805365410E+02 -0.16338369868E+02  0.49683960580E+02  0.00000000000E+00 0. -1.
         13    1    3    3    0    0  0.38670317906E+02 -0.80353699691E+01  0.43374327271E+02  0.58662534242E+02  0.00000000000E+00 0.  1.
         21    1    1    2  502  501  0.23800727112E+02 -0.31815205160E+02 -0.45899500167E+02  0.60707874333E+02  0.00000000000E+00 0. -1.
<scales pt_clust_5="13000.00000" pt_clust_6="13000.00000" pt_clust_7="13000.00000" pt_clust_8="13000.00000" pt_clust_9="39.73263"></scales>
<clustering>
<clus scale="   39.733">  2  9  1 -1</clus>
<clus scale="   90.278">  5  6 -1 -1</clus>
<clus scale="   92.347">  7  8 -1 -1</clus>
<clus scale="  106.796">  2  5  1 -1</clus>
<clus scale="   39.733">  2  5  1 -1</clus>
</clustering>
</event>
<event>
 9    1  0.9000149E-006  0.1066512E+03  0.7546771E-02  0.1271291E+00
          2   -1    0    0  502    0  0.00000000000E+00  0.00000000000E+00  0.26867024679E+03  0.26867024679E+03  0.00000000000E+00 0. -1.
         -2   -1    0    0    0  501 -0.00000000000E+00 -0.00000000000E+00 -0.19037482517E+03  0.19037482517E+03  0.00000000000E+00 0.  1.
         23    2    1    2    0    0  0.11393607289E+02  0.29488545389E+02 -0.70824946291E+02  0.12605044924E+03  0.99363746607E+02 0.  0.
         23    2    1    2    0    0 -0.38120358702E+02 -0.30598331735E+02 -0.62323554317E+02  0.11986535886E+03  0.89966989389E+02 0.  0.
        -11    1    4    4    0    0 -0.67091313672E+02 -0.22648073996E+02 -0.33896630930E+02  0.78505803698E+02  0.00000000000E+00 0. -1.
         11    1    4    4    0    0  0.28970954970E+02 -0.79502577395E+01 -0.28426923387E+02  0.41359555163E+02  0.00000000000E+00 0.  1.
        -11    1    3    3    0    0  0.54539587726E+02  0.20858998760E+02 -0.28416334099E+02  0.64939606576E+02  0.00000000000E+00 0.  1.
         11    1    3    3    0    0 -0.43145980437E+02  0.86295466284E+01 -0.42408612193E+02  0.61110842663E+02  0.00000000000E+00 0. -1.
         21    1    1    2  502  501  0.26726751413E+02  0.11097863463E+01  0.21144392223E+03  0.21312926386E+03  0.00000000000E+00 0. -1.
<scales pt_clust_5="13000.00000" pt_clust_6="13000.00000" pt_clust_7="13000.00000" pt_clust_8="13000.00000" pt_clust_9="26.74978"></scales>
<clustering>
<clus scale="   26.750">  1  9  2 -1</clus>
<clus scale="   89.967">  5  6 -1 -1</clus>
<clus scale="   97.956">  1  5  2 -1</clus>
<clus scale="   99.364">  7  8 -1 -1</clus>
<clus scale="   26.750">  1  5  2 -1</clus>
</clustering>
</event>
<event>
 9    1  0.9000149E-006  0.9319877E+02  0.7546771E-02  0.1295432E+00
         -1   -1    0    0    0  501 -0.00000000000E+00  0.00000000000E+00  0.10897822160E+03  0.10897822160E+03  0.00000000000E+00 0.  1.
          1   -1    0    0  502    0  0.00000000000E+00 -0.00000000000E+00 -0.13207148325E+03  0.13207148325E+03  0.00000000000E+00 0. -1.
         23    2    1    2    0    0 -0.68676574964E+01 -0.10518843581E+02 -0.35346807137E+01  0.92177206251E+02  0.91248740236E+02 0.  0.
         23    2    1    2    0    0  0.14381937452E+02 -0.35513300119E+02 -0.23855802198E+02  0.10203353227E+03  0.91507965763E+02 0.  0.
        -11    1    4    4    0    0 -0.55876199806E+01 -0.19800052452E+02 -0.56809819367E+02  0.60420353778E+02  0.00000000000E+00 0. -1.
         11    1    4    4    0    0  0.19969557432E+02 -0.15713247668E+02  0.32954017169E+02  0.41613178488E+02  0.00000000000E+00 0.  1.
        -11    1    3    3    0    0 -0.15670497654E+02  0.35047363807E+02  0.16299227570E+02  0.41707877264E+02  0.00000000000E+00 0.  1.
         11    1    3    3    0    0  0.88028401573E+01 -0.45566207388E+02 -0.19833908284E+02  0.50469328987E+02  0.00000000000E+00 0. -1.
         21    1    1    2  502  501 -0.75142799552E+01  0.46032143701E+02  0.42972212625E+01  0.46838966337E+02  0.00000000000E+00 0.  1.
<scales pt_clust_5="13000.00000" pt_clust_6="13000.00000" pt_clust_7="13000.00000" pt_clust_8="13000.00000" pt_clust_9="46.64143"></scales>
<clustering>
<clus scale="   46.641">  1  9  2 -1</clus>
<clus scale="   91.249">  7  8 -1 -1</clus>
<clus scale="   91.508">  5  6 -1 -1</clus>
<clus scale="   92.944">  1  7  2 -1</clus>
<clus scale="   93.199">  2  5  1 -1</clus>
</clustering>
</event>
<event>
 9    1  0.9000149E-006  0.9807757E+02  0.7546771E-02  0.1285871E+00
         -1   -1    0    0    0  501 -0.00000000000E+00  0.00000000000E+00  0.17929625175E+03  0.17929625175E+03  0.00000000000E+00 0.  1.
          1   -1    0    0  502    0  0.00000000000E+00 -0.00000000000E+00 -0.68848807702E+02  0.68848807702E+02  0.00000000000E+00 0. -1.
         23    2    1    2    0    0 -0.16660296744E+02 -0.70524219488E+01  0.79184686631E+02  0.12446198893E+03  0.94304135373E+02 0.  0.
         23    2    1    2    0    0  0.32856140837E+02 -0.66165414764E+01  0.19245730071E+02  0.99320088907E+02  0.91491952229E+02 0.  0.
        -11    1    3    3    0    0 -0.25142757952E+02  0.28148001674E+02  0.79771255112E+02  0.88249200664E+02  0.00000000000E+00 0.  1.
         11    1    3    3    0    0  0.84824612080E+01 -0.35200423623E+02 -0.58656848096E+00  0.36212788265E+02  0.00000000000E+00 0. -1.
        -13    1    4    4    0    0 -0.90092206718E+01  0.34648250334E+02 -0.41744747569E+01  0.36042940333E+02  0.00000000000E+00 0.  1.
         13    1    4    4    0    0  0.41865361509E+02 -0.41264791811E+02  0.23420204828E+02  0.63277148574E+02  0.00000000000E+00 0. -1.
         21    1    1    2  502  501 -0.16195844093E+02  0.13668963425E+02  0.12017027348E+02  0.24362981617E+02  0.00000000000E+00 0. -1.
<scales pt_clust_5="13000.00000" pt_clust_6="13000.00000" pt_clust_7="13000.00000" pt_clust_8="13000.00000" pt_clust_9="21.19306"></scales>
<clustering>
<clus scale="   21.193">  1  9  2 -1</clus>
<clus scale="   91.492">  7  8 -1 -1</clus>
<clus scale="   94.304">  5  6 -1 -1</clus>
<clus scale="   95.377">  2  7  1 -1</clus>
<clus scale="   95.377">  2  5  1 -1</clus>
</clustering>
</event>
<event>
 9    1  0.9000149E-006  0.9662881E+02  0.7546771E-02  0.1287563E+00
         -2   -1    0    0    0  501 -0.00000000000E+00  0.00000000000E+00  0.18869446626E+03  0.18869446626E+03  0.00000000000E+00 0.  1.
          2   -1    0    0  502    0  0.00000000000E+00 -0.00000000000E+00 -0.25998786248E+03  0.25998786248E+03  0.00000000000E+00 0. -1.
         23    2    1    2    0    0 -0.24509662910E+02 -0.29763008420E+02  0.74936057032E+02  0.12788937320E+03  0.96196251940E+02 0.  0.
         23    2    1    2    0    0 -0.12688542754E+02 -0.43752092223E+02  0.42680746631E+02  0.11469773448E+03  0.96222032146E+02 0.  0.
        -11    1    3    3    0    0 -0.46413228410E+02 -0.76142027814E+01  0.83277592437E+02  0.95641629312E+02  0.00000000000E+00 0.  1.
         11    1    3    3    0    0  0.21903565499E+02 -0.22148805639E+02 -0.83415354051E+01  0.32247743886E+02  0.00000000000E+00 0. -1.
        -13    1    4    4    0    0 -0.25069316582E+02  0.18186858777E+02 -0.98968178362E+01  0.32514296384E+02  0.00000000000E+00 0.  1.
         13    1    4    4    0    0  0.12380773828E+02 -0.61938951000E+02  0.52577564467E+02  0.82183438093E+02  0.00000000000E+00 0. -1.
         21    1    1    2  502  501  0.37198205665E+02  0.73515100643E+02 -0.18891019988E+03  0.20609522107E+03  0.00000000000E+00 0. -1.
<scales pt_clust_5="13000.00000" pt_clust_6="13000.00000" pt_clust_7="13000.00000" pt_clust_8="13000.00000" pt_clust_9="82.39039"></scales>
<clustering>
<clus scale="   82.390">  2  9  1 -1</clus>
<clus scale="   96.196">  5  6 -1 -1</clus>
<clus scale="   96.222">  7  8 -1 -1</clus>
<clus scale="   96.603">  1  5  2 -1</clus>
<clus scale="   82.390">  2  5  1 -1</clus>
</clustering>
</event>
<event>
 9    1  0.9000149E-006  0.1025500E+03  0.7546771E-02  0.1284547E+00
          2   -1    0    0  502    0  0.00000000000E+00  0.00000000000E+00  0.12175871877E+03  0.12175871877E+03  0.00000000000E+00 0. -1.
         -2   -1    0    0    0  501 -0.00000000000E+00 -0.00000000000E+00 -0.15351862865E+03  0.15351862865E+03  0.00000000000E+00 0.  1.
         23    2    1    2    0    0  0.20134831566E+02  0.36409260191E+02 -0.76779537384E+02  0.11330717634E+03  0.72196767102E+02 0.  0.
         23    2    1    2    0    0 -0.59684623086E+02 -0.35469852599E+02  0.25341791653E+02  0.11778549364E+03  0.91710694206E+02 0.  0.
        -11    1    4    4    0    0 -0.55928983686E+02  0.15704867696E+01 -0.19727995080E+02  0.59327155963E+02  0.00000000000E+00 0.  1.
         11    1    4    4    0    0 -0.37556394003E+01 -0.37040339369E+02  0.45069786733E+02  0.58458337677E+02  0.00000000000E+00 0. -1.
        -13    1    3    3    0    0  0.23385482320E+02 -0.17388395736E+02 -0.31532133860E+02  0.42936145092E+02  0.00000000000E+00 0.  1.
         13    1    3    3    0    0 -0.32506507538E+01  0.53797655927E+02 -0.45247403525E+02  0.70371031251E+02  0.00000000000E+00 0. -1.
         21    1    1    2  502  501  0.39549791520E+02 -0.93940759191E+00  0.19677835855E+02  0.44184677433E+02  0.00000000000E+00 0. -1.
<scales pt_clust_5="13000.00000" pt_clust_6="13000.00000" pt_clust_7="13000.00000" pt_clust_8="13000.00000" pt_clust_9="39.56095"></scales>
<clustering>
<clus scale="   39.561">  1  9  2 -1</clus>
<clus scale="   72.197">  7  8 -1 -1</clus>
<clus scale="   85.545">  2  7  1 -1</clus>
<clus scale="   91.711">  5  6 -1 -1</clus>
<clus scale="   39.561">  1  5  2 -1</clus>
</clustering>
</event>
<event>
 9    1  0.9000149E-006  0.1036656E+03  0.7546771E-02  0.1273142E+00
         -4   -1    0    0    0  501 -0.00000000000E+00  0.00000000000E+00  0.78851389975E+03  0.78851389975E+03  0.00000000000E+00 0.  1.
          4   -1    0    0  502    0  0.00000000000E+00 -0.00000000000E+00 -0.17019942831E+02  0.17019942831E+02  0.00000000000E+00 0. -1.
         23    2    1    2    0    0  0.28762108381E+02 -0.43036417348E+02  0.39890123176E+03  0.41306451374E+03  0.93918622837E+02 0.  0.
         23    2    1    2    0    0 -0.93311967089E+01  0.35712290566E+02  0.33335850011E+03  0.34807870397E+03  0.93104541403E+02 0.  0.
        -11    1    3    3    0    0  0.39840878124E+02 -0.64203611003E+02  0.35627546697E+03  0.36419995552E+03  0.00000000000E+00 0.  1.
         11    1    3    3    0    0 -0.11078769743E+02  0.21167193655E+02  0.42625764787E+02  0.48864558218E+02  0.00000000000E+00 0. -1.
        -13    1    4    4    0    0  0.33834690083E+02  0.21893605878E+02  0.69361474182E+02  0.80219264096E+02  0.00000000000E+00 0.  1.
         13    1    4    4    0    0 -0.43165886792E+02  0.13818684688E+02  0.26399702593E+03  0.26785943987E+03  0.00000000000E+00 0. -1.
         21    1    1    2  502  501 -0.19430911672E+02  0.73241267827E+01  0.39234225049E+02  0.44390624875E+02  0.00000000000E+00 0. -1.
<scales pt_clust_5="13000.00000" pt_clust_6="13000.00000" pt_clust_7="13000.00000" pt_clust_8="13000.00000" pt_clust_9="20.76543"></scales>
<clustering>
<clus scale="   20.765">  2  9  1 -1</clus>
<clus scale="   93.105">  7  8 -1 -1</clus>
<clus scale="   93.919">  5  6 -1 -1</clus>
<clus scale="  102.929">  2  7  1 -1</clus>
<clus scale="   20.765">  2  5  1 -1</clus>
</clustering>
</event>
<event>
 9    1  0.9000149E-006  0.1021240E+03  0.7546771E-02  0.1277002E+00
          1   -1    0    0  502    0  0.00000000000E+00  0.00000000000E+00  0.19187670331E+03  0.19187670331E+03  0.00000000000E+00 0. -1.
         -1   -1    0    0    0  501 -0.00000000000E+00 -0.00000000000E+00 -0.13130852747E+03  0.13130852747E+03  0.00000000000E+00 0.  1.
         23    2    1    2    0    0  0.37500338696E+02  0.16089934437E+02 -0.39842970923E+02  0.10455731499E+03  0.87633374885E+02 0.  0.
         23    2    1    2    0    0 -0.46455078390E+02 -0.39862099914E+02 -0.61513587966E+01  0.10907942970E+03  0.90074532749E+02 0.  0.
        -11    1    3    3    0    0 -0.57727602752E+00  0.43608884887E+02 -0.10417882854E+01  0.43625146550E+02  0.00000000000E+00 0. -1.
         11    1    3    3    0    0  0.38077614724E+02 -0.27518950450E+02 -0.38801182638E+02  0.60932168442E+02  0.00000000000E+00 0.  1.
        -11    1    4    4    0    0  0.27023662695E+00 -0.50865843242E+02 -0.26009518858E+02  0.57130570693E+02  0.00000000000E+00 0.  1.
         11    1    4    4    0    0 -0.46725315016E+02  0.11003743328E+02  0.19858160062E+02  0.51948859002E+02  0.00000000000E+00 0. -1.
         21    1    1    2  502  501  0.89547396931E+01  0.23772165477E+02  0.10656250556E+03  0.10954848609E+03  0.00000000000E+00 0. -1.
<scales pt_clust_5="13000.00000" pt_clust_6="13000.00000" pt_clust_7="13000.00000" pt_clust_8="13000.00000" pt_clust_9="25.40282"></scales>
<clustering>
<clus scale="   25.403">  1  9  2 -1</clus>
<clus scale="   87.633">  5  6 -1 -1</clus>
<clus scale="   90.075">  7  8 -1 -1</clus>
<clus scale="   99.977">  2  5  1 -1</clus>
<clus scale="   25.403">  1  5  2 -1</clus>
</clustering>
</event>
<event>
 9    1  0.9000149E-006  0.1049575E+03  0.7546771E-02  0.1272669E+00
         -1   -1    0    0    0  501 -0.00000000000E+00  0.00000000000E+00  0.11793368286E+03  0.11793368286E+03  0.00000000000E+00 0.  1.
          1   -1    0    0  502    0  0.00000000000E+00 -0.00000000000E+00 -0.13125706416E+03  0.13125706416E+03  0.00000000000E+00 0. -1.
         23    2    1    2    0    0 -0.30031152082E+02  0.28489030738E+02  0.38874516886E+02  0.10779256186E+03  0.91621576948E+02 0.  0.
         23    2    1    2    0    0  0.41055303728E+02 -0.91030267733E+01 -0.29767527202E+02  0.10976796840E+03  0.96925219376E+02 0.  0.
        -13    1    4    4    0    0  0.64392696422E+02 -0.28940978159E+01 -0.47278786437E+02  0.79937968461E+02  0.00000000000E+00 0.  1.
         13    1    4    4    0    0 -0.23337392694E+02 -0.62089289575E+01  0.17511259235E+02  0.29829999942E+02  0.00000000000E+00 0. -1.
        -13    1    3    3    0    0  0.25073988098E+02  0.36361718375E+02  0.23560712374E+02  0.50059830303E+02  0.00000000000E+00 0.  1.
         13    1    3    3    0    0 -0.55105140181E+02 -0.78726876370E+01  0.15313804512E+02  0.57732731562E+02  0.00000000000E+00 0. -1.
         21    1    1    2  502  501 -0.11024151646E+02 -0.19386003965E+02 -0.22430370979E+02  0.31630216748E+02  0.00000000000E+00 0. -1.
<scales pt_clust_5="13000.00000" pt_clust_6="13000.00000" pt_clust_7="13000.00000" pt_clust_8="13000.00000" pt_clust_9="22.30132"></scales>
<clustering>
<clus scale="   22.301">  2  9  1 -1</clus>
<clus scale="   91.622">  7  8 -1 -1</clus>
<clus scale="   96.925">  5  6 -1 -1</clus>
<clus scale="  100.080">  1  7  2 -1</clus>
<clus scale="   22.301">  2  5  1 -1</clus>
</clustering>
</event>
<event>
 9    1  0.9000149E-006  0.1378294E+03  0.7546771E-02  0.1216383E+00
         -1   -1    0    0    0  501 -0.00000000000E+00  0.00000000000E+00  0.86868887739E+02  0.86868887739E+02  0.00000000000E+00 0.  1.
          1   -1    0    0  502    0  0.00000000000E+00 -0.00000000000E+00 -0.36662769613E+03  0.36662769613E+03  0.00000000000E+00 0. -1.
         23    2    1    2    0    0 -0.22175888389E+02 -0.10722440033E+03 -0.16651416395E+02  0.14360379791E+03  0.91410825690E+02 0.  0.
         23    2    1    2    0    0  0.12568757375E+02  0.88036854681E+02 -0.15913886432E+03  0.20373293657E+03  0.90958616212E+02 0.  0.
        -11    1    3    3    0    0  0.18030640294E+02 -0.10420234074E+02 -0.31473273862E+02  0.37739266490E+02  0.00000000000E+00 0. -1.
         11    1    3    3    0    0 -0.40206528683E+02 -0.96804166260E+02  0.14821857467E+02  0.10586453142E+03  0.00000000000E+00 0.  1.
        -11    1    4    4    0    0  0.28060892328E+02  0.44500146400E+01 -0.66974949642E+01  0.29190285153E+02  0.00000000000E+00 0.  1.
         11    1    4    4    0    0 -0.15492134953E+02  0.83586840041E+02 -0.15244136935E+03  0.17454265142E+03  0.00000000000E+00 0. -1.
         21    1    1    2  502  501  0.96071310143E+01  0.19187545652E+02 -0.10396852768E+03  0.10615984939E+03  0.00000000000E+00 0. -1.
<scales pt_clust_5="13000.00000" pt_clust_6="13000.00000" pt_clust_7="13000.00000" pt_clust_8="13000.00000" pt_clust_9="21.45831"></scales>
<clustering>
<clus scale="   21.458">  2  9  1 -1</clus>
<clus scale="   90.959">  7  8 -1 -1</clus>
<clus scale="   91.411">  5  6 -1 -1</clus>
<clus scale="  137.530">  2  7  1 -1</clus>
<clus scale="   21.458">  2  5  1 -1</clus>
</clustering>
</event>
<event>
 9    1  0.9000149E-006  0.1086842E+03  0.7546771E-02  0.1263332E+00
          1   -1    0    0  502    0  0.00000000000E+00  0.00000000000E+00  0.97476130664E+03  0.97476130664E+03  0.00000000000E+00 0. -1.
         -1   -1    0    0    0  501 -0.00000000000E+00 -0.00000000000E+00 -0.39407573466E+02  0.39407573466E+02  0.00000000000E+00 0.  1.
         23    2    1    2    0    0 -0.16299434010E+02 -0.44464363602E+02  0.89005258874E+02  0.13563330897E+03  0.90728756272E+02 0.  0.
         23    2    1    2    0    0  0.86588934445E+02  0.84805114453E+02  0.47321059343E+03  0.49669808190E+03  0.89950918953E+02 0.  0.
        -11    1    3    3    0    0 -0.45904642815E+02 -0.22829762977E+02  0.84298862299E+02  0.98664747983E+02  0.00000000000E+00 0. -1.
         11    1    3    3    0    0  0.29605208805E+02 -0.21634600625E+02  0.47063965748E+01  0.36968560985E+02  0.00000000000E+00 0.  1.
        -13    1    4    4    0    0  0.87553032802E+02  0.32497203808E+02  0.23641845583E+03  0.25419537381E+03  0.00000000000E+00 0.  1.
         13    1    4    4    0    0 -0.96409835734E+00  0.52307910645E+02  0.23679213760E+03  0.24250270809E+03  0.00000000000E+00 0. -1.
         21    1    1    2  502  501 -0.70289500434E+02 -0.40340750851E+02  0.37313788086E+03  0.38183748924E+03  0.00000000000E+00 0. -1.
<scales pt_clust_5="13000.00000" pt_clust_6="13000.00000" pt_clust_7="13000.00000" pt_clust_8="13000.00000" pt_clust_9="81.04314"></scales>
<clustering>
<clus scale="   81.043">  1  9  2 -1</clus>
<clus scale="   89.951">  7  8 -1 -1</clus>
<clus scale="   90.729">  5  6 -1 -1</clus>
<clus scale="  108.036">  1  7  2 -1</clus>
<clus scale="   81.043">  1  5  2 -1</clus>
</clustering>
</event>
<event>
 9    1  0.9000149E-006  0.1812568E+03  0.7546771E-02  0.1166698E+00
         -1   -1    0    0    0  501 -0.00000000000E+00  0.00000000000E+00  0.22159489052E+03  0.22159489052E+03  0.00000000000E+00 0.  1.
          1   -1    0    0  502    0  0.00000000000E+00 -0.00000000000E+00 -0.94298418722E+03  0.94298418722E+03  0.00000000000E+00 0. -1.
         23    2    1    2    0    0 -0.23925131755E+01 -0.15829842332E+03  0.14144999740E+03  0.23181202188E+03  0.93083815881E+02 0.  0.
         23    2    1    2    0    0  0.14117130073E+03  0.11215733649E+03 -0.58025112886E+03  0.61457745373E+03  0.92225103998E+02 0.  0.
        -11    1    3    3    0    0 -0.31506737486E+02 -0.23861341257E+02  0.60321598398E+02  0.72116110176E+02  0.00000000000E+00 0. -1.
         11    1    3    3    0    0  0.29114224310E+02 -0.13443708206E+03  0.81128399005E+02  0.15969591171E+03  0.00000000000E+00 0.  1.
        -13    1    4    4    0    0  0.14050735004E+03  0.64335453048E+02 -0.43260009785E+03  0.45937371562E+03  0.00000000000E+00 0. -1.
         13    1    4    4    0    0  0.66395068609E+00  0.47821883443E+02 -0.14765103101E+03  0.15520373811E+03  0.00000000000E+00 0.  1.
         21    1    1    2  502  501 -0.13877878755E+03  0.46141086828E+02 -0.28258816524E+03  0.31818960213E+03  0.00000000000E+00 0.  1.
<scales pt_clust_5="13000.00000" pt_clust_6="13000.00000" pt_clust_7="13000.00000" pt_clust_8="13000.00000" pt_clust_9="146.24825"></scales>
<clustering>
<clus scale="   92.225">  7  8 -1 -1</clus>
<clus scale="   93.084">  5  6 -1 -1</clus>
<clus scale="  146.248">  2  9  1 -1</clus>
<clus scale="  180.817">  2  7  1 -1</clus>
<clus scale="  146.248">  2  5  1 -1</clus>
</clustering>
</event>
<event>
 9    1  0.9000149E-006  0.1180143E+03  0.7546771E-02  0.1252919E+00
         -1   -1    0    0    0  501 -0.00000000000E+00  0.00000000000E+00  0.44224205457E+02  0.44224205457E+02  0.00000000000E+00 0.  1.
          1   -1    0    0  502    0  0.00000000000E+00 -0.00000000000E+00 -0.41796235526E+03  0.41796235526E+03  0.00000000000E+00 0. -1.
         23    2    1    2    0    0  0.55893356159E+02  0.49709986582E+02 -0.11141674308E+03  0.16843377824E+03  0.10178947384E+03 0.  0.
         23    2    1    2    0    0 -0.30294447382E+02 -0.21049446508E+02 -0.20366250246E+03  0.22362719701E+03  0.84675117919E+02 0.  0.
        -11    1    3    3    0    0 -0.21329611015E+02  0.31541671149E+02 -0.94325922162E+01  0.39227581124E+02  0.00000000000E+00 0. -1.
         11    1    3    3    0    0  0.77222967174E+02  0.18168315433E+02 -0.10198415087E+03  0.12920619711E+03  0.00000000000E+00 0.  1.
        -13    1    4    4    0    0 -0.49230814571E+02  0.85285545159E+01 -0.73969536087E+02  0.89263103321E+02  0.00000000000E+00 0.  1.
         13    1    4    4    0    0  0.18936367189E+02 -0.29578001024E+02 -0.12969296637E+03  0.13436409369E+03  0.00000000000E+00 0. -1.
         21    1    1    2  502  501 -0.25598908777E+02 -0.28660540074E+02 -0.58658904260E+02  0.70125585465E+02  0.00000000000E+00 0. -1.
<scales pt_clust_5="13000.00000" pt_clust_6="13000.00000" pt_clust_7="13000.00000" pt_clust_8="13000.00000" pt_clust_9="38.42825"></scales>
<clustering>
<clus scale="   38.428">  2  9  1 -1</clus>
<clus scale="   84.675">  7  8 -1 -1</clus>
<clus scale="  101.789">  5  6 -1 -1</clus>
<clus scale="  103.615">  2  7  1 -1</clus>
<clus scale="   38.428">  2  5  1 -1</clus>
</clustering>
</event>
<event>
 9    1  0.9000149E-006  0.1919399E+03  0.7546771E-02  0.1156754E+00
          2   -1    0    0  502    0  0.00000000000E+00  0.00000000000E+00  0.18283712526E+03  0.18283712526E+03  0.00000000000E+00 0. -1.
         -2   -1    0    0    0  501 -0.00000000000E+00 -0.00000000000E+00 -0.23172576872E+03  0.23172576872E+03  0.00000000000E+00 0.  1.
         23    2    1    2    0    0 -0.15090392970E+02 -0.15758233975E+03 -0.36611585173E+02  0.18695999534E+03  0.92486312102E+02 0.  0.
         23    2    1    2    0    0  0.14503443623E+02  0.17913892585E+03 -0.22925584066E+02  0.20355249293E+03  0.92773543324E+02 0.  0.
        -11    1    3    3    0    0 -0.72497223197E+01 -0.12412562638E+03  0.14701758010E+02  0.12520331979E+03  0.00000000000E+00 0. -1.
         11    1    3    3    0    0 -0.78406706502E+01 -0.33456713367E+02 -0.51313343183E+02  0.61756675544E+02  0.00000000000E+00 0.  1.
        -13    1    4    4    0    0  0.52672054460E+02  0.80652573436E+02 -0.16517638637E+02  0.97734412103E+02  0.00000000000E+00 0.  1.
         13    1    4    4    0    0 -0.38168610837E+02  0.98486352412E+02 -0.64079454285E+01  0.10581808082E+03  0.00000000000E+00 0. -1.
         21    1    1    2  502  501  0.58694934637E+00 -0.21556586099E+02  0.10648525775E+02  0.24050405713E+02  0.00000000000E+00 0.  1.
<scales pt_clust_5="13000.00000" pt_clust_6="13000.00000" pt_clust_7="13000.00000" pt_clust_8="13000.00000" pt_clust_9="21.56458"></scales>
<clustering>
<clus scale="   21.565">  1  9  2 -1</clus>
<clus scale="   92.486">  5  6 -1 -1</clus>
<clus scale="   92.774">  7  8 -1 -1</clus>
<clus scale="  191.801">  2  5  1 -1</clus>
<clus scale="   21.565">  1  5  2 -1</clus>
</clustering>
</event>
<event>
 9    1  0.9000149E-006  0.1395546E+03  0.7546771E-02  0.1215946E+00
         -1   -1    0    0    0  501 -0.00000000000E+00  0.00000000000E+00  0.25798516966E+03  0.25798516966E+03  0.00000000000E+00 0.  1.
          1   -1    0    0  502    0  0.00000000000E+00 -0.00000000000E+00 -0.14424806639E+03  0.14424806639E+03  0.00000000000E+00 0. -1.
         23    2    1    2    0    0 -0.11603727914E+03  0.13052906091E+02  0.12313956818E+03  0.19171398103E+03  0.89195676816E+02 0.  0.
         23    2    1    2    0    0  0.94853901201E+02 -0.18154734058E+02  0.59200926063E+02  0.13853877571E+03  0.79758296037E+02 0.  0.
        -11    1    4    4    0    0  0.17996882795E+02  0.13688721684E+02  0.49954927220E+02  0.54833964340E+02  0.00000000000E+00 0.  1.
         11    1    4    4    0    0  0.76857018406E+02 -0.31843455742E+02  0.92459988431E+01  0.83704811370E+02  0.00000000000E+00 0. -1.
        -13    1    3    3    0    0 -0.38349826327E+02  0.14693952941E+02 -0.54917748514E+01  0.41434056323E+02  0.00000000000E+00 0. -1.
         13    1    3    3    0    0 -0.77687452815E+02 -0.16410468501E+01  0.12863134303E+03  0.15027992471E+03  0.00000000000E+00 0.  1.
         21    1    1    2  502  501  0.21183377941E+02  0.51018279666E+01 -0.68603390975E+02  0.71980479318E+02  0.00000000000E+00 0. -1.
<scales pt_clust_5="13000.00000" pt_clust_6="13000.00000" pt_clust_7="13000.00000" pt_clust_8="13000.00000" pt_clust_9="21.78908"></scales>
<clustering>
<clus scale="   21.789">  2  9  1 -1</clus>
<clus scale="   79.758">  5  6 -1 -1</clus>
<clus scale="   89.196">  7  8 -1 -1</clus>
<clus scale="  133.720">  2  5  1 -1</clus>
<clus scale="   21.789">  2  5  1 -1</clus>
</clustering>
</event>
<event>
 9    1  0.9000149E-006  0.1030772E+03  0.7546771E-02  0.1277522E+00
          3   -1    0    0  502    0  0.00000000000E+00  0.00000000000E+00  0.90782945901E+02  0.90782945901E+02  0.00000000000E+00 0. -1.
         -3   -1    0    0    0  501 -0.00000000000E+00 -0.00000000000E+00 -0.14177969310E+03  0.14177969310E+03  0.00000000000E+00 0.  1.
         23    2    1    2    0    0 -0.19802548033E+02  0.75420499888E+01 -0.33344423375E+02  0.99310792952E+02  0.91113992339E+02 0.  0.
         23    2    1    2    0    0  0.40691378729E+02 -0.18242987292E+02 -0.19637163593E+02  0.10969780402E+03  0.98282221818E+02 0.  0.
        -11    1    4    4    0    0 -0.18186907695E+02 -0.27678073730E+02 -0.34933984881E+02  0.48137539162E+02  0.00000000000E+00 0.  1.
         11    1    4    4    0    0  0.58878286424E+02  0.94350864385E+01  0.15296821288E+02  0.61560264862E+02  0.00000000000E+00 0. -1.
        -13    1    3    3    0    0  0.31806426082E+02  0.21630056950E+02 -0.50575152690E+01  0.38795445151E+02  0.00000000000E+00 0. -1.
         13    1    3    3    0    0 -0.51608974115E+02 -0.14088006961E+02 -0.28286908106E+02  0.60515347801E+02  0.00000000000E+00 0.  1.
         21    1    1    2  502  501 -0.20888830697E+02  0.10700937303E+02  0.19848397631E+01  0.23554042029E+02  0.00000000000E+00 0. -1.
<scales pt_clust_5="13000.00000" pt_clust_6="13000.00000" pt_clust_7="13000.00000" pt_clust_8="13000.00000" pt_clust_9="23.47026"></scales>
<clustering>
<clus scale="   23.470">  1  9  2 -1</clus>
<clus scale="   91.114">  7  8 -1 -1</clus>
<clus scale="   96.267">  2  7  1 -1</clus>
<clus scale="   98.282">  5  6 -1 -1</clus>
<clus scale="   23.470">  1  5  2 -1</clus>
</clustering>
</event>
<event>
 9    1  0.9000149E-006  0.9110258E+02  0.7546771E-02  0.1300961E+00
          2   -1    0    0  502    0  0.00000000000E+00  0.00000000000E+00  0.18322092982E+03  0.18322092982E+03  0.00000000000E+00 0. -1.
         -2   -1    0    0    0  501 -0.00000000000E+00 -0.00000000000E+00 -0.16962751683E+03  0.16962751683E+03  0.00000000000E+00 0.  1.
         23    2    1    2    0    0  0.40560969928E+02 -0.80483398914E+01 -0.49725561361E+02  0.11136370106E+03  0.90660214014E+02 0.  0.
         23    2    1    2    0    0  0.76446244470E+01 -0.11976971158E+02  0.12900029415E+03  0.15758702105E+03  0.89390744444E+02 0.  0.
        -11    1    4    4    0    0  0.28305047652E+02  0.25792336237E+02  0.26946701355E+02  0.46824620073E+02  0.00000000000E+00 0.  1.
         11    1    4    4    0    0 -0.20660423205E+02 -0.37769307395E+02  0.10205359280E+03  0.11076240098E+03  0.00000000000E+00 0. -1.
        -11    1    3    3    0    0 -0.76254639675E+01 -0.32404469424E+02 -0.46615846922E+02  0.57282061097E+02  0.00000000000E+00 0. -1.
         11    1    3    3    0    0  0.48186433895E+02  0.24356129532E+02 -0.31097144395E+01  0.54081639964E+02  0.00000000000E+00 0.  1.
         21    1    1    2  502  501 -0.48205594375E+02  0.20025311050E+02 -0.65681319803E+02  0.83897724538E+02  0.00000000000E+00 0. -1.
<scales pt_clust_5="13000.00000" pt_clust_6="13000.00000" pt_clust_7="13000.00000" pt_clust_8="13000.00000" pt_clust_9="52.19954"></scales>
<clustering>
<clus scale="   52.200">  2  9  1 -1</clus>
<clus scale="   89.391">  5  6 -1 -1</clus>
<clus scale="   89.839">  1  5  2 -1</clus>
<clus scale="   90.660">  7  8 -1 -1</clus>
<clus scale="   89.839">  1  5  2 -1</clus>
</clustering>
</event>
<event>
 9    1  0.9000149E-006  0.1340247E+03  0.7546771E-02  0.1222055E+00
         -2   -1    0    0    0  501 -0.00000000000E+00  0.00000000000E+00  0.37301619325E+02  0.37301619325E+02  0.00000000000E+00 0.  1.
          2   -1    0    0  502    0  0.00000000000E+00 -0.00000000000E+00 -0.68114542397E+03  0.68114542397E+03  0.00000000000E+00 0. -1.
         23    2    1    2    0    0 -0.78102984751E+02  0.74069302304E+02 -0.18717253652E+03  0.23366266317E+03  0.89321576118E+02 0.  0.
         23    2    1    2    0    0  0.62368482266E+02 -0.58015350894E+02 -0.27819384066E+03  0.30489692632E+03  0.91185054563E+02 0.  0.
        -11    1    3    3    0    0 -0.59426010687E+02  0.41665759798E+02 -0.42223419174E+02  0.83966084894E+02  0.00000000000E+00 0. -1.
         11    1    3    3    0    0 -0.18676974064E+02  0.32403542506E+02 -0.14494911735E+03  0.14969657827E+03  0.00000000000E+00 0.  1.
        -13    1    4    4    0    0  0.50072382682E+02 -0.81907735428E+02 -0.23709742555E+03  0.25579544529E+03  0.00000000000E+00 0.  1.
         13    1    4    4    0    0  0.12296099585E+02  0.23892384533E+02 -0.41096415114E+02  0.49101481026E+02  0.00000000000E+00 0. -1.
         21    1    1    2  502  501  0.15734502485E+02 -0.16053951410E+02 -0.17847742747E+03  0.17988745381E+03  0.00000000000E+00 0.  1.
<scales pt_clust_5="13000.00000" pt_clust_6="13000.00000" pt_clust_7="13000.00000" pt_clust_8="13000.00000" pt_clust_9="22.47897"></scales>
<clustering>
<clus scale="   22.479">  2  9  1 -1</clus>
<clus scale="   89.322">  5  6 -1 -1</clus>
<clus scale="   91.185">  7  8 -1 -1</clus>
<clus scale="  132.764">  1  5  2 -1</clus>
<clus scale="   22.479">  2  5  1 -1</clus>
</clustering>
</event>
<event>
 9    1  0.9000149E-006  0.1723455E+03  0.7546771E-02  0.1175870E+00
         -1   -1    0    0    0  501 -0.00000000000E+00  0.00000000000E+00  0.44459536902E+02  0.44459536902E+02  0.00000000000E+00 0.  1.
          1   -1    0    0  502    0  0.00000000000E+00 -0.00000000000E+00 -0.13109585049E+04  0.13109585049E+04  0.00000000000E+00 0. -1.
         23    2    1    2    0    0 -0.56943038884E+02 -0.10295227718E+03 -0.27048481432E+03  0.30988945529E+03  0.95014518198E+02 0.  0.
         23    2    1    2    0    0  0.10707542618E+03  0.15567926245E+03 -0.47400519899E+03  0.51847380757E+03  0.91831262761E+02 0.  0.
        -11    1    4    4    0    0 -0.10214824880E+01  0.23017022057E+02 -0.12389542804E+02  0.26159654083E+02  0.00000000000E+00 0.  1.
         11    1    4    4    0    0  0.10809690867E+03  0.13266224039E+03 -0.46161565619E+03  0.49231415349E+03  0.00000000000E+00 0. -1.
        -11    1    3    3    0    0 -0.78423468495E+02 -0.85729370958E+02 -0.17153872153E+03  0.20718421378E+03  0.00000000000E+00 0.  1.
         11    1    3    3    0    0  0.21480429611E+02 -0.17222906218E+02 -0.98946092792E+02  0.10270524151E+03  0.00000000000E+00 0. -1.
         21    1    1    2  502  501 -0.50132387297E+02 -0.52726985270E+02 -0.52200895471E+03  0.52705477897E+03  0.00000000000E+00 0.  1.
<scales pt_clust_5="13000.00000" pt_clust_6="13000.00000" pt_clust_7="13000.00000" pt_clust_8="13000.00000" pt_clust_9="72.75570"></scales>
<clustering>
<clus scale="   72.756">  2  9  1 -1</clus>
<clus scale="   91.831">  5  6 -1 -1</clus>
<clus scale="   95.015">  7  8 -1 -1</clus>
<clus scale="  170.611">  2  5  1 -1</clus>
<clus scale="   72.756">  2  5  1 -1</clus>
</clustering>
</event>
<event>
 9    1  0.9000149E-006  0.1317995E+03  0.7546771E-02  0.1225099E+00
         -2   -1    0    0    0  501 -0.00000000000E+00  0.00000000000E+00  0.21294111849E+02  0.21294111849E+02  0.00000000000E+00 0.  1.
          2   -1    0    0  502    0  0.00000000000E+00 -0.00000000000E+00 -0.10898844266E+04  0.10898844266E+04  0.00000000000E+00 0. -1.
         23    2    1    2    0    0  0.11031648222E+03 -0.34882783585E+02 -0.50039670713E+03  0.52155658180E+03  0.90762705296E+02 0.  0.
         23    2    1    2    0    0 -0.77939785319E+02  0.22880541243E+02 -0.47745735176E+03  0.49253759925E+03  0.89608228529E+02 0.  0.
        -11    1    3    3    0    0  0.20672837185E+02  0.98365321819E+01 -0.18721173735E+02  0.29573736806E+02  0.00000000000E+00 0.  1.
         11    1    3    3    0    0  0.89643645038E+02 -0.44719315767E+02 -0.48167553339E+03  0.49198284499E+03  0.00000000000E+00 0. -1.
        -13    1    4    4    0    0 -0.85990541395E+02  0.41776718099E+02 -0.43488770322E+03  0.44527180665E+03  0.00000000000E+00 0.  1.
         13    1    4    4    0    0  0.80507560757E+01 -0.18896176856E+02 -0.42569648534E+02  0.47265792594E+02  0.00000000000E+00 0. -1.
         21    1    1    2  502  501 -0.32376696904E+02  0.12002242342E+02 -0.90736255821E+02  0.97084357360E+02  0.00000000000E+00 0.  1.
<scales pt_clust_5="13000.00000" pt_clust_6="13000.00000" pt_clust_7="13000.00000" pt_clust_8="13000.00000" pt_clust_9="34.52976"></scales>
<clustering>
<clus scale="   34.530">  1  9  2 -1</clus>
<clus scale="   89.608">  7  8 -1 -1</clus>
<clus scale="   90.763">  5  6 -1 -1</clus>
<clus scale="  131.007">  2  7  1 -1</clus>
<clus scale="  131.007">  2  5  1 -1</clus>
</clustering>
</event>
<event>
 9    1  0.9000149E-006  0.9637819E+02  0.7546771E-02  0.1288341E+00
         -1   -1    0    0    0  501 -0.00000000000E+00  0.00000000000E+00  0.20601524725E+03  0.20601524725E+03  0.00000000000E+00 0.  1.
          1   -1    0    0  502    0  0.00000000000E+00 -0.00000000000E+00 -0.83120741910E+02  0.83120741910E+02  0.00000000000E+00 0. -1.
         23    2    1    2    0    0  0.15168222005E+02 -0.15383679636E+02  0.10637637842E+03  0.14212492930E+03  0.91743278144E+02 0.  0.
         23    2    1    2    0    0 -0.38600995765E+02  0.23383343923E+02  0.43191656378E+02  0.11061646289E+03  0.91288909697E+02 0.  0.
        -11    1    4    4    0    0  0.48322259800E+01  0.32218538643E+02  0.55730344053E+02  0.64554286368E+02  0.00000000000E+00 0.  1.
         11    1    4    4    0    0 -0.43433221745E+02 -0.88351947201E+01 -0.12538687676E+02  0.46062176518E+02  0.00000000000E+00 0. -1.
        -11    1    3    3    0    0  0.49476840888E+02  0.31342422165E+01  0.34640938867E+02  0.60479549470E+02  0.00000000000E+00 0.  1.
         11    1    3    3    0    0 -0.34308618884E+02 -0.18517921853E+02  0.71735439557E+02  0.81645379831E+02  0.00000000000E+00 0. -1.
         21    1    1    2  502  501  0.23432773760E+02 -0.79996642869E+01 -0.26673529462E+02  0.36394596972E+02  0.00000000000E+00 0.  1.
<scales pt_clust_5="13000.00000" pt_clust_6="13000.00000" pt_clust_7="13000.00000" pt_clust_8="13000.00000" pt_clust_9="24.76064"></scales>
<clustering>
<clus scale="   24.761">  2  9  1 -1</clus>
<clus scale="   91.289">  5  6 -1 -1</clus>
<clus scale="   91.743">  7  8 -1 -1</clus>
<clus scale="   95.946">  2  5  1 -1</clus>
<clus scale="   24.761">  2  5  1 -1</clus>
</clustering>
</event>
<event>
 9    1  0.9000149E-006  0.1972364E+03  0.7546771E-02  0.1152538E+00
          1   -1    0    0  502    0  0.00000000000E+00  0.00000000000E+00  0.98830596071E+03  0.98830596071E+03  0.00000000000E+00 0. -1.
         -1   -1    0    0    0  501 -0.00000000000E+00 -0.00000000000E+00 -0.12920477793E+03  0.12920477793E+03  0.00000000000E+00 0.  1.
         23    2    1    2    0    0  0.11386275988E+03 -0.14658526980E+03 -0.15798376579E+02  0.20537964303E+03  0.86482597416E+02 0.  0.
         23    2    1    2    0    0 -0.15009821888E+02  0.12639359819E+03  0.56074728767E+03  0.58217464885E+03  0.91044850020E+02 0.  0.
        -11    1    3    3    0    0  0.69056005941E+02 -0.11773447023E+03 -0.46110194758E+02  0.14407042548E+03  0.00000000000E+00 0.  1.
         11    1    3    3    0    0  0.44806753943E+02 -0.28850799568E+02  0.30311818179E+02  0.61309217545E+02  0.00000000000E+00 0. -1.
        -13    1    4    4    0    0  0.12462966785E+02  0.12822046065E+03  0.47087284115E+03  0.48817726760E+03  0.00000000000E+00 0. -1.
         13    1    4    4    0    0 -0.27472788673E+02 -0.18268624596E+01  0.89874446524E+02  0.93997381250E+02  0.00000000000E+00 0.  1.
         21    1    1    2  502  501 -0.98852937997E+02  0.20191671615E+02  0.31415227168E+03  0.32995644676E+03  0.00000000000E+00 0. -1.
<scales pt_clust_5="13000.00000" pt_clust_6="13000.00000" pt_clust_7="13000.00000" pt_clust_8="13000.00000" pt_clust_9="100.89404"></scales>
<clustering>
<clus scale="   86.483">  5  6 -1 -1</clus>
<clus scale="   91.045">  7  8 -1 -1</clus>
<clus scale="  100.894">  1  9  2 -1</clus>
<clus scale="  195.172">  2  5  1 -1</clus>
<clus scale="  100.894">  1  5  2 -1</clus>
</clustering>
</event>
<event>
 9    1  0.9000149E-006  0.9885382E+02  0.7546771E-02  0.1283341E+00
          1   -1    0    0  502    0  0.00000000000E+00  0.00000000000E+00  0.63654629945E+03  0.63654629945E+03  0.00000000000E+00 0. -1.
         -1   -1    0    0    0  501 -0.00000000000E+00 -0.00000000000E+00 -0.22808169165E+02  0.22808169165E+02  0.00000000000E+00 0.  1.
         23    2    1    2    0    0 -0.21480680766E+02  0.13528831131E+02  0.19551787255E+03  0.21693811705E+03  0.90501155915E+02 0.  0.
         23    2    1    2    0    0  0.27682002709E+02 -0.48510010391E+02  0.28585631624E+03  0.30536762920E+03  0.91738983240E+02 0.  0.
        -11    1    4    4    0    0 -0.18904631226E+02 -0.33148503820E+02  0.21980708935E+03  0.22309496838E+03  0.00000000000E+00 0. -1.
         11    1    4    4    0    0  0.46586633936E+02 -0.15361506571E+02  0.66049226889E+02  0.82272660819E+02  0.00000000000E+00 0.  1.
        -13    1    3    3    0    0 -0.28442402944E+02 -0.34906486427E+02  0.90779194369E+02  0.10133259698E+03  0.00000000000E+00 0.  1.
         13    1    3    3    0    0  0.69617221780E+01  0.48435317558E+02  0.10473867819E+03  0.11560552007E+03  0.00000000000E+00 0. -1.
         21    1    1    2  502  501 -0.62013219430E+01  0.34981179260E+02  0.13236394149E+03  0.13704872237E+03  0.00000000000E+00 0. -1.
<scales pt_clust_5="13000.00000" pt_clust_6="13000.00000" pt_clust_7="13000.00000" pt_clust_8="13000.00000" pt_clust_9="35.52660"></scales>
<clustering>
<clus scale="   35.527">  1  9  2 -1</clus>
<clus scale="   90.501">  7  8 -1 -1</clus>
<clus scale="   91.739">  5  6 -1 -1</clus>
<clus scale="   97.706">  2  7  1 -1</clus>
<clus scale="   35.527">  1  5  2 -1</clus>
</clustering>
</event>
<event>
 9    1  0.9000149E-006  0.1181224E+03  0.7546771E-02  0.1249406E+00
         -1   -1    0    0    0  501 -0.00000000000E+00  0.00000000000E+00  0.31858884051E+03  0.31858884051E+03  0.00000000000E+00 0.  1.
          1   -1    0    0  502    0  0.00000000000E+00 -0.00000000000E+00 -0.20588913065E+03  0.20588913065E+03  0.00000000000E+00 0. -1.
         23    2    1    2    0    0  0.36070778166E+02 -0.49597563926E+02  0.27874312956E+03  0.29997130058E+03  0.92325670921E+02 0.  0.
         23    2    1    2    0    0 -0.14043533340E+02  0.64810243425E+02 -0.11456265637E+03  0.16648172658E+03  0.10096521464E+03 0.  0.
        -13    1    3    3    0    0  0.67326659901E+02 -0.28401474902E+02  0.18323404499E+03  0.19726692108E+03  0.00000000000E+00 0.  1.
         13    1    3    3    0    0 -0.31255881735E+02 -0.21196089024E+02  0.95509084575E+02  0.10270437950E+03  0.00000000000E+00 0. -1.
        -13    1    4    4    0    0 -0.17246915497E+02 -0.18121608522E+02 -0.12160371571E-02  0.25016970062E+02  0.00000000000E+00 0.  1.
         13    1    4    4    0    0  0.32033821572E+01  0.82931851948E+02 -0.11456144033E+03  0.14146475651E+03  0.00000000000E+00 0. -1.
         21    1    1    2  502  501 -0.22027244826E+02 -0.15212679499E+02 -0.51480763339E+02  0.58024944000E+02  0.00000000000E+00 0.  1.
<scales pt_clust_5="13000.00000" pt_clust_6="13000.00000" pt_clust_7="13000.00000" pt_clust_8="13000.00000" pt_clust_9="26.76985"></scales>
<clustering>
<clus scale="   26.770">  2  9  1 -1</clus>
<clus scale="   92.326">  5  6 -1 -1</clus>
<clus scale="  100.965">  7  8 -1 -1</clus>
<clus scale="  110.829">  1  5  2 -1</clus>
<clus scale="   26.770">  2  5  1 -1</clus>
</clustering>
</event>
<event>
 9    1  0.9000149E-006  0.9916326E+02  0.7546771E-02  0.1282278E+00
          2   -1    0    0  502    0  0.00000000000E+00  0.00000000000E+00  0.11431890306E+03  0.11431890306E+03  0.00000000000E+00 0. -1.
         -2   -1    0    0    0  501 -0.00000000000E+00 -0.00000000000E+00 -0.17244975349E+03  0.17244975349E+03  0.00000000000E+00 0.  1.
         23    2    1    2    0    0  0.67954880508E+01 -0.44835961577E+02 -0.10820388530E+03  0.14865165759E+03  0.91284130069E+02 0.  0.
         23    2    1    2    0    0 -0.17056700178E+02  0.11741804235E+02  0.43567956319E+02  0.10286317972E+03  0.90850789407E+02 0.  0.
        -11    1    3    3    0    0  0.13858160615E+02 -0.71612549479E+02 -0.88393647057E+02  0.11460297858E+03  0.00000000000E+00 0.  1.
         11    1    3    3    0    0 -0.70626725637E+01  0.26776587902E+02 -0.19810238240E+02  0.34048679013E+02  0.00000000000E+00 0. -1.
        -13    1    4    4    0    0 -0.19002520004E+02 -0.28503211040E+02 -0.10135920438E+02  0.35724860940E+02  0.00000000000E+00 0.  1.
         13    1    4    4    0    0  0.19458198263E+01  0.40245015275E+02  0.53703876757E+02  0.67138318776E+02  0.00000000000E+00 0. -1.
         21    1    1    2  502  501  0.10261212127E+02  0.33094157341E+02  0.65050785477E+01  0.35253819245E+02  0.00000000000E+00 0. -1.
<scales pt_clust_5="13000.00000" pt_clust_6="13000.00000" pt_clust_7="13000.00000" pt_clust_8="13000.00000" pt_clust_9="34.64846"></scales>
<clustering>
<clus scale="   34.648">  1  9  2 -1</clus>
<clus scale="   90.851">  7  8 -1 -1</clus>
<clus scale="   91.284">  5  6 -1 -1</clus>
<clus scale="   98.764">  1  7  2 -1</clus>
<clus scale="   34.648">  1  5  2 -1</clus>
</clustering>
</event>
<event>
 9    1  0.9000149E-006  0.1750819E+03  0.7546771E-02  0.1172707E+00
          1   -1    0    0  502    0  0.00000000000E+00  0.00000000000E+00  0.10894916758E+04  0.10894916758E+04  0.00000000000E+00 0. -1.
         -1   -1    0    0    0  501 -0.00000000000E+00 -0.00000000000E+00 -0.85778754061E+02  0.85778754061E+02  0.00000000000E+00 0.  1.
         23    2    1    2    0    0  0.52958649311E+02  0.14033840876E+03  0.26250797592E+02  0.17751924494E+03  0.91238645540E+02 0.  0.
         23    2    1    2    0    0 -0.76100919368E+02 -0.12295791877E+03  0.84230169171E+03  0.85952677104E+03  0.91674045193E+02 0.  0.
        -11    1    4    4    0    0 -0.64337389658E+02 -0.22962740915E+02  0.41023821188E+03  0.41588697703E+03  0.00000000000E+00 0.  1.
         11    1    4    4    0    0 -0.11763529710E+02 -0.99995177856E+02  0.43206347983E+03  0.44363979400E+03  0.00000000000E+00 0. -1.
        -13    1    3    3    0    0  0.17408303975E+02  0.11673557580E+02 -0.26674454039E+02  0.33924143204E+02  0.00000000000E+00 0. -1.
         13    1    3    3    0    0  0.35550345336E+02  0.12866485118E+03  0.52925251631E+02  0.14359510174E+03  0.00000000000E+00 0.  1.
         21    1    1    2  502  501  0.23142270057E+02 -0.17380489988E+02  0.13516043241E+03  0.13822441385E+03  0.00000000000E+00 0.  1.
<scales pt_clust_5="13000.00000" pt_clust_6="13000.00000" pt_clust_7="13000.00000" pt_clust_8="13000.00000" pt_clust_9="28.94212"></scales>
<clustering>
<clus scale="   28.942">  1  9  2 -1</clus>
<clus scale="   91.239">  7  8 -1 -1</clus>
<clus scale="   91.674">  5  6 -1 -1</clus>
<clus scale="  174.854">  2  7  1 -1</clus>
<clus scale="   28.942">  1  5  2 -1</clus>
</clustering>
</event>
<event>
 9    1  0.9000149E-006  0.1320792E+03  0.7546771E-02  0.1224495E+00
         -3   -1    0    0    0  501 -0.00000000000E+00  0.00000000000E+00  0.15958253234E+03  0.15958253234E+03  0.00000000000E+00 0.  1.
          3   -1    0    0  502    0  0.00000000000E+00 -0.00000000000E+00 -0.22258932846E+03  0.22258932846E+03  0.00000000000E+00 0. -1.
         23    2    1    2    0    0  0.12354156575E+02  0.88575765783E+02  0.86190909219E+02  0.15414230479E+03  0.91283546304E+02 0.  0.
         23    2    1    2    0    0  0.82500636671E+01 -0.96299556608E+02 -0.15587688788E+03  0.20503385389E+03  0.91649380319E+02 0.  0.
        -11    1    4    4    0    0  0.35090166791E+02 -0.40815303894E+02 -0.22952924352E+02  0.58515344771E+02  0.00000000000E+00 0.  1.
         11    1    4    4    0    0 -0.26840103124E+02 -0.55484252714E+02 -0.13292396352E+03  0.14651850912E+03  0.00000000000E+00 0. -1.
        -13    1    3    3    0    0  0.38730497713E+01  0.51190392748E+02  0.10079826335E+03  0.11311828641E+03  0.00000000000E+00 0.  1.
         13    1    3    3    0    0  0.84811068040E+01  0.37385373036E+02 -0.14607354136E+02  0.41024018386E+02  0.00000000000E+00 0. -1.
         21    1    1    2  502  501 -0.20604220242E+02  0.77237908249E+01  0.66791825319E+01  0.22995702116E+02  0.00000000000E+00 0.  1.
<scales pt_clust_5="13000.00000" pt_clust_6="13000.00000" pt_clust_7="13000.00000" pt_clust_8="13000.00000" pt_clust_9="22.00434"></scales>
<clustering>
<clus scale="   22.004">  1  9  2 -1</clus>
<clus scale="   91.284">  7  8 -1 -1</clus>
<clus scale="   91.649">  5  6 -1 -1</clus>
<clus scale="  131.826">  1  7  2 -1</clus>
<clus scale="  132.079">  2  5  1 -1</clus>
</clustering>
</event>
<event>
 9    1  0.9000149E-006  0.9293990E+02  0.7546771E-02  0.1298471E+00
          2   -1    0    0  502    0  0.00000000000E+00  0.00000000000E+00  0.86164733703E+02  0.86164733703E+02  0.00000000000E+00 0. -1.
         -2   -1    0    0    0  501 -0.00000000000E+00 -0.00000000000E+00 -0.13100982651E+03  0.13100982651E+03  0.00000000000E+00 0.  1.
         23    2    1    2    0    0 -0.33593332132E+02  0.49989891820E+01 -0.33478966172E+02  0.10228124793E+03  0.90482653838E+02 0.  0.
         23    2    1    2    0    0  0.56646661649E+01 -0.57335813165E+01 -0.83035212935E+01  0.86787626743E+02  0.86012680997E+02 0.  0.
        -11    1    4    4    0    0 -0.12106368694E+01 -0.33431210709E+02  0.25852572188E+02  0.42278445806E+02  0.00000000000E+00 0.  1.
         11    1    4    4    0    0  0.68753030342E+01  0.27697629392E+02 -0.34156093481E+02  0.44509180936E+02  0.00000000000E+00 0. -1.
        -13    1    3    3    0    0 -0.20711570403E+02  0.42010604229E+02 -0.41151147833E+02  0.62348031117E+02  0.00000000000E+00 0.  1.
         13    1    3    3    0    0 -0.12881761729E+02 -0.37011615047E+02  0.76721816613E+01  0.39933216813E+02  0.00000000000E+00 0. -1.
         21    1    1    2  502  501  0.27928665967E+02  0.73459213455E+00 -0.30626053438E+01  0.28105685542E+02  0.00000000000E+00 0. -1.
<scales pt_clust_5="13000.00000" pt_clust_6="13000.00000" pt_clust_7="13000.00000" pt_clust_8="13000.00000" pt_clust_9="27.93833"></scales>
<clustering>
<clus scale="   27.938">  1  9  2 -1</clus>
<clus scale="   86.013">  5  6 -1 -1</clus>
<clus scale="   88.594">  1  5  2 -1</clus>
<clus scale="   90.483">  7  8 -1 -1</clus>
<clus scale="   27.938">  1  5  2 -1</clus>
</clustering>
</event>
<event>
 9    1  0.9000149E-006  0.2651179E+03  0.7546771E-02  0.1104110E+00
          1   -1    0    0  502    0  0.00000000000E+00  0.00000000000E+00  0.10323109029E+04  0.10323109029E+04  0.00000000000E+00 0. -1.
         -1   -1    0    0    0  501 -0.00000000000E+00 -0.00000000000E+00 -0.92743103310E+02  0.92743103310E+02  0.00000000000E+00 0.  1.
         23    2    1    2    0    0 -0.25442449052E+03 -0.10266029521E+02  0.21717617599E+03  0.34673827363E+03  0.90690276465E+02 0.  0.
         23    2    1    2    0    0  0.23620116659E+03  0.27144378310E+02  0.57436541436E+03  0.62822000708E+03  0.90757587575E+02 0.  0.
        -11    1    3    3    0    0 -0.21917648484E+03 -0.39156077586E+02  0.16296423277E+03  0.27591460831E+03  0.00000000000E+00 0.  1.
         11    1    3    3    0    0 -0.35248005683E+02  0.28890048065E+02  0.54211943217E+02  0.70823665319E+02  0.00000000000E+00 0. -1.
        -13    1    4    4    0    0  0.10277875622E+03  0.56965972334E+02  0.25125249800E+03  0.27737413810E+03  0.00000000000E+00 0. -1.
         13    1    4    4    0    0  0.13342241037E+03 -0.29821594024E+02  0.32311291636E+03  0.35084586898E+03  0.00000000000E+00 0.  1.
         21    1    1    2  502  501  0.18223323929E+02 -0.16878348789E+02  0.14802620924E+03  0.15009572551E+03  0.00000000000E+00 0. -1.
<scales pt_clust_5="13000.00000" pt_clust_6="13000.00000" pt_clust_7="13000.00000" pt_clust_8="13000.00000" pt_clust_9="24.83884"></scales>
<clustering>
<clus scale="   24.839">  1  9  2 -1</clus>
<clus scale="   90.690">  5  6 -1 -1</clus>
<clus scale="   90.758">  7  8 -1 -1</clus>
<clus scale="  265.095">  2  5  1 -1</clus>
<clus scale="   24.839">  1  5  2 -1</clus>
</clustering>
</event>
<event>
 9    1  0.9000149E-006  0.9843004E+02  0.7546771E-02  0.1285907E+00
          1   -1    0    0  502    0  0.00000000000E+00  0.00000000000E+00  0.20566385322E+02  0.20566385322E+02  0.00000000000E+00 0. -1.
         -1   -1    0    0    0  501 -0.00000000000E+00 -0.00000000000E+00 -0.61437534846E+03  0.61437534846E+03  0.00000000000E+00 0.  1.
         23    2    1    2    0    0 -0.14787171021E+02  0.17069605997E+02 -0.28638718085E+03  0.30328479529E+03  0.97231773729E+02 0.  0.
         23    2    1    2    0    0  0.15274229765E+02  0.12254240264E+02 -0.23866301397E+03  0.25690472511E+03  0.93040502175E+02 0.  0.
        -11    1    4    4    0    0  0.27014181896E+02  0.47179365323E+02 -0.10478440582E+03  0.11804842328E+03  0.00000000000E+00 0. -1.
         11    1    4    4    0    0 -0.11739952131E+02 -0.34925125059E+02 -0.13387860816E+03  0.13885630183E+03  0.00000000000E+00 0.  1.
        -13    1    3    3    0    0 -0.53021867576E+02  0.22624411740E+01 -0.10916446400E+03  0.12138087692E+03  0.00000000000E+00 0.  1.
         13    1    3    3    0    0  0.38234696554E+02  0.14807164823E+02 -0.17722271684E+03  0.18190391836E+03  0.00000000000E+00 0. -1.
         21    1    1    2  502  501 -0.48705874412E+00 -0.29323846261E+02 -0.68758768319E+02  0.74752213389E+02  0.00000000000E+00 0.  1.
<scales pt_clust_5="13000.00000" pt_clust_6="13000.00000" pt_clust_7="13000.00000" pt_clust_8="13000.00000" pt_clust_9="29.32789"></scales>
<clustering>
<clus scale="   29.328">  1  9  2 -1</clus>
<clus scale="   93.041">  5  6 -1 -1</clus>
<clus scale="   94.292">  1  5  2 -1</clus>
<clus scale="   97.232">  7  8 -1 -1</clus>
<clus scale="   29.328">  1  5  2 -1</clus>
</clustering>
</event>
<event>
 9    1  0.9000149E-006  0.1226982E+03  0.7546771E-02  0.1241414E+00
          1   -1    0    0  502    0  0.00000000000E+00  0.00000000000E+00  0.44724130087E+03  0.44724130087E+03  0.00000000000E+00 0. -1.
         -1   -1    0    0    0  501 -0.00000000000E+00 -0.00000000000E+00 -0.93116445161E+02  0.93116445161E+02  0.00000000000E+00 0.  1.
         23    2    1    2    0    0  0.69774304788E+02  0.27800125145E+02  0.12382016138E+02  0.12492348125E+03  0.99051811075E+02 0.  0.
         23    2    1    2    0    0 -0.40120219277E+02 -0.66975917199E+02  0.68817472813E+02  0.13812151122E+03  0.90809150511E+02 0.  0.
        -11    1    4    4    0    0 -0.25531021911E+02 -0.87124212922E+02  0.37753487263E+02  0.98324907107E+02  0.00000000000E+00 0.  1.
         11    1    4    4    0    0 -0.14589197366E+02  0.20148295722E+02  0.31063985550E+02  0.39796604108E+02  0.00000000000E+00 0. -1.
        -13    1    3    3    0    0  0.51612994980E+02 -0.19963765121E+02 -0.25874324826E+02  0.61089556013E+02  0.00000000000E+00 0.  1.
         13    1    3    3    0    0  0.18161309808E+02  0.47763890266E+02  0.38256340964E+02  0.63833925237E+02  0.00000000000E+00 0. -1.
         21    1    1    2  502  501 -0.29654085512E+02  0.39175792055E+02  0.27292536676E+03  0.27731275357E+03  0.00000000000E+00 0. -1.
<scales pt_clust_5="13000.00000" pt_clust_6="13000.00000" pt_clust_7="13000.00000" pt_clust_8="13000.00000" pt_clust_9="49.13357"></scales>
<clustering>
<clus scale="   49.134">  1  9  2 -1</clus>
<clus scale="   90.809">  5  6 -1 -1</clus>
<clus scale="   99.052">  7  8 -1 -1</clus>
<clus scale="  116.146">  1  5  2 -1</clus>
<clus scale="   49.134">  1  5  2 -1</clus>
</clustering>
</event>
<event>
 9    1  0.9000149E-006  0.1084256E+03  0.7546771E-02  0.1267935E+00
         -1   -1    0    0    0  501 -0.00000000000E+00  0.00000000000E+00  0.20673878861E+03  0.20673878861E+03  0.00000000000E+00 0.  1.
          1   -1    0    0  502    0  0.00000000000E+00 -0.00000000000E+00 -0.75243015517E+02  0.75243015517E+02  0.00000000000E+00 0. -1.
         23    2    1    2    0    0  0.51343546103E+02 -0.17156890703E+02  0.81059176381E+02  0.13043048571E+03  0.86666042385E+02 0.  0.
         23    2    1    2    0    0 -0.30071341306E+02  0.34820968799E+02  0.59330633264E+02  0.12250600488E+03  0.96802953224E+02 0.  0.
        -11    1    3    3    0    0 -0.22391735092E+02  0.72044755109E+01  0.27012642083E+02  0.35818669715E+02  0.00000000000E+00 0.  1.
         11    1    3    3    0    0  0.73735281195E+02 -0.24361366214E+02  0.54046534298E+02  0.94611815998E+02  0.00000000000E+00 0. -1.
        -13    1    4    4    0    0 -0.41840022089E+02 -0.20404364249E+02  0.10191437763E+02  0.47652816627E+02  0.00000000000E+00 0.  1.
         13    1    4    4    0    0  0.11768680783E+02  0.55225333047E+02  0.49139195501E+02  0.74853188256E+02  0.00000000000E+00 0. -1.
         21    1    1    2  502  501 -0.21272204796E+02 -0.17664078095E+02 -0.88940365536E+01  0.29045313530E+02  0.00000000000E+00 0.  1.
<scales pt_clust_5="13000.00000" pt_clust_6="13000.00000" pt_clust_7="13000.00000" pt_clust_8="13000.00000" pt_clust_9="27.65007"></scales>
<clustering>
<clus scale="   27.650">  2  9  1 -1</clus>
<clus scale="   86.666">  5  6 -1 -1</clus>
<clus scale="   96.803">  7  8 -1 -1</clus>
<clus scale="   99.480">  1  5  2 -1</clus>
<clus scale="   27.650">  2  5  1 -1</clus>
</clustering>
</event>
<event>
 9    1  0.9000149E-006  0.9536781E+02  0.7546771E-02  0.1290717E+00
          1   -1    0    0  502    0  0.00000000000E+00  0.00000000000E+00  0.29001287061E+03  0.29001287061E+03  0.00000000000E+00 0. -1.
         -1   -1    0    0    0  501 -0.00000000000E+00 -0.00000000000E+00 -0.49409820506E+02  0.49409820506E+02  0.00000000000E+00 0.  1.
         23    2    1    2    0    0 -0.32964409383E+02 -0.20227134214E+02  0.54704178699E+02  0.11294130715E+03  0.90925257484E+02 0.  0.
         23    2    1    2    0    0  0.15487484274E+01  0.12135251607E+02  0.10829110445E+03  0.14236605950E+03  0.91604959708E+02 0.  0.
        -13    1    4    4    0    0 -0.38065225314E+02  0.30108771853E+02  0.63554629241E+02  0.79966808231E+02  0.00000000000E+00 0.  1.
         13    1    4    4    0    0  0.39613973741E+02 -0.17973520246E+02  0.44736475204E+02  0.62399251272E+02  0.00000000000E+00 0. -1.
        -13    1    3    3    0    0 -0.53832851050E+02 -0.40943598594E+02  0.27933634054E+02  0.73175419572E+02  0.00000000000E+00 0.  1.
         13    1    3    3    0    0  0.20868441667E+02  0.20716464381E+02  0.26770544645E+02  0.39765887576E+02  0.00000000000E+00 0. -1.
         21    1    1    2  502  501  0.31415660955E+02  0.80918826064E+01  0.77607766956E+02  0.84115324462E+02  0.00000000000E+00 0.  1.
<scales pt_clust_5="13000.00000" pt_clust_6="13000.00000" pt_clust_7="13000.00000" pt_clust_8="13000.00000" pt_clust_9="32.44106"></scales>
<clustering>
<clus scale="   32.441">  1  9  2 -1</clus>
<clus scale="   90.925">  7  8 -1 -1</clus>
<clus scale="   91.605">  5  6 -1 -1</clus>
<clus scale="   94.715">  2  7  1 -1</clus>
<clus scale="   32.441">  1  5  2 -1</clus>
</clustering>
</event>
<event>
 9    1  0.9000149E-006  0.1246649E+03  0.7546771E-02  0.1235606E+00
         -4   -1    0    0    0  501 -0.00000000000E+00  0.00000000000E+00  0.48733669398E+03  0.48733669398E+03  0.00000000000E+00 0.  1.
          4   -1    0    0  502    0  0.00000000000E+00 -0.00000000000E+00 -0.10390791931E+03  0.10390791931E+03  0.00000000000E+00 0. -1.
         23    2    1    2    0    0  0.12289757765E+02  0.94879197201E+02  0.26220412705E+03  0.29364559841E+03  0.91233946628E+02 0.  0.
         23    2    1    2    0    0 -0.12704985371E+02 -0.72520730805E+02  0.19111138102E+03  0.22422170953E+03  0.91275089805E+02 0.  0.
        -11    1    3    3    0    0 -0.20168981092E+02 -0.98280671471E+01  0.39642448066E+02  0.45551096483E+02  0.00000000000E+00 0. -1.
         11    1    3    3    0    0  0.32458738856E+02  0.10470726435E+03  0.22256167898E+03  0.24809450193E+03  0.00000000000E+00 0.  1.
        -13    1    4    4    0    0  0.35296301361E+02 -0.14322720715E+02  0.39477996182E+02  0.54858740425E+02  0.00000000000E+00 0.  1.
         13    1    4    4    0    0 -0.48001286731E+02 -0.58198010091E+02  0.15163338484E+03  0.16936296911E+03  0.00000000000E+00 0. -1.
         21    1    1    2  502  501  0.41522760562E+00 -0.22358466396E+02 -0.69886733404E+02  0.73377305343E+02  0.00000000000E+00 0. -1.
<scales pt_clust_5="13000.00000" pt_clust_6="13000.00000" pt_clust_7="13000.00000" pt_clust_8="13000.00000" pt_clust_9="22.36232"></scales>
<clustering>
<clus scale="   22.362">  2  9  1 -1</clus>
<clus scale="   91.234">  5  6 -1 -1</clus>
<clus scale="   91.275">  7  8 -1 -1</clus>
<clus scale="  124.635">  1  5  2 -1</clus>
<clus scale="   22.362">  2  5  1 -1</clus>
</clustering>
</event>
<event>
 9    1  0.9000149E-006  0.9608553E+02  0.7546771E-02  0.1290405E+00
         -2   -1    0    0    0  501 -0.00000000000E+00  0.00000000000E+00  0.34703589211E+02  0.34703589211E+02  0.00000000000E+00 0.  1.
          2   -1    0    0  502    0  0.00000000000E+00 -0.00000000000E+00 -0.80395710181E+03  0.80395710181E+03  0.00000000000E+00 0. -1.
         23    2    1    2    0    0  0.97450202677E+01 -0.12962077543E+02 -0.84172855650E+02  0.12788541615E+03  0.94903262124E+02 0.  0.
         23    2    1    2    0    0 -0.30963749055E+02 -0.56859141928E+02 -0.34164595904E+03  0.35967325427E+03  0.91930260166E+02 0.  0.
        -11    1    3    3    0    0  0.32972009528E+02 -0.54918294338E+01  0.64436633945E+01  0.34041656846E+02  0.00000000000E+00 0.  1.
         11    1    3    3    0    0 -0.23226989260E+02 -0.74702481092E+01 -0.90616519045E+02  0.93843759306E+02  0.00000000000E+00 0. -1.
        -13    1    4    4    0    0 -0.90417312567E+01  0.24719205042E+02 -0.11002090787E+03  0.11312555931E+03  0.00000000000E+00 0.  1.
         13    1    4    4    0    0 -0.21922017798E+02 -0.81578346970E+02 -0.23162505117E+03  0.24654769496E+03  0.00000000000E+00 0. -1.
         21    1    1    2  502  501  0.21218728787E+02  0.69821219471E+02 -0.34343469791E+03  0.35110202059E+03  0.00000000000E+00 0. -1.
<scales pt_clust_5="13000.00000" pt_clust_6="13000.00000" pt_clust_7="13000.00000" pt_clust_8="13000.00000" pt_clust_9="72.97422"></scales>
<clustering>
<clus scale="   72.974">  2  9  1 -1</clus>
<clus scale="   91.930">  7  8 -1 -1</clus>
<clus scale="   93.150">  2  7  1 -1</clus>
<clus scale="   94.903">  5  6 -1 -1</clus>
<clus scale="   72.974">  2  5  1 -1</clus>
</clustering>
</event>
<event>
 9    1  0.9000149E-006  0.9197769E+02  0.7546771E-02  0.1299751E+00
          2   -1    0    0  502    0  0.00000000000E+00  0.00000000000E+00  0.49911387515E+02  0.49911387515E+02  0.00000000000E+00 0. -1.
         -2   -1    0    0    0  501 -0.00000000000E+00 -0.00000000000E+00 -0.44580759160E+03  0.44580759160E+03  0.00000000000E+00 0.  1.
         23    2    1    2    0    0 -0.68988894244E+01  0.16623083158E+02 -0.24687993974E+03  0.26233554428E+03  0.86869508905E+02 0.  0.
         23    2    1    2    0    0 -0.34177257274E+02 -0.23299580491E+02 -0.16206365506E+03  0.18977082371E+03  0.89651446598E+02 0.  0.
        -11    1    4    4    0    0 -0.63329977644E+02 -0.27793629984E+02 -0.11014775216E+03  0.13006036768E+03  0.00000000000E+00 0.  1.
         11    1    4    4    0    0  0.29152720370E+02  0.44940494931E+01 -0.51915902899E+02  0.59710456033E+02  0.00000000000E+00 0. -1.
        -13    1    3    3    0    0  0.38450754859E+02 -0.42549253783E+01 -0.11412134302E+03  0.12049998287E+03  0.00000000000E+00 0.  1.
         13    1    3    3    0    0 -0.45349644283E+02  0.20878008536E+02 -0.13275859672E+03  0.14183556141E+03  0.00000000000E+00 0. -1.
         21    1    1    2  502  501  0.41076146698E+02  0.66764973330E+01  0.13047390713E+02  0.43612611119E+02  0.00000000000E+00 0. -1.
<scales pt_clust_5="13000.00000" pt_clust_6="13000.00000" pt_clust_7="13000.00000" pt_clust_8="13000.00000" pt_clust_9="41.61521"></scales>
<clustering>
<clus scale="   41.615">  1  9  2 -1</clus>
<clus scale="   86.870">  7  8 -1 -1</clus>
<clus scale="   89.268">  2  7  1 -1</clus>
<clus scale="   89.651">  5  6 -1 -1</clus>
<clus scale="   41.615">  1  5  2 -1</clus>
</clustering>
</event>
<event>
 9    1  0.9000149E-006  0.9908884E+02  0.7546771E-02  0.1285537E+00
         -1   -1    0    0    0  501 -0.00000000000E+00  0.00000000000E+00  0.17233255284E+03  0.17233255284E+03  0.00000000000E+00 0.  1.
          1   -1    0    0  502    0  0.00000000000E+00 -0.00000000000E+00 -0.10084579005E+03  0.10084579005E+03  0.00000000000E+00 0. -1.
         23    2    1    2    0    0  0.89808197967E+01  0.84321571538E+01  0.46545235437E+02  0.10917902629E+03  0.97989001631E+02 0.  0.
         23    2    1    2    0    0  0.13824929197E+02  0.23305834637E+02 -0.26489088407E+02  0.99404343524E+02  0.91898101783E+02 0.  0.
        -11    1    4    4    0    0 -0.22412496102E+02 -0.25671966534E+02 -0.33922186849E+01  0.34247291789E+02  0.00000000000E+00 0.  1.
         11    1    4    4    0    0  0.36237425299E+02  0.48977801171E+02 -0.23096869723E+02  0.65157051735E+02  0.00000000000E+00 0. -1.
        -13    1    3    3    0    0  0.29574879806E+02 -0.65616573453E+01  0.68913505692E+02  0.75278151740E+02  0.00000000000E+00 0.  1.
         13    1    3    3    0    0 -0.20594060009E+02  0.14993814499E+02 -0.22368270255E+02  0.33900874547E+02  0.00000000000E+00 0. -1.
         21    1    1    2  502  501 -0.22805748993E+02 -0.31737991791E+02  0.51430615758E+02  0.64594973081E+02  0.00000000000E+00 0.  1.
<scales pt_clust_5="13000.00000" pt_clust_6="13000.00000" pt_clust_7="13000.00000" pt_clust_8="13000.00000" pt_clust_9="39.08199"></scales>
<clustering>
<clus scale="   39.082">  1  9  2 -1</clus>
<clus scale="   91.898">  5  6 -1 -1</clus>
<clus scale="   93.070">  2  5  1 -1</clus>
<clus scale="   97.989">  7  8 -1 -1</clus>
<clus scale="   93.070">  2  5  1 -1</clus>
</clustering>
</event>
<event>
 9    1  0.9000149E-006  0.1275778E+03  0.7546771E-02  0.1234911E+00
         -1   -1    0    0    0  501 -0.00000000000E+00  0.00000000000E+00  0.12550593500E+03  0.12550593500E+03  0.00000000000E+00 0.  1.
          1   -1    0    0  502    0  0.00000000000E+00 -0.00000000000E+00 -0.14975919584E+03  0.14975919584E+03  0.00000000000E+00 0. -1.
         23    2    1    2    0    0  0.65695959140E+02  0.23593735416E+01 -0.18261265265E+00  0.12325266588E+03  0.10425766450E+03 0.  0.
         23    2    1    2    0    0 -0.81486562962E+02  0.14421155449E+02 -0.85121974334E+01  0.12420968250E+03  0.92236424771E+02 0.  0.
        -13    1    3    3    0    0  0.19001816414E+02 -0.27262962104E+02  0.42104792297E+02  0.53639087092E+02  0.00000000000E+00 0.  1.
         13    1    3    3    0    0  0.46694142726E+02  0.29622335645E+02 -0.42287404949E+02  0.69613578786E+02  0.00000000000E+00 0. -1.
        -13    1    4    4    0    0 -0.91658851018E+02 -0.50373421973E+01 -0.26805454844E+02  0.95630811958E+02  0.00000000000E+00 0. -1.
         13    1    4    4    0    0  0.10172288056E+02  0.19458497646E+02  0.18293257411E+02  0.28578870545E+02  0.00000000000E+00 0.  1.
         21    1    1    2  502  501  0.15790603822E+02 -0.16780528990E+02 -0.15558450761E+02  0.27802782457E+02  0.00000000000E+00 0.  1.
<scales pt_clust_5="13000.00000" pt_clust_6="13000.00000" pt_clust_7="13000.00000" pt_clust_8="13000.00000" pt_clust_9="23.04190"></scales>
<clustering>
<clus scale="   23.042">  2  9  1 -1</clus>
<clus scale="   92.236">  7  8 -1 -1</clus>
<clus scale="  104.258">  5  6 -1 -1</clus>
<clus scale="  117.958">  2  7  1 -1</clus>
<clus scale="   23.042">  2  5  1 -1</clus>
</clustering>
</event>
<event>
 9    1  0.9000149E-006  0.1167223E+03  0.7546771E-02  0.1248608E+00
         -1   -1    0    0    0  501 -0.00000000000E+00  0.00000000000E+00  0.15055901303E+03  0.15055901303E+03  0.00000000000E+00 0.  1.
          1   -1    0    0  502    0  0.00000000000E+00 -0.00000000000E+00 -0.20452294243E+03  0.20452294243E+03  0.00000000000E+00 0. -1.
         23    2    1    2    0    0 -0.44526846736E+02  0.55264640938E+02  0.87181991042E+02  0.14425536589E+03  0.90399615083E+02 0.  0.
         23    2    1    2    0    0  0.39511174364E+02 -0.78202931007E+02 -0.90653952247E+02  0.15514211261E+03  0.90410755615E+02 0.  0.
        -13    1    4    4    0    0  0.47189401661E+02 -0.57427910147E+02 -0.10507885903E+03  0.12871041570E+03  0.00000000000E+00 0. -1.
         13    1    4    4    0    0 -0.76782272972E+01 -0.20775020860E+02  0.14424906787E+02  0.26431696918E+02  0.00000000000E+00 0.  1.
        -13    1    3    3    0    0 -0.34000486744E+02  0.26550580797E+02  0.10164853454E+03  0.11042368864E+03  0.00000000000E+00 0.  1.
         13    1    3    3    0    0 -0.10526359992E+02  0.28714060141E+02 -0.14466543497E+02  0.33831677245E+02  0.00000000000E+00 0. -1.
         21    1    1    2  502  501  0.50156723722E+01  0.22938290070E+02 -0.50491968196E+02  0.55684476948E+02  0.00000000000E+00 0.  1.
<scales pt_clust_5="13000.00000" pt_clust_6="13000.00000" pt_clust_7="13000.00000" pt_clust_8="13000.00000" pt_clust_9="23.48025"></scales>
<clustering>
<clus scale="   23.480">  2  9  1 -1</clus>
<clus scale="   90.400">  7  8 -1 -1</clus>
<clus scale="   90.411">  5  6 -1 -1</clus>
<clus scale="  116.714">  1  7  2 -1</clus>
<clus scale="   23.480">  2  5  1 -1</clus>
</clustering>
</event>
<event>
 9    1  0.9000149E-006  0.1273095E+03  0.7546771E-02  0.1231719E+00
          1   -1    0    0  502    0  0.00000000000E+00  0.00000000000E+00  0.26755049427E+03  0.26755049427E+03  0.00000000000E+00 0. -1.
         -1   -1    0    0    0  501 -0.00000000000E+00 -0.00000000000E+00 -0.83735506735E+02  0.83735506735E+02  0.00000000000E+00 0.  1.
         23    2    1    2    0    0 -0.33513281351E+02  0.73085529258E+02  0.31674470618E+02  0.12636420906E+03  0.92195480527E+02 0.  0.
         23    2    1    2    0    0  0.48316634559E+02 -0.88139621755E+02  0.10009464323E+03  0.16875651855E+03  0.91415178452E+02 0.  0.
        -11    1    3    3    0    0 -0.13639360763E+02  0.85029662616E+02 -0.12123796867E+01  0.86125173736E+02  0.00000000000E+00 0.  1.
         11    1    3    3    0    0 -0.19873920588E+02 -0.11944133357E+02  0.32886850305E+02  0.40239035328E+02  0.00000000000E+00 0. -1.
        -11    1    4    4    0    0  0.92996739527E+01 -0.95611745568E+02  0.73388513005E+02  0.12088822799E+03  0.00000000000E+00 0. -1.
         11    1    4    4    0    0  0.39016960607E+02  0.74721238126E+01  0.26706130220E+02  0.47868290554E+02  0.00000000000E+00 0.  1.
         21    1    1    2  502  501 -0.14803353208E+02  0.15054092497E+02  0.52045873696E+02  0.56165273398E+02  0.00000000000E+00 0. -1.
<scales pt_clust_5="13000.00000" pt_clust_6="13000.00000" pt_clust_7="13000.00000" pt_clust_8="13000.00000" pt_clust_9="21.11315"></scales>
<clustering>
<clus scale="   21.113">  1  9  2 -1</clus>
<clus scale="   91.415">  7  8 -1 -1</clus>
<clus scale="   92.195">  5  6 -1 -1</clus>
<clus scale="  126.746">  1  7  2 -1</clus>
<clus scale="   21.113">  1  5  2 -1</clus>
</clustering>
</event>
<event>
 9    1  0.9000149E-006  0.1400679E+03  0.7546771E-02  0.1213731E+00
         -1   -1    0    0    0  501 -0.00000000000E+00  0.00000000000E+00  0.19826452184E+03  0.19826452184E+03  0.00000000000E+00 0.  1.
          1   -1    0    0  502    0  0.00000000000E+00 -0.00000000000E+00 -0.17294092173E+03  0.17294092173E+03  0.00000000000E+00 0. -1.
         23    2    1    2    0    0  0.74585536615E+02  0.67237209083E+02  0.66243556162E+02  0.15254928474E+03  0.93804216238E+02 0.  0.
         23    2    1    2    0    0 -0.39532212511E+02 -0.11264302796E+03 -0.41789734777E+01  0.15053623723E+03  0.91610301414E+02 0.  0.
        -11    1    3    3    0    0  0.34538466144E+02  0.80033400507E+01  0.72571439552E+02  0.80768638309E+02  0.00000000000E+00 0.  1.
         11    1    3    3    0    0  0.40047070471E+02  0.59233869032E+02 -0.63278833899E+01  0.71780646431E+02  0.00000000000E+00 0. -1.
        -13    1    4    4    0    0 -0.60643749343E+02 -0.46229995463E+02  0.16143996343E+02  0.77945528626E+02  0.00000000000E+00 0. -1.
         13    1    4    4    0    0  0.21111536832E+02 -0.66413032501E+02 -0.20322969820E+02  0.72590708604E+02  0.00000000000E+00 0.  1.
         21    1    1    2  502  501 -0.35053324105E+02  0.45405818881E+02 -0.36740982575E+02  0.68119921606E+02  0.00000000000E+00 0. -1.
<scales pt_clust_5="13000.00000" pt_clust_6="13000.00000" pt_clust_7="13000.00000" pt_clust_8="13000.00000" pt_clust_9="57.36222"></scales>
<clustering>
<clus scale="   57.362">  2  9  1 -1</clus>
<clus scale="   91.610">  7  8 -1 -1</clus>
<clus scale="   93.804">  5  6 -1 -1</clus>
<clus scale="  138.608">  2  7  1 -1</clus>
<clus scale="   57.362">  2  5  1 -1</clus>
</clustering>
</event>
<event>
 9    1  0.9000149E-006  0.1313225E+03  0.7546771E-02  0.1225583E+00
          2   -1    0    0  502    0  0.00000000000E+00  0.00000000000E+00  0.12824398735E+03  0.12824398735E+03  0.00000000000E+00 0. -1.
         -2   -1    0    0    0  501 -0.00000000000E+00 -0.00000000000E+00 -0.21442090794E+03  0.21442090794E+03  0.00000000000E+00 0.  1.
         23    2    1    2    0    0 -0.72994780128E+02 -0.56065419899E+02 -0.93185465092E+02  0.15888481669E+03  0.89940451612E+02 0.  0.
         23    2    1    2    0    0  0.55800957214E+02  0.91901452700E+02 -0.10447995802E+02  0.14036833373E+03  0.89635286928E+02 0.  0.
        -11    1    3    3    0    0 -0.61432294473E+02  0.94291608328E+01 -0.43305006786E+02  0.75750640201E+02  0.00000000000E+00 0. -1.
         11    1    3    3    0    0 -0.11562485655E+02 -0.65494580732E+02 -0.49880458306E+02  0.83134176489E+02  0.00000000000E+00 0.  1.
        -13    1    4    4    0    0  0.31425877347E+02  0.88075004542E+02 -0.40138388996E+02  0.10176385637E+03  0.00000000000E+00 0.  1.
         13    1    4    4    0    0  0.24375079868E+02  0.38264481580E+01  0.29690393193E+02  0.38604477357E+02  0.00000000000E+00 0. -1.
         21    1    1    2  502  501  0.17193822913E+02 -0.35836032801E+02  0.17456540313E+02  0.43411744873E+02  0.00000000000E+00 0.  1.
<scales pt_clust_5="13000.00000" pt_clust_6="13000.00000" pt_clust_7="13000.00000" pt_clust_8="13000.00000" pt_clust_9="39.74731"></scales>
<clustering>
<clus scale="   39.747">  1  9  2 -1</clus>
<clus scale="   89.635">  7  8 -1 -1</clus>
<clus scale="   89.940">  5  6 -1 -1</clus>
<clus scale="  131.114">  1  7  2 -1</clus>
<clus scale="   39.747">  1  5  2 -1</clus>
</clustering>
</event>
<event>
 9    1  0.9000149E-006  0.9966001E+02  0.7546771E-02  0.1281462E+00
         -2   -1    0    0    0  501 -0.00000000000E+00  0.00000000000E+00  0.45871104245E+02  0.45871104245E+02  0.00000000000E+00 0.  1.
          2   -1    0    0  502    0  0.00000000000E+00 -0.00000000000E+00 -0.51434665263E+03  0.51434665263E+03  0.00000000000E+00 0. -1.
         23    2    1    2    0    0 -0.43043874586E+02  0.45203209788E+01 -0.80352600944E+02  0.13126225915E+03  0.94339979636E+02 0.  0.
         23    2    1    2    0    0 -0.72906007145E+01 -0.48733970372E+02 -0.16439044921E+03  0.19540756483E+03  0.93443800611E+02 0.  0.
        -13    1    4    4    0    0  0.32673686260E+02 -0.46229308914E+02 -0.55041335461E+02  0.78957377020E+02  0.00000000000E+00 0.  1.
         13    1    4    4    0    0 -0.39964286974E+02 -0.25046614584E+01 -0.10934911375E+03  0.11645018781E+03  0.00000000000E+00 0. -1.
        -13    1    3    3    0    0 -0.69975631468E+02 -0.10395854725E+02 -0.67887891631E+02  0.98048093428E+02  0.00000000000E+00 0.  1.
         13    1    3    3    0    0  0.26931756882E+02  0.14916175704E+02 -0.12464709313E+02  0.33214165722E+02  0.00000000000E+00 0. -1.
         21    1    1    2  502  501  0.50334475301E+02  0.44213649393E+02 -0.22373249823E+03  0.23354793289E+03  0.00000000000E+00 0.  1.
<scales pt_clust_5="13000.00000" pt_clust_6="13000.00000" pt_clust_7="13000.00000" pt_clust_8="13000.00000" pt_clust_9="66.99557"></scales>
<clustering>
<clus scale="   66.996">  2  9  1 -1</clus>
<clus scale="   93.444">  5  6 -1 -1</clus>
<clus scale="   94.340">  7  8 -1 -1</clus>
<clus scale="   98.812">  2  5  1 -1</clus>
<clus scale="   66.996">  2  5  1 -1</clus>
</clustering>
</event>
<event>
 9    1  0.9000149E-006  0.1226514E+03  0.7546771E-02  0.1239180E+00
          2   -1    0    0  502    0  0.00000000000E+00  0.00000000000E+00  0.29911550370E+03  0.29911550370E+03  0.00000000000E+00 0. -1.
         -2   -1    0    0    0  501 -0.00000000000E+00 -0.00000000000E+00 -0.61014184919E+02  0.61014184919E+02  0.00000000000E+00 0.  1.
         23    2    1    2    0    0 -0.32166790564E+02 -0.74498207110E+02  0.90633948026E+02  0.15219428126E+03  0.91454368050E+02 0.  0.
         23    2    1    2    0    0  0.53351495028E+02  0.65185085311E+02  0.12671374766E+03  0.17685102523E+03  0.90135641728E+02 0.  0.
        -11    1    4    4    0    0  0.13688073515E+01 -0.20135109931E+02  0.38954652494E+02  0.43872100889E+02  0.00000000000E+00 0.  1.
         11    1    4    4    0    0  0.51982687676E+02  0.85320195242E+02  0.87759095162E+02  0.13297892434E+03  0.00000000000E+00 0. -1.
        -13    1    3    3    0    0 -0.54172869056E+02 -0.72585247230E+02  0.93196197197E+02  0.12995710457E+03  0.00000000000E+00 0.  1.
         13    1    3    3    0    0  0.22006078492E+02 -0.19129598800E+01 -0.25622491717E+01  0.22237176685E+02  0.00000000000E+00 0. -1.
         21    1    1    2  502  501 -0.21184704464E+02  0.93131217989E+01  0.20753623097E+02  0.31084382132E+02  0.00000000000E+00 0. -1.
<scales pt_clust_5="13000.00000" pt_clust_6="13000.00000" pt_clust_7="13000.00000" pt_clust_8="13000.00000" pt_clust_9="23.14143"></scales>
<clustering>
<clus scale="   23.141">  1  9  2 -1</clus>
<clus scale="   90.136">  5  6 -1 -1</clus>
<clus scale="   91.454">  7  8 -1 -1</clus>
<clus scale="  121.671">  1  5  2 -1</clus>
<clus scale="   23.141">  1  5  2 -1</clus>
</clustering>
</event>
<event>
 9    1  0.9000149E-006  0.1214160E+03  0.7546771E-02  0.1243780E+00
          2   -1    0    0  502    0  0.00000000000E+00  0.00000000000E+00  0.90559534197E+03  0.90559534197E+03  0.00000000000E+00 0. -1.
         -2   -1    0    0    0  501 -0.00000000000E+00 -0.00000000000E+00 -0.20743371149E+02  0.20743371149E+02  0.00000000000E+00 0.  1.
         23    2    1    2    0    0  0.65928725927E+02  0.27233107072E+02  0.28917935476E+03  0.31404927294E+03  0.99569109626E+02 0.  0.
         23    2    1    2    0    0 -0.49638645535E+02 -0.49018479909E+02  0.47528160840E+03  0.48886349512E+03  0.90708891910E+02 0.  0.
        -11    1    4    4    0    0 -0.40255615395E+02 -0.74763705602E+02  0.39533702606E+03  0.40435317536E+03  0.00000000000E+00 0.  1.
         11    1    4    4    0    0 -0.93830301392E+01  0.25745225694E+02  0.79944582340E+02  0.84510319761E+02  0.00000000000E+00 0. -1.
        -13    1    3    3    0    0  0.11453927251E+02 -0.28438468929E+02  0.28061256018E+02  0.41561677707E+02  0.00000000000E+00 0.  1.
         13    1    3    3    0    0  0.54474798676E+02  0.55671576002E+02  0.26111809874E+03  0.27248759523E+03  0.00000000000E+00 0. -1.
         21    1    1    2  502  501 -0.16290080392E+02  0.21785372836E+02  0.12039100766E+03  0.12342594506E+03  0.00000000000E+00 0. -1.
<scales pt_clust_5="13000.00000" pt_clust_6="13000.00000" pt_clust_7="13000.00000" pt_clust_8="13000.00000" pt_clust_9="27.20237"></scales>
<clustering>
<clus scale="   27.202">  1  9  2 -1</clus>
<clus scale="   90.709">  5  6 -1 -1</clus>
<clus scale="   99.569">  7  8 -1 -1</clus>
<clus scale="  114.263">  1  5  2 -1</clus>
<clus scale="   27.202">  1  5  2 -1</clus>
</clustering>
</event>
<event>
 9    1  0.9000149E-006  0.9357252E+02  0.7546771E-02  0.1296467E+00
         -2   -1    0    0    0  501 -0.00000000000E+00  0.00000000000E+00  0.88571350165E+02  0.88571350165E+02  0.00000000000E+00 0.  1.
          2   -1    0    0  502    0  0.00000000000E+00 -0.00000000000E+00 -0.33052164251E+03  0.33052164251E+03  0.00000000000E+00 0. -1.
         23    2    1    2    0    0 -0.10261369639E+02  0.19874681316E+02  0.49209163077E+02  0.10621879613E+03  0.91436274296E+02 0.  0.
         23    2    1    2    0    0  0.92457752389E+01  0.28680365883E+01 -0.19572714299E+03  0.21476411090E+03  0.87868076291E+02 0.  0.
        -11    1    3    3    0    0  0.21307045656E+02 -0.48744675127E+01 -0.17754471932E+02  0.28159756776E+02  0.00000000000E+00 0. -1.
         11    1    3    3    0    0 -0.31568415294E+02  0.24749148828E+02  0.66963635009E+02  0.78059039358E+02  0.00000000000E+00 0.  1.
        -13    1    4    4    0    0  0.22859350723E+02  0.41019711027E+02 -0.12044676353E+03  0.12927718071E+03  0.00000000000E+00 0.  1.
         13    1    4    4    0    0 -0.13613575485E+02 -0.38151674439E+02 -0.75280379462E+02  0.85486930182E+02  0.00000000000E+00 0. -1.
         21    1    1    2  502  501  0.10155943997E+01 -0.22742717904E+02 -0.95432312425E+02  0.98110085641E+02  0.00000000000E+00 0. -1.
<scales pt_clust_5="13000.00000" pt_clust_6="13000.00000" pt_clust_7="13000.00000" pt_clust_8="13000.00000" pt_clust_9="22.76538"></scales>
<clustering>
<clus scale="   22.765">  2  9  1 -1</clus>
<clus scale="   87.868">  7  8 -1 -1</clus>
<clus scale="   90.089">  2  7  1 -1</clus>
<clus scale="   91.436">  5  6 -1 -1</clus>
<clus scale="   22.765">  2  5  1 -1</clus>
</clustering>
</event>
<event>
 9    1  0.9000149E-006  0.1169173E+03  0.7546771E-02  0.1249576E+00
         -2   -1    0    0    0  501 -0.00000000000E+00  0.00000000000E+00  0.13913992733E+03  0.13913992733E+03  0.00000000000E+00 0.  1.
          2   -1    0    0  502    0  0.00000000000E+00 -0.00000000000E+00 -0.16627579966E+03  0.16627579966E+03  0.00000000000E+00 0. -1.
         23    2    1    2    0    0  0.68559421441E+02  0.30713783329E+02  0.72595144758E+02  0.13846403618E+03  0.90876308887E+02 0.  0.
         23    2    1    2    0    0 -0.41627270709E+02 -0.24468249491E+02 -0.78385789159E+02  0.13202367639E+03  0.94627661312E+02 0.  0.
        -11    1    3    3    0    0 -0.11305422318E+02 -0.19950245629E+02  0.98035496063E+01  0.24938613822E+02  0.00000000000E+00 0. -1.
         11    1    3    3    0    0  0.79864843759E+02  0.50664028959E+02  0.62791595152E+02  0.11352542235E+03  0.00000000000E+00 0.  1.
        -13    1    4    4    0    0 -0.22495694399E+02 -0.60747380383E+02 -0.53785352419E+02  0.84197177059E+02  0.00000000000E+00 0. -1.
         13    1    4    4    0    0 -0.19131576310E+02  0.36279130892E+02 -0.24600436740E+02  0.47826499330E+02  0.00000000000E+00 0.  1.
         21    1    1    2  502  501 -0.26932150732E+02 -0.62455338384E+01 -0.21345227932E+02  0.34928014422E+02  0.00000000000E+00 0.  1.
<scales pt_clust_5="13000.00000" pt_clust_6="13000.00000" pt_clust_7="13000.00000" pt_clust_8="13000.00000" pt_clust_9="27.64683"></scales>
<clustering>
<clus scale="   27.647">  2  9  1 -1</clus>
<clus scale="   90.876">  5  6 -1 -1</clus>
<clus scale="   94.628">  7  8 -1 -1</clus>
<clus scale="  113.902">  1  5  2 -1</clus>
<clus scale="   27.647">  2  5  1 -1</clus>
</clustering>
</event>
<event>
 9    1  0.9000149E-006  0.9422081E+02  0.7546771E-02  0.1294967E+00
          2   -1    0    0  502    0  0.00000000000E+00  0.00000000000E+00  0.26846101685E+03  0.26846101685E+03  0.00000000000E+00 0. -1.
         -2   -1    0    0    0  501 -0.00000000000E+00 -0.00000000000E+00 -0.12696887526E+03  0.12696887526E+03  0.00000000000E+00 0.  1.
         23    2    1    2    0    0 -0.19404672896E+01  0.13168321792E+01 -0.75453119001E+02  0.12056569635E+03  0.94007523689E+02 0.  0.
         23    2    1    2    0    0 -0.39073183015E+02  0.38677720310E+02  0.10509807756E+03  0.14920005572E+03  0.90511717703E+02 0.  0.
        -11    1    3    3    0    0 -0.69727865344E+01  0.45010728815E+02 -0.56759542131E+02  0.72775209264E+02  0.00000000000E+00 0.  1.
         11    1    3    3    0    0  0.50323192449E+01 -0.43693896636E+02 -0.18693576871E+02  0.47790487091E+02  0.00000000000E+00 0. -1.
        -13    1    4    4    0    0  0.16743901006E+02  0.42185315354E+02  0.69155610634E+02  0.82719148536E+02  0.00000000000E+00 0. -1.
         13    1    4    4    0    0 -0.55817084021E+02 -0.35075950441E+01  0.35942466926E+02  0.66480907186E+02  0.00000000000E+00 0.  1.
         21    1    1    2  502  501  0.41013650304E+02 -0.39994552489E+02  0.11184718303E+03  0.12566414004E+03  0.00000000000E+00 0. -1.
<scales pt_clust_5="13000.00000" pt_clust_6="13000.00000" pt_clust_7="13000.00000" pt_clust_8="13000.00000" pt_clust_9="57.28598"></scales>
<clustering>
<clus scale="   57.286">  1  9  2 -1</clus>
<clus scale="   90.512">  7  8 -1 -1</clus>
<clus scale="   90.733">  1  7  2 -1</clus>
<clus scale="   94.008">  5  6 -1 -1</clus>
<clus scale="   57.286">  1  5  2 -1</clus>
</clustering>
</event>
<event>
 9    1  0.9000149E-006  0.1313447E+03  0.7546771E-02  0.1225899E+00
         -3   -1    0    0    0  501 -0.00000000000E+00  0.00000000000E+00  0.43802486711E+03  0.43802486711E+03  0.00000000000E+00 0.  1.
          3   -1    0    0  502    0  0.00000000000E+00 -0.00000000000E+00 -0.67630778477E+02  0.67630778477E+02  0.00000000000E+00 0. -1.
         23    2    1    2    0    0 -0.16872104760E+02  0.94476362405E+02  0.31513693919E+03  0.34188518809E+03  0.91453487740E+02 0.  0.
         23    2    1    2    0    0 -0.84596676407E+01 -0.83195915791E+02  0.36714314531E+02  0.13041204184E+03  0.93092606495E+02 0.  0.
        -11    1    3    3    0    0 -0.14323061918E+02 -0.16038811088E+02  0.40946276817E+02  0.46249228631E+02  0.00000000000E+00 0. -1.
         11    1    3    3    0    0 -0.25490428426E+01  0.11051517349E+03  0.27419066237E+03  0.29563595945E+03  0.00000000000E+00 0.  1.
        -13    1    4    4    0    0 -0.50886110769E+02 -0.42102120444E+02  0.20728107564E+02  0.69221667549E+02  0.00000000000E+00 0. -1.
         13    1    4    4    0    0  0.42426443128E+02 -0.41093795347E+02  0.15986206967E+02  0.61190374289E+02  0.00000000000E+00 0.  1.
         21    1    1    2  502  501  0.25331772401E+02 -0.11280446615E+02  0.18542834910E+02  0.33358415660E+02  0.00000000000E+00 0.  1.
<scales pt_clust_5="13000.00000" pt_clust_6="13000.00000" pt_clust_7="13000.00000" pt_clust_8="13000.00000" pt_clust_9="27.72990"></scales>
<clustering>
<clus scale="   27.730">  2  9  1 -1</clus>
<clus scale="   91.453">  5  6 -1 -1</clus>
<clus scale="   93.093">  7  8 -1 -1</clus>
<clus scale="  130.188">  1  5  2 -1</clus>
<clus scale="   27.730">  2  5  1 -1</clus>
</clustering>
</event>
<event>
 9    1  0.9000149E-006  0.1153353E+03  0.7546771E-02  0.1251502E+00
         -1   -1    0    0    0  501 -0.00000000000E+00  0.00000000000E+00  0.73874490637E+02  0.73874490637E+02  0.00000000000E+00 0.  1.
          1   -1    0    0  502    0  0.00000000000E+00 -0.00000000000E+00 -0.69205155262E+03  0.69205155262E+03  0.00000000000E+00 0. -1.
         23    2    1    2    0    0  0.12217301048E+02  0.55449669313E+02  0.80639637817E+00  0.10884995437E+03  0.92864062046E+02 0.  0.
         23    2    1    2    0    0  0.59661995255E+02 -0.43034274841E+02 -0.52581298236E+03  0.53874810042E+03  0.91426040019E+02 0.  0.
        -11    1    4    4    0    0  0.27995619785E+02  0.27486882540E+02 -0.20805527564E+03  0.21172217919E+03  0.00000000000E+00 0.  1.
         11    1    4    4    0    0  0.31666375469E+02 -0.70521157381E+02 -0.31775770672E+03  0.32702592123E+03  0.00000000000E+00 0. -1.
        -11    1    3    3    0    0  0.24263752172E+02  0.78025392136E+02 -0.72267215961E+01  0.82029976182E+02  0.00000000000E+00 0.  1.
         11    1    3    3    0    0 -0.12046451124E+02 -0.22575722823E+02  0.80331179743E+01  0.26819978189E+02  0.00000000000E+00 0. -1.
         21    1    1    2  502  501 -0.71879296303E+02 -0.12415394471E+02 -0.93170475995E+02  0.11832798846E+03  0.00000000000E+00 0.  1.
<scales pt_clust_5="13000.00000" pt_clust_6="13000.00000" pt_clust_7="13000.00000" pt_clust_8="13000.00000" pt_clust_9="72.94364"></scales>
<clustering>
<clus scale="   72.944">  1  9  2 -1</clus>
<clus scale="   91.426">  5  6 -1 -1</clus>
<clus scale="   92.864">  7  8 -1 -1</clus>
<clus scale="  114.181">  2  5  1 -1</clus>
<clus scale="  114.181">  2  5  1 -1</clus>
</clustering>
</event>
<event>
 9    1  0.9000149E-006  0.1437746E+03  0.7546771E-02  0.1221152E+00
          1   -1    0    0  502    0  0.00000000000E+00  0.00000000000E+00  0.57998407973E+03  0.57998407973E+03  0.00000000000E+00 0. -1.
         -1   -1    0    0    0  501 -0.00000000000E+00 -0.00000000000E+00 -0.18304153313E+03  0.18304153313E+03  0.00000000000E+00 0.  1.
         23    2    1    2    0    0 -0.48671684801E+02  0.40770767545E+02 -0.74796983198E+02  0.13268734024E+03  0.89331703097E+02 0.  0.
         23    2    1    2    0    0  0.25774871868E+02  0.72229273454E+02 -0.23887838869E+02  0.12147703232E+03  0.91129734842E+02 0.  0.
        -11    1    4    4    0    0  0.18336336242E+02  0.94023743170E+02 -0.22526198344E+02  0.98407901706E+02  0.00000000000E+00 0.  1.
         11    1    4    4    0    0  0.74385356256E+01 -0.21794469716E+02 -0.13616405248E+01  0.23069130616E+02  0.00000000000E+00 0. -1.
        -13    1    3    3    0    0 -0.72821088492E+02  0.33508370099E+02 -0.71197771107E+02  0.10721401217E+03  0.00000000000E+00 0.  1.
         13    1    3    3    0    0  0.24149403692E+02  0.72623974454E+01 -0.35992120915E+01  0.25473328071E+02  0.00000000000E+00 0. -1.
         21    1    1    2  502  501  0.22896812933E+02 -0.11300004100E+03  0.49562736866E+03  0.50886124030E+03  0.00000000000E+00 0. -1.
<scales pt_clust_5="13000.00000" pt_clust_6="13000.00000" pt_clust_7="13000.00000" pt_clust_8="13000.00000" pt_clust_9="111.20479"></scales>
<clustering>
<clus scale="   89.332">  7  8 -1 -1</clus>
<clus scale="   91.130">  5  6 -1 -1</clus>
<clus scale="  109.596">  2  7  1 -1</clus>
<clus scale="  111.205">  1  9  2 -1</clus>
<clus scale="  111.205">  1  5  2 -1</clus>
</clustering>
</event>
<event>
 9    1  0.9000149E-006  0.1170319E+03  0.7546771E-02  0.1249231E+00
         -1   -1    0    0    0  501 -0.00000000000E+00  0.00000000000E+00  0.71410939581E+02  0.71410939581E+02  0.00000000000E+00 0.  1.
          1   -1    0    0  502    0  0.00000000000E+00 -0.00000000000E+00 -0.41724831564E+03  0.41724831564E+03  0.00000000000E+00 0. -1.
         23    2    1    2    0    0  0.59321628874E+02  0.79147431355E+02 -0.61868287736E+02  0.14833042455E+03  0.91601628131E+02 0.  0.
         23    2    1    2    0    0 -0.46109317141E+01 -0.10905284137E+02 -0.18486219311E+03  0.20814551963E+03  0.94922815941E+02 0.  0.
        -11    1    3    3    0    0  0.57186570502E+02  0.51511662922E+02  0.37920487063E+01  0.77059294677E+02  0.00000000000E+00 0.  1.
         11    1    3    3    0    0  0.21350583726E+01  0.27635768433E+02 -0.65660336442E+02  0.71271129869E+02  0.00000000000E+00 0. -1.
        -13    1    4    4    0    0 -0.37432296164E+02 -0.30631641287E+02 -0.57431845877E+02  0.75085891917E+02  0.00000000000E+00 0. -1.
         13    1    4    4    0    0  0.32821364449E+02  0.19726357151E+02 -0.12743034723E+03  0.13305962771E+03  0.00000000000E+00 0.  1.
         21    1    1    2  502  501 -0.54710697160E+02 -0.68242147218E+02 -0.99106895213E+02  0.13218331105E+03  0.00000000000E+00 0. -1.
<scales pt_clust_5="13000.00000" pt_clust_6="13000.00000" pt_clust_7="13000.00000" pt_clust_8="13000.00000" pt_clust_9="87.46571"></scales>
<clustering>
<clus scale="   87.466">  2  9  1 -1</clus>
<clus scale="   91.602">  5  6 -1 -1</clus>
<clus scale="   94.923">  7  8 -1 -1</clus>
<clus scale="  114.355">  1  5  2 -1</clus>
<clus scale="   87.466">  2  5  1 -1</clus>
</clustering>
</event>
<event>
 9    1  0.9000149E-006  0.9954910E+02  0.7546771E-02  0.1282768E+00
          3   -1    0    0  502    0  0.00000000000E+00  0.00000000000E+00  0.31205021029E+03  0.31205021029E+03  0.00000000000E+00 0. -1.
         -3   -1    0    0    0  501 -0.00000000000E+00 -0.00000000000E+00 -0.16050712993E+03  0.16050712993E+03  0.00000000000E+00 0.  1.
         23    2    1    2    0    0 -0.31004544655E+02 -0.28865137962E+02 -0.11406333334E+03  0.15172630147E+03  0.90641869835E+02 0.  0.
         23    2    1    2    0    0  0.75222925218E+01  0.41966842974E+02  0.61921959420E+02  0.11537927373E+03  0.87522836756E+02 0.  0.
        -13    1    4    4    0    0 -0.59734102089E+01  0.67697981810E+02  0.38883288834E+02  0.78298202542E+02  0.00000000000E+00 0. -1.
         13    1    4    4    0    0  0.13495702731E+02 -0.25731138837E+02  0.23038670586E+02  0.37081071187E+02  0.00000000000E+00 0.  1.
        -13    1    3    3    0    0 -0.53566068673E+02 -0.21111435029E+02 -0.31177720534E+02  0.65475695183E+02  0.00000000000E+00 0.  1.
         13    1    3    3    0    0  0.22561524018E+02 -0.77537029324E+01 -0.82885612802E+02  0.86250606286E+02  0.00000000000E+00 0. -1.
         21    1    1    2  502  501  0.23482252133E+02 -0.13101705012E+02  0.20368445428E+03  0.20545176503E+03  0.00000000000E+00 0. -1.
<scales pt_clust_5="13000.00000" pt_clust_6="13000.00000" pt_clust_7="13000.00000" pt_clust_8="13000.00000" pt_clust_9="26.88998"></scales>
<clustering>
<clus scale="   26.890">  1  9  2 -1</clus>
<clus scale="   87.523">  5  6 -1 -1</clus>
<clus scale="   90.642">  7  8 -1 -1</clus>
<clus scale="   96.718">  1  5  2 -1</clus>
<clus scale="   26.890">  1  5  2 -1</clus>
</clustering>
</event>
<event>
 9    1  0.9000149E-006  0.1127539E+03  0.7546771E-02  0.1257620E+00
         -1   -1    0    0    0  501 -0.00000000000E+00  0.00000000000E+00  0.22410980167E+03  0.22410980167E+03  0.00000000000E+00 0.  1.
          1   -1    0    0  502    0  0.00000000000E+00 -0.00000000000E+00 -0.18371225786E+03  0.18371225786E+03  0.00000000000E+00 0. -1.
         23    2    1    2    0    0 -0.51074589060E+02 -0.30159128787E+02  0.18256591242E+03  0.21258412918E+03  0.91342831711E+02 0.  0.
         23    2    1    2    0    0  0.29484901432E+02  0.39761132927E+02 -0.12729612683E+03  0.16731846276E+03  0.96648108979E+02 0.  0.
        -11    1    4    4    0    0  0.39217027030E+02  0.62468535978E+02 -0.12118875099E+03  0.14186968162E+03  0.00000000000E+00 0. -1.
         11    1    4    4    0    0 -0.97321255972E+01 -0.22707403050E+02 -0.61073758468E+01  0.25448781143E+02  0.00000000000E+00 0.  1.
        -11    1    3    3    0    0  0.26013330357E+02 -0.15957283737E+02  0.52363313207E+02  0.60607300142E+02  0.00000000000E+00 0. -1.
         11    1    3    3    0    0 -0.77087919417E+02 -0.14201845051E+02  0.13020259921E+03  0.15197682904E+03  0.00000000000E+00 0.  1.
         21    1    1    2  502  501  0.21589687628E+02 -0.96020041403E+01 -0.14872241774E+02  0.27919467594E+02  0.00000000000E+00 0. -1.
<scales pt_clust_5="13000.00000" pt_clust_6="13000.00000" pt_clust_7="13000.00000" pt_clust_8="13000.00000" pt_clust_9="23.62865"></scales>
<clustering>
<clus scale="   23.629">  2  9  1 -1</clus>
<clus scale="   91.343">  7  8 -1 -1</clus>
<clus scale="   96.648">  5  6 -1 -1</clus>
<clus scale="  108.241">  1  7  2 -1</clus>
<clus scale="   23.629">  2  5  1 -1</clus>
</clustering>
</event>
<event>
 9    1  0.9000149E-006  0.1004522E+03  0.7546771E-02  0.1279919E+00
         -1   -1    0    0    0  501 -0.00000000000E+00  0.00000000000E+00  0.34165470369E+03  0.34165470369E+03  0.00000000000E+00 0.  1.
          1   -1    0    0  502    0  0.00000000000E+00 -0.00000000000E+00 -0.38926185498E+02  0.38926185498E+02  0.00000000000E+00 0. -1.
         23    2    1    2    0    0 -0.29139881103E+02  0.21312707750E+02  0.14275957149E+03  0.17328434158E+03  0.91344422954E+02 0.  0.
         23    2    1    2    0    0  0.51775527596E+02 -0.52828537928E+01  0.12731988036E+03  0.16445625999E+03  0.90149296790E+02 0.  0.
        -13    1    3    3    0    0 -0.29707702262E+01  0.55079133726E+02  0.87542330452E+02  0.10347074982E+03  0.00000000000E+00 0. -1.
         13    1    3    3    0    0 -0.26169110877E+02 -0.33766425975E+02  0.55217241033E+02  0.69813591761E+02  0.00000000000E+00 0.  1.
        -13    1    4    4    0    0  0.72731304596E+02 -0.91620964116E+01  0.62867505075E+02  0.96571786114E+02  0.00000000000E+00 0. -1.
         13    1    4    4    0    0 -0.20955777000E+02  0.38792426188E+01  0.64452375289E+02  0.67884473876E+02  0.00000000000E+00 0.  1.
         21    1    1    2  502  501 -0.22635646493E+02 -0.16029853957E+02  0.32649066344E+02  0.42840287618E+02  0.00000000000E+00 0.  1.
<scales pt_clust_5="13000.00000" pt_clust_6="13000.00000" pt_clust_7="13000.00000" pt_clust_8="13000.00000" pt_clust_9="27.73678"></scales>
<clustering>
<clus scale="   27.737">  2  9  1 -1</clus>
<clus scale="   90.149">  7  8 -1 -1</clus>
<clus scale="   91.344">  5  6 -1 -1</clus>
<clus scale="   99.367">  2  7  1 -1</clus>
<clus scale="   27.737">  2  5  1 -1</clus>
</clustering>
</event>
<event>
 9    1  0.9000149E-006  0.1854042E+03  0.7546771E-02  0.1164276E+00
          1   -1    0    0  502    0  0.00000000000E+00  0.00000000000E+00  0.18122603826E+03  0.18122603826E+03  0.00000000000E+00 0. -1.
         -1   -1    0    0    0  501 -0.00000000000E+00 -0.00000000000E+00 -0.21424370771E+03  0.21424370771E+03  0.00000000000E+00 0.  1.
         23    2    1    2    0    0 -0.40040904838E+01  0.14660880375E+03 -0.52498829354E+02  0.17460105705E+03  0.78862081887E+02 0.  0.
         23    2    1    2    0    0  0.10136652210E+01 -0.17056507634E+03  0.25436370490E+02  0.19600284543E+03  0.93148449738E+02 0.  0.
        -13    1    3    3    0    0  0.35873473142E+02  0.88744279269E+02 -0.23394988455E+02  0.98538209153E+02  0.00000000000E+00 0.  1.
         13    1    3    3    0    0 -0.39877563626E+02  0.57864524484E+02 -0.29103840899E+02  0.76062847893E+02  0.00000000000E+00 0. -1.
        -13    1    4    4    0    0 -0.17404311810E+02 -0.12319151504E+03  0.56276169022E+02  0.13655060105E+03  0.00000000000E+00 0. -1.
         13    1    4    4    0    0  0.18417977031E+02 -0.47373561305E+02 -0.30839798533E+02  0.59452244383E+02  0.00000000000E+00 0.  1.
         21    1    1    2  502  501  0.29904252628E+01  0.23956272591E+02 -0.59552105895E+01  0.24865843498E+02  0.00000000000E+00 0.  1.
<scales pt_clust_5="13000.00000" pt_clust_6="13000.00000" pt_clust_7="13000.00000" pt_clust_8="13000.00000" pt_clust_9="24.14220"></scales>
<clustering>
<clus scale="   24.142">  2  9  1 -1</clus>
<clus scale="   78.862">  5  6 -1 -1</clus>
<clus scale="   93.148">  7  8 -1 -1</clus>
<clus scale="  178.654">  2  5  1 -1</clus>
<clus scale="  185.404">  1  5  2 -1</clus>
</clustering>
</event>
<event>
 9    1  0.9000149E-006  0.1159584E+03  0.7546771E-02  0.1250078E+00
          1   -1    0    0  502    0  0.00000000000E+00  0.00000000000E+00  0.32605492948E+02  0.32605492948E+02  0.00000000000E+00 0. -1.
         -1   -1    0    0    0  501 -0.00000000000E+00 -0.00000000000E+00 -0.60845687191E+03  0.60845687191E+03  0.00000000000E+00 0.  1.
         23    2    1    2    0    0 -0.49875334513E+02 -0.37578301488E+02 -0.26158551525E+03  0.28365445039E+03  0.90184187650E+02 0.  0.
         23    2    1    2    0    0  0.70107627205E+02  0.44051307262E+02 -0.31289382884E+03  0.33612111219E+03  0.90660117318E+02 0.  0.
        -13    1    3    3    0    0 -0.83246723638E+01 -0.39365933444E+02 -0.22404113750E+03  0.22762558771E+03  0.00000000000E+00 0.  1.
         13    1    3    3    0    0 -0.41550662150E+02  0.17876319560E+01 -0.37544377748E+02  0.56028862683E+02  0.00000000000E+00 0. -1.
        -13    1    4    4    0    0 -0.21238565726E+02  0.15507466797E+02 -0.84176629073E+02  0.88188792274E+02  0.00000000000E+00 0. -1.
         13    1    4    4    0    0  0.91346192931E+02  0.28543840465E+02 -0.22871719976E+03  0.24793231992E+03  0.00000000000E+00 0.  1.
         21    1    1    2  502  501 -0.20232292691E+02 -0.64730057740E+01 -0.13720348710E+01  0.21286802273E+02  0.00000000000E+00 0.  1.
<scales pt_clust_5="13000.00000" pt_clust_6="13000.00000" pt_clust_7="13000.00000" pt_clust_8="13000.00000" pt_clust_9="21.24254"></scales>
<clustering>
<clus scale="   21.243">  1  9  2 -1</clus>
<clus scale="   90.184">  5  6 -1 -1</clus>
<clus scale="   90.660">  7  8 -1 -1</clus>
<clus scale="  115.587">  2  5  1 -1</clus>
<clus scale="   21.243">  1  5  2 -1</clus>
</clustering>
</event>
<event>
 9    1  0.9000149E-006  0.1289455E+03  0.7546771E-02  0.1234195E+00
          1   -1    0    0  502    0  0.00000000000E+00  0.00000000000E+00  0.36789866833E+03  0.36789866833E+03  0.00000000000E+00 0. -1.
         -1   -1    0    0    0  501 -0.00000000000E+00 -0.00000000000E+00 -0.44366820015E+03  0.44366820015E+03  0.00000000000E+00 0.  1.
         23    2    1    2    0    0  0.42872932267E+02 -0.59462259080E+02 -0.40656002458E+03  0.42666898360E+03  0.10668420412E+03 0.  0.
         23    2    1    2    0    0  0.12253243600E+02  0.63681358842E+02  0.30341537479E+03  0.32320434265E+03  0.90524582312E+02 0.  0.
        -11    1    3    3    0    0  0.67132254141E+02 -0.63969490435E+02 -0.37663900121E+03  0.38788628809E+03  0.00000000000E+00 0.  1.
         11    1    3    3    0    0 -0.24259321874E+02  0.45072313548E+01 -0.29921023364E+02  0.38782695516E+02  0.00000000000E+00 0. -1.
        -11    1    4    4    0    0  0.44530232245E+02  0.25087712945E+02  0.85983160794E+02  0.10002719063E+03  0.00000000000E+00 0.  1.
         11    1    4    4    0    0 -0.32276988644E+02  0.38593645897E+02  0.21743221400E+03  0.22317715202E+03  0.00000000000E+00 0. -1.
         21    1    1    2  502  501 -0.55126175868E+02 -0.42190997621E+01  0.27375117970E+02  0.61693542226E+02  0.00000000000E+00 0.  1.
<scales pt_clust_5="13000.00000" pt_clust_6="13000.00000" pt_clust_7="13000.00000" pt_clust_8="13000.00000" pt_clust_9="55.28740"></scales>
<clustering>
<clus scale="   55.287">  1  9  2 -1</clus>
<clus scale="   90.525">  7  8 -1 -1</clus>
<clus scale="  106.684">  5  6 -1 -1</clus>
<clus scale="  115.932">  1  7  2 -1</clus>
<clus scale="   55.287">  1  5  2 -1</clus>
</clustering>
</event>
<event>
 9    1  0.9000149E-006  0.9302672E+02  0.7546771E-02  0.1297650E+00
          1   -1    0    0  502    0  0.00000000000E+00  0.00000000000E+00  0.21658241994E+03  0.21658241994E+03  0.00000000000E+00 0. -1.
         -1   -1    0    0    0  501 -0.00000000000E+00 -0.00000000000E+00 -0.17694637495E+03  0.17694637495E+03  0.00000000000E+00 0.  1.
         23    2    1    2    0    0 -0.18421414254E+02  0.10177398057E+02 -0.12147348923E+03  0.15398777761E+03  0.92268624860E+02 0.  0.
         23    2    1    2    0    0 -0.50300182666E+02  0.16130650502E+02  0.87657796700E+02  0.13557020864E+03  0.88910549919E+02 0.  0.
        -11    1    3    3    0    0 -0.71002680910E+01  0.49648379469E+02 -0.86783585753E+02  0.10023355799E+03  0.00000000000E+00 0.  1.
         11    1    3    3    0    0 -0.11321146163E+02 -0.39470981412E+02 -0.34689903479E+02  0.53754219624E+02  0.00000000000E+00 0. -1.
        -13    1    4    4    0    0 -0.68085455531E+02 -0.73058957931E+01  0.39262816835E+02  0.78933986052E+02  0.00000000000E+00 0. -1.
         13    1    4    4    0    0  0.17785272864E+02  0.23436546295E+02  0.48394979865E+02  0.56636222590E+02  0.00000000000E+00 0.  1.
         21    1    1    2  502  501  0.68721596920E+02 -0.26308048560E+02  0.73451737519E+02  0.10397080863E+03  0.00000000000E+00 0. -1.
<scales pt_clust_5="13000.00000" pt_clust_6="13000.00000" pt_clust_7="13000.00000" pt_clust_8="13000.00000" pt_clust_9="73.58513"></scales>
<clustering>
<clus scale="   73.585">  1  9  2 -1</clus>
<clus scale="   88.911">  7  8 -1 -1</clus>
<clus scale="   89.697">  1  7  2 -1</clus>
<clus scale="   92.269">  5  6 -1 -1</clus>
<clus scale="   73.585">  1  5  2 -1</clus>
</clustering>
</event>
<event>
 9    1  0.9000149E-006  0.1920337E+03  0.7546771E-02  0.1156704E+00
         -2   -1    0    0    0  501 -0.00000000000E+00  0.00000000000E+00  0.32065563917E+03  0.32065563917E+03  0.00000000000E+00 0.  1.
          2   -1    0    0  502    0  0.00000000000E+00 -0.00000000000E+00 -0.13132902431E+03  0.13132902431E+03  0.00000000000E+00 0. -1.
         23    2    1    2    0    0  0.96569619281E+02 -0.14873741334E+03  0.11976237120E+03  0.23293653528E+03  0.92021162878E+02 0.  0.
         23    2    1    2    0    0 -0.76292956726E+02  0.13955140346E+03  0.71085522272E+02  0.19673579730E+03  0.91414512015E+02 0.  0.
        -11    1    4    4    0    0  0.99390424919E+01  0.58647727921E+02  0.14292657407E+01  0.59501120632E+02  0.00000000000E+00 0.  1.
         11    1    4    4    0    0 -0.86231999218E+02  0.80903675542E+02  0.69656256531E+02  0.13723467667E+03  0.00000000000E+00 0. -1.
        -13    1    3    3    0    0  0.93034577085E+02 -0.12619488084E+03  0.58122625683E+02  0.16720891154E+03  0.00000000000E+00 0.  1.
         13    1    3    3    0    0  0.35350421959E+01 -0.22542532506E+02  0.61639745515E+02  0.65727623738E+02  0.00000000000E+00 0. -1.
         21    1    1    2  502  501 -0.20276662555E+02  0.91860098795E+01 -0.15212786155E+01  0.22312330907E+02  0.00000000000E+00 0. -1.
<scales pt_clust_5="13000.00000" pt_clust_6="13000.00000" pt_clust_7="13000.00000" pt_clust_8="13000.00000" pt_clust_9="22.26041"></scales>
<clustering>
<clus scale="   22.260">  2  9  1 -1</clus>
<clus scale="   91.415">  5  6 -1 -1</clus>
<clus scale="   92.021">  7  8 -1 -1</clus>
<clus scale="  191.744">  2  5  1 -1</clus>
<clus scale="   22.260">  2  5  1 -1</clus>
</clustering>
</event>
<event>
 9    1  0.9000149E-006  0.9287186E+02  0.7546771E-02  0.1296528E+00
         -3   -1    0    0    0  501 -0.00000000000E+00  0.00000000000E+00  0.44123223350E+02  0.44123223350E+02  0.00000000000E+00 0.  1.
          3   -1    0    0  502    0  0.00000000000E+00 -0.00000000000E+00 -0.38486237126E+03  0.38486237126E+03  0.00000000000E+00 0. -1.
         23    2    1    2    0    0  0.91495169125E+01 -0.12517984086E+01 -0.35697418930E+02  0.99164334466E+02  0.92054216920E+02 0.  0.
         23    2    1    2    0    0 -0.13273312980E+02  0.23670700518E+02 -0.18951142540E+03  0.21206361109E+03  0.91213551024E+02 0.  0.
        -13    1    4    4    0    0 -0.50964287687E+02  0.45302196623E+01 -0.12347174494E+03  0.13365310811E+03  0.00000000000E+00 0.  1.
         13    1    4    4    0    0  0.37690974707E+02  0.19140480856E+02 -0.66039680462E+02  0.78410502978E+02  0.00000000000E+00 0. -1.
        -13    1    3    3    0    0 -0.24726655644E+02  0.11401917781E+02  0.19277359186E+02  0.33362071363E+02  0.00000000000E+00 0.  1.
         13    1    3    3    0    0  0.33876172557E+02 -0.12653716190E+02 -0.54974778116E+02  0.65802263103E+02  0.00000000000E+00 0. -1.
         21    1    1    2  502  501  0.41237960679E+01 -0.22418902109E+02 -0.11553030358E+03  0.11775764906E+03  0.00000000000E+00 0.  1.
<scales pt_clust_5="13000.00000" pt_clust_6="13000.00000" pt_clust_7="13000.00000" pt_clust_8="13000.00000" pt_clust_9="22.79502"></scales>
<clustering>
<clus scale="   22.795">  2  9  1 -1</clus>
<clus scale="   91.214">  5  6 -1 -1</clus>
<clus scale="   92.039">  2  5  1 -1</clus>
<clus scale="   92.054">  7  8 -1 -1</clus>
<clus scale="   22.795">  2  5  1 -1</clus>
</clustering>
</event>
<event>
 9    1  0.9000149E-006  0.1497972E+03  0.7546771E-02  0.1200837E+00
          1   -1    0    0  502    0  0.00000000000E+00  0.00000000000E+00  0.36665424861E+02  0.36665424861E+02  0.00000000000E+00 0. -1.
         -1   -1    0    0    0  501 -0.00000000000E+00 -0.00000000000E+00 -0.11277054235E+04  0.11277054235E+04  0.00000000000E+00 0.  1.
         23    2    1    2    0    0  0.95275166114E+02  0.81890702932E+02 -0.83571092678E+03  0.84953012348E+03  0.86632748099E+02 0.  0.
         23    2    1    2    0    0 -0.58842527364E+02 -0.99137288289E+02 -0.19563991039E+03  0.24281588286E+03  0.85987984473E+02 0.  0.
        -11    1    3    3    0    0 -0.11455821526E+02  0.33496640351E+02 -0.19893923417E+03  0.20206454328E+03  0.00000000000E+00 0. -1.
         11    1    3    3    0    0  0.10673098764E+03  0.48394062581E+02 -0.63677169262E+03  0.64746558019E+03  0.00000000000E+00 0.  1.
        -13    1    4    4    0    0  0.16938253927E+02 -0.16822804143E+02 -0.96156780057E+01  0.25736597461E+02  0.00000000000E+00 0.  1.
         13    1    4    4    0    0 -0.75780781291E+02 -0.82314484145E+02 -0.18602423239E+03  0.21707928540E+03  0.00000000000E+00 0. -1.
         21    1    1    2  502  501 -0.36432638751E+02  0.17246585357E+02 -0.59689161455E+02  0.72024842020E+02  0.00000000000E+00 0. -1.
<scales pt_clust_5="13000.00000" pt_clust_6="13000.00000" pt_clust_7="13000.00000" pt_clust_8="13000.00000" pt_clust_9="40.30858"></scales>
<clustering>
<clus scale="   40.309">  1  9  2 -1</clus>
<clus scale="   85.988">  7  8 -1 -1</clus>
<clus scale="   86.633">  5  6 -1 -1</clus>
<clus scale="  149.425">  1  7  2 -1</clus>
<clus scale="   40.309">  1  5  2 -1</clus>
</clustering>
</event>
<event>
 9    1  0.9000149E-006  0.1074321E+03  0.7546771E-02  0.1265669E+00
          2   -1    0    0  502    0  0.00000000000E+00  0.00000000000E+00  0.35479769673E+03  0.35479769673E+03  0.00000000000E+00 0. -1.
         -2   -1    0    0    0  501 -0.00000000000E+00 -0.00000000000E+00 -0.60128756652E+02  0.60128756652E+02  0.00000000000E+00 0.  1.
         23    2    1    2    0    0 -0.46941952165E+01  0.47180225360E+02  0.41575903137E+02  0.10945821717E+03  0.89468075033E+02 0.  0.
         23    2    1    2    0    0 -0.46707470558E+01 -0.81995479134E+02  0.13465093481E+03  0.18166058057E+03  0.90136661858E+02 0.  0.
        -11    1    4    4    0    0  0.40149502729E+02 -0.20837127176E+02  0.39995485668E+02  0.60380520966E+02  0.00000000000E+00 0.  1.
         11    1    4    4    0    0 -0.44820249784E+02 -0.61158351958E+02  0.94655449144E+02  0.12128005960E+03  0.00000000000E+00 0. -1.
        -13    1    3    3    0    0 -0.32263502845E+02 -0.49479358856E+01  0.38407061474E+02  0.50403552022E+02  0.00000000000E+00 0. -1.
         13    1    3    3    0    0  0.27569307628E+02  0.52128161246E+02  0.31688416630E+01  0.59054665146E+02  0.00000000000E+00 0.  1.
         21    1    1    2  502  501  0.93649422722E+01  0.34815253774E+02  0.11844210213E+03  0.12380765564E+03  0.00000000000E+00 0. -1.
<scales pt_clust_5="13000.00000" pt_clust_6="13000.00000" pt_clust_7="13000.00000" pt_clust_8="13000.00000" pt_clust_9="36.05280"></scales>
<clustering>
<clus scale="   36.053">  1  9  2 -1</clus>
<clus scale="   89.468">  7  8 -1 -1</clus>
<clus scale="   90.137">  5  6 -1 -1</clus>
<clus scale="  106.872">  2  7  1 -1</clus>
<clus scale="   36.053">  1  5  2 -1</clus>
</clustering>
</event>
<event>
 9    1  0.9000149E-006  0.9086954E+02  0.7546771E-02  0.1303785E+00
          1   -1    0    0  502    0  0.00000000000E+00  0.00000000000E+00  0.30919321768E+03  0.30919321768E+03  0.00000000000E+00 0. -1.
         -1   -1    0    0    0  501 -0.00000000000E+00 -0.00000000000E+00 -0.12234593413E+03  0.12234593413E+03  0.00000000000E+00 0.  1.
         23    2    1    2    0    0  0.15848559848E+02  0.35599784431E+01 -0.91744815350E+02  0.12556248997E+03  0.84172308087E+02 0.  0.
         23    2    1    2    0    0 -0.32604640621E+02  0.11229969623E+02  0.16941959417E+03  0.19453993272E+03  0.89183023752E+02 0.  0.
        -11    1    4    4    0    0 -0.13037459089E+02 -0.27668534671E+02  0.14938269452E+02  0.34039316159E+02  0.00000000000E+00 0.  1.
         11    1    4    4    0    0 -0.19567181532E+02  0.38898504293E+02  0.15448132472E+03  0.16050061656E+03  0.00000000000E+00 0. -1.
        -13    1    3    3    0    0 -0.16601741107E+02 -0.14755310972E+02  0.42278176491E+01  0.22609985664E+02  0.00000000000E+00 0. -1.
         13    1    3    3    0    0  0.32450300955E+02  0.18315289415E+02 -0.95972633000E+02  0.10295250431E+03  0.00000000000E+00 0.  1.
         21    1    1    2  502  501  0.16756080773E+02 -0.14789948066E+02  0.10917250473E+03  0.11143672911E+03  0.00000000000E+00 0.  1.
<scales pt_clust_5="13000.00000" pt_clust_6="13000.00000" pt_clust_7="13000.00000" pt_clust_8="13000.00000" pt_clust_9="22.34969"></scales>
<clustering>
<clus scale="   22.350">  1  9  2 -1</clus>
<clus scale="   84.172">  7  8 -1 -1</clus>
<clus scale="   85.957">  2  7  1 -1</clus>
<clus scale="   89.183">  5  6 -1 -1</clus>
<clus scale="   22.350">  1  5  2 -1</clus>
</clustering>
</event>
<event>
 9    1  0.9000149E-006  0.9938229E+02  0.7546771E-02  0.1282482E+00
          1   -1    0    0  502    0  0.00000000000E+00  0.00000000000E+00  0.28712382749E+03  0.28712382749E+03  0.00000000000E+00 0. -1.
         -1   -1    0    0    0  501 -0.00000000000E+00 -0.00000000000E+00 -0.13922145348E+03  0.13922145348E+03  0.00000000000E+00 0.  1.
         23    2    1    2    0    0  0.38575577958E+00  0.31300802749E+02 -0.10062011088E+03  0.13998872387E+03  0.92155016348E+02 0.  0.
         23    2    1    2    0    0  0.30889479645E+02 -0.43889745270E+02  0.18014047797E+03  0.21011535633E+03  0.93901019520E+02 0.  0.
        -11    1    3    3    0    0  0.25985276417E+02  0.53677189746E+02 -0.81474977909E+02  0.10096854617E+03  0.00000000000E+00 0.  1.
         11    1    3    3    0    0 -0.25599520638E+02 -0.22376386997E+02 -0.19145132971E+02  0.39020177708E+02  0.00000000000E+00 0. -1.
        -13    1    4    4    0    0  0.32193437507E+01 -0.69326731923E+02  0.13100621712E+03  0.14825379880E+03  0.00000000000E+00 0. -1.
         13    1    4    4    0    0  0.27670135894E+02  0.25436986653E+02  0.49134260851E+02  0.61861557528E+02  0.00000000000E+00 0.  1.
         21    1    1    2  502  501 -0.31275235424E+02  0.12588942521E+02  0.68382006923E+02  0.76241200774E+02  0.00000000000E+00 0.  1.
<scales pt_clust_5="13000.00000" pt_clust_6="13000.00000" pt_clust_7="13000.00000" pt_clust_8="13000.00000" pt_clust_9="33.71382"></scales>
<clustering>
<clus scale="   33.714">  1  9  2 -1</clus>
<clus scale="   92.155">  5  6 -1 -1</clus>
<clus scale="   93.901">  7  8 -1 -1</clus>
<clus scale="   97.734">  2  5  1 -1</clus>
<clus scale="   33.714">  1  5  2 -1</clus>
</clustering>
</event>
<event>
 9    1  0.9000149E-006  0.1799214E+03  0.7546771E-02  0.1168100E+00
          3   -1    0    0  502    0  0.00000000000E+00  0.00000000000E+00  0.98771447683E+03  0.98771447683E+03  0.00000000000E+00 0. -1.
         -3   -1    0    0    0  501 -0.00000000000E+00 -0.00000000000E+00 -0.11178297667E+03  0.11178297667E+03  0.00000000000E+00 0.  1.
         23    2    1    2    0    0  0.29762801948E+02  0.15327592522E+03 -0.19455443551E+02  0.18190830317E+03  0.91284077730E+02 0.  0.
         23    2    1    2    0    0 -0.50009060608E+02 -0.13813788482E+03  0.71289996018E+03  0.73335948276E+03  0.89480703859E+02 0.  0.
        -11    1    4    4    0    0  0.38698610469E+00 -0.32857346836E+02  0.47244878056E+02  0.57548531709E+02  0.00000000000E+00 0.  1.
         11    1    4    4    0    0 -0.50396046712E+02 -0.10528053799E+03  0.66565508212E+03  0.67581095105E+03  0.00000000000E+00 0. -1.
        -11    1    3    3    0    0  0.44343552678E+02  0.33392559886E+02  0.12677491002E+02  0.56939726887E+02  0.00000000000E+00 0. -1.
         11    1    3    3    0    0 -0.14580750730E+02  0.11988336533E+03 -0.32132934553E+02  0.12496857628E+03  0.00000000000E+00 0.  1.
         21    1    1    2  502  501  0.20246258660E+02 -0.15138040395E+02  0.18248698353E+03  0.18422966757E+03  0.00000000000E+00 0.  1.
<scales pt_clust_5="13000.00000" pt_clust_6="13000.00000" pt_clust_7="13000.00000" pt_clust_8="13000.00000" pt_clust_9="25.27986"></scales>
<clustering>
<clus scale="   25.280">  1  9  2 -1</clus>
<clus scale="   89.481">  5  6 -1 -1</clus>
<clus scale="   91.284">  7  8 -1 -1</clus>
<clus scale="  179.013">  1  5  2 -1</clus>
<clus scale="   25.280">  1  5  2 -1</clus>
</clustering>
</event>
<event>
 9    1  0.9000149E-006  0.3830898E+03  0.7546771E-02  0.1050467E+00
         -1   -1    0    0    0  501 -0.00000000000E+00  0.00000000000E+00  0.24860248286E+03  0.24860248286E+03  0.00000000000E+00 0.  1.
          1   -1    0    0  502    0  0.00000000000E+00 -0.00000000000E+00 -0.11968585343E+04  0.11968585343E+04  0.00000000000E+00 0. -1.
         23    2    1    2    0    0  0.36969284473E+02 -0.36477863790E+03  0.17811745080E+02  0.37857876633E+03  0.92598279625E+02 0.  0.
         23    2    1    2    0    0 -0.10061503877E+03  0.34266876654E+03 -0.88352646542E+03  0.96033320209E+03  0.11864052568E+03 0.  0.
        -13    1    4    4    0    0 -0.63846159444E+02  0.23518693477E+03 -0.72822615993E+03  0.76792093757E+03  0.00000000000E+00 0. -1.
         13    1    4    4    0    0 -0.36768879329E+02  0.10748183177E+03 -0.15530030550E+03  0.19241226451E+03  0.00000000000E+00 0.  1.
        -13    1    3    3    0    0  0.68065095994E+02 -0.24656206787E+03  0.72814087621E+01  0.25588811915E+03  0.00000000000E+00 0.  1.
         13    1    3    3    0    0 -0.31095811521E+02 -0.11821657003E+03  0.10530336318E+02  0.12269064718E+03  0.00000000000E+00 0. -1.
         21    1    1    2  502  501  0.63645754300E+02  0.22109871363E+02 -0.82541331120E+02  0.10654904878E+03  0.00000000000E+00 0.  1.
<scales pt_clust_5="13000.00000" pt_clust_6="13000.00000" pt_clust_7="13000.00000" pt_clust_8="13000.00000" pt_clust_9="67.37676"></scales>
<clustering>
<clus scale="   67.377">  2  9  1 -1</clus>
<clus scale="   92.598">  7  8 -1 -1</clus>
<clus scale="  118.641">  5  6 -1 -1</clus>
<clus scale="  375.841">  1  7  2 -1</clus>
<clus scale="   67.377">  2  5  1 -1</clus>
</clustering>
</event>
<event>
 9    1  0.9000149E-006  0.1518303E+03  0.7546771E-02  0.1206776E+00
          2   -1    0    0  502    0  0.00000000000E+00  0.00000000000E+00  0.83814624563E+03  0.83814624563E+03  0.00000000000E+00 0. -1.
         -2   -1    0    0    0  501 -0.00000000000E+00 -0.00000000000E+00 -0.74422659551E+02  0.74422659551E+02  0.00000000000E+00 0.  1.
         23    2    1    2    0    0  0.68483504817E+02 -0.51002877860E+02  0.21943973791E+02  0.15184339998E+03  0.12362684236E+03 0.  0.
         23    2    1    2    0    0 -0.95492268879E+02  0.51062164868E+02  0.59575230446E+03  0.61222145985E+03  0.90378036830E+02 0.  0.
        -13    1    3    3    0    0  0.73444714857E+02 -0.77519976902E+02  0.45455049878E+02  0.11605875460E+03  0.00000000000E+00 0.  1.
         13    1    3    3    0    0 -0.49612100403E+01  0.26517099043E+02 -0.23511076087E+02  0.35784645387E+02  0.00000000000E+00 0. -1.
        -13    1    4    4    0    0 -0.63907759470E+02  0.72851392988E+02  0.49526574918E+03  0.50465799260E+03  0.00000000000E+00 0. -1.
         13    1    4    4    0    0 -0.31584509409E+02 -0.21789228120E+02  0.10048655528E+03  0.10756346726E+03  0.00000000000E+00 0.  1.
         21    1    1    2  502  501  0.27008764063E+02 -0.59287008301E-01  0.14602730783E+03  0.14850404535E+03  0.00000000000E+00 0.  1.
<scales pt_clust_5="13000.00000" pt_clust_6="13000.00000" pt_clust_7="13000.00000" pt_clust_8="13000.00000" pt_clust_9="27.00883"></scales>
<clustering>
<clus scale="   27.009">  1  9  2 -1</clus>
<clus scale="   90.378">  7  8 -1 -1</clus>
<clus scale="  123.627">  5  6 -1 -1</clus>
<clus scale="  126.242">  1  7  2 -1</clus>
<clus scale="   27.009">  1  5  2 -1</clus>
</clustering>
</event>
<event>
 9    1  0.9000149E-006  0.1181245E+03  0.7546771E-02  0.1253378E+00
          1   -1    0    0  502    0  0.00000000000E+00  0.00000000000E+00  0.23942514995E+03  0.23942514995E+03  0.00000000000E+00 0. -1.
         -1   -1    0    0    0  501 -0.00000000000E+00 -0.00000000000E+00 -0.92528695402E+02  0.92528695402E+02  0.00000000000E+00 0.  1.
         23    2    1    2    0    0  0.57152452574E+02  0.22840305931E+02 -0.11217899336E+02  0.11281187556E+03  0.93875425917E+02 0.  0.
         23    2    1    2    0    0 -0.33396071454E+02 -0.82765654117E+01  0.15089222684E+03  0.19035608261E+03  0.11082948590E+03 0.  0.
        -11    1    4    4    0    0 -0.32616917726E+02 -0.42299322906E+02  0.14663319777E+03  0.15605893351E+03  0.00000000000E+00 0. -1.
         11    1    4    4    0    0 -0.77915372783E+00  0.34022757494E+02  0.42590290690E+01  0.34297149104E+02  0.00000000000E+00 0.  1.
        -13    1    3    3    0    0 -0.43214112474E+01 -0.30535719978E+02 -0.30694833502E+01  0.30992362249E+02  0.00000000000E+00 0. -1.
         13    1    3    3    0    0  0.61473863821E+02  0.53376025909E+02 -0.81484159856E+01  0.81819513309E+02  0.00000000000E+00 0.  1.
         21    1    1    2  502  501 -0.23756381120E+02 -0.14563740519E+02  0.72221270475E+01  0.28785887183E+02  0.00000000000E+00 0. -1.
<scales pt_clust_5="13000.00000" pt_clust_6="13000.00000" pt_clust_7="13000.00000" pt_clust_8="13000.00000" pt_clust_9="27.86518"></scales>
<clustering>
<clus scale="   27.865">  2  9  1 -1</clus>
<clus scale="   93.875">  7  8 -1 -1</clus>
<clus scale="  102.386">  2  7  1 -1</clus>
<clus scale="  110.829">  5  6 -1 -1</clus>
<clus scale="  118.125">  1  5  2 -1</clus>
</clustering>
</event>
<event>
 9    1  0.9000149E-006  0.8962769E+02  0.7546771E-02  0.1304367E+00
          1   -1    0    0  502    0  0.00000000000E+00  0.00000000000E+00  0.99133978443E+02  0.99133978443E+02  0.00000000000E+00 0. -1.
         -1   -1    0    0    0  501 -0.00000000000E+00 -0.00000000000E+00 -0.15960524604E+03  0.15960524604E+03  0.00000000000E+00 0.  1.
         23    2    1    2    0    0  0.28381042484E+01  0.15545027773E+02 -0.54796563862E+02  0.10612133985E+03  0.89495098395E+02 0.  0.
         23    2    1    2    0    0  0.59857074261E+01  0.64253126889E+01 -0.50249777797E+02  0.10214519162E+03  0.88495687278E+02 0.  0.
        -11    1    3    3    0    0  0.45757067727E+02  0.14309758978E+02 -0.29036438814E+02  0.56049917288E+02  0.00000000000E+00 0.  1.
         11    1    3    3    0    0 -0.42918963479E+02  0.12352687949E+01 -0.25760125048E+02  0.50071422564E+02  0.00000000000E+00 0. -1.
        -13    1    4    4    0    0  0.46949410298E+01 -0.27375885430E+02  0.12809040499E+02  0.30586812401E+02  0.00000000000E+00 0. -1.
         13    1    4    4    0    0  0.12907663964E+01  0.33801198119E+02 -0.63058818296E+02  0.71558379224E+02  0.00000000000E+00 0.  1.
         21    1    1    2  502  501 -0.88238116746E+01 -0.21970340461E+02  0.44575074058E+02  0.50472693010E+02  0.00000000000E+00 0. -1.
<scales pt_clust_5="13000.00000" pt_clust_6="13000.00000" pt_clust_7="13000.00000" pt_clust_8="13000.00000" pt_clust_9="23.67605"></scales>
<clustering>
<clus scale="   23.676">  1  9  2 -1</clus>
<clus scale="   88.496">  7  8 -1 -1</clus>
<clus scale="   88.630">  1  7  2 -1</clus>
<clus scale="   89.495">  5  6 -1 -1</clus>
<clus scale="   23.676">  1  5  2 -1</clus>
</clustering>
</event>
<event>
 9    1  0.9000149E-006  0.1527536E+03  0.7546771E-02  0.1199160E+00
          2   -1    0    0  502    0  0.00000000000E+00  0.00000000000E+00  0.46708636092E+03  0.46708636092E+03  0.00000000000E+00 0. -1.
         -2   -1    0    0    0  501 -0.00000000000E+00 -0.00000000000E+00 -0.15208687728E+03  0.15208687728E+03  0.00000000000E+00 0.  1.
         23    2    1    2    0    0  0.10134599070E+03 -0.12693073314E+03 -0.22166929327E+02  0.18285659632E+03  0.81010747529E+02 0.  0.
         23    2    1    2    0    0 -0.79721058906E+02  0.23811828610E+02  0.56599917675E+02  0.13661895348E+03  0.92405288560E+02 0.  0.
        -11    1    4    4    0    0 -0.33459022510E+02 -0.31728615081E+02  0.22204211951E+01  0.46164287849E+02  0.00000000000E+00 0.  1.
         11    1    4    4    0    0 -0.46262036395E+02  0.55540443690E+02  0.54379496480E+02  0.90454665630E+02  0.00000000000E+00 0. -1.
        -11    1    3    3    0    0  0.66119251475E+02 -0.11938043345E+03 -0.40612020347E+02  0.14238251122E+03  0.00000000000E+00 0.  1.
         11    1    3    3    0    0  0.35226739224E+02 -0.75502996987E+01  0.18445091020E+02  0.40474085099E+02  0.00000000000E+00 0. -1.
         21    1    1    2  502  501 -0.21624931793E+02  0.10311890453E+03  0.28056649530E+03  0.29969768840E+03  0.00000000000E+00 0. -1.
<scales pt_clust_5="13000.00000" pt_clust_6="13000.00000" pt_clust_7="13000.00000" pt_clust_8="13000.00000" pt_clust_9="105.36198"></scales>
<clustering>
<clus scale="   81.011">  7  8 -1 -1</clus>
<clus scale="   92.405">  5  6 -1 -1</clus>
<clus scale="  105.362">  1  9  2 -1</clus>
<clus scale="  146.143">  2  7  1 -1</clus>
<clus scale="  105.362">  1  5  2 -1</clus>
</clustering>
</event>
<event>
 9    1  0.9000149E-006  0.9815077E+02  0.7546771E-02  0.1284637E+00
          2   -1    0    0  502    0  0.00000000000E+00  0.00000000000E+00  0.49109192856E+03  0.49109192856E+03  0.00000000000E+00 0. -1.
         -2   -1    0    0    0  501 -0.00000000000E+00 -0.00000000000E+00 -0.38431558872E+02  0.38431558872E+02  0.00000000000E+00 0.  1.
         23    2    1    2    0    0 -0.23495093591E+02 -0.24607832145E+02  0.66501014924E+02  0.11817513321E+03  0.91571896877E+02 0.  0.
         23    2    1    2    0    0  0.49432721042E+02  0.31283113824E-01  0.24874637780E+03  0.26936563162E+03  0.90771626289E+02 0.  0.
        -13    1    4    4    0    0  0.75026890150E+02  0.10372149297E+02  0.18427016122E+03  0.19922878317E+03  0.00000000000E+00 0.  1.
         13    1    4    4    0    0 -0.25594169108E+02 -0.10340866183E+02  0.64476216580E+02  0.70136848448E+02  0.00000000000E+00 0. -1.
        -13    1    3    3    0    0 -0.59007181879E+02 -0.16284548004E+02  0.41455748031E+02  0.73929784673E+02  0.00000000000E+00 0. -1.
         13    1    3    3    0    0  0.35512088288E+02 -0.83232841412E+01  0.25045266892E+02  0.44245348537E+02  0.00000000000E+00 0.  1.
         21    1    1    2  502  501 -0.25937627451E+02  0.24576549032E+02  0.13741297697E+03  0.14198272261E+03  0.00000000000E+00 0. -1.
<scales pt_clust_5="13000.00000" pt_clust_6="13000.00000" pt_clust_7="13000.00000" pt_clust_8="13000.00000" pt_clust_9="35.73188"></scales>
<clustering>
<clus scale="   35.732">  1  9  2 -1</clus>
<clus scale="   90.772">  5  6 -1 -1</clus>
<clus scale="   91.572">  7  8 -1 -1</clus>
<clus scale="   97.405">  1  5  2 -1</clus>
<clus scale="   35.732">  1  5  2 -1</clus>
</clustering>
</event>
<event>
 9    1  0.9000149E-006  0.1107063E+03  0.7546771E-02  0.1259641E+00
          1   -1    0    0  502    0  0.00000000000E+00  0.00000000000E+00  0.22600814197E+03  0.22600814197E+03  0.00000000000E+00 0. -1.
         -1   -1    0    0    0  501 -0.00000000000E+00 -0.00000000000E+00 -0.11932762562E+03  0.11932762562E+03  0.00000000000E+00 0.  1.
         23    2    1    2    0    0  0.74582345900E+02 -0.28407342803E+02  0.28787499393E+02  0.12462590586E+03  0.91287418871E+02 0.  0.
         23    2    1    2    0    0 -0.65693527942E+01  0.66338577665E+02  0.85647843108E+02  0.14244950691E+03  0.92262374272E+02 0.  0.
        -13    1    3    3    0    0 -0.11617308255E+02 -0.27338975383E+02 -0.82057699829E+01  0.30817463995E+02  0.00000000000E+00 0. -1.
         13    1    3    3    0    0  0.86199654155E+02 -0.10683674206E+01  0.36993269376E+02  0.93808441862E+02  0.00000000000E+00 0.  1.
        -13    1    4    4    0    0  0.16710018182E+02  0.12171844453E+02  0.80676350518E+02  0.83282963672E+02  0.00000000000E+00 0. -1.
         13    1    4    4    0    0 -0.23279370976E+02  0.54166733212E+02  0.49714925899E+01  0.59166543235E+02  0.00000000000E+00 0.  1.
         21    1    1    2  502  501 -0.68012993106E+02 -0.37931234862E+02 -0.77548261478E+01  0.78260354829E+02  0.00000000000E+00 0.  1.
<scales pt_clust_5="13000.00000" pt_clust_6="13000.00000" pt_clust_7="13000.00000" pt_clust_8="13000.00000" pt_clust_9="77.87519"></scales>
<clustering>
<clus scale="   77.875">  2  9  1 -1</clus>
<clus scale="   91.287">  5  6 -1 -1</clus>
<clus scale="   92.262">  7  8 -1 -1</clus>
<clus scale="  109.895">  2  5  1 -1</clus>
<clus scale="  110.706">  1  5  2 -1</clus>
</clustering>
</event>
<event>
 9    1  0.9000149E-006  0.1495270E+03  0.7546771E-02  0.1201877E+00
          1   -1    0    0  502    0  0.00000000000E+00  0.00000000000E+00  0.57936652151E+02  0.57936652151E+02  0.00000000000E+00 0. -1.
         -1   -1    0    0    0  501 -0.00000000000E+00 -0.00000000000E+00 -0.63908862328E+03  0.63908862328E+03  0.00000000000E+00 0.  1.
         23    2    1    2    0    0 -0.25598478147E+02 -0.10917586784E+03 -0.31741319173E+03  0.34974511701E+03  0.94846509598E+02 0.  0.
         23    2    1    2    0    0 -0.16598355906E+02  0.12343452717E+03 -0.26048714221E+03  0.30262083337E+03  0.90632387240E+02 0.  0.
        -11    1    3    3    0    0 -0.66076867926E+01 -0.91066405308E+02 -0.30897024168E+03  0.32217908365E+03  0.00000000000E+00 0.  1.
         11    1    3    3    0    0 -0.18990791354E+02 -0.18109462529E+02 -0.84429500565E+01  0.27566033357E+02  0.00000000000E+00 0. -1.
        -13    1    4    4    0    0 -0.34159085199E+02  0.10544995629E+03 -0.25327834739E+03  0.27647144091E+03  0.00000000000E+00 0. -1.
         13    1    4    4    0    0  0.17560729293E+02  0.17984570888E+02 -0.72087948182E+01  0.26149392461E+02  0.00000000000E+00 0.  1.
         21    1    1    2  502  501  0.42196834053E+02 -0.14258659337E+02 -0.32516371938E+01  0.44659325058E+02  0.00000000000E+00 0. -1.
<scales pt_clust_5="13000.00000" pt_clust_6="13000.00000" pt_clust_7="13000.00000" pt_clust_8="13000.00000" pt_clust_9="44.54079"></scales>
<clustering>
<clus scale="   44.541">  1  9  2 -1</clus>
<clus scale="   90.632">  7  8 -1 -1</clus>
<clus scale="   94.847">  5  6 -1 -1</clus>
<clus scale="  146.890">  1  7  2 -1</clus>
<clus scale="   44.541">  1  5  2 -1</clus>
</clustering>
</event>
<event>
 9    1  0.9000149E-006  0.1129024E+03  0.7546771E-02  0.1257873E+00
         -1   -1    0    0    0  501 -0.00000000000E+00  0.00000000000E+00  0.36298861833E+03  0.36298861833E+03  0.00000000000E+00 0.  1.
          1   -1    0    0  502    0  0.00000000000E+00 -0.00000000000E+00 -0.13924137274E+03  0.13924137274E+03  0.00000000000E+00 0. -1.
         23    2    1    2    0    0 -0.40483037886E+02 -0.12534270315E+02  0.23471393362E+03  0.25221662210E+03  0.82015910275E+02 0.  0.
         23    2    1    2    0    0 -0.56232003055E+01  0.76246892647E+02 -0.82594082857E+02  0.14363871440E+03  0.89247345801E+02 0.  0.
        -11    1    3    3    0    0 -0.15880265554E+01 -0.40440625157E+02  0.14484792802E+03  0.15039577203E+03  0.00000000000E+00 0.  1.
         11    1    3    3    0    0 -0.38895011330E+02  0.27906354842E+02  0.89866005602E+02  0.10182085007E+03  0.00000000000E+00 0. -1.
        -11    1    4    4    0    0 -0.23510814908E+02  0.17368048805E+02  0.11331866113E+02  0.31349939817E+02  0.00000000000E+00 0.  1.
         11    1    4    4    0    0  0.17887614602E+02  0.58878843842E+02 -0.93925948970E+02  0.11228877459E+03  0.00000000000E+00 0. -1.
         21    1    1    2  502  501  0.46106238191E+02 -0.63712622332E+02  0.71627394821E+02  0.10637465456E+03  0.00000000000E+00 0.  1.
<scales pt_clust_5="13000.00000" pt_clust_6="13000.00000" pt_clust_7="13000.00000" pt_clust_8="13000.00000" pt_clust_9="78.64530"></scales>
<clustering>
<clus scale="   78.645">  1  9  2 -1</clus>
<clus scale="   82.016">  5  6 -1 -1</clus>
<clus scale="   89.247">  7  8 -1 -1</clus>
<clus scale="  107.278">  1  5  2 -1</clus>
<clus scale="  112.902">  2  5  1 -1</clus>
</clustering>
</event>
<event>
 9    1  0.9000149E-006  0.1116121E+03  0.7546771E-02  0.1264097E+00
         -1   -1    0    0    0  501 -0.00000000000E+00  0.00000000000E+00  0.16908556434E+03  0.16908556434E+03  0.00000000000E+00 0.  1.
          1   -1    0    0  502    0  0.00000000000E+00 -0.00000000000E+00 -0.17544128083E+03  0.17544128083E+03  0.00000000000E+00 0. -1.
         23    2    1    2    0    0 -0.37555787326E+02 -0.29493983016E+02  0.53219879610E+02  0.11619252650E+03  0.91586109389E+02 0.  0.
         23    2    1    2    0    0  0.29170866934E+02  0.94182248388E+02  0.20107432651E+02  0.12535731328E+03  0.74759024585E+02 0.  0.
        -11    1    3    3    0    0 -0.40282663558E+02  0.23100058442E+02  0.87265738378E+01  0.47248902361E+02  0.00000000000E+00 0.  1.
         11    1    3    3    0    0  0.27268762327E+01 -0.52594041458E+02  0.44493305772E+02  0.68943624139E+02  0.00000000000E+00 0. -1.
        -13    1    4    4    0    0 -0.70510996797E+01  0.72136090691E+02  0.34903825778E+02  0.80446321487E+02  0.00000000000E+00 0.  1.
         13    1    4    4    0    0  0.36221966614E+02  0.22046157697E+02 -0.14796393127E+02  0.44910991796E+02  0.00000000000E+00 0. -1.
         21    1    1    2  502  501  0.83849203916E+01 -0.64688265372E+02 -0.79683028754E+02  0.10297700539E+03  0.00000000000E+00 0. -1.
<scales pt_clust_5="13000.00000" pt_clust_6="13000.00000" pt_clust_7="13000.00000" pt_clust_8="13000.00000" pt_clust_9="65.22943"></scales>
<clustering>
<clus scale="   65.229">  2  9  1 -1</clus>
<clus scale="   74.759">  7  8 -1 -1</clus>
<clus scale="   91.586">  5  6 -1 -1</clus>
<clus scale="   98.276">  2  7  1 -1</clus>
<clus scale="   65.229">  2  5  1 -1</clus>
</clustering>
</event>
<event>
 9    1  0.9000149E-006  0.1342840E+03  0.7546771E-02  0.1221298E+00
          2   -1    0    0  502    0  0.00000000000E+00  0.00000000000E+00  0.86483762770E+02  0.86483762770E+02  0.00000000000E+00 0. -1.
         -2   -1    0    0    0  501 -0.00000000000E+00 -0.00000000000E+00 -0.33534064814E+03  0.33534064814E+03  0.00000000000E+00 0.  1.
         23    2    1    2    0    0  0.73331583857E+02  0.38840227464E+02 -0.95343882556E+02  0.15555071542E+03  0.90661373623E+02 0.  0.
         23    2    1    2    0    0 -0.73573693786E+02 -0.96622461324E+02 -0.14156198636E+03  0.20726800117E+03  0.90394910692E+02 0.  0.
        -11    1    3    3    0    0  0.52151295642E+02 -0.16868433564E+02 -0.74333172481E+02  0.92356495273E+02  0.00000000000E+00 0.  1.
         11    1    3    3    0    0  0.21180288216E+02  0.55708661029E+02 -0.21010710075E+02  0.63194220150E+02  0.00000000000E+00 0. -1.
        -13    1    4    4    0    0  0.21470124282E+02 -0.19319597023E+02 -0.27082229593E+02  0.39593689213E+02  0.00000000000E+00 0.  1.
         13    1    4    4    0    0 -0.95043818068E+02 -0.77302864301E+02 -0.11447975676E+03  0.16767431196E+03  0.00000000000E+00 0. -1.
         21    1    1    2  502  501  0.24210992874E+00  0.57782233860E+02 -0.11951016455E+02  0.59005694313E+02  0.00000000000E+00 0. -1.
<scales pt_clust_5="13000.00000" pt_clust_6="13000.00000" pt_clust_7="13000.00000" pt_clust_8="13000.00000" pt_clust_9="57.78274"></scales>
<clustering>
<clus scale="   57.783">  1  9  2 -1</clus>
<clus scale="   90.395">  7  8 -1 -1</clus>
<clus scale="   90.661">  5  6 -1 -1</clus>
<clus scale="  134.104">  1  7  2 -1</clus>
<clus scale="   57.783">  1  5  2 -1</clus>
</clustering>
</event>
<event>
 9    1  0.9000149E-006  0.1016820E+03  0.7546771E-02  0.1276948E+00
         -1   -1    0    0    0  501 -0.00000000000E+00  0.00000000000E+00  0.20435902045E+03  0.20435902045E+03  0.00000000000E+00 0.  1.
          1   -1    0    0  502    0  0.00000000000E+00 -0.00000000000E+00 -0.20879819029E+03  0.20879819029E+03  0.00000000000E+00 0. -1.
         23    2    1    2    0    0 -0.46479927446E+02  0.52128506471E+02  0.99960617179E+02  0.15247346255E+03  0.91532873615E+02 0.  0.
         23    2    1    2    0    0 -0.11762154835E+02 -0.24135429033E+02  0.39487103243E+02  0.10295236348E+03  0.91209048903E+02 0.  0.
        -13    1    3    3    0    0 -0.15284008492E+01  0.46561627139E+02  0.96366034718E+02  0.10703613305E+03  0.00000000000E+00 0.  1.
         13    1    3    3    0    0 -0.44951526597E+02  0.55668793324E+01  0.35945824619E+01  0.45437329499E+02  0.00000000000E+00 0. -1.
        -13    1    4    4    0    0  0.29960894506E+02 -0.21468806861E+02 -0.99782893378E+01  0.38185483180E+02  0.00000000000E+00 0.  1.
         13    1    4    4    0    0 -0.41723049341E+02 -0.26666221722E+01  0.49465392581E+02  0.64766880296E+02  0.00000000000E+00 0. -1.
         21    1    1    2  502  501  0.58242082282E+02 -0.27993077438E+02 -0.14388689026E+03  0.15773138471E+03  0.00000000000E+00 0. -1.
<scales pt_clust_5="13000.00000" pt_clust_6="13000.00000" pt_clust_7="13000.00000" pt_clust_8="13000.00000" pt_clust_9="64.62006"></scales>
<clustering>
<clus scale="   64.620">  2  9  1 -1</clus>
<clus scale="   91.209">  7  8 -1 -1</clus>
<clus scale="   91.533">  5  6 -1 -1</clus>
<clus scale="  101.391">  2  7  1 -1</clus>
<clus scale="   64.620">  2  5  1 -1</clus>
</clustering>
</event>
<event>
 9    1  0.9000149E-006  0.9828737E+02  0.7546771E-02  0.1284873E+00
          2   -1    0    0  502    0  0.00000000000E+00  0.00000000000E+00  0.88076632505E+03  0.88076632505E+03  0.00000000000E+00 0. -1.
         -2   -1    0    0    0  501 -0.00000000000E+00 -0.00000000000E+00 -0.18308139099E+02  0.18308139099E+02  0.00000000000E+00 0.  1.
         23    2    1    2    0    0  0.55136467662E+01 -0.56861799038E+02  0.39324043358E+03  0.40742928826E+03  0.89982897464E+02 0.  0.
         23    2    1    2    0    0  0.20343290844E+02  0.11960172436E+02  0.31471569902E+03  0.32868621854E+03  0.91824636327E+02 0.  0.
        -11    1    4    4    0    0 -0.32651871463E+02  0.11507050529E+02  0.67577006836E+02  0.75928971907E+02  0.00000000000E+00 0.  1.
         11    1    4    4    0    0  0.52995162307E+02  0.45312190720E+00  0.24713869219E+03  0.25275724663E+03  0.00000000000E+00 0. -1.
        -11    1    3    3    0    0 -0.21007464514E+01  0.23886257514E+02  0.12148451785E+03  0.12382832677E+03  0.00000000000E+00 0.  1.
         11    1    3    3    0    0  0.76143932176E+01 -0.80748056552E+02  0.27175591573E+03  0.28360096149E+03  0.00000000000E+00 0. -1.
         21    1    1    2  502  501 -0.25856937610E+02  0.44901626602E+02  0.15450205335E+03  0.16295895736E+03  0.00000000000E+00 0.  1.
<scales pt_clust_5="13000.00000" pt_clust_6="13000.00000" pt_clust_7="13000.00000" pt_clust_8="13000.00000" pt_clust_9="51.81445"></scales>
<clustering>
<clus scale="   51.814">  2  9  1 -1</clus>
<clus scale="   89.983">  7  8 -1 -1</clus>
<clus scale="   91.825">  5  6 -1 -1</clus>
<clus scale="   96.569">  2  7  1 -1</clus>
<clus scale="   98.287">  1  5  2 -1</clus>
</clustering>
</event>
<event>
 9    1  0.9000149E-006  0.9722427E+02  0.7546771E-02  0.1288647E+00
          4   -1    0    0  502    0  0.00000000000E+00  0.00000000000E+00  0.59743413672E+02  0.59743413672E+02  0.00000000000E+00 0. -1.
         -4   -1    0    0    0  501 -0.00000000000E+00 -0.00000000000E+00 -0.25002273522E+03  0.25002273522E+03  0.00000000000E+00 0.  1.
         23    2    1    2    0    0  0.19429030340E+02 -0.50609661328E+01 -0.13635284977E+03  0.16398238880E+03  0.88853945314E+02 0.  0.
         23    2    1    2    0    0 -0.47972627066E+02 -0.16493391279E+01 -0.33981935014E+02  0.11032181348E+03  0.93338295223E+02 0.  0.
        -11    1    4    4    0    0 -0.31442893530E+02 -0.23118172120E+02  0.24352701290E+02  0.46001733618E+02  0.00000000000E+00 0. -1.
         11    1    4    4    0    0 -0.16529733536E+02  0.21468832992E+02 -0.58334636304E+02  0.64320079863E+02  0.00000000000E+00 0.  1.
        -11    1    3    3    0    0  0.52878500402E+02 -0.15406406188E+02 -0.71185405628E+02  0.90004750601E+02  0.00000000000E+00 0. -1.
         11    1    3    3    0    0 -0.33449470062E+02  0.10345440055E+02 -0.65167444141E+02  0.73977638198E+02  0.00000000000E+00 0.  1.
         21    1    1    2  502  501  0.28543596726E+02  0.67103052607E+01 -0.19944536763E+02  0.35461946611E+02  0.00000000000E+00 0. -1.
<scales pt_clust_5="13000.00000" pt_clust_6="13000.00000" pt_clust_7="13000.00000" pt_clust_8="13000.00000" pt_clust_9="29.32175"></scales>
<clustering>
<clus scale="   29.322">  1  9  2 -1</clus>
<clus scale="   88.854">  7  8 -1 -1</clus>
<clus scale="   92.928">  2  7  1 -1</clus>
<clus scale="   93.338">  5  6 -1 -1</clus>
<clus scale="   29.322">  1  5  2 -1</clus>
</clustering>
</event>
<event>
 9    1  0.9000149E-006  0.9970925E+02  0.7546771E-02  0.1281978E+00
          2   -1    0    0  502    0  0.00000000000E+00  0.00000000000E+00  0.42009918065E+02  0.42009918065E+02  0.00000000000E+00 0. -1.
         -2   -1    0    0    0  501 -0.00000000000E+00 -0.00000000000E+00 -0.55664973265E+03  0.55664973265E+03  0.00000000000E+00 0.  1.
         23    2    1    2    0    0 -0.29586822158E+02  0.90380178210E+01 -0.37253386732E+03  0.38514152221E+03  0.92711617528E+02 0.  0.
         23    2    1    2    0    0  0.48960262951E+02 -0.14155931139E+02 -0.15719454587E+03  0.18843448736E+03  0.90553481658E+02 0.  0.
        -13    1    4    4    0    0 -0.74813063221E+01  0.27918501560E+02 -0.23162664066E+02  0.37039461123E+02  0.00000000000E+00 0. -1.
         13    1    4    4    0    0  0.56441569273E+02 -0.42074432699E+02 -0.13403188181E+03  0.15139502624E+03  0.00000000000E+00 0.  1.
        -13    1    3    3    0    0 -0.48283925380E+02  0.38379978059E+02 -0.20715677959E+03  0.21614414518E+03  0.00000000000E+00 0. -1.
         13    1    3    3    0    0  0.18697103221E+02 -0.29341960238E+02 -0.16537708772E+03  0.16899737703E+03  0.00000000000E+00 0.  1.
         21    1    1    2  502  501 -0.19373440793E+02  0.51179133177E+01  0.15088598605E+02  0.25083641138E+02  0.00000000000E+00 0. -1.
<scales pt_clust_5="13000.00000" pt_clust_6="13000.00000" pt_clust_7="13000.00000" pt_clust_8="13000.00000" pt_clust_9="20.03804"></scales>
<clustering>
<clus scale="   20.038">  1  9  2 -1</clus>
<clus scale="   90.553">  5  6 -1 -1</clus>
<clus scale="   92.712">  7  8 -1 -1</clus>
<clus scale="   97.706">  1  5  2 -1</clus>
<clus scale="   20.038">  1  5  2 -1</clus>
</clustering>
</event>
<event>
 9    1  0.9000149E-006  0.1129393E+03  0.7546771E-02  0.1255476E+00
          4   -1    0    0  502    0  0.00000000000E+00  0.00000000000E+00  0.30183993369E+03  0.30183993369E+03  0.00000000000E+00 0. -1.
         -4   -1    0    0    0  501 -0.00000000000E+00 -0.00000000000E+00 -0.68215818329E+02  0.68215818329E+02  0.00000000000E+00 0.  1.
         23    2    1    2    0    0  0.78426844929E+02  0.22241102575E+02  0.47011277227E+02  0.13108816338E+03  0.91261217084E+02 0.  0.
         23    2    1    2    0    0 -0.31682984055E+02 -0.30142606722E+02  0.12498805201E+03  0.16121775544E+03  0.91960661724E+02 0.  0.
        -11    1    3    3    0    0  0.35162516280E+00  0.40447247268E+02  0.26431506171E+02  0.48319022862E+02  0.00000000000E+00 0.  1.
         11    1    3    3    0    0  0.78075219766E+02 -0.18206144693E+02  0.20579771056E+02  0.82769140522E+02  0.00000000000E+00 0. -1.
        -11    1    4    4    0    0 -0.19552650181E+01 -0.36016338502E+02  0.37657406861E+01  0.36265417457E+02  0.00000000000E+00 0.  1.
         11    1    4    4    0    0 -0.29727719037E+02  0.58737317806E+01  0.12122231133E+03  0.12495233798E+03  0.00000000000E+00 0. -1.
         21    1    1    2  502  501 -0.46743860873E+02  0.79015041464E+01  0.61624786116E+02  0.77749833189E+02  0.00000000000E+00 0. -1.
<scales pt_clust_5="13000.00000" pt_clust_6="13000.00000" pt_clust_7="13000.00000" pt_clust_8="13000.00000" pt_clust_9="47.40699"></scales>
<clustering>
<clus scale="   47.407">  1  9  2 -1</clus>
<clus scale="   91.261">  5  6 -1 -1</clus>
<clus scale="   91.961">  7  8 -1 -1</clus>
<clus scale="  112.371">  2  5  1 -1</clus>
<clus scale="   47.407">  1  5  2 -1</clus>
</clustering>
</event>
<event>
 9    1  0.9000149E-006  0.1015109E+03  0.7546771E-02  0.1277849E+00
         -2   -1    0    0    0  501 -0.00000000000E+00  0.00000000000E+00  0.53002346157E+02  0.53002346157E+02  0.00000000000E+00 0.  1.
          2   -1    0    0  502    0  0.00000000000E+00 -0.00000000000E+00 -0.28840373212E+03  0.28840373212E+03  0.00000000000E+00 0. -1.
         23    2    1    2    0    0  0.54275445589E+02 -0.20888976271E+02 -0.69271915298E+02  0.12734948992E+03  0.89649991696E+02 0.  0.
         23    2    1    2    0    0 -0.39181063023E+02 -0.99889436953E+01 -0.13379686671E+03  0.16686883989E+03  0.91151925321E+02 0.  0.
        -11    1    3    3    0    0  0.47965413720E+02 -0.18788469457E+01  0.69833008862E+01  0.48507499116E+02  0.00000000000E+00 0.  1.
         11    1    3    3    0    0  0.63100318684E+01 -0.19010129326E+02 -0.76255216185E+02  0.78841990808E+02  0.00000000000E+00 0. -1.
        -11    1    4    4    0    0  0.18472262271E+02 -0.20102789507E+02 -0.89191998706E+02  0.93276788391E+02  0.00000000000E+00 0.  1.
         11    1    4    4    0    0 -0.57653325294E+02  0.10113845812E+02 -0.44604868006E+02  0.73592051502E+02  0.00000000000E+00 0. -1.
         21    1    1    2  502  501 -0.15094382565E+02  0.30877919967E+02 -0.32332603955E+02  0.47187748463E+02  0.00000000000E+00 0.  1.
<scales pt_clust_5="13000.00000" pt_clust_6="13000.00000" pt_clust_7="13000.00000" pt_clust_8="13000.00000" pt_clust_9="34.36985"></scales>
<clustering>
<clus scale="   34.370">  1  9  2 -1</clus>
<clus scale="   89.650">  5  6 -1 -1</clus>
<clus scale="   91.152">  7  8 -1 -1</clus>
<clus scale="  100.164">  1  5  2 -1</clus>
<clus scale="  101.511">  2  5  1 -1</clus>
</clustering>
</event>
<event>
 9    1  0.9000149E-006  0.9686148E+02  0.7546771E-02  0.1287940E+00
         -1   -1    0    0    0  501 -0.00000000000E+00  0.00000000000E+00  0.26779096315E+03  0.26779096315E+03  0.00000000000E+00 0.  1.
          1   -1    0    0  502    0  0.00000000000E+00 -0.00000000000E+00 -0.70418328171E+02  0.70418328171E+02  0.00000000000E+00 0. -1.
         23    2    1    2    0    0 -0.34616385238E+02  0.85834609858E+01  0.18578836671E+03  0.21008764056E+03  0.91364815884E+02 0.  0.
         23    2    1    2    0    0  0.99852371815E+01 -0.28935778105E+02  0.19078223900E+01  0.94736865737E+02  0.89635092052E+02 0.  0.
        -11    1    3    3    0    0 -0.35360957942E+02  0.43175411877E+02  0.15117198982E+03  0.16114429572E+03  0.00000000000E+00 0.  1.
         11    1    3    3    0    0  0.74457270368E+00 -0.34591950891E+02  0.34616376888E+02  0.48943344837E+02  0.00000000000E+00 0. -1.
        -11    1    4    4    0    0 -0.51048650324E+01  0.27808858280E+02 -0.17072901926E+02  0.33028415433E+02  0.00000000000E+00 0.  1.
         11    1    4    4    0    0  0.15090102214E+02 -0.56744636385E+02  0.18980724316E+02  0.61708450304E+02  0.00000000000E+00 0. -1.
         21    1    1    2  502  501  0.24631148057E+02  0.20352317119E+02  0.96764458869E+01  0.33384785033E+02  0.00000000000E+00 0. -1.
<scales pt_clust_5="13000.00000" pt_clust_6="13000.00000" pt_clust_7="13000.00000" pt_clust_8="13000.00000" pt_clust_9="31.95169"></scales>
<clustering>
<clus scale="   31.952">  2  9  1 -1</clus>
<clus scale="   89.635">  7  8 -1 -1</clus>
<clus scale="   91.365">  5  6 -1 -1</clus>
<clus scale="   95.232">  2  7  1 -1</clus>
<clus scale="   31.952">  2  5  1 -1</clus>
</clustering>
</event>
<event>
 9    1  0.9000149E-006  0.1381244E+03  0.7546771E-02  0.1217317E+00
          1   -1    0    0  502    0  0.00000000000E+00  0.00000000000E+00  0.14334518641E+03  0.14334518641E+03  0.00000000000E+00 0. -1.
         -1   -1    0    0    0  501 -0.00000000000E+00 -0.00000000000E+00 -0.62371277579E+03  0.62371277579E+03  0.00000000000E+00 0.  1.
         23    2    1    2    0    0  0.10006420959E+03  0.37953338955E+02 -0.57557469034E+03  0.59212477308E+03  0.88725536068E+02 0.  0.
         23    2    1    2    0    0 -0.77891731065E+02 -0.46676693179E+02  0.84780280603E+02  0.14892483862E+03  0.82128412404E+02 0.  0.
        -11    1    4    4    0    0  0.13355061096E+02 -0.21979225399E+02  0.30585596678E+02  0.39961515614E+02  0.00000000000E+00 0. -1.
         11    1    4    4    0    0 -0.91246792161E+02 -0.24697467780E+02  0.54194683925E+02  0.10896332300E+03  0.00000000000E+00 0.  1.
        -13    1    3    3    0    0  0.64526605275E+01  0.44683398501E+02 -0.18273523544E+03  0.18822967141E+03  0.00000000000E+00 0.  1.
         13    1    3    3    0    0  0.93611549064E+02 -0.67300595455E+01 -0.39283945490E+03  0.40389510166E+03  0.00000000000E+00 0. -1.
         21    1    1    2  502  501 -0.22172478526E+02  0.87233542239E+01  0.10426820359E+02  0.26008350500E+02  0.00000000000E+00 0.  1.
<scales pt_clust_5="13000.00000" pt_clust_6="13000.00000" pt_clust_7="13000.00000" pt_clust_8="13000.00000" pt_clust_9="23.82679"></scales>
<clustering>
<clus scale="   23.827">  1  9  2 -1</clus>
<clus scale="   82.128">  5  6 -1 -1</clus>
<clus scale="   88.726">  7  8 -1 -1</clus>
<clus scale="  133.982">  1  5  2 -1</clus>
<clus scale="   23.827">  1  5  2 -1</clus>
</clustering>
</event>
<event>
 9    1  0.9000149E-006  0.3370571E+03  0.7546771E-02  0.1068435E+00
         -3   -1    0    0    0  501 -0.00000000000E+00  0.00000000000E+00  0.43735863479E+03  0.43735863479E+03  0.00000000000E+00 0.  1.
          3   -1    0    0  502    0  0.00000000000E+00 -0.00000000000E+00 -0.31116724174E+03  0.31116724174E+03  0.00000000000E+00 0. -1.
         23    2    1    2    0    0 -0.16657396570E+03 -0.24533031311E+03  0.59590367556E+02  0.31322702568E+03  0.81402144503E+02 0.  0.
         23    2    1    2    0    0  0.20095353223E+03  0.29280598973E+03  0.77631620852E+02  0.37565349480E+03  0.94716470941E+02 0.  0.
        -11    1    3    3    0    0 -0.36963822254E+01 -0.36617383188E+02  0.28728869483E+02  0.46688798816E+02  0.00000000000E+00 0.  1.
         11    1    3    3    0    0 -0.16287758348E+03 -0.20871292992E+03  0.30861498073E+02  0.26653822686E+03  0.00000000000E+00 0. -1.
        -13    1    4    4    0    0  0.14285730913E+03  0.18680855089E+03  0.94811415663E+02  0.25356429164E+03  0.00000000000E+00 0.  1.
         13    1    4    4    0    0  0.58096223100E+02  0.10599743884E+03 -0.17179794810E+02  0.12208920316E+03  0.00000000000E+00 0. -1.
         21    1    1    2  502  501 -0.34379566524E+02 -0.47475676620E+02 -0.11030595358E+02  0.59645356054E+02  0.00000000000E+00 0.  1.
<scales pt_clust_5="13000.00000" pt_clust_6="13000.00000" pt_clust_7="13000.00000" pt_clust_8="13000.00000" pt_clust_9="58.61650"></scales>
<clustering>
<clus scale="   58.617">  2  9  1 -1</clus>
<clus scale="   81.402">  5  6 -1 -1</clus>
<clus scale="   94.716">  7  8 -1 -1</clus>
<clus scale="  333.560">  1  5  2 -1</clus>
<clus scale="   58.617">  2  5  1 -1</clus>
</clustering>
</event>
<event>
 9    1  0.9000149E-006  0.1337580E+03  0.7546771E-02  0.1222529E+00
         -1   -1    0    0    0  501 -0.00000000000E+00  0.00000000000E+00  0.25340133678E+03  0.25340133678E+03  0.00000000000E+00 0.  1.
          1   -1    0    0  502    0  0.00000000000E+00 -0.00000000000E+00 -0.12039666783E+03  0.12039666783E+03  0.00000000000E+00 0. -1.
         23    2    1    2    0    0 -0.92580905507E+02 -0.76095975067E+02  0.12427903648E+03  0.19434411643E+03  0.89233038708E+02 0.  0.
         23    2    1    2    0    0  0.38678614055E+02  0.59806889513E+02  0.29181421845E+02  0.11954369998E+03  0.91467161349E+02 0.  0.
        -11    1    3    3    0    0 -0.54470552009E+02 -0.85736049873E+02  0.57144259477E+02  0.11654689046E+03  0.00000000000E+00 0. -1.
         11    1    3    3    0    0 -0.38110353498E+02  0.96400748059E+01  0.67134777004E+02  0.77797225975E+02  0.00000000000E+00 0.  1.
        -13    1    4    4    0    0  0.63749036468E+02  0.20466994781E+02  0.53707110001E+01  0.67169055842E+02  0.00000000000E+00 0.  1.
         13    1    4    4    0    0 -0.25070422413E+02  0.39339894732E+02  0.23810710845E+02  0.52374644137E+02  0.00000000000E+00 0. -1.
         21    1    1    2  502  501  0.53902291452E+02  0.16289085554E+02 -0.20455789374E+02  0.59910188205E+02  0.00000000000E+00 0. -1.
<scales pt_clust_5="13000.00000" pt_clust_6="13000.00000" pt_clust_7="13000.00000" pt_clust_8="13000.00000" pt_clust_9="56.30978"></scales>
<clustering>
<clus scale="   56.310">  2  9  1 -1</clus>
<clus scale="   89.233">  5  6 -1 -1</clus>
<clus scale="   91.467">  7  8 -1 -1</clus>
<clus scale="  132.240">  1  5  2 -1</clus>
<clus scale="   56.310">  2  5  1 -1</clus>
</clustering>
</event>
<event>
 9    1  0.9000149E-006  0.9438318E+02  0.7546771E-02  0.1293530E+00
          1   -1    0    0  502    0  0.00000000000E+00  0.00000000000E+00  0.23833411328E+03  0.23833411328E+03  0.00000000000E+00 0. -1.
         -1   -1    0    0    0  501 -0.00000000000E+00 -0.00000000000E+00 -0.16976760776E+03  0.16976760776E+03  0.00000000000E+00 0.  1.
         23    2    1    2    0    0  0.13536652725E+02 -0.16672352525E+02 -0.13335500523E+03  0.16364757523E+03  0.92389193927E+02 0.  0.
         23    2    1    2    0    0  0.14830790195E+02  0.14584682250E+02  0.91736185320E+02  0.13065662331E+03  0.90680539387E+02 0.  0.
        -13    1    3    3    0    0  0.49007977249E+02 -0.21123937730E+02 -0.10584799468E+03  0.11854029086E+03  0.00000000000E+00 0.  1.
         13    1    3    3    0    0 -0.35471324523E+02  0.44515852048E+01 -0.27507010549E+02  0.45107284374E+02  0.00000000000E+00 0. -1.
        -13    1    4    4    0    0 -0.19540571286E+02  0.15050951563E+02  0.93043499892E+02  0.96257248773E+02  0.00000000000E+00 0. -1.
         13    1    4    4    0    0  0.34371361481E+02 -0.46626931344E+00 -0.13073145724E+01  0.34399374537E+02  0.00000000000E+00 0.  1.
         21    1    1    2  502  501 -0.28367442920E+02  0.20876702749E+01  0.11018532544E+03  0.11379752250E+03  0.00000000000E+00 0. -1.
<scales pt_clust_5="13000.00000" pt_clust_6="13000.00000" pt_clust_7="13000.00000" pt_clust_8="13000.00000" pt_clust_9="28.44416"></scales>
<clustering>
<clus scale="   28.444">  1  9  2 -1</clus>
<clus scale="   90.681">  7  8 -1 -1</clus>
<clus scale="   92.389">  5  6 -1 -1</clus>
<clus scale="   92.711">  1  7  2 -1</clus>
<clus scale="   28.444">  1  5  2 -1</clus>
</clustering>
</event>
<event>
 9    1  0.9000149E-006  0.2010010E+03  0.7546771E-02  0.1149107E+00
         -1   -1    0    0    0  501 -0.00000000000E+00  0.00000000000E+00  0.52261117712E+02  0.52261117712E+02  0.00000000000E+00 0.  1.
          1   -1    0    0  502    0  0.00000000000E+00 -0.00000000000E+00 -0.13934073793E+04  0.13934073793E+04  0.00000000000E+00 0. -1.
         23    2    1    2    0    0 -0.90799833120E+02 -0.17817681403E+03 -0.36359201954E+03  0.42460866696E+03  0.90009869615E+02 0.  0.
         23    2    1    2    0    0  0.14004001087E+03  0.82607511160E+02 -0.59306823730E+03  0.62182609576E+03  0.92209293074E+02 0.  0.
        -11    1    3    3    0    0 -0.41356829932E+02 -0.12967084874E+03 -0.30460853974E+03  0.33363344988E+03  0.00000000000E+00 0. -1.
         11    1    3    3    0    0 -0.49443003187E+02 -0.48505965289E+02 -0.58983479799E+02  0.90975217076E+02  0.00000000000E+00 0.  1.
        -13    1    4    4    0    0  0.50702931808E+02 -0.12050537800E+02 -0.23837198137E+03  0.24400246772E+03  0.00000000000E+00 0. -1.
         13    1    4    4    0    0  0.89337079059E+02  0.94658048960E+02 -0.35469625594E+03  0.37782362804E+03  0.00000000000E+00 0.  1.
         21    1    1    2  502  501 -0.49240177747E+02  0.95569302867E+02 -0.38448600470E+03  0.39923373426E+03  0.00000000000E+00 0. -1.
<scales pt_clust_5="13000.00000" pt_clust_6="13000.00000" pt_clust_7="13000.00000" pt_clust_8="13000.00000" pt_clust_9="107.50854"></scales>
<clustering>
<clus scale="   90.010">  5  6 -1 -1</clus>
<clus scale="   92.209">  7  8 -1 -1</clus>
<clus scale="  107.509">  2  9  1 -1</clus>
<clus scale="  200.002">  1  5  2 -1</clus>
<clus scale="  107.509">  2  5  1 -1</clus>
</clustering>
</event>
<event>
 9    1  0.9000149E-006  0.1734578E+03  0.7546771E-02  0.1174745E+00
         -1   -1    0    0    0  501 -0.00000000000E+00  0.00000000000E+00  0.11410791382E+03  0.11410791382E+03  0.00000000000E+00 0.  1.
          1   -1    0    0  502    0  0.00000000000E+00 -0.00000000000E+00 -0.81222998129E+03  0.81222998129E+03  0.00000000000E+00 0. -1.
         23    2    1    2    0    0 -0.14037531395E+03 -0.14718016097E+02  0.84401291407E+01  0.16849361712E+03  0.91635225029E+02 0.  0.
         23    2    1    2    0    0  0.18237298821E+03 -0.11019703076E+02 -0.41259753869E+03  0.45978144077E+03  0.88209430631E+02 0.  0.
        -11    1    3    3    0    0 -0.31056406215E+02 -0.41756874065E+02  0.18969365459E+02  0.55389292508E+02  0.00000000000E+00 0. -1.
         11    1    3    3    0    0 -0.10931890773E+03  0.27038857968E+02 -0.10529236318E+02  0.11310432461E+03  0.00000000000E+00 0.  1.
        -13    1    4    4    0    0  0.11715707352E+03 -0.20519578044E+02 -0.34690380718E+03  0.36672753428E+03  0.00000000000E+00 0. -1.
         13    1    4    4    0    0  0.65215914688E+02  0.94998749689E+01 -0.65693731511E+02  0.93053906488E+02  0.00000000000E+00 0.  1.
         21    1    1    2  502  501 -0.41997674263E+02  0.25737719172E+02 -0.29396465791E+03  0.29806283722E+03  0.00000000000E+00 0.  1.
<scales pt_clust_5="13000.00000" pt_clust_6="13000.00000" pt_clust_7="13000.00000" pt_clust_8="13000.00000" pt_clust_9="49.25683"></scales>
<clustering>
<clus scale="   49.257">  2  9  1 -1</clus>
<clus scale="   88.209">  7  8 -1 -1</clus>
<clus scale="   91.635">  5  6 -1 -1</clus>
<clus scale="  171.673">  2  7  1 -1</clus>
<clus scale="   49.257">  2  5  1 -1</clus>
</clustering>
</event>
<event>
 9    1  0.9000149E-006  0.2115927E+03  0.7546771E-02  0.1140387E+00
          2   -1    0    0  502    0  0.00000000000E+00  0.00000000000E+00  0.92068276368E+02  0.92068276368E+02  0.00000000000E+00 0. -1.
         -2   -1    0    0    0  501 -0.00000000000E+00 -0.00000000000E+00 -0.11631639695E+04  0.11631639695E+04  0.00000000000E+00 0.  1.
         23    2    1    2    0    0  0.76654161898E+02  0.18385257469E+03 -0.71828050925E+03  0.75072746369E+03  0.89371164321E+02 0.  0.
         23    2    1    2    0    0 -0.13943763185E+03 -0.12793109507E+03 -0.36361718447E+03  0.41973651449E+03  0.90288794923E+02 0.  0.
        -11    1    3    3    0    0 -0.19550792575E+02  0.18263044877E+02 -0.82377722013E+02  0.86613286409E+02  0.00000000000E+00 0. -1.
         11    1    3    3    0    0  0.96204954473E+02  0.16558952982E+03 -0.63590278724E+03  0.66411417728E+03  0.00000000000E+00 0.  1.
        -13    1    4    4    0    0 -0.97327604362E+02 -0.41215856442E+02 -0.24542662999E+03  0.26721833789E+03  0.00000000000E+00 0.  1.
         13    1    4    4    0    0 -0.42110027490E+02 -0.86715238631E+02 -0.11819055448E+03  0.15251817660E+03  0.00000000000E+00 0. -1.
         21    1    1    2  502  501  0.62783469953E+02 -0.55921479621E+02  0.10802000632E+02  0.84768267647E+02  0.00000000000E+00 0.  1.
<scales pt_clust_5="13000.00000" pt_clust_6="13000.00000" pt_clust_7="13000.00000" pt_clust_8="13000.00000" pt_clust_9="84.07720"></scales>
<clustering>
<clus scale="   84.077">  1  9  2 -1</clus>
<clus scale="   89.371">  5  6 -1 -1</clus>
<clus scale="   90.289">  7  8 -1 -1</clus>
<clus scale="  211.203">  2  5  1 -1</clus>
<clus scale="   84.077">  1  5  2 -1</clus>
</clustering>
</event>
<event>
 9    1  0.9000149E-006  0.1086125E+03  0.7546771E-02  0.1265574E+00
          1   -1    0    0  502    0  0.00000000000E+00  0.00000000000E+00  0.16816200171E+03  0.16816200171E+03  0.00000000000E+00 0. -1.
         -1   -1    0    0    0  501 -0.00000000000E+00 -0.00000000000E+00 -0.20377104845E+03  0.20377104845E+03  0.00000000000E+00 0.  1.
         23    2    1    2    0    0  0.26949674502E+02  0.42266459452E+02 -0.15186924890E+03  0.18580121141E+03  0.94578448135E+02 0.  0.
         23    2    1    2    0    0 -0.44367432121E+02 -0.63491299301E+02  0.96496145903E+02  0.15230152650E+03  0.88795465428E+02 0.  0.
        -13    1    3    3    0    0  0.43303504000E+01  0.61596037341E+02 -0.14134029798E+03  0.15423976006E+03  0.00000000000E+00 0.  1.
         13    1    3    3    0    0  0.22619324102E+02 -0.19329577889E+02 -0.10528950923E+02  0.31561451357E+02  0.00000000000E+00 0. -1.
        -13    1    4    4    0    0 -0.11449267585E+02  0.22301231170E+02  0.13472984161E+02  0.28459654638E+02  0.00000000000E+00 0.  1.
         13    1    4    4    0    0 -0.32918164536E+02 -0.85792530471E+02  0.83023161742E+02  0.12384187186E+03  0.00000000000E+00 0. -1.
         21    1    1    2  502  501  0.17417757619E+02  0.21224839849E+02  0.19764056253E+02  0.33830312246E+02  0.00000000000E+00 0.  1.
<scales pt_clust_5="13000.00000" pt_clust_6="13000.00000" pt_clust_7="13000.00000" pt_clust_8="13000.00000" pt_clust_9="27.45673"></scales>
<clustering>
<clus scale="   27.457">  1  9  2 -1</clus>
<clus scale="   88.795">  7  8 -1 -1</clus>
<clus scale="   94.578">  5  6 -1 -1</clus>
<clus scale="  103.616">  1  7  2 -1</clus>
<clus scale="   27.457">  1  5  2 -1</clus>
</clustering>
</event>
<event>
 9    1  0.9000149E-006  0.1109441E+03  0.7546771E-02  0.1262243E+00
          2   -1    0    0  502    0  0.00000000000E+00  0.00000000000E+00  0.68680915187E+03  0.68680915187E+03  0.00000000000E+00 0. -1.
         -2   -1    0    0    0  501 -0.00000000000E+00 -0.00000000000E+00 -0.39857521534E+02  0.39857521534E+02  0.00000000000E+00 0.  1.
         23    2    1    2    0    0 -0.57020789519E+02  0.18250430590E+01  0.63580569885E+02  0.12941573764E+03  0.97217503887E+02 0.  0.
         23    2    1    2    0    0  0.33304468970E+02 -0.11675147278E+02  0.52246296968E+03  0.53115037651E+03  0.88925086754E+02 0.  0.
        -11    1    3    3    0    0 -0.64192307964E+02 -0.31952185386E+02  0.62093526215E+02  0.94853574264E+02  0.00000000000E+00 0.  1.
         11    1    3    3    0    0  0.71715184457E+01  0.33777228445E+02  0.14870436704E+01  0.34562163375E+02  0.00000000000E+00 0. -1.
        -13    1    4    4    0    0  0.60782683757E+01 -0.49053729314E+02  0.26937027164E+03  0.27386777275E+03  0.00000000000E+00 0.  1.
         13    1    4    4    0    0  0.27226200594E+02  0.37378582035E+02  0.25309269804E+03  0.25728260376E+03  0.00000000000E+00 0. -1.
         21    1    1    2  502  501  0.23716320549E+02  0.98501042195E+01  0.60908090771E+02  0.66100559263E+02  0.00000000000E+00 0.  1.
<scales pt_clust_5="13000.00000" pt_clust_6="13000.00000" pt_clust_7="13000.00000" pt_clust_8="13000.00000" pt_clust_9="25.68051"></scales>
<clustering>
<clus scale="   25.681">  1  9  2 -1</clus>
<clus scale="   88.925">  7  8 -1 -1</clus>
<clus scale="   97.218">  5  6 -1 -1</clus>
<clus scale="  103.755">  1  7  2 -1</clus>
<clus scale="   25.681">  1  5  2 -1</clus>
</clustering>
</event>
<event>
 9    1  0.9000149E-006  0.1054424E+03  0.7546771E-02  0.1272296E+00
          1   -1    0    0  502    0  0.00000000000E+00  0.00000000000E+00  0.11675926821E+03  0.11675926821E+03  0.00000000000E+00 0. -1.
         -1   -1    0    0    0  501 -0.00000000000E+00 -0.00000000000E+00 -0.12169493604E+03  0.12169493604E+03  0.00000000000E+00 0.  1.
         23    2    1    2    0    0 -0.23937604597E+02  0.10314599494E+02 -0.15045531791E+02  0.10399783970E+03  0.99547891784E+02 0.  0.
         23    2    1    2    0    0  0.45031275101E+02 -0.18365972942E+01 -0.10194578349E+02  0.10397538960E+03  0.93143778043E+02 0.  0.
        -11    1    4    4    0    0 -0.25782702427E+02  0.79803644641E+01  0.11393489787E+02  0.29295828559E+02  0.00000000000E+00 0.  1.
         11    1    4    4    0    0  0.70813977528E+02 -0.98169617582E+01 -0.21588068136E+02  0.74679561042E+02  0.00000000000E+00 0. -1.
        -13    1    3    3    0    0  0.12020961048E+02 -0.32955265863E+02 -0.29584132932E+02  0.45888712925E+02  0.00000000000E+00 0. -1.
         13    1    3    3    0    0 -0.35958565646E+02  0.43269865357E+02  0.14538601140E+02  0.58109126774E+02  0.00000000000E+00 0.  1.
         21    1    1    2  502  501 -0.21093670504E+02 -0.84780021995E+01  0.20304442302E+02  0.30480974949E+02  0.00000000000E+00 0.  1.
<scales pt_clust_5="13000.00000" pt_clust_6="13000.00000" pt_clust_7="13000.00000" pt_clust_8="13000.00000" pt_clust_9="22.73366"></scales>
<clustering>
<clus scale="   22.734">  1  9  2 -1</clus>
<clus scale="   93.144">  5  6 -1 -1</clus>
<clus scale="   99.419">  1  5  2 -1</clus>
<clus scale="   99.548">  7  8 -1 -1</clus>
<clus scale="   22.734">  1  5  2 -1</clus>
</clustering>
</event>
<event>
 9    1  0.9000149E-006  0.9181991E+02  0.7546771E-02  0.1298759E+00
          1   -1    0    0  502    0  0.00000000000E+00  0.00000000000E+00  0.66279231695E+03  0.66279231695E+03  0.00000000000E+00 0. -1.
         -1   -1    0    0    0  501 -0.00000000000E+00 -0.00000000000E+00 -0.20581843634E+02  0.20581843634E+02  0.00000000000E+00 0.  1.
         23    2    1    2    0    0  0.89557522685E+01 -0.13038305975E+02  0.22147016163E+03  0.23986498829E+03  0.90752284788E+02 0.  0.
         23    2    1    2    0    0 -0.16680667468E+02 -0.25752934842E+02  0.23531179858E+03  0.25390915079E+03  0.90314760624E+02 0.  0.
        -11    1    4    4    0    0 -0.38423864154E+02 -0.48876986710E+02  0.13355915329E+03  0.14732074054E+03  0.00000000000E+00 0.  1.
         11    1    4    4    0    0  0.21743196686E+02  0.23124051867E+02  0.10175264529E+03  0.10658841025E+03  0.00000000000E+00 0. -1.
        -11    1    3    3    0    0 -0.22742793516E+02 -0.22881765490E+02  0.25551063286E+02  0.41154181852E+02  0.00000000000E+00 0.  1.
         11    1    3    3    0    0  0.31698545784E+02  0.98434595149E+01  0.19591909835E+03  0.19871080644E+03  0.00000000000E+00 0. -1.
         21    1    1    2  502  501  0.77249151990E+01  0.38791240817E+02  0.18542851311E+03  0.18960002150E+03  0.00000000000E+00 0. -1.
<scales pt_clust_5="13000.00000" pt_clust_6="13000.00000" pt_clust_7="13000.00000" pt_clust_8="13000.00000" pt_clust_9="39.55294"></scales>
<clustering>
<clus scale="   39.553">  1  9  2 -1</clus>
<clus scale="   90.315">  5  6 -1 -1</clus>
<clus scale="   90.752">  7  8 -1 -1</clus>
<clus scale="   91.387">  1  5  2 -1</clus>
<clus scale="   39.553">  1  5  2 -1</clus>
</clustering>
</event>
<event>
 9    1  0.9000149E-006  0.1380069E+03  0.7546771E-02  0.1216132E+00
          2   -1    0    0  502    0  0.00000000000E+00  0.00000000000E+00  0.15734850850E+03  0.15734850850E+03  0.00000000000E+00 0. -1.
         -2   -1    0    0    0  501 -0.00000000000E+00 -0.00000000000E+00 -0.26977973048E+03  0.26977973048E+03  0.00000000000E+00 0.  1.
         23    2    1    2    0    0 -0.10977042725E+03 -0.29826039614E+01 -0.17618120649E+03  0.22651748955E+03  0.90619605642E+02 0.  0.
         23    2    1    2    0    0  0.88544343470E+02  0.11374273898E+02 -0.55692297879E+01  0.12763047657E+03  0.91044205535E+02 0.  0.
        -11    1    4    4    0    0  0.36122595323E+02  0.13352886814E+02  0.41880403537E+02  0.56895603341E+02  0.00000000000E+00 0. -1.
         11    1    4    4    0    0  0.52421748148E+02 -0.19786129160E+01 -0.47449633325E+02  0.70734873228E+02  0.00000000000E+00 0.  1.
        -13    1    3    3    0    0 -0.20771522231E+02 -0.38644750163E+02 -0.36363229690E+02  0.56983833887E+02  0.00000000000E+00 0. -1.
         13    1    3    3    0    0 -0.88998905016E+02  0.35662146201E+02 -0.13981797680E+03  0.16953365566E+03  0.00000000000E+00 0.  1.
         21    1    1    2  502  501  0.21226083777E+02 -0.83916699363E+01  0.69319214300E+02  0.72980272868E+02  0.00000000000E+00 0. -1.
<scales pt_clust_5="13000.00000" pt_clust_6="13000.00000" pt_clust_7="13000.00000" pt_clust_8="13000.00000" pt_clust_9="22.82470"></scales>
<clustering>
<clus scale="   22.825">  1  9  2 -1</clus>
<clus scale="   90.620">  7  8 -1 -1</clus>
<clus scale="   91.044">  5  6 -1 -1</clus>
<clus scale="  137.727">  2  7  1 -1</clus>
<clus scale="   22.825">  1  5  2 -1</clus>
</clustering>
</event>
<event>
 9    1  0.9000149E-006  0.1328153E+03  0.7546771E-02  0.1224362E+00
         -1   -1    0    0    0  501 -0.00000000000E+00  0.00000000000E+00  0.11692014216E+03  0.11692014216E+03  0.00000000000E+00 0.  1.
          1   -1    0    0  502    0  0.00000000000E+00 -0.00000000000E+00 -0.31854935595E+03  0.31854935595E+03  0.00000000000E+00 0. -1.
         23    2    1    2    0    0  0.86189283650E+02  0.58818845157E+02  0.31126484308E+02  0.13907578306E+03  0.86515699427E+02 0.  0.
         23    2    1    2    0    0 -0.40063945091E+02 -0.75019725070E+02 -0.11692707599E+03  0.17067066597E+03  0.90683274523E+02 0.  0.
        -11    1    3    3    0    0  0.63357840071E+02  0.20731208458E+02  0.56975427192E+02  0.87693775186E+02  0.00000000000E+00 0.  1.
         11    1    3    3    0    0  0.22831443579E+02  0.38087636699E+02 -0.25848942884E+02  0.51382007877E+02  0.00000000000E+00 0. -1.
        -13    1    4    4    0    0 -0.59223113893E+02 -0.24121899173E+02 -0.36646599194E+02  0.73703571633E+02  0.00000000000E+00 0.  1.
         13    1    4    4    0    0  0.19159168803E+02 -0.50897825897E+02 -0.80280476792E+02  0.96967094337E+02  0.00000000000E+00 0. -1.
         21    1    1    2  502  501 -0.46125338560E+02  0.16200879913E+02 -0.11582862211E+03  0.12572304907E+03  0.00000000000E+00 0. -1.
<scales pt_clust_5="13000.00000" pt_clust_6="13000.00000" pt_clust_7="13000.00000" pt_clust_8="13000.00000" pt_clust_9="48.88778"></scales>
<clustering>
<clus scale="   48.888">  2  9  1 -1</clus>
<clus scale="   86.516">  5  6 -1 -1</clus>
<clus scale="   90.683">  7  8 -1 -1</clus>
<clus scale="  130.005">  1  5  2 -1</clus>
<clus scale="   48.888">  2  5  1 -1</clus>
</clustering>
</event>
<event>
 9    1  0.9000149E-006  0.9730832E+02  0.7546771E-02  0.1290011E+00
          1   -1    0    0  502    0  0.00000000000E+00  0.00000000000E+00  0.28062419022E+03  0.28062419022E+03  0.00000000000E+00 0. -1.
         -1   -1    0    0    0  501 -0.00000000000E+00 -0.00000000000E+00 -0.16809624249E+03  0.16809624249E+03  0.00000000000E+00 0.  1.
         23    2    1    2    0    0 -0.98218390843E+01 -0.29908839800E+02 -0.14001900139E+03  0.17073692708E+03  0.92492001269E+02 0.  0.
         23    2    1    2    0    0 -0.10245346486E+02  0.20303978069E+02  0.15858854117E+03  0.18142716079E+03  0.85136776013E+02 0.  0.
        -11    1    3    3    0    0 -0.12385880267E+02 -0.63148933650E+02 -0.93472666816E+02  0.11348276210E+03  0.00000000000E+00 0.  1.
         11    1    3    3    0    0  0.25640411828E+01  0.33240093850E+02 -0.46546334575E+02  0.57254164990E+02  0.00000000000E+00 0. -1.
        -13    1    4    4    0    0 -0.94007164479E+01 -0.32916629818E+02  0.73168300920E+02  0.80780432332E+02  0.00000000000E+00 0.  1.
         13    1    4    4    0    0 -0.84463003817E+00  0.53220607887E+02  0.85420240251E+02  0.10064672845E+03  0.00000000000E+00 0. -1.
         21    1    1    2  502  501  0.20067185570E+02  0.96048617309E+01  0.93958407943E+02  0.96556344840E+02  0.00000000000E+00 0. -1.
<scales pt_clust_5="13000.00000" pt_clust_6="13000.00000" pt_clust_7="13000.00000" pt_clust_8="13000.00000" pt_clust_9="22.24737"></scales>
<clustering>
<clus scale="   22.247">  1  9  2 -1</clus>
<clus scale="   85.137">  7  8 -1 -1</clus>
<clus scale="   90.346">  1  7  2 -1</clus>
<clus scale="   92.492">  5  6 -1 -1</clus>
<clus scale="   22.247">  1  5  2 -1</clus>
</clustering>
</event>
<event>
 9    1  0.9000149E-006  0.1825833E+03  0.7546771E-02  0.1191699E+00
          1   -1    0    0  502    0  0.00000000000E+00  0.00000000000E+00  0.52094171422E+03  0.52094171422E+03  0.00000000000E+00 0. -1.
         -1   -1    0    0    0  501 -0.00000000000E+00 -0.00000000000E+00 -0.15096695122E+03  0.15096695122E+03  0.00000000000E+00 0.  1.
         23    2    1    2    0    0  0.29812111465E+02 -0.22071158239E+02 -0.49930063087E+02  0.11245422207E+03  0.93685873240E+02 0.  0.
         23    2    1    2    0    0 -0.15533455184E+03 -0.58476268056E+02  0.34379144122E+03  0.39201186135E+03  0.89064288365E+02 0.  0.
        -11    1    4    4    0    0 -0.10628228541E+03 -0.13490276118E+02  0.13198362488E+03  0.16999290861E+03  0.00000000000E+00 0. -1.
         11    1    4    4    0    0 -0.49052266429E+02 -0.44985991938E+02  0.21180781634E+03  0.22201895274E+03  0.00000000000E+00 0.  1.
        -13    1    3    3    0    0  0.63891786570E+02 -0.16914691415E+02 -0.36158345630E+02  0.75337196228E+02  0.00000000000E+00 0.  1.
         13    1    3    3    0    0 -0.34079675105E+02 -0.51564668242E+01 -0.13771717457E+02  0.37117025839E+02  0.00000000000E+00 0. -1.
         21    1    1    2  502  501  0.12552244037E+03  0.80547426295E+02  0.76113384863E+02  0.16744258203E+03  0.00000000000E+00 0.  1.
<scales pt_clust_5="13000.00000" pt_clust_6="13000.00000" pt_clust_7="13000.00000" pt_clust_8="13000.00000" pt_clust_9="159.38696"></scales>
<clustering>
<clus scale="   89.064">  5  6 -1 -1</clus>
<clus scale="   93.686">  7  8 -1 -1</clus>
<clus scale="  100.762">  2  7  1 -1</clus>
<clus scale="  159.387">  2  9  1 -1</clus>
<clus scale="  182.583">  1  5  2 -1</clus>
</clustering>
</event>
<event>
 9    1  0.9000149E-006  0.1067823E+03  0.7546771E-02  0.1268242E+00
         -1   -1    0    0    0  501 -0.00000000000E+00  0.00000000000E+00  0.42356629116E+03  0.42356629116E+03  0.00000000000E+00 0.  1.
          1   -1    0    0  502    0  0.00000000000E+00 -0.00000000000E+00 -0.50118305198E+02  0.50118305198E+02  0.00000000000E+00 0. -1.
         23    2    1    2    0    0  0.60322112763E+02 -0.11410900308E+02  0.30585453606E+03  0.32419605580E+03  0.88244656703E+02 0.  0.
         23    2    1    2    0    0 -0.29781375779E+02  0.18696724930E+02  0.64880381376E+02  0.11797377264E+03  0.92042649226E+02 0.  0.
        -11    1    4    4    0    0  0.26547577373E+02  0.30924904615E+02  0.29908554804E+02  0.50553389998E+02  0.00000000000E+00 0.  1.
         11    1    4    4    0    0 -0.56328953152E+02 -0.12228179686E+02  0.34971826571E+02  0.67420382640E+02  0.00000000000E+00 0. -1.
        -11    1    3    3    0    0  0.39965069118E+02 -0.40291737134E+02  0.97064950238E+02  0.11243769562E+03  0.00000000000E+00 0.  1.
         11    1    3    3    0    0  0.20357043645E+02  0.28880836826E+02  0.20878958582E+03  0.21175836019E+03  0.00000000000E+00 0. -1.
         21    1    1    2  502  501 -0.30540736983E+02 -0.72858246218E+01  0.27130685265E+01  0.31514767915E+02  0.00000000000E+00 0.  1.
<scales pt_clust_5="13000.00000" pt_clust_6="13000.00000" pt_clust_7="13000.00000" pt_clust_8="13000.00000" pt_clust_9="31.39777"></scales>
<clustering>
<clus scale="   31.398">  2  9  1 -1</clus>
<clus scale="   88.245">  7  8 -1 -1</clus>
<clus scale="   92.043">  5  6 -1 -1</clus>
<clus scale="  103.526">  1  7  2 -1</clus>
<clus scale="   31.398">  2  5  1 -1</clus>
</clustering>
</event>
<event>
 9    1  0.9000149E-006  0.3682450E+03  0.7546771E-02  0.1055509E+00
         -2   -1    0    0    0  501 -0.00000000000E+00  0.00000000000E+00  0.19668380217E+03  0.19668380217E+03  0.00000000000E+00 0.  1.
          2   -1    0    0  502    0  0.00000000000E+00 -0.00000000000E+00 -0.11746532867E+04  0.11746532867E+04  0.00000000000E+00 0. -1.
         23    2    1    2    0    0  0.31334906681E+03 -0.19080935703E+03 -0.73397150491E+02  0.38441278685E+03  0.88262113035E+02 0.  0.
         23    2    1    2    0    0 -0.27683762382E+03  0.14991620030E+03 -0.84130806202E+03  0.90321227273E+03  0.94229598929E+02 0.  0.
        -13    1    3    3    0    0  0.22890115441E+03 -0.91230391084E+02 -0.55979417565E+02  0.25269035980E+03  0.00000000000E+00 0.  1.
         13    1    3    3    0    0  0.84447912395E+02 -0.99578965948E+02 -0.17417732927E+02  0.13172242705E+03  0.00000000000E+00 0. -1.
        -13    1    4    4    0    0 -0.11174399077E+03  0.31590925131E+02 -0.20915985432E+03  0.23923325581E+03  0.00000000000E+00 0.  1.
         13    1    4    4    0    0 -0.16509363305E+03  0.11832527517E+03 -0.63214820770E+03  0.66397901692E+03  0.00000000000E+00 0. -1.
         21    1    1    2  502  501 -0.36511442983E+02  0.40893156733E+02 -0.63264272060E+02  0.83712029336E+02  0.00000000000E+00 0. -1.
<scales pt_clust_5="13000.00000" pt_clust_6="13000.00000" pt_clust_7="13000.00000" pt_clust_8="13000.00000" pt_clust_9="54.82094"></scales>
<clustering>
<clus scale="   54.821">  2  9  1 -1</clus>
<clus scale="   88.262">  5  6 -1 -1</clus>
<clus scale="   94.230">  7  8 -1 -1</clus>
<clus scale="  366.763">  1  5  2 -1</clus>
<clus scale="   54.821">  2  5  1 -1</clus>
</clustering>
</event>
<event>
 9    1  0.9000149E-006  0.9578164E+02  0.7546771E-02  0.1289680E+00
         -2   -1    0    0    0  501 -0.00000000000E+00  0.00000000000E+00  0.42193537376E+02  0.42193537376E+02  0.00000000000E+00 0.  1.
          2   -1    0    0  502    0  0.00000000000E+00 -0.00000000000E+00 -0.61406707314E+03  0.61406707314E+03  0.00000000000E+00 0. -1.
         23    2    1    2    0    0  0.42155815816E+02 -0.21227558131E+02 -0.68619320606E+02  0.12401892221E+03  0.91893198193E+02 0.  0.
         23    2    1    2    0    0  0.18324417403E+02  0.57729057348E+01 -0.17770538536E+03  0.20076205775E+03  0.91417116193E+02 0.  0.
        -11    1    3    3    0    0  0.61958404348E+02  0.10740332108E+01 -0.16758550809E+02  0.64193819343E+02  0.00000000000E+00 0.  1.
         11    1    3    3    0    0 -0.19802588532E+02 -0.22301591341E+02 -0.51860769797E+02  0.59825102866E+02  0.00000000000E+00 0. -1.
        -13    1    4    4    0    0  0.49002295672E+02 -0.20086366458E+02 -0.10939559360E+03  0.12154045827E+03  0.00000000000E+00 0.  1.
         13    1    4    4    0    0 -0.30677878269E+02  0.25859272193E+02 -0.68309791760E+02  0.79221599477E+02  0.00000000000E+00 0. -1.
         21    1    1    2  502  501 -0.60480233218E+02  0.15454652396E+02 -0.32554882980E+03  0.33147963056E+03  0.00000000000E+00 0. -1.
<scales pt_clust_5="13000.00000" pt_clust_6="13000.00000" pt_clust_7="13000.00000" pt_clust_8="13000.00000" pt_clust_9="62.42359"></scales>
<clustering>
<clus scale="   62.424">  2  9  1 -1</clus>
<clus scale="   91.417">  7  8 -1 -1</clus>
<clus scale="   91.893">  5  6 -1 -1</clus>
<clus scale="   95.325">  2  7  1 -1</clus>
<clus scale="   62.424">  2  5  1 -1</clus>
</clustering>
</event>
<event>
 9    1  0.9000149E-006  0.1577210E+03  0.7546771E-02  0.1191472E+00
         -1   -1    0    0    0  501 -0.00000000000E+00  0.00000000000E+00  0.52128521538E+02  0.52128521538E+02  0.00000000000E+00 0.  1.
          1   -1    0    0  502    0  0.00000000000E+00 -0.00000000000E+00 -0.66460120141E+03  0.66460120141E+03  0.00000000000E+00 0. -1.
         23    2    1    2    0    0 -0.55482681964E+02  0.12392827286E+03 -0.14495697343E+03  0.21900382136E+03  0.92269197529E+02 0.  0.
         23    2    1    2    0    0  0.38438160291E+02 -0.10287982575E+03 -0.41021586732E+03  0.43434747933E+03  0.91208137173E+02 0.  0.
        -11    1    3    3    0    0  0.11967173312E+02  0.71929362295E+02 -0.37827861414E+02  0.82146171526E+02  0.00000000000E+00 0.  1.
         11    1    3    3    0    0 -0.67449855276E+02  0.51998910562E+02 -0.10712911202E+03  0.13685764983E+03  0.00000000000E+00 0. -1.
        -11    1    4    4    0    0 -0.21173403373E+02 -0.37153460979E+02 -0.22432595669E+03  0.22836555676E+03  0.00000000000E+00 0.  1.
         11    1    4    4    0    0  0.59611563664E+02 -0.65726364770E+02 -0.18588991063E+03  0.20598192256E+03  0.00000000000E+00 0. -1.
         21    1    1    2  502  501  0.17044521672E+02 -0.21048447108E+02 -0.57299839127E+02  0.63378422264E+02  0.00000000000E+00 0. -1.
<scales pt_clust_5="13000.00000" pt_clust_6="13000.00000" pt_clust_7="13000.00000" pt_clust_8="13000.00000" pt_clust_9="27.08418"></scales>
<clustering>
<clus scale="   27.084">  2  9  1 -1</clus>
<clus scale="   91.208">  7  8 -1 -1</clus>
<clus scale="   92.269">  5  6 -1 -1</clus>
<clus scale="  157.103">  2  7  1 -1</clus>
<clus scale="   27.084">  2  5  1 -1</clus>
</clustering>
</event>
<event>
 9    1  0.9000149E-006  0.1104217E+03  0.7546771E-02  0.1267569E+00
          2   -1    0    0  502    0  0.00000000000E+00  0.00000000000E+00  0.18984241737E+03  0.18984241737E+03  0.00000000000E+00 0. -1.
         -2   -1    0    0    0  501 -0.00000000000E+00 -0.00000000000E+00 -0.18027495861E+03  0.18027495861E+03  0.00000000000E+00 0.  1.
         23    2    1    2    0    0  0.41972455133E+01  0.30416654810E+02 -0.12962652664E+03  0.16155867442E+03  0.91407762862E+02 0.  0.
         23    2    1    2    0    0  0.13850802874E+02  0.99220996844E+01  0.81864105465E+02  0.13617318990E+03  0.10747610469E+03 0.  0.
        -13    1    4    4    0    0  0.57071129658E+02 -0.10255421760E+02  0.28538162484E+02  0.64627503696E+02  0.00000000000E+00 0.  1.
         13    1    4    4    0    0 -0.43220326785E+02  0.20177521445E+02  0.53325942981E+02  0.71545686200E+02  0.00000000000E+00 0. -1.
        -13    1    3    3    0    0  0.23895555048E+02  0.50384163670E+02 -0.42744585147E+02  0.70261376724E+02  0.00000000000E+00 0.  1.
         13    1    3    3    0    0 -0.19698309535E+02 -0.19967508860E+02 -0.86881941498E+02  0.91297297699E+02  0.00000000000E+00 0. -1.
         21    1    1    2  502  501 -0.18048048387E+02 -0.40338754495E+02  0.57329879943E+02  0.72385511665E+02  0.00000000000E+00 0. -1.
<scales pt_clust_5="13000.00000" pt_clust_6="13000.00000" pt_clust_7="13000.00000" pt_clust_8="13000.00000" pt_clust_9="44.19216"></scales>
<clustering>
<clus scale="   44.192">  1  9  2 -1</clus>
<clus scale="   91.408">  7  8 -1 -1</clus>
<clus scale="   94.854">  2  7  1 -1</clus>
<clus scale="  107.476">  5  6 -1 -1</clus>
<clus scale="   44.192">  1  5  2 -1</clus>
</clustering>
</event>
<event>
 9    1  0.9000149E-006  0.9113458E+02  0.7546771E-02  0.1300699E+00
         -3   -1    0    0    0  501 -0.00000000000E+00  0.00000000000E+00  0.24325407543E+03  0.24325407543E+03  0.00000000000E+00 0.  1.
          3   -1    0    0  502    0  0.00000000000E+00 -0.00000000000E+00 -0.44042680852E+02  0.44042680852E+02  0.00000000000E+00 0. -1.
         23    2    1    2    0    0  0.76893852946E+01 -0.20827990826E+02  0.97752051076E+02  0.13330989921E+03  0.87881362591E+02 0.  0.
         23    2    1    2    0    0 -0.28819221290E+02  0.11569889289E+02  0.86603817928E+02  0.12654839769E+03  0.86889963880E+02 0.  0.
        -13    1    4    4    0    0 -0.44141830217E+01 -0.31352893919E+02  0.65697245603E+02  0.72928849221E+02  0.00000000000E+00 0.  1.
         13    1    4    4    0    0 -0.24405038268E+02  0.42922783208E+02  0.20906572326E+02  0.53619548465E+02  0.00000000000E+00 0. -1.
        -13    1    3    3    0    0  0.47642747974E+02 -0.16537017032E+02  0.52748201160E+02  0.72977236810E+02  0.00000000000E+00 0.  1.
         13    1    3    3    0    0 -0.39953362680E+02 -0.42909737938E+01  0.45003849915E+02  0.60332662404E+02  0.00000000000E+00 0. -1.
         21    1    1    2  502  501  0.21129835995E+02  0.92581015367E+01  0.14855525577E+02  0.27438459385E+02  0.00000000000E+00 0. -1.
<scales pt_clust_5="13000.00000" pt_clust_6="13000.00000" pt_clust_7="13000.00000" pt_clust_8="13000.00000" pt_clust_9="23.06908"></scales>
<clustering>
<clus scale="   23.069">  2  9  1 -1</clus>
<clus scale="   86.890">  5  6 -1 -1</clus>
<clus scale="   87.881">  7  8 -1 -1</clus>
<clus scale="   90.179">  2  5  1 -1</clus>
<clus scale="   23.069">  2  5  1 -1</clus>
</clustering>
</event>
<event>
 9    1  0.9000149E-006  0.1322563E+03  0.7546771E-02  0.1224836E+00
          2   -1    0    0  502    0  0.00000000000E+00  0.00000000000E+00  0.12481474616E+03  0.12481474616E+03  0.00000000000E+00 0. -1.
         -2   -1    0    0    0  501 -0.00000000000E+00 -0.00000000000E+00 -0.17006292694E+03  0.17006292694E+03  0.00000000000E+00 0.  1.
         23    2    1    2    0    0 -0.35756549974E+02 -0.95448925187E+02 -0.33454672303E+02  0.14014011645E+03  0.90172107415E+02 0.  0.
         23    2    1    2    0    0  0.10806980042E+02  0.92196835533E+02 -0.18192616885E+02  0.12877593659E+03  0.87379764457E+02 0.  0.
        -11    1    3    3    0    0 -0.16702072024E+02 -0.10937015957E+03 -0.36136539936E+02  0.11639003623E+03  0.00000000000E+00 0.  1.
         11    1    3    3    0    0 -0.19054477950E+02  0.13921234385E+02  0.26818676329E+01  0.23750080226E+02  0.00000000000E+00 0. -1.
        -13    1    4    4    0    0  0.30007785542E+01  0.22603478178E+02  0.34348157939E+02  0.41227634561E+02  0.00000000000E+00 0. -1.
         13    1    4    4    0    0  0.78062014875E+01  0.69593357355E+02 -0.52540774824E+02  0.87548302033E+02  0.00000000000E+00 0.  1.
         21    1    1    2  502  501  0.24949569932E+02  0.32520896535E+01  0.63991084109E+01  0.25961620045E+02  0.00000000000E+00 0. -1.
<scales pt_clust_5="13000.00000" pt_clust_6="13000.00000" pt_clust_7="13000.00000" pt_clust_8="13000.00000" pt_clust_9="25.16063"></scales>
<clustering>
<clus scale="   25.161">  1  9  2 -1</clus>
<clus scale="   87.380">  7  8 -1 -1</clus>
<clus scale="   90.172">  5  6 -1 -1</clus>
<clus scale="  130.368">  1  7  2 -1</clus>
<clus scale="   25.161">  1  5  2 -1</clus>
</clustering>
</event>
<event>
 9    1  0.9000149E-006  0.1688163E+03  0.7546771E-02  0.1183191E+00
         -3   -1    0    0    0  501 -0.00000000000E+00  0.00000000000E+00  0.28832493784E+03  0.28832493784E+03  0.00000000000E+00 0.  1.
          3   -1    0    0  502    0  0.00000000000E+00 -0.00000000000E+00 -0.82274378272E+03  0.82274378272E+03  0.00000000000E+00 0. -1.
         23    2    1    2    0    0 -0.94956790844E+02  0.81759235498E+02  0.25507392024E+03  0.29800636579E+03  0.89686813656E+02 0.  0.
         23    2    1    2    0    0  0.10806205901E+03 -0.58512286923E+02 -0.69980880593E+03  0.71949216076E+03  0.11329390193E+03 0.  0.
        -13    1    4    4    0    0 -0.14968911602E+02 -0.37543525739E+02 -0.12834313007E+03  0.13455684181E+03  0.00000000000E+00 0.  1.
         13    1    4    4    0    0  0.12303097061E+03 -0.20968761184E+02 -0.57146567586E+03  0.58493531895E+03  0.00000000000E+00 0. -1.
        -13    1    3    3    0    0 -0.73205652406E+02  0.55760223749E+02  0.24639005822E+03  0.26301393668E+03  0.00000000000E+00 0.  1.
         13    1    3    3    0    0 -0.21751138438E+02  0.25999011748E+02  0.86838620232E+01  0.34992429108E+02  0.00000000000E+00 0. -1.
         21    1    1    2  502  501 -0.13105268164E+02 -0.23246948575E+02 -0.89683959193E+02  0.93570194016E+02  0.00000000000E+00 0. -1.
<scales pt_clust_5="13000.00000" pt_clust_6="13000.00000" pt_clust_7="13000.00000" pt_clust_8="13000.00000" pt_clust_9="26.68649"></scales>
<clustering>
<clus scale="   26.686">  2  9  1 -1</clus>
<clus scale="   89.687">  7  8 -1 -1</clus>
<clus scale="  113.294">  5  6 -1 -1</clus>
<clus scale="  153.971">  1  7  2 -1</clus>
<clus scale="   26.686">  2  5  1 -1</clus>
</clustering>
</event>
<event>
 9    1  0.9000149E-006  0.1030199E+03  0.7546771E-02  0.1274496E+00
         -2   -1    0    0    0  501 -0.00000000000E+00  0.00000000000E+00  0.34518938161E+03  0.34518938161E+03  0.00000000000E+00 0.  1.
          2   -1    0    0  502    0  0.00000000000E+00 -0.00000000000E+00 -0.49501134098E+03  0.49501134098E+03  0.00000000000E+00 0. -1.
         23    2    1    2    0    0 -0.28405491647E+02 -0.38341660317E+02  0.32999597649E+03  0.34577427736E+03  0.91572657007E+02 0.  0.
         23    2    1    2    0    0  0.14798420779E+02  0.19098603067E+02 -0.34296830782E+03  0.35556223701E+03  0.90628330674E+02 0.  0.
        -11    1    3    3    0    0 -0.10001574617E+02  0.29816383523E+02  0.78742638866E+02  0.84790632718E+02  0.00000000000E+00 0. -1.
         11    1    3    3    0    0 -0.18403917029E+02 -0.68158043840E+02  0.25125333762E+03  0.26098364464E+03  0.00000000000E+00 0.  1.
        -13    1    4    4    0    0  0.40481162594E+02  0.31629008183E+02 -0.29718538742E+03  0.30159289312E+03  0.00000000000E+00 0. -1.
         13    1    4    4    0    0 -0.25682741815E+02 -0.12530405116E+02 -0.45782920399E+02  0.53969343888E+02  0.00000000000E+00 0.  1.
         21    1    1    2  502  501  0.13607070868E+02  0.19243057250E+02 -0.13684962805E+03  0.13886420823E+03  0.00000000000E+00 0. -1.
<scales pt_clust_5="13000.00000" pt_clust_6="13000.00000" pt_clust_7="13000.00000" pt_clust_8="13000.00000" pt_clust_9="23.56794"></scales>
<clustering>
<clus scale="   23.568">  2  9  1 -1</clus>
<clus scale="   90.628">  7  8 -1 -1</clus>
<clus scale="   91.573">  5  6 -1 -1</clus>
<clus scale="  102.181">  2  7  1 -1</clus>
<clus scale="   23.568">  2  5  1 -1</clus>
</clustering>
</event>
<event>
 9    1  0.9000149E-006  0.1014335E+03  0.7546771E-02  0.1278071E+00
          1   -1    0    0  502    0  0.00000000000E+00  0.00000000000E+00  0.45790779490E+03  0.45790779490E+03  0.00000000000E+00 0. -1.
         -1   -1    0    0    0  501 -0.00000000000E+00 -0.00000000000E+00 -0.17589801689E+03  0.17589801689E+03  0.00000000000E+00 0.  1.
         23    2    1    2    0    0  0.25897327809E+02 -0.29669187374E+02 -0.14563985696E+03  0.17706785954E+03  0.92688330874E+02 0.  0.
         23    2    1    2    0    0 -0.59494021585E+02  0.50559135165E+02  0.29996464059E+03  0.32306452354E+03  0.91083126941E+02 0.  0.
        -11    1    4    4    0    0  0.24614007095E+02  0.13229677268E+02  0.69030145813E+02  0.74471704270E+02  0.00000000000E+00 0.  1.
         11    1    4    4    0    0 -0.84108028680E+02  0.37329457898E+02  0.23093449477E+03  0.24859281927E+03  0.00000000000E+00 0. -1.
        -11    1    3    3    0    0 -0.18484509761E+01 -0.20036949494E+02  0.72456580186E+01  0.21386810799E+02  0.00000000000E+00 0. -1.
         11    1    3    3    0    0  0.27745778785E+02 -0.96322378796E+01 -0.15288551498E+03  0.15568104875E+03  0.00000000000E+00 0.  1.
         21    1    1    2  502  501  0.33596693776E+02 -0.20889947792E+02  0.12768499439E+03  0.13367342871E+03  0.00000000000E+00 0.  1.
<scales pt_clust_5="13000.00000" pt_clust_6="13000.00000" pt_clust_7="13000.00000" pt_clust_8="13000.00000" pt_clust_9="39.56170"></scales>
<clustering>
<clus scale="   39.562">  1  9  2 -1</clus>
<clus scale="   91.083">  5  6 -1 -1</clus>
<clus scale="   92.688">  7  8 -1 -1</clus>
<clus scale="   99.969">  1  5  2 -1</clus>
<clus scale="   39.562">  1  5  2 -1</clus>
</clustering>
</event>
<event>
 9    1  0.9000149E-006  0.1205295E+03  0.7546771E-02  0.1242382E+00
         -1   -1    0    0    0  501 -0.00000000000E+00  0.00000000000E+00  0.12059905007E+03  0.12059905007E+03  0.00000000000E+00 0.  1.
          1   -1    0    0  502    0  0.00000000000E+00 -0.00000000000E+00 -0.17592390408E+03  0.17592390408E+03  0.00000000000E+00 0. -1.
         23    2    1    2    0    0 -0.26109332865E+02 -0.74796193864E+02 -0.10572090934E+01  0.12051323399E+03  0.90808336601E+02 0.  0.
         23    2    1    2    0    0 -0.14602222492E+02  0.82656050927E+02 -0.28725440739E+02  0.12731051804E+03  0.91310291872E+02 0.  0.
        -13    1    4    4    0    0 -0.47412149559E+02  0.53053185721E+02  0.55754491650E+01  0.71369727997E+02  0.00000000000E+00 0. -1.
         13    1    4    4    0    0  0.32809927067E+02  0.29602865206E+02 -0.34300889904E+02  0.55940790044E+02  0.00000000000E+00 0.  1.
        -13    1    3    3    0    0 -0.49692415173E+02 -0.33422777576E+02  0.26504652319E+02  0.65489806696E+02  0.00000000000E+00 0.  1.
         13    1    3    3    0    0  0.23583082308E+02 -0.41373416288E+02 -0.27561861412E+02  0.55023427292E+02  0.00000000000E+00 0. -1.
         21    1    1    2  502  501  0.40711555357E+02 -0.78598570633E+01 -0.25542204175E+02  0.48699202116E+02  0.00000000000E+00 0.  1.
<scales pt_clust_5="13000.00000" pt_clust_6="13000.00000" pt_clust_7="13000.00000" pt_clust_8="13000.00000" pt_clust_9="41.46333"></scales>
<clustering>
<clus scale="   41.463">  2  9  1 -1</clus>
<clus scale="   90.808">  7  8 -1 -1</clus>
<clus scale="   91.310">  5  6 -1 -1</clus>
<clus scale="  120.150">  1  7  2 -1</clus>
<clus scale="   41.463">  2  5  1 -1</clus>
</clustering>
</event>
<event>
 9    1  0.9000149E-006  0.9533367E+02  0.7546771E-02  0.1290462E+00
          1   -1    0    0  502    0  0.00000000000E+00  0.00000000000E+00  0.10873265217E+03  0.10873265217E+03  0.00000000000E+00 0. -1.
         -1   -1    0    0    0  501 -0.00000000000E+00 -0.00000000000E+00 -0.33448163493E+03  0.33448163493E+03  0.00000000000E+00 0.  1.
         23    2    1    2    0    0 -0.22674878867E+02 -0.13023323717E+02 -0.28744460442E+03  0.30268686348E+03  0.91165671290E+02 0.  0.
         23    2    1    2    0    0  0.28781260569E+02  0.35886023633E+02  0.45468885071E+02  0.11183425500E+03  0.91232195144E+02 0.  0.
        -11    1    3    3    0    0  0.33488452923E+02  0.77696373867E+01 -0.89272405170E+02  0.95662981707E+02  0.00000000000E+00 0. -1.
         11    1    3    3    0    0 -0.56163331790E+02 -0.20792961104E+02 -0.19817219925E+03  0.20702388177E+03  0.00000000000E+00 0.  1.
        -13    1    4    4    0    0  0.57498360748E+02  0.21682807101E+02  0.50328518221E+02  0.79430254682E+02  0.00000000000E+00 0. -1.
         13    1    4    4    0    0 -0.28717100180E+02  0.14203216532E+02 -0.48596331497E+01  0.32404000323E+02  0.00000000000E+00 0.  1.
         21    1    1    2  502  501 -0.61063817014E+01 -0.22862699917E+02  0.16226736590E+02  0.28693168618E+02  0.00000000000E+00 0.  1.
<scales pt_clust_5="13000.00000" pt_clust_6="13000.00000" pt_clust_7="13000.00000" pt_clust_8="13000.00000" pt_clust_9="23.66413"></scales>
<clustering>
<clus scale="   23.664">  1  9  2 -1</clus>
<clus scale="   91.166">  5  6 -1 -1</clus>
<clus scale="   91.232">  7  8 -1 -1</clus>
<clus scale="   95.270">  2  5  1 -1</clus>
<clus scale="   23.664">  1  5  2 -1</clus>
</clustering>
</event>
<event>
 9    1  0.9000149E-006  0.9868148E+02  0.7546771E-02  0.1284000E+00
          1   -1    0    0  502    0  0.00000000000E+00  0.00000000000E+00  0.10766858060E+04  0.10766858060E+04  0.00000000000E+00 0. -1.
         -1   -1    0    0    0  501 -0.00000000000E+00 -0.00000000000E+00 -0.42404634200E+02  0.42404634200E+02  0.00000000000E+00 0.  1.
         23    2    1    2    0    0  0.35397302102E+02 -0.32173271555E+02  0.44068417043E+02  0.11117485609E+03  0.90165042274E+02 0.  0.
         23    2    1    2    0    0  0.21668701408E+02 -0.33003591278E+02  0.46988099752E+03  0.48042180234E+03  0.91968400453E+02 0.  0.
        -11    1    4    4    0    0  0.18844316271E+02  0.30846160786E+02  0.17501192451E+03  0.17870581303E+03  0.00000000000E+00 0.  1.
         11    1    4    4    0    0  0.28243851364E+01 -0.63849752064E+02  0.29486907301E+03  0.30171598931E+03  0.00000000000E+00 0. -1.
        -13    1    3    3    0    0  0.55851091358E+02  0.71880830473E+01  0.15475247865E+02  0.58399454109E+02  0.00000000000E+00 0.  1.
         13    1    3    3    0    0 -0.20453789256E+02 -0.39361354602E+02  0.28593169179E+02  0.52775401985E+02  0.00000000000E+00 0. -1.
         21    1    1    2  502  501 -0.57066003510E+02  0.65176862832E+02  0.52033175726E+03  0.52749378178E+03  0.00000000000E+00 0. -1.
<scales pt_clust_5="13000.00000" pt_clust_6="13000.00000" pt_clust_7="13000.00000" pt_clust_8="13000.00000" pt_clust_9="86.62882"></scales>
<clustering>
<clus scale="   86.629">  1  9  2 -1</clus>
<clus scale="   90.165">  7  8 -1 -1</clus>
<clus scale="   91.968">  5  6 -1 -1</clus>
<clus scale="   97.003">  2  7  1 -1</clus>
<clus scale="   86.629">  1  5  2 -1</clus>
</clustering>
</event>
<event>
 9    1  0.9000149E-006  0.9750178E+02  0.7546771E-02  0.1286063E+00
          2   -1    0    0  502    0  0.00000000000E+00  0.00000000000E+00  0.12378717770E+03  0.12378717770E+03  0.00000000000E+00 0. -1.
         -2   -1    0    0    0  501 -0.00000000000E+00 -0.00000000000E+00 -0.27845561065E+03  0.27845561065E+03  0.00000000000E+00 0.  1.
         23    2    1    2    0    0 -0.45055986361E+01  0.35010975204E+02 -0.21974622883E+03  0.24056865469E+03  0.91317050618E+02 0.  0.
         23    2    1    2    0    0  0.11511324322E+02  0.24804501597E+01  0.78113573335E+02  0.12136757511E+03  0.92139539436E+02 0.  0.
        -11    1    4    4    0    0  0.37381942296E+02 -0.13398174401E+02  0.81662670135E+02  0.90805904988E+02  0.00000000000E+00 0. -1.
         11    1    4    4    0    0 -0.25870617974E+02  0.15878624561E+02 -0.35490968009E+01  0.30561670118E+02  0.00000000000E+00 0.  1.
        -13    1    3    3    0    0 -0.18069914682E+02 -0.23566996942E+02 -0.12401145115E+03  0.12751770535E+03  0.00000000000E+00 0. -1.
         13    1    3    3    0    0  0.13564316046E+02  0.58577972146E+02 -0.95734777675E+02  0.11305094934E+03  0.00000000000E+00 0.  1.
         21    1    1    2  502  501 -0.70057256857E+01 -0.37491425364E+02 -0.13035777465E+02  0.40306558552E+02  0.00000000000E+00 0.  1.
<scales pt_clust_5="13000.00000" pt_clust_6="13000.00000" pt_clust_7="13000.00000" pt_clust_8="13000.00000" pt_clust_9="38.14036"></scales>
<clustering>
<clus scale="   38.140">  1  9  2 -1</clus>
<clus scale="   91.317">  7  8 -1 -1</clus>
<clus scale="   92.140">  5  6 -1 -1</clus>
<clus scale="   96.725">  2  7  1 -1</clus>
<clus scale="   38.140">  1  5  2 -1</clus>
</clustering>
</event>
<event>
 9    1  0.9000149E-006  0.1270615E+03  0.7546771E-02  0.1231938E+00
         -1   -1    0    0    0  501 -0.00000000000E+00  0.00000000000E+00  0.44726055005E+03  0.44726055005E+03  0.00000000000E+00 0.  1.
          1   -1    0    0  502    0  0.00000000000E+00 -0.00000000000E+00 -0.26797972540E+03  0.26797972540E+03  0.00000000000E+00 0. -1.
         23    2    1    2    0    0 -0.95813557835E+02 -0.31310730347E+02  0.39492523361E+03  0.41746538265E+03  0.90281813623E+02 0.  0.
         23    2    1    2    0    0  0.19765864154E+02  0.82718253511E+01 -0.33130895806E+02  0.98714034420E+02  0.90485865494E+02 0.  0.
        -11    1    4    4    0    0  0.34390856903E+02  0.39989243168E+02 -0.34106250619E+01  0.52853599414E+02  0.00000000000E+00 0. -1.
         11    1    4    4    0    0 -0.14624992748E+02 -0.31717417817E+02 -0.29720270744E+02  0.45860435006E+02  0.00000000000E+00 0.  1.
        -11    1    3    3    0    0  0.25292167418E+01  0.22222789357E+02  0.86490855296E+02  0.89335980176E+02  0.00000000000E+00 0. -1.
         11    1    3    3    0    0 -0.98342774577E+02 -0.53533519705E+02  0.30843437831E+03  0.32812940247E+03  0.00000000000E+00 0.  1.
         21    1    1    2  502  501  0.76047693681E+02  0.23038904996E+02 -0.18251351315E+03  0.19906085839E+03  0.00000000000E+00 0. -1.
<scales pt_clust_5="13000.00000" pt_clust_6="13000.00000" pt_clust_7="13000.00000" pt_clust_8="13000.00000" pt_clust_9="79.46095"></scales>
<clustering>
<clus scale="   79.461">  2  9  1 -1</clus>
<clus scale="   90.282">  7  8 -1 -1</clus>
<clus scale="   90.486">  5  6 -1 -1</clus>
<clus scale="  126.916">  1  7  2 -1</clus>
<clus scale="   79.461">  2  5  1 -1</clus>
</clustering>
</event>
<event>
 9    1  0.9000149E-006  0.1184038E+03  0.7546771E-02  0.1245985E+00
         -1   -1    0    0    0  501 -0.00000000000E+00  0.00000000000E+00  0.20378927808E+03  0.20378927808E+03  0.00000000000E+00 0.  1.
          1   -1    0    0  502    0  0.00000000000E+00 -0.00000000000E+00 -0.27551250573E+03  0.27551250573E+03  0.00000000000E+00 0. -1.
         23    2    1    2    0    0  0.62874333456E+02  0.69476246415E+02  0.15633461570E+03  0.20413364129E+03  0.91923342057E+02 0.  0.
         23    2    1    2    0    0 -0.50057636092E+02 -0.53306207962E+02 -0.22598093154E+03  0.25443046093E+03  0.91214907175E+02 0.  0.
        -11    1    3    3    0    0 -0.23286622728E+02  0.23729501696E+02  0.47482819201E+02  0.57965284163E+02  0.00000000000E+00 0. -1.
         11    1    3    3    0    0  0.86160956183E+02  0.45746744719E+02  0.10885179650E+03  0.14616835712E+03  0.00000000000E+00 0.  1.
        -13    1    4    4    0    0 -0.12804525349E+02  0.21455872126E+02 -0.19502614679E+02  0.31696408273E+02  0.00000000000E+00 0.  1.
         13    1    4    4    0    0 -0.37253110743E+02 -0.74762080088E+02 -0.20647831687E+03  0.22273405266E+03  0.00000000000E+00 0. -1.
         21    1    1    2  502  501 -0.12816697363E+02 -0.16170038454E+02 -0.20769118029E+01  0.20737681585E+02  0.00000000000E+00 0.  1.
<scales pt_clust_5="13000.00000" pt_clust_6="13000.00000" pt_clust_7="13000.00000" pt_clust_8="13000.00000" pt_clust_9="20.63342"></scales>
<clustering>
<clus scale="   20.633">  1  9  2 -1</clus>
<clus scale="   91.215">  7  8 -1 -1</clus>
<clus scale="   91.923">  5  6 -1 -1</clus>
<clus scale="  117.855">  2  7  1 -1</clus>
<clus scale="  117.855">  2  5  1 -1</clus>
</clustering>
</event>
<event>
 9    1  0.9000149E-006  0.9909794E+02  0.7546771E-02  0.1284350E+00
         -2   -1    0    0    0  501 -0.00000000000E+00  0.00000000000E+00  0.11854708869E+03  0.11854708869E+03  0.00000000000E+00 0.  1.
          2   -1    0    0  502    0  0.00000000000E+00 -0.00000000000E+00 -0.22526717434E+03  0.22526717434E+03  0.00000000000E+00 0. -1.
         23    2    1    2    0    0  0.43450102144E+02 -0.19083135436E+01  0.44185925870E+02  0.11098713859E+03  0.92055395551E+02 0.  0.
         23    2    1    2    0    0 -0.19672301922E+02  0.28866102129E+02 -0.19351577038E+02  0.96450163849E+02  0.87794642534E+02 0.  0.
        -13    1    3    3    0    0  0.18233204135E+02  0.42414169175E+02  0.37656319135E+02  0.59576923810E+02  0.00000000000E+00 0.  1.
         13    1    3    3    0    0  0.25216898009E+02 -0.44322482718E+02  0.65296067348E+01  0.51410214779E+02  0.00000000000E+00 0. -1.
        -13    1    4    4    0    0 -0.38235429415E+02  0.48817232735E+02  0.16728914570E+01  0.62031192478E+02  0.00000000000E+00 0.  1.
         13    1    4    4    0    0  0.18563127493E+02 -0.19951130606E+02 -0.21024468495E+02  0.34418971371E+02  0.00000000000E+00 0. -1.
         21    1    1    2  502  501 -0.23777800222E+02 -0.26957788585E+02 -0.13155443448E+03  0.13637696059E+03  0.00000000000E+00 0. -1.
<scales pt_clust_5="13000.00000" pt_clust_6="13000.00000" pt_clust_7="13000.00000" pt_clust_8="13000.00000" pt_clust_9="35.94588"></scales>
<clustering>
<clus scale="   35.946">  2  9  1 -1</clus>
<clus scale="   87.795">  7  8 -1 -1</clus>
<clus scale="   92.055">  5  6 -1 -1</clus>
<clus scale="   95.153">  2  7  1 -1</clus>
<clus scale="   35.946">  2  5  1 -1</clus>
</clustering>
</event>
<event>
 9    1  0.9000149E-006  0.2162841E+03  0.7546771E-02  0.1136769E+00
          1   -1    0    0  502    0  0.00000000000E+00  0.00000000000E+00  0.13932122710E+03  0.13932122710E+03  0.00000000000E+00 0. -1.
         -1   -1    0    0    0  501 -0.00000000000E+00 -0.00000000000E+00 -0.59075546706E+03  0.59075546706E+03  0.00000000000E+00 0.  1.
         23    2    1    2    0    0 -0.20079069111E+03  0.57117920567E+02 -0.33462733515E+03  0.40459368663E+03  0.90228816627E+02 0.  0.
         23    2    1    2    0    0  0.17259701267E+03 -0.52386175755E+02 -0.17110300031E+03  0.26412065018E+03  0.89159637392E+02 0.  0.
        -11    1    3    3    0    0 -0.35626079367E+02  0.48103264280E+02 -0.65803138501E+02  0.88956138642E+02  0.00000000000E+00 0.  1.
         11    1    3    3    0    0 -0.16516461174E+03  0.90146562869E+01 -0.26882419665E+03  0.31563754799E+03  0.00000000000E+00 0. -1.
        -11    1    4    4    0    0  0.29298491248E+01 -0.29175317414E+02 -0.32830482394E+02  0.44018447682E+02  0.00000000000E+00 0. -1.
         11    1    4    4    0    0  0.16966716355E+03 -0.23210858341E+02 -0.13827251792E+03  0.22010220249E+03  0.00000000000E+00 0.  1.
         21    1    1    2  502  501  0.28193678436E+02 -0.47317448114E+01  0.54296095503E+02  0.61362357350E+02  0.00000000000E+00 0.  1.
<scales pt_clust_5="13000.00000" pt_clust_6="13000.00000" pt_clust_7="13000.00000" pt_clust_8="13000.00000" pt_clust_9="28.58799"></scales>
<clustering>
<clus scale="   28.588">  1  9  2 -1</clus>
<clus scale="   89.160">  7  8 -1 -1</clus>
<clus scale="   90.229">  5  6 -1 -1</clus>
<clus scale="  215.840">  1  7  2 -1</clus>
<clus scale="   28.588">  1  5  2 -1</clus>
</clustering>
</event>
<event>
 9    1  0.9000149E-006  0.1022284E+03  0.7546771E-02  0.1276516E+00
         -2   -1    0    0    0  501 -0.00000000000E+00  0.00000000000E+00  0.24563160910E+03  0.24563160910E+03  0.00000000000E+00 0.  1.
          2   -1    0    0  502    0  0.00000000000E+00 -0.00000000000E+00 -0.55016129878E+02  0.55016129878E+02  0.00000000000E+00 0. -1.
         23    2    1    2    0    0 -0.20588140379E+02  0.38031789256E+02  0.12111618007E+03  0.15750742562E+03  0.90934985186E+02 0.  0.
         23    2    1    2    0    0  0.74973457163E+00 -0.45904348232E+02  0.53647931351E+02  0.11655450153E+03  0.92731224514E+02 0.  0.
        -11    1    4    4    0    0 -0.29723269450E+02 -0.91342880089E+01 -0.13711257349E+02  0.33983915936E+02  0.00000000000E+00 0. -1.
         11    1    4    4    0    0  0.30473004022E+02 -0.36770060223E+02  0.67359188700E+02  0.82570585593E+02  0.00000000000E+00 0.  1.
        -13    1    3    3    0    0 -0.11075998245E+02 -0.27229791370E+02  0.63336724867E+02  0.69826069573E+02  0.00000000000E+00 0.  1.
         13    1    3    3    0    0 -0.95121421338E+01  0.65261580626E+02  0.57779455203E+02  0.87681356042E+02  0.00000000000E+00 0. -1.
         21    1    1    2  502  501  0.19838405807E+02  0.78725589757E+01  0.15851367802E+02  0.26585811836E+02  0.00000000000E+00 0.  1.
<scales pt_clust_5="13000.00000" pt_clust_6="13000.00000" pt_clust_7="13000.00000" pt_clust_8="13000.00000" pt_clust_9="21.34337"></scales>
<clustering>
<clus scale="   21.343">  2  9  1 -1</clus>
<clus scale="   90.935">  7  8 -1 -1</clus>
<clus scale="   92.731">  5  6 -1 -1</clus>
<clus scale="  100.602">  1  7  2 -1</clus>
<clus scale="   21.343">  2  5  1 -1</clus>
</clustering>
</event>
<event>
 9    1  0.9000149E-006  0.1071441E+03  0.7546771E-02  0.1274591E+00
         -4   -1    0    0    0  501 -0.00000000000E+00  0.00000000000E+00  0.37140066485E+02  0.37140066485E+02  0.00000000000E+00 0.  1.
          4   -1    0    0  502    0  0.00000000000E+00 -0.00000000000E+00 -0.56255849575E+03  0.56255849575E+03  0.00000000000E+00 0. -1.
         23    2    1    2    0    0 -0.13227749670E+02 -0.13541431154E+02 -0.98447256696E+02  0.14656204804E+03  0.10691224372E+03 0.  0.
         23    2    1    2    0    0 -0.15008987123E+02 -0.25879022822E+01 -0.16166085344E+03  0.18584073395E+03  0.90391260230E+02 0.  0.
        -11    1    3    3    0    0  0.42790166107E+02 -0.11486616204E+02 -0.72096595249E+02  0.84621863096E+02  0.00000000000E+00 0.  1.
         11    1    3    3    0    0 -0.56017915777E+02 -0.20548149497E+01 -0.26350661447E+02  0.61940184946E+02  0.00000000000E+00 0. -1.
        -11    1    4    4    0    0 -0.18125972837E+02 -0.34030044823E+02 -0.25891070647E+02  0.46442893764E+02  0.00000000000E+00 0. -1.
         11    1    4    4    0    0  0.31169857136E+01  0.31442142541E+02 -0.13576978280E+03  0.13939784018E+03  0.00000000000E+00 0.  1.
         21    1    1    2  502  501  0.28236736793E+02  0.16129333436E+02 -0.26531031912E+03  0.26729578024E+03  0.00000000000E+00 0.  1.
<scales pt_clust_5="13000.00000" pt_clust_6="13000.00000" pt_clust_7="13000.00000" pt_clust_8="13000.00000" pt_clust_9="32.51874"></scales>
<clustering>
<clus scale="   32.519">  2  9  1 -1</clus>
<clus scale="   90.391">  7  8 -1 -1</clus>
<clus scale="   90.665">  2  7  1 -1</clus>
<clus scale="  106.912">  5  6 -1 -1</clus>
<clus scale="   32.519">  2  5  1 -1</clus>
</clustering>
</event>
<event>
 9    1  0.9000149E-006  0.1047991E+03  0.7546771E-02  0.1272951E+00
          1   -1    0    0  502    0  0.00000000000E+00  0.00000000000E+00  0.25991926370E+03  0.25991926370E+03  0.00000000000E+00 0. -1.
         -1   -1    0    0    0  501 -0.00000000000E+00 -0.00000000000E+00 -0.18534316977E+03  0.18534316977E+03  0.00000000000E+00 0.  1.
         23    2    1    2    0    0 -0.16453942965E+02  0.44338119716E+02 -0.13620825066E+03  0.17089953618E+03  0.91746186936E+02 0.  0.
         23    2    1    2    0    0  0.41411966065E+02 -0.80687423802E+02  0.18480951609E+03  0.22318803491E+03  0.86214444236E+02 0.  0.
        -11    1    4    4    0    0 -0.45101740539E+01 -0.61022786104E+02  0.48709513280E+02  0.78209582391E+02  0.00000000000E+00 0.  1.
         11    1    4    4    0    0  0.45922140119E+02 -0.19664637699E+02  0.13610000281E+03  0.14497845251E+03  0.00000000000E+00 0. -1.
        -13    1    3    3    0    0  0.96368145332E+01  0.50748490002E+02 -0.13438520206E+03  0.14397103863E+03  0.00000000000E+00 0.  1.
         13    1    3    3    0    0 -0.26090757498E+02 -0.64103702854E+01 -0.18230486073E+01  0.26928497549E+02  0.00000000000E+00 0. -1.
         21    1    1    2  502  501 -0.24958023100E+02  0.36349304086E+02  0.25974828502E+02  0.51174862387E+02  0.00000000000E+00 0.  1.
<scales pt_clust_5="13000.00000" pt_clust_6="13000.00000" pt_clust_7="13000.00000" pt_clust_8="13000.00000" pt_clust_9="44.09280"></scales>
<clustering>
<clus scale="   44.093">  1  9  2 -1</clus>
<clus scale="   86.214">  5  6 -1 -1</clus>
<clus scale="   91.746">  7  8 -1 -1</clus>
<clus scale="   99.992">  1  5  2 -1</clus>
<clus scale="   44.093">  1  5  2 -1</clus>
</clustering>
</event>
<event>
 9    1  0.9000149E-006  0.2479770E+03  0.7546771E-02  0.1127002E+00
          2   -1    0    0  502    0  0.00000000000E+00  0.00000000000E+00  0.17743855347E+04  0.17743855347E+04  0.00000000000E+00 0. -1.
         -2   -1    0    0    0  501 -0.00000000000E+00 -0.00000000000E+00 -0.88181985810E+02  0.88181985810E+02  0.00000000000E+00 0.  1.
         23    2    1    2    0    0 -0.51813215316E+02 -0.14917724439E+03  0.23089706129E+03  0.29392917618E+03  0.90235515043E+02 0.  0.
         23    2    1    2    0    0 -0.17954408794E+03  0.16413673895E+03  0.11821155619E+04  0.12103322320E+04  0.91268622802E+02 0.  0.
        -13    1    3    3    0    0 -0.25957835928E+02 -0.42253493243E+01  0.93408213674E+01  0.27909026619E+02  0.00000000000E+00 0. -1.
         13    1    3    3    0    0 -0.25855379388E+02 -0.14495189507E+03  0.22155623992E+03  0.26602014956E+03  0.00000000000E+00 0.  1.
        -13    1    4    4    0    0 -0.89371268046E+01  0.52694337923E+02  0.32206323675E+03  0.32646790646E+03  0.00000000000E+00 0.  1.
         13    1    4    4    0    0 -0.17060696113E+03  0.11144240103E+03  0.86005232519E+03  0.88386432556E+03  0.00000000000E+00 0. -1.
         21    1    1    2  502  501  0.23135730325E+03 -0.14959494561E+02  0.27319092565E+03  0.35830611229E+03  0.00000000000E+00 0.  1.
<scales pt_clust_5="13000.00000" pt_clust_6="13000.00000" pt_clust_7="13000.00000" pt_clust_8="13000.00000" pt_clust_9="230.57024"></scales>
<clustering>
<clus scale="   90.236">  5  6 -1 -1</clus>
<clus scale="   91.269">  7  8 -1 -1</clus>
<clus scale="  181.882">  2  5  1 -1</clus>
<clus scale="  230.570">  2  9  1 -1</clus>
<clus scale="  247.977">  1  5  2 -1</clus>
</clustering>
</event>
<event>
 9    1  0.9000149E-006  0.9710925E+02  0.7546771E-02  0.1286827E+00
         -2   -1    0    0    0  501 -0.00000000000E+00  0.00000000000E+00  0.21327702299E+03  0.21327702299E+03  0.00000000000E+00 0.  1.
          2   -1    0    0  502    0  0.00000000000E+00 -0.00000000000E+00 -0.84015111305E+02  0.84015111305E+02  0.00000000000E+00 0. -1.
         23    2    1    2    0    0  0.16953045656E+02 -0.42313476219E+02  0.99418582657E+02  0.14197782083E+03  0.90530718569E+02 0.  0.
         23    2    1    2    0    0 -0.26199048359E+01  0.19538047487E+02  0.63036095592E+02  0.11258354197E+03  0.91175135725E+02 0.  0.
        -11    1    3    3    0    0 -0.15040321068E+02 -0.50174341636E+02  0.95339985594E+02  0.10878138016E+03  0.00000000000E+00 0.  1.
         11    1    3    3    0    0  0.31993366724E+02  0.78608654172E+01  0.40785970626E+01  0.33196440674E+02  0.00000000000E+00 0. -1.
        -11    1    4    4    0    0 -0.24121633469E+02  0.32795626989E+01  0.78028833348E+02  0.81738042345E+02  0.00000000000E+00 0.  1.
         11    1    4    4    0    0  0.21501728633E+02  0.16258484788E+02 -0.14992737756E+02  0.30845499627E+02  0.00000000000E+00 0. -1.
         21    1    1    2  502  501 -0.14333140820E+02  0.22775428732E+02 -0.33192766565E+02  0.42730771488E+02  0.00000000000E+00 0.  1.
<scales pt_clust_5="13000.00000" pt_clust_6="13000.00000" pt_clust_7="13000.00000" pt_clust_8="13000.00000" pt_clust_9="26.91020"></scales>
<clustering>
<clus scale="   26.910">  2  9  1 -1</clus>
<clus scale="   90.531">  5  6 -1 -1</clus>
<clus scale="   91.175">  7  8 -1 -1</clus>
<clus scale="   96.504">  1  5  2 -1</clus>
<clus scale="   26.910">  2  5  1 -1</clus>
</clustering>
</event>
<event>
 9    1  0.9000149E-006  0.9575653E+02  0.7546771E-02  0.1289885E+00
          2   -1    0    0  502    0  0.00000000000E+00  0.00000000000E+00  0.14949296664E+03  0.14949296664E+03  0.00000000000E+00 0. -1.
         -2   -1    0    0    0  501 -0.00000000000E+00 -0.00000000000E+00 -0.93859109610E+02  0.93859109610E+02  0.00000000000E+00 0.  1.
         23    2    1    2    0    0  0.18845665569E+00 -0.35270094168E+02 -0.18325372068E+02  0.98521915276E+02  0.90148396934E+02 0.  0.
         23    2    1    2    0    0  0.19308100195E+02  0.18543367605E+02  0.41554808709E+02  0.10347867284E+03  0.90908604597E+02 0.  0.
        -11    1    3    3    0    0  0.21184704846E+02 -0.25892579016E+02 -0.49523772440E+02  0.59764717051E+02  0.00000000000E+00 0.  1.
         11    1    3    3    0    0 -0.20996248190E+02 -0.93775151526E+01  0.31198400372E+02  0.38757198225E+02  0.00000000000E+00 0. -1.
        -11    1    4    4    0    0  0.38173474716E+02 -0.20586817569E+02  0.11149566895E-01  0.43370858348E+02  0.00000000000E+00 0.  1.
         11    1    4    4    0    0 -0.18865374522E+02  0.39130185174E+02  0.41543659142E+02  0.60107814488E+02  0.00000000000E+00 0. -1.
         21    1    1    2  502  501 -0.19496556850E+02  0.16726726564E+02  0.32404420387E+02  0.41351488138E+02  0.00000000000E+00 0. -1.
<scales pt_clust_5="13000.00000" pt_clust_6="13000.00000" pt_clust_7="13000.00000" pt_clust_8="13000.00000" pt_clust_9="25.68850"></scales>
<clustering>
<clus scale="   25.689">  1  9  2 -1</clus>
<clus scale="   90.148">  5  6 -1 -1</clus>
<clus scale="   90.909">  7  8 -1 -1</clus>
<clus scale="   95.035">  2  5  1 -1</clus>
<clus scale="   25.689">  1  5  2 -1</clus>
</clustering>
</event>
<event>
 9    1  0.9000149E-006  0.9358949E+02  0.7546771E-02  0.1294663E+00
          3   -1    0    0  502    0  0.00000000000E+00  0.00000000000E+00  0.53258391180E+02  0.53258391180E+02  0.00000000000E+00 0. -1.
         -3   -1    0    0    0  501 -0.00000000000E+00 -0.00000000000E+00 -0.31294175253E+03  0.31294175253E+03  0.00000000000E+00 0.  1.
         23    2    1    2    0    0  0.11108093226E+02 -0.27317079272E+01 -0.17460142825E+03  0.19727640378E+03  0.91112396391E+02 0.  0.
         23    2    1    2    0    0 -0.32134500826E+02  0.27335781175E+02 -0.91974673227E+02  0.13583325635E+03  0.90617117256E+02 0.  0.
        -11    1    3    3    0    0  0.42933062450E+02 -0.52323453099E+01 -0.15233280102E+03  0.15835374184E+03  0.00000000000E+00 0.  1.
         11    1    3    3    0    0 -0.31824969224E+02  0.25006373827E+01 -0.22268627237E+02  0.38922661939E+02  0.00000000000E+00 0. -1.
        -11    1    4    4    0    0 -0.42283273587E+02  0.53413968181E+02 -0.46649943921E+02  0.82566000811E+02  0.00000000000E+00 0. -1.
         11    1    4    4    0    0  0.10148772761E+02 -0.26078187006E+02 -0.45324729306E+02  0.53267255540E+02  0.00000000000E+00 0.  1.
         21    1    1    2  502  501  0.21026407600E+02 -0.24604073248E+02  0.68927401338E+01  0.33090483579E+02  0.00000000000E+00 0.  1.
<scales pt_clust_5="13000.00000" pt_clust_6="13000.00000" pt_clust_7="13000.00000" pt_clust_8="13000.00000" pt_clust_9="32.36464"></scales>
<clustering>
<clus scale="   32.365">  1  9  2 -1</clus>
<clus scale="   90.617">  7  8 -1 -1</clus>
<clus scale="   91.112">  5  6 -1 -1</clus>
<clus scale="   93.107">  1  7  2 -1</clus>
<clus scale="   32.365">  1  5  2 -1</clus>
</clustering>
</event>
<event>
 9    1  0.9000149E-006  0.9616076E+02  0.7546771E-02  0.1290912E+00
          2   -1    0    0  502    0  0.00000000000E+00  0.00000000000E+00  0.86544224477E+02  0.86544224477E+02  0.00000000000E+00 0. -1.
         -2   -1    0    0    0  501 -0.00000000000E+00 -0.00000000000E+00 -0.18782364448E+03  0.18782364448E+03  0.00000000000E+00 0.  1.
         23    2    1    2    0    0 -0.82994989286E+01  0.29300801215E+02 -0.11279851798E+03  0.14608677304E+03  0.87695045273E+02 0.  0.
         23    2    1    2    0    0  0.30623193832E+02 -0.88323883492E+01  0.11107162669E+02  0.97991279642E+02  0.91995275634E+02 0.  0.
        -11    1    4    4    0    0  0.49717887084E+02 -0.24429702957E+01  0.39247367018E+02  0.63389212156E+02  0.00000000000E+00 0.  1.
         11    1    4    4    0    0 -0.19094693252E+02 -0.63894180534E+01 -0.28140204350E+02  0.34602067486E+02  0.00000000000E+00 0. -1.
        -13    1    3    3    0    0 -0.47044552329E+02  0.77464970076E+01 -0.48746451810E+02  0.68186616603E+02  0.00000000000E+00 0.  1.
         13    1    3    3    0    0  0.38745053400E+02  0.21554304207E+02 -0.64052066167E+02  0.77900156438E+02  0.00000000000E+00 0. -1.
         21    1    1    2  502  501 -0.22323694903E+02 -0.20468412866E+02  0.41193530362E+00  0.30289816276E+02  0.00000000000E+00 0. -1.
<scales pt_clust_5="13000.00000" pt_clust_6="13000.00000" pt_clust_7="13000.00000" pt_clust_8="13000.00000" pt_clust_9="30.28702"></scales>
<clustering>
<clus scale="   30.287">  1  9  2 -1</clus>
<clus scale="   87.695">  7  8 -1 -1</clus>
<clus scale="   91.995">  5  6 -1 -1</clus>
<clus scale="   92.055">  2  7  1 -1</clus>
<clus scale="   30.287">  1  5  2 -1</clus>
</clustering>
</event>
<event>
 9    1  0.9000149E-006  0.1017111E+03  0.7546771E-02  0.1279608E+00
         -4   -1    0    0    0  501 -0.00000000000E+00  0.00000000000E+00  0.10392706640E+03  0.10392706640E+03  0.00000000000E+00 0.  1.
          4   -1    0    0  502    0  0.00000000000E+00 -0.00000000000E+00 -0.19265189331E+03  0.19265189331E+03  0.00000000000E+00 0. -1.
         23    2    1    2    0    0  0.42704972002E+02  0.45116859649E+02  0.36622759946E+02  0.11446917909E+03  0.88897248313E+02 0.  0.
         23    2    1    2    0    0 -0.22353293410E+02 -0.92504442475E+01 -0.60414028310E+02  0.10518801777E+03  0.82640328051E+02 0.  0.
        -13    1    3    3    0    0  0.12912075033E+02 -0.24913762414E+02 -0.37641634567E+01  0.28312297078E+02  0.00000000000E+00 0. -1.
         13    1    3    3    0    0  0.29792896969E+02  0.70030622064E+02  0.40386923403E+02  0.86156882014E+02  0.00000000000E+00 0.  1.
        -13    1    4    4    0    0 -0.52725956641E+02 -0.10689959869E+02 -0.48814026841E+02  0.72643726241E+02  0.00000000000E+00 0. -1.
         13    1    4    4    0    0  0.30372663231E+02  0.14395156215E+01 -0.11600001469E+02  0.32544291528E+02  0.00000000000E+00 0.  1.
         21    1    1    2  502  501 -0.20351678592E+02 -0.35866415402E+02 -0.64933558539E+02  0.76921762849E+02  0.00000000000E+00 0. -1.
<scales pt_clust_5="13000.00000" pt_clust_6="13000.00000" pt_clust_7="13000.00000" pt_clust_8="13000.00000" pt_clust_9="41.23822"></scales>
<clustering>
<clus scale="   41.238">  2  9  1 -1</clus>
<clus scale="   82.640">  7  8 -1 -1</clus>
<clus scale="   88.897">  5  6 -1 -1</clus>
<clus scale="   96.290">  2  7  1 -1</clus>
<clus scale="   41.238">  2  5  1 -1</clus>
</clustering>
</event>
<event>
 9    1  0.9000149E-006  0.1260893E+03  0.7546771E-02  0.1244778E+00
         -1   -1    0    0    0  501 -0.00000000000E+00  0.00000000000E+00  0.15344554807E+03  0.15344554807E+03  0.00000000000E+00 0.  1.
          1   -1    0    0  502    0  0.00000000000E+00 -0.00000000000E+00 -0.45655331076E+03  0.45655331076E+03  0.00000000000E+00 0. -1.
         23    2    1    2    0    0 -0.73920748086E+01  0.27673947681E+02  0.72819061641E+02  0.12028842610E+03  0.91357536993E+02 0.  0.
         23    2    1    2    0    0  0.48949847648E+02 -0.88680154835E+02 -0.63924626223E+02  0.16909512208E+03  0.11935889170E+03 0.  0.
        -13    1    4    4    0    0  0.19214469217E+02  0.18178159333E+02 -0.50967655323E+02  0.57422497274E+02  0.00000000000E+00 0.  1.
         13    1    4    4    0    0  0.29735378430E+02 -0.10685831417E+03 -0.12956970900E+02  0.11167262481E+03  0.00000000000E+00 0. -1.
        -13    1    3    3    0    0 -0.25830611431E+02 -0.24656286373E+02  0.11321592714E+02  0.37461065203E+02  0.00000000000E+00 0. -1.
         13    1    3    3    0    0  0.18438536622E+02  0.52330234054E+02  0.61497468927E+02  0.82827360898E+02  0.00000000000E+00 0.  1.
         21    1    1    2  502  501 -0.41557772839E+02  0.61006207154E+02 -0.31200219810E+03  0.32061531064E+03  0.00000000000E+00 0. -1.
<scales pt_clust_5="13000.00000" pt_clust_6="13000.00000" pt_clust_7="13000.00000" pt_clust_8="13000.00000" pt_clust_9="73.81603"></scales>
<clustering>
<clus scale="   73.816">  2  9  1 -1</clus>
<clus scale="   91.358">  7  8 -1 -1</clus>
<clus scale="   99.991">  1  7  2 -1</clus>
<clus scale="  119.359">  5  6 -1 -1</clus>
<clus scale="   73.816">  2  5  1 -1</clus>
</clustering>
</event>
<event>
 9    1  0.9000149E-006  0.1242675E+03  0.7546771E-02  0.1237419E+00
          2   -1    0    0  502    0  0.00000000000E+00  0.00000000000E+00  0.10451097803E+03  0.10451097803E+03  0.00000000000E+00 0. -1.
         -2   -1    0    0    0  501 -0.00000000000E+00 -0.00000000000E+00 -0.24094588153E+03  0.24094588153E+03  0.00000000000E+00 0.  1.
         23    2    1    2    0    0 -0.87363435022E+02 -0.52766488441E+01 -0.15449605306E+03  0.20160213388E+03  0.95468199801E+02 0.  0.
         23    2    1    2    0    0  0.61168860516E+02  0.54881734265E+01 -0.29813464491E+01  0.11025432219E+03  0.91517089068E+02 0.  0.
        -11    1    3    3    0    0 -0.18842676374E+02  0.42158757999E+02 -0.55001666822E+02  0.71816367788E+02  0.00000000000E+00 0.  1.
         11    1    3    3    0    0 -0.68520758648E+02 -0.47435406844E+02 -0.99494386236E+02  0.12978576609E+03  0.00000000000E+00 0. -1.
        -11    1    4    4    0    0  0.26612365895E+02  0.45065464660E+02  0.15458559763E+02  0.54571798518E+02  0.00000000000E+00 0.  1.
         11    1    4    4    0    0  0.34556494621E+02 -0.39577291233E+02 -0.18439906212E+02  0.55682523676E+02  0.00000000000E+00 0. -1.
         21    1    1    2  502  501  0.26194574506E+02 -0.21152458245E+00  0.21042496003E+02  0.33600403484E+02  0.00000000000E+00 0. -1.
<scales pt_clust_5="13000.00000" pt_clust_6="13000.00000" pt_clust_7="13000.00000" pt_clust_8="13000.00000" pt_clust_9="26.19543"></scales>
<clustering>
<clus scale="   26.195">  1  9  2 -1</clus>
<clus scale="   91.517">  7  8 -1 -1</clus>
<clus scale="   95.468">  5  6 -1 -1</clus>
<clus scale="  121.258">  1  7  2 -1</clus>
<clus scale="   26.195">  1  5  2 -1</clus>
</clustering>
</event>
<event>
 9    1  0.9000149E-006  0.1755843E+03  0.7546771E-02  0.1172566E+00
          2   -1    0    0  502    0  0.00000000000E+00  0.00000000000E+00  0.10185410821E+04  0.10185410821E+04  0.00000000000E+00 0. -1.
         -2   -1    0    0    0  501 -0.00000000000E+00 -0.00000000000E+00 -0.18994098452E+03  0.18994098452E+03  0.00000000000E+00 0.  1.
         23    2    1    2    0    0  0.14629153526E+03 -0.19168170696E+02 -0.12375673855E+03  0.21184066165E+03  0.88272892399E+02 0.  0.
         23    2    1    2    0    0 -0.18722719548E+03 -0.39822773027E+02  0.58387568864E+03  0.62122961004E+03  0.91517936088E+02 0.  0.
        -13    1    4    4    0    0 -0.15211982519E+03 -0.37688505461E+02  0.55181435963E+03  0.57363747450E+03  0.00000000000E+00 0. -1.
         13    1    4    4    0    0 -0.35107370296E+02 -0.21342675660E+01  0.32061329007E+02  0.47592135536E+02  0.00000000000E+00 0.  1.
        -13    1    3    3    0    0  0.13867212804E+03  0.12609768182E+02 -0.10110130109E+03  0.17207683874E+03  0.00000000000E+00 0.  1.
         13    1    3    3    0    0  0.76194072276E+01 -0.31777938878E+02 -0.22655437455E+02  0.39763822906E+02  0.00000000000E+00 0. -1.
         21    1    1    2  502  501  0.40935660221E+02  0.58990943722E+02  0.36848114745E+03  0.37541179490E+03  0.00000000000E+00 0.  1.
<scales pt_clust_5="13000.00000" pt_clust_6="13000.00000" pt_clust_7="13000.00000" pt_clust_8="13000.00000" pt_clust_9="71.80292"></scales>
<clustering>
<clus scale="   71.803">  1  9  2 -1</clus>
<clus scale="   88.273">  7  8 -1 -1</clus>
<clus scale="   91.518">  5  6 -1 -1</clus>
<clus scale="  173.915">  2  7  1 -1</clus>
<clus scale="   71.803">  1  5  2 -1</clus>
</clustering>
</event>
<event>
 9    1  0.9000149E-006  0.1116654E+03  0.7546771E-02  0.1259772E+00
          1   -1    0    0  502    0  0.00000000000E+00  0.00000000000E+00  0.15351119498E+03  0.15351119498E+03  0.00000000000E+00 0. -1.
         -1   -1    0    0    0  501 -0.00000000000E+00 -0.00000000000E+00 -0.14199264058E+03  0.14199264058E+03  0.00000000000E+00 0.  1.
         23    2    1    2    0    0 -0.26164020099E+02  0.37992089550E+02 -0.32433801384E+02  0.10808426679E+03  0.92207930454E+02 0.  0.
         23    2    1    2    0    0  0.11779552138E+02 -0.66617611271E+02 -0.15470640906E+02  0.11991085861E+03  0.97788594953E+02 0.  0.
        -13    1    4    4    0    0  0.53711206076E+02 -0.49306455370E+02 -0.35071169993E+01  0.72995342790E+02  0.00000000000E+00 0.  1.
         13    1    4    4    0    0 -0.41931653938E+02 -0.17311155900E+02 -0.11963523906E+02  0.46915515822E+02  0.00000000000E+00 0. -1.
        -13    1    3    3    0    0 -0.45365226450E+02  0.18523728877E+02  0.16771126323E+02  0.51791920031E+02  0.00000000000E+00 0. -1.
         13    1    3    3    0    0  0.19201206351E+02  0.19468360673E+02 -0.49204927707E+02  0.56292346756E+02  0.00000000000E+00 0.  1.
         21    1    1    2  502  501  0.14384467961E+02  0.28625521720E+02  0.59422996686E+02  0.67508710159E+02  0.00000000000E+00 0. -1.
<scales pt_clust_5="13000.00000" pt_clust_6="13000.00000" pt_clust_7="13000.00000" pt_clust_8="13000.00000" pt_clust_9="32.03644"></scales>
<clustering>
<clus scale="   32.036">  1  9  2 -1</clus>
<clus scale="   92.208">  7  8 -1 -1</clus>
<clus scale="   97.789">  5  6 -1 -1</clus>
<clus scale="  106.812">  2  7  1 -1</clus>
<clus scale="   32.036">  1  5  2 -1</clus>
</clustering>
</event>
<event>
 9    1  0.9000149E-006  0.1115731E+03  0.7546771E-02  0.1257893E+00
         -2   -1    0    0    0  501 -0.00000000000E+00  0.00000000000E+00  0.15789713422E+02  0.15789713422E+02  0.00000000000E+00 0.  1.
          2   -1    0    0  502    0  0.00000000000E+00 -0.00000000000E+00 -0.10347174247E+04  0.10347174247E+04  0.00000000000E+00 0. -1.
         23    2    1    2    0    0 -0.27281205578E+02 -0.45112363450E+02 -0.35968028505E+03  0.37488086297E+03  0.91577095663E+02 0.  0.
         23    2    1    2    0    0  0.44507040476E+02  0.62308750344E+02 -0.47951584306E+03  0.49425404162E+03  0.92132279303E+02 0.  0.
        -13    1    3    3    0    0 -0.38434053759E+02  0.10572450772E+02 -0.78704910636E+02  0.88223671211E+02  0.00000000000E+00 0.  1.
         13    1    3    3    0    0  0.11152848181E+02 -0.55684814222E+02 -0.28097537442E+03  0.28665719176E+03  0.00000000000E+00 0. -1.
        -13    1    4    4    0    0  0.57129170280E+02  0.18344785559E+01 -0.26015329597E+03  0.26635848928E+03  0.00000000000E+00 0. -1.
         13    1    4    4    0    0 -0.12622129804E+02  0.60474271789E+02 -0.21936254710E+03  0.22789555234E+03  0.00000000000E+00 0.  1.
         21    1    1    2  502  501 -0.17225834898E+02 -0.17196386895E+02 -0.17973158316E+03  0.18137223352E+03  0.00000000000E+00 0.  1.
<scales pt_clust_5="13000.00000" pt_clust_6="13000.00000" pt_clust_7="13000.00000" pt_clust_8="13000.00000" pt_clust_9="24.34020"></scales>
<clustering>
<clus scale="   24.340">  2  9  1 -1</clus>
<clus scale="   91.577">  5  6 -1 -1</clus>
<clus scale="   92.132">  7  8 -1 -1</clus>
<clus scale="  111.115">  1  5  2 -1</clus>
<clus scale="   24.340">  2  5  1 -1</clus>
</clustering>
</event>
<event>
 9    1  0.9000149E-006  0.9421228E+02  0.7546771E-02  0.1293282E+00
         -2   -1    0    0    0  501 -0.00000000000E+00  0.00000000000E+00  0.29982126118E+03  0.29982126118E+03  0.00000000000E+00 0.  1.
          2   -1    0    0  502    0  0.00000000000E+00 -0.00000000000E+00 -0.71021683089E+02  0.71021683089E+02  0.00000000000E+00 0. -1.
         23    2    1    2    0    0  0.33799815199E+01  0.24976559910E+02  0.22784165804E+03  0.24681488291E+03  0.91490504793E+02 0.  0.
         23    2    1    2    0    0  0.13743687848E+02 -0.12706341233E+02  0.20767171708E+02  0.95111201732E+02  0.90909434114E+02 0.  0.
        -11    1    3    3    0    0 -0.39554888876E+02  0.10295973111E+01  0.59609756179E+02  0.71546993901E+02  0.00000000000E+00 0. -1.
         11    1    3    3    0    0  0.42934870396E+02  0.23946962599E+02  0.16823190186E+03  0.17526788901E+03  0.00000000000E+00 0.  1.
        -13    1    4    4    0    0 -0.27526332928E+02 -0.14424764280E+02 -0.20095783097E+02  0.37008287279E+02  0.00000000000E+00 0. -1.
         13    1    4    4    0    0  0.41270020776E+02  0.17184230479E+01  0.40862954805E+02  0.58102914453E+02  0.00000000000E+00 0.  1.
         21    1    1    2  502  501 -0.17123669368E+02 -0.12270218678E+02 -0.19809251662E+02  0.28916859622E+02  0.00000000000E+00 0. -1.
<scales pt_clust_5="13000.00000" pt_clust_6="13000.00000" pt_clust_7="13000.00000" pt_clust_8="13000.00000" pt_clust_9="21.06605"></scales>
<clustering>
<clus scale="   21.066">  2  9  1 -1</clus>
<clus scale="   90.909">  7  8 -1 -1</clus>
<clus scale="   91.491">  5  6 -1 -1</clus>
<clus scale="   93.648">  2  7  1 -1</clus>
<clus scale="   21.066">  2  5  1 -1</clus>
</clustering>
</event>
<event>
 9    1  0.9000149E-006  0.1088564E+03  0.7546771E-02  0.1264248E+00
          2   -1    0    0  502    0  0.00000000000E+00  0.00000000000E+00  0.62956825978E+03  0.62956825978E+03  0.00000000000E+00 0. -1.
         -2   -1    0    0    0  501 -0.00000000000E+00 -0.00000000000E+00 -0.27877210846E+03  0.27877210846E+03  0.00000000000E+00 0.  1.
         23    2    1    2    0    0 -0.28357345702E+02  0.50518066605E+02 -0.25740493785E+03  0.27936654567E+03  0.91826742836E+02 0.  0.
         23    2    1    2    0    0  0.41364772266E+02 -0.75040679395E+02  0.56040804826E+03  0.57370424284E+03  0.87961524316E+02 0.  0.
        -11    1    3    3    0    0 -0.26632895018E+02  0.90467027563E+01 -0.12176168314E+02  0.30649845066E+02  0.00000000000E+00 0. -1.
         11    1    3    3    0    0 -0.17244506845E+01  0.41471363849E+02 -0.24522876954E+03  0.24871670060E+03  0.00000000000E+00 0.  1.
        -13    1    4    4    0    0 -0.26040863642E+02 -0.16038750934E+02  0.96648628402E+02  0.10137221258E+03  0.00000000000E+00 0.  1.
         13    1    4    4    0    0  0.67405635908E+02 -0.59001928460E+02  0.46375941985E+03  0.47233203027E+03  0.00000000000E+00 0. -1.
         21    1    1    2  502  501 -0.13007426564E+02  0.24522612789E+02  0.47793040916E+02  0.55269579733E+02  0.00000000000E+00 0.  1.
<scales pt_clust_5="13000.00000" pt_clust_6="13000.00000" pt_clust_7="13000.00000" pt_clust_8="13000.00000" pt_clust_9="27.75881"></scales>
<clustering>
<clus scale="   27.759">  1  9  2 -1</clus>
<clus scale="   87.962">  7  8 -1 -1</clus>
<clus scale="   91.827">  5  6 -1 -1</clus>
<clus scale="  105.616">  1  7  2 -1</clus>
<clus scale="   27.759">  1  5  2 -1</clus>
</clustering>
</event>
<event>
 9    1  0.9000149E-006  0.1263979E+03  0.7546771E-02  0.1233966E+00
         -1   -1    0    0    0  501 -0.00000000000E+00  0.00000000000E+00  0.21667475711E+03  0.21667475711E+03  0.00000000000E+00 0.  1.
          1   -1    0    0  502    0  0.00000000000E+00 -0.00000000000E+00 -0.16214188256E+03  0.16214188256E+03  0.00000000000E+00 0. -1.
         23    2    1    2    0    0 -0.61814924117E+02 -0.63838431012E+02  0.15398449731E+03  0.19979200080E+03  0.91154747846E+02 0.  0.
         23    2    1    2    0    0  0.27712671222E+02  0.53085535519E+02 -0.83730694338E+02  0.13996396805E+03  0.94831518767E+02 0.  0.
        -13    1    4    4    0    0  0.28849486882E+02  0.79381710746E+02 -0.53962414839E+02  0.10022819518E+03  0.00000000000E+00 0. -1.
         13    1    4    4    0    0 -0.11368156608E+01 -0.26296175226E+02 -0.29768279500E+02  0.39735772872E+02  0.00000000000E+00 0.  1.
        -13    1    3    3    0    0 -0.79906924918E+02 -0.39343660060E+02  0.14080475320E+03  0.16661038011E+03  0.00000000000E+00 0.  1.
         13    1    3    3    0    0  0.18092000801E+02 -0.24494770952E+02  0.13179744114E+02  0.33181620694E+02  0.00000000000E+00 0. -1.
         21    1    1    2  502  501  0.34102252896E+02  0.10752895493E+02 -0.15720928428E+02  0.39060670817E+02  0.00000000000E+00 0. -1.
<scales pt_clust_5="13000.00000" pt_clust_6="13000.00000" pt_clust_7="13000.00000" pt_clust_8="13000.00000" pt_clust_9="35.75735"></scales>
<clustering>
<clus scale="   35.757">  2  9  1 -1</clus>
<clus scale="   91.155">  7  8 -1 -1</clus>
<clus scale="   94.832">  5  6 -1 -1</clus>
<clus scale="  123.663">  1  7  2 -1</clus>
<clus scale="   35.757">  2  5  1 -1</clus>
</clustering>
</event>
<event>
 9    1  0.9000149E-006  0.1149925E+03  0.7546771E-02  0.1251722E+00
         -2   -1    0    0    0  501 -0.00000000000E+00  0.00000000000E+00  0.12984191012E+03  0.12984191012E+03  0.00000000000E+00 0.  1.
          2   -1    0    0  502    0  0.00000000000E+00 -0.00000000000E+00 -0.17032338683E+03  0.17032338683E+03  0.00000000000E+00 0. -1.
         23    2    1    2    0    0  0.13817357423E+02  0.69111547287E+02  0.55485236433E+02  0.12772929819E+03  0.90933144781E+02 0.  0.
         23    2    1    2    0    0 -0.39034620354E+02 -0.62447807435E+02 -0.72929811197E+02  0.13763636328E+03  0.90562580000E+02 0.  0.
        -13    1    4    4    0    0 -0.37120778140E+02 -0.22350965490E+02 -0.85263414512E+02  0.95641872014E+02  0.00000000000E+00 0. -1.
         13    1    4    4    0    0 -0.19138422143E+01 -0.40096841945E+02  0.12333603316E+02  0.41994491266E+02  0.00000000000E+00 0.  1.
        -13    1    3    3    0    0 -0.56536452818E+01  0.33803179526E+02 -0.21757621516E+02  0.40595723236E+02  0.00000000000E+00 0. -1.
         13    1    3    3    0    0  0.19471002705E+02  0.35308367761E+02  0.77242857949E+02  0.87133574955E+02  0.00000000000E+00 0.  1.
         21    1    1    2  502  501  0.25217262931E+02 -0.66637398525E+01 -0.23036901948E+02  0.34799635486E+02  0.00000000000E+00 0. -1.
<scales pt_clust_5="13000.00000" pt_clust_6="13000.00000" pt_clust_7="13000.00000" pt_clust_8="13000.00000" pt_clust_9="26.08286"></scales>
<clustering>
<clus scale="   26.083">  2  9  1 -1</clus>
<clus scale="   90.563">  5  6 -1 -1</clus>
<clus scale="   90.933">  7  8 -1 -1</clus>
<clus scale="  114.700">  2  5  1 -1</clus>
<clus scale="   26.083">  2  5  1 -1</clus>
</clustering>
</event>
<event>
 9    1  0.9000149E-006  0.1240504E+03  0.7546771E-02  0.1240033E+00
          1   -1    0    0  502    0  0.00000000000E+00  0.00000000000E+00  0.84212178064E+03  0.84212178064E+03  0.00000000000E+00 0. -1.
         -1   -1    0    0    0  501 -0.00000000000E+00 -0.00000000000E+00 -0.44775802514E+02  0.44775802514E+02  0.00000000000E+00 0.  1.
         23    2    1    2    0    0 -0.24768765972E+02  0.86657099595E+02  0.65466509576E+02  0.13859521533E+03  0.82461052366E+02 0.  0.
         23    2    1    2    0    0  0.36136194138E+01 -0.44250244383E+02  0.41066335838E+03  0.42360917260E+03  0.93963795269E+02 0.  0.
        -11    1    3    3    0    0 -0.44929806651E+02  0.66570146470E+02  0.16548401723E+02  0.82000741011E+02  0.00000000000E+00 0.  1.
         11    1    3    3    0    0  0.20161040679E+02  0.20086953125E+02  0.48918107853E+02  0.56594474315E+02  0.00000000000E+00 0. -1.
        -11    1    4    4    0    0  0.35567142866E+02  0.13400633618E+02  0.15170143109E+03  0.15639029007E+03  0.00000000000E+00 0.  1.
         11    1    4    4    0    0 -0.31953523452E+02 -0.57650878001E+02  0.25896192728E+03  0.26721888252E+03  0.00000000000E+00 0. -1.
         21    1    1    2  502  501  0.21155146559E+02 -0.42406855212E+02  0.32121611017E+03  0.32469319523E+03  0.00000000000E+00 0. -1.
<scales pt_clust_5="13000.00000" pt_clust_6="13000.00000" pt_clust_7="13000.00000" pt_clust_8="13000.00000" pt_clust_9="47.39073"></scales>
<clustering>
<clus scale="   47.391">  1  9  2 -1</clus>
<clus scale="   82.461">  5  6 -1 -1</clus>
<clus scale="   93.964">  7  8 -1 -1</clus>
<clus scale="  115.582">  2  5  1 -1</clus>
<clus scale="   47.391">  1  5  2 -1</clus>
</clustering>
</event>
<event>
 9    1  0.9000149E-006  0.1586854E+03  0.7546771E-02  0.1191361E+00
         -2   -1    0    0    0  501 -0.00000000000E+00  0.00000000000E+00  0.51769812572E+02  0.51769812572E+02  0.00000000000E+00 0.  1.
          2   -1    0    0  502    0  0.00000000000E+00 -0.00000000000E+00 -0.91289327202E+03  0.91289327202E+03  0.00000000000E+00 0. -1.
         23    2    1    2    0    0  0.26704771777E+02 -0.12969177236E+03 -0.11553165290E+03  0.19722529307E+03  0.89538554542E+02 0.  0.
         23    2    1    2    0    0  0.20283049856E+01  0.10271434687E+03 -0.62034937666E+03  0.63614027658E+03  0.96367791764E+02 0.  0.
        -11    1    3    3    0    0  0.56841270277E+02 -0.56427661410E+02 -0.66107963471E+02  0.10385217289E+03  0.00000000000E+00 0.  1.
         11    1    3    3    0    0 -0.30136498500E+02 -0.73264110954E+02 -0.49423689428E+02  0.93373120181E+02  0.00000000000E+00 0. -1.
        -13    1    4    4    0    0 -0.24363524240E+02 -0.23534522376E+01 -0.50918157834E+02  0.56495830360E+02  0.00000000000E+00 0.  1.
         13    1    4    4    0    0  0.26391829225E+02  0.10506779911E+03 -0.56943121883E+03  0.57964444622E+03  0.00000000000E+00 0. -1.
         21    1    1    2  502  501 -0.28733076762E+02  0.26977425495E+02 -0.12524242988E+03  0.13129751494E+03  0.00000000000E+00 0. -1.
<scales pt_clust_5="13000.00000" pt_clust_6="13000.00000" pt_clust_7="13000.00000" pt_clust_8="13000.00000" pt_clust_9="39.41283"></scales>
<clustering>
<clus scale="   39.413">  2  9  1 -1</clus>
<clus scale="   89.539">  5  6 -1 -1</clus>
<clus scale="   96.368">  7  8 -1 -1</clus>
<clus scale="  154.633">  1  5  2 -1</clus>
<clus scale="   39.413">  2  5  1 -1</clus>
</clustering>
</event>
<event>
 9    1  0.9000149E-006  0.1127663E+03  0.7546771E-02  0.1256155E+00
         -1   -1    0    0    0  501 -0.00000000000E+00  0.00000000000E+00  0.71876074194E+02  0.71876074194E+02  0.00000000000E+00 0.  1.
          1   -1    0    0  502    0  0.00000000000E+00 -0.00000000000E+00 -0.10765488323E+04  0.10765488323E+04  0.00000000000E+00 0. -1.
         23    2    1    2    0    0 -0.56833603620E+02  0.96249084708E+01 -0.12414991479E+02  0.10890579871E+03  0.91562239027E+02 0.  0.
         23    2    1    2    0    0  0.12282371957E+03 -0.94328283526E+02 -0.79117837155E+03  0.81156674374E+03  0.93240939394E+02 0.  0.
        -11    1    4    4    0    0  0.13342424859E+03 -0.65445525057E+02 -0.68959625963E+03  0.70542763495E+03  0.00000000000E+00 0. -1.
         11    1    4    4    0    0 -0.10600529019E+02 -0.28882758469E+02 -0.10158211192E+03  0.10613910879E+03  0.00000000000E+00 0.  1.
        -13    1    3    3    0    0  0.24806097445E+02  0.15765128233E+01  0.41895937668E+01  0.25206756219E+02  0.00000000000E+00 0. -1.
         13    1    3    3    0    0 -0.81639701066E+02  0.80483956476E+01 -0.16604585246E+02  0.83699042490E+02  0.00000000000E+00 0.  1.
         21    1    1    2  502  501 -0.65990115953E+02  0.84703375056E+02 -0.20107939511E+03  0.22795236408E+03  0.00000000000E+00 0.  1.
<scales pt_clust_5="13000.00000" pt_clust_6="13000.00000" pt_clust_7="13000.00000" pt_clust_8="13000.00000" pt_clust_9="107.37484"></scales>
<clustering>
<clus scale="   91.562">  7  8 -1 -1</clus>
<clus scale="   93.241">  5  6 -1 -1</clus>
<clus scale="  107.375">  2  9  1 -1</clus>
<clus scale="  111.382">  1  7  2 -1</clus>
<clus scale="  107.375">  2  5  1 -1</clus>
</clustering>
</event>
<event>
 9    1  0.9000149E-006  0.1219652E+03  0.7546771E-02  0.1240027E+00
         -1   -1    0    0    0  501 -0.00000000000E+00  0.00000000000E+00  0.30959104876E+03  0.30959104876E+03  0.00000000000E+00 0.  1.
          1   -1    0    0  502    0  0.00000000000E+00 -0.00000000000E+00 -0.22023066090E+03  0.22023066090E+03  0.00000000000E+00 0. -1.
         23    2    1    2    0    0  0.46460188961E+02 -0.64364577479E+02  0.25298746069E+03  0.28024678290E+03  0.90742801735E+02 0.  0.
         23    2    1    2    0    0 -0.84002562562E+02  0.65663154302E+02 -0.15847552424E+03  0.21165851118E+03  0.91196234700E+02 0.  0.
        -11    1    4    4    0    0 -0.96867845198E+02  0.28558415911E+02 -0.11637837589E+03  0.15408727698E+03  0.00000000000E+00 0. -1.
         11    1    4    4    0    0  0.12865282636E+02  0.37104738391E+02 -0.42097148352E+02  0.57571234204E+02  0.00000000000E+00 0.  1.
        -13    1    3    3    0    0 -0.20031397394E+02 -0.25525654553E+02  0.13865435951E+03  0.14240030664E+03  0.00000000000E+00 0. -1.
         13    1    3    3    0    0  0.66491586355E+02 -0.38838922927E+02  0.11433310119E+03  0.13784647626E+03  0.00000000000E+00 0.  1.
         21    1    1    2  502  501  0.37542373602E+02 -0.12985768224E+01 -0.51515485924E+01  0.37916415578E+02  0.00000000000E+00 0.  1.
<scales pt_clust_5="13000.00000" pt_clust_6="13000.00000" pt_clust_7="13000.00000" pt_clust_8="13000.00000" pt_clust_9="37.56483"></scales>
<clustering>
<clus scale="   37.565">  2  9  1 -1</clus>
<clus scale="   90.743">  7  8 -1 -1</clus>
<clus scale="   91.196">  5  6 -1 -1</clus>
<clus scale="  121.626">  1  7  2 -1</clus>
<clus scale="   37.565">  2  5  1 -1</clus>
</clustering>
</event>
<event>
 9    1  0.9000149E-006  0.9434716E+02  0.7546771E-02  0.1292820E+00
          3   -1    0    0  502    0  0.00000000000E+00  0.00000000000E+00  0.91109000655E+02  0.91109000655E+02  0.00000000000E+00 0. -1.
         -3   -1    0    0    0  501 -0.00000000000E+00 -0.00000000000E+00 -0.25430802536E+03  0.25430802536E+03  0.00000000000E+00 0.  1.
         23    2    1    2    0    0  0.64702436915E+01  0.84040520014E+01 -0.14552160322E+03  0.17226875441E+03  0.91583265932E+02 0.  0.
         23    2    1    2    0    0 -0.41297410347E+02 -0.32248518992E+02 -0.53245076235E+02  0.11795272642E+03  0.91281785963E+02 0.  0.
        -11    1    4    4    0    0  0.26623738733E+02  0.22297140550E+01 -0.34243584546E+01  0.26935502960E+02  0.00000000000E+00 0. -1.
         11    1    4    4    0    0 -0.67921149081E+02 -0.34478233047E+02 -0.49820717780E+02  0.91017223461E+02  0.00000000000E+00 0.  1.
        -11    1    3    3    0    0  0.32392131889E+02 -0.26824648783E+02 -0.10305407003E+03  0.11130567524E+03  0.00000000000E+00 0. -1.
         11    1    3    3    0    0 -0.25921888197E+02  0.35228700784E+02 -0.42467533188E+02  0.60963079169E+02  0.00000000000E+00 0.  1.
         21    1    1    2  502  501  0.34827166656E+02  0.23844466990E+02  0.35567654752E+02  0.55195545182E+02  0.00000000000E+00 0. -1.
<scales pt_clust_5="13000.00000" pt_clust_6="13000.00000" pt_clust_7="13000.00000" pt_clust_8="13000.00000" pt_clust_9="42.20770"></scales>
<clustering>
<clus scale="   42.208">  1  9  2 -1</clus>
<clus scale="   91.282">  5  6 -1 -1</clus>
<clus scale="   91.583">  7  8 -1 -1</clus>
<clus scale="   94.055">  1  5  2 -1</clus>
<clus scale="   42.208">  1  5  2 -1</clus>
</clustering>
</event>
<event>
 9    1  0.9000149E-006  0.1307316E+03  0.7546771E-02  0.1227293E+00
         -2   -1    0    0    0  501 -0.00000000000E+00  0.00000000000E+00  0.32079755434E+03  0.32079755434E+03  0.00000000000E+00 0.  1.
          2   -1    0    0  502    0  0.00000000000E+00 -0.00000000000E+00 -0.10387158669E+03  0.10387158669E+03  0.00000000000E+00 0. -1.
         23    2    1    2    0    0 -0.36797724283E+02  0.42223331852E+02  0.17862823350E+03  0.20998108120E+03  0.95116383399E+02 0.  0.
         23    2    1    2    0    0  0.26902153117E+02 -0.98396875975E+02 -0.13262072198E+02  0.13779980964E+03  0.91690969752E+02 0.  0.
        -11    1    3    3    0    0 -0.54259798423E+02  0.61182136852E+02  0.11311111215E+03  0.13957615586E+03  0.00000000000E+00 0.  1.
         11    1    3    3    0    0  0.17462074140E+02 -0.18958805000E+02  0.65517121355E+02  0.70404925332E+02  0.00000000000E+00 0. -1.
        -13    1    4    4    0    0 -0.25358431825E+02 -0.23875636613E+02 -0.29132306016E+02  0.45406908528E+02  0.00000000000E+00 0.  1.
         13    1    4    4    0    0  0.52260584942E+02 -0.74521239362E+02  0.15870233818E+02  0.92392901112E+02  0.00000000000E+00 0. -1.
         21    1    1    2  502  501  0.98955711660E+01  0.56173544123E+02  0.51559806348E+02  0.76888250199E+02  0.00000000000E+00 0. -1.
<scales pt_clust_5="13000.00000" pt_clust_6="13000.00000" pt_clust_7="13000.00000" pt_clust_8="13000.00000" pt_clust_9="57.03849"></scales>
<clustering>
<clus scale="   57.038">  1  9  2 -1</clus>
<clus scale="   91.691">  7  8 -1 -1</clus>
<clus scale="   95.116">  5  6 -1 -1</clus>
<clus scale="  128.261">  2  7  1 -1</clus>
<clus scale="  128.261">  2  5  1 -1</clus>
</clustering>
</event>
<event>
 9    1  0.9000149E-006  0.9547465E+02  0.7546771E-02  0.1290299E+00
         -4   -1    0    0    0  501 -0.00000000000E+00  0.00000000000E+00  0.47662887531E+02  0.47662887531E+02  0.00000000000E+00 0.  1.
          4   -1    0    0  502    0  0.00000000000E+00 -0.00000000000E+00 -0.33761637941E+03  0.33761637941E+03  0.00000000000E+00 0. -1.
         23    2    1    2    0    0  0.12030303896E+00  0.20117995985E+02 -0.80229949851E+02  0.12350789935E+03  0.91720271008E+02 0.  0.
         23    2    1    2    0    0  0.44623851795E+02 -0.95783478925E+01 -0.10265146220E+03  0.14524860649E+03  0.92069550342E+02 0.  0.
        -11    1    4    4    0    0 -0.82771112530E+01  0.30703565864E+02 -0.14809826250E+02  0.35079202970E+02  0.00000000000E+00 0.  1.
         11    1    4    4    0    0  0.52900963048E+02 -0.40281913757E+02 -0.87841635946E+02  0.11016940352E+03  0.00000000000E+00 0. -1.
        -13    1    3    3    0    0  0.25767048816E+01  0.46456024501E+02 -0.88200008799E+01  0.47356034842E+02  0.00000000000E+00 0.  1.
         13    1    3    3    0    0 -0.24564018426E+01 -0.26338028516E+02 -0.71409948972E+02  0.76151864509E+02  0.00000000000E+00 0. -1.
         21    1    1    2  502  501 -0.44744154834E+02 -0.10539648092E+02 -0.10707207983E+03  0.11652276109E+03  0.00000000000E+00 0. -1.
<scales pt_clust_5="13000.00000" pt_clust_6="13000.00000" pt_clust_7="13000.00000" pt_clust_8="13000.00000" pt_clust_9="45.96872"></scales>
<clustering>
<clus scale="   45.969">  2  9  1 -1</clus>
<clus scale="   91.720">  7  8 -1 -1</clus>
<clus scale="   92.070">  5  6 -1 -1</clus>
<clus scale="   95.138">  1  7  2 -1</clus>
<clus scale="   45.969">  2  5  1 -1</clus>
</clustering>
</event>
<event>
 9    1  0.9000149E-006  0.1427424E+03  0.7546771E-02  0.1209969E+00
         -1   -1    0    0    0  501 -0.00000000000E+00  0.00000000000E+00  0.52402885151E+02  0.52402885151E+02  0.00000000000E+00 0.  1.
          1   -1    0    0  502    0  0.00000000000E+00 -0.00000000000E+00 -0.93416314160E+03  0.93416314160E+03  0.00000000000E+00 0. -1.
         23    2    1    2    0    0  0.34258067456E+02 -0.12287711931E+03 -0.10805674133E+03  0.19141218885E+03  0.93219982072E+02 0.  0.
         23    2    1    2    0    0 -0.26867043564E+02  0.49114098626E+02 -0.40355318890E+03  0.41765301081E+03  0.91895747748E+02 0.  0.
        -13    1    4    4    0    0 -0.37456800333E+02 -0.14167465832E+02 -0.10725200923E+03  0.11448459488E+03  0.00000000000E+00 0.  1.
         13    1    4    4    0    0  0.10589756769E+02  0.63281564458E+02 -0.29630117966E+03  0.30316841593E+03  0.00000000000E+00 0. -1.
        -13    1    3    3    0    0 -0.19994089704E+02 -0.70851277964E+02 -0.21332504375E+02  0.76646871789E+02  0.00000000000E+00 0.  1.
         13    1    3    3    0    0  0.54252157160E+02 -0.52025841346E+02 -0.86724236957E+02  0.11476531706E+03  0.00000000000E+00 0. -1.
         21    1    1    2  502  501 -0.73910238928E+01  0.73763020683E+02 -0.37015032622E+03  0.37750082709E+03  0.00000000000E+00 0. -1.
<scales pt_clust_5="13000.00000" pt_clust_6="13000.00000" pt_clust_7="13000.00000" pt_clust_8="13000.00000" pt_clust_9="74.13238"></scales>
<clustering>
<clus scale="   74.132">  2  9  1 -1</clus>
<clus scale="   91.896">  5  6 -1 -1</clus>
<clus scale="   93.220">  7  8 -1 -1</clus>
<clus scale="  141.881">  2  5  1 -1</clus>
<clus scale="   74.132">  2  5  1 -1</clus>
</clustering>
</event>
<event>
 9    1  0.9000149E-006  0.1544887E+03  0.7546771E-02  0.1201296E+00
          2   -1    0    0  502    0  0.00000000000E+00  0.00000000000E+00  0.18026931642E+03  0.18026931642E+03  0.00000000000E+00 0. -1.
         -2   -1    0    0    0  501 -0.00000000000E+00 -0.00000000000E+00 -0.21830012152E+03  0.21830012152E+03  0.00000000000E+00 0.  1.
         23    2    1    2    0    0  0.85875829638E+02 -0.24267414592E+02 -0.88172667732E+02  0.17309519938E+03  0.11926425779E+03 0.  0.
         23    2    1    2    0    0 -0.11607489683E+03 -0.74666515787E+01 -0.12418320248E+02  0.14910139588E+03  0.92454740375E+02 0.  0.
        -11    1    3    3    0    0  0.61502329303E+02  0.50196719901E+01  0.14665206722E+02  0.63425561920E+02  0.00000000000E+00 0. -1.
         11    1    3    3    0    0  0.24373500335E+02 -0.29287086582E+02 -0.10283787445E+03  0.10966963746E+03  0.00000000000E+00 0.  1.
        -13    1    4    4    0    0 -0.10005991568E+03 -0.40502162498E+02 -0.24044376170E+02  0.11059178956E+03  0.00000000000E+00 0.  1.
         13    1    4    4    0    0 -0.16014981145E+02  0.33035510920E+02  0.11626055922E+02  0.38509606322E+02  0.00000000000E+00 0. -1.
         21    1    1    2  502  501  0.30199067189E+02  0.31734066171E+02  0.62560182881E+02  0.76372842666E+02  0.00000000000E+00 0. -1.
<scales pt_clust_5="13000.00000" pt_clust_6="13000.00000" pt_clust_7="13000.00000" pt_clust_8="13000.00000" pt_clust_9="43.80679"></scales>
<clustering>
<clus scale="   43.807">  1  9  2 -1</clus>
<clus scale="   92.455">  7  8 -1 -1</clus>
<clus scale="  119.264">  5  6 -1 -1</clus>
<clus scale="  134.873">  1  7  2 -1</clus>
<clus scale="   43.807">  1  5  2 -1</clus>
</clustering>
</event>
<event>
 9    1  0.9000149E-006  0.9775765E+02  0.7546771E-02  0.1285567E+00
          1   -1    0    0  502    0  0.00000000000E+00  0.00000000000E+00  0.20448799424E+03  0.20448799424E+03  0.00000000000E+00 0. -1.
         -1   -1    0    0    0  501 -0.00000000000E+00 -0.00000000000E+00 -0.27660432439E+03  0.27660432439E+03  0.00000000000E+00 0.  1.
         23    2    1    2    0    0 -0.15427033406E+01  0.34702143080E+02 -0.23358761395E+03  0.25281511054E+03  0.90253465620E+02 0.  0.
         23    2    1    2    0    0 -0.31081258056E+01 -0.76957706673E+02  0.10741863766E+03  0.15951056341E+03  0.89290016571E+02 0.  0.
        -11    1    3    3    0    0 -0.26827575229E+02  0.50793048782E+02 -0.94939447743E+02  0.11096464002E+03  0.00000000000E+00 0. -1.
         11    1    3    3    0    0  0.25284871889E+02 -0.16090905702E+02 -0.13864816621E+03  0.14185047051E+03  0.00000000000E+00 0.  1.
        -13    1    4    4    0    0  0.37878010369E+02 -0.32684010478E+02  0.21333738712E+02  0.54388570654E+02  0.00000000000E+00 0.  1.
         13    1    4    4    0    0 -0.40986136174E+02 -0.44273696196E+02  0.86084898949E+02  0.10512199275E+03  0.00000000000E+00 0. -1.
         21    1    1    2  502  501  0.46508291462E+01  0.42255563593E+02  0.54052646141E+02  0.68766644685E+02  0.00000000000E+00 0.  1.
<scales pt_clust_5="13000.00000" pt_clust_6="13000.00000" pt_clust_7="13000.00000" pt_clust_8="13000.00000" pt_clust_9="42.51074"></scales>
<clustering>
<clus scale="   42.511">  1  9  2 -1</clus>
<clus scale="   89.290">  7  8 -1 -1</clus>
<clus scale="   90.253">  5  6 -1 -1</clus>
<clus scale="   96.869">  1  7  2 -1</clus>
<clus scale="   42.511">  1  5  2 -1</clus>
</clustering>
</event>
<event>
 9    1  0.9000149E-006  0.9336517E+02  0.7546771E-02  0.1295975E+00
          2   -1    0    0  502    0  0.00000000000E+00  0.00000000000E+00  0.19911963273E+03  0.19911963273E+03  0.00000000000E+00 0. -1.
         -2   -1    0    0    0  501 -0.00000000000E+00 -0.00000000000E+00 -0.61056756188E+02  0.61056756188E+02  0.00000000000E+00 0.  1.
         23    2    1    2    0    0  0.49229164390E+01 -0.17551284583E+02  0.34278850726E+02  0.97688315894E+02  0.89641981004E+02 0.  0.
         23    2    1    2    0    0 -0.29268497916E+02  0.22519989141E+01  0.83228343422E+02  0.12714247134E+03  0.91523409036E+02 0.  0.
        -11    1    4    4    0    0 -0.18249818112E+02 -0.36794946139E+02  0.75343951815E+02  0.85811625072E+02  0.00000000000E+00 0. -1.
         11    1    4    4    0    0 -0.11018679804E+02  0.39046945053E+02  0.78843916073E+01  0.41330846272E+02  0.00000000000E+00 0.  1.
        -11    1    3    3    0    0  0.43311455525E+02  0.29526028124E+01  0.19178119505E+01  0.43454321370E+02  0.00000000000E+00 0.  1.
         11    1    3    3    0    0 -0.38388539086E+02 -0.20503887396E+02  0.32361038776E+02  0.54233994525E+02  0.00000000000E+00 0. -1.
         21    1    1    2  502  501  0.24345581477E+02  0.15299285669E+02  0.20555682397E+02  0.35345601682E+02  0.00000000000E+00 0. -1.
<scales pt_clust_5="13000.00000" pt_clust_6="13000.00000" pt_clust_7="13000.00000" pt_clust_8="13000.00000" pt_clust_9="28.75370"></scales>
<clustering>
<clus scale="   28.754">  1  9  2 -1</clus>
<clus scale="   89.642">  7  8 -1 -1</clus>
<clus scale="   91.522">  2  7  1 -1</clus>
<clus scale="   91.523">  5  6 -1 -1</clus>
<clus scale="   28.754">  1  5  2 -1</clus>
</clustering>
</event>
<event>
 9    1  0.9102647E-006  0.1022445E+03  0.7546771E-02  0.1275773E+00
         -1   -1    0    0    0  501 -0.00000000000E+00  0.00000000000E+00  0.69671767850E+02  0.69671767850E+02  0.00000000000E+00 0.  1.
          1   -1    0    0  502    0  0.00000000000E+00 -0.00000000000E+00 -0.65110267301E+03  0.65110267301E+03  0.00000000000E+00 0. -1.
         23    2    1    2    0    0 -0.48348779784E+02 -0.18051863654E+02  0.15366039302E+02  0.10570807630E+03  0.90964872034E+02 0.  0.
         23    2    1    2    0    0 -0.63101654083E+01  0.18404001289E+02 -0.41455585365E+03  0.42480459890E+03  0.90685533569E+02 0.  0.
        -13    1    3    3    0    0 -0.65053563347E+02 -0.30906375062E+02 -0.10015970202E+02  0.72715127605E+02  0.00000000000E+00 0.  1.
         13    1    3    3    0    0  0.16704783562E+02  0.12854511408E+02  0.25382009504E+02  0.32992948699E+02  0.00000000000E+00 0. -1.
        -13    1    4    4    0    0 -0.15554913136E+02 -0.34444278378E+02 -0.13736149034E+03  0.14246593510E+03  0.00000000000E+00 0.  1.
         13    1    4    4    0    0  0.92447477278E+01  0.52848279667E+02 -0.27719436331E+03  0.28233866379E+03  0.00000000000E+00 0. -1.
         21    1    1    2  502  501  0.54658945193E+02 -0.35213763494E+00 -0.18224109081E+03  0.19026176566E+03  0.00000000000E+00 0. -1.
<scales pt_clust_5="13000.00000" pt_clust_6="13000.00000" pt_clust_7="13000.00000" pt_clust_8="13000.00000" pt_clust_9="54.66008"></scales>
<clustering>
<clus scale="   54.660">  2  9  1 -1</clus>
<clus scale="   90.686">  7  8 -1 -1</clus>
<clus scale="   90.965">  5  6 -1 -1</clus>
<clus scale="  101.996">  2  7  1 -1</clus>
<clus scale="   54.660">  2  5  1 -1</clus>
</clustering>
</event>
<event>
 9    1  0.9000149E-006  0.1099503E+03  0.7546771E-02  0.1260988E+00
          1   -1    0    0  502    0  0.00000000000E+00  0.00000000000E+00  0.56509912568E+03  0.56509912568E+03  0.00000000000E+00 0. -1.
         -1   -1    0    0    0  501 -0.00000000000E+00 -0.00000000000E+00 -0.37508441584E+02  0.37508441584E+02  0.00000000000E+00 0.  1.
         23    2    1    2    0    0 -0.82278679992E+02 -0.35965599145E+02  0.16634303589E+03  0.21006093193E+03  0.91609410182E+02 0.  0.
         23    2    1    2    0    0  0.47422000668E+02  0.48886836119E+01  0.28190360697E+03  0.30048013951E+03  0.92444173650E+02 0.  0.
        -11    1    3    3    0    0 -0.27261154839E+02 -0.40887357713E+02  0.18970472153E+02  0.52676611486E+02  0.00000000000E+00 0. -1.
         11    1    3    3    0    0 -0.55017525153E+02  0.49217585687E+01  0.14737256373E+03  0.15738432045E+03  0.00000000000E+00 0.  1.
        -13    1    4    4    0    0  0.51906048453E+02 -0.35754025414E+02  0.17720023748E+03  0.18807581547E+03  0.00000000000E+00 0.  1.
         13    1    4    4    0    0 -0.44840477853E+01  0.40642709026E+02  0.10470336949E+03  0.11240432404E+03  0.00000000000E+00 0. -1.
         21    1    1    2  502  501  0.34856679325E+02  0.31076915533E+02  0.79344041245E+02  0.92066495826E+02  0.00000000000E+00 0.  1.
<scales pt_clust_5="13000.00000" pt_clust_6="13000.00000" pt_clust_7="13000.00000" pt_clust_8="13000.00000" pt_clust_9="46.69864"></scales>
<clustering>
<clus scale="   46.699">  2  9  1 -1</clus>
<clus scale="   91.609">  5  6 -1 -1</clus>
<clus scale="   92.444">  7  8 -1 -1</clus>
<clus scale="  109.249">  2  5  1 -1</clus>
<clus scale="  109.950">  1  5  2 -1</clus>
</clustering>
</event>
<event>
 9    1  0.9000149E-006  0.3326583E+03  0.7546771E-02  0.1070078E+00
          2   -1    0    0  502    0  0.00000000000E+00  0.00000000000E+00  0.88861251417E+03  0.88861251417E+03  0.00000000000E+00 0. -1.
         -2   -1    0    0    0  501 -0.00000000000E+00 -0.00000000000E+00 -0.73938683713E+03  0.73938683713E+03  0.00000000000E+00 0.  1.
         23    2    1    2    0    0  0.35174215705E+03  0.72093629861E+02 -0.37877561809E+03  0.52974971548E+03  0.90795130277E+02 0.  0.
         23    2    1    2    0    0 -0.28360675506E+03  0.66573901280E+01 -0.20322360970E+03  0.35964688901E+03  0.86999637204E+02 0.  0.
        -13    1    3    3    0    0  0.73014630655E+02  0.48141449636E+02 -0.12132403720E+03  0.14956021351E+03  0.00000000000E+00 0.  1.
         13    1    3    3    0    0  0.27872752639E+03  0.23952180225E+02 -0.25745158089E+03  0.38018950197E+03  0.00000000000E+00 0. -1.
        -13    1    4    4    0    0 -0.25092841845E+03  0.64552231004E+01 -0.20879083885E+03  0.32649709873E+03  0.00000000000E+00 0.  1.
         13    1    4    4    0    0 -0.32678336608E+02  0.20216702762E+00  0.55672291483E+01  0.33149790277E+02  0.00000000000E+00 0. -1.
         21    1    1    2  502  501 -0.68135401991E+02 -0.78751019989E+02  0.73122490483E+03  0.73860274681E+03  0.00000000000E+00 0. -1.
<scales pt_clust_5="13000.00000" pt_clust_6="13000.00000" pt_clust_7="13000.00000" pt_clust_8="13000.00000" pt_clust_9="104.13528"></scales>
<clustering>
<clus scale="   87.000">  7  8 -1 -1</clus>
<clus scale="   90.795">  5  6 -1 -1</clus>
<clus scale="  104.135">  1  9  2 -1</clus>
<clus scale="  331.642">  1  7  2 -1</clus>
<clus scale="  104.135">  1  5  2 -1</clus>
</clustering>
</event>
<event>
 9    1  0.9000149E-006  0.1007765E+03  0.7546771E-02  0.1281661E+00
          2   -1    0    0  502    0  0.00000000000E+00  0.00000000000E+00  0.11920061400E+03  0.11920061400E+03  0.00000000000E+00 0. -1.
         -2   -1    0    0    0  501 -0.00000000000E+00 -0.00000000000E+00 -0.11316738567E+03  0.11316738567E+03  0.00000000000E+00 0.  1.
         23    2    1    2    0    0  0.40272804158E+02 -0.13040053258E+02 -0.31146425907E+02  0.10305162881E+03  0.88643085522E+02 0.  0.
         23    2    1    2    0    0 -0.18540999551E+02  0.14846412569E+02  0.15861670015E+02  0.98820621695E+02  0.94603055267E+02 0.  0.
        -11    1    4    4    0    0  0.99157826793E+01  0.47529030462E+02  0.24881602760E+02  0.54556627817E+02  0.00000000000E+00 0. -1.
         11    1    4    4    0    0 -0.28456782231E+02 -0.32682617893E+02 -0.90199327451E+01  0.44263993878E+02  0.00000000000E+00 0.  1.
        -11    1    3    3    0    0 -0.27593759200E+02 -0.12664041217E+02 -0.92307160967E+01  0.31733257103E+02  0.00000000000E+00 0.  1.
         11    1    3    3    0    0  0.67866563358E+02 -0.37601204047E+00 -0.21915709810E+02  0.71318371712E+02  0.00000000000E+00 0. -1.
         21    1    1    2  502  501 -0.21731804607E+02 -0.18063593114E+01  0.21317984226E+02  0.30495749161E+02  0.00000000000E+00 0.  1.
<scales pt_clust_5="13000.00000" pt_clust_6="13000.00000" pt_clust_7="13000.00000" pt_clust_8="13000.00000" pt_clust_9="21.80675"></scales>
<clustering>
<clus scale="   21.807">  1  9  2 -1</clus>
<clus scale="   88.643">  7  8 -1 -1</clus>
<clus scale="   94.603">  5  6 -1 -1</clus>
<clus scale="   95.204">  2  7  1 -1</clus>
<clus scale="   21.807">  1  5  2 -1</clus>
</clustering>
</event>
<event>
 9    1  0.9000149E-006  0.1026178E+03  0.7546771E-02  0.1276951E+00
         -1   -1    0    0    0  501 -0.00000000000E+00  0.00000000000E+00  0.78900215195E+02  0.78900215195E+02  0.00000000000E+00 0.  1.
          1   -1    0    0  502    0  0.00000000000E+00 -0.00000000000E+00 -0.33935687604E+03  0.33935687604E+03  0.00000000000E+00 0. -1.
         23    2    1    2    0    0  0.32734198216E+02  0.23508224199E+01  0.29242282841E+02  0.10298191238E+03  0.93129528472E+02 0.  0.
         23    2    1    2    0    0 -0.30931460806E+02  0.17811128309E+02 -0.23143603961E+03  0.25359600805E+03  0.97336032947E+02 0.  0.
        -11    1    3    3    0    0  0.20759518313E+02 -0.21065599984E+02 -0.27534891144E+02  0.40409000650E+02  0.00000000000E+00 0. -1.
         11    1    3    3    0    0  0.11974679904E+02  0.23416422404E+02  0.56777173985E+02  0.62572911733E+02  0.00000000000E+00 0.  1.
        -13    1    4    4    0    0  0.31666174297E+02 -0.63924475286E+01 -0.44593120933E+02  0.55065019881E+02  0.00000000000E+00 0.  1.
         13    1    4    4    0    0 -0.62597635103E+02  0.24203575838E+02 -0.18684291868E+03  0.19853098817E+03  0.00000000000E+00 0. -1.
         21    1    1    2  502  501 -0.18027374101E+01 -0.20161950729E+02 -0.58262904079E+02  0.61679170804E+02  0.00000000000E+00 0. -1.
<scales pt_clust_5="13000.00000" pt_clust_6="13000.00000" pt_clust_7="13000.00000" pt_clust_8="13000.00000" pt_clust_9="20.24238"></scales>
<clustering>
<clus scale="   20.242">  2  9  1 -1</clus>
<clus scale="   93.130">  5  6 -1 -1</clus>
<clus scale="   97.336">  7  8 -1 -1</clus>
<clus scale="   98.637">  1  5  2 -1</clus>
<clus scale="   20.242">  2  5  1 -1</clus>
</clustering>
</event>
<event>
 9    1  0.9000149E-006  0.1132936E+03  0.7546771E-02  0.1254850E+00
         -2   -1    0    0    0  501 -0.00000000000E+00  0.00000000000E+00  0.16658704149E+03  0.16658704149E+03  0.00000000000E+00 0.  1.
          2   -1    0    0  502    0  0.00000000000E+00 -0.00000000000E+00 -0.93033481529E+02  0.93033481529E+02  0.00000000000E+00 0. -1.
         23    2    1    2    0    0  0.35405870653E+02 -0.44547526095E+02  0.39459534480E+02  0.11572527891E+03  0.92721235751E+02 0.  0.
         23    2    1    2    0    0 -0.38113777394E+02  0.64608750913E+02  0.34581632609E+02  0.12364621300E+03  0.92008401535E+02 0.  0.
        -11    1    3    3    0    0 -0.40090881285E+01  0.26805302877E+02  0.70673374661E+01  0.28009718114E+02  0.00000000000E+00 0.  1.
         11    1    3    3    0    0  0.39414958782E+02 -0.71352828972E+02  0.32392197014E+02  0.87715560795E+02  0.00000000000E+00 0. -1.
        -13    1    4    4    0    0 -0.28295571716E+02  0.49959190993E+01  0.53168470625E+02  0.60435791175E+02  0.00000000000E+00 0.  1.
         13    1    4    4    0    0 -0.98182056784E+01  0.59612831814E+02 -0.18586838016E+02  0.63210421823E+02  0.00000000000E+00 0. -1.
         21    1    1    2  502  501  0.27079067408E+01 -0.20061224818E+02 -0.48760713186E+00  0.20249031109E+02  0.00000000000E+00 0. -1.
<scales pt_clust_5="13000.00000" pt_clust_6="13000.00000" pt_clust_7="13000.00000" pt_clust_8="13000.00000" pt_clust_9="20.24316"></scales>
<clustering>
<clus scale="   20.243">  2  9  1 -1</clus>
<clus scale="   92.008">  7  8 -1 -1</clus>
<clus scale="   92.721">  5  6 -1 -1</clus>
<clus scale="  112.711">  2  7  1 -1</clus>
<clus scale="   20.243">  2  5  1 -1</clus>
</clustering>
</event>
<event>
 9    1  0.9000149E-006  0.9599867E+02  0.7546771E-02  0.1289016E+00
          2   -1    0    0  502    0  0.00000000000E+00  0.00000000000E+00  0.48594824139E+03  0.48594824139E+03  0.00000000000E+00 0. -1.
         -2   -1    0    0    0  501 -0.00000000000E+00 -0.00000000000E+00 -0.83774107847E+02  0.83774107847E+02  0.00000000000E+00 0.  1.
         23    2    1    2    0    0  0.16088832128E+02 -0.33992975202E+02 -0.33389050155E+02  0.10407992307E+03  0.91123152017E+02 0.  0.
         23    2    1    2    0    0 -0.68561625267E+01 -0.95185586822E+01  0.14525423560E+03  0.17194567591E+03  0.91262876237E+02 0.  0.
        -11    1    4    4    0    0 -0.33348098200E+02 -0.27297806105E+02  0.12926244917E+03  0.13625728105E+03  0.00000000000E+00 0.  1.
         11    1    4    4    0    0  0.26491935674E+02  0.17779247422E+02  0.15991786430E+02  0.35688394862E+02  0.00000000000E+00 0. -1.
        -11    1    3    3    0    0 -0.27428874892E+02  0.86101934712E+01 -0.32202826303E+02  0.43168282701E+02  0.00000000000E+00 0.  1.
         11    1    3    3    0    0  0.43517707020E+02 -0.42603168674E+02 -0.11862238514E+01  0.60911640368E+02  0.00000000000E+00 0. -1.
         21    1    1    2  502  501 -0.92326696018E+01  0.43511533885E+02  0.29030894809E+03  0.29369675026E+03  0.00000000000E+00 0. -1.
<scales pt_clust_5="13000.00000" pt_clust_6="13000.00000" pt_clust_7="13000.00000" pt_clust_8="13000.00000" pt_clust_9="44.48029"></scales>
<clustering>
<clus scale="   44.480">  1  9  2 -1</clus>
<clus scale="   91.123">  7  8 -1 -1</clus>
<clus scale="   91.263">  5  6 -1 -1</clus>
<clus scale="   95.866">  2  7  1 -1</clus>
<clus scale="   44.480">  1  5  2 -1</clus>
</clustering>
</event>
<event>
 9    1  0.9000149E-006  0.1653942E+03  0.7546771E-02  0.1184246E+00
          2   -1    0    0  502    0  0.00000000000E+00  0.00000000000E+00  0.53279342659E+03  0.53279342659E+03  0.00000000000E+00 0. -1.
         -2   -1    0    0    0  501 -0.00000000000E+00 -0.00000000000E+00 -0.12098018428E+03  0.12098018428E+03  0.00000000000E+00 0.  1.
         23    2    1    2    0    0 -0.90477840328E+02 -0.90475318168E+02 -0.20947173438E+02  0.16579748578E+03  0.10333440582E+03 0.  0.
         23    2    1    2    0    0  0.12789399766E+03  0.62276286579E+02  0.38468025687E+03  0.42084300444E+03  0.94311843644E+02 0.  0.
        -13    1    4    4    0    0  0.26707809851E+02 -0.24329633238E+02  0.10562104813E+03  0.11162904626E+03  0.00000000000E+00 0.  1.
         13    1    4    4    0    0  0.10118618781E+03  0.86605919817E+02  0.27905920874E+03  0.30921395818E+03  0.00000000000E+00 0. -1.
        -13    1    3    3    0    0 -0.41336410646E+02 -0.59940279123E+02 -0.61365303352E+02  0.95222037165E+02  0.00000000000E+00 0.  1.
         13    1    3    3    0    0 -0.49141429683E+02 -0.30535039046E+02  0.40418129915E+02  0.70575448610E+02  0.00000000000E+00 0. -1.
         21    1    1    2  502  501 -0.37416157330E+02  0.28199031589E+02  0.48080158871E+02  0.67133120656E+02  0.00000000000E+00 0.  1.
<scales pt_clust_5="13000.00000" pt_clust_6="13000.00000" pt_clust_7="13000.00000" pt_clust_8="13000.00000" pt_clust_9="46.85247"></scales>
<clustering>
<clus scale="   46.852">  1  9  2 -1</clus>
<clus scale="   94.312">  5  6 -1 -1</clus>
<clus scale="  103.334">  7  8 -1 -1</clus>
<clus scale="  159.912">  1  5  2 -1</clus>
<clus scale="   46.852">  1  5  2 -1</clus>
</clustering>
</event>
<event>
 9    1  0.9000149E-006  0.1189078E+03  0.7546771E-02  0.1245237E+00
         -2   -1    0    0    0  501 -0.00000000000E+00  0.00000000000E+00  0.37250554518E+02  0.37250554518E+02  0.00000000000E+00 0.  1.
          2   -1    0    0  502    0  0.00000000000E+00 -0.00000000000E+00 -0.47126868296E+03  0.47126868296E+03  0.00000000000E+00 0. -1.
         23    2    1    2    0    0 -0.60673121019E+02 -0.10798034508E+02 -0.13398676462E+03  0.17407915209E+03  0.92483906362E+02 0.  0.
         23    2    1    2    0    0  0.81726144358E+02  0.37211517686E+01 -0.26880515697E+03  0.29612053352E+03  0.93478063283E+02 0.  0.
        -11    1    4    4    0    0  0.52411147267E+02 -0.42868546689E+02 -0.17051320689E+03  0.18346496771E+03  0.00000000000E+00 0. -1.
         11    1    4    4    0    0  0.29314997091E+02  0.46589698458E+02 -0.98291950082E+02  0.11265556581E+03  0.00000000000E+00 0.  1.
        -11    1    3    3    0    0 -0.59822920150E+02  0.31908271277E+02 -0.90976091965E+02  0.11346175065E+03  0.00000000000E+00 0.  1.
         11    1    3    3    0    0 -0.85020086937E+00 -0.42706305785E+02 -0.43010672655E+02  0.60617401442E+02  0.00000000000E+00 0. -1.
         21    1    1    2  502  501 -0.21053023339E+02  0.70768827390E+01 -0.31226206846E+02  0.38319551863E+02  0.00000000000E+00 0. -1.
<scales pt_clust_5="13000.00000" pt_clust_6="13000.00000" pt_clust_7="13000.00000" pt_clust_8="13000.00000" pt_clust_9="22.21063"></scales>
<clustering>
<clus scale="   22.211">  1  9  2 -1</clus>
<clus scale="   92.484">  7  8 -1 -1</clus>
<clus scale="   93.478">  5  6 -1 -1</clus>
<clus scale="  118.128">  1  7  2 -1</clus>
<clus scale="  118.908">  2  5  1 -1</clus>
</clustering>
</event>
<event>
 9    1  0.9000149E-006  0.1081696E+03  0.7546771E-02  0.1266582E+00
         -1   -1    0    0    0  501 -0.00000000000E+00  0.00000000000E+00  0.26116787080E+03  0.26116787080E+03  0.00000000000E+00 0.  1.
          1   -1    0    0  502    0  0.00000000000E+00 -0.00000000000E+00 -0.11046145878E+03  0.11046145878E+03  0.00000000000E+00 0. -1.
         23    2    1    2    0    0 -0.30656963748E+02 -0.50140526572E+02  0.12388712733E+03  0.16816416603E+03  0.97351140661E+02 0.  0.
         23    2    1    2    0    0  0.55992105231E+02 -0.30135574310E+02 -0.95604483806E+01  0.11176125553E+03  0.91410652427E+02 0.  0.
        -11    1    3    3    0    0 -0.62228239993E+02 -0.30853404513E+02  0.10683169417E+03  0.12742565401E+03  0.00000000000E+00 0.  1.
         11    1    3    3    0    0  0.31571276245E+02 -0.19287122059E+02  0.17055433166E+02  0.40738512019E+02  0.00000000000E+00 0. -1.
        -13    1    4    4    0    0  0.32064540905E+02  0.30319022345E+02  0.69675630716E+01  0.44675774582E+02  0.00000000000E+00 0. -1.
         13    1    4    4    0    0  0.23927564326E+02 -0.60454596655E+02 -0.16528011452E+02  0.67085480947E+02  0.00000000000E+00 0.  1.
         21    1    1    2  502  501 -0.25335141483E+02  0.80276100882E+02  0.36379733076E+02  0.91703908016E+02  0.00000000000E+00 0.  1.
<scales pt_clust_5="13000.00000" pt_clust_6="13000.00000" pt_clust_7="13000.00000" pt_clust_8="13000.00000" pt_clust_9="84.17911"></scales>
<clustering>
<clus scale="   84.179">  2  9  1 -1</clus>
<clus scale="   91.411">  7  8 -1 -1</clus>
<clus scale="   97.351">  5  6 -1 -1</clus>
<clus scale="  102.856">  2  7  1 -1</clus>
<clus scale="   84.179">  2  5  1 -1</clus>
</clustering>
</event>
<event>
 9    1  0.9000149E-006  0.1179987E+03  0.7546771E-02  0.1246648E+00
          2   -1    0    0  502    0  0.00000000000E+00  0.00000000000E+00  0.30257347172E+03  0.30257347172E+03  0.00000000000E+00 0. -1.
         -2   -1    0    0    0  501 -0.00000000000E+00 -0.00000000000E+00 -0.18782090142E+03  0.18782090142E+03  0.00000000000E+00 0.  1.
         23    2    1    2    0    0 -0.59642341359E+02  0.47887433856E+02 -0.14845567877E+03  0.19007625297E+03  0.90771571418E+02 0.  0.
         23    2    1    2    0    0  0.63266997352E+02 -0.20226390032E+02  0.23667971420E+03  0.26182091717E+03  0.90117066897E+02 0.  0.
        -11    1    3    3    0    0 -0.80009335176E+02  0.27912903110E+02 -0.13280867389E+03  0.15753973383E+03  0.00000000000E+00 0.  1.
         11    1    3    3    0    0  0.20366993817E+02  0.19974530746E+02 -0.15647004885E+02  0.32536519137E+02  0.00000000000E+00 0. -1.
        -13    1    4    4    0    0  0.20727642734E+02  0.24179688068E+02  0.16190638834E+03  0.16500900300E+03  0.00000000000E+00 0.  1.
         13    1    4    4    0    0  0.42539354618E+02 -0.44406078100E+02  0.74773325859E+02  0.96811914161E+02  0.00000000000E+00 0. -1.
         21    1    1    2  502  501 -0.36246559933E+01 -0.27661043824E+02  0.26528534875E+02  0.38497203004E+02  0.00000000000E+00 0. -1.
<scales pt_clust_5="13000.00000" pt_clust_6="13000.00000" pt_clust_7="13000.00000" pt_clust_8="13000.00000" pt_clust_9="27.89752"></scales>
<clustering>
<clus scale="   27.898">  1  9  2 -1</clus>
<clus scale="   90.117">  7  8 -1 -1</clus>
<clus scale="   90.772">  5  6 -1 -1</clus>
<clus scale="  117.496">  1  7  2 -1</clus>
<clus scale="   27.898">  1  5  2 -1</clus>
</clustering>
</event>
<event>
 9    1  0.9000149E-006  0.2527828E+03  0.7546771E-02  0.1111600E+00
         -2   -1    0    0    0  501 -0.00000000000E+00  0.00000000000E+00  0.28842786760E+03  0.28842786760E+03  0.00000000000E+00 0.  1.
          2   -1    0    0  502    0  0.00000000000E+00 -0.00000000000E+00 -0.35681401841E+03  0.35681401841E+03  0.00000000000E+00 0. -1.
         23    2    1    2    0    0  0.21562299960E+03  0.10224515141E+03  0.75597591769E+02  0.26890557235E+03  0.98223530858E+02 0.  0.
         23    2    1    2    0    0 -0.21701368563E+03 -0.63069055613E+02 -0.21373490466E+02  0.24761190102E+03  0.98904913438E+02 0.  0.
        -11    1    3    3    0    0  0.58301921078E+02  0.51280141127E+02 -0.16844646748E+02  0.79451299546E+02  0.00000000000E+00 0. -1.
         11    1    3    3    0    0  0.15732107852E+03  0.50965010283E+02  0.92442238517E+02  0.18945427280E+03  0.00000000000E+00 0.  1.
        -13    1    4    4    0    0 -0.12939602187E+03 -0.83389801537E+02  0.45538847194E+01  0.15400625747E+03  0.00000000000E+00 0.  1.
         13    1    4    4    0    0 -0.87617663765E+02  0.20320745925E+02 -0.25927375186E+02  0.93605643541E+02  0.00000000000E+00 0. -1.
         21    1    1    2  502  501  0.13906860289E+01 -0.39176095797E+02 -0.12261025211E+03  0.12872441265E+03  0.00000000000E+00 0.  1.
<scales pt_clust_5="13000.00000" pt_clust_6="13000.00000" pt_clust_7="13000.00000" pt_clust_8="13000.00000" pt_clust_9="39.20077"></scales>
<clustering>
<clus scale="   39.201">  2  9  1 -1</clus>
<clus scale="   98.224">  5  6 -1 -1</clus>
<clus scale="   98.905">  7  8 -1 -1</clus>
<clus scale="  252.517">  1  5  2 -1</clus>
<clus scale="   39.201">  2  5  1 -1</clus>
</clustering>
</event>
<event>
 9    1  0.9000149E-006  0.1919510E+03  0.7546771E-02  0.1157753E+00
          1   -1    0    0  502    0  0.00000000000E+00  0.00000000000E+00  0.58785215464E+03  0.58785215464E+03  0.00000000000E+00 0. -1.
         -1   -1    0    0    0  501 -0.00000000000E+00 -0.00000000000E+00 -0.23286111112E+03  0.23286111112E+03  0.00000000000E+00 0.  1.
         23    2    1    2    0    0  0.46046135416E+02 -0.17048754091E+03 -0.16033352007E+03  0.25750897079E+03  0.97045268749E+02 0.  0.
         23    2    1    2    0    0 -0.14235957425E+02  0.10915208925E+03  0.22973875036E+03  0.26937920795E+03  0.87569533429E+02 0.  0.
        -11    1    4    4    0    0 -0.22053198707E+02  0.56027522907E+02  0.19811412911E+03  0.20706191115E+03  0.00000000000E+00 0. -1.
         11    1    4    4    0    0  0.78172412815E+01  0.53124566344E+02  0.31624621247E+02  0.62317296792E+02  0.00000000000E+00 0.  1.
        -13    1    3    3    0    0 -0.18207483752E+02 -0.94762755547E+02 -0.10947453468E+03  0.14593205969E+03  0.00000000000E+00 0. -1.
         13    1    3    3    0    0  0.64253619168E+02 -0.75724785360E+02 -0.50858985389E+02  0.11157691109E+03  0.00000000000E+00 0.  1.
         21    1    1    2  502  501 -0.31810177990E+02  0.61335451657E+02  0.28558581323E+03  0.29382508703E+03  0.00000000000E+00 0. -1.
<scales pt_clust_5="13000.00000" pt_clust_6="13000.00000" pt_clust_7="13000.00000" pt_clust_8="13000.00000" pt_clust_9="69.09360"></scales>
<clustering>
<clus scale="   69.094">  1  9  2 -1</clus>
<clus scale="   87.570">  5  6 -1 -1</clus>
<clus scale="   97.045">  7  8 -1 -1</clus>
<clus scale="  187.339">  1  5  2 -1</clus>
<clus scale="   69.094">  1  5  2 -1</clus>
</clustering>
</event>
<event>
 9    1  0.9000149E-006  0.9229860E+02  0.7546771E-02  0.1301954E+00
          1   -1    0    0  502    0  0.00000000000E+00  0.00000000000E+00  0.31537425500E+03  0.31537425500E+03  0.00000000000E+00 0. -1.
         -1   -1    0    0    0  501 -0.00000000000E+00 -0.00000000000E+00 -0.40332093589E+02  0.40332093589E+02  0.00000000000E+00 0.  1.
         23    2    1    2    0    0 -0.81015930993E+01  0.19517541795E+02  0.65213570724E+02  0.11455548724E+03  0.91780061026E+02 0.  0.
         23    2    1    2    0    0 -0.44953433597E+01  0.57378153347E+01  0.11869317632E+03  0.14574551756E+03  0.84264791856E+02 0.  0.
        -11    1    3    3    0    0 -0.23698370192E+02 -0.19353303619E+02  0.65910963119E+02  0.72666485879E+02  0.00000000000E+00 0. -1.
         11    1    3    3    0    0  0.15596777093E+02  0.38870845414E+02 -0.69739239528E+00  0.41889001361E+02  0.00000000000E+00 0.  1.
        -11    1    4    4    0    0 -0.34753192225E+02  0.29732320809E+02  0.69636813223E+02  0.83313150381E+02  0.00000000000E+00 0.  1.
         11    1    4    4    0    0  0.30257848866E+02 -0.23994505475E+02  0.49056363097E+02  0.62432367177E+02  0.00000000000E+00 0. -1.
         21    1    1    2  502  501  0.12596936459E+02 -0.25255357129E+02  0.91135414371E+02  0.95405343794E+02  0.00000000000E+00 0. -1.
<scales pt_clust_5="13000.00000" pt_clust_6="13000.00000" pt_clust_7="13000.00000" pt_clust_8="13000.00000" pt_clust_9="28.22261"></scales>
<clustering>
<clus scale="   28.223">  1  9  2 -1</clus>
<clus scale="   84.265">  7  8 -1 -1</clus>
<clus scale="   84.829">  1  7  2 -1</clus>
<clus scale="   91.780">  5  6 -1 -1</clus>
<clus scale="   28.223">  1  5  2 -1</clus>
</clustering>
</event>
<event>
 9    1  0.9000149E-006  0.9556693E+02  0.7546771E-02  0.1292035E+00
          2   -1    0    0  502    0  0.00000000000E+00  0.00000000000E+00  0.13897372641E+03  0.13897372641E+03  0.00000000000E+00 0. -1.
         -2   -1    0    0    0  501 -0.00000000000E+00 -0.00000000000E+00 -0.12413889509E+03  0.12413889509E+03  0.00000000000E+00 0.  1.
         23    2    1    2    0    0 -0.19827302604E+01 -0.77068946230E+01 -0.33540530115E+02  0.97763161896E+02  0.91484103643E+02 0.  0.
         23    2    1    2    0    0 -0.72285150130E+01 -0.31654776323E+02 -0.21562067884E+01  0.10063757841E+03  0.95231279881E+02 0.  0.
        -13    1    3    3    0    0  0.19020304870E+02 -0.39363527129E+02  0.45644034865E+01  0.43955580357E+02  0.00000000000E+00 0. -1.
         13    1    3    3    0    0 -0.21003035130E+02  0.31656632505E+02 -0.38104933602E+02  0.53807581539E+02  0.00000000000E+00 0.  1.
        -13    1    4    4    0    0 -0.38584213614E+02 -0.30767430306E+02 -0.30788907553E+02  0.58166426194E+02  0.00000000000E+00 0.  1.
         13    1    4    4    0    0  0.31355698601E+02 -0.88734601686E+00  0.28632700765E+02  0.42471152219E+02  0.00000000000E+00 0. -1.
         21    1    1    2  502  501  0.92112452734E+01  0.39361670946E+02  0.50531568223E+02  0.64711881183E+02  0.00000000000E+00 0.  1.
<scales pt_clust_5="13000.00000" pt_clust_6="13000.00000" pt_clust_7="13000.00000" pt_clust_8="13000.00000" pt_clust_9="40.42509"></scales>
<clustering>
<clus scale="   40.425">  1  9  2 -1</clus>
<clus scale="   91.484">  5  6 -1 -1</clus>
<clus scale="   91.833">  2  5  1 -1</clus>
<clus scale="   95.231">  7  8 -1 -1</clus>
<clus scale="   40.425">  1  5  2 -1</clus>
</clustering>
</event>
<event>
 9    1  0.9000149E-006  0.1198416E+03  0.7546771E-02  0.1243573E+00
         -2   -1    0    0    0  501 -0.00000000000E+00  0.00000000000E+00  0.10917916725E+03  0.10917916725E+03  0.00000000000E+00 0.  1.
          2   -1    0    0  502    0  0.00000000000E+00 -0.00000000000E+00 -0.35331090297E+03  0.35331090297E+03  0.00000000000E+00 0. -1.
         23    2    1    2    0    0  0.82832590581E+02 -0.12703571925E+02  0.41575242720E+02  0.13035938820E+03  0.90787942382E+02 0.  0.
         23    2    1    2    0    0 -0.35482347405E+02  0.28260726758E+02 -0.25217861706E+03  0.27206220766E+03  0.91466519987E+02 0.  0.
        -13    1    4    4    0    0 -0.26112242359E+02 -0.25906132852E+02 -0.16460715443E+03  0.16866680826E+03  0.00000000000E+00 0. -1.
         13    1    4    4    0    0 -0.93701050459E+01  0.54166859610E+02 -0.87571462635E+02  0.10339539940E+03  0.00000000000E+00 0.  1.
        -13    1    3    3    0    0  0.61032225317E+02  0.34231751547E+02  0.34845248904E+02  0.78172480531E+02  0.00000000000E+00 0.  1.
         13    1    3    3    0    0  0.21800365263E+02 -0.46935323472E+02  0.67299938157E+01  0.52186907666E+02  0.00000000000E+00 0. -1.
         21    1    1    2  502  501 -0.47350243176E+02 -0.15557154833E+02 -0.33528361382E+02  0.60068474362E+02  0.00000000000E+00 0. -1.
<scales pt_clust_5="13000.00000" pt_clust_6="13000.00000" pt_clust_7="13000.00000" pt_clust_8="13000.00000" pt_clust_9="49.84045"></scales>
<clustering>
<clus scale="   49.840">  2  9  1 -1</clus>
<clus scale="   90.788">  7  8 -1 -1</clus>
<clus scale="   91.467">  5  6 -1 -1</clus>
<clus scale="  119.324">  1  7  2 -1</clus>
<clus scale="   49.840">  2  5  1 -1</clus>
</clustering>
</event>
<event>
 9    1  0.9000149E-006  0.1201788E+03  0.7546771E-02  0.1246586E+00
          2   -1    0    0  502    0  0.00000000000E+00  0.00000000000E+00  0.81412185897E+03  0.81412185897E+03  0.00000000000E+00 0. -1.
         -2   -1    0    0    0  501 -0.00000000000E+00 -0.00000000000E+00 -0.22217061141E+02  0.22217061141E+02  0.00000000000E+00 0.  1.
         23    2    1    2    0    0 -0.64571840764E+02  0.10832769963E+02  0.25299883027E+03  0.27336514157E+03  0.80207362381E+02 0.  0.
         23    2    1    2    0    0  0.88165590604E+02  0.12435989345E+02  0.45728649696E+03  0.47488383490E+03  0.92064603111E+02 0.  0.
        -13    1    4    4    0    0  0.47589334372E+02 -0.36403294065E+02  0.28596136765E+03  0.29217092318E+03  0.00000000000E+00 0.  1.
         13    1    4    4    0    0  0.40576256232E+02  0.48839283410E+02  0.17132512931E+03  0.18271291171E+03  0.00000000000E+00 0. -1.
        -13    1    3    3    0    0 -0.50253907668E+02 -0.24065099858E+02  0.88363602345E+02  0.10446391954E+03  0.00000000000E+00 0.  1.
         13    1    3    3    0    0 -0.14317933095E+02  0.34897869821E+02  0.16463522793E+03  0.16890122202E+03  0.00000000000E+00 0. -1.
         21    1    1    2  502  501 -0.23593749841E+02 -0.23268759308E+02  0.81619470592E+02  0.88089943643E+02  0.00000000000E+00 0.  1.
<scales pt_clust_5="13000.00000" pt_clust_6="13000.00000" pt_clust_7="13000.00000" pt_clust_8="13000.00000" pt_clust_9="33.13759"></scales>
<clustering>
<clus scale="   33.138">  2  9  1 -1</clus>
<clus scale="   80.207">  7  8 -1 -1</clus>
<clus scale="   92.065">  5  6 -1 -1</clus>
<clus scale="  111.357">  2  7  1 -1</clus>
<clus scale="  120.179">  1  5  2 -1</clus>
</clustering>
</event>
<event>
 9    1  0.9000149E-006  0.9851819E+02  0.7546771E-02  0.1284208E+00
         -2   -1    0    0    0  501 -0.00000000000E+00  0.00000000000E+00  0.38815186532E+02  0.38815186532E+02  0.00000000000E+00 0.  1.
          2   -1    0    0  502    0  0.00000000000E+00 -0.00000000000E+00 -0.52320695912E+03  0.52320695912E+03  0.00000000000E+00 0. -1.
         23    2    1    2    0    0 -0.41159559252E+02  0.17734517005E+02 -0.62329662628E+02  0.11914859292E+03  0.91119580446E+02 0.  0.
         23    2    1    2    0    0  0.21033703271E+02  0.43072422037E+00 -0.21257701655E+03  0.23164138087E+03  0.89588722337E+02 0.  0.
        -11    1    3    3    0    0 -0.70021101343E+02  0.10208250648E+02 -0.51076994330E+02  0.87269825051E+02  0.00000000000E+00 0.  1.
         11    1    3    3    0    0  0.28861542091E+02  0.75262663567E+01 -0.11252668298E+02  0.31878767871E+02  0.00000000000E+00 0. -1.
        -11    1    4    4    0    0 -0.18603393123E+02 -0.26524892243E+02 -0.34934660950E+02  0.47645426642E+02  0.00000000000E+00 0. -1.
         11    1    4    4    0    0  0.39637096394E+02  0.26955616464E+02 -0.17764235560E+03  0.18399595423E+03  0.00000000000E+00 0.  1.
         21    1    1    2  502  501  0.20125855981E+02 -0.18165241225E+02 -0.20948509341E+03  0.21123217186E+03  0.00000000000E+00 0. -1.
<scales pt_clust_5="13000.00000" pt_clust_6="13000.00000" pt_clust_7="13000.00000" pt_clust_8="13000.00000" pt_clust_9="27.11136"></scales>
<clustering>
<clus scale="   27.111">  2  9  1 -1</clus>
<clus scale="   89.589">  7  8 -1 -1</clus>
<clus scale="   91.120">  5  6 -1 -1</clus>
<clus scale="   97.104">  2  7  1 -1</clus>
<clus scale="   27.111">  2  5  1 -1</clus>
</clustering>
</event>
<event>
 9    1  0.9000149E-006  0.9219894E+02  0.7546771E-02  0.1297657E+00
          2   -1    0    0  502    0  0.00000000000E+00  0.00000000000E+00  0.26022855859E+03  0.26022855859E+03  0.00000000000E+00 0. -1.
         -2   -1    0    0    0  501 -0.00000000000E+00 -0.00000000000E+00 -0.94622347384E+02  0.94622347384E+02  0.00000000000E+00 0.  1.
         23    2    1    2    0    0  0.16995123321E+02  0.11399817242E+02 -0.45364332187E+02  0.10290663522E+03  0.90072542363E+02 0.  0.
         23    2    1    2    0    0 -0.28483837640E+02  0.24140538937E+02  0.12723066125E+03  0.16025198462E+03  0.89994237525E+02 0.  0.
        -11    1    3    3    0    0 -0.10904228419E+01  0.44306787015E+02 -0.39536765460E+00  0.44321966486E+02  0.00000000000E+00 0. -1.
         11    1    3    3    0    0  0.18085546163E+02 -0.32906969773E+02 -0.44968964532E+02  0.58584668735E+02  0.00000000000E+00 0.  1.
        -13    1    4    4    0    0  0.11449802737E+01 -0.31181351470E+02  0.23686559508E+02  0.39174491198E+02  0.00000000000E+00 0.  1.
         13    1    4    4    0    0 -0.29628817914E+02  0.55321890407E+02  0.10354410174E+03  0.12107749343E+03  0.00000000000E+00 0. -1.
         21    1    1    2  502  501  0.11488714319E+02 -0.35540356179E+02  0.83739882145E+02  0.91692286129E+02  0.00000000000E+00 0.  1.
<scales pt_clust_5="13000.00000" pt_clust_6="13000.00000" pt_clust_7="13000.00000" pt_clust_8="13000.00000" pt_clust_9="37.35114"></scales>
<clustering>
<clus scale="   37.351">  1  9  2 -1</clus>
<clus scale="   89.994">  7  8 -1 -1</clus>
<clus scale="   90.073">  5  6 -1 -1</clus>
<clus scale="   92.122">  1  7  2 -1</clus>
<clus scale="   37.351">  1  5  2 -1</clus>
</clustering>
</event>
<event>
 9    1  0.9000149E-006  0.1082447E+03  0.7546771E-02  0.1264009E+00
          1   -1    0    0  502    0  0.00000000000E+00  0.00000000000E+00  0.14509757989E+03  0.14509757989E+03  0.00000000000E+00 0. -1.
         -1   -1    0    0    0  501 -0.00000000000E+00 -0.00000000000E+00 -0.11480095449E+03  0.11480095449E+03  0.00000000000E+00 0.  1.
         23    2    1    2    0    0  0.39646408136E+02  0.17753168593E+02 -0.14125143298E+02  0.10417793497E+03  0.93629641606E+02 0.  0.
         23    2    1    2    0    0 -0.64083276109E+02 -0.31111637058E+02  0.20752075665E+02  0.11917113205E+03  0.93255079391E+02 0.  0.
        -13    1    3    3    0    0  0.58620941048E+02 -0.17750363549E+02 -0.17721925386E+02  0.63761718725E+02  0.00000000000E+00 0.  1.
         13    1    3    3    0    0 -0.18974532912E+02  0.35503532141E+02  0.35967820874E+01  0.40416216240E+02  0.00000000000E+00 0. -1.
        -13    1    4    4    0    0  0.20550705836E+02 -0.22895276671E+02  0.14207631401E+02  0.33887785325E+02  0.00000000000E+00 0.  1.
         13    1    4    4    0    0 -0.84633981944E+02 -0.82163603872E+01  0.65444442637E+01  0.85283346724E+02  0.00000000000E+00 0. -1.
         21    1    1    2  502  501  0.24436867972E+02  0.13358468465E+02  0.23669693031E+02  0.36549467359E+02  0.00000000000E+00 0.  1.
<scales pt_clust_5="13000.00000" pt_clust_6="13000.00000" pt_clust_7="13000.00000" pt_clust_8="13000.00000" pt_clust_9="27.84976"></scales>
<clustering>
<clus scale="   27.850">  1  9  2 -1</clus>
<clus scale="   93.255">  7  8 -1 -1</clus>
<clus scale="   93.630">  5  6 -1 -1</clus>
<clus scale="  107.921">  1  7  2 -1</clus>
<clus scale="   27.850">  1  5  2 -1</clus>
</clustering>
</event>
<event>
 9    1  0.9000149E-006  0.9074871E+02  0.7546771E-02  0.1302934E+00
          2   -1    0    0  502    0  0.00000000000E+00  0.00000000000E+00  0.34474118608E+03  0.34474118608E+03  0.00000000000E+00 0. -1.
         -2   -1    0    0    0  501 -0.00000000000E+00 -0.00000000000E+00 -0.34438930207E+02  0.34438930207E+02  0.00000000000E+00 0.  1.
         23    2    1    2    0    0 -0.17973245861E+02 -0.43719452747E+01  0.90934446555E+02  0.12761715811E+03  0.87606586524E+02 0.  0.
         23    2    1    2    0    0 -0.65762678845E+01 -0.56990097341E+01  0.19624952915E+03  0.21636981058E+03  0.90698904213E+02 0.  0.
        -11    1    3    3    0    0 -0.36957587558E+02 -0.35938031642E+02  0.62911363063E+02  0.81334156410E+02  0.00000000000E+00 0.  1.
         11    1    3    3    0    0  0.18984341697E+02  0.31566086368E+02  0.28023083492E+02  0.46283001703E+02  0.00000000000E+00 0. -1.
        -13    1    4    4    0    0  0.36963423883E+02  0.88455512144E+01  0.48290597350E+02  0.61453399205E+02  0.00000000000E+00 0. -1.
         13    1    4    4    0    0 -0.43539691767E+02 -0.14544560948E+02  0.14795893180E+03  0.15491641137E+03  0.00000000000E+00 0.  1.
         21    1    1    2  502  501  0.24549513745E+02  0.10070955009E+02  0.23118280164E+02  0.35193147595E+02  0.00000000000E+00 0.  1.
<scales pt_clust_5="13000.00000" pt_clust_6="13000.00000" pt_clust_7="13000.00000" pt_clust_8="13000.00000" pt_clust_9="26.53493"></scales>
<clustering>
<clus scale="   26.535">  2  9  1 -1</clus>
<clus scale="   87.607">  5  6 -1 -1</clus>
<clus scale="   87.658">  2  5  1 -1</clus>
<clus scale="   90.699">  7  8 -1 -1</clus>
<clus scale="   90.749">  1  5  2 -1</clus>
</clustering>
</event>
<event>
 9    1  0.9000149E-006  0.1479465E+03  0.7546771E-02  0.1208102E+00
         -1   -1    0    0    0  501 -0.00000000000E+00  0.00000000000E+00  0.19760104059E+03  0.19760104059E+03  0.00000000000E+00 0.  1.
          1   -1    0    0  502    0  0.00000000000E+00 -0.00000000000E+00 -0.22826749967E+03  0.22826749967E+03  0.00000000000E+00 0. -1.
         23    2    1    2    0    0 -0.10274411694E+03 -0.57679858496E+02  0.10123423719E+03  0.17503624520E+03  0.80659758934E+02 0.  0.
         23    2    1    2    0    0  0.35393932243E+02  0.77504035485E+02 -0.51108359362E+02  0.14379750130E+03  0.10395215739E+03 0.  0.
        -13    1    4    4    0    0 -0.22382331095E+02  0.70986283040E+02 -0.16857581453E+02  0.76316441070E+02  0.00000000000E+00 0.  1.
         13    1    4    4    0    0  0.57776263338E+02  0.65177524448E+01 -0.34250777909E+02  0.67481060229E+02  0.00000000000E+00 0. -1.
        -13    1    3    3    0    0 -0.68126641371E+02 -0.25272819051E+02  0.10475164634E+03  0.12748671326E+03  0.00000000000E+00 0.  1.
         13    1    3    3    0    0 -0.34617475567E+02 -0.32407039446E+02 -0.35174091466E+01  0.47549531936E+02  0.00000000000E+00 0. -1.
         21    1    1    2  502  501  0.67350184695E+02 -0.19824176989E+02 -0.80792336915E+02  0.10703479376E+03  0.00000000000E+00 0. -1.
<scales pt_clust_5="13000.00000" pt_clust_6="13000.00000" pt_clust_7="13000.00000" pt_clust_8="13000.00000" pt_clust_9="70.20716"></scales>
<clustering>
<clus scale="   70.207">  2  9  1 -1</clus>
<clus scale="   80.660">  7  8 -1 -1</clus>
<clus scale="  103.952">  5  6 -1 -1</clus>
<clus scale="  132.620">  1  7  2 -1</clus>
<clus scale="   70.207">  2  5  1 -1</clus>
</clustering>
</event>
<event>
 9    1  0.9000149E-006  0.1190611E+03  0.7546771E-02  0.1245377E+00
         -1   -1    0    0    0  501 -0.00000000000E+00  0.00000000000E+00  0.66141797152E+02  0.66141797152E+02  0.00000000000E+00 0.  1.
          1   -1    0    0  502    0  0.00000000000E+00 -0.00000000000E+00 -0.35398077219E+03  0.35398077219E+03  0.00000000000E+00 0. -1.
         23    2    1    2    0    0  0.20914348256E+01 -0.83913688751E+02 -0.71120635861E+02  0.14449780557E+03  0.93678117559E+02 0.  0.
         23    2    1    2    0    0  0.60761728680E+01  0.56922254735E+02 -0.83352001233E+02  0.13930958699E+03  0.95825580906E+02 0.  0.
        -11    1    3    3    0    0 -0.33934302541E+02 -0.83083512638E+02 -0.51092305962E+02  0.10327066713E+03  0.00000000000E+00 0.  1.
         11    1    3    3    0    0  0.36025737367E+02 -0.83017611344E+00 -0.20028329898E+02  0.41227138437E+02  0.00000000000E+00 0. -1.
        -11    1    4    4    0    0 -0.13959024595E+02  0.71664215968E+02 -0.87640925588E+02  0.11406816408E+03  0.00000000000E+00 0. -1.
         11    1    4    4    0    0  0.20035197463E+02 -0.14741961233E+02  0.42889243551E+01  0.25241422910E+02  0.00000000000E+00 0.  1.
         21    1    1    2  502  501 -0.81676076936E+01  0.26991434016E+02 -0.13336633794E+03  0.13631517678E+03  0.00000000000E+00 0. -1.
<scales pt_clust_5="13000.00000" pt_clust_6="13000.00000" pt_clust_7="13000.00000" pt_clust_8="13000.00000" pt_clust_9="28.20013"></scales>
<clustering>
<clus scale="   28.200">  2  9  1 -1</clus>
<clus scale="   93.678">  5  6 -1 -1</clus>
<clus scale="   95.826">  7  8 -1 -1</clus>
<clus scale="  117.340">  1  5  2 -1</clus>
<clus scale="   28.200">  2  5  1 -1</clus>
</clustering>
</event>
<event>
 9    1  0.9000149E-006  0.2702737E+03  0.7546771E-02  0.1101344E+00
          2   -1    0    0  502    0  0.00000000000E+00  0.00000000000E+00  0.40078555505E+03  0.40078555505E+03  0.00000000000E+00 0. -1.
         -2   -1    0    0    0  501 -0.00000000000E+00 -0.00000000000E+00 -0.32911166267E+03  0.32911166267E+03  0.00000000000E+00 0.  1.
         23    2    1    2    0    0 -0.13430310618E+03  0.21031709669E+03 -0.16370300195E+03  0.31220190122E+03  0.91655598770E+02 0.  0.
         23    2    1    2    0    0  0.15714527963E+03 -0.20980398666E+03  0.12660613661E+03  0.30655078940E+03  0.96082885706E+02 0.  0.
        -13    1    3    3    0    0 -0.10444516739E+03  0.19557478567E+03 -0.16860682127E+03  0.27854362308E+03  0.00000000000E+00 0.  1.
         13    1    3    3    0    0 -0.29857938787E+02  0.14742311020E+02  0.49038193227E+01  0.33658278131E+02  0.00000000000E+00 0. -1.
        -13    1    4    4    0    0  0.10047744286E+03 -0.19373215610E+03  0.83964171268E+02  0.23383294654E+03  0.00000000000E+00 0. -1.
         13    1    4    4    0    0  0.56667836775E+02 -0.16071830561E+02  0.42641965342E+02  0.72717842863E+02  0.00000000000E+00 0.  1.
         21    1    1    2  502  501 -0.22842173452E+02 -0.51311003209E+00  0.10877075772E+03  0.11114452710E+03  0.00000000000E+00 0.  1.
<scales pt_clust_5="13000.00000" pt_clust_6="13000.00000" pt_clust_7="13000.00000" pt_clust_8="13000.00000" pt_clust_9="22.84794"></scales>
<clustering>
<clus scale="   22.848">  1  9  2 -1</clus>
<clus scale="   91.656">  5  6 -1 -1</clus>
<clus scale="   96.083">  7  8 -1 -1</clus>
<clus scale="  268.732">  2  5  1 -1</clus>
<clus scale="   22.848">  1  5  2 -1</clus>
</clustering>
</event>
<event>
 9    1  0.9000149E-006  0.2245699E+03  0.7546771E-02  0.1130704E+00
          1   -1    0    0  502    0  0.00000000000E+00  0.00000000000E+00  0.20231140983E+03  0.20231140983E+03  0.00000000000E+00 0. -1.
         -1   -1    0    0    0  501 -0.00000000000E+00 -0.00000000000E+00 -0.33182421595E+03  0.33182421595E+03  0.00000000000E+00 0.  1.
         23    2    1    2    0    0  0.13621487896E+03 -0.14423880746E+03 -0.15179916932E+03  0.26663941726E+03  0.93243038356E+02 0.  0.
         23    2    1    2    0    0 -0.15686023443E+03  0.14912360938E+03 -0.26984763184E+01  0.23471917086E+03  0.90789996020E+02 0.  0.
        -11    1    4    4    0    0 -0.49467135477E+02  0.74079603100E+02 -0.41228982599E+02  0.98156070082E+02  0.00000000000E+00 0.  1.
         11    1    4    4    0    0 -0.10739309895E+03  0.75044006276E+02  0.38530506281E+02  0.13656310078E+03  0.00000000000E+00 0. -1.
        -13    1    3    3    0    0  0.13950087501E+03 -0.10378259061E+03 -0.14296277041E+03  0.22509925359E+03  0.00000000000E+00 0.  1.
         13    1    3    3    0    0 -0.32859960542E+01 -0.40456216846E+02 -0.88363989050E+01  0.41540163663E+02  0.00000000000E+00 0. -1.
         21    1    1    2  502  501  0.20645355472E+02 -0.48848019163E+01  0.24984839512E+02  0.32777037660E+02  0.00000000000E+00 0. -1.
<scales pt_clust_5="13000.00000" pt_clust_6="13000.00000" pt_clust_7="13000.00000" pt_clust_8="13000.00000" pt_clust_9="21.21537"></scales>
<clustering>
<clus scale="   21.215">  1  9  2 -1</clus>
<clus scale="   90.790">  5  6 -1 -1</clus>
<clus scale="   93.243">  7  8 -1 -1</clus>
<clus scale="  223.563">  1  5  2 -1</clus>
<clus scale="   21.215">  1  5  2 -1</clus>
</clustering>
</event>
<event>
 9    1  0.9000149E-006  0.1309321E+03  0.7546771E-02  0.1226734E+00
          2   -1    0    0  502    0  0.00000000000E+00  0.00000000000E+00  0.85051536027E+02  0.85051536027E+02  0.00000000000E+00 0.  1.
         -2   -1    0    0    0  501 -0.00000000000E+00 -0.00000000000E+00 -0.26234516070E+03  0.26234516070E+03  0.00000000000E+00 0. -1.
         23    2    1    2    0    0 -0.77739712921E+02 -0.40883454763E+02 -0.12882830468E+03  0.18213049645E+03  0.94126860219E+02 0.  0.
         23    2    1    2    0    0  0.89709709486E+02  0.19203047342E+02 -0.42441640703E+02  0.13977883878E+03  0.96541399932E+02 0.  0.
        -13    1    4    4    0    0  0.69314533681E+02  0.23684109955E+02  0.18340006930E+02  0.75510247635E+02  0.00000000000E+00 0.  1.
         13    1    4    4    0    0  0.20395175805E+02 -0.44810626133E+01 -0.60781647633E+02  0.64268591141E+02  0.00000000000E+00 0. -1.
        -13    1    3    3    0    0 -0.51548064706E+02  0.22891872771E+02 -0.78985429749E+02  0.97056369840E+02  0.00000000000E+00 0. -1.
         13    1    3    3    0    0 -0.26191648215E+02 -0.63775327533E+02 -0.49842874927E+02  0.85074126614E+02  0.00000000000E+00 0.  1.
         21    1    1    2  502  501 -0.11969996565E+02  0.21680407421E+02 -0.60236792919E+01  0.25487361494E+02  0.00000000000E+00 0. -1.
<scales pt_clust_5="13000.00000" pt_clust_6="13000.00000" pt_clust_7="13000.00000" pt_clust_8="13000.00000" pt_clust_9="24.76532"></scales>
<clustering>
<clus scale="   24.765">  1  9  2 -1</clus>
<clus scale="   94.127">  7  8 -1 -1</clus>
<clus scale="   96.541">  5  6 -1 -1</clus>
<clus scale="  129.162">  2  7  1 -1</clus>
<clus scale="   24.765">  1  5  2 -1</clus>
</clustering>
</event>
<event>
 9    1  0.9000149E-006  0.9417897E+02  0.7546771E-02  0.1295497E+00
          1   -1    0    0  502    0  0.00000000000E+00  0.00000000000E+00  0.23032327983E+03  0.23032327983E+03  0.00000000000E+00 0. -1.
         -1   -1    0    0    0  501 -0.00000000000E+00 -0.00000000000E+00 -0.63787912131E+02  0.63787912131E+02  0.00000000000E+00 0.  1.
         23    2    1    2    0    0 -0.30395431971E+02  0.75888265393E+01  0.18489027992E+02  0.93194724896E+02  0.85801748347E+02 0.  0.
         23    2    1    2    0    0  0.20655536076E+02  0.22292093268E+02  0.74311834971E+02  0.12076341267E+03  0.90210666939E+02 0.  0.
        -11    1    4    4    0    0  0.10370483997E+02 -0.29774300320E+02  0.56643800983E+02  0.64827278885E+02  0.00000000000E+00 0.  1.
         11    1    4    4    0    0  0.10285052079E+02  0.52066393588E+02  0.17668033988E+02  0.55936133783E+02  0.00000000000E+00 0. -1.
        -11    1    3    3    0    0 -0.54195660019E+02 -0.11181368528E+02 -0.39555593560E+01  0.55478275179E+02  0.00000000000E+00 0.  1.
         11    1    3    3    0    0  0.23800228048E+02  0.18770195068E+02  0.22444587348E+02  0.37716449717E+02  0.00000000000E+00 0. -1.
         21    1    1    2  502  501  0.97398958952E+01 -0.29880919808E+02  0.73734504741E+02  0.80153054402E+02  0.00000000000E+00 0. -1.
<scales pt_clust_5="13000.00000" pt_clust_6="13000.00000" pt_clust_7="13000.00000" pt_clust_8="13000.00000" pt_clust_9="31.42825"></scales>
<clustering>
<clus scale="   31.428">  1  9  2 -1</clus>
<clus scale="   85.802">  7  8 -1 -1</clus>
<clus scale="   89.965">  2  7  1 -1</clus>
<clus scale="   90.211">  5  6 -1 -1</clus>
<clus scale="   31.428">  1  5  2 -1</clus>
</clustering>
</event>
<event>
 9    1  0.9000149E-006  0.1494768E+03  0.7546771E-02  0.1201413E+00
         -2   -1    0    0    0  501 -0.00000000000E+00  0.00000000000E+00  0.92998994588E+02  0.92998994588E+02  0.00000000000E+00 0. -1.
          2   -1    0    0  502    0  0.00000000000E+00 -0.00000000000E+00 -0.36879110133E+03  0.36879110133E+03  0.00000000000E+00 0.  1.
         23    2    1    2    0    0  0.62550386966E+02  0.73940229815E+02 -0.20943404036E+02  0.13599911602E+03  0.93152696634E+02 0.  0.
         23    2    1    2    0    0 -0.10486883544E+03 -0.70920808742E+02 -0.22489249309E+03  0.27385503398E+03  0.91611748300E+02 0.  0.
        -11    1    3    3    0    0 -0.70369502296E+01  0.37453131454E+02  0.24429505292E+02  0.45266504759E+02  0.00000000000E+00 0.  1.
         11    1    3    3    0    0  0.69587337196E+02  0.36487098361E+02 -0.45372909329E+02  0.90732611258E+02  0.00000000000E+00 0. -1.
        -13    1    4    4    0    0 -0.29067589123E+02 -0.19483547096E+02 -0.15426370861E+03  0.15818288510E+03  0.00000000000E+00 0. -1.
         13    1    4    4    0    0 -0.75801246312E+02 -0.51437261646E+02 -0.70628784486E+02  0.11567214888E+03  0.00000000000E+00 0.  1.
         21    1    1    2  502  501  0.42318448469E+02 -0.30194210726E+01 -0.29956209607E+02  0.51935945919E+02  0.00000000000E+00 0. -1.
<scales pt_clust_5="13000.00000" pt_clust_6="13000.00000" pt_clust_7="13000.00000" pt_clust_8="13000.00000" pt_clust_9="42.42603"></scales>
<clustering>
<clus scale="   42.426">  1  9  2 -1</clus>
<clus scale="   91.612">  7  8 -1 -1</clus>
<clus scale="   93.153">  5  6 -1 -1</clus>
<clus scale="  148.521">  2  7  1 -1</clus>
<clus scale="  148.521">  2  5  1 -1</clus>
</clustering>
</event>
<event>
 9    1  0.9000149E-006  0.1069475E+03  0.7546771E-02  0.1268320E+00
          1   -1    0    0  502    0  0.00000000000E+00  0.00000000000E+00  0.36629215904E+03  0.36629215904E+03  0.00000000000E+00 0. -1.
         -1   -1    0    0    0  501 -0.00000000000E+00 -0.00000000000E+00 -0.71388710575E+02  0.71388710575E+02  0.00000000000E+00 0.  1.
         23    2    1    2    0    0 -0.68033041821E+02 -0.37465531921E+01  0.44235071029E+02  0.12291496883E+03  0.92243246977E+02 0.  0.
         23    2    1    2    0    0  0.15663873683E+02 -0.30444495115E+02  0.71720238242E+02  0.12520326186E+03  0.96746266002E+02 0.  0.
        -11    1    3    3    0    0 -0.56850238253E+02  0.24908216579E+02 -0.77112936904E+01  0.62544647197E+02  0.00000000000E+00 0.  1.
         11    1    3    3    0    0 -0.11182803569E+02 -0.28654769771E+02  0.51946364720E+02  0.60370321632E+02  0.00000000000E+00 0. -1.
        -13    1    4    4    0    0  0.28124992239E+02  0.29479719221E+02  0.21728961721E+02  0.46175933247E+02  0.00000000000E+00 0.  1.
         13    1    4    4    0    0 -0.12461118556E+02 -0.59924214336E+02  0.49991276521E+02  0.79027328613E+02  0.00000000000E+00 0. -1.
         21    1    1    2  502  501  0.52369168139E+02  0.34191048308E+02  0.17894813920E+03  0.18956263893E+03  0.00000000000E+00 0. -1.
<scales pt_clust_5="13000.00000" pt_clust_6="13000.00000" pt_clust_7="13000.00000" pt_clust_8="13000.00000" pt_clust_9="62.54245"></scales>
<clustering>
<clus scale="   62.542">  1  9  2 -1</clus>
<clus scale="   92.243">  5  6 -1 -1</clus>
<clus scale="   96.746">  7  8 -1 -1</clus>
<clus scale="  102.892">  2  5  1 -1</clus>
<clus scale="   62.542">  1  5  2 -1</clus>
</clustering>
</event>
<event>
 9    1  0.9000149E-006  0.1158926E+03  0.7546771E-02  0.1250293E+00
          1   -1    0    0  502    0  0.00000000000E+00  0.00000000000E+00  0.35176342225E+03  0.35176342225E+03  0.00000000000E+00 0. -1.
         -1   -1    0    0    0  501 -0.00000000000E+00 -0.00000000000E+00 -0.13026139340E+03  0.13026139340E+03  0.00000000000E+00 0.  1.
         23    2    1    2    0    0  0.38819362029E+02 -0.60877846594E+02 -0.85672774470E+02  0.14469632792E+03  0.91564993062E+02 0.  0.
         23    2    1    2    0    0 -0.48184112934E+02  0.39556334492E+02  0.28339635799E+03  0.30404606143E+03  0.90797023140E+02 0.  0.
        -11    1    4    4    0    0 -0.25811394074E+02  0.66802204748E+02  0.22179073663E+03  0.23306628559E+03  0.00000000000E+00 0. -1.
         11    1    4    4    0    0 -0.22372718860E+02 -0.27245870256E+02  0.61605621356E+02  0.70979775837E+02  0.00000000000E+00 0.  1.
        -13    1    3    3    0    0  0.63371000887E+02 -0.17062013148E+02 -0.40317082613E+02  0.77022485006E+02  0.00000000000E+00 0. -1.
         13    1    3    3    0    0 -0.24551638858E+02 -0.43815833447E+02 -0.45355691857E+02  0.67673842916E+02  0.00000000000E+00 0.  1.
         21    1    1    2  502  501  0.93647509047E+01  0.21321512102E+02  0.23778445328E+02  0.33282426295E+02  0.00000000000E+00 0. -1.
<scales pt_clust_5="13000.00000" pt_clust_6="13000.00000" pt_clust_7="13000.00000" pt_clust_8="13000.00000" pt_clust_9="23.28745"></scales>
<clustering>
<clus scale="   23.287">  1  9  2 -1</clus>
<clus scale="   90.797">  5  6 -1 -1</clus>
<clus scale="   91.565">  7  8 -1 -1</clus>
<clus scale="  115.287">  1  5  2 -1</clus>
<clus scale="   23.287">  1  5  2 -1</clus>
</clustering>
</event>
<event>
 9    1  0.9000149E-006  0.1041953E+03  0.7546771E-02  0.1272801E+00
         -1   -1    0    0    0  501 -0.00000000000E+00  0.00000000000E+00  0.63302967922E+03  0.63302967922E+03  0.00000000000E+00 0.  1.
          1   -1    0    0  502    0  0.00000000000E+00 -0.00000000000E+00 -0.23252705082E+02  0.23252705082E+02  0.00000000000E+00 0. -1.
         23    2    1    2    0    0 -0.16291645646E+02 -0.37701712709E+02  0.26944869432E+03  0.28716082254E+03  0.90398574509E+02 0.  0.
         23    2    1    2    0    0  0.51564535695E+01  0.64718390241E+02  0.30028345819E+03  0.31954857409E+03  0.87898105162E+02 0.  0.
        -13    1    4    4    0    0 -0.17132136806E+02  0.10732819931E+02  0.84219469915E+01  0.21900518860E+02  0.00000000000E+00 0. -1.
         13    1    4    4    0    0  0.22288590375E+02  0.53985570309E+02  0.29186151120E+03  0.29764805523E+03  0.00000000000E+00 0.  1.
        -13    1    3    3    0    0 -0.48150139951E+02 -0.25920263460E+02  0.96578535464E+02  0.11098517715E+03  0.00000000000E+00 0. -1.
         13    1    3    3    0    0  0.31858494305E+02 -0.11781449250E+02  0.17287015885E+03  0.17617564539E+03  0.00000000000E+00 0.  1.
         21    1    1    2  502  501  0.11135192077E+02 -0.27016677531E+02  0.40044821631E+02  0.49572987674E+02  0.00000000000E+00 0.  1.
<scales pt_clust_5="13000.00000" pt_clust_6="13000.00000" pt_clust_7="13000.00000" pt_clust_8="13000.00000" pt_clust_9="29.22145"></scales>
<clustering>
<clus scale="   29.221">  2  9  1 -1</clus>
<clus scale="   87.898">  5  6 -1 -1</clus>
<clus scale="   90.399">  7  8 -1 -1</clus>
<clus scale="  102.034">  2  5  1 -1</clus>
<clus scale="   29.221">  2  5  1 -1</clus>
</clustering>
</event>
<event>
 9    1  0.9000149E-006  0.1033737E+03  0.7546771E-02  0.1275786E+00
         -4   -1    0    0    0  501 -0.00000000000E+00  0.00000000000E+00  0.91479386726E+02  0.91479386726E+02  0.00000000000E+00 0.  1.
          4   -1    0    0  502    0  0.00000000000E+00 -0.00000000000E+00 -0.19298928422E+03  0.19298928422E+03  0.00000000000E+00 0. -1.
         23    2    1    2    0    0 -0.30068456608E+01  0.39918222265E+02  0.27842323457E+02  0.10681109028E+03  0.95031091974E+02 0.  0.
         23    2    1    2    0    0 -0.17125366231E+02 -0.43087643425E+02 -0.11181781923E+03  0.15077252106E+03  0.89884955502E+02 0.  0.
        -13    1    4    4    0    0 -0.52316095702E+02 -0.25516707040E+02 -0.85550854358E+02  0.10347475484E+03  0.00000000000E+00 0.  1.
         13    1    4    4    0    0  0.35190729471E+02 -0.17570936385E+02 -0.26266964875E+02  0.47297766225E+02  0.00000000000E+00 0. -1.
        -13    1    3    3    0    0  0.88153193115E+01 -0.26015676301E+02 -0.10757636026E+02  0.29500033912E+02  0.00000000000E+00 0. -1.
         13    1    3    3    0    0 -0.11822164972E+02  0.65933898566E+02  0.38599959484E+02  0.77311056369E+02  0.00000000000E+00 0.  1.
         21    1    1    2  502  501  0.20132211892E+02  0.31694211594E+01 -0.17534401718E+02  0.26885059601E+02  0.00000000000E+00 0. -1.
<scales pt_clust_5="13000.00000" pt_clust_6="13000.00000" pt_clust_7="13000.00000" pt_clust_8="13000.00000" pt_clust_9="20.38017"></scales>
<clustering>
<clus scale="   20.380">  2  9  1 -1</clus>
<clus scale="   89.885">  5  6 -1 -1</clus>
<clus scale="   95.031">  7  8 -1 -1</clus>
<clus scale="   98.664">  2  5  1 -1</clus>
<clus scale="   20.380">  2  5  1 -1</clus>
</clustering>
</event>
<event>
 9    1  0.9000149E-006  0.9908580E+02  0.7546771E-02  0.1282718E+00
         -1   -1    0    0    0  501 -0.00000000000E+00  0.00000000000E+00  0.17416592749E+03  0.17416592749E+03  0.00000000000E+00 0.  1.
          1   -1    0    0  502    0  0.00000000000E+00 -0.00000000000E+00 -0.12608842979E+03  0.12608842979E+03  0.00000000000E+00 0. -1.
         23    2    1    2    0    0  0.28482639190E+02 -0.47464381041E+02  0.11513649269E+03  0.15687974293E+03  0.91053355723E+02 0.  0.
         23    2    1    2    0    0 -0.11887089923E+02  0.34344180244E+02 -0.72893162463E+02  0.12142946832E+03  0.90060407605E+02 0.  0.
        -11    1    4    4    0    0 -0.38827496337E+02 -0.11744744240E+02 -0.47035906063E+02  0.62111914705E+02  0.00000000000E+00 0.  1.
         11    1    4    4    0    0  0.26940406415E+02  0.46088924483E+02 -0.25857256400E+02  0.59317553611E+02  0.00000000000E+00 0. -1.
        -13    1    3    3    0    0  0.49983902921E+02 -0.59173511283E+02  0.10476567213E+03  0.13029098605E+03  0.00000000000E+00 0. -1.
         13    1    3    3    0    0 -0.21501263731E+02  0.11709130242E+02  0.10370820557E+02  0.26588756874E+02  0.00000000000E+00 0.  1.
         21    1    1    2  502  501 -0.16595549267E+02  0.13120200798E+02  0.58341674689E+01  0.21945146035E+02  0.00000000000E+00 0.  1.
<scales pt_clust_5="13000.00000" pt_clust_6="13000.00000" pt_clust_7="13000.00000" pt_clust_8="13000.00000" pt_clust_9="21.15542"></scales>
<clustering>
<clus scale="   21.155">  1  9  2 -1</clus>
<clus scale="   90.060">  5  6 -1 -1</clus>
<clus scale="   91.053">  7  8 -1 -1</clus>
<clus scale="   98.174">  2  5  1 -1</clus>
<clus scale="   98.174">  2  5  1 -1</clus>
</clustering>
</event>
<event>
 9    1  0.9000149E-006  0.1078472E+03  0.7546771E-02  0.1265765E+00
         -1   -1    0    0    0  501 -0.00000000000E+00  0.00000000000E+00  0.85094006497E+03  0.85094006497E+03  0.00000000000E+00 0.  1.
          1   -1    0    0  502    0  0.00000000000E+00 -0.00000000000E+00 -0.20403179382E+02  0.20403179382E+02  0.00000000000E+00 0. -1.
         23    2    1    2    0    0 -0.45980362304E+02 -0.72685057646E+01  0.43263049770E+03  0.44401431108E+03  0.88388551348E+02 0.  0.
         23    2    1    2    0    0  0.73785677501E+02  0.26528649476E+02  0.33430741436E+03  0.35529478774E+03  0.91240580063E+02 0.  0.
        -11    1    3    3    0    0  0.23220132761E+02  0.14428503625E+02  0.11306945370E+03  0.11632737272E+03  0.00000000000E+00 0. -1.
         11    1    3    3    0    0 -0.69200495065E+02 -0.21697009389E+02  0.31956104399E+03  0.32768693836E+03  0.00000000000E+00 0.  1.
        -11    1    4    4    0    0  0.94394272291E+02  0.23400663976E+02  0.24520342976E+03  0.26378512407E+03  0.00000000000E+00 0. -1.
         11    1    4    4    0    0 -0.20608594790E+02  0.31279854995E+01  0.89103984601E+02  0.91509663666E+02  0.00000000000E+00 0.  1.
         21    1    1    2  502  501 -0.27805315197E+02 -0.19260143711E+02  0.63598973527E+02  0.72034145533E+02  0.00000000000E+00 0.  1.
<scales pt_clust_5="13000.00000" pt_clust_6="13000.00000" pt_clust_7="13000.00000" pt_clust_8="13000.00000" pt_clust_9="33.82438"></scales>
<clustering>
<clus scale="   33.824">  2  9  1 -1</clus>
<clus scale="   88.389">  5  6 -1 -1</clus>
<clus scale="   91.241">  7  8 -1 -1</clus>
<clus scale="  105.445">  1  5  2 -1</clus>
<clus scale="   33.824">  2  5  1 -1</clus>
</clustering>
</event>
<event>
 9    1  0.9000149E-006  0.1793305E+03  0.7546771E-02  0.1168943E+00
          2   -1    0    0  502    0  0.00000000000E+00  0.00000000000E+00  0.30623345868E+03  0.30623345868E+03  0.00000000000E+00 0. -1.
         -2   -1    0    0    0  501 -0.00000000000E+00 -0.00000000000E+00 -0.19237601466E+03  0.19237601466E+03  0.00000000000E+00 0.  1.
         23    2    1    2    0    0  0.95094153829E+02  0.11579498462E+03 -0.92597008685E+02  0.19670001074E+03  0.87551765562E+02 0.  0.
         23    2    1    2    0    0 -0.10676385343E+03 -0.13674545859E+03  0.18729688022E+03  0.27121554085E+03  0.91541834247E+02 0.  0.
        -13    1    3    3    0    0  0.11053775482E+03  0.91527652424E+02 -0.67799303650E+02  0.15872193287E+03  0.00000000000E+00 0.  1.
         13    1    3    3    0    0 -0.15443600995E+02  0.24267332192E+02 -0.24797705035E+02  0.37978077866E+02  0.00000000000E+00 0. -1.
        -13    1    4    4    0    0 -0.80911380318E+02 -0.14047550314E+03  0.18344926057E+03  0.24481349973E+03  0.00000000000E+00 0. -1.
         13    1    4    4    0    0 -0.25852473111E+02  0.37300445525E+01  0.38476196463E+01  0.26402041119E+02  0.00000000000E+00 0.  1.
         21    1    1    2  502  501  0.11669699599E+02  0.20950473970E+02  0.19157572493E+02  0.30693921745E+02  0.00000000000E+00 0. -1.
<scales pt_clust_5="13000.00000" pt_clust_6="13000.00000" pt_clust_7="13000.00000" pt_clust_8="13000.00000" pt_clust_9="23.98133"></scales>
<clustering>
<clus scale="   23.981">  1  9  2 -1</clus>
<clus scale="   87.552">  5  6 -1 -1</clus>
<clus scale="   91.542">  7  8 -1 -1</clus>
<clus scale="  177.327">  2  5  1 -1</clus>
<clus scale="   23.981">  1  5  2 -1</clus>
</clustering>
</event>
<event>
 9    1  0.9000149E-006  0.1079223E+03  0.7546771E-02  0.1265144E+00
          1   -1    0    0  502    0  0.00000000000E+00  0.00000000000E+00  0.15775002267E+03  0.15775002267E+03  0.00000000000E+00 0. -1.
         -1   -1    0    0    0  501 -0.00000000000E+00 -0.00000000000E+00 -0.11999889810E+03  0.11999889810E+03  0.00000000000E+00 0.  1.
         23    2    1    2    0    0 -0.52744404828E+02  0.22040119433E+02 -0.27532742639E+02  0.11183078953E+03  0.92088731473E+02 0.  0.
         23    2    1    2    0    0  0.61381532051E+02  0.18666975604E+02  0.45578257824E+02  0.11987490595E+03  0.90423818963E+02 0.  0.
        -13    1    3    3    0    0 -0.20931626710E+02 -0.36208375122E+02 -0.73837473253E+01  0.42469979400E+02  0.00000000000E+00 0.  1.
         13    1    3    3    0    0 -0.31812778119E+02  0.58248494556E+02 -0.20148995313E+02  0.69360810129E+02  0.00000000000E+00 0. -1.
        -13    1    4    4    0    0  0.90140843455E+00  0.28003556501E+02  0.51257640522E+02  0.58415386892E+02  0.00000000000E+00 0. -1.
         13    1    4    4    0    0  0.60480123616E+02 -0.93365808962E+01 -0.56793826976E+01  0.61459519061E+02  0.00000000000E+00 0.  1.
         21    1    1    2  502  501 -0.86371272223E+01 -0.40707095038E+02  0.19705609383E+02  0.46043225280E+02  0.00000000000E+00 0. -1.
<scales pt_clust_5="13000.00000" pt_clust_6="13000.00000" pt_clust_7="13000.00000" pt_clust_8="13000.00000" pt_clust_9="41.61331"></scales>
<clustering>
<clus scale="   41.613">  1  9  2 -1</clus>
<clus scale="   90.424">  7  8 -1 -1</clus>
<clus scale="   92.089">  5  6 -1 -1</clus>
<clus scale="  106.505">  1  7  2 -1</clus>
<clus scale="   41.613">  1  5  2 -1</clus>
</clustering>
</event>
<event>
 9    1  0.9000149E-006  0.1063007E+03  0.7546771E-02  0.1267780E+00
          1   -1    0    0  502    0  0.00000000000E+00  0.00000000000E+00  0.70138343442E+03  0.70138343442E+03  0.00000000000E+00 0. -1.
         -1   -1    0    0    0  501 -0.00000000000E+00 -0.00000000000E+00 -0.35237795998E+02  0.35237795998E+02  0.00000000000E+00 0.  1.
         23    2    1    2    0    0 -0.28541686756E+02  0.37846684705E+02  0.92114303717E+02  0.13751284695E+03  0.90430850386E+02 0.  0.
         23    2    1    2    0    0  0.67649419970E+02 -0.43982100124E+02  0.32576961718E+03  0.34771041509E+03  0.90916555837E+02 0.  0.
        -13    1    3    3    0    0 -0.39629433342E+02  0.15715861315E+02  0.52242553587E+00  0.42635117126E+02  0.00000000000E+00 0.  1.
         13    1    3    3    0    0  0.11087746586E+02  0.22130823390E+02  0.91591878181E+02  0.94877729826E+02  0.00000000000E+00 0. -1.
        -13    1    4    4    0    0 -0.11796659692E+02 -0.28357637986E+02  0.38509668710E+02  0.49257602421E+02  0.00000000000E+00 0.  1.
         13    1    4    4    0    0  0.79446079662E+02 -0.15624462138E+02  0.28725994847E+03  0.29845281267E+03  0.00000000000E+00 0. -1.
         21    1    1    2  502  501 -0.39107733214E+02  0.61354154197E+01  0.24826171752E+03  0.25139796838E+03  0.00000000000E+00 0.  1.
<scales pt_clust_5="13000.00000" pt_clust_6="13000.00000" pt_clust_7="13000.00000" pt_clust_8="13000.00000" pt_clust_9="39.58608"></scales>
<clustering>
<clus scale="   39.586">  1  9  2 -1</clus>
<clus scale="   90.431">  5  6 -1 -1</clus>
<clus scale="   90.917">  7  8 -1 -1</clus>
<clus scale="  105.886">  2  5  1 -1</clus>
<clus scale="   39.586">  1  5  2 -1</clus>
</clustering>
</event>
<event>
 9    1  0.9000149E-006  0.1441940E+03  0.7546771E-02  0.1210301E+00
          2   -1    0    0  502    0  0.00000000000E+00  0.00000000000E+00  0.58010614980E+03  0.58010614980E+03  0.00000000000E+00 0. -1.
         -2   -1    0    0    0  501 -0.00000000000E+00 -0.00000000000E+00 -0.14323909872E+03  0.14323909872E+03  0.00000000000E+00 0.  1.
         23    2    1    2    0    0 -0.93710631157E+02 -0.32914228019E+02 -0.79788749490E+02  0.16351903340E+03  0.10250463864E+03 0.  0.
         23    2    1    2    0    0  0.96416006282E+02  0.88583639600E+02  0.38759864597E+03  0.41924829511E+03  0.91615037649E+02 0.  0.
        -13    1    4    4    0    0 -0.18038932059E+02  0.15233595613E+02  0.66096965501E+02  0.70187423044E+02  0.00000000000E+00 0.  1.
         13    1    4    4    0    0  0.11445493834E+03  0.73350043987E+02  0.32150168047E+03  0.34906087207E+03  0.00000000000E+00 0. -1.
        -13    1    3    3    0    0  0.12785184598E+01 -0.43698907274E+02 -0.91799675207E+01  0.44671029875E+02  0.00000000000E+00 0. -1.
         13    1    3    3    0    0 -0.94989149617E+02  0.10784679255E+02 -0.70608781970E+02  0.11884800353E+03  0.00000000000E+00 0.  1.
         21    1    1    2  502  501 -0.27053751246E+01 -0.55669411582E+02  0.12905715459E+03  0.14057792000E+03  0.00000000000E+00 0. -1.
<scales pt_clust_5="13000.00000" pt_clust_6="13000.00000" pt_clust_7="13000.00000" pt_clust_8="13000.00000" pt_clust_9="55.73511"></scales>
<clustering>
<clus scale="   55.735">  1  9  2 -1</clus>
<clus scale="   91.615">  5  6 -1 -1</clus>
<clus scale="  102.505">  7  8 -1 -1</clus>
<clus scale="  136.668">  1  5  2 -1</clus>
<clus scale="   55.735">  1  5  2 -1</clus>
</clustering>
</event>
<event>
 9    1  0.9000149E-006  0.9306148E+02  0.7546771E-02  0.1296326E+00
         -1   -1    0    0    0  501 -0.00000000000E+00  0.00000000000E+00  0.16841329332E+03  0.16841329332E+03  0.00000000000E+00 0.  1.
          1   -1    0    0  502    0  0.00000000000E+00 -0.00000000000E+00 -0.21246406195E+03  0.21246406195E+03  0.00000000000E+00 0. -1.
         23    2    1    2    0    0 -0.14898780018E+02  0.26469763179E+02 -0.69200839762E+02  0.11837990672E+03  0.91117638701E+02 0.  0.
         23    2    1    2    0    0  0.21937983173E+02  0.27113336822E+02 -0.92150512159E+02  0.13334588710E+03  0.89849877993E+02 0.  0.
        -11    1    3    3    0    0 -0.49139901239E+02  0.63005443508E+01 -0.59589951524E+02  0.77494445449E+02  0.00000000000E+00 0.  1.
         11    1    3    3    0    0  0.34241121220E+02  0.20169218828E+02 -0.96108882378E+01  0.40885461270E+02  0.00000000000E+00 0. -1.
        -13    1    4    4    0    0  0.20058183590E+02 -0.13851607098E+02 -0.88931414378E+02  0.92211681534E+02  0.00000000000E+00 0. -1.
         13    1    4    4    0    0  0.18797995836E+01  0.40964943920E+02 -0.32190977818E+01  0.41134205564E+02  0.00000000000E+00 0.  1.
         21    1    1    2  502  501 -0.70392031553E+01 -0.53583100001E+02  0.11730058329E+03  0.12915156146E+03  0.00000000000E+00 0.  1.
<scales pt_clust_5="13000.00000" pt_clust_6="13000.00000" pt_clust_7="13000.00000" pt_clust_8="13000.00000" pt_clust_9="54.04349"></scales>
<clustering>
<clus scale="   54.043">  1  9  2 -1</clus>
<clus scale="   89.850">  7  8 -1 -1</clus>
<clus scale="   91.118">  5  6 -1 -1</clus>
<clus scale="   91.821">  2  7  1 -1</clus>
<clus scale="   91.821">  2  5  1 -1</clus>
</clustering>
</event>
<event>
 9    1  0.9000149E-006  0.1122391E+03  0.7546771E-02  0.1257890E+00
          1   -1    0    0  502    0  0.00000000000E+00  0.00000000000E+00  0.12916248263E+03  0.12916248263E+03  0.00000000000E+00 0. -1.
         -1   -1    0    0    0  501 -0.00000000000E+00 -0.00000000000E+00 -0.16124754078E+03  0.16124754078E+03  0.00000000000E+00 0.  1.
         23    2    1    2    0    0  0.66521841177E+02 -0.47415632088E+02 -0.57526675629E+02  0.13652834342E+03  0.93044465869E+02 0.  0.
         23    2    1    2    0    0 -0.13589601174E+02  0.36846030382E+02  0.20449340410E+02  0.99674103557E+02  0.89299743458E+02 0.  0.
        -11    1    4    4    0    0  0.30704749092E+02 -0.10560991309E+02  0.37995243321E+01  0.32691780915E+02  0.00000000000E+00 0.  1.
         11    1    4    4    0    0 -0.44294350266E+02  0.47407021691E+02  0.16649816078E+02  0.66982322642E+02  0.00000000000E+00 0. -1.
        -11    1    3    3    0    0 -0.89477472909E+01 -0.47367203667E+02 -0.25631382413E+02  0.54595621887E+02  0.00000000000E+00 0. -1.
         11    1    3    3    0    0  0.75469588468E+02 -0.48428420313E-01 -0.31895293216E+02  0.81932721535E+02  0.00000000000E+00 0.  1.
         21    1    1    2  502  501 -0.52932240003E+02  0.10569601706E+02  0.49922770614E+01  0.54207576428E+02  0.00000000000E+00 0. -1.
<scales pt_clust_5="13000.00000" pt_clust_6="13000.00000" pt_clust_7="13000.00000" pt_clust_8="13000.00000" pt_clust_9="53.97720"></scales>
<clustering>
<clus scale="   53.977">  1  9  2 -1</clus>
<clus scale="   89.300">  5  6 -1 -1</clus>
<clus scale="   93.044">  7  8 -1 -1</clus>
<clus scale="  109.155">  1  5  2 -1</clus>
<clus scale="   53.977">  1  5  2 -1</clus>
</clustering>
</event>
<event>
 9    1  0.9000149E-006  0.2164914E+03  0.7546771E-02  0.1136664E+00
          2   -1    0    0  502    0  0.00000000000E+00  0.00000000000E+00  0.50504186136E+03  0.50504186136E+03  0.00000000000E+00 0. -1.
         -2   -1    0    0    0  501 -0.00000000000E+00 -0.00000000000E+00 -0.14696828701E+03  0.14696828701E+03  0.00000000000E+00 0.  1.
         23    2    1    2    0    0  0.88711251919E+02  0.18756010066E+03  0.53468464092E+01  0.22681200176E+03  0.91469217768E+02 0.  0.
         23    2    1    2    0    0 -0.69758822105E+02 -0.18018830913E+03  0.33991860868E+03  0.40116513129E+03  0.89747880340E+02 0.  0.
        -11    1    3    3    0    0  0.96741599231E+02  0.10639703280E+03  0.15444784479E+02  0.14462989656E+03  0.00000000000E+00 0. -1.
         11    1    3    3    0    0 -0.80303473120E+01  0.81163067860E+02 -0.10097938069E+02  0.82182105203E+02  0.00000000000E+00 0.  1.
        -13    1    4    4    0    0  0.29534348044E+01 -0.25971665723E+02  0.12043558469E+03  0.12323952392E+03  0.00000000000E+00 0. -1.
         13    1    4    4    0    0 -0.72712256910E+02 -0.15421664340E+03  0.21948302399E+03  0.27792560737E+03  0.00000000000E+00 0.  1.
         21    1    1    2  502  501 -0.18952429814E+02 -0.73717915359E+01  0.12808119260E+02  0.24033015318E+02  0.00000000000E+00 0. -1.
<scales pt_clust_5="13000.00000" pt_clust_6="13000.00000" pt_clust_7="13000.00000" pt_clust_8="13000.00000" pt_clust_9="20.33563"></scales>
<clustering>
<clus scale="   20.336">  2  9  1 -1</clus>
<clus scale="   89.748">  7  8 -1 -1</clus>
<clus scale="   91.469">  5  6 -1 -1</clus>
<clus scale="  215.770">  1  7  2 -1</clus>
<clus scale="  215.770">  1  5  2 -1</clus>
</clustering>
</event>
<event>
 9    1  0.9000149E-006  0.1296184E+03  0.7546771E-02  0.1228508E+00
         -2   -1    0    0    0  501 -0.00000000000E+00  0.00000000000E+00  0.22496912856E+02  0.22496912856E+02  0.00000000000E+00 0.  1.
          2   -1    0    0  502    0  0.00000000000E+00 -0.00000000000E+00 -0.10774724643E+04  0.10774724643E+04  0.00000000000E+00 0. -1.
         23    2    1    2    0    0  0.38436384662E+01  0.73672838685E+02 -0.37665697999E+03  0.39485219603E+03  0.92710923935E+02 0.  0.
         23    2    1    2    0    0 -0.18408230426E+02 -0.10729922864E+03 -0.40001277580E+03  0.42440918812E+03  0.90889772511E+02 0.  0.
        -11    1    4    4    0    0 -0.38664177759E+02 -0.86901954548E+01 -0.86849340957E+02  0.95463323656E+02  0.00000000000E+00 0.  1.
         11    1    4    4    0    0  0.20255947333E+02 -0.98609033187E+02 -0.31316343484E+03  0.32894586447E+03  0.00000000000E+00 0. -1.
        -13    1    3    3    0    0 -0.19441686165E+01 -0.21198641415E+02 -0.10247849421E+03  0.10466615482E+03  0.00000000000E+00 0. -1.
         13    1    3    3    0    0  0.57878070827E+01  0.94871480100E+02 -0.27417848578E+03  0.29018604121E+03  0.00000000000E+00 0.  1.
         21    1    1    2  502  501  0.14564591960E+02  0.33626389956E+02 -0.27830579565E+03  0.28070799300E+03  0.00000000000E+00 0.  1.
<scales pt_clust_5="13000.00000" pt_clust_6="13000.00000" pt_clust_7="13000.00000" pt_clust_8="13000.00000" pt_clust_9="36.64507"></scales>
<clustering>
<clus scale="   36.645">  2  9  1 -1</clus>
<clus scale="   90.890">  5  6 -1 -1</clus>
<clus scale="   92.711">  7  8 -1 -1</clus>
<clus scale="  128.322">  2  5  1 -1</clus>
<clus scale="   36.645">  2  5  1 -1</clus>
</clustering>
</event>
<event>
 9    1  0.9000149E-006  0.1245431E+03  0.7546771E-02  0.1240225E+00
         -1   -1    0    0    0  501 -0.00000000000E+00  0.00000000000E+00  0.93054265146E+03  0.93054265146E+03  0.00000000000E+00 0.  1.
          1   -1    0    0  502    0  0.00000000000E+00 -0.00000000000E+00 -0.22090179770E+02  0.22090179770E+02  0.00000000000E+00 0. -1.
         23    2    1    2    0    0  0.92103382704E+01 -0.70518303176E+02  0.54760343670E+03  0.56219231181E+03  0.10551308051E+03 0.  0.
         23    2    1    2    0    0  0.18712886630E+02  0.63116648811E+02  0.23093489385E+03  0.25735342371E+03  0.92552558127E+02 0.  0.
        -11    1    3    3    0    0  0.47460992452E+02 -0.72177425589E+02  0.32314145969E+03  0.33448845950E+03  0.00000000000E+00 0. -1.
         11    1    3    3    0    0 -0.38250654181E+02  0.16591224129E+01  0.22446197701E+03  0.22770385231E+03  0.00000000000E+00 0.  1.
        -11    1    4    4    0    0  0.31597186640E+02 -0.38707525877E+01  0.25188464764E+02  0.40593394614E+02  0.00000000000E+00 0. -1.
         11    1    4    4    0    0 -0.12884300010E+02  0.66987401399E+02  0.20574642909E+03  0.21676002910E+03  0.00000000000E+00 0.  1.
         21    1    1    2  502  501 -0.27923224900E+02  0.74016543647E+01  0.12991414114E+03  0.13308709571E+03  0.00000000000E+00 0.  1.
<scales pt_clust_5="13000.00000" pt_clust_6="13000.00000" pt_clust_7="13000.00000" pt_clust_8="13000.00000" pt_clust_9="28.88756"></scales>
<clustering>
<clus scale="   28.888">  1  9  2 -1</clus>
<clus scale="   92.553">  7  8 -1 -1</clus>
<clus scale="  105.513">  5  6 -1 -1</clus>
<clus scale="  113.771">  2  7  1 -1</clus>
<clus scale="  113.771">  2  5  1 -1</clus>
</clustering>
</event>
<event>
 9    1  0.9000149E-006  0.1148786E+03  0.7546771E-02  0.1258929E+00
         -2   -1    0    0    0  501 -0.00000000000E+00  0.00000000000E+00  0.44268338805E+03  0.44268338805E+03  0.00000000000E+00 0.  1.
          2   -1    0    0  502    0  0.00000000000E+00 -0.00000000000E+00 -0.43647895480E+02  0.43647895480E+02  0.00000000000E+00 0. -1.
         23    2    1    2    0    0 -0.28511124554E+01  0.27953532209E+02  0.26296046857E+03  0.28046273526E+03  0.93389555266E+02 0.  0.
         23    2    1    2    0    0  0.10690616809E+02 -0.57101833627E+02  0.10314071648E+03  0.16119473138E+03  0.10941126695E+03 0.  0.
        -11    1    3    3    0    0  0.18774918345E+02  0.41106535823E+02  0.24571089574E+03  0.24983212189E+03  0.00000000000E+00 0.  1.
         11    1    3    3    0    0 -0.21626030801E+02 -0.13153003615E+02  0.17249572839E+02  0.30630613370E+02  0.00000000000E+00 0. -1.
        -11    1    4    4    0    0 -0.42698299709E+02 -0.52648439311E+02  0.73424809700E+02  0.99931004395E+02  0.00000000000E+00 0. -1.
         11    1    4    4    0    0  0.53388916519E+02 -0.44533943164E+01  0.29715906782E+02  0.61263726983E+02  0.00000000000E+00 0.  1.
         21    1    1    2  502  501 -0.78395043539E+01  0.29148301419E+02  0.32934307518E+02  0.44673816893E+02  0.00000000000E+00 0.  1.
<scales pt_clust_5="13000.00000" pt_clust_6="13000.00000" pt_clust_7="13000.00000" pt_clust_8="13000.00000" pt_clust_9="30.18412"></scales>
<clustering>
<clus scale="   30.184">  2  9  1 -1</clus>
<clus scale="   93.390">  5  6 -1 -1</clus>
<clus scale="   99.739">  1  5  2 -1</clus>
<clus scale="  109.411">  7  8 -1 -1</clus>
<clus scale="   30.184">  2  5  1 -1</clus>
</clustering>
</event>
<event>
 9    1  0.9000149E-006  0.9755580E+02  0.7546771E-02  0.1285711E+00
         -2   -1    0    0    0  501 -0.00000000000E+00  0.00000000000E+00  0.21778969545E+02  0.21778969545E+02  0.00000000000E+00 0.  1.
          2   -1    0    0  502    0  0.00000000000E+00 -0.00000000000E+00 -0.60531585127E+03  0.60531585127E+03  0.00000000000E+00 0. -1.
         23    2    1    2    0    0 -0.33614319724E+02  0.19831194122E+02 -0.19336078127E+03  0.21697934289E+03  0.90379448736E+02 0.  0.
         23    2    1    2    0    0  0.11631939092E+02 -0.34974527452E+02 -0.27619704365E+03  0.29305237105E+03  0.90754425128E+02 0.  0.
        -11    1    4    4    0    0  0.43542086136E+02 -0.30377952467E+02 -0.93408423767E+02  0.10744238871E+03  0.00000000000E+00 0. -1.
         11    1    4    4    0    0 -0.31910147044E+02 -0.45965749842E+01 -0.18278861988E+03  0.18560998234E+03  0.00000000000E+00 0.  1.
        -13    1    3    3    0    0 -0.17658306647E+02  0.54921476257E+02 -0.92645590692E+02  0.10913931383E+03  0.00000000000E+00 0.  1.
         13    1    3    3    0    0 -0.15956013077E+02 -0.35090282135E+02 -0.10071519058E+03  0.10784002906E+03  0.00000000000E+00 0. -1.
         21    1    1    2  502  501  0.21982380632E+02  0.15143333329E+02 -0.11397905680E+03  0.11706310688E+03  0.00000000000E+00 0.  1.
<scales pt_clust_5="13000.00000" pt_clust_6="13000.00000" pt_clust_7="13000.00000" pt_clust_8="13000.00000" pt_clust_9="26.69355"></scales>
<clustering>
<clus scale="   26.694">  2  9  1 -1</clus>
<clus scale="   90.379">  7  8 -1 -1</clus>
<clus scale="   90.754">  5  6 -1 -1</clus>
<clus scale="   97.207">  1  7  2 -1</clus>
<clus scale="   26.694">  2  5  1 -1</clus>
</clustering>
</event>
<event>
 9    1  0.9000149E-006  0.1849801E+03  0.7546771E-02  0.1163425E+00
          1   -1    0    0  502    0  0.00000000000E+00  0.00000000000E+00  0.33745787845E+03  0.33745787845E+03  0.00000000000E+00 0. -1.
         -1   -1    0    0    0  501 -0.00000000000E+00 -0.00000000000E+00 -0.23414903395E+03  0.23414903395E+03  0.00000000000E+00 0.  1.
         23    2    1    2    0    0  0.16298074604E+03 -0.30329337536E+01 -0.13024429010E+03  0.23017805635E+03  0.97192799387E+02 0.  0.
         23    2    1    2    0    0 -0.14144991217E+03  0.16202911372E+02  0.84985208467E+02  0.19073229406E+03  0.94264045901E+02 0.  0.
        -11    1    4    4    0    0 -0.99160321172E+02 -0.96394138762E+01  0.97729946753E+02  0.13955941418E+03  0.00000000000E+00 0. -1.
         11    1    4    4    0    0 -0.42289590998E+02  0.25842325248E+02 -0.12744738286E+02  0.51172879878E+02  0.00000000000E+00 0.  1.
        -11    1    3    3    0    0  0.11487642058E+03 -0.26250614097E+02 -0.38410049303E+02  0.12393957654E+03  0.00000000000E+00 0.  1.
         11    1    3    3    0    0  0.48104325462E+02  0.23217680344E+02 -0.91834240799E+02  0.10623847981E+03  0.00000000000E+00 0. -1.
         21    1    1    2  502  501 -0.21530833871E+02 -0.13169977618E+02  0.14856792614E+03  0.15069656199E+03  0.00000000000E+00 0. -1.
<scales pt_clust_5="13000.00000" pt_clust_6="13000.00000" pt_clust_7="13000.00000" pt_clust_8="13000.00000" pt_clust_9="25.23936"></scales>
<clustering>
<clus scale="   25.239">  1  9  2 -1</clus>
<clus scale="   94.264">  5  6 -1 -1</clus>
<clus scale="   97.193">  7  8 -1 -1</clus>
<clus scale="  183.458">  1  5  2 -1</clus>
<clus scale="   25.239">  1  5  2 -1</clus>
</clustering>
</event>
<event>
 9    1  0.9000149E-006  0.2076691E+03  0.7546771E-02  0.1143644E+00
          2   -1    0    0  502    0  0.00000000000E+00  0.00000000000E+00  0.20974174429E+04  0.20974174429E+04  0.00000000000E+00 0. -1.
         -2   -1    0    0    0  501 -0.00000000000E+00 -0.00000000000E+00 -0.29189473961E+02  0.29189473961E+02  0.00000000000E+00 0.  1.
         23    2    1    2    0    0  0.14403835166E+03  0.14407199056E+03  0.80993268311E+03  0.84020041173E+03  0.91880332392E+02 0.  0.
         23    2    1    2    0    0 -0.15634299558E+03 -0.75167309404E+02  0.84649498343E+03  0.86869997131E+03  0.89401490507E+02 0.  0.
        -11    1    3    3    0    0  0.11194384722E+03  0.56527761011E+02  0.37596364323E+03  0.39632748293E+03  0.00000000000E+00 0.  1.
         11    1    3    3    0    0  0.32094504442E+02  0.87544229551E+02  0.43396903988E+03  0.44387292880E+03  0.00000000000E+00 0. -1.
        -13    1    4    4    0    0 -0.63277148738E+02  0.11063755208E+02  0.37353692079E+03  0.37902009897E+03  0.00000000000E+00 0.  1.
         13    1    4    4    0    0 -0.93065846843E+02 -0.86231064613E+02  0.47295806265E+03  0.48967987234E+03  0.00000000000E+00 0. -1.
         21    1    1    2  502  501  0.12304643923E+02 -0.68904681158E+02  0.41180030235E+03  0.41770653378E+03  0.00000000000E+00 0. -1.
<scales pt_clust_5="13000.00000" pt_clust_6="13000.00000" pt_clust_7="13000.00000" pt_clust_8="13000.00000" pt_clust_9="69.99471"></scales>
<clustering>
<clus scale="   69.995">  1  9  2 -1</clus>
<clus scale="   89.401">  7  8 -1 -1</clus>
<clus scale="   91.880">  5  6 -1 -1</clus>
<clus scale="  206.584">  1  7  2 -1</clus>
<clus scale="   69.995">  1  5  2 -1</clus>
</clustering>
</event>
<event>
 9    1  0.9000149E-006  0.1134567E+03  0.7546771E-02  0.1254635E+00
         -1   -1    0    0    0  501 -0.00000000000E+00  0.00000000000E+00  0.41967360871E+02  0.41967360871E+02  0.00000000000E+00 0.  1.
          1   -1    0    0  502    0  0.00000000000E+00 -0.00000000000E+00 -0.63702014452E+03  0.63702014452E+03  0.00000000000E+00 0. -1.
         23    2    1    2    0    0  0.61712049048E+02 -0.49384048640E+02 -0.94293799954E+02  0.15456934961E+03  0.93558547830E+02 0.  0.
         23    2    1    2    0    0 -0.42047107212E+02  0.42129759640E+02 -0.48630415828E+03  0.49895687883E+03  0.94463520453E+02 0.  0.
        -13    1    4    4    0    0 -0.30973416954E+02 -0.27250062675E+02 -0.16800872857E+03  0.17299957037E+03  0.00000000000E+00 0.  1.
         13    1    4    4    0    0 -0.11073690258E+02  0.69379822315E+02 -0.31829542971E+03  0.32595730846E+03  0.00000000000E+00 0. -1.
        -13    1    3    3    0    0 -0.22825045122E+02 -0.79297413577E+01 -0.47323699363E+01  0.24622323368E+02  0.00000000000E+00 0. -1.
         13    1    3    3    0    0  0.84537094170E+02 -0.41454307283E+02 -0.89561430018E+02  0.12994702624E+03  0.00000000000E+00 0.  1.
         21    1    1    2  502  501 -0.19664941836E+02  0.72542889999E+01 -0.14454825417E+02  0.25461276954E+02  0.00000000000E+00 0. -1.
<scales pt_clust_5="13000.00000" pt_clust_6="13000.00000" pt_clust_7="13000.00000" pt_clust_8="13000.00000" pt_clust_9="20.96031"></scales>
<clustering>
<clus scale="   20.960">  1  9  2 -1</clus>
<clus scale="   93.559">  7  8 -1 -1</clus>
<clus scale="   94.464">  5  6 -1 -1</clus>
<clus scale="  112.704">  1  7  2 -1</clus>
<clus scale="  113.457">  2  5  1 -1</clus>
</clustering>
</event>
<event>
 9    1  0.9000149E-006  0.1071317E+03  0.7546771E-02  0.1272242E+00
         -1   -1    0    0    0  501 -0.00000000000E+00  0.00000000000E+00  0.15293726457E+03  0.15293726457E+03  0.00000000000E+00 0.  1.
          1   -1    0    0  502    0  0.00000000000E+00 -0.00000000000E+00 -0.13265404884E+03  0.13265404884E+03  0.00000000000E+00 0. -1.
         23    2    1    2    0    0  0.14723297364E+02 -0.93654046182E+01  0.74383085382E+02  0.11926166604E+03  0.91575189360E+02 0.  0.
         23    2    1    2    0    0 -0.30974963380E+02  0.35249815393E+02 -0.12872909503E+02  0.11500926533E+03  0.10420854797E+03 0.  0.
        -11    1    4    4    0    0  0.16074518139E+02  0.14072740525E+02  0.37335638644E+02  0.43016067605E+02  0.00000000000E+00 0.  1.
         11    1    4    4    0    0 -0.47049481520E+02  0.21177074867E+02 -0.50208548147E+02  0.71993197722E+02  0.00000000000E+00 0. -1.
        -13    1    3    3    0    0  0.77314409859E+01 -0.46962218822E+02  0.63773732851E+02  0.79575839161E+02  0.00000000000E+00 0.  1.
         13    1    3    3    0    0  0.69918563784E+01  0.37596814203E+02  0.10609352531E+02  0.39685826878E+02  0.00000000000E+00 0. -1.
         21    1    1    2  502  501  0.16251666016E+02 -0.25884410775E+02 -0.41226960148E+02  0.51320382038E+02  0.00000000000E+00 0. -1.
<scales pt_clust_5="13000.00000" pt_clust_6="13000.00000" pt_clust_7="13000.00000" pt_clust_8="13000.00000" pt_clust_9="30.56337"></scales>
<clustering>
<clus scale="   30.563">  2  9  1 -1</clus>
<clus scale="   91.575">  7  8 -1 -1</clus>
<clus scale="   94.888">  1  7  2 -1</clus>
<clus scale="  104.209">  5  6 -1 -1</clus>
<clus scale="   30.563">  2  5  1 -1</clus>
</clustering>
</event>
<event>
 9    1  0.9000149E-006  0.1182586E+03  0.7546771E-02  0.1246026E+00
         -1   -1    0    0    0  501 -0.00000000000E+00  0.00000000000E+00  0.37406832121E+02  0.37406832121E+02  0.00000000000E+00 0.  1.
          1   -1    0    0  502    0  0.00000000000E+00 -0.00000000000E+00 -0.50815298746E+03  0.50815298746E+03  0.00000000000E+00 0. -1.
         23    2    1    2    0    0 -0.15164974270E+02 -0.73468474035E+02 -0.14410713770E+03  0.18653688217E+03  0.91659959359E+02 0.  0.
         23    2    1    2    0    0  0.37805886196E+02  0.66502768733E+02 -0.22524002269E+03  0.25489374785E+03  0.91574295474E+02 0.  0.
        -13    1    3    3    0    0 -0.44236226566E+02 -0.18507627929E+02 -0.29923425956E+02  0.56522450879E+02  0.00000000000E+00 0.  1.
         13    1    3    3    0    0  0.29071252297E+02 -0.54960846105E+02 -0.11418371175E+03  0.13001443129E+03  0.00000000000E+00 0. -1.
        -13    1    4    4    0    0  0.49990291931E+02  0.12382799433E+02 -0.52832002816E+02  0.73780644689E+02  0.00000000000E+00 0. -1.
         13    1    4    4    0    0 -0.12184405734E+02  0.54119969300E+02 -0.17240801987E+03  0.18111310316E+03  0.00000000000E+00 0.  1.
         21    1    1    2  502  501 -0.22640911927E+02  0.69657053019E+01 -0.10139899494E+03  0.10412918956E+03  0.00000000000E+00 0.  1.
<scales pt_clust_5="13000.00000" pt_clust_6="13000.00000" pt_clust_7="13000.00000" pt_clust_8="13000.00000" pt_clust_9="23.68822"></scales>
<clustering>
<clus scale="   23.688">  2  9  1 -1</clus>
<clus scale="   91.574">  7  8 -1 -1</clus>
<clus scale="   91.660">  5  6 -1 -1</clus>
<clus scale="  118.192">  2  7  1 -1</clus>
<clus scale="   23.688">  2  5  1 -1</clus>
</clustering>
</event>
<event>
 9    1  0.9000149E-006  0.1171311E+03  0.7546771E-02  0.1248024E+00
          1   -1    0    0  502    0  0.00000000000E+00  0.00000000000E+00  0.36377191328E+03  0.36377191328E+03  0.00000000000E+00 0. -1.
         -1   -1    0    0    0  501 -0.00000000000E+00 -0.00000000000E+00 -0.25807035167E+03  0.25807035167E+03  0.00000000000E+00 0.  1.
         23    2    1    2    0    0  0.52405353685E+02 -0.56115022306E+02 -0.21562060306E+03  0.24615700153E+03  0.90585915664E+02 0.  0.
         23    2    1    2    0    0 -0.45951306952E+02 -0.15647396823E+02  0.26464346511E+03  0.28401206941E+03  0.90941345403E+02 0.  0.
        -11    1    3    3    0    0 -0.98081044890E+01 -0.20283003424E+02 -0.42514282642E+01  0.22927576930E+02  0.00000000000E+00 0. -1.
         11    1    3    3    0    0  0.62213458174E+02 -0.35832018882E+02 -0.21136917480E+03  0.22322942460E+03  0.00000000000E+00 0.  1.
        -11    1    4    4    0    0 -0.38458317150E+02 -0.43027053501E+02  0.23862995833E+03  0.24550891329E+03  0.00000000000E+00 0. -1.
         11    1    4    4    0    0 -0.74929898019E+01  0.27379656678E+02  0.26013506784E+02  0.38503156120E+02  0.00000000000E+00 0.  1.
         21    1    1    2  502  501 -0.64540467330E+01  0.71762419129E+02  0.56678699555E+02  0.91673194019E+02  0.00000000000E+00 0.  1.
<scales pt_clust_5="13000.00000" pt_clust_6="13000.00000" pt_clust_7="13000.00000" pt_clust_8="13000.00000" pt_clust_9="72.05206"></scales>
<clustering>
<clus scale="   72.052">  1  9  2 -1</clus>
<clus scale="   90.586">  5  6 -1 -1</clus>
<clus scale="   90.941">  7  8 -1 -1</clus>
<clus scale="  116.855">  2  5  1 -1</clus>
<clus scale="   72.052">  1  5  2 -1</clus>
</clustering>
</event>
<event>
 9    1  0.9000149E-006  0.1246566E+03  0.7546771E-02  0.1237637E+00
          2   -1    0    0  502    0  0.00000000000E+00  0.00000000000E+00  0.39625289519E+03  0.39625289519E+03  0.00000000000E+00 0. -1.
         -2   -1    0    0    0  501 -0.00000000000E+00 -0.00000000000E+00 -0.10033417853E+03  0.10033417853E+03  0.00000000000E+00 0.  1.
         23    2    1    2    0    0 -0.21116299163E+02  0.76162345802E+02 -0.37294372525E+02  0.12643360966E+03  0.91367315937E+02 0.  0.
         23    2    1    2    0    0 -0.24225095972E+01 -0.71086050168E+02  0.19236477677E+03  0.22726157692E+03  0.97900571625E+02 0.  0.
        -11    1    3    3    0    0  0.22503969211E+02  0.44188996488E+01 -0.35728487318E+02  0.42455625192E+02  0.00000000000E+00 0. -1.
         11    1    3    3    0    0 -0.43620268375E+02  0.71743446153E+02 -0.15658852067E+01  0.83977984469E+02  0.00000000000E+00 0.  1.
        -13    1    4    4    0    0  0.63796180130E+01 -0.39295662802E+02  0.19007113002E+03  0.19419547654E+03  0.00000000000E+00 0. -1.
         13    1    4    4    0    0 -0.88021276102E+01 -0.31790387366E+02  0.22936467471E+01  0.33066100386E+02  0.00000000000E+00 0.  1.
         21    1    1    2  502  501  0.23538808760E+02 -0.50762956341E+01  0.14084831242E+03  0.14289188713E+03  0.00000000000E+00 0.  1.
<scales pt_clust_5="13000.00000" pt_clust_6="13000.00000" pt_clust_7="13000.00000" pt_clust_8="13000.00000" pt_clust_9="24.07996"></scales>
<clustering>
<clus scale="   24.080">  1  9  2 -1</clus>
<clus scale="   91.367">  5  6 -1 -1</clus>
<clus scale="   97.901">  7  8 -1 -1</clus>
<clus scale="  119.594">  2  5  1 -1</clus>
<clus scale="   24.080">  1  5  2 -1</clus>
</clustering>
</event>
<event>
 9    1  0.9000149E-006  0.2512417E+03  0.7546771E-02  0.1112550E+00
         -1   -1    0    0    0  501 -0.00000000000E+00  0.00000000000E+00  0.12411047833E+03  0.12411047833E+03  0.00000000000E+00 0.  1.
          1   -1    0    0  502    0  0.00000000000E+00 -0.00000000000E+00 -0.65587683518E+03  0.65587683518E+03  0.00000000000E+00 0. -1.
         23    2    1    2    0    0  0.71470101816E+02 -0.20258945000E+03 -0.16591763970E+03  0.28634492611E+03  0.91182744195E+02 0.  0.
         23    2    1    2    0    0 -0.32505297128E+02  0.24989051242E+03 -0.31887774722E+03  0.41642892661E+03  0.90709264745E+02 0.  0.
        -13    1    3    3    0    0  0.49135140185E+02 -0.19664609061E+03 -0.12161819671E+03  0.23637879077E+03  0.00000000000E+00 0.  1.
         13    1    3    3    0    0  0.22334961632E+02 -0.59433593922E+01 -0.44299442987E+02  0.49966135341E+02  0.00000000000E+00 0. -1.
        -13    1    4    4    0    0 -0.51197858751E+02  0.23893222950E+03 -0.27772414614E+03  0.36991962963E+03  0.00000000000E+00 0. -1.
         13    1    4    4    0    0  0.18692561622E+02  0.10958282923E+02 -0.41153601077E+02  0.46509296987E+02  0.00000000000E+00 0.  1.
         21    1    1    2  502  501 -0.38964804688E+02 -0.47301062416E+02 -0.46970969939E+02  0.77213460789E+02  0.00000000000E+00 0.  1.
<scales pt_clust_5="13000.00000" pt_clust_6="13000.00000" pt_clust_7="13000.00000" pt_clust_8="13000.00000" pt_clust_9="61.28333"></scales>
<clustering>
<clus scale="   61.283">  1  9  2 -1</clus>
<clus scale="   90.709">  7  8 -1 -1</clus>
<clus scale="   91.183">  5  6 -1 -1</clus>
<clus scale="  251.070">  2  7  1 -1</clus>
<clus scale="  251.070">  2  5  1 -1</clus>
</clustering>
</event>
<event>
 9    1  0.9000149E-006  0.9228556E+02  0.7546771E-02  0.1297752E+00
         -1   -1    0    0    0  501 -0.00000000000E+00  0.00000000000E+00  0.12260217534E+03  0.12260217534E+03  0.00000000000E+00 0.  1.
          1   -1    0    0  502    0  0.00000000000E+00 -0.00000000000E+00 -0.13163810877E+03  0.13163810877E+03  0.00000000000E+00 0. -1.
         23    2    1    2    0    0  0.14651683863E+02  0.26576372232E+02  0.14585474637E+02  0.97675802879E+02  0.91688881532E+02 0.  0.
         23    2    1    2    0    0 -0.57094901114E+01  0.28057252028E+02  0.21038094902E+01  0.95518739807E+02  0.91102118368E+02 0.  0.
        -11    1    4    4    0    0  0.40357829974E+02  0.10723993986E+02  0.15443840021E+02  0.44522698501E+02  0.00000000000E+00 0.  1.
         11    1    4    4    0    0 -0.46067320086E+02  0.17333258041E+02 -0.13340030531E+02  0.50996041305E+02  0.00000000000E+00 0. -1.
        -13    1    3    3    0    0  0.18846352666E+02  0.59993154957E+02  0.10394227972E+02  0.63736987893E+02  0.00000000000E+00 0. -1.
         13    1    3    3    0    0 -0.41946688024E+01 -0.33416782725E+02  0.41912466647E+01  0.33938814986E+02  0.00000000000E+00 0.  1.
         21    1    1    2  502  501 -0.89421937521E+01 -0.54633624260E+02 -0.25725217557E+02  0.61045741434E+02  0.00000000000E+00 0.  1.
<scales pt_clust_5="13000.00000" pt_clust_6="13000.00000" pt_clust_7="13000.00000" pt_clust_8="13000.00000" pt_clust_9="55.36060"></scales>
<clustering>
<clus scale="   55.361">  2  9  1 -1</clus>
<clus scale="   91.102">  5  6 -1 -1</clus>
<clus scale="   91.689">  7  8 -1 -1</clus>
<clus scale="   91.703">  2  5  1 -1</clus>
<clus scale="   55.361">  2  5  1 -1</clus>
</clustering>
</event>
<event>
 9    1  0.9000149E-006  0.4212913E+03  0.7546771E-02  0.1036702E+00
          1   -1    0    0  502    0  0.00000000000E+00  0.00000000000E+00  0.81180723260E+03  0.81180723260E+03  0.00000000000E+00 0. -1.
         -1   -1    0    0    0  501 -0.00000000000E+00 -0.00000000000E+00 -0.42446544689E+03  0.42446544689E+03  0.00000000000E+00 0.  1.
         23    2    1    2    0    0  0.20945946983E+03  0.35736723170E+03 -0.22705984821E+03  0.48078295592E+03  0.89506805558E+02 0.  0.
         23    2    1    2    0    0 -0.18685618335E+03 -0.34892537025E+03  0.53143623054E+03  0.66908699362E+03  0.92675728468E+02 0.  0.
        -11    1    3    3    0    0  0.10182816788E+03  0.11048781498E+03 -0.11439477808E+03  0.18884569967E+03  0.00000000000E+00 0. -1.
         11    1    3    3    0    0  0.10763130195E+03  0.24687941672E+03 -0.11266507014E+03  0.29193725626E+03  0.00000000000E+00 0.  1.
        -13    1    4    4    0    0 -0.17434245107E+03 -0.31120896071E+03  0.51409103101E+03  0.62572829218E+03  0.00000000000E+00 0. -1.
         13    1    4    4    0    0 -0.12513732282E+02 -0.37716409540E+02  0.17345199532E+02  0.43358701445E+02  0.00000000000E+00 0.  1.
         21    1    1    2  502  501 -0.22603286477E+02 -0.84418614535E+01  0.82965403379E+02  0.86402729946E+02  0.00000000000E+00 0. -1.
<scales pt_clust_5="13000.00000" pt_clust_6="13000.00000" pt_clust_7="13000.00000" pt_clust_8="13000.00000" pt_clust_9="24.12827"></scales>
<clustering>
<clus scale="   24.128">  1  9  2 -1</clus>
<clus scale="   89.507">  5  6 -1 -1</clus>
<clus scale="   92.676">  7  8 -1 -1</clus>
<clus scale="  420.606">  2  5  1 -1</clus>
<clus scale="   24.128">  1  5  2 -1</clus>
</clustering>
</event>
<event>
 9    1  0.9000149E-006  0.1542370E+03  0.7546771E-02  0.1197699E+00
         -1   -1    0    0    0  501 -0.00000000000E+00  0.00000000000E+00  0.39203125939E+02  0.39203125939E+02  0.00000000000E+00 0.  1.
          1   -1    0    0  502    0  0.00000000000E+00 -0.00000000000E+00 -0.11063873655E+04  0.11063873655E+04  0.00000000000E+00 0. -1.
         23    2    1    2    0    0 -0.24028635513E+02  0.13201292910E+03 -0.19393450715E+03  0.25231623412E+03  0.89711204215E+02 0.  0.
         23    2    1    2    0    0  0.95374285845E+01 -0.70146204065E+02 -0.54383853094E+03  0.55779068633E+03  0.10177745105E+03 0.  0.
        -13    1    3    3    0    0 -0.23583424916E+02  0.47552179044E+02 -0.14566481673E+03  0.15503427522E+03  0.00000000000E+00 0. -1.
         13    1    3    3    0    0 -0.44521059700E+00  0.84460750059E+02 -0.48269690428E+02  0.97281958898E+02  0.00000000000E+00 0.  1.
        -13    1    4    4    0    0  0.48741379009E+02 -0.74297364102E+01 -0.18893190914E+03  0.19525928737E+03  0.00000000000E+00 0.  1.
         13    1    4    4    0    0 -0.39203950424E+02 -0.62716467655E+02 -0.35490662179E+03  0.36253139896E+03  0.00000000000E+00 0. -1.
         21    1    1    2  502  501  0.14491206929E+02 -0.61866725038E+02 -0.32941120147E+03  0.33548357098E+03  0.00000000000E+00 0. -1.
<scales pt_clust_5="13000.00000" pt_clust_6="13000.00000" pt_clust_7="13000.00000" pt_clust_8="13000.00000" pt_clust_9="63.54122"></scales>
<clustering>
<clus scale="   63.541">  2  9  1 -1</clus>
<clus scale="   89.711">  5  6 -1 -1</clus>
<clus scale="  101.777">  7  8 -1 -1</clus>
<clus scale="  146.556">  1  5  2 -1</clus>
<clus scale="   63.541">  2  5  1 -1</clus>
</clustering>
</event>
<event>
 9    1  0.9000149E-006  0.1001385E+03  0.7546771E-02  0.1280616E+00
         -3   -1    0    0    0  501 -0.00000000000E+00  0.00000000000E+00  0.68445966836E+02  0.68445966836E+02  0.00000000000E+00 0.  1.
          3   -1    0    0  502    0  0.00000000000E+00 -0.00000000000E+00 -0.20220478114E+03  0.20220478114E+03  0.00000000000E+00 0. -1.
         23    2    1    2    0    0  0.18122521013E+02  0.23527316854E+02 -0.46723426070E+02  0.10715810739E+03  0.91748684077E+02 0.  0.
         23    2    1    2    0    0 -0.56653665980E+01 -0.50863635406E+02 -0.83316396873E+02  0.13322242577E+03  0.90484180684E+02 0.  0.
        -13    1    3    3    0    0  0.45093590402E+02 -0.15837422254E+02 -0.30776463676E+02  0.56845813878E+02  0.00000000000E+00 0.  1.
         13    1    3    3    0    0 -0.26971069389E+02  0.39364739108E+02 -0.15946962394E+02  0.50312293514E+02  0.00000000000E+00 0. -1.
        -13    1    4    4    0    0 -0.31614764765E+02 -0.17386872687E+02  0.38744669068E+01  0.36287851780E+02  0.00000000000E+00 0.  1.
         13    1    4    4    0    0  0.25949398167E+02 -0.33476762719E+02 -0.87190863780E+02  0.96934573987E+02  0.00000000000E+00 0. -1.
         21    1    1    2  502  501 -0.12457154415E+02  0.27336318552E+02 -0.37189913578E+01  0.30270214813E+02  0.00000000000E+00 0.  1.
<scales pt_clust_5="13000.00000" pt_clust_6="13000.00000" pt_clust_7="13000.00000" pt_clust_8="13000.00000" pt_clust_9="30.04089"></scales>
<clustering>
<clus scale="   30.041">  1  9  2 -1</clus>
<clus scale="   90.484">  7  8 -1 -1</clus>
<clus scale="   91.749">  5  6 -1 -1</clus>
<clus scale="   98.981">  2  7  1 -1</clus>
<clus scale="   98.981">  2  5  1 -1</clus>
</clustering>
</event>
<event>
 9    1  0.9000149E-006  0.9888556E+02  0.7546771E-02  0.1285380E+00
          2   -1    0    0  502    0  0.00000000000E+00  0.00000000000E+00  0.16124174878E+03  0.16124174878E+03  0.00000000000E+00 0. -1.
         -2   -1    0    0    0  501 -0.00000000000E+00 -0.00000000000E+00 -0.19200215394E+03  0.19200215394E+03  0.00000000000E+00 0.  1.
         23    2    1    2    0    0  0.37256451865E+02 -0.22537655396E+02 -0.14128347416E+03  0.17401449442E+03  0.91782542360E+02 0.  0.
         23    2    1    2    0    0  0.12448288094E+02  0.94904792026E+01  0.83449526088E+02  0.12114527357E+03  0.86413684293E+02 0.  0.
        -13    1    3    3    0    0  0.45862639670E+02  0.25710261119E+02 -0.72850707118E+02  0.89842221544E+02  0.00000000000E+00 0. -1.
         13    1    3    3    0    0 -0.86061878045E+01 -0.48247916515E+02 -0.68432767038E+02  0.84172272876E+02  0.00000000000E+00 0.  1.
        -13    1    4    4    0    0  0.36067770828E+02 -0.14226082465E+02  0.94192256368E+01  0.39899715869E+02  0.00000000000E+00 0.  1.
         13    1    4    4    0    0 -0.23619482734E+02  0.23716561667E+02  0.74030300452E+02  0.81245557706E+02  0.00000000000E+00 0. -1.
         21    1    1    2  502  501 -0.49704739959E+02  0.13047176194E+02  0.27073542912E+02  0.58084134726E+02  0.00000000000E+00 0. -1.
<scales pt_clust_5="13000.00000" pt_clust_6="13000.00000" pt_clust_7="13000.00000" pt_clust_8="13000.00000" pt_clust_9="51.38862"></scales>
<clustering>
<clus scale="   51.389">  1  9  2 -1</clus>
<clus scale="   86.414">  7  8 -1 -1</clus>
<clus scale="   91.783">  5  6 -1 -1</clus>
<clus scale="   93.924">  1  7  2 -1</clus>
<clus scale="   51.389">  1  5  2 -1</clus>
</clustering>
</event>
<event>
 9    1  0.9000149E-006  0.1069049E+03  0.7546771E-02  0.1268102E+00
          1   -1    0    0  502    0  0.00000000000E+00  0.00000000000E+00  0.50876379481E+03  0.50876379481E+03  0.00000000000E+00 0. -1.
         -1   -1    0    0    0  501 -0.00000000000E+00 -0.00000000000E+00 -0.30673029319E+02  0.30673029319E+02  0.00000000000E+00 0.  1.
         23    2    1    2    0    0 -0.47338277568E+02  0.38255142196E+02  0.14654305899E+03  0.18349240749E+03  0.92142428007E+02 0.  0.
         23    2    1    2    0    0  0.20797364379E+02 -0.42701743672E+02  0.22892871909E+03  0.24985554393E+03  0.88110527909E+02 0.  0.
        -11    1    3    3    0    0 -0.54504456378E+02 -0.11459817004E+02  0.50847539100E+02  0.75415750366E+02  0.00000000000E+00 0.  1.
         11    1    3    3    0    0  0.71661788096E+01  0.49714959200E+02  0.95695519894E+02  0.10807665712E+03  0.00000000000E+00 0. -1.
        -13    1    4    4    0    0  0.54580039723E+02 -0.32594135060E+02  0.12745249561E+03  0.14242716389E+03  0.00000000000E+00 0. -1.
         13    1    4    4    0    0 -0.33782675345E+02 -0.10107608611E+02  0.10147622348E+03  0.10742838003E+03  0.00000000000E+00 0.  1.
         21    1    1    2  502  501  0.26540913189E+02  0.44466014751E+01  0.10261898741E+03  0.10608887272E+03  0.00000000000E+00 0. -1.
<scales pt_clust_5="13000.00000" pt_clust_6="13000.00000" pt_clust_7="13000.00000" pt_clust_8="13000.00000" pt_clust_9="26.91082"></scales>
<clustering>
<clus scale="   26.911">  1  9  2 -1</clus>
<clus scale="   88.111">  7  8 -1 -1</clus>
<clus scale="   92.142">  5  6 -1 -1</clus>
<clus scale="  103.450">  1  7  2 -1</clus>
<clus scale="   26.911">  1  5  2 -1</clus>
</clustering>
</event>
<event>
 9    1  0.9000149E-006  0.1131937E+03  0.7546771E-02  0.1255177E+00
         -1   -1    0    0    0  501 -0.00000000000E+00  0.00000000000E+00  0.41962517180E+03  0.41962517180E+03  0.00000000000E+00 0.  1.
          1   -1    0    0  502    0  0.00000000000E+00 -0.00000000000E+00 -0.55887432828E+02  0.55887432828E+02  0.00000000000E+00 0. -1.
         23    2    1    2    0    0 -0.81159600797E+02 -0.30991647050E+02  0.25830898047E+03  0.28729986362E+03  0.90941295665E+02 0.  0.
         23    2    1    2    0    0  0.24066883909E+02  0.13940397700E+02  0.61060729468E+02  0.11392380895E+03  0.92068843657E+02 0.  0.
        -11    1    3    3    0    0 -0.15928691433E+02 -0.12946442910E+02  0.26546152959E+00  0.20528128620E+02  0.00000000000E+00 0. -1.
         11    1    3    3    0    0 -0.65230909364E+02 -0.18045204140E+02  0.25804351894E+03  0.26677173500E+03  0.00000000000E+00 0.  1.
        -13    1    4    4    0    0  0.25129835907E+02  0.51839870861E+02  0.43230651245E+02  0.72026176288E+02  0.00000000000E+00 0. -1.
         13    1    4    4    0    0 -0.10629519986E+01 -0.37899473161E+02  0.17830078223E+02  0.41897632657E+02  0.00000000000E+00 0.  1.
         21    1    1    2  502  501  0.57092716888E+02  0.17051249350E+02  0.44368029029E+02  0.74288932056E+02  0.00000000000E+00 0. -1.
<scales pt_clust_5="13000.00000" pt_clust_6="13000.00000" pt_clust_7="13000.00000" pt_clust_8="13000.00000" pt_clust_9="59.58459"></scales>
<clustering>
<clus scale="   59.585">  2  9  1 -1</clus>
<clus scale="   90.941">  5  6 -1 -1</clus>
<clus scale="   92.069">  7  8 -1 -1</clus>
<clus scale="  112.278">  1  5  2 -1</clus>
<clus scale="   59.585">  2  5  1 -1</clus>
</clustering>
</event>
<event>
 9    1  0.9000149E-006  0.1012471E+03  0.7546771E-02  0.1277976E+00
         -1   -1    0    0    0  501 -0.00000000000E+00  0.00000000000E+00  0.40104133676E+02  0.40104133676E+02  0.00000000000E+00 0.  1.
          1   -1    0    0  502    0  0.00000000000E+00 -0.00000000000E+00 -0.44017861734E+03  0.44017861734E+03  0.00000000000E+00 0. -1.
         23    2    1    2    0    0 -0.23114079230E+02  0.36188924245E+02 -0.97474392879E+02  0.14054093814E+03  0.91687508026E+02 0.  0.
         23    2    1    2    0    0 -0.11457998396E+01 -0.47346154832E+02 -0.13281366247E+03  0.16786843866E+03  0.91089914503E+02 0.  0.
        -11    1    4    4    0    0 -0.43111163252E+02 -0.40696414213E+02 -0.66287059856E+02  0.88931124086E+02  0.00000000000E+00 0. -1.
         11    1    4    4    0    0  0.41965363412E+02 -0.66497406189E+01 -0.66526602616E+02  0.78937314574E+02  0.00000000000E+00 0.  1.
        -13    1    3    3    0    0 -0.50316841633E+02  0.28359600738E+02 -0.96197371849E+02  0.11220510620E+03  0.00000000000E+00 0. -1.
         13    1    3    3    0    0  0.27202762403E+02  0.78293235076E+01 -0.12770210298E+01  0.28335831938E+02  0.00000000000E+00 0.  1.
         21    1    1    2  502  501  0.24259879070E+02  0.11157230587E+02 -0.16978642831E+03  0.17187337422E+03  0.00000000000E+00 0. -1.
<scales pt_clust_5="13000.00000" pt_clust_6="13000.00000" pt_clust_7="13000.00000" pt_clust_8="13000.00000" pt_clust_9="26.70254"></scales>
<clustering>
<clus scale="   26.703">  2  9  1 -1</clus>
<clus scale="   91.090">  5  6 -1 -1</clus>
<clus scale="   91.688">  7  8 -1 -1</clus>
<clus scale="  100.706">  2  5  1 -1</clus>
<clus scale="   26.703">  2  5  1 -1</clus>
</clustering>
</event>
<event>
 9    1  0.9000149E-006  0.1352765E+03  0.7546771E-02  0.1221358E+00
          1   -1    0    0  502    0  0.00000000000E+00  0.00000000000E+00  0.10196226094E+03  0.10196226094E+03  0.00000000000E+00 0. -1.
         -1   -1    0    0    0  501 -0.00000000000E+00 -0.00000000000E+00 -0.41399996156E+03  0.41399996156E+03  0.00000000000E+00 0.  1.
         23    2    1    2    0    0 -0.10194479258E+03 -0.68003674960E+01 -0.30468263977E+03  0.33606245721E+03  0.98323336188E+02 0.  0.
         23    2    1    2    0    0  0.88522304542E+02 -0.25896685004E+02  0.23920467082E+02  0.13270422446E+03  0.92365500860E+02 0.  0.
        -11    1    3    3    0    0 -0.89993975443E+02 -0.45580472941E+02 -0.20646135129E+03  0.22978856522E+03  0.00000000000E+00 0.  1.
         11    1    3    3    0    0 -0.11950817133E+02  0.38780105445E+02 -0.98221288472E+02  0.10627389198E+03  0.00000000000E+00 0. -1.
        -13    1    4    4    0    0  0.57523293922E+02 -0.36114300659E+02  0.55180158541E+02  0.87510124856E+02  0.00000000000E+00 0. -1.
         13    1    4    4    0    0  0.30999010620E+02  0.10217615655E+02 -0.31259691459E+02  0.45194099606E+02  0.00000000000E+00 0.  1.
         21    1    1    2  502  501  0.13422488033E+02  0.32697052500E+02 -0.31275527930E+02  0.47195540832E+02  0.00000000000E+00 0.  1.
<scales pt_clust_5="13000.00000" pt_clust_6="13000.00000" pt_clust_7="13000.00000" pt_clust_8="13000.00000" pt_clust_9="35.34488"></scales>
<clustering>
<clus scale="   35.345">  2  9  1 -1</clus>
<clus scale="   92.366">  7  8 -1 -1</clus>
<clus scale="   98.323">  5  6 -1 -1</clus>
<clus scale="  131.010">  1  7  2 -1</clus>
<clus scale="  131.010">  1  5  2 -1</clus>
</clustering>
</event>
<event>
 9    1  0.9000149E-006  0.9666719E+02  0.7546771E-02  0.1288190E+00
         -1   -1    0    0    0  501 -0.00000000000E+00  0.00000000000E+00  0.30263606063E+02  0.30263606063E+02  0.00000000000E+00 0.  1.
          1   -1    0    0  502    0  0.00000000000E+00 -0.00000000000E+00 -0.47048843110E+03  0.47048843110E+03  0.00000000000E+00 0. -1.
         23    2    1    2    0    0 -0.15025004117E+02  0.85541201328E+01 -0.12505512030E+03  0.15590910094E+03  0.91487381220E+02 0.  0.
         23    2    1    2    0    0  0.33904586124E+02 -0.19841195572E+02 -0.16717694443E+03  0.19522444208E+03  0.92850729840E+02 0.  0.
        -13    1    3    3    0    0 -0.53040911541E+02  0.80762237682E+01 -0.86307315118E+02  0.10162438846E+03  0.00000000000E+00 0. -1.
         13    1    3    3    0    0  0.38015907425E+02  0.47789636465E+00 -0.38747805180E+02  0.54284712475E+02  0.00000000000E+00 0.  1.
        -13    1    4    4    0    0  0.38234914559E+02  0.14862607220E+01 -0.16910178991E+03  0.17337685259E+03  0.00000000000E+00 0.  1.
         13    1    4    4    0    0 -0.43303284356E+01 -0.21327456294E+02  0.19248454767E+01  0.21847589488E+02  0.00000000000E+00 0. -1.
         21    1    1    2  502  501 -0.18879582007E+02  0.11287075439E+02 -0.14799276030E+03  0.14961849415E+03  0.00000000000E+00 0. -1.
<scales pt_clust_5="13000.00000" pt_clust_6="13000.00000" pt_clust_7="13000.00000" pt_clust_8="13000.00000" pt_clust_9="21.99629"></scales>
<clustering>
<clus scale="   21.996">  2  9  1 -1</clus>
<clus scale="   91.487">  5  6 -1 -1</clus>
<clus scale="   92.851">  7  8 -1 -1</clus>
<clus scale="   95.358">  1  5  2 -1</clus>
<clus scale="   21.996">  2  5  1 -1</clus>
</clustering>
</event>
<event>
 9    1  0.9000149E-006  0.1104067E+03  0.7546771E-02  0.1260321E+00
          2   -1    0    0  502    0  0.00000000000E+00  0.00000000000E+00  0.33763525952E+03  0.33763525952E+03  0.00000000000E+00 0. -1.
         -2   -1    0    0    0  501 -0.00000000000E+00 -0.00000000000E+00 -0.47719578435E+02  0.47719578435E+02  0.00000000000E+00 0.  1.
         23    2    1    2    0    0  0.47243368562E+02 -0.25897878385E+02  0.77376949061E+02  0.13168300261E+03  0.91927063218E+02 0.  0.
         23    2    1    2    0    0 -0.63776102641E+02  0.38365068594E+02  0.17233137243E+03  0.20844580420E+03  0.90621639849E+02 0.  0.
        -11    1    3    3    0    0 -0.15058601537E+02  0.16257638812E+02  0.44248512584E+02  0.49487404114E+02  0.00000000000E+00 0. -1.
         11    1    3    3    0    0  0.62301970099E+02 -0.42155517197E+02  0.33128436477E+02  0.82195598494E+02  0.00000000000E+00 0.  1.
        -11    1    4    4    0    0 -0.17492712076E+02 -0.28869447021E+02  0.68555250626E+02  0.76415066155E+02  0.00000000000E+00 0.  1.
         11    1    4    4    0    0 -0.46283390565E+02  0.67234515615E+02  0.10377612180E+03  0.13203073804E+03  0.00000000000E+00 0. -1.
         21    1    1    2  502  501  0.16532734079E+02 -0.12467190209E+02  0.40207359597E+02  0.45226031150E+02  0.00000000000E+00 0.  1.
<scales pt_clust_5="13000.00000" pt_clust_6="13000.00000" pt_clust_7="13000.00000" pt_clust_8="13000.00000" pt_clust_9="20.70657"></scales>
<clustering>
<clus scale="   20.707">  1  9  2 -1</clus>
<clus scale="   90.622">  7  8 -1 -1</clus>
<clus scale="   91.927">  5  6 -1 -1</clus>
<clus scale="  109.322">  1  7  2 -1</clus>
<clus scale="   20.707">  1  5  2 -1</clus>
</clustering>
</event>
<event>
 9    1  0.9000149E-006  0.1028321E+03  0.7546771E-02  0.1274780E+00
         -2   -1    0    0    0  501 -0.00000000000E+00  0.00000000000E+00  0.25084922841E+03  0.25084922841E+03  0.00000000000E+00 0.  1.
          2   -1    0    0  502    0  0.00000000000E+00 -0.00000000000E+00 -0.13471854379E+03  0.13471854379E+03  0.00000000000E+00 0. -1.
         23    2    1    2    0    0  0.39709027756E+01  0.28337720732E+02  0.11689418757E+03  0.15132009383E+03  0.91731811414E+02 0.  0.
         23    2    1    2    0    0 -0.66122801022E+02 -0.86727143720E+02  0.25045891126E+02  0.14515049551E+03  0.92452947007E+02 0.  0.
        -11    1    3    3    0    0  0.41821355880E+02 -0.91579134545E+01  0.52343283801E+02  0.67621834828E+02  0.00000000000E+00 0. -1.
         11    1    3    3    0    0 -0.37850453105E+02  0.37495634187E+02  0.64550903767E+02  0.83698259005E+02  0.00000000000E+00 0.  1.
        -11    1    4    4    0    0 -0.24784129498E+02  0.11920973601E+02 -0.14529592574E+02  0.31104207866E+02  0.00000000000E+00 0.  1.
         11    1    4    4    0    0 -0.41338671524E+02 -0.98648117321E+02  0.39575483700E+02  0.11404628764E+03  0.00000000000E+00 0. -1.
         21    1    1    2  502  501  0.62151898247E+02  0.58389422988E+02 -0.25809394073E+02  0.89097182867E+02  0.00000000000E+00 0.  1.
<scales pt_clust_5="13000.00000" pt_clust_6="13000.00000" pt_clust_7="13000.00000" pt_clust_8="13000.00000" pt_clust_9="85.27710"></scales>
<clustering>
<clus scale="   85.277">  2  9  1 -1</clus>
<clus scale="   91.732">  5  6 -1 -1</clus>
<clus scale="   92.453">  7  8 -1 -1</clus>
<clus scale="  102.184">  1  5  2 -1</clus>
<clus scale="   85.277">  2  5  1 -1</clus>
</clustering>
</event>
<event>
 9    1  0.9000149E-006  0.1002484E+03  0.7546771E-02  0.1282059E+00
         -3   -1    0    0    0  501 -0.00000000000E+00  0.00000000000E+00  0.29919819782E+03  0.29919819782E+03  0.00000000000E+00 0.  1.
          3   -1    0    0  502    0  0.00000000000E+00 -0.00000000000E+00 -0.62269866252E+02  0.62269866252E+02  0.00000000000E+00 0. -1.
         23    2    1    2    0    0 -0.23796512989E+02 -0.19061687021E+02  0.15086786740E+03  0.17799365907E+03  0.89392434320E+02 0.  0.
         23    2    1    2    0    0  0.51218878569E+02 -0.78090710163E+01  0.95832313408E+02  0.14385732776E+03  0.93950749573E+02 0.  0.
        -11    1    3    3    0    0 -0.47055905159E+00 -0.53143684784E+02  0.84145025378E+02  0.99523152855E+02  0.00000000000E+00 0. -1.
         11    1    3    3    0    0 -0.23325953937E+02  0.34081997763E+02  0.66722842023E+02  0.78470506219E+02  0.00000000000E+00 0.  1.
        -13    1    4    4    0    0  0.68688083198E+02  0.21360113888E+02  0.75309698594E+02  0.10414344886E+03  0.00000000000E+00 0. -1.
         13    1    4    4    0    0 -0.17469204629E+02 -0.29169184904E+02  0.20522614814E+02  0.39713878898E+02  0.00000000000E+00 0.  1.
         21    1    1    2  502  501 -0.27422365580E+02  0.26870758037E+02 -0.97718492393E+01  0.39617077240E+02  0.00000000000E+00 0.  1.
<scales pt_clust_5="13000.00000" pt_clust_6="13000.00000" pt_clust_7="13000.00000" pt_clust_8="13000.00000" pt_clust_9="38.39302"></scales>
<clustering>
<clus scale="   38.393">  2  9  1 -1</clus>
<clus scale="   89.392">  5  6 -1 -1</clus>
<clus scale="   93.951">  7  8 -1 -1</clus>
<clus scale="   95.990">  1  5  2 -1</clus>
<clus scale="   38.393">  2  5  1 -1</clus>
</clustering>
</event>
<event>
 9    1  0.9000149E-006  0.9878884E+02  0.7546771E-02  0.1283702E+00
          2   -1    0    0  502    0  0.00000000000E+00  0.00000000000E+00  0.12046771914E+03  0.12046771914E+03  0.00000000000E+00 0. -1.
         -2   -1    0    0    0  501 -0.00000000000E+00 -0.00000000000E+00 -0.16052570740E+03  0.16052570740E+03  0.00000000000E+00 0.  1.
         23    2    1    2    0    0  0.42741193747E+02 -0.33221367826E+00 -0.40894309805E+02  0.10986827154E+03  0.92583867427E+02 0.  0.
         23    2    1    2    0    0  0.10954166607E+01  0.49204640374E+02  0.13489374296E+02  0.10426513520E+03  0.90922816868E+02 0.  0.
        -11    1    4    4    0    0 -0.21061737084E+02  0.61890235008E+02 -0.13883086299E+02  0.66833659510E+02  0.00000000000E+00 0.  1.
         11    1    4    4    0    0  0.22157153745E+02 -0.12685594634E+02  0.27372460595E+02  0.37431475690E+02  0.00000000000E+00 0. -1.
        -13    1    3    3    0    0 -0.21810371023E+02 -0.69002233020E+01  0.12293236338E+02  0.25969771378E+02  0.00000000000E+00 0.  1.
         13    1    3    3    0    0  0.64551564770E+02  0.65680096237E+01 -0.53187546143E+02  0.83898500162E+02  0.00000000000E+00 0. -1.
         21    1    1    2  502  501 -0.43836610408E+02 -0.48872426696E+02 -0.12653052756E+02  0.66860019797E+02  0.00000000000E+00 0.  1.
<scales pt_clust_5="13000.00000" pt_clust_6="13000.00000" pt_clust_7="13000.00000" pt_clust_8="13000.00000" pt_clust_9="65.65183"></scales>
<clustering>
<clus scale="   65.652">  2  9  1 -1</clus>
<clus scale="   90.923">  5  6 -1 -1</clus>
<clus scale="   92.584">  7  8 -1 -1</clus>
<clus scale="   97.234">  1  5  2 -1</clus>
<clus scale="   97.234">  1  5  2 -1</clus>
</clustering>
</event>
<event>
 9    1  0.9000149E-006  0.3638304E+03  0.7546771E-02  0.1057141E+00
         -1   -1    0    0    0  501 -0.00000000000E+00  0.00000000000E+00  0.21456939507E+03  0.21456939507E+03  0.00000000000E+00 0.  1.
          1   -1    0    0  502    0  0.00000000000E+00 -0.00000000000E+00 -0.10685400396E+04  0.10685400396E+04  0.00000000000E+00 0. -1.
         23    2    1    2    0    0  0.33879795354E+03  0.25405950513E+02 -0.88899680334E+02  0.36372371228E+03  0.94669266754E+02 0.  0.
         23    2    1    2    0    0 -0.37852732772E+03  0.13887258606E+02 -0.43293256999E+03  0.58257970648E+03  0.92155902980E+02 0.  0.
        -13    1    3    3    0    0  0.65296091547E+02 -0.62189047431E+01 -0.56367162774E+02  0.86484168416E+02  0.00000000000E+00 0.  1.
         13    1    3    3    0    0  0.27350186199E+03  0.31624855256E+02 -0.32532517560E+02  0.27723954386E+03  0.00000000000E+00 0. -1.
        -13    1    4    4    0    0 -0.29007564854E+02  0.17960530285E+02 -0.13754686631E+02  0.36786014614E+02  0.00000000000E+00 0. -1.
         13    1    4    4    0    0 -0.34951976287E+03 -0.40732716792E+01 -0.41917788336E+03  0.54579369186E+03  0.00000000000E+00 0.  1.
         21    1    1    2  502  501  0.39729374184E+02 -0.39293209118E+02 -0.33213839422E+03  0.33680601594E+03  0.00000000000E+00 0.  1.
<scales pt_clust_5="13000.00000" pt_clust_6="13000.00000" pt_clust_7="13000.00000" pt_clust_8="13000.00000" pt_clust_9="55.87826"></scales>
<clustering>
<clus scale="   55.878">  2  9  1 -1</clus>
<clus scale="   92.156">  7  8 -1 -1</clus>
<clus scale="   94.669">  5  6 -1 -1</clus>
<clus scale="  363.185">  2  7  1 -1</clus>
<clus scale="   55.878">  2  5  1 -1</clus>
</clustering>
</event>
<event>
 9    1  0.9000149E-006  0.1115115E+03  0.7546771E-02  0.1258973E+00
          2   -1    0    0  502    0  0.00000000000E+00  0.00000000000E+00  0.97033497004E+02  0.97033497004E+02  0.00000000000E+00 0. -1.
         -2   -1    0    0    0  501 -0.00000000000E+00 -0.00000000000E+00 -0.17320371687E+03  0.17320371687E+03  0.00000000000E+00 0.  1.
         23    2    1    2    0    0  0.28702852069E+02 -0.41043951300E+02 -0.32851063458E+02  0.10645678067E+03  0.88007920809E+02 0.  0.
         23    2    1    2    0    0 -0.30380083816E+02  0.72734077495E+02 -0.15355221458E+02  0.12148316541E+03  0.91154709866E+02 0.  0.
        -11    1    4    4    0    0 -0.31452752692E+01  0.88284813459E+02 -0.17464328812E+02  0.90050562602E+02  0.00000000000E+00 0. -1.
         11    1    4    4    0    0 -0.27234808547E+02 -0.15550735964E+02  0.21091073548E+01  0.31432602810E+02  0.00000000000E+00 0.  1.
        -13    1    3    3    0    0  0.41804999147E+02 -0.23432266337E+02  0.17903202830E+02  0.51159102131E+02  0.00000000000E+00 0.  1.
         13    1    3    3    0    0 -0.13102147078E+02 -0.17611684963E+02 -0.50754266288E+02  0.55297678538E+02  0.00000000000E+00 0. -1.
         21    1    1    2  502  501  0.16772317472E+01 -0.31690126196E+02 -0.27963934947E+02  0.42297267788E+02  0.00000000000E+00 0.  1.
<scales pt_clust_5="13000.00000" pt_clust_6="13000.00000" pt_clust_7="13000.00000" pt_clust_8="13000.00000" pt_clust_9="31.73448"></scales>
<clustering>
<clus scale="   31.734">  2  9  1 -1</clus>
<clus scale="   88.008">  7  8 -1 -1</clus>
<clus scale="   91.155">  5  6 -1 -1</clus>
<clus scale="  108.954">  2  7  1 -1</clus>
<clus scale="  111.512">  1  5  2 -1</clus>
</clustering>
</event>
<event>
 9    1  0.9000149E-006  0.1254363E+03  0.7546771E-02  0.1243792E+00
         -1   -1    0    0    0  501 -0.00000000000E+00  0.00000000000E+00  0.88106252933E+02  0.88106252933E+02  0.00000000000E+00 0.  1.
          1   -1    0    0  502    0  0.00000000000E+00 -0.00000000000E+00 -0.27559681745E+03  0.27559681745E+03  0.00000000000E+00 0. -1.
         23    2    1    2    0    0  0.24312587241E+02  0.87283132837E+01 -0.40322803740E+02  0.10358062252E+03  0.91846238404E+02 0.  0.
         23    2    1    2    0    0 -0.91094950140E+02 -0.62286933475E+01 -0.97602044353E+02  0.17691852765E+03  0.11591772859E+03 0.  0.
        -11    1    4    4    0    0 -0.10224811688E+03 -0.40504554149E+02 -0.84017467758E+02  0.13839881213E+03  0.00000000000E+00 0. -1.
         11    1    4    4    0    0  0.11153166738E+02  0.34275860801E+02 -0.13584576595E+02  0.38519715513E+02  0.00000000000E+00 0.  1.
        -11    1    3    3    0    0  0.13505818692E+02 -0.23208675609E+02  0.20671851703E+02  0.33887685298E+02  0.00000000000E+00 0. -1.
         11    1    3    3    0    0  0.10806768549E+02  0.31936988892E+02 -0.60994655443E+02  0.69692937222E+02  0.00000000000E+00 0.  1.
         21    1    1    2  502  501  0.66782362900E+02 -0.24996199361E+01 -0.49565716421E+02  0.83203920212E+02  0.00000000000E+00 0.  1.
<scales pt_clust_5="13000.00000" pt_clust_6="13000.00000" pt_clust_7="13000.00000" pt_clust_8="13000.00000" pt_clust_9="66.82913"></scales>
<clustering>
<clus scale="   66.829">  2  9  1 -1</clus>
<clus scale="   91.846">  7  8 -1 -1</clus>
<clus scale="  103.601">  1  7  2 -1</clus>
<clus scale="  115.918">  5  6 -1 -1</clus>
<clus scale="   66.829">  2  5  1 -1</clus>
</clustering>
</event>
<event>
 9    1  0.9000149E-006  0.1565894E+03  0.7546771E-02  0.1192637E+00
          2   -1    0    0  502    0  0.00000000000E+00  0.00000000000E+00  0.98323421845E+02  0.98323421845E+02  0.00000000000E+00 0. -1.
         -2   -1    0    0    0  501 -0.00000000000E+00 -0.00000000000E+00 -0.72417508780E+03  0.72417508780E+03  0.00000000000E+00 0.  1.
         23    2    1    2    0    0  0.10812653882E+03  0.74475322747E+02 -0.63574756537E+03  0.65550328618E+03  0.90948717570E+02 0.  0.
         23    2    1    2    0    0 -0.81338911203E+02 -0.59147895056E+02  0.36383924670E+01  0.13550453554E+03  0.90740009290E+02 0.  0.
        -13    1    3    3    0    0  0.36225606242E+02  0.72325157825E+02 -0.43003453242E+03  0.43757619002E+03  0.00000000000E+00 0.  1.
         13    1    3    3    0    0  0.71900932582E+02  0.21501649222E+01 -0.20571303295E+03  0.21792709616E+03  0.00000000000E+00 0. -1.
        -13    1    4    4    0    0 -0.47621025763E+02 -0.81897388867E+02  0.94835814569E+00  0.94740929809E+02  0.00000000000E+00 0. -1.
         13    1    4    4    0    0 -0.33717885441E+02  0.22749493811E+02  0.26900343214E+01  0.40763605728E+02  0.00000000000E+00 0.  1.
         21    1    1    2  502  501 -0.26787627620E+02 -0.15327427692E+02  0.62575069432E+01  0.31490687930E+02  0.00000000000E+00 0. -1.
<scales pt_clust_5="13000.00000" pt_clust_6="13000.00000" pt_clust_7="13000.00000" pt_clust_8="13000.00000" pt_clust_9="30.86271"></scales>
<clustering>
<clus scale="   30.863">  1  9  2 -1</clus>
<clus scale="   90.740">  7  8 -1 -1</clus>
<clus scale="   90.949">  5  6 -1 -1</clus>
<clus scale="  156.468">  1  7  2 -1</clus>
<clus scale="   30.863">  1  5  2 -1</clus>
</clustering>
</event>
<event>
 9    1  0.9000149E-006  0.1722554E+03  0.7546771E-02  0.1175640E+00
         -2   -1    0    0    0  501 -0.00000000000E+00  0.00000000000E+00  0.16102176881E+03  0.16102176881E+03  0.00000000000E+00 0.  1.
          2   -1    0    0  502    0  0.00000000000E+00 -0.00000000000E+00 -0.30304492878E+03  0.30304492878E+03  0.00000000000E+00 0. -1.
         23    2    1    2    0    0  0.10468633544E+03 -0.11207902324E+03  0.60513502753E+02  0.18854466475E+03  0.91467318266E+02 0.  0.
         23    2    1    2    0    0 -0.81284302596E+02  0.95074085587E+02 -0.14855685286E+03  0.21427954008E+03  0.90555856613E+02 0.  0.
        -13    1    3    3    0    0  0.19831351784E+02 -0.65284129633E+02  0.61176277934E+02  0.91639713429E+02  0.00000000000E+00 0.  1.
         13    1    3    3    0    0  0.84854983657E+02 -0.46794893610E+02 -0.66277518010E+00  0.96904951320E+02  0.00000000000E+00 0. -1.
        -13    1    4    4    0    0 -0.75683527480E+02  0.29886631273E+02 -0.48495567170E+02  0.94726063445E+02  0.00000000000E+00 0. -1.
         13    1    4    4    0    0 -0.56007751167E+01  0.65187454314E+02 -0.10006128569E+03  0.11955347664E+03  0.00000000000E+00 0.  1.
         21    1    1    2  502  501 -0.23402032844E+02  0.17004937656E+02 -0.53979809869E+02  0.61242492760E+02  0.00000000000E+00 0. -1.
<scales pt_clust_5="13000.00000" pt_clust_6="13000.00000" pt_clust_7="13000.00000" pt_clust_8="13000.00000" pt_clust_9="28.92789"></scales>
<clustering>
<clus scale="   28.928">  2  9  1 -1</clus>
<clus scale="   90.556">  7  8 -1 -1</clus>
<clus scale="   91.467">  5  6 -1 -1</clus>
<clus scale="  171.773">  2  7  1 -1</clus>
<clus scale="   28.928">  2  5  1 -1</clus>
</clustering>
</event>
<event>
 9    1  0.9000149E-006  0.9084898E+02  0.7546771E-02  0.1309191E+00
         -1   -1    0    0    0  501 -0.00000000000E+00  0.00000000000E+00  0.38561305682E+03  0.38561305682E+03  0.00000000000E+00 0.  1.
          1   -1    0    0  502    0  0.00000000000E+00 -0.00000000000E+00 -0.10145930139E+03  0.10145930139E+03  0.00000000000E+00 0. -1.
         23    2    1    2    0    0  0.86328950237E+01  0.12254397939E+02  0.35258677337E+03  0.36413864324E+03  0.89748657928E+02 0.  0.
         23    2    1    2    0    0  0.14384448607E+02 -0.11834503235E+02 -0.56293996907E+02  0.96908145791E+02  0.76649897615E+02 0.  0.
        -13    1    4    4    0    0  0.42844310995E+02 -0.21449262803E+02 -0.41664328985E+02  0.63495056257E+02  0.00000000000E+00 0.  1.
         13    1    4    4    0    0 -0.28459862387E+02  0.96147595681E+01 -0.14629667922E+02  0.33413089534E+02  0.00000000000E+00 0. -1.
        -13    1    3    3    0    0  0.25772937960E+02  0.41595366966E+02  0.27667079119E+03  0.28096466963E+03  0.00000000000E+00 0.  1.
         13    1    3    3    0    0 -0.17140042936E+02 -0.29340969027E+02  0.75915982182E+02  0.83173973609E+02  0.00000000000E+00 0. -1.
         21    1    1    2  502  501 -0.23017343631E+02 -0.41989470428E+00 -0.12139021033E+02  0.26025569178E+02  0.00000000000E+00 0.  1.
<scales pt_clust_5="13000.00000" pt_clust_6="13000.00000" pt_clust_7="13000.00000" pt_clust_8="13000.00000" pt_clust_9="23.02117"></scales>
<clustering>
<clus scale="   23.021">  2  9  1 -1</clus>
<clus scale="   76.650">  5  6 -1 -1</clus>
<clus scale="   77.935">  2  5  1 -1</clus>
<clus scale="   89.749">  7  8 -1 -1</clus>
<clus scale="   23.021">  2  5  1 -1</clus>
</clustering>
</event>
<event>
 9    1  0.9000149E-006  0.1066277E+03  0.7546771E-02  0.1267079E+00
          1   -1    0    0  502    0  0.00000000000E+00  0.00000000000E+00  0.35757016668E+03  0.35757016668E+03  0.00000000000E+00 0. -1.
         -1   -1    0    0    0  501 -0.00000000000E+00 -0.00000000000E+00 -0.10193727676E+03  0.10193727676E+03  0.00000000000E+00 0.  1.
         23    2    1    2    0    0 -0.50896184751E+02 -0.15649510711E+02 -0.52961803779E+02  0.11762353307E+03  0.90526316971E+02 0.  0.
         23    2    1    2    0    0  0.66951706306E+02  0.33274479732E+02  0.21273997099E+03  0.24310867477E+03  0.90850484369E+02 0.  0.
        -11    1    4    4    0    0  0.44359925151E+02 -0.14122536838E+02  0.36333318600E+02  0.59053865637E+02  0.00000000000E+00 0.  1.
         11    1    4    4    0    0  0.22591781154E+02  0.47397016570E+02  0.17640665239E+03  0.18405480913E+03  0.00000000000E+00 0. -1.
        -11    1    3    3    0    0 -0.47473013313E+02 -0.49834778873E+02 -0.24661189965E+02  0.73112013164E+02  0.00000000000E+00 0.  1.
         11    1    3    3    0    0 -0.34231714376E+01  0.34185268162E+02 -0.28300613814E+02  0.44511519905E+02  0.00000000000E+00 0. -1.
         21    1    1    2  502  501 -0.16055521555E+02 -0.17624969021E+02  0.95854722702E+02  0.98775235609E+02  0.00000000000E+00 0. -1.
<scales pt_clust_5="13000.00000" pt_clust_6="13000.00000" pt_clust_7="13000.00000" pt_clust_8="13000.00000" pt_clust_9="23.84155"></scales>
<clustering>
<clus scale="   23.842">  1  9  2 -1</clus>
<clus scale="   90.526">  7  8 -1 -1</clus>
<clus scale="   90.850">  5  6 -1 -1</clus>
<clus scale="  106.352">  2  7  1 -1</clus>
<clus scale="   23.842">  1  5  2 -1</clus>
</clustering>
</event>
<event>
 9    1  0.9000149E-006  0.9788634E+02  0.7546771E-02  0.1286280E+00
         -1   -1    0    0    0  501 -0.00000000000E+00  0.00000000000E+00  0.62430666660E+02  0.62430666660E+02  0.00000000000E+00 0.  1.
          1   -1    0    0  502    0  0.00000000000E+00 -0.00000000000E+00 -0.30870596694E+03  0.30870596694E+03  0.00000000000E+00 0. -1.
         23    2    1    2    0    0 -0.17579075197E+02 -0.27514459898E+02 -0.13196601595E+02  0.97673682660E+02  0.91103943946E+02 0.  0.
         23    2    1    2    0    0  0.50451993044E+02  0.15487746190E+02 -0.13749790223E+03  0.17167415381E+03  0.88210362682E+02 0.  0.
        -11    1    4    4    0    0 -0.19624340981E+02 -0.15575737803E+02 -0.23842201763E+02  0.34585675531E+02  0.00000000000E+00 0. -1.
         11    1    4    4    0    0  0.70076334025E+02  0.31063483992E+02 -0.11365570047E+03  0.13708847828E+03  0.00000000000E+00 0.  1.
        -13    1    3    3    0    0  0.22812558011E+02  0.22669518626E+02 -0.73427436089E+01  0.32988418596E+02  0.00000000000E+00 0.  1.
         13    1    3    3    0    0 -0.40391633207E+02 -0.50183978525E+02 -0.58538579865E+01  0.64685264064E+02  0.00000000000E+00 0. -1.
         21    1    1    2  502  501 -0.32872917847E+02  0.12026713709E+02 -0.95580796449E+02  0.10178879713E+03  0.00000000000E+00 0.  1.
<scales pt_clust_5="13000.00000" pt_clust_6="13000.00000" pt_clust_7="13000.00000" pt_clust_8="13000.00000" pt_clust_9="35.00387"></scales>
<clustering>
<clus scale="   35.004">  2  9  1 -1</clus>
<clus scale="   88.210">  5  6 -1 -1</clus>
<clus scale="   91.104">  7  8 -1 -1</clus>
<clus scale="   95.199">  2  5  1 -1</clus>
<clus scale="   35.004">  2  5  1 -1</clus>
</clustering>
</event>
<event>
 9    1  0.9000149E-006  0.1178345E+03  0.7546771E-02  0.1248176E+00
          1   -1    0    0  502    0  0.00000000000E+00  0.00000000000E+00  0.39062025595E+02  0.39062025595E+02  0.00000000000E+00 0. -1.
         -1   -1    0    0    0  501 -0.00000000000E+00 -0.00000000000E+00 -0.69203234730E+03  0.69203234730E+03  0.00000000000E+00 0.  1.
         23    2    1    2    0    0 -0.61774000146E+02 -0.37612564712E+02 -0.43882547271E+03  0.45467916669E+03  0.94523103018E+02 0.  0.
         23    2    1    2    0    0  0.74657306455E+02 -0.26517684563E+01 -0.20009687052E+03  0.23186700976E+03  0.90237505186E+02 0.  0.
        -13    1    3    3    0    0 -0.77432487633E+02 -0.10286389001E+01 -0.32498162504E+03  0.33408068614E+03  0.00000000000E+00 0.  1.
         13    1    3    3    0    0  0.15658487487E+02 -0.36583925812E+02 -0.11384384767E+03  0.12059848054E+03  0.00000000000E+00 0. -1.
        -13    1    4    4    0    0 -0.62912248066E+01 -0.22770730612E+02 -0.93916794440E+02  0.96842397534E+02  0.00000000000E+00 0.  1.
         13    1    4    4    0    0  0.80948531262E+02  0.20118962156E+02 -0.10618007608E+03  0.13502461223E+03  0.00000000000E+00 0. -1.
         21    1    1    2  502  501 -0.12883306310E+02  0.40264333168E+02 -0.14047978478E+02  0.44548196443E+02  0.00000000000E+00 0. -1.
<scales pt_clust_5="13000.00000" pt_clust_6="13000.00000" pt_clust_7="13000.00000" pt_clust_8="13000.00000" pt_clust_9="42.27524"></scales>
<clustering>
<clus scale="   42.275">  1  9  2 -1</clus>
<clus scale="   90.238">  7  8 -1 -1</clus>
<clus scale="   94.523">  5  6 -1 -1</clus>
<clus scale="  114.425">  1  7  2 -1</clus>
<clus scale="   42.275">  1  5  2 -1</clus>
</clustering>
</event>
<event>
 9    1  0.9000149E-006  0.1092045E+03  0.7546771E-02  0.1262918E+00
         -1   -1    0    0    0  501 -0.00000000000E+00  0.00000000000E+00  0.28841353585E+03  0.28841353585E+03  0.00000000000E+00 0.  1.
          1   -1    0    0  502    0  0.00000000000E+00 -0.00000000000E+00 -0.16538081266E+03  0.16538081266E+03  0.00000000000E+00 0. -1.
         23    2    1    2    0    0 -0.57725017835E+02 -0.32196858536E+02  0.24063244766E+03  0.26550583426E+03  0.90667291668E+02 0.  0.
         23    2    1    2    0    0  0.51425906935E+01  0.32402127265E+02 -0.71665476308E+02  0.11846796616E+03  0.88444188177E+02 0.  0.
        -11    1    3    3    0    0 -0.66518437735E+02  0.11607208124E+02  0.14430439183E+03  0.15932101977E+03  0.00000000000E+00 0.  1.
         11    1    3    3    0    0  0.87934198995E+01 -0.43804066659E+02  0.96328055830E+02  0.10618481450E+03  0.00000000000E+00 0. -1.
        -13    1    4    4    0    0 -0.16770935011E+02  0.47625277949E+02 -0.10270966490E+02  0.51525955726E+02  0.00000000000E+00 0.  1.
         13    1    4    4    0    0  0.21913525704E+02 -0.15223150684E+02 -0.61394509819E+02  0.66942010438E+02  0.00000000000E+00 0. -1.
         21    1    1    2  502  501  0.52582427142E+02 -0.20526872910E+00 -0.45934248161E+02  0.69820548075E+02  0.00000000000E+00 0. -1.
<scales pt_clust_5="13000.00000" pt_clust_6="13000.00000" pt_clust_7="13000.00000" pt_clust_8="13000.00000" pt_clust_9="52.58283"></scales>
<clustering>
<clus scale="   52.583">  2  9  1 -1</clus>
<clus scale="   88.444">  7  8 -1 -1</clus>
<clus scale="   90.667">  5  6 -1 -1</clus>
<clus scale="  107.366">  2  7  1 -1</clus>
<clus scale="   52.583">  2  5  1 -1</clus>
</clustering>
</event>
<event>
 9    1  0.9000149E-006  0.1004304E+03  0.7546771E-02  0.1279401E+00
          1   -1    0    0  502    0  0.00000000000E+00  0.00000000000E+00  0.65730125837E+03  0.65730125837E+03  0.00000000000E+00 0. -1.
         -1   -1    0    0    0  501 -0.00000000000E+00 -0.00000000000E+00 -0.26909185865E+02  0.26909185865E+02  0.00000000000E+00 0.  1.
         23    2    1    2    0    0 -0.53163398003E+02  0.23326792974E+02  0.15395038202E+03  0.18817604920E+03  0.91318230436E+02 0.  0.
         23    2    1    2    0    0  0.13267368979E+02 -0.38634738090E+01  0.28832388315E+03  0.30275008796E+03  0.91301723188E+02 0.  0.
        -11    1    3    3    0    0 -0.15952969054E+02 -0.34978068804E+02  0.45760837577E+02  0.59766351525E+02  0.00000000000E+00 0.  1.
         11    1    3    3    0    0 -0.37210428949E+02  0.58304861778E+02  0.10818954445E+03  0.12840969768E+03  0.00000000000E+00 0. -1.
        -11    1    4    4    0    0  0.40104416279E+02  0.20715136443E+02  0.22697423936E+03  0.23141907098E+03  0.00000000000E+00 0. -1.
         11    1    4    4    0    0 -0.26837047301E+02 -0.24578610252E+02  0.61349643790E+02  0.71331016977E+02  0.00000000000E+00 0.  1.
         21    1    1    2  502  501  0.39896029025E+02 -0.19463319164E+02  0.18811780734E+03  0.19328430708E+03  0.00000000000E+00 0. -1.
<scales pt_clust_5="13000.00000" pt_clust_6="13000.00000" pt_clust_7="13000.00000" pt_clust_8="13000.00000" pt_clust_9="44.39047"></scales>
<clustering>
<clus scale="   44.390">  1  9  2 -1</clus>
<clus scale="   91.302">  7  8 -1 -1</clus>
<clus scale="   91.318">  5  6 -1 -1</clus>
<clus scale="  100.415">  1  7  2 -1</clus>
<clus scale="   44.390">  1  5  2 -1</clus>
</clustering>
</event>
<event>
 9    1  0.9000149E-006  0.1713119E+03  0.7546771E-02  0.1182964E+00
          1   -1    0    0  502    0  0.00000000000E+00  0.00000000000E+00  0.10204990781E+04  0.10204990781E+04  0.00000000000E+00 0. -1.
         -1   -1    0    0    0  501 -0.00000000000E+00 -0.00000000000E+00 -0.69400676011E+02  0.69400676011E+02  0.00000000000E+00 0.  1.
         23    2    1    2    0    0  0.10996328780E+03  0.47123837089E+02  0.35883087341E+02  0.15431550008E+03  0.90626138186E+02 0.  0.
         23    2    1    2    0    0 -0.81385165352E+02 -0.49744603941E+02  0.84864450548E+03  0.86309114989E+03  0.12502306016E+03 0.  0.
        -13    1    4    4    0    0  0.69268934025E+01  0.32826772153E+02  0.12536647823E+03  0.12977801311E+03  0.00000000000E+00 0.  1.
         13    1    4    4    0    0 -0.88312058754E+02 -0.82571376094E+02  0.72327802725E+03  0.73331313678E+03  0.00000000000E+00 0. -1.
        -13    1    3    3    0    0  0.35163111247E+02  0.60357084349E+02 -0.10286067773E+01  0.69860432690E+02  0.00000000000E+00 0.  1.
         13    1    3    3    0    0  0.74800176555E+02 -0.13233247260E+02  0.36911694118E+02  0.84455067394E+02  0.00000000000E+00 0. -1.
         21    1    1    2  502  501 -0.28578122451E+02  0.26207668520E+01  0.66570809295E+02  0.72493104168E+02  0.00000000000E+00 0.  1.
<scales pt_clust_5="13000.00000" pt_clust_6="13000.00000" pt_clust_7="13000.00000" pt_clust_8="13000.00000" pt_clust_9="28.69804"></scales>
<clustering>
<clus scale="   28.698">  1  9  2 -1</clus>
<clus scale="   90.626">  7  8 -1 -1</clus>
<clus scale="  125.023">  5  6 -1 -1</clus>
<clus scale="  148.088">  2  7  1 -1</clus>
<clus scale="   28.698">  1  5  2 -1</clus>
</clustering>
</event>
<event>
 9    1  0.9000149E-006  0.1029057E+03  0.7546771E-02  0.1275184E+00
          1   -1    0    0  502    0  0.00000000000E+00  0.00000000000E+00  0.49219069937E+03  0.49219069937E+03  0.00000000000E+00 0. -1.
         -1   -1    0    0    0  501 -0.00000000000E+00 -0.00000000000E+00 -0.12085757512E+03  0.12085757512E+03  0.00000000000E+00 0.  1.
         23    2    1    2    0    0 -0.38573372404E+02  0.30184992084E+02 -0.89718804568E+02  0.13707761541E+03  0.91333290466E+02 0.  0.
         23    2    1    2    0    0  0.20307032575E+02 -0.12013152349E+02  0.35650487225E+03  0.36829539745E+03  0.89381678459E+02 0.  0.
        -11    1    3    3    0    0 -0.10463997283E+02  0.22694816251E+02 -0.10235481249E+03  0.10536155639E+03  0.00000000000E+00 0.  1.
         11    1    3    3    0    0 -0.28109375121E+02  0.74901758331E+01  0.12636007924E+02  0.31716059023E+02  0.00000000000E+00 0. -1.
        -13    1    4    4    0    0  0.41872288458E+02 -0.36004129332E+02  0.27780833776E+03  0.28324381440E+03  0.00000000000E+00 0. -1.
         13    1    4    4    0    0 -0.21565255883E+02  0.23990976983E+02  0.78696534495E+02  0.85051583051E+02  0.00000000000E+00 0.  1.
         21    1    1    2  502  501  0.18266339829E+02 -0.18171839735E+02  0.10454705657E+03  0.10767526163E+03  0.00000000000E+00 0.  1.
<scales pt_clust_5="13000.00000" pt_clust_6="13000.00000" pt_clust_7="13000.00000" pt_clust_8="13000.00000" pt_clust_9="25.76577"></scales>
<clustering>
<clus scale="   25.766">  1  9  2 -1</clus>
<clus scale="   89.382">  7  8 -1 -1</clus>
<clus scale="   91.333">  5  6 -1 -1</clus>
<clus scale="  101.178">  1  7  2 -1</clus>
<clus scale="   25.766">  1  5  2 -1</clus>
</clustering>
</event>
<event>
 9    1  0.9000149E-006  0.1124029E+03  0.7546771E-02  0.1258275E+00
         -2   -1    0    0    0  501 -0.00000000000E+00  0.00000000000E+00  0.77207133308E+02  0.77207133308E+02  0.00000000000E+00 0.  1.
          2   -1    0    0  502    0  0.00000000000E+00 -0.00000000000E+00 -0.25260995360E+03  0.25260995360E+03  0.00000000000E+00 0. -1.
         23    2    1    2    0    0  0.18499980194E+02  0.56371944010E+02 -0.28054796421E+02  0.11100729230E+03  0.89529335991E+02 0.  0.
         23    2    1    2    0    0 -0.38156056464E+02 -0.50363965519E+02 -0.59609382326E+02  0.12869583143E+03  0.94957489950E+02 0.  0.
        -11    1    4    4    0    0  0.31436138121E+02 -0.17703143397E+02 -0.27591889930E+02  0.45419648348E+02  0.00000000000E+00 0.  1.
         11    1    4    4    0    0 -0.69592194585E+02 -0.32660822122E+02 -0.32017492396E+02  0.83276183079E+02  0.00000000000E+00 0. -1.
        -13    1    3    3    0    0 -0.31110083592E+02  0.28499968553E+02 -0.33458899682E+02  0.53847780609E+02  0.00000000000E+00 0. -1.
         13    1    3    3    0    0  0.49610063786E+02  0.27871975457E+02  0.54041032604E+01  0.57159511691E+02  0.00000000000E+00 0.  1.
         21    1    1    2  502  501  0.19656076270E+02 -0.60079784912E+01 -0.87738641546E+02  0.90113963182E+02  0.00000000000E+00 0.  1.
<scales pt_clust_5="13000.00000" pt_clust_6="13000.00000" pt_clust_7="13000.00000" pt_clust_8="13000.00000" pt_clust_9="20.55376"></scales>
<clustering>
<clus scale="   20.554">  2  9  1 -1</clus>
<clus scale="   89.529">  7  8 -1 -1</clus>
<clus scale="   94.957">  5  6 -1 -1</clus>
<clus scale="  107.856">  1  7  2 -1</clus>
<clus scale="   20.554">  2  5  1 -1</clus>
</clustering>
</event>
<event>
 9    1  0.9000149E-006  0.1136515E+03  0.7546771E-02  0.1254318E+00
         -1   -1    0    0    0  501 -0.00000000000E+00  0.00000000000E+00  0.10889645559E+03  0.10889645559E+03  0.00000000000E+00 0.  1.
          1   -1    0    0  502    0  0.00000000000E+00 -0.00000000000E+00 -0.24770009153E+03  0.24770009153E+03  0.00000000000E+00 0. -1.
         23    2    1    2    0    0 -0.37188392626E+02  0.64728084507E+02  0.36938605459E+02  0.12419791372E+03  0.92130123900E+02 0.  0.
         23    2    1    2    0    0  0.19314099399E+02 -0.44149450193E+02 -0.73528323529E+02  0.12661273852E+03  0.91116204959E+02 0.  0.
        -13    1    4    4    0    0 -0.22941958977E+02 -0.46625398079E+01  0.96353112665E+01  0.25316239498E+02  0.00000000000E+00 0.  1.
         13    1    4    4    0    0  0.42256058376E+02 -0.39486910385E+02 -0.83163634796E+02  0.10129649902E+03  0.00000000000E+00 0. -1.
        -13    1    3    3    0    0  0.65718188675E+01  0.66425637361E+02 -0.24179135982E+00  0.66750375018E+02  0.00000000000E+00 0. -1.
         13    1    3    3    0    0 -0.43760211493E+02 -0.16975528532E+01  0.37180396819E+02  0.57447538705E+02  0.00000000000E+00 0.  1.
         21    1    1    2  502  501  0.17874293227E+02 -0.20578634314E+02 -0.10221391787E+03  0.10578589487E+03  0.00000000000E+00 0. -1.
<scales pt_clust_5="13000.00000" pt_clust_6="13000.00000" pt_clust_7="13000.00000" pt_clust_8="13000.00000" pt_clust_9="27.25749"></scales>
<clustering>
<clus scale="   27.257">  2  9  1 -1</clus>
<clus scale="   91.116">  5  6 -1 -1</clus>
<clus scale="   92.130">  7  8 -1 -1</clus>
<clus scale="  112.831">  2  5  1 -1</clus>
<clus scale="   27.257">  2  5  1 -1</clus>
</clustering>
</event>
<event>
 9    1  0.9000149E-006  0.1432986E+03  0.7546771E-02  0.1209158E+00
          2   -1    0    0  502    0  0.00000000000E+00  0.00000000000E+00  0.73840274097E+03  0.73840274097E+03  0.00000000000E+00 0. -1.
         -2   -1    0    0    0  501 -0.00000000000E+00 -0.00000000000E+00 -0.46755671776E+02  0.46755671776E+02  0.00000000000E+00 0.  1.
         23    2    1    2    0    0  0.32603720021E+02 -0.10057851756E+03  0.13562755400E+03  0.19505565676E+03  0.92048004178E+02 0.  0.
         23    2    1    2    0    0 -0.73351620369E+02  0.10236376800E+03  0.46699112606E+03  0.49217608663E+03  0.91092190746E+02 0.  0.
        -13    1    4    4    0    0  0.99682464535E+01  0.56823283365E+02  0.13353584027E+03  0.14546502022E+03  0.00000000000E+00 0.  1.
         13    1    4    4    0    0 -0.83319866822E+02  0.45540484637E+02  0.33345528579E+03  0.34671106641E+03  0.00000000000E+00 0. -1.
        -13    1    3    3    0    0  0.65950416529E+01 -0.99051587874E+02  0.13674409598E+03  0.16897828091E+03  0.00000000000E+00 0. -1.
         13    1    3    3    0    0  0.26008678368E+02 -0.15269296895E+01 -0.11165419806E+01  0.26077375840E+02  0.00000000000E+00 0.  1.
         21    1    1    2  502  501  0.40747900348E+02 -0.17852504384E+01  0.89028389123E+02  0.97926669359E+02  0.00000000000E+00 0. -1.
<scales pt_clust_5="13000.00000" pt_clust_6="13000.00000" pt_clust_7="13000.00000" pt_clust_8="13000.00000" pt_clust_9="40.78699"></scales>
<clustering>
<clus scale="   40.787">  1  9  2 -1</clus>
<clus scale="   91.092">  5  6 -1 -1</clus>
<clus scale="   92.048">  7  8 -1 -1</clus>
<clus scale="  142.687">  1  5  2 -1</clus>
<clus scale="   40.787">  1  5  2 -1</clus>
</clustering>
</event>
<event>
 9    1  0.9000149E-006  0.1241400E+03  0.7546771E-02  0.1247627E+00
         -2   -1    0    0    0  501 -0.00000000000E+00  0.00000000000E+00  0.48764355041E+03  0.48764355041E+03  0.00000000000E+00 0.  1.
          2   -1    0    0  502    0  0.00000000000E+00 -0.00000000000E+00 -0.53821532281E+02  0.53821532281E+02  0.00000000000E+00 0. -1.
         23    2    1    2    0    0  0.16555765971E+02  0.34256889002E+02  0.16579684681E+03  0.19307560732E+03  0.91334374140E+02 0.  0.
         23    2    1    2    0    0 -0.51065354692E+02  0.58911934781E+02  0.19015243772E+03  0.22215356892E+03  0.84356221484E+02 0.  0.
        -11    1    4    4    0    0  0.10837017860E+02  0.51251740905E+02  0.82044921213E+02  0.97342441919E+02  0.00000000000E+00 0.  1.
         11    1    4    4    0    0 -0.61902372551E+02  0.76601938757E+01  0.10810751651E+03  0.12481112700E+03  0.00000000000E+00 0. -1.
        -11    1    3    3    0    0  0.34787266995E+02 -0.97837922901E+01  0.12569006804E+03  0.13078176379E+03  0.00000000000E+00 0.  1.
         11    1    3    3    0    0 -0.18231501024E+02  0.44040681292E+02  0.40106778765E+02  0.62293843526E+02  0.00000000000E+00 0. -1.
         21    1    1    2  502  501  0.34509588720E+02 -0.93168823783E+02  0.77872733594E+02  0.12623590645E+03  0.00000000000E+00 0.  1.
<scales pt_clust_5="13000.00000" pt_clust_6="13000.00000" pt_clust_7="13000.00000" pt_clust_8="13000.00000" pt_clust_9="91.07555"></scales>
<clustering>
<clus scale="   84.356">  5  6 -1 -1</clus>
<clus scale="   91.334">  7  8 -1 -1</clus>
<clus scale="   98.942">  1  7  2 -1</clus>
<clus scale="   91.076">  2  9  1 -1</clus>
<clus scale="   91.076">  2  5  1 -1</clus>
</clustering>
</event>
<event>
 9    1  0.9000149E-006  0.1347064E+03  0.7546771E-02  0.1221490E+00
         -1   -1    0    0    0  501 -0.00000000000E+00  0.00000000000E+00  0.65518490307E+02  0.65518490307E+02  0.00000000000E+00 0.  1.
          1   -1    0    0  502    0  0.00000000000E+00 -0.00000000000E+00 -0.36624279543E+03  0.36624279543E+03  0.00000000000E+00 0. -1.
         23    2    1    2    0    0  0.88923127662E+02  0.48226917130E+02 -0.10993585896E+03  0.17631206747E+03  0.93631692728E+02 0.  0.
         23    2    1    2    0    0 -0.60553915015E+02 -0.74092413178E+02 -0.14698029029E+03  0.19719983515E+03  0.90156014416E+02 0.  0.
        -13    1    4    4    0    0 -0.48352526702E+02  0.38244410670E+01 -0.80820950132E+02  0.94258257825E+02  0.00000000000E+00 0.  1.
         13    1    4    4    0    0 -0.12201388313E+02 -0.77916854245E+02 -0.66159340161E+02  0.10294157733E+03  0.00000000000E+00 0. -1.
        -13    1    3    3    0    0  0.18396746832E+02  0.55035564966E+02 -0.19060700114E+02  0.61079161700E+02  0.00000000000E+00 0.  1.
         13    1    3    3    0    0  0.70526380831E+02 -0.68086478355E+01 -0.90875158844E+02  0.11523290578E+03  0.00000000000E+00 0. -1.
         21    1    1    2  502  501 -0.28369212647E+02  0.25865496047E+02 -0.43808155873E+02  0.58249383113E+02  0.00000000000E+00 0.  1.
<scales pt_clust_5="13000.00000" pt_clust_6="13000.00000" pt_clust_7="13000.00000" pt_clust_8="13000.00000" pt_clust_9="38.39057"></scales>
<clustering>
<clus scale="   38.391">  2  9  1 -1</clus>
<clus scale="   90.156">  5  6 -1 -1</clus>
<clus scale="   93.632">  7  8 -1 -1</clus>
<clus scale="  132.314">  2  5  1 -1</clus>
<clus scale="   38.391">  2  5  1 -1</clus>
</clustering>
</event>
<event>
 9    1  0.1654454E-005  0.9555669E+02  0.7546771E-02  0.1290293E+00
          1   -1    0    0  502    0  0.00000000000E+00  0.00000000000E+00  0.33975192286E+03  0.33975192286E+03  0.00000000000E+00 0. -1.
         -1   -1    0    0    0  501 -0.00000000000E+00 -0.00000000000E+00 -0.10876034900E+03  0.10876034900E+03  0.00000000000E+00 0.  1.
         23    2    1    2    0    0 -0.11033993965E+02  0.25370556874E+02 -0.75098872936E+02  0.12172148871E+03  0.91710773189E+02 0.  0.
         23    2    1    2    0    0 -0.90012894954E+01 -0.22502233518E+02  0.25410619643E+03  0.27100546117E+03  0.91030913414E+02 0.  0.
        -11    1    3    3    0    0 -0.10526079353E+02  0.60098432113E+02 -0.49699517880E+02  0.78693468385E+02  0.00000000000E+00 0.  1.
         11    1    3    3    0    0 -0.50791461243E+00 -0.34727875239E+02 -0.25399355055E+02  0.43028020325E+02  0.00000000000E+00 0. -1.
        -13    1    4    4    0    0 -0.44967765367E+02  0.87382299565E+01  0.10750615117E+03  0.11685901388E+03  0.00000000000E+00 0.  1.
         13    1    4    4    0    0  0.35966475871E+02 -0.31240463474E+02  0.14660004525E+03  0.15414644729E+03  0.00000000000E+00 0. -1.
         21    1    1    2  502  501  0.20035283460E+02 -0.28683233565E+01  0.51984250366E+02  0.55785321980E+02  0.00000000000E+00 0. -1.
<scales pt_clust_5="13000.00000" pt_clust_6="13000.00000" pt_clust_7="13000.00000" pt_clust_8="13000.00000" pt_clust_9="20.23956"></scales>
<clustering>
<clus scale="   20.240">  1  9  2 -1</clus>
<clus scale="   91.031">  7  8 -1 -1</clus>
<clus scale="   91.711">  5  6 -1 -1</clus>
<clus scale="   94.904">  1  7  2 -1</clus>
<clus scale="   20.240">  1  5  2 -1</clus>
</clustering>
</event>
<event>
 9    1  0.9000149E-006  0.9735687E+02  0.7546771E-02  0.1286925E+00
         -2   -1    0    0    0  501 -0.00000000000E+00  0.00000000000E+00  0.41120271712E+02  0.41120271712E+02  0.00000000000E+00 0.  1.
          2   -1    0    0  502    0  0.00000000000E+00 -0.00000000000E+00 -0.42886016296E+03  0.42886016296E+03  0.00000000000E+00 0. -1.
         23    2    1    2    0    0  0.25801614402E+02  0.26222080868E+02 -0.74382551481E+02  0.12353047852E+03  0.91507892163E+02 0.  0.
         23    2    1    2    0    0  0.12833764384E+02 -0.23537479324E+02 -0.15100224936E+03  0.17953957612E+03  0.93349138412E+02 0.  0.
        -11    1    4    4    0    0 -0.36164421375E+02  0.74718927252E+01 -0.40923056633E+02  0.55121603011E+02  0.00000000000E+00 0. -1.
         11    1    4    4    0    0  0.48998185759E+02 -0.31009372050E+02 -0.11007919272E+03  0.12441797311E+03  0.00000000000E+00 0.  1.
        -11    1    3    3    0    0  0.24095247397E+02  0.57813923212E+02 -0.65592877203E+02  0.90694300836E+02  0.00000000000E+00 0. -1.
         11    1    3    3    0    0  0.17063670045E+01 -0.31591842344E+02 -0.87896742779E+01  0.32836177685E+02  0.00000000000E+00 0.  1.
         21    1    1    2  502  501 -0.38635378785E+02 -0.26846015433E+01 -0.16235509041E+03  0.16691038003E+03  0.00000000000E+00 0. -1.
<scales pt_clust_5="13000.00000" pt_clust_6="13000.00000" pt_clust_7="13000.00000" pt_clust_8="13000.00000" pt_clust_9="38.72854"></scales>
<clustering>
<clus scale="   38.729">  2  9  1 -1</clus>
<clus scale="   91.508">  7  8 -1 -1</clus>
<clus scale="   93.349">  5  6 -1 -1</clus>
<clus scale="   95.593">  1  7  2 -1</clus>
<clus scale="   38.729">  2  5  1 -1</clus>
</clustering>
</event>
<event>
 9    1  0.9000149E-006  0.2885138E+03  0.7546771E-02  0.1091269E+00
          2   -1    0    0  502    0  0.00000000000E+00  0.00000000000E+00  0.14807842176E+03  0.14807842176E+03  0.00000000000E+00 0. -1.
         -2   -1    0    0    0  501 -0.00000000000E+00 -0.00000000000E+00 -0.18410809700E+04  0.18410809700E+04  0.00000000000E+00 0.  1.
         23    2    1    2    0    0  0.27137450324E+03  0.42060971180E+02 -0.13830216003E+04  0.14130328619E+04  0.92194769968E+02 0.  0.
         23    2    1    2    0    0 -0.24735397603E+03 -0.11503051771E+03 -0.37640602452E+03  0.47456949530E+03  0.95491890306E+02 0.  0.
        -11    1    4    4    0    0 -0.16117860740E+02 -0.44311339876E+02 -0.57798271866E+02  0.74591691944E+02  0.00000000000E+00 0.  1.
         11    1    4    4    0    0 -0.23123611529E+03 -0.70719177837E+02 -0.31860775266E+03  0.39997780336E+03  0.00000000000E+00 0. -1.
        -13    1    3    3    0    0  0.17612264228E+03  0.71216642360E+02 -0.89068595756E+03  0.91072085200E+03  0.00000000000E+00 0.  1.
         13    1    3    3    0    0  0.95251860962E+02 -0.29155671180E+02 -0.49233564278E+03  0.50231200994E+03  0.00000000000E+00 0. -1.
         21    1    1    2  502  501 -0.24020527205E+02  0.72969546532E+02  0.66425076641E+02  0.10155703449E+03  0.00000000000E+00 0. -1.
<scales pt_clust_5="13000.00000" pt_clust_6="13000.00000" pt_clust_7="13000.00000" pt_clust_8="13000.00000" pt_clust_9="76.82148"></scales>
<clustering>
<clus scale="   76.821">  1  9  2 -1</clus>
<clus scale="   92.195">  7  8 -1 -1</clus>
<clus scale="   95.492">  5  6 -1 -1</clus>
<clus scale="  287.439">  2  7  1 -1</clus>
<clus scale="   76.821">  1  5  2 -1</clus>
</clustering>
</event>
<event>
 9    1  0.9000149E-006  0.9960823E+02  0.7546771E-02  0.1285515E+00
          1   -1    0    0  502    0  0.00000000000E+00  0.00000000000E+00  0.16557722454E+03  0.16557722454E+03  0.00000000000E+00 0. -1.
         -1   -1    0    0    0  501 -0.00000000000E+00 -0.00000000000E+00 -0.97925884257E+02  0.97925884257E+02  0.00000000000E+00 0.  1.
         23    2    1    2    0    0 -0.39159976265E+01 -0.12175954485E+02 -0.61154374154E+01  0.91388704080E+02  0.90282377869E+02 0.  0.
         23    2    1    2    0    0 -0.18577140945E+02  0.17897521121E+02  0.75508210513E+01  0.10194866862E+03  0.98341673296E+02 0.  0.
        -11    1    3    3    0    0  0.23730155440E+02 -0.34192868263E+01 -0.40095112155E+02  0.46716483369E+02  0.00000000000E+00 0.  1.
         11    1    3    3    0    0 -0.27646153066E+02 -0.87566676588E+01  0.33979674740E+02  0.44672220711E+02  0.00000000000E+00 0. -1.
        -13    1    4    4    0    0  0.16000147202E+02  0.42449116886E+02 -0.21844270948E+02  0.50349820339E+02  0.00000000000E+00 0. -1.
         13    1    4    4    0    0 -0.34577288148E+02 -0.24551595764E+02  0.29395091999E+02  0.51598848280E+02  0.00000000000E+00 0.  1.
         21    1    1    2  502  501  0.22493138572E+02 -0.57215666363E+01  0.66215956648E+02  0.70165736099E+02  0.00000000000E+00 0.  1.
<scales pt_clust_5="13000.00000" pt_clust_6="13000.00000" pt_clust_7="13000.00000" pt_clust_8="13000.00000" pt_clust_9="23.20943"></scales>
<clustering>
<clus scale="   23.209">  1  9  2 -1</clus>
<clus scale="   90.282">  5  6 -1 -1</clus>
<clus scale="   91.660">  2  5  1 -1</clus>
<clus scale="   98.342">  7  8 -1 -1</clus>
<clus scale="   23.209">  1  5  2 -1</clus>
</clustering>
</event>
<event>
 9    1  0.9000149E-006  0.1203304E+03  0.7546771E-02  0.1242719E+00
         -1   -1    0    0    0  501 -0.00000000000E+00  0.00000000000E+00  0.34694704189E+03  0.34694704189E+03  0.00000000000E+00 0.  1.
          1   -1    0    0  502    0  0.00000000000E+00 -0.00000000000E+00 -0.10190467529E+03  0.10190467529E+03  0.00000000000E+00 0. -1.
         23    2    1    2    0    0  0.78265922675E+02  0.14334753978E+02  0.27797181319E+03  0.30341831652E+03  0.91996228432E+02 0.  0.
         23    2    1    2    0    0 -0.64879882677E+02  0.10344272392E+02 -0.24153500728E+02  0.11601813872E+03  0.92522504116E+02 0.  0.
        -13    1    3    3    0    0  0.41192618995E+02  0.11383713650E+02  0.25738720926E+03  0.26091108885E+03  0.00000000000E+00 0.  1.
         13    1    3    3    0    0  0.37073303680E+02  0.29510403284E+01  0.20584603934E+02  0.42507227667E+02  0.00000000000E+00 0. -1.
        -13    1    4    4    0    0  0.94751965129E+00  0.40203198236E+02 -0.15986471849E+02  0.43275422864E+02  0.00000000000E+00 0.  1.
         13    1    4    4    0    0 -0.65827402328E+02 -0.29858925844E+02 -0.81670288792E+01  0.72742715859E+02  0.00000000000E+00 0. -1.
         21    1    1    2  502  501 -0.13386039998E+02 -0.24679026370E+02 -0.87759458656E+01  0.29415261944E+02  0.00000000000E+00 0.  1.
<scales pt_clust_5="13000.00000" pt_clust_6="13000.00000" pt_clust_7="13000.00000" pt_clust_8="13000.00000" pt_clust_9="28.07562"></scales>
<clustering>
<clus scale="   28.076">  2  9  1 -1</clus>
<clus scale="   91.996">  5  6 -1 -1</clus>
<clus scale="   92.523">  7  8 -1 -1</clus>
<clus scale="  119.926">  1  5  2 -1</clus>
<clus scale="   28.076">  2  5  1 -1</clus>
</clustering>
</event>
<event>
 9    1  0.9000149E-006  0.1156324E+03  0.7546771E-02  0.1251624E+00
         -2   -1    0    0    0  501 -0.00000000000E+00  0.00000000000E+00  0.22774478391E+03  0.22774478391E+03  0.00000000000E+00 0.  1.
          2   -1    0    0  502    0  0.00000000000E+00 -0.00000000000E+00 -0.20592324117E+03  0.20592324117E+03  0.00000000000E+00 0. -1.
         23    2    1    2    0    0  0.36698924096E+02  0.53401113353E+02  0.17583398506E+03  0.20969160328E+03  0.94098290356E+02 0.  0.
         23    2    1    2    0    0 -0.28474167229E+02 -0.84355100800E+02 -0.10275485723E+03  0.16353524383E+03  0.90877137164E+02 0.  0.
        -11    1    3    3    0    0  0.23893596526E+02  0.79798186585E+02  0.11338454866E+03  0.14069367581E+03  0.00000000000E+00 0.  1.
         11    1    3    3    0    0  0.12805327570E+02 -0.26397073231E+02  0.62449436398E+02  0.68997927474E+02  0.00000000000E+00 0. -1.
        -11    1    4    4    0    0  0.26540038576E+02 -0.38212438205E+02 -0.12447206418E+02  0.48161156847E+02  0.00000000000E+00 0.  1.
         11    1    4    4    0    0 -0.55014205805E+02 -0.46142662595E+02 -0.90307650808E+02  0.11537408698E+03  0.00000000000E+00 0. -1.
         21    1    1    2  502  501 -0.82247568671E+01  0.30953987447E+02 -0.51257585097E+02  0.60441177969E+02  0.00000000000E+00 0. -1.
<scales pt_clust_5="13000.00000" pt_clust_6="13000.00000" pt_clust_7="13000.00000" pt_clust_8="13000.00000" pt_clust_9="32.02805"></scales>
<clustering>
<clus scale="   32.028">  2  9  1 -1</clus>
<clus scale="   90.877">  7  8 -1 -1</clus>
<clus scale="   94.098">  5  6 -1 -1</clus>
<clus scale="  113.027">  2  7  1 -1</clus>
<clus scale="   32.028">  2  5  1 -1</clus>
</clustering>
</event>
<event>
 9    1  0.9000149E-006  0.1074183E+03  0.7546771E-02  0.1267130E+00
          2   -1    0    0  502    0  0.00000000000E+00  0.00000000000E+00  0.36392531960E+03  0.36392531960E+03  0.00000000000E+00 0. -1.
         -2   -1    0    0    0  501 -0.00000000000E+00 -0.00000000000E+00 -0.40550224649E+02  0.40550224649E+02  0.00000000000E+00 0.  1.
         23    2    1    2    0    0 -0.61494527363E+02  0.13374040954E+02  0.11027641762E+03  0.15704239763E+03  0.92417446967E+02 0.  0.
         23    2    1    2    0    0  0.40637183359E+02 -0.21386005893E+02  0.14596493013E+03  0.17667892134E+03  0.88322921707E+02 0.  0.
        -11    1    4    4    0    0  0.53036151608E+02 -0.47039882908E+02  0.99444405612E+02  0.12212605688E+03  0.00000000000E+00 0. -1.
         11    1    4    4    0    0 -0.12398968249E+02  0.25653877014E+02  0.46520524513E+02  0.54552864457E+02  0.00000000000E+00 0.  1.
        -13    1    3    3    0    0  0.98783353692E+01 -0.25353063201E+02  0.12499505497E+02  0.29943228968E+02  0.00000000000E+00 0. -1.
         13    1    3    3    0    0 -0.71372862732E+02  0.38727104155E+02  0.97776912123E+02  0.12709916866E+03  0.00000000000E+00 0.  1.
         21    1    1    2  502  501  0.20857344004E+02  0.80119649392E+01  0.67133747206E+02  0.70754225280E+02  0.00000000000E+00 0.  1.
<scales pt_clust_5="13000.00000" pt_clust_6="13000.00000" pt_clust_7="13000.00000" pt_clust_8="13000.00000" pt_clust_9="22.34324"></scales>
<clustering>
<clus scale="   22.343">  1  9  2 -1</clus>
<clus scale="   88.323">  5  6 -1 -1</clus>
<clus scale="   92.417">  7  8 -1 -1</clus>
<clus scale="  103.917">  1  5  2 -1</clus>
<clus scale="   22.343">  1  5  2 -1</clus>
</clustering>
</event>
<event>
 9    1  0.9000149E-006  0.9885775E+02  0.7546771E-02  0.1284457E+00
         -1   -1    0    0    0  501 -0.00000000000E+00  0.00000000000E+00  0.85225757455E+02  0.85225757455E+02  0.00000000000E+00 0.  1.
          1   -1    0    0  502    0  0.00000000000E+00 -0.00000000000E+00 -0.19235454271E+03  0.19235454271E+03  0.00000000000E+00 0. -1.
         23    2    1    2    0    0  0.26381147428E+02 -0.18020400232E+02 -0.67869527361E+01  0.98305308294E+02  0.92720931549E+02 0.  0.
         23    2    1    2    0    0  0.19593229818E+01  0.52706103981E+02 -0.72423347451E+02  0.12649505140E+03  0.89297729138E+02 0.  0.
        -11    1    4    4    0    0  0.42591798481E+02  0.40085133519E+02 -0.27532245622E+02  0.64644441184E+02  0.00000000000E+00 0. -1.
         11    1    4    4    0    0 -0.40632475499E+02  0.12620970463E+02 -0.44891101830E+02  0.61850610216E+02  0.00000000000E+00 0.  1.
        -11    1    3    3    0    0  0.39334410001E+02  0.46840643987E+01 -0.39829120008E+02  0.56173793445E+02  0.00000000000E+00 0. -1.
         11    1    3    3    0    0 -0.12953262573E+02 -0.22704464630E+02  0.33042167272E+02  0.42131514849E+02  0.00000000000E+00 0.  1.
         21    1    1    2  502  501 -0.28340470409E+02 -0.34685703750E+02 -0.27918485069E+02  0.52779940472E+02  0.00000000000E+00 0.  1.
<scales pt_clust_5="13000.00000" pt_clust_6="13000.00000" pt_clust_7="13000.00000" pt_clust_8="13000.00000" pt_clust_9="44.79152"></scales>
<clustering>
<clus scale="   44.792">  2  9  1 -1</clus>
<clus scale="   89.298">  5  6 -1 -1</clus>
<clus scale="   92.721">  7  8 -1 -1</clus>
<clus scale="   95.654">  2  5  1 -1</clus>
<clus scale="   44.792">  2  5  1 -1</clus>
</clustering>
</event>
<event>
 9    1  0.9000149E-006  0.1137537E+03  0.7546771E-02  0.1254242E+00
          2   -1    0    0  502    0  0.00000000000E+00  0.00000000000E+00  0.39958505314E+03  0.39958505314E+03  0.00000000000E+00 0. -1.
         -2   -1    0    0    0  501 -0.00000000000E+00 -0.00000000000E+00 -0.10331385982E+03  0.10331385982E+03  0.00000000000E+00 0.  1.
         23    2    1    2    0    0 -0.53007941379E+02  0.39907175837E+02 -0.51729937746E+02  0.12478233886E+03  0.92153247905E+02 0.  0.
         23    2    1    2    0    0  0.60144846506E+02 -0.63381228276E+01  0.29126471960E+03  0.31180792368E+03  0.93442335284E+02 0.  0.
        -11    1    3    3    0    0 -0.25715820822E+02  0.59369144416E+02 -0.62115059136E+02  0.89689906459E+02  0.00000000000E+00 0.  1.
         11    1    3    3    0    0 -0.27292120557E+02 -0.19461968579E+02  0.10385121390E+02  0.35092432400E+02  0.00000000000E+00 0. -1.
        -11    1    4    4    0    0 -0.15721486859E+02 -0.24510575793E+02  0.12205666662E+03  0.12548212359E+03  0.00000000000E+00 0. -1.
         11    1    4    4    0    0  0.75866333365E+02  0.18172452965E+02  0.16920805298E+03  0.18632580009E+03  0.00000000000E+00 0.  1.
         21    1    1    2  502  501 -0.71369051269E+01 -0.33569053009E+02  0.56736411466E+02  0.66308650422E+02  0.00000000000E+00 0. -1.
<scales pt_clust_5="13000.00000" pt_clust_6="13000.00000" pt_clust_7="13000.00000" pt_clust_8="13000.00000" pt_clust_9="34.31933"></scales>
<clustering>
<clus scale="   34.319">  1  9  2 -1</clus>
<clus scale="   92.153">  5  6 -1 -1</clus>
<clus scale="   93.442">  7  8 -1 -1</clus>
<clus scale="  112.697">  2  5  1 -1</clus>
<clus scale="   34.319">  1  5  2 -1</clus>
</clustering>
</event>
<event>
 9    1  0.9000149E-006  0.1049266E+03  0.7546771E-02  0.1270481E+00
          2   -1    0    0  502    0  0.00000000000E+00  0.00000000000E+00  0.70274411922E+03  0.70274411922E+03  0.00000000000E+00 0. -1.
         -2   -1    0    0    0  501 -0.00000000000E+00 -0.00000000000E+00 -0.56284456755E+02  0.56284456755E+02  0.00000000000E+00 0.  1.
         23    2    1    2    0    0  0.13317657000E+02  0.58083837477E+02  0.32351505378E+02  0.11338065432E+03  0.90870571193E+02 0.  0.
         23    2    1    2    0    0  0.54617660350E+02 -0.29091638088E+02  0.23779795833E+03  0.26215721688E+03  0.91373547288E+02 0.  0.
        -11    1    3    3    0    0  0.50781038623E+02  0.45118101536E+02  0.28092926541E+02  0.73508975585E+02  0.00000000000E+00 0.  1.
         11    1    3    3    0    0 -0.37463381623E+02  0.12965735941E+02  0.42585788364E+01  0.39871678732E+02  0.00000000000E+00 0. -1.
        -13    1    4    4    0    0  0.62207904610E+02  0.60239374741E+01  0.20197035375E+03  0.21141933453E+03  0.00000000000E+00 0.  1.
         13    1    4    4    0    0 -0.75902442598E+01 -0.35115575562E+02  0.35827604585E+02  0.50737882349E+02  0.00000000000E+00 0. -1.
         21    1    1    2  502  501 -0.67935317350E+02 -0.28992199390E+02  0.37631019876E+03  0.38349070479E+03  0.00000000000E+00 0. -1.
<scales pt_clust_5="13000.00000" pt_clust_6="13000.00000" pt_clust_7="13000.00000" pt_clust_8="13000.00000" pt_clust_9="73.86308"></scales>
<clustering>
<clus scale="   73.863">  1  9  2 -1</clus>
<clus scale="   90.871">  5  6 -1 -1</clus>
<clus scale="   91.374">  7  8 -1 -1</clus>
<clus scale="  104.489">  2  5  1 -1</clus>
<clus scale="   73.863">  1  5  2 -1</clus>
</clustering>
</event>
<event>
 9    1  0.9000149E-006  0.1304470E+03  0.7546771E-02  0.1233626E+00
          2   -1    0    0  502    0  0.00000000000E+00  0.00000000000E+00  0.80053850178E+03  0.80053850178E+03  0.00000000000E+00 0. -1.
         -2   -1    0    0    0  501 -0.00000000000E+00 -0.00000000000E+00 -0.42254166550E+02  0.42254166550E+02  0.00000000000E+00 0.  1.
         23    2    1    2    0    0  0.23599493641E+02 -0.64981980973E+02  0.77402311087E+02  0.13875454069E+03  0.92098375935E+02 0.  0.
         23    2    1    2    0    0  0.20887432203E+02  0.61469821028E+02  0.42926967846E+03  0.44849910060E+03  0.11253516194E+03 0.  0.
        -11    1    3    3    0    0 -0.17827560457E+02 -0.28315389410E+02 -0.10345113230E+02  0.35022914742E+02  0.00000000000E+00 0.  1.
         11    1    3    3    0    0  0.41427054098E+02 -0.36666591563E+02  0.87747424317E+02  0.10373162595E+03  0.00000000000E+00 0. -1.
        -13    1    4    4    0    0  0.49471173034E+02  0.58594399177E+02  0.40074082097E+03  0.40801213973E+03  0.00000000000E+00 0. -1.
         13    1    4    4    0    0 -0.28583740831E+02  0.28754218514E+01  0.28528857492E+02  0.40486960870E+02  0.00000000000E+00 0.  1.
         21    1    1    2  502  501 -0.44486925844E+02  0.35121599451E+01  0.25161234568E+03  0.25553902703E+03  0.00000000000E+00 0. -1.
<scales pt_clust_5="13000.00000" pt_clust_6="13000.00000" pt_clust_7="13000.00000" pt_clust_8="13000.00000" pt_clust_9="44.62535"></scales>
<clustering>
<clus scale="   44.625">  1  9  2 -1</clus>
<clus scale="   92.098">  5  6 -1 -1</clus>
<clus scale="  112.535">  7  8 -1 -1</clus>
<clus scale="  113.289">  2  5  1 -1</clus>
<clus scale="   44.625">  1  5  2 -1</clus>
</clustering>
</event>
<event>
 9    1  0.9000149E-006  0.9652589E+02  0.7546771E-02  0.1287870E+00
         -2   -1    0    0    0  501 -0.00000000000E+00  0.00000000000E+00  0.13080710392E+03  0.13080710392E+03  0.00000000000E+00 0.  1.
          2   -1    0    0  502    0  0.00000000000E+00 -0.00000000000E+00 -0.11477058145E+03  0.11477058145E+03  0.00000000000E+00 0. -1.
         23    2    1    2    0    0 -0.47312834825E+02 -0.43233938625E+01  0.34318410295E+02  0.10816109883E+03  0.90905852069E+02 0.  0.
         23    2    1    2    0    0  0.90403142240E+01  0.16956081185E+02  0.16614881425E+00  0.93091642342E+02  0.91086718561E+02 0.  0.
        -11    1    4    4    0    0  0.45645614609E+02  0.29524941879E+02 -0.99370374288E+00  0.54371240312E+02  0.00000000000E+00 0. -1.
         11    1    4    4    0    0 -0.36605300385E+02 -0.12568860694E+02  0.11598525571E+01  0.38720402030E+02  0.00000000000E+00 0.  1.
        -13    1    3    3    0    0 -0.59056856754E+02  0.23582000016E+02  0.42880376314E+02  0.76697781762E+02  0.00000000000E+00 0.  1.
         13    1    3    3    0    0  0.11744021929E+02 -0.27905393878E+02 -0.85619660185E+01  0.31463317064E+02  0.00000000000E+00 0. -1.
         21    1    1    2  502  501  0.38272520601E+02 -0.12632687323E+02 -0.18448036641E+02  0.44324944197E+02  0.00000000000E+00 0. -1.
<scales pt_clust_5="13000.00000" pt_clust_6="13000.00000" pt_clust_7="13000.00000" pt_clust_8="13000.00000" pt_clust_9="40.30348"></scales>
<clustering>
<clus scale="   40.303">  2  9  1 -1</clus>
<clus scale="   90.906">  7  8 -1 -1</clus>
<clus scale="   91.087">  5  6 -1 -1</clus>
<clus scale="   96.355">  1  7  2 -1</clus>
<clus scale="   40.303">  2  5  1 -1</clus>
</clustering>
</event>
<event>
 9    1  0.9000149E-006  0.2648178E+03  0.7546771E-02  0.1104435E+00
         -1   -1    0    0    0  501 -0.00000000000E+00  0.00000000000E+00  0.52408909070E+03  0.52408909070E+03  0.00000000000E+00 0.  1.
          1   -1    0    0  502    0  0.00000000000E+00 -0.00000000000E+00 -0.37237291572E+03  0.37237291572E+03  0.00000000000E+00 0. -1.
         23    2    1    2    0    0  0.23708664565E+03 -0.14852249302E+03  0.26487046329E+03  0.39626556628E+03  0.92741728581E+02 0.  0.
         23    2    1    2    0    0 -0.22986841569E+03 -0.13009463748E+02  0.69069369332E+02  0.25657760403E+03  0.89737140758E+02 0.  0.
        -13    1    4    4    0    0 -0.30792448269E+02 -0.13824561327E+02 -0.19173732060E+02  0.38819136613E+02  0.00000000000E+00 0.  1.
         13    1    4    4    0    0 -0.19907596743E+03  0.81509757890E+00  0.88243101392E+02  0.21775846742E+03  0.00000000000E+00 0. -1.
        -13    1    3    3    0    0  0.15032211453E+03 -0.10407166488E+03  0.22749345701E+03  0.29185770939E+03  0.00000000000E+00 0.  1.
         13    1    3    3    0    0  0.86764531117E+02 -0.44450828144E+02  0.37377006279E+02  0.10440785689E+03  0.00000000000E+00 0. -1.
         21    1    1    2  502  501 -0.72182299519E+01  0.16153195677E+03 -0.18222365764E+03  0.24361883610E+03  0.00000000000E+00 0. -1.
<scales pt_clust_5="13000.00000" pt_clust_6="13000.00000" pt_clust_7="13000.00000" pt_clust_8="13000.00000" pt_clust_9="161.69315"></scales>
<clustering>
<clus scale="   89.737">  5  6 -1 -1</clus>
<clus scale="   92.742">  7  8 -1 -1</clus>
<clus scale="  161.693">  2  9  1 -1</clus>
<clus scale="  263.781">  2  5  1 -1</clus>
<clus scale="  161.693">  2  5  1 -1</clus>
</clustering>
</event>
<event>
 9    1  0.9000149E-006  0.1009504E+03  0.7546771E-02  0.1285987E+00
          2   -1    0    0  502    0  0.00000000000E+00  0.00000000000E+00  0.22242860313E+03  0.22242860313E+03  0.00000000000E+00 0. -1.
         -2   -1    0    0    0  501 -0.00000000000E+00 -0.00000000000E+00 -0.62992426225E+02  0.62992426225E+02  0.00000000000E+00 0.  1.
         23    2    1    2    0    0 -0.32774033795E+02  0.18655833993E+02  0.46355188245E+02  0.10902363989E+03  0.91187571214E+02 0.  0.
         23    2    1    2    0    0  0.21894672874E+02 -0.48364817270E+02  0.48441949175E+02  0.10443080273E+03  0.75766997227E+02 0.  0.
        -11    1    4    4    0    0  0.22064137063E+02 -0.68460814422E+02  0.33270612472E+02  0.79250507317E+02  0.00000000000E+00 0.  1.
         11    1    4    4    0    0 -0.16946418949E+00  0.20095997152E+02  0.15171336703E+02  0.25180295411E+02  0.00000000000E+00 0. -1.
        -13    1    3    3    0    0  0.29635180542E+02  0.20734920152E+02  0.18922802029E+02  0.40819765753E+02  0.00000000000E+00 0.  1.
         13    1    3    3    0    0 -0.62409214337E+02 -0.20790861598E+01  0.27432386215E+02  0.68203874134E+02  0.00000000000E+00 0. -1.
         21    1    1    2  502  501  0.10879360921E+02  0.29708983277E+02  0.64639039481E+02  0.71966586737E+02  0.00000000000E+00 0.  1.
<scales pt_clust_5="13000.00000" pt_clust_6="13000.00000" pt_clust_7="13000.00000" pt_clust_8="13000.00000" pt_clust_9="31.63833"></scales>
<clustering>
<clus scale="   31.638">  1  9  2 -1</clus>
<clus scale="   75.767">  5  6 -1 -1</clus>
<clus scale="   87.272">  1  5  2 -1</clus>
<clus scale="   91.188">  7  8 -1 -1</clus>
<clus scale="   31.638">  1  5  2 -1</clus>
</clustering>
</event>
<event>
 9    1  0.9000149E-006  0.1840450E+03  0.7546771E-02  0.1164791E+00
          2   -1    0    0  502    0  0.00000000000E+00  0.00000000000E+00  0.19614143221E+03  0.19614143221E+03  0.00000000000E+00 0. -1.
         -2   -1    0    0    0  501 -0.00000000000E+00 -0.00000000000E+00 -0.48374293751E+03  0.48374293751E+03  0.00000000000E+00 0.  1.
         23    2    1    2    0    0  0.11107205390E+03 -0.10768498266E+03 -0.38984947951E+03  0.42907253242E+03  0.90485163176E+02 0.  0.
         23    2    1    2    0    0 -0.14127557322E+03  0.94515025969E+02  0.90864780393E+02  0.21595100771E+03  0.97398930647E+02 0.  0.
        -11    1    3    3    0    0  0.67075639705E+02 -0.99104468219E+02 -0.19225261737E+03  0.22645508594E+03  0.00000000000E+00 0. -1.
         11    1    3    3    0    0  0.43996414191E+02 -0.85805144380E+01 -0.19759686214E+03  0.20261744647E+03  0.00000000000E+00 0.  1.
        -11    1    4    4    0    0 -0.69803197456E+02  0.10208428297E+03  0.63770654934E+02  0.13914159563E+03  0.00000000000E+00 0.  1.
         11    1    4    4    0    0 -0.71472375764E+02 -0.75692569996E+01  0.27094125459E+02  0.76809412075E+02  0.00000000000E+00 0. -1.
         21    1    1    2  502  501  0.30203519324E+02  0.13169956688E+02  0.11383193817E+02  0.34860829597E+02  0.00000000000E+00 0.  1.
<scales pt_clust_5="13000.00000" pt_clust_6="13000.00000" pt_clust_7="13000.00000" pt_clust_8="13000.00000" pt_clust_9="32.94997"></scales>
<clustering>
<clus scale="   32.950">  1  9  2 -1</clus>
<clus scale="   90.485">  5  6 -1 -1</clus>
<clus scale="   97.399">  7  8 -1 -1</clus>
<clus scale="  180.482">  2  5  1 -1</clus>
<clus scale="   32.950">  1  5  2 -1</clus>
</clustering>
</event>
<event>
 9    1  0.9000149E-006  0.9280633E+02  0.7546771E-02  0.1297745E+00
         -1   -1    0    0    0  501 -0.00000000000E+00  0.00000000000E+00  0.28475485487E+03  0.28475485487E+03  0.00000000000E+00 0.  1.
          1   -1    0    0  502    0  0.00000000000E+00 -0.00000000000E+00 -0.30250297590E+03  0.30250297590E+03  0.00000000000E+00 0. -1.
         23    2    1    2    0    0 -0.37134919131E+01 -0.29896617928E+02  0.26710262972E+03  0.28283179380E+03  0.87990971102E+02 0.  0.
         23    2    1    2    0    0 -0.45441223625E+01  0.10646879463E+02 -0.23949977164E+03  0.25447153836E+03  0.85215128518E+02 0.  0.
        -11    1    4    4    0    0  0.33435370453E+02  0.12639489512E+02 -0.18237331874E+03  0.18584323523E+03  0.00000000000E+00 0.  1.
         11    1    4    4    0    0 -0.37979492816E+02 -0.19926100485E+01 -0.57126452899E+02  0.68628303127E+02  0.00000000000E+00 0. -1.
        -13    1    3    3    0    0  0.36713132868E+02  0.40927284480E+00  0.66479197628E+02  0.75944093560E+02  0.00000000000E+00 0. -1.
         13    1    3    3    0    0 -0.40426624782E+02 -0.30305890773E+02  0.20062343209E+03  0.20688770024E+03  0.00000000000E+00 0.  1.
         21    1    1    2  502  501  0.82576142757E+01  0.19249738465E+02 -0.45350979120E+02  0.49954498612E+02  0.00000000000E+00 0. -1.
<scales pt_clust_5="13000.00000" pt_clust_6="13000.00000" pt_clust_7="13000.00000" pt_clust_8="13000.00000" pt_clust_9="20.94614"></scales>
<clustering>
<clus scale="   20.946">  2  9  1 -1</clus>
<clus scale="   85.215">  5  6 -1 -1</clus>
<clus scale="   87.991">  7  8 -1 -1</clus>
<clus scale="   90.179">  2  5  1 -1</clus>
<clus scale="   20.946">  2  5  1 -1</clus>
</clustering>
</event>
<event>
 9    1  0.9000149E-006  0.9805686E+02  0.7546771E-02  0.1286796E+00
          1   -1    0    0  502    0  0.00000000000E+00  0.00000000000E+00  0.24777442561E+03  0.24777442561E+03  0.00000000000E+00 0. -1.
         -1   -1    0    0    0  501 -0.00000000000E+00 -0.00000000000E+00 -0.55473187158E+02  0.55473187158E+02  0.00000000000E+00 0.  1.
         23    2    1    2    0    0 -0.79775796752E+01 -0.20971976044E+02  0.48022657078E+02  0.10588165927E+03  0.91658521813E+02 0.  0.
         23    2    1    2    0    0  0.21847584385E+02  0.51875253287E+01  0.72014312797E+02  0.12210872509E+03  0.96022143966E+02 0.  0.
        -13    1    3    3    0    0 -0.45732113284E+02  0.35624153743E+01  0.99978465459E+01  0.46947565691E+02  0.00000000000E+00 0. -1.
         13    1    3    3    0    0  0.37754533609E+02 -0.24534391418E+02  0.38024810532E+02  0.58934093582E+02  0.00000000000E+00 0.  1.
        -13    1    4    4    0    0 -0.20781128744E+02 -0.72550864835E+01  0.74448847675E+02  0.77634544578E+02  0.00000000000E+00 0. -1.
         13    1    4    4    0    0  0.42628713128E+02  0.12442611812E+02 -0.24345348777E+01  0.44474180507E+02  0.00000000000E+00 0.  1.
         21    1    1    2  502  501 -0.13870004709E+02  0.15784450715E+02  0.72264268579E+02  0.75257228412E+02  0.00000000000E+00 0. -1.
<scales pt_clust_5="13000.00000" pt_clust_6="13000.00000" pt_clust_7="13000.00000" pt_clust_8="13000.00000" pt_clust_9="21.01252"></scales>
<clustering>
<clus scale="   21.013">  1  9  2 -1</clus>
<clus scale="   91.659">  5  6 -1 -1</clus>
<clus scale="   93.788">  2  5  1 -1</clus>
<clus scale="   96.022">  7  8 -1 -1</clus>
<clus scale="   21.013">  1  5  2 -1</clus>
</clustering>
</event>
<event>
 9    1  0.9000149E-006  0.1403870E+03  0.7546771E-02  0.1213276E+00
          1   -1    0    0  502    0  0.00000000000E+00  0.00000000000E+00  0.80432790188E+02  0.80432790188E+02  0.00000000000E+00 0. -1.
         -1   -1    0    0    0  501 -0.00000000000E+00 -0.00000000000E+00 -0.76373867605E+03  0.76373867605E+03  0.00000000000E+00 0.  1.
         23    2    1    2    0    0  0.10501952962E+03 -0.56801687572E+02 -0.62414394644E+03  0.64222153768E+03  0.92937098421E+02 0.  0.
         23    2    1    2    0    0 -0.46645783227E+02 -0.97357933843E+01 -0.17238202798E+02  0.10400948578E+03  0.90830626614E+02 0.  0.
        -13    1    3    3    0    0  0.10310814501E+03 -0.11829363287E+02 -0.48491803281E+03  0.49589991122E+03  0.00000000000E+00 0.  1.
         13    1    3    3    0    0  0.19113846148E+01 -0.44972324284E+02 -0.13922591363E+03  0.14632162646E+03  0.00000000000E+00 0. -1.
        -13    1    4    4    0    0 -0.38763448141E+02  0.31630432721E+02 -0.31996833667E+02  0.59387595932E+02  0.00000000000E+00 0.  1.
         13    1    4    4    0    0 -0.78823350860E+01 -0.41366226105E+02  0.14758630869E+02  0.44621889849E+02  0.00000000000E+00 0. -1.
         21    1    1    2  502  501 -0.58373746394E+02  0.66537480956E+02 -0.41923736625E+02  0.97940442783E+02  0.00000000000E+00 0. -1.
<scales pt_clust_5="13000.00000" pt_clust_6="13000.00000" pt_clust_7="13000.00000" pt_clust_8="13000.00000" pt_clust_9="88.51401"></scales>
<clustering>
<clus scale="   88.514">  1  9  2 -1</clus>
<clus scale="   90.831">  7  8 -1 -1</clus>
<clus scale="   92.937">  5  6 -1 -1</clus>
<clus scale="  139.002">  1  7  2 -1</clus>
<clus scale="   88.514">  1  5  2 -1</clus>
</clustering>
</event>
<event>
 9    1  0.9000149E-006  0.9794304E+02  0.7546771E-02  0.1287071E+00
          2   -1    0    0  502    0  0.00000000000E+00  0.00000000000E+00  0.29752861845E+03  0.29752861845E+03  0.00000000000E+00 0. -1.
         -2   -1    0    0    0  501 -0.00000000000E+00 -0.00000000000E+00 -0.55991879681E+02  0.55991879681E+02  0.00000000000E+00 0.  1.
         23    2    1    2    0    0  0.12727459290E+02  0.12570051739E+01  0.63092773025E+02  0.11356510156E+03  0.93556218405E+02 0.  0.
         23    2    1    2    0    0 -0.40017664580E+02  0.28492388418E+02  0.67899745024E+02  0.12227019589E+03  0.89030308060E+02 0.  0.
        -11    1    3    3    0    0 -0.39642860479E+02 -0.15367700401E+01  0.15018375925E+02  0.42420156348E+02  0.00000000000E+00 0. -1.
         11    1    3    3    0    0  0.52370319769E+02  0.27937752140E+01  0.48074397100E+02  0.71144945212E+02  0.00000000000E+00 0.  1.
        -11    1    4    4    0    0 -0.33645263605E+02  0.60195119167E+02  0.51103872673E+02  0.85831590552E+02  0.00000000000E+00 0.  1.
         11    1    4    4    0    0 -0.63724009756E+01 -0.31702730750E+02  0.16795872351E+02  0.36438605341E+02  0.00000000000E+00 0. -1.
         21    1    1    2  502  501  0.27290205290E+02 -0.29749393592E+02  0.11054422072E+03  0.11768520068E+03  0.00000000000E+00 0. -1.
<scales pt_clust_5="13000.00000" pt_clust_6="13000.00000" pt_clust_7="13000.00000" pt_clust_8="13000.00000" pt_clust_9="40.37056"></scales>
<clustering>
<clus scale="   40.371">  1  9  2 -1</clus>
<clus scale="   89.030">  7  8 -1 -1</clus>
<clus scale="   93.556">  5  6 -1 -1</clus>
<clus scale="   93.629">  1  7  2 -1</clus>
<clus scale="   40.371">  1  5  2 -1</clus>
</clustering>
</event>
<event>
 9    1  0.9000149E-006  0.1241447E+03  0.7546771E-02  0.1236471E+00
          4   -1    0    0  502    0  0.00000000000E+00  0.00000000000E+00  0.31287880151E+02  0.31287880151E+02  0.00000000000E+00 0. -1.
         -4   -1    0    0    0  501 -0.00000000000E+00 -0.00000000000E+00 -0.69048449310E+03  0.69048449310E+03  0.00000000000E+00 0.  1.
         23    2    1    2    0    0  0.37048420110E+02 -0.67067504772E+02 -0.37495198576E+03  0.39362628820E+03  0.92097923497E+02 0.  0.
         23    2    1    2    0    0 -0.26455562034E+02  0.92424054487E+02 -0.25741343428E+03  0.28973936469E+03  0.91897337784E+02 0.  0.
        -11    1    4    4    0    0  0.64288823056E+01  0.97834754200E+02 -0.21027584920E+03  0.23201056531E+03  0.00000000000E+00 0.  1.
         11    1    4    4    0    0 -0.32884444339E+02 -0.54106997127E+01 -0.47137585081E+02  0.57728799383E+02  0.00000000000E+00 0. -1.
        -13    1    3    3    0    0 -0.90558811316E+01  0.19599551588E+02 -0.71833228209E+02  0.75007760134E+02  0.00000000000E+00 0.  1.
         13    1    3    3    0    0  0.46104301241E+02 -0.86667056360E+02 -0.30311875755E+03  0.31861852807E+03  0.00000000000E+00 0. -1.
         21    1    1    2  502  501 -0.10592858076E+02 -0.25356549715E+02 -0.26831192912E+02  0.38406720359E+02  0.00000000000E+00 0. -1.
<scales pt_clust_5="13000.00000" pt_clust_6="13000.00000" pt_clust_7="13000.00000" pt_clust_8="13000.00000" pt_clust_9="27.48023"></scales>
<clustering>
<clus scale="   27.480">  1  9  2 -1</clus>
<clus scale="   91.897">  5  6 -1 -1</clus>
<clus scale="   92.098">  7  8 -1 -1</clus>
<clus scale="  123.996">  1  5  2 -1</clus>
<clus scale="   27.480">  1  5  2 -1</clus>
</clustering>
</event>
<event>
 9    1  0.9000149E-006  0.1418210E+03  0.7546771E-02  0.1211454E+00
          1   -1    0    0  502    0  0.00000000000E+00  0.00000000000E+00  0.46192255304E+03  0.46192255304E+03  0.00000000000E+00 0. -1.
         -1   -1    0    0    0  501 -0.00000000000E+00 -0.00000000000E+00 -0.18972308926E+03  0.18972308926E+03  0.00000000000E+00 0.  1.
         23    2    1    2    0    0 -0.10116896675E+03 -0.41393768441E+02 -0.10905518553E+03  0.17824715396E+03  0.89052852302E+02 0.  0.
         23    2    1    2    0    0  0.73660546817E+02  0.87915597943E+02  0.79730076754E+02  0.16706850020E+03  0.91651350785E+02 0.  0.
        -11    1    3    3    0    0 -0.25032990312E+02 -0.53849266584E+02 -0.25809497000E+02  0.64749704640E+02  0.00000000000E+00 0. -1.
         11    1    3    3    0    0 -0.76135976442E+02  0.12455498143E+02 -0.83245688526E+02  0.11349744931E+03  0.00000000000E+00 0.  1.
        -13    1    4    4    0    0  0.46057275939E+02  0.84085068575E+02  0.15584752933E+02  0.97131127597E+02  0.00000000000E+00 0.  1.
         13    1    4    4    0    0  0.27603270877E+02  0.38305293673E+01  0.64145323822E+02  0.69937372603E+02  0.00000000000E+00 0. -1.
         21    1    1    2  502  501  0.27508419937E+02 -0.46521829502E+02  0.30152457255E+03  0.30632998815E+03  0.00000000000E+00 0. -1.
<scales pt_clust_5="13000.00000" pt_clust_6="13000.00000" pt_clust_7="13000.00000" pt_clust_8="13000.00000" pt_clust_9="54.04622"></scales>
<clustering>
<clus scale="   54.046">  1  9  2 -1</clus>
<clus scale="   89.053">  5  6 -1 -1</clus>
<clus scale="   91.651">  7  8 -1 -1</clus>
<clus scale="  140.156">  2  5  1 -1</clus>
<clus scale="   54.046">  1  5  2 -1</clus>
</clustering>
</event>
<event>
 9    1  0.9000149E-006  0.1428320E+03  0.7546771E-02  0.1209979E+00
         -2   -1    0    0    0  501 -0.00000000000E+00  0.00000000000E+00  0.17071449362E+03  0.17071449362E+03  0.00000000000E+00 0.  1.
          2   -1    0    0  502    0  0.00000000000E+00 -0.00000000000E+00 -0.20598131742E+03  0.20598131742E+03  0.00000000000E+00 0. -1.
         23    2    1    2    0    0  0.57396469466E+02 -0.65109340720E+02  0.88594682247E+01  0.12511552857E+03  0.89676219567E+02 0.  0.
         23    2    1    2    0    0 -0.95706901017E+02  0.99218889530E+02  0.22975312545E+02  0.16711859991E+03  0.91632758917E+02 0.  0.
        -13    1    4    4    0    0 -0.71830664635E+02  0.28070653232E+02  0.44508606779E+02  0.89042810109E+02  0.00000000000E+00 0.  1.
         13    1    4    4    0    0 -0.23876236382E+02  0.71148236298E+02 -0.21533294234E+02  0.78075789799E+02  0.00000000000E+00 0. -1.
        -13    1    3    3    0    0  0.55793836450E+02  0.30654810824E+01  0.10717699684E+02  0.56896559180E+02  0.00000000000E+00 0. -1.
         13    1    3    3    0    0  0.16026330159E+01 -0.68174821802E+02 -0.18582314595E+01  0.68218969389E+02  0.00000000000E+00 0.  1.
         21    1    1    2  502  501  0.38310431551E+02 -0.34109548811E+02 -0.67101604565E+02  0.84461682560E+02  0.00000000000E+00 0. -1.
<scales pt_clust_5="13000.00000" pt_clust_6="13000.00000" pt_clust_7="13000.00000" pt_clust_8="13000.00000" pt_clust_9="51.29474"></scales>
<clustering>
<clus scale="   51.295">  2  9  1 -1</clus>
<clus scale="   89.676">  7  8 -1 -1</clus>
<clus scale="   91.633">  5  6 -1 -1</clus>
<clus scale="  141.585">  1  7  2 -1</clus>
<clus scale="   51.295">  2  5  1 -1</clus>
</clustering>
</event>
<event>
 9    1  0.9000149E-006  0.9429071E+02  0.7546771E-02  0.1294500E+00
         -2   -1    0    0    0  501 -0.00000000000E+00  0.00000000000E+00  0.11961171532E+03  0.11961171532E+03  0.00000000000E+00 0.  1.
          2   -1    0    0  502    0  0.00000000000E+00 -0.00000000000E+00 -0.41900500642E+03  0.41900500642E+03  0.00000000000E+00 0. -1.
         23    2    1    2    0    0 -0.31863255452E+01  0.22912337031E+02  0.81962453944E+02  0.12251516666E+03  0.88073800575E+02 0.  0.
         23    2    1    2    0    0 -0.36074811079E+02 -0.34463507010E+02 -0.15853737207E+03  0.18955598855E+03  0.91149597587E+02 0.  0.
        -11    1    3    3    0    0 -0.22619057984E+02 -0.22996464820E+02  0.78526427900E+01  0.33198240572E+02  0.00000000000E+00 0. -1.
         11    1    3    3    0    0  0.19432732439E+02  0.45908801851E+02  0.74109811154E+02  0.89316926093E+02  0.00000000000E+00 0.  1.
        -13    1    4    4    0    0 -0.29365922166E+02  0.46845597760E+01 -0.40107886313E+01  0.30006481140E+02  0.00000000000E+00 0.  1.
         13    1    4    4    0    0 -0.67088889130E+01 -0.39148066786E+02 -0.15452658344E+03  0.15954950741E+03  0.00000000000E+00 0. -1.
         21    1    1    2  502  501  0.39261136624E+02  0.11551169979E+02 -0.22281837297E+03  0.22654556652E+03  0.00000000000E+00 0.  1.
<scales pt_clust_5="13000.00000" pt_clust_6="13000.00000" pt_clust_7="13000.00000" pt_clust_8="13000.00000" pt_clust_9="40.92513"></scales>
<clustering>
<clus scale="   40.925">  2  9  1 -1</clus>
<clus scale="   88.074">  5  6 -1 -1</clus>
<clus scale="   91.150">  7  8 -1 -1</clus>
<clus scale="   91.321">  1  5  2 -1</clus>
<clus scale="   40.925">  2  5  1 -1</clus>
</clustering>
</event>
<event>
 9    1  0.9000149E-006  0.1166730E+03  0.7546771E-02  0.1248850E+00
         -4   -1    0    0    0  501 -0.00000000000E+00  0.00000000000E+00  0.10971792804E+03  0.10971792804E+03  0.00000000000E+00 0.  1.
          4   -1    0    0  502    0  0.00000000000E+00 -0.00000000000E+00 -0.21912323406E+03  0.21912323406E+03  0.00000000000E+00 0. -1.
         23    2    1    2    0    0 -0.13277054739E+02 -0.65684953764E+02  0.29098847184E+02  0.11581135736E+03  0.89859525102E+02 0.  0.
         23    2    1    2    0    0  0.18869069619E+02  0.91512103466E+02 -0.90974851298E+02  0.15864831127E+03  0.90345759338E+02 0.  0.
        -11    1    3    3    0    0  0.11823176138E+02 -0.81548732890E+02  0.21663085536E+02  0.85201365041E+02  0.00000000000E+00 0.  1.
         11    1    3    3    0    0 -0.25100230877E+02  0.15863779125E+02  0.74357616481E+01  0.30609992315E+02  0.00000000000E+00 0. -1.
        -11    1    4    4    0    0 -0.36023236071E+02  0.28285408022E+02 -0.26012745140E+02  0.52672580663E+02  0.00000000000E+00 0.  1.
         11    1    4    4    0    0  0.54892305690E+02  0.63226695444E+02 -0.64962106158E+02  0.10597573060E+03  0.00000000000E+00 0. -1.
         21    1    1    2  502  501 -0.55920148797E+01 -0.25827149702E+02 -0.47529301911E+02  0.54381493472E+02  0.00000000000E+00 0. -1.
<scales pt_clust_5="13000.00000" pt_clust_6="13000.00000" pt_clust_7="13000.00000" pt_clust_8="13000.00000" pt_clust_9="26.42560"></scales>
<clustering>
<clus scale="   26.426">  2  9  1 -1</clus>
<clus scale="   89.860">  5  6 -1 -1</clus>
<clus scale="   90.346">  7  8 -1 -1</clus>
<clus scale="  116.297">  1  5  2 -1</clus>
<clus scale="   26.426">  2  5  1 -1</clus>
</clustering>
</event>
<event>
 9    1  0.9000149E-006  0.1259978E+03  0.7546771E-02  0.1233985E+00
         -2   -1    0    0    0  501 -0.00000000000E+00  0.00000000000E+00  0.97197483108E+02  0.97197483108E+02  0.00000000000E+00 0. -1.
          2   -1    0    0  502    0  0.00000000000E+00 -0.00000000000E+00 -0.39057565417E+03  0.39057565417E+03  0.00000000000E+00 0.  1.
         23    2    1    2    0    0 -0.63364839736E+02  0.54552595447E+02  0.23812752553E+02  0.12497245457E+03  0.89777383746E+02 0.  0.
         23    2    1    2    0    0  0.60437309552E+02 -0.82528340268E+02 -0.20175949289E+03  0.24399147460E+03  0.91440425279E+02 0.  0.
        -11    1    3    3    0    0 -0.31939394203E+02  0.77464258176E+02  0.15981067353E+02  0.85300824794E+02  0.00000000000E+00 0.  1.
         11    1    3    3    0    0 -0.31425445533E+02 -0.22911662730E+02  0.78316851994E+01  0.39671629775E+02  0.00000000000E+00 0. -1.
        -13    1    4    4    0    0  0.11850270716E+02 -0.83549900961E+02 -0.97398845880E+02  0.12887028379E+03  0.00000000000E+00 0.  1.
         13    1    4    4    0    0  0.48587038836E+02  0.10215606929E+01 -0.10436064701E+03  0.11512119081E+03  0.00000000000E+00 0. -1.
         21    1    1    2  502  501  0.29275301838E+01  0.27975744821E+02 -0.11543143073E+03  0.11880920811E+03  0.00000000000E+00 0.  1.
<scales pt_clust_5="13000.00000" pt_clust_6="13000.00000" pt_clust_7="13000.00000" pt_clust_8="13000.00000" pt_clust_9="28.12850"></scales>
<clustering>
<clus scale="   28.129">  2  9  1 -1</clus>
<clus scale="   89.777">  5  6 -1 -1</clus>
<clus scale="   91.440">  7  8 -1 -1</clus>
<clus scale="  124.796">  1  5  2 -1</clus>
<clus scale="   28.129">  2  5  1 -1</clus>
</clustering>
</event>
<event>
 9    1  0.9000149E-006  0.1529810E+03  0.7546771E-02  0.1198206E+00
          1   -1    0    0  502    0  0.00000000000E+00  0.00000000000E+00  0.11727125062E+03  0.11727125062E+03  0.00000000000E+00 0. -1.
         -1   -1    0    0    0  501 -0.00000000000E+00 -0.00000000000E+00 -0.31192244735E+03  0.31192244735E+03  0.00000000000E+00 0.  1.
         23    2    1    2    0    0  0.62449434804E+02  0.74431046918E+02 -0.74189218173E+02  0.14943395889E+03  0.85945071557E+02 0.  0.
         23    2    1    2    0    0 -0.95182026902E+02 -0.11299474036E+03 -0.14158918820E+03  0.22494240582E+03  0.93403201909E+02 0.  0.
        -11    1    4    4    0    0 -0.15301399781E+00 -0.70532835022E+02 -0.52310623903E+02  0.87814039895E+02  0.00000000000E+00 0. -1.
         11    1    4    4    0    0 -0.95029012905E+02 -0.42461905340E+02 -0.89278564300E+02  0.13712836593E+03  0.00000000000E+00 0.  1.
        -13    1    3    3    0    0  0.10041576689E+01  0.59674823151E+02 -0.12208529400E+02  0.60919135260E+02  0.00000000000E+00 0.  1.
         13    1    3    3    0    0  0.61445277135E+02  0.14756223767E+02 -0.61980688773E+02  0.88514823634E+02  0.00000000000E+00 0. -1.
         21    1    1    2  502  501  0.32732592098E+02  0.38563693444E+02  0.21127209639E+02  0.54817333250E+02  0.00000000000E+00 0. -1.
<scales pt_clust_5="13000.00000" pt_clust_6="13000.00000" pt_clust_7="13000.00000" pt_clust_8="13000.00000" pt_clust_9="50.58242"></scales>
<clustering>
<clus scale="   50.582">  1  9  2 -1</clus>
<clus scale="   85.945">  7  8 -1 -1</clus>
<clus scale="   93.403">  5  6 -1 -1</clus>
<clus scale="  148.545">  2  7  1 -1</clus>
<clus scale="   50.582">  1  5  2 -1</clus>
</clustering>
</event>
<event>
 9    1  0.9000149E-006  0.1494947E+03  0.7546771E-02  0.1202130E+00
         -2   -1    0    0    0  501 -0.00000000000E+00  0.00000000000E+00  0.94489668116E+02  0.94489668116E+02  0.00000000000E+00 0.  1.
          2   -1    0    0  502    0  0.00000000000E+00 -0.00000000000E+00 -0.37632595212E+03  0.37632595212E+03  0.00000000000E+00 0. -1.
         23    2    1    2    0    0 -0.77961981859E+02  0.71656220633E+02 -0.13683410834E+03  0.19571192729E+03  0.91470764221E+02 0.  0.
         23    2    1    2    0    0  0.10072977465E+03 -0.70099911730E+02 -0.17681900622E+03  0.23594880574E+03  0.96676744057E+02 0.  0.
        -11    1    4    4    0    0  0.81585268551E+02 -0.25833268369E+01 -0.12250121279E+03  0.14720521987E+03  0.00000000000E+00 0.  1.
         11    1    4    4    0    0  0.19144506104E+02 -0.67516584893E+02 -0.54317793439E+02  0.88743585873E+02  0.00000000000E+00 0. -1.
        -13    1    3    3    0    0 -0.39680663695E+02  0.70678391556E+02 -0.37612430973E+02  0.89357065014E+02  0.00000000000E+00 0.  1.
         13    1    3    3    0    0 -0.38281318163E+02  0.97782907732E+00 -0.99221677365E+02  0.10635486227E+03  0.00000000000E+00 0. -1.
         21    1    1    2  502  501 -0.22767792796E+02 -0.15563089028E+01  0.31816830554E+02  0.39154887214E+02  0.00000000000E+00 0.  1.
<scales pt_clust_5="13000.00000" pt_clust_6="13000.00000" pt_clust_7="13000.00000" pt_clust_8="13000.00000" pt_clust_9="22.82092"></scales>
<clustering>
<clus scale="   22.821">  1  9  2 -1</clus>
<clus scale="   91.471">  7  8 -1 -1</clus>
<clus scale="   96.677">  5  6 -1 -1</clus>
<clus scale="  146.182">  1  7  2 -1</clus>
<clus scale="  149.495">  2  5  1 -1</clus>
</clustering>
</event>
<event>
 9    1  0.9000149E-006  0.1026498E+03  0.7546771E-02  0.1276229E+00
         -2   -1    0    0    0  501 -0.00000000000E+00  0.00000000000E+00  0.28520884391E+02  0.28520884391E+02  0.00000000000E+00 0.  1.
          2   -1    0    0  502    0  0.00000000000E+00 -0.00000000000E+00 -0.73616177754E+03  0.73616177754E+03  0.00000000000E+00 0. -1.
         23    2    1    2    0    0  0.34377927730E+02  0.26964011242E+02 -0.17350927731E+03  0.20086606872E+03  0.91284217885E+02 0.  0.
         23    2    1    2    0    0 -0.47411546068E+02  0.21233615438E+02 -0.21118326761E+03  0.23703146189E+03  0.94269933076E+02 0.  0.
        -11    1    3    3    0    0  0.25699013965E+02  0.60786103590E+02 -0.12052667005E+03  0.13741203696E+03  0.00000000000E+00 0. -1.
         11    1    3    3    0    0  0.86789137647E+01 -0.33822092348E+02 -0.52982607259E+02  0.63454031762E+02  0.00000000000E+00 0.  1.
        -11    1    4    4    0    0 -0.83949591879E+01 -0.29355143101E+02 -0.13098930076E+03  0.13450054528E+03  0.00000000000E+00 0.  1.
         11    1    4    4    0    0 -0.39016586881E+02  0.50588758539E+02 -0.80193966845E+02  0.10253091661E+03  0.00000000000E+00 0. -1.
         21    1    1    2  502  501  0.13033618339E+02 -0.48197626680E+02 -0.32294834823E+03  0.32678513132E+03  0.00000000000E+00 0.  1.
<scales pt_clust_5="13000.00000" pt_clust_6="13000.00000" pt_clust_7="13000.00000" pt_clust_8="13000.00000" pt_clust_9="49.92881"></scales>
<clustering>
<clus scale="   49.929">  2  9  1 -1</clus>
<clus scale="   91.284">  5  6 -1 -1</clus>
<clus scale="   94.270">  7  8 -1 -1</clus>
<clus scale="   99.915">  1  5  2 -1</clus>
<clus scale="   49.929">  2  5  1 -1</clus>
</clustering>
</event>
<event>
 9    1  0.9000149E-006  0.9057191E+02  0.7546771E-02  0.1301561E+00
          1   -1    0    0  502    0  0.00000000000E+00  0.00000000000E+00  0.49817107808E+03  0.49817107808E+03  0.00000000000E+00 0. -1.
         -1   -1    0    0    0  501 -0.00000000000E+00 -0.00000000000E+00 -0.96585967589E+02  0.96585967589E+02  0.00000000000E+00 0.  1.
         23    2    1    2    0    0  0.12305734215E+02  0.10572321998E+00 -0.56854659787E+02  0.10726496418E+03  0.90121462094E+02 0.  0.
         23    2    1    2    0    0  0.30449237855E+02 -0.15716732748E+02  0.17019419004E+03  0.19567500559E+03  0.90268896729E+02 0.  0.
        -11    1    3    3    0    0 -0.22857251841E+02  0.18917434304E+02 -0.60333927076E+02  0.67234708587E+02  0.00000000000E+00 0.  1.
         11    1    3    3    0    0  0.35162986056E+02 -0.18811711084E+02  0.34792672895E+01  0.40030255597E+02  0.00000000000E+00 0. -1.
        -13    1    4    4    0    0  0.43459430513E+01 -0.51744090983E+02  0.86434748286E+02  0.10083304956E+03  0.00000000000E+00 0. -1.
         13    1    4    4    0    0  0.26103294804E+02  0.36027358236E+02  0.83759441753E+02  0.94841956032E+02  0.00000000000E+00 0.  1.
         21    1    1    2  502  501 -0.42754972070E+02  0.15611009528E+02  0.28824558024E+03  0.29181707590E+03  0.00000000000E+00 0.  1.
<scales pt_clust_5="13000.00000" pt_clust_6="13000.00000" pt_clust_7="13000.00000" pt_clust_8="13000.00000" pt_clust_9="45.51584"></scales>
<clustering>
<clus scale="   45.516">  1  9  2 -1</clus>
<clus scale="   90.121">  5  6 -1 -1</clus>
<clus scale="   90.269">  7  8 -1 -1</clus>
<clus scale="   90.425">  2  5  1 -1</clus>
<clus scale="   45.516">  1  5  2 -1</clus>
</clustering>
</event>
<event>
 9    1  0.9000149E-006  0.1026150E+03  0.7546771E-02  0.1277968E+00
          1   -1    0    0  502    0  0.00000000000E+00  0.00000000000E+00  0.49564158670E+02  0.49564158670E+02  0.00000000000E+00 0. -1.
         -1   -1    0    0    0  501 -0.00000000000E+00 -0.00000000000E+00 -0.31313642159E+03  0.31313642159E+03  0.00000000000E+00 0.  1.
         23    2    1    2    0    0 -0.39669911886E+02  0.16106561429E+02 -0.19839752469E+03  0.22336717123E+03  0.93264098922E+02 0.  0.
         23    2    1    2    0    0  0.28635851529E+02 -0.37739829391E+02 -0.51630073688E+02  0.11152681434E+03  0.86765540932E+02 0.  0.
        -11    1    4    4    0    0 -0.28936678926E+02 -0.11850498540E+01 -0.62986824779E+01  0.29637967734E+02  0.00000000000E+00 0.  1.
         11    1    4    4    0    0  0.57572530455E+02 -0.36554779537E+02 -0.45331391210E+02  0.81888846609E+02  0.00000000000E+00 0. -1.
        -13    1    3    3    0    0 -0.35099716590E+02  0.50895577179E+02 -0.88143007283E+02  0.10766401262E+03  0.00000000000E+00 0.  1.
         13    1    3    3    0    0 -0.45701952963E+01 -0.34789015750E+02 -0.11025451741E+03  0.11570315861E+03  0.00000000000E+00 0. -1.
         21    1    1    2  502  501  0.11034060357E+02  0.21633267963E+02 -0.13544664539E+02  0.27806594688E+02  0.00000000000E+00 0.  1.
<scales pt_clust_5="13000.00000" pt_clust_6="13000.00000" pt_clust_7="13000.00000" pt_clust_8="13000.00000" pt_clust_9="24.28474"></scales>
<clustering>
<clus scale="   24.285">  1  9  2 -1</clus>
<clus scale="   86.766">  5  6 -1 -1</clus>
<clus scale="   93.264">  7  8 -1 -1</clus>
<clus scale="   96.747">  1  5  2 -1</clus>
<clus scale="   24.285">  1  5  2 -1</clus>
</clustering>
</event>
<event>
 9    1  0.9000149E-006  0.1219279E+03  0.7546771E-02  0.1240578E+00
         -1   -1    0    0    0  501 -0.00000000000E+00  0.00000000000E+00  0.45326488580E+02  0.45326488580E+02  0.00000000000E+00 0.  1.
          1   -1    0    0  502    0  0.00000000000E+00 -0.00000000000E+00 -0.50313383163E+03  0.50313383163E+03  0.00000000000E+00 0. -1.
         23    2    1    2    0    0  0.34377497549E+01  0.73714557523E+02 -0.84207455686E+02  0.14548763368E+03  0.92898341468E+02 0.  0.
         23    2    1    2    0    0 -0.14458375600E+01 -0.93841985556E+02 -0.31659581388E+03  0.34248677522E+03  0.90861835400E+02 0.  0.
        -11    1    4    4    0    0 -0.30670581302E+02 -0.95128220773E+02 -0.22180702317E+03  0.24328670016E+03  0.00000000000E+00 0. -1.
         11    1    4    4    0    0  0.29224743742E+02  0.12862352176E+01 -0.94788790711E+02  0.99200075062E+02  0.00000000000E+00 0.  1.
        -13    1    3    3    0    0 -0.42840131370E+02  0.52357939360E+02 -0.49422145176E+02  0.83780541319E+02  0.00000000000E+00 0.  1.
         13    1    3    3    0    0  0.46277881125E+02  0.21356618162E+02 -0.34785310510E+02  0.61707092364E+02  0.00000000000E+00 0. -1.
         21    1    1    2  502  501 -0.19919121949E+01  0.20127428033E+02 -0.57004073480E+02  0.60485911308E+02  0.00000000000E+00 0.  1.
<scales pt_clust_5="13000.00000" pt_clust_6="13000.00000" pt_clust_7="13000.00000" pt_clust_8="13000.00000" pt_clust_9="20.22575"></scales>
<clustering>
<clus scale="   20.226">  2  9  1 -1</clus>
<clus scale="   90.862">  5  6 -1 -1</clus>
<clus scale="   92.898">  7  8 -1 -1</clus>
<clus scale="  120.384">  2  5  1 -1</clus>
<clus scale="   20.226">  2  5  1 -1</clus>
</clustering>
</event>
<event>
 9    1  0.9000149E-006  0.9810449E+02  0.7546771E-02  0.1287152E+00
         -2   -1    0    0    0  501 -0.00000000000E+00  0.00000000000E+00  0.29061740287E+03  0.29061740287E+03  0.00000000000E+00 0.  1.
          2   -1    0    0  502    0  0.00000000000E+00 -0.00000000000E+00 -0.93543205643E+02  0.93543205643E+02  0.00000000000E+00 0. -1.
         23    2    1    2    0    0  0.58145745708E+01  0.42987631199E+02  0.15739784653E+03  0.18660468708E+03  0.90363053483E+02 0.  0.
         23    2    1    2    0    0 -0.13417349751E+02  0.44060782319E+02  0.23969375924E+02  0.10877564466E+03  0.95583639167E+02 0.  0.
        -11    1    4    4    0    0 -0.48697812561E+02  0.48844553887E+02  0.69761353510E+01  0.69324843001E+02  0.00000000000E+00 0.  1.
         11    1    4    4    0    0  0.35280462810E+02 -0.47837715680E+01  0.16993240573E+02  0.39450801661E+02  0.00000000000E+00 0. -1.
        -13    1    3    3    0    0  0.23528734750E+02  0.52782762829E+02  0.47349146263E+02  0.74709859206E+02  0.00000000000E+00 0.  1.
         13    1    3    3    0    0 -0.17714160179E+02 -0.97951316302E+01  0.11004870027E+03  0.11189482788E+03  0.00000000000E+00 0. -1.
         21    1    1    2  502  501  0.76027751802E+01 -0.87048413518E+02  0.15706974768E+02  0.88780276767E+02  0.00000000000E+00 0. -1.
<scales pt_clust_5="13000.00000" pt_clust_6="13000.00000" pt_clust_7="13000.00000" pt_clust_8="13000.00000" pt_clust_9="87.37979"></scales>
<clustering>
<clus scale="   87.380">  2  9  1 -1</clus>
<clus scale="   90.363">  7  8 -1 -1</clus>
<clus scale="   93.025">  1  7  2 -1</clus>
<clus scale="   95.584">  5  6 -1 -1</clus>
<clus scale="   87.380">  2  5  1 -1</clus>
</clustering>
</event>
<event>
 9    1  0.9000149E-006  0.1015053E+03  0.7546771E-02  0.1282934E+00
          2   -1    0    0  502    0  0.00000000000E+00  0.00000000000E+00  0.24247487180E+03  0.24247487180E+03  0.00000000000E+00 0. -1.
         -2   -1    0    0    0  501 -0.00000000000E+00 -0.00000000000E+00 -0.13095949897E+03  0.13095949897E+03  0.00000000000E+00 0.  1.
         23    2    1    2    0    0  0.21235628480E+02 -0.56152539606E+01 -0.71125975813E+02  0.11545221312E+03  0.88248660523E+02 0.  0.
         23    2    1    2    0    0  0.70994590381E+01  0.60463526644E+02  0.91885374070E+02  0.14821942663E+03  0.99095086107E+02 0.  0.
        -11    1    3    3    0    0  0.29988615417E+02 -0.35046828872E+02 -0.71094250812E+02  0.84746620978E+02  0.00000000000E+00 0.  1.
         11    1    3    3    0    0 -0.87529869377E+01  0.29431574911E+02 -0.31725001123E-01  0.30705592138E+02  0.00000000000E+00 0. -1.
        -11    1    4    4    0    0  0.33372935563E+02  0.31099577072E+02 -0.27590333571E+01  0.45700643181E+02  0.00000000000E+00 0.  1.
         11    1    4    4    0    0 -0.26273476525E+02  0.29363949572E+02  0.94644407427E+02  0.10251878345E+03  0.00000000000E+00 0. -1.
         21    1    1    2  502  501 -0.28335087518E+02 -0.54848272684E+02  0.90755974572E+02  0.10976273102E+03  0.00000000000E+00 0. -1.
<scales pt_clust_5="13000.00000" pt_clust_6="13000.00000" pt_clust_7="13000.00000" pt_clust_8="13000.00000" pt_clust_9="61.73500"></scales>
<clustering>
<clus scale="   61.735">  1  9  2 -1</clus>
<clus scale="   88.249">  5  6 -1 -1</clus>
<clus scale="   90.947">  2  5  1 -1</clus>
<clus scale="   99.095">  7  8 -1 -1</clus>
<clus scale="   61.735">  1  5  2 -1</clus>
</clustering>
</event>
<event>
 9    1  0.9000149E-006  0.1107019E+03  0.7546771E-02  0.1259844E+00
         -1   -1    0    0    0  501 -0.00000000000E+00  0.00000000000E+00  0.64123900347E+02  0.64123900347E+02  0.00000000000E+00 0.  1.
          1   -1    0    0  502    0  0.00000000000E+00 -0.00000000000E+00 -0.28965685992E+03  0.28965685992E+03  0.00000000000E+00 0. -1.
         23    2    1    2    0    0  0.47437282249E+02  0.30177213853E+02 -0.33614511559E+02  0.11121430419E+03  0.89876170845E+02 0.  0.
         23    2    1    2    0    0 -0.54968645346E+02 -0.54391285907E+02 -0.13605827507E+03  0.18121988619E+03  0.91371926663E+02 0.  0.
        -13    1    3    3    0    0  0.35799790116E+02  0.30753311225E+01 -0.61110277859E+02  0.70891104476E+02  0.00000000000E+00 0.  1.
         13    1    3    3    0    0  0.11637492133E+02  0.27101882731E+02  0.27495766299E+02  0.40323199713E+02  0.00000000000E+00 0. -1.
        -13    1    4    4    0    0 -0.42193036349E+02  0.22229859488E+00 -0.10169670974E+02  0.43401888677E+02  0.00000000000E+00 0.  1.
         13    1    4    4    0    0 -0.12775608997E+02 -0.54613584502E+02 -0.12588860410E+03  0.13781799751E+03  0.00000000000E+00 0. -1.
         21    1    1    2  502  501  0.75313630965E+01  0.24214072054E+02 -0.55860172942E+02  0.61346569884E+02  0.00000000000E+00 0. -1.
<scales pt_clust_5="13000.00000" pt_clust_6="13000.00000" pt_clust_7="13000.00000" pt_clust_8="13000.00000" pt_clust_9="25.35829"></scales>
<clustering>
<clus scale="   25.358">  2  9  1 -1</clus>
<clus scale="   89.876">  5  6 -1 -1</clus>
<clus scale="   91.372">  7  8 -1 -1</clus>
<clus scale="  109.471">  1  5  2 -1</clus>
<clus scale="   25.358">  2  5  1 -1</clus>
</clustering>
</event>
<event>
 9    1  0.9000149E-006  0.9681321E+02  0.7546771E-02  0.1288931E+00
          1   -1    0    0  502    0  0.00000000000E+00  0.00000000000E+00  0.48975161563E+03  0.48975161563E+03  0.00000000000E+00 0. -1.
         -1   -1    0    0    0  501 -0.00000000000E+00 -0.00000000000E+00 -0.86784596914E+02  0.86784596914E+02  0.00000000000E+00 0.  1.
         23    2    1    2    0    0 -0.98045045198E+01 -0.32682105825E+02 -0.46906256521E+02  0.10844176414E+03  0.91625165535E+02 0.  0.
         23    2    1    2    0    0  0.15461603835E+02  0.35006968092E+01  0.24135986476E+03  0.25747298759E+03  0.88240800946E+02 0.  0.
        -11    1    4    4    0    0 -0.20516114432E+02  0.13963657988E+02  0.17179979654E+02  0.30183545132E+02  0.00000000000E+00 0.  1.
         11    1    4    4    0    0  0.35977718267E+02 -0.10462961179E+02  0.22417988510E+03  0.22728944246E+03  0.00000000000E+00 0. -1.
        -11    1    3    3    0    0 -0.26333839348E+02 -0.17225123545E+02 -0.69606091386E+02  0.76388375647E+02  0.00000000000E+00 0.  1.
         11    1    3    3    0    0  0.16529334828E+02 -0.15456982280E+02  0.22699834865E+02  0.32053388495E+02  0.00000000000E+00 0. -1.
         21    1    1    2  502  501 -0.56570993147E+01  0.29181409016E+02  0.20851341048E+03  0.21062146081E+03  0.00000000000E+00 0. -1.
<scales pt_clust_5="13000.00000" pt_clust_6="13000.00000" pt_clust_7="13000.00000" pt_clust_8="13000.00000" pt_clust_9="29.72469"></scales>
<clustering>
<clus scale="   29.725">  1  9  2 -1</clus>
<clus scale="   88.241">  5  6 -1 -1</clus>
<clus scale="   91.625">  7  8 -1 -1</clus>
<clus scale="   93.617">  1  5  2 -1</clus>
<clus scale="   29.725">  1  5  2 -1</clus>
</clustering>
</event>
<event>
 9    1  0.9000149E-006  0.9307049E+02  0.7546771E-02  0.1295651E+00
         -2   -1    0    0    0  501 -0.00000000000E+00  0.00000000000E+00  0.19465647215E+03  0.19465647215E+03  0.00000000000E+00 0.  1.
          2   -1    0    0  502    0  0.00000000000E+00 -0.00000000000E+00 -0.15877313026E+03  0.15877313026E+03  0.00000000000E+00 0. -1.
         23    2    1    2    0    0  0.90704484113E+01 -0.22490011904E+02  0.14859411234E+03  0.17579953289E+03  0.90758976823E+02 0.  0.
         23    2    1    2    0    0 -0.22450129327E+02 -0.13653093164E+02 -0.58206235390E+02  0.11087616141E+03  0.90637420918E+02 0.  0.
        -11    1    3    3    0    0  0.32132372528E+02 -0.28658390161E+01  0.97637490586E+01  0.33705091503E+02  0.00000000000E+00 0. -1.
         11    1    3    3    0    0 -0.23061924117E+02 -0.19624172888E+02  0.13883036328E+03  0.14209444139E+03  0.00000000000E+00 0.  1.
        -11    1    4    4    0    0 -0.17596543396E+02  0.21242024216E+02 -0.68769795035E+02  0.74095523761E+02  0.00000000000E+00 0. -1.
         11    1    4    4    0    0 -0.48535859308E+01 -0.34895117380E+02  0.10563559645E+02  0.36780637647E+02  0.00000000000E+00 0.  1.
         21    1    1    2  502  501  0.13379680915E+02  0.36143105068E+02 -0.54504535058E+02  0.66753908105E+02  0.00000000000E+00 0. -1.
<scales pt_clust_5="13000.00000" pt_clust_6="13000.00000" pt_clust_7="13000.00000" pt_clust_8="13000.00000" pt_clust_9="38.54011"></scales>
<clustering>
<clus scale="   38.540">  2  9  1 -1</clus>
<clus scale="   90.637">  7  8 -1 -1</clus>
<clus scale="   90.759">  5  6 -1 -1</clus>
<clus scale="   92.952">  2  7  1 -1</clus>
<clus scale="   38.540">  2  5  1 -1</clus>
</clustering>
</event>
<event>
 9    1  0.9000149E-006  0.1196899E+03  0.7546771E-02  0.1243846E+00
          3   -1    0    0  502    0  0.00000000000E+00  0.00000000000E+00  0.76682887956E+02  0.76682887956E+02  0.00000000000E+00 0. -1.
         -3   -1    0    0    0  501 -0.00000000000E+00 -0.00000000000E+00 -0.27459438060E+03  0.27459438060E+03  0.00000000000E+00 0.  1.
         23    2    1    2    0    0  0.43021049513E+02 -0.48685315660E+02 -0.10874829859E+03  0.15665295819E+03  0.92156856499E+02 0.  0.
         23    2    1    2    0    0 -0.64338709237E+02  0.64810653217E+02 -0.10233040258E+03  0.16482759062E+03  0.91415168666E+02 0.  0.
        -11    1    3    3    0    0  0.64068722971E+02 -0.35577072924E+02 -0.39826974541E+02  0.83406937854E+02  0.00000000000E+00 0.  1.
         11    1    3    3    0    0 -0.21047673458E+02 -0.13108242736E+02 -0.68921324053E+02  0.73246020334E+02  0.00000000000E+00 0. -1.
        -13    1    4    4    0    0 -0.12199961743E+02 -0.23591291857E+02 -0.22336164266E+02  0.34702915614E+02  0.00000000000E+00 0.  1.
         13    1    4    4    0    0 -0.52138747494E+02  0.88401945074E+02 -0.79994238310E+02  0.13012467501E+03  0.00000000000E+00 0. -1.
         21    1    1    2  502  501  0.21317659724E+02 -0.16125337557E+02  0.13167208524E+02  0.29796719748E+02  0.00000000000E+00 0.  1.
<scales pt_clust_5="13000.00000" pt_clust_6="13000.00000" pt_clust_7="13000.00000" pt_clust_8="13000.00000" pt_clust_9="26.72956"></scales>
<clustering>
<clus scale="   26.730">  1  9  2 -1</clus>
<clus scale="   91.415">  7  8 -1 -1</clus>
<clus scale="   92.157">  5  6 -1 -1</clus>
<clus scale="  119.120">  1  7  2 -1</clus>
<clus scale="   26.730">  1  5  2 -1</clus>
</clustering>
</event>
<event>
 9    1  0.9000149E-006  0.1930370E+03  0.7546771E-02  0.1155906E+00
         -1   -1    0    0    0  501 -0.00000000000E+00  0.00000000000E+00  0.52770086574E+02  0.52770086574E+02  0.00000000000E+00 0.  1.
          1   -1    0    0  502    0  0.00000000000E+00 -0.00000000000E+00 -0.12734818082E+04  0.12734818082E+04  0.00000000000E+00 0. -1.
         23    2    1    2    0    0  0.19611675840E+02 -0.18040194508E+03 -0.20968784581E+03  0.29240039997E+03  0.92733605577E+02 0.  0.
         23    2    1    2    0    0 -0.27854641914E+02  0.12669055495E+03 -0.82250213459E+03  0.83765438261E+03  0.91261851333E+02 0.  0.
        -11    1    4    4    0    0  0.31648621230E+02  0.39172282051E+02 -0.20141734718E+03  0.20761755863E+03  0.00000000000E+00 0.  1.
         11    1    4    4    0    0 -0.59503263144E+02  0.87518272903E+02 -0.62108478741E+03  0.63003682398E+03  0.00000000000E+00 0. -1.
        -13    1    3    3    0    0  0.23590182924E+02 -0.86973409585E+02 -0.16665879516E+03  0.18946246254E+03  0.00000000000E+00 0.  1.
         13    1    3    3    0    0 -0.39785070843E+01 -0.93428535494E+02 -0.43029050650E+02  0.10293793743E+03  0.00000000000E+00 0. -1.
         21    1    1    2  502  501  0.82429660747E+01  0.53711390126E+02 -0.18852174119E+03  0.19619711216E+03  0.00000000000E+00 0. -1.
<scales pt_clust_5="13000.00000" pt_clust_6="13000.00000" pt_clust_7="13000.00000" pt_clust_8="13000.00000" pt_clust_9="54.34022"></scales>
<clustering>
<clus scale="   54.340">  2  9  1 -1</clus>
<clus scale="   91.262">  5  6 -1 -1</clus>
<clus scale="   92.734">  7  8 -1 -1</clus>
<clus scale="  192.334">  2  5  1 -1</clus>
<clus scale="   54.340">  2  5  1 -1</clus>
</clustering>
</event>
<event>
 9    1  0.9000149E-006  0.2316407E+03  0.7546771E-02  0.1125543E+00
          2   -1    0    0  502    0  0.00000000000E+00  0.00000000000E+00  0.16123342495E+04  0.16123342495E+04  0.00000000000E+00 0. -1.
         -2   -1    0    0    0  501 -0.00000000000E+00 -0.00000000000E+00 -0.64767285154E+02  0.64767285154E+02  0.00000000000E+00 0.  1.
         23    2    1    2    0    0  0.13695174708E+03  0.15729475372E+03  0.20454119153E+03  0.30592259638E+03  0.90852162165E+02 0.  0.
         23    2    1    2    0    0 -0.14700924657E+03 -0.17967974904E+03  0.11622469599E+04  0.11887420437E+04  0.91613971621E+02 0.  0.
        -11    1    3    3    0    0  0.11449631976E+03  0.16484563285E+03  0.16498459349E+03  0.25981417590E+03  0.00000000000E+00 0.  1.
         11    1    3    3    0    0  0.22455427319E+02 -0.75508791242E+01  0.39556598037E+02  0.46108420488E+02  0.00000000000E+00 0. -1.
        -11    1    4    4    0    0 -0.96607254548E+02 -0.49682263242E+02  0.44488854076E+03  0.45795971724E+03  0.00000000000E+00 0.  1.
         11    1    4    4    0    0 -0.50401992026E+02 -0.12999748580E+03  0.71735841918E+03  0.73078232648E+03  0.00000000000E+00 0. -1.
         21    1    1    2  502  501  0.10057499497E+02  0.22384995321E+02  0.18077881285E+03  0.18243689453E+03  0.00000000000E+00 0. -1.
<scales pt_clust_5="13000.00000" pt_clust_6="13000.00000" pt_clust_7="13000.00000" pt_clust_8="13000.00000" pt_clust_9="24.54061"></scales>
<clustering>
<clus scale="   24.541">  1  9  2 -1</clus>
<clus scale="   90.852">  5  6 -1 -1</clus>
<clus scale="   91.614">  7  8 -1 -1</clus>
<clus scale="  231.340">  2  5  1 -1</clus>
<clus scale="   24.541">  1  5  2 -1</clus>
</clustering>
</event>
<event>
 9    1  0.9000149E-006  0.9553474E+02  0.7546771E-02  0.1291176E+00
         -3   -1    0    0    0  501 -0.00000000000E+00  0.00000000000E+00  0.12663211370E+03  0.12663211370E+03  0.00000000000E+00 0.  1.
          3   -1    0    0  502    0  0.00000000000E+00 -0.00000000000E+00 -0.13476644733E+03  0.13476644733E+03  0.00000000000E+00 0. -1.
         23    2    1    2    0    0  0.78782878168E+00  0.10941266844E+02  0.56308620677E+02  0.11047199970E+03  0.94409056564E+02 0.  0.
         23    2    1    2    0    0 -0.20005074739E+02 -0.16593534204E+02 -0.14280135456E+02  0.96912127492E+02  0.92263155125E+02 0.  0.
        -11    1    4    4    0    0 -0.42649983751E+02  0.20806320312E+01 -0.39533889046E+02  0.58191739334E+02  0.00000000000E+00 0.  1.
         11    1    4    4    0    0  0.22644909012E+02 -0.18674166235E+02  0.25253753590E+02  0.38720388158E+02  0.00000000000E+00 0. -1.
        -11    1    3    3    0    0 -0.20664513643E+02  0.12956877758E+02  0.76895606413E+02  0.80671166416E+02  0.00000000000E+00 0.  1.
         11    1    3    3    0    0  0.21452342424E+02 -0.20156109136E+01 -0.20586985736E+02  0.29800833286E+02  0.00000000000E+00 0. -1.
         21    1    1    2  502  501  0.19217245957E+02  0.56522673596E+01 -0.50162818851E+02  0.54014433845E+02  0.00000000000E+00 0. -1.
<scales pt_clust_5="13000.00000" pt_clust_6="13000.00000" pt_clust_7="13000.00000" pt_clust_8="13000.00000" pt_clust_9="20.03124"></scales>
<clustering>
<clus scale="   20.031">  2  9  1 -1</clus>
<clus scale="   92.263">  5  6 -1 -1</clus>
<clus scale="   93.415">  2  5  1 -1</clus>
<clus scale="   94.409">  7  8 -1 -1</clus>
<clus scale="   20.031">  2  5  1 -1</clus>
</clustering>
</event>
<event>
 9    1  0.9000149E-006  0.1030927E+03  0.7546771E-02  0.1275183E+00
          1   -1    0    0  502    0  0.00000000000E+00  0.00000000000E+00  0.80104862938E+02  0.80104862938E+02  0.00000000000E+00 0. -1.
         -1   -1    0    0    0  501 -0.00000000000E+00 -0.00000000000E+00 -0.34272877499E+03  0.34272877499E+03  0.00000000000E+00 0.  1.
         23    2    1    2    0    0  0.17986393597E+02 -0.50675933302E+02 -0.24775090595E+03  0.26994562626E+03  0.92728470075E+02 0.  0.
         23    2    1    2    0    0  0.16928219501E+02  0.95268208469E+01  0.11590337620E+02  0.92783201347E+02  0.89983674048E+02 0.  0.
        -11    1    4    4    0    0  0.71568310627E+01 -0.37548853237E+02 -0.10835893299E+02  0.39731010481E+02  0.00000000000E+00 0.  1.
         11    1    4    4    0    0  0.97713884387E+01  0.47075674084E+02  0.22426230919E+02  0.53052190866E+02  0.00000000000E+00 0. -1.
        -13    1    3    3    0    0  0.20434869801E+01  0.22179194193E+02 -0.18775982503E+02  0.29131254917E+02  0.00000000000E+00 0.  1.
         13    1    3    3    0    0  0.15942906617E+02 -0.72855127495E+02 -0.22897492345E+03  0.24081437134E+03  0.00000000000E+00 0. -1.
         21    1    1    2  502  501 -0.34914613099E+02  0.41149112455E+02 -0.26463343719E+02  0.60104810327E+02  0.00000000000E+00 0. -1.
<scales pt_clust_5="13000.00000" pt_clust_6="13000.00000" pt_clust_7="13000.00000" pt_clust_8="13000.00000" pt_clust_9="53.96554"></scales>
<clustering>
<clus scale="   53.966">  1  9  2 -1</clus>
<clus scale="   89.984">  5  6 -1 -1</clus>
<clus scale="   92.728">  7  8 -1 -1</clus>
<clus scale="  100.631">  1  5  2 -1</clus>
<clus scale="   53.966">  1  5  2 -1</clus>
</clustering>
</event>
<event>
 9    1  0.9000149E-006  0.1409356E+03  0.7546771E-02  0.1213698E+00
          2   -1    0    0  502    0  0.00000000000E+00  0.00000000000E+00  0.30361461636E+03  0.30361461636E+03  0.00000000000E+00 0. -1.
         -2   -1    0    0    0  501 -0.00000000000E+00 -0.00000000000E+00 -0.89825273569E+02  0.89825273569E+02  0.00000000000E+00 0.  1.
         23    2    1    2    0    0 -0.96538610713E+02  0.45210849405E+02  0.13286009298E+02  0.14071558108E+03  0.90888021513E+02 0.  0.
         23    2    1    2    0    0  0.76084604441E+02 -0.43472414910E+02  0.18541685519E+03  0.22724901974E+03  0.97897849294E+02 0.  0.
        -13    1    4    4    0    0  0.74315266510E+02  0.79931000014E+01  0.13946658075E+03  0.15823266297E+03  0.00000000000E+00 0.  1.
         13    1    4    4    0    0  0.17693379308E+01 -0.51465514912E+02  0.45950274439E+02  0.69016356778E+02  0.00000000000E+00 0. -1.
        -13    1    3    3    0    0 -0.69858769278E+02  0.54454702537E+02 -0.26021002941E+02  0.92318226085E+02  0.00000000000E+00 0.  1.
         13    1    3    3    0    0 -0.26679841435E+02 -0.92438531325E+01  0.39307012239E+02  0.48397354999E+02  0.00000000000E+00 0. -1.
         21    1    1    2  502  501  0.20454006272E+02 -0.17384344947E+01  0.15086478305E+02  0.25475289100E+02  0.00000000000E+00 0.  1.
<scales pt_clust_5="13000.00000" pt_clust_6="13000.00000" pt_clust_7="13000.00000" pt_clust_8="13000.00000" pt_clust_9="20.52775"></scales>
<clustering>
<clus scale="   20.528">  1  9  2 -1</clus>
<clus scale="   90.888">  7  8 -1 -1</clus>
<clus scale="   97.898">  5  6 -1 -1</clus>
<clus scale="  136.160">  2  7  1 -1</clus>
<clus scale="   20.528">  1  5  2 -1</clus>
</clustering>
</event>
<event>
 9    1  0.9000149E-006  0.1672146E+03  0.7546771E-02  0.1181497E+00
         -3   -1    0    0    0  501 -0.00000000000E+00  0.00000000000E+00  0.23757750702E+03  0.23757750702E+03  0.00000000000E+00 0.  1.
          3   -1    0    0  502    0  0.00000000000E+00 -0.00000000000E+00 -0.15435417899E+03  0.15435417899E+03  0.00000000000E+00 0. -1.
         23    2    1    2    0    0 -0.27847306492E+02 -0.11962874081E+03  0.43852084675E+02  0.15887919856E+03  0.90736355993E+02 0.  0.
         23    2    1    2    0    0  0.38816542171E+02  0.14813822606E+03  0.66378819414E+02  0.19227842652E+03  0.95463017287E+02 0.  0.
        -11    1    3    3    0    0 -0.40369231010E+02 -0.15561312039E+02 -0.44006803654E+01  0.43487874544E+02  0.00000000000E+00 0.  1.
         11    1    3    3    0    0  0.12521924518E+02 -0.10406742877E+03  0.48252765040E+02  0.11539132402E+03  0.00000000000E+00 0. -1.
        -13    1    4    4    0    0  0.42498871166E+02  0.44873795289E+02  0.63928335166E+02  0.88919309439E+02  0.00000000000E+00 0.  1.
         13    1    4    4    0    0 -0.36823289958E+01  0.10326443077E+03  0.24504842478E+01  0.10335911708E+03  0.00000000000E+00 0. -1.
         21    1    1    2  502  501 -0.10969235679E+02 -0.28509485256E+02 -0.27007576052E+02  0.40774060935E+02  0.00000000000E+00 0. -1.
<scales pt_clust_5="13000.00000" pt_clust_6="13000.00000" pt_clust_7="13000.00000" pt_clust_8="13000.00000" pt_clust_9="30.54693"></scales>
<clustering>
<clus scale="   30.547">  2  9  1 -1</clus>
<clus scale="   90.736">  5  6 -1 -1</clus>
<clus scale="   95.463">  7  8 -1 -1</clus>
<clus scale="  164.562">  1  5  2 -1</clus>
<clus scale="   30.547">  2  5  1 -1</clus>
</clustering>
</event>
<event>
 9    1  0.9000149E-006  0.1030535E+03  0.7546771E-02  0.1278109E+00
         -1   -1    0    0    0  501 -0.00000000000E+00  0.00000000000E+00  0.28394216327E+03  0.28394216327E+03  0.00000000000E+00 0.  1.
          1   -1    0    0  502    0  0.00000000000E+00 -0.00000000000E+00 -0.10164451304E+03  0.10164451304E+03  0.00000000000E+00 0. -1.
         23    2    1    2    0    0 -0.35497556343E+02  0.78374676380E+02  0.10558795345E+03  0.16949483173E+03  0.10088119581E+03 0.  0.
         23    2    1    2    0    0 -0.11417852080E+02 -0.29685296401E+01 -0.71783592837E+01  0.93926593944E+02  0.92905848543E+02 0.  0.
        -13    1    3    3    0    0  0.33326680656E+02  0.95269463059E+01  0.34907082303E+02  0.49192832246E+02  0.00000000000E+00 0. -1.
         13    1    3    3    0    0 -0.68824236999E+02  0.68847730074E+02  0.70680871143E+02  0.12030199949E+03  0.00000000000E+00 0.  1.
        -13    1    4    4    0    0  0.29183760198E+02 -0.30076319943E+02  0.82805260850E+01  0.42718192762E+02  0.00000000000E+00 0. -1.
         13    1    4    4    0    0 -0.40601612279E+02  0.27107790303E+02 -0.15458885369E+02  0.51208401181E+02  0.00000000000E+00 0.  1.
         21    1    1    2  502  501  0.46915408423E+02 -0.75406146740E+02  0.83888056068E+02  0.12216525064E+03  0.00000000000E+00 0. -1.
<scales pt_clust_5="13000.00000" pt_clust_6="13000.00000" pt_clust_7="13000.00000" pt_clust_8="13000.00000" pt_clust_9="88.80959"></scales>
<clustering>
<clus scale="   88.810">  1  9  2 -1</clus>
<clus scale="   92.906">  7  8 -1 -1</clus>
<clus scale="   95.260">  2  7  1 -1</clus>
<clus scale="  100.881">  5  6 -1 -1</clus>
<clus scale="   95.260">  2  5  1 -1</clus>
</clustering>
</event>
<event>
 9    1  0.9000149E-006  0.1063040E+03  0.7546771E-02  0.1267626E+00
         -1   -1    0    0    0  501 -0.00000000000E+00  0.00000000000E+00  0.76495190267E+02  0.76495190267E+02  0.00000000000E+00 0.  1.
          1   -1    0    0  502    0  0.00000000000E+00 -0.00000000000E+00 -0.36403213932E+03  0.36403213932E+03  0.00000000000E+00 0. -1.
         23    2    1    2    0    0  0.61874179185E+02 -0.27176469024E+02 -0.12486247340E+03  0.16758546620E+03  0.89035255369E+02 0.  0.
         23    2    1    2    0    0 -0.79041086401E+01  0.65113819843E+02 -0.17378264343E+03  0.20604341428E+03  0.89169484374E+02 0.  0.
        -11    1    4    4    0    0 -0.24230628789E+02 -0.15288113913E+02 -0.45542035106E+02  0.53804523603E+02  0.00000000000E+00 0.  1.
         11    1    4    4    0    0  0.16326520149E+02  0.80401933755E+02 -0.12824060832E+03  0.15223889068E+03  0.00000000000E+00 0. -1.
        -13    1    3    3    0    0  0.42291685399E+02 -0.58290735930E+02 -0.99883717946E+02  0.12313875775E+03  0.00000000000E+00 0.  1.
         13    1    3    3    0    0  0.19582493786E+02  0.31114266906E+02 -0.24978755456E+02  0.44446708451E+02  0.00000000000E+00 0. -1.
         21    1    1    2  502  501 -0.53970070545E+02 -0.37937350819E+02  0.11108167777E+02  0.66898449108E+02  0.00000000000E+00 0.  1.
<scales pt_clust_5="13000.00000" pt_clust_6="13000.00000" pt_clust_7="13000.00000" pt_clust_8="13000.00000" pt_clust_9="65.96977"></scales>
<clustering>
<clus scale="   65.970">  1  9  2 -1</clus>
<clus scale="   89.035">  7  8 -1 -1</clus>
<clus scale="   89.169">  5  6 -1 -1</clus>
<clus scale="  106.191">  1  7  2 -1</clus>
<clus scale="  106.304">  2  5  1 -1</clus>
</clustering>
</event>
<event>
 9    1  0.9000149E-006  0.1071304E+03  0.7546771E-02  0.1266394E+00
          1   -1    0    0  502    0  0.00000000000E+00  0.00000000000E+00  0.59121485638E+02  0.59121485638E+02  0.00000000000E+00 0. -1.
         -1   -1    0    0    0  501 -0.00000000000E+00 -0.00000000000E+00 -0.57424106826E+03  0.57424106826E+03  0.00000000000E+00 0.  1.
         23    2    1    2    0    0  0.56397278290E+02  0.12021339264E+02 -0.46050509835E+03  0.47248721922E+03  0.88623141017E+02 0.  0.
         23    2    1    2    0    0 -0.77813099911E+02  0.67767619898E+01 -0.60120224532E+02  0.13185259872E+03  0.87577756148E+02 0.  0.
        -11    1    3    3    0    0  0.51527967106E+02 -0.31917109444E+02 -0.29626063480E+03  0.30239741567E+03  0.00000000000E+00 0.  1.
         11    1    3    3    0    0  0.48693111849E+01  0.43938448708E+02 -0.16424446354E+03  0.17008980355E+03  0.00000000000E+00 0. -1.
        -13    1    4    4    0    0 -0.14406012049E+02  0.28045206213E+02 -0.56711774307E+02  0.64886763826E+02  0.00000000000E+00 0.  1.
         13    1    4    4    0    0 -0.63407087862E+02 -0.21268444223E+02 -0.34084502243E+01  0.66965834899E+02  0.00000000000E+00 0. -1.
         21    1    1    2  502  501  0.21415821620E+02 -0.18798101254E+02  0.55057402588E+01  0.29022735954E+02  0.00000000000E+00 0.  1.
<scales pt_clust_5="13000.00000" pt_clust_6="13000.00000" pt_clust_7="13000.00000" pt_clust_8="13000.00000" pt_clust_9="28.49572"></scales>
<clustering>
<clus scale="   28.496">  1  9  2 -1</clus>
<clus scale="   87.578">  7  8 -1 -1</clus>
<clus scale="   88.623">  5  6 -1 -1</clus>
<clus scale="  106.267">  1  7  2 -1</clus>
<clus scale="   28.496">  1  5  2 -1</clus>
</clustering>
</event>
<event>
 9    1  0.9000149E-006  0.9678581E+02  0.7546771E-02  0.1287719E+00
          2   -1    0    0  502    0  0.00000000000E+00  0.00000000000E+00  0.32517551523E+03  0.32517551523E+03  0.00000000000E+00 0. -1.
         -2   -1    0    0    0  501 -0.00000000000E+00 -0.00000000000E+00 -0.66248968210E+02  0.66248968210E+02  0.00000000000E+00 0.  1.
         23    2    1    2    0    0  0.68082331291E+01  0.23311840746E+02  0.99201331301E+01  0.96672801442E+02  0.93045298323E+02 0.  0.
         23    2    1    2    0    0  0.41452342434E+02 -0.35791219042E+02  0.15624339756E+03  0.18944358527E+03  0.92073691506E+02 0.  0.
        -11    1    3    3    0    0  0.46043232490E+02  0.88087992170E+01  0.23834540230E+02  0.52589538026E+02  0.00000000000E+00 0. -1.
         11    1    3    3    0    0 -0.39234999361E+02  0.14503041529E+02 -0.13914407100E+02  0.44083263416E+02  0.00000000000E+00 0.  1.
        -11    1    4    4    0    0  0.56992290903E+01 -0.62265972578E+02  0.95600198028E+02  0.11423191505E+03  0.00000000000E+00 0. -1.
         11    1    4    4    0    0  0.35753113343E+02  0.26474753536E+02  0.60643199528E+02  0.75211670222E+02  0.00000000000E+00 0.  1.
         21    1    1    2  502  501 -0.48260575563E+02  0.12479378295E+02  0.92763016329E+02  0.10530809672E+03  0.00000000000E+00 0.  1.
<scales pt_clust_5="13000.00000" pt_clust_6="13000.00000" pt_clust_7="13000.00000" pt_clust_8="13000.00000" pt_clust_9="49.84795"></scales>
<clustering>
<clus scale="   49.848">  1  9  2 -1</clus>
<clus scale="   92.074">  7  8 -1 -1</clus>
<clus scale="   93.045">  5  6 -1 -1</clus>
<clus scale="   95.852">  1  7  2 -1</clus>
<clus scale="   49.848">  1  5  2 -1</clus>
</clustering>
</event>
<event>
 9    1  0.9000149E-006  0.1606109E+03  0.7546771E-02  0.1208657E+00
         -2   -1    0    0    0  501 -0.00000000000E+00  0.00000000000E+00  0.38852399165E+02  0.38852399165E+02  0.00000000000E+00 0. -1.
          2   -1    0    0  502    0  0.00000000000E+00 -0.00000000000E+00 -0.12315321110E+04  0.12315321110E+04  0.00000000000E+00 0.  1.
         23    2    1    2    0    0  0.47411472413E+02 -0.17622146389E+02 -0.20959560346E+03  0.23328703855E+03  0.89073776194E+02 0.  0.
         23    2    1    2    0    0 -0.49556259645E+02  0.14519155201E+03 -0.36759276556E+03  0.40852118632E+03  0.90712230343E+02 0.  0.
        -13    1    4    4    0    0 -0.24193692432E+02  0.10622573835E+03 -0.14636544151E+03  0.18246118686E+03  0.00000000000E+00 0. -1.
         13    1    4    4    0    0 -0.25362567213E+02  0.38965813659E+02 -0.22122732405E+03  0.22605999946E+03  0.00000000000E+00 0.  1.
        -13    1    3    3    0    0  0.32879516056E+02  0.16406191114E+02 -0.23656075469E+02  0.43701665752E+02  0.00000000000E+00 0. -1.
         13    1    3    3    0    0  0.14531956358E+02 -0.34028337503E+02 -0.18593952799E+03  0.18958537280E+03  0.00000000000E+00 0.  1.
         21    1    1    2  502  501  0.21447872319E+01 -0.12756940562E+03 -0.61549134282E+03  0.62857628531E+03  0.00000000000E+00 0.  1.
<scales pt_clust_5="13000.00000" pt_clust_6="13000.00000" pt_clust_7="13000.00000" pt_clust_8="13000.00000" pt_clust_9="132.54117"></scales>
<clustering>
<clus scale="   89.074">  7  8 -1 -1</clus>
<clus scale="   90.712">  5  6 -1 -1</clus>
<clus scale="  102.433">  1  7  2 -1</clus>
<clus scale="  132.541">  2  9  1 -1</clus>
<clus scale="  132.541">  2  5  1 -1</clus>
</clustering>
</event>
<event>
 9    1  0.9000149E-006  0.9581512E+02  0.7546771E-02  0.1291841E+00
         -1   -1    0    0    0  501 -0.00000000000E+00  0.00000000000E+00  0.97436497933E+02  0.97436497933E+02  0.00000000000E+00 0.  1.
          1   -1    0    0  502    0  0.00000000000E+00 -0.00000000000E+00 -0.34751193397E+03  0.34751193397E+03  0.00000000000E+00 0. -1.
         23    2    1    2    0    0  0.26475192127E+02  0.16581696398E+02  0.35938214675E+02  0.10438224162E+03  0.92888151225E+02 0.  0.
         23    2    1    2    0    0  0.49485461614E+02 -0.20477271130E+02 -0.20418765043E+03  0.22884917841E+03  0.88381108430E+02 0.  0.
        -13    1    3    3    0    0  0.59909030195E+02  0.21119619426E+02  0.29477114729E+02  0.70028783484E+02  0.00000000000E+00 0.  1.
         13    1    3    3    0    0 -0.33433838068E+02 -0.45379230276E+01  0.64610999460E+01  0.34353458136E+02  0.00000000000E+00 0. -1.
        -13    1    4    4    0    0  0.41378248806E+02  0.81102953082E+01 -0.29038743624E+02  0.51197509661E+02  0.00000000000E+00 0.  1.
         13    1    4    4    0    0  0.81072128081E+01 -0.28587566439E+02 -0.17514890680E+03  0.17765166875E+03  0.00000000000E+00 0. -1.
         21    1    1    2  502  501 -0.75960653741E+02  0.38955747325E+01 -0.81826000284E+02  0.11171701187E+03  0.00000000000E+00 0. -1.
<scales pt_clust_5="13000.00000" pt_clust_6="13000.00000" pt_clust_7="13000.00000" pt_clust_8="13000.00000" pt_clust_9="76.06048"></scales>
<clustering>
<clus scale="   76.060">  2  9  1 -1</clus>
<clus scale="   88.381">  7  8 -1 -1</clus>
<clus scale="   91.452">  2  7  1 -1</clus>
<clus scale="   92.888">  5  6 -1 -1</clus>
<clus scale="   76.060">  2  5  1 -1</clus>
</clustering>
</event>
<event>
 9    1  0.9000149E-006  0.1267442E+03  0.7546771E-02  0.1232374E+00
         -2   -1    0    0    0  501 -0.00000000000E+00  0.00000000000E+00  0.32049491399E+03  0.32049491399E+03  0.00000000000E+00 0.  1.
          2   -1    0    0  502    0  0.00000000000E+00 -0.00000000000E+00 -0.92834957580E+02  0.92834957580E+02  0.00000000000E+00 0. -1.
         23    2    1    2    0    0  0.30403265535E+02 -0.75819753570E+02  0.17415551431E+03  0.21274956578E+03  0.90880366350E+02 0.  0.
         23    2    1    2    0    0 -0.30347144987E+01  0.10796467297E+03  0.67028359592E+02  0.15624939363E+03  0.90859737616E+02 0.  0.
        -11    1    4    4    0    0 -0.11587804714E+02  0.40031784616E+02  0.76512693938E+02  0.87126421545E+02  0.00000000000E+00 0.  1.
         11    1    4    4    0    0  0.85530902155E+01  0.67932888352E+02 -0.94843343467E+01  0.69122972087E+02  0.00000000000E+00 0. -1.
        -13    1    3    3    0    0  0.58396212312E+02 -0.24732996226E+02  0.80890449217E+02  0.10278668926E+03  0.00000000000E+00 0.  1.
         13    1    3    3    0    0 -0.27992946777E+02 -0.51086757345E+02  0.93265065094E+02  0.10996287652E+03  0.00000000000E+00 0. -1.
         21    1    1    2  502  501 -0.27368551036E+02 -0.32144919397E+02 -0.13523917488E+02  0.44330912162E+02  0.00000000000E+00 0.  1.
<scales pt_clust_5="13000.00000" pt_clust_6="13000.00000" pt_clust_7="13000.00000" pt_clust_8="13000.00000" pt_clust_9="42.21769"></scales>
<clustering>
<clus scale="   42.218">  2  9  1 -1</clus>
<clus scale="   90.860">  5  6 -1 -1</clus>
<clus scale="   90.880">  7  8 -1 -1</clus>
<clus scale="  126.729">  2  5  1 -1</clus>
<clus scale="   42.218">  2  5  1 -1</clus>
</clustering>
</event>
<event>
 9    1  0.9000149E-006  0.1048001E+03  0.7546771E-02  0.1271219E+00
         -1   -1    0    0    0  501 -0.00000000000E+00  0.00000000000E+00  0.34067916695E+03  0.34067916695E+03  0.00000000000E+00 0.  1.
          1   -1    0    0  502    0  0.00000000000E+00 -0.00000000000E+00 -0.10605842639E+03  0.10605842639E+03  0.00000000000E+00 0. -1.
         23    2    1    2    0    0  0.37536669430E+02  0.36185867845E+02  0.15388998059E+03  0.18547040209E+03  0.89435593253E+02 0.  0.
         23    2    1    2    0    0  0.40309114930E+02 -0.77573063743E+02  0.11095301008E+03  0.16806713476E+03  0.91069129655E+02 0.  0.
        -11    1    4    4    0    0  0.18652117307E+02 -0.51138618714E+02  0.12080473231E+03  0.13250223829E+03  0.00000000000E+00 0.  1.
         11    1    4    4    0    0  0.21656997623E+02 -0.26434445029E+02 -0.98517222293E+01  0.35564896470E+02  0.00000000000E+00 0. -1.
        -13    1    3    3    0    0 -0.12157491119E+02  0.42026058929E+02  0.33517966488E+02  0.55113050151E+02  0.00000000000E+00 0.  1.
         13    1    3    3    0    0  0.49694160549E+02 -0.58401910847E+01  0.12037201411E+03  0.13035735194E+03  0.00000000000E+00 0. -1.
         21    1    1    2  502  501 -0.77845784360E+02  0.41387195898E+02 -0.30222250110E+02  0.93200056484E+02  0.00000000000E+00 0.  1.
<scales pt_clust_5="13000.00000" pt_clust_6="13000.00000" pt_clust_7="13000.00000" pt_clust_8="13000.00000" pt_clust_9="88.16386"></scales>
<clustering>
<clus scale="   88.164">  2  9  1 -1</clus>
<clus scale="   89.436">  7  8 -1 -1</clus>
<clus scale="   91.069">  5  6 -1 -1</clus>
<clus scale="  103.384">  1  7  2 -1</clus>
<clus scale="   88.164">  2  5  1 -1</clus>
</clustering>
</event>
<event>
 9    1  0.9000149E-006  0.9329637E+02  0.7546771E-02  0.1295161E+00
         -1   -1    0    0    0  501 -0.00000000000E+00  0.00000000000E+00  0.13181820841E+03  0.13181820841E+03  0.00000000000E+00 0.  1.
          1   -1    0    0  502    0  0.00000000000E+00 -0.00000000000E+00 -0.16574003658E+03  0.16574003658E+03  0.00000000000E+00 0. -1.
         23    2    1    2    0    0 -0.54699819003E+01 -0.26900698192E+02  0.67839119050E+02  0.11687652866E+03  0.91128527983E+02 0.  0.
         23    2    1    2    0    0  0.87220760326E+01  0.77715726520E+00 -0.18323312750E+02  0.93189691830E+02  0.90949965858E+02 0.  0.
        -11    1    3    3    0    0  0.13761634927E+02 -0.57445647443E+02  0.41400931568E+02  0.72134749883E+02  0.00000000000E+00 0. -1.
         11    1    3    3    0    0 -0.19231616827E+02  0.30544949251E+02  0.26438187483E+02  0.44741778775E+02  0.00000000000E+00 0.  1.
        -13    1    4    4    0    0 -0.41102112127E+02 -0.40912979818E+01 -0.78593677833E+01  0.42046307834E+02  0.00000000000E+00 0.  1.
         13    1    4    4    0    0  0.49824188160E+02  0.48684552470E+01 -0.10463944967E+02  0.51143383996E+02  0.00000000000E+00 0. -1.
         21    1    1    2  502  501 -0.32520941323E+01  0.26123540927E+02 -0.83437634469E+02  0.87492024508E+02  0.00000000000E+00 0. -1.
<scales pt_clust_5="13000.00000" pt_clust_6="13000.00000" pt_clust_7="13000.00000" pt_clust_8="13000.00000" pt_clust_9="26.32519"></scales>
<clustering>
<clus scale="   26.325">  2  9  1 -1</clus>
<clus scale="   90.950">  7  8 -1 -1</clus>
<clus scale="   91.129">  5  6 -1 -1</clus>
<clus scale="   93.122">  2  7  1 -1</clus>
<clus scale="   26.325">  2  5  1 -1</clus>
</clustering>
</event>
<event>
 9    1  0.9000149E-006  0.1030136E+03  0.7546771E-02  0.1277405E+00
          2   -1    0    0  502    0  0.00000000000E+00  0.00000000000E+00  0.44225022815E+02  0.44225022815E+02  0.00000000000E+00 0. -1.
         -2   -1    0    0    0  501 -0.00000000000E+00 -0.00000000000E+00 -0.40567714512E+03  0.40567714512E+03  0.00000000000E+00 0.  1.
         23    2    1    2    0    0  0.46171102587E+02  0.23854075659E+02 -0.28293994908E+03  0.30186014108E+03  0.91453498285E+02 0.  0.
         23    2    1    2    0    0 -0.18678306173E+02 -0.33623337565E+02 -0.43047465213E+02  0.10211776478E+03  0.84235062010E+02 0.  0.
        -11    1    4    4    0    0  0.38297383197E+01  0.23851939701E+02  0.40263551427E+01  0.24490681061E+02  0.00000000000E+00 0.  1.
         11    1    4    4    0    0 -0.22508044492E+02 -0.57475277266E+02 -0.47073820355E+02  0.77627083718E+02  0.00000000000E+00 0. -1.
        -11    1    3    3    0    0 -0.25428991040E+01  0.37218029570E+02 -0.20905907546E+03  0.21236135499E+03  0.00000000000E+00 0.  1.
         11    1    3    3    0    0  0.48714001691E+02 -0.13363953911E+02 -0.73880873615E+02  0.89498786087E+02  0.00000000000E+00 0. -1.
         21    1    1    2  502  501 -0.27492796414E+02  0.97692619060E+01 -0.35464708018E+02  0.45924262081E+02  0.00000000000E+00 0. -1.
<scales pt_clust_5="13000.00000" pt_clust_6="13000.00000" pt_clust_7="13000.00000" pt_clust_8="13000.00000" pt_clust_9="29.17691"></scales>
<clustering>
<clus scale="   29.177">  1  9  2 -1</clus>
<clus scale="   84.235">  5  6 -1 -1</clus>
<clus scale="   91.453">  7  8 -1 -1</clus>
<clus scale="   96.662">  1  5  2 -1</clus>
<clus scale="   29.177">  1  5  2 -1</clus>
</clustering>
</event>
<event>
 9    1  0.9000149E-006  0.9879210E+02  0.7546771E-02  0.1289074E+00
         -2   -1    0    0    0  501 -0.00000000000E+00  0.00000000000E+00  0.31178512347E+03  0.31178512347E+03  0.00000000000E+00 0.  1.
          2   -1    0    0  502    0  0.00000000000E+00 -0.00000000000E+00 -0.65885318631E+02  0.65885318631E+02  0.00000000000E+00 0. -1.
         23    2    1    2    0    0 -0.17636159081E+01  0.24706390536E+01  0.17075335475E+03  0.19667674657E+03  0.97549065002E+02 0.  0.
         23    2    1    2    0    0 -0.44336810556E+02  0.11200481076E+02  0.87617491564E+02  0.13131799000E+03  0.86466098107E+02 0.  0.
        -11    1    4    4    0    0 -0.14498517560E+02 -0.24051781423E+02  0.79643353959E+02  0.84449742634E+02  0.00000000000E+00 0.  1.
         11    1    4    4    0    0 -0.29838292997E+02  0.35252262499E+02  0.79741376050E+01  0.46868247362E+02  0.00000000000E+00 0. -1.
        -11    1    3    3    0    0  0.23670824226E+02  0.43092726303E+02  0.96420965201E+02  0.10823258987E+03  0.00000000000E+00 0. -1.
         11    1    3    3    0    0 -0.25434440134E+02 -0.40622087249E+02  0.74332389550E+02  0.88444156696E+02  0.00000000000E+00 0.  1.
         21    1    1    2  502  501  0.46100426464E+02 -0.13671120129E+02 -0.12471041472E+02  0.49675705543E+02  0.00000000000E+00 0. -1.
<scales pt_clust_5="13000.00000" pt_clust_6="13000.00000" pt_clust_7="13000.00000" pt_clust_8="13000.00000" pt_clust_9="48.08481"></scales>
<clustering>
<clus scale="   48.085">  2  9  1 -1</clus>
<clus scale="   86.466">  5  6 -1 -1</clus>
<clus scale="   87.866">  2  5  1 -1</clus>
<clus scale="   97.549">  7  8 -1 -1</clus>
<clus scale="   48.085">  2  5  1 -1</clus>
</clustering>
</event>
<event>
 9    1  0.9000149E-006  0.1108167E+03  0.7546771E-02  0.1259117E+00
         -2   -1    0    0    0  501 -0.00000000000E+00  0.00000000000E+00  0.10066809285E+03  0.10066809285E+03  0.00000000000E+00 0.  1.
          2   -1    0    0  502    0  0.00000000000E+00 -0.00000000000E+00 -0.43988974650E+03  0.43988974650E+03  0.00000000000E+00 0. -1.
         23    2    1    2    0    0 -0.68085637475E+02  0.21804229320E+02  0.29240716416E+02  0.11877414058E+03  0.90228590413E+02 0.  0.
         23    2    1    2    0    0  0.37227990295E+02  0.60551656610E+02 -0.23976577128E+03  0.26590714224E+03  0.90369003737E+02 0.  0.
        -13    1    4    4    0    0 -0.16772164683E+02  0.34983583437E+02 -0.33814104551E+02  0.51464067900E+02  0.00000000000E+00 0.  1.
         13    1    4    4    0    0  0.54000154978E+02  0.25568073174E+02 -0.20595166673E+03  0.21444307434E+03  0.00000000000E+00 0. -1.
        -13    1    3    3    0    0 -0.30830701999E+02  0.40622473766E+02  0.50641132257E+02  0.71869616925E+02  0.00000000000E+00 0.  1.
         13    1    3    3    0    0 -0.37254935476E+02 -0.18818244447E+02 -0.21400415841E+02  0.46904523657E+02  0.00000000000E+00 0. -1.
         21    1    1    2  502  501  0.30857647180E+02 -0.82355885930E+02 -0.12869659879E+03  0.15587655653E+03  0.00000000000E+00 0. -1.
<scales pt_clust_5="13000.00000" pt_clust_6="13000.00000" pt_clust_7="13000.00000" pt_clust_8="13000.00000" pt_clust_9="87.94707"></scales>
<clustering>
<clus scale="   87.947">  2  9  1 -1</clus>
<clus scale="   90.229">  7  8 -1 -1</clus>
<clus scale="   90.369">  5  6 -1 -1</clus>
<clus scale="  110.702">  1  7  2 -1</clus>
<clus scale="   87.947">  2  5  1 -1</clus>
</clustering>
</event>
<event>
 9    1  0.9000149E-006  0.1945259E+03  0.7546771E-02  0.1154455E+00
          2   -1    0    0  502    0  0.00000000000E+00  0.00000000000E+00  0.76970857601E+02  0.76970857601E+02  0.00000000000E+00 0. -1.
         -2   -1    0    0    0  501 -0.00000000000E+00 -0.00000000000E+00 -0.82397898982E+03  0.82397898982E+03  0.00000000000E+00 0.  1.
         23    2    1    2    0    0  0.12431526593E+03  0.12335727586E+03 -0.54963207036E+03  0.58400674898E+03  0.91088787623E+02 0.  0.
         23    2    1    2    0    0 -0.14222632361E+03 -0.88722795451E+02 -0.20184565462E+03  0.27769605422E+03  0.90958060008E+02 0.  0.
        -11    1    3    3    0    0  0.41583500522E+02 -0.78193389142E+01 -0.11603957248E+03  0.12351320561E+03  0.00000000000E+00 0. -1.
         11    1    3    3    0    0  0.82731765403E+02  0.13117661478E+03 -0.43359249788E+03  0.46049354337E+03  0.00000000000E+00 0.  1.
        -11    1    4    4    0    0 -0.61759980756E+02 -0.62508776452E+02 -0.43264385555E+02  0.97946155688E+02  0.00000000000E+00 0. -1.
         11    1    4    4    0    0 -0.80466342855E+02 -0.26214018999E+02 -0.15858126907E+03  0.17974989853E+03  0.00000000000E+00 0.  1.
         21    1    1    2  502  501  0.17911057685E+02 -0.34634480412E+02  0.44695927622E+01  0.39247044224E+02  0.00000000000E+00 0. -1.
<scales pt_clust_5="13000.00000" pt_clust_6="13000.00000" pt_clust_7="13000.00000" pt_clust_8="13000.00000" pt_clust_9="38.99171"></scales>
<clustering>
<clus scale="   38.992">  1  9  2 -1</clus>
<clus scale="   90.958">  7  8 -1 -1</clus>
<clus scale="   91.089">  5  6 -1 -1</clus>
<clus scale="  194.465">  1  7  2 -1</clus>
<clus scale="   38.992">  1  5  2 -1</clus>
</clustering>
</event>
<event>
 9    1  0.9000149E-006  0.9543385E+02  0.7546771E-02  0.1291614E+00
          1   -1    0    0  502    0  0.00000000000E+00  0.00000000000E+00  0.11589124783E+03  0.11589124783E+03  0.00000000000E+00 0. -1.
         -1   -1    0    0    0  501 -0.00000000000E+00 -0.00000000000E+00 -0.18323433439E+03  0.18323433439E+03  0.00000000000E+00 0.  1.
         23    2    1    2    0    0  0.63640409540E+01  0.20246370135E+02 -0.11056620249E+03  0.14527654713E+03  0.91814887102E+02 0.  0.
         23    2    1    2    0    0 -0.99985565061E+00  0.23784855177E+01 -0.10849240925E+02  0.94989215572E+02  0.94332328190E+02 0.  0.
        -13    1    4    4    0    0 -0.14345692680E+02  0.35209092745E+02  0.24262392450E+02  0.45101472236E+02  0.00000000000E+00 0.  1.
         13    1    4    4    0    0  0.13345837029E+02 -0.32830607228E+02 -0.35111633375E+02  0.49887743337E+02  0.00000000000E+00 0. -1.
        -13    1    3    3    0    0 -0.22744765865E+02 -0.28415977187E+02 -0.54485257050E+02  0.65524311287E+02  0.00000000000E+00 0. -1.
         13    1    3    3    0    0  0.29108806819E+02  0.48662347323E+02 -0.56080945435E+02  0.79752235845E+02  0.00000000000E+00 0.  1.
         21    1    1    2  502  501 -0.53641853033E+01 -0.22624855653E+02  0.54072356850E+02  0.58859819509E+02  0.00000000000E+00 0. -1.
<scales pt_clust_5="13000.00000" pt_clust_6="13000.00000" pt_clust_7="13000.00000" pt_clust_8="13000.00000" pt_clust_9="23.25207"></scales>
<clustering>
<clus scale="   23.252">  1  9  2 -1</clus>
<clus scale="   91.815">  7  8 -1 -1</clus>
<clus scale="   92.946">  2  7  1 -1</clus>
<clus scale="   94.332">  5  6 -1 -1</clus>
<clus scale="   23.252">  1  5  2 -1</clus>
</clustering>
</event>
<event>
 9    1  0.9000149E-006  0.1048797E+03  0.7546771E-02  0.1272292E+00
         -1   -1    0    0    0  501 -0.00000000000E+00  0.00000000000E+00  0.47981718478E+02  0.47981718478E+02  0.00000000000E+00 0.  1.
          1   -1    0    0  502    0  0.00000000000E+00 -0.00000000000E+00 -0.39369565867E+03  0.39369565867E+03  0.00000000000E+00 0. -1.
         23    2    1    2    0    0 -0.22332288867E+02  0.46353946458E+02 -0.37901205489E+02  0.10938655670E+03  0.88777800886E+02 0.  0.
         23    2    1    2    0    0  0.30814327557E+02 -0.26365383343E+02 -0.22851288961E+03  0.25007188670E+03  0.93129756669E+02 0.  0.
        -11    1    4    4    0    0  0.51255889162E+02 -0.24966105841E+02 -0.22102076257E+03  0.22825566828E+03  0.00000000000E+00 0. -1.
         11    1    4    4    0    0 -0.20441561604E+02 -0.13992775020E+01 -0.74921270337E+01  0.21816218413E+02  0.00000000000E+00 0.  1.
        -11    1    3    3    0    0 -0.31557076923E+02  0.67823824523E+02 -0.41805420307E+02  0.85694885751E+02  0.00000000000E+00 0.  1.
         11    1    3    3    0    0  0.92247880561E+01 -0.21469878066E+02  0.39042148179E+01  0.23691670945E+02  0.00000000000E+00 0. -1.
         21    1    1    2  502  501 -0.84820386904E+01 -0.19988563114E+02 -0.79299845097E+02  0.82218933757E+02  0.00000000000E+00 0.  1.
<scales pt_clust_5="13000.00000" pt_clust_6="13000.00000" pt_clust_7="13000.00000" pt_clust_8="13000.00000" pt_clust_9="21.71377"></scales>
<clustering>
<clus scale="   21.714">  2  9  1 -1</clus>
<clus scale="   88.778">  7  8 -1 -1</clus>
<clus scale="   93.130">  5  6 -1 -1</clus>
<clus scale="  101.035">  1  7  2 -1</clus>
<clus scale="   21.714">  2  5  1 -1</clus>
</clustering>
</event>
<event>
 9    1  0.9000149E-006  0.1155528E+03  0.7546771E-02  0.1250666E+00
         -2   -1    0    0    0  501 -0.00000000000E+00  0.00000000000E+00  0.18199660957E+03  0.18199660957E+03  0.00000000000E+00 0.  1.
          2   -1    0    0  502    0  0.00000000000E+00 -0.00000000000E+00 -0.10518117582E+03  0.10518117582E+03  0.00000000000E+00 0. -1.
         23    2    1    2    0    0  0.39154866375E+01 -0.61512432239E+02  0.57101799899E+02  0.12330255524E+03  0.90242973246E+02 0.  0.
         23    2    1    2    0    0  0.69302125655E+01  0.86770009084E+02  0.37702072615E+02  0.13102468513E+03  0.90382296445E+02 0.  0.
        -11    1    3    3    0    0  0.35166080582E+02 -0.39247621218E+02  0.65455961945E+02  0.84032802814E+02  0.00000000000E+00 0.  1.
         11    1    3    3    0    0 -0.31250593945E+02 -0.22264811021E+02 -0.83541620456E+01  0.39269752421E+02  0.00000000000E+00 0. -1.
        -13    1    4    4    0    0 -0.17160244015E+02  0.72356186901E+02  0.59697557554E+02  0.95360841730E+02  0.00000000000E+00 0. -1.
         13    1    4    4    0    0  0.24090456581E+02  0.14413822183E+02 -0.21995484939E+02  0.35663843398E+02  0.00000000000E+00 0.  1.
         21    1    1    2  502  501 -0.10845699203E+02 -0.25257576845E+02 -0.17988438762E+02  0.32850545024E+02  0.00000000000E+00 0.  1.
<scales pt_clust_5="13000.00000" pt_clust_6="13000.00000" pt_clust_7="13000.00000" pt_clust_8="13000.00000" pt_clust_9="27.48771"></scales>
<clustering>
<clus scale="   27.488">  2  9  1 -1</clus>
<clus scale="   90.243">  5  6 -1 -1</clus>
<clus scale="   90.382">  7  8 -1 -1</clus>
<clus scale="  115.444">  1  5  2 -1</clus>
<clus scale="   27.488">  2  5  1 -1</clus>
</clustering>
</event>
<event>
 9    1  0.9000149E-006  0.1263844E+03  0.7546771E-02  0.1245543E+00
         -1   -1    0    0    0  501 -0.00000000000E+00  0.00000000000E+00  0.12027226699E+03  0.12027226699E+03  0.00000000000E+00 0.  1.
          1   -1    0    0  502    0  0.00000000000E+00 -0.00000000000E+00 -0.35548047747E+03  0.35548047747E+03  0.00000000000E+00 0. -1.
         23    2    1    2    0    0 -0.28078194229E+02  0.12099112609E+02  0.47602323881E+02  0.10723837066E+03  0.91100567426E+02 0.  0.
         23    2    1    2    0    0  0.57135007287E+02  0.25862087772E+01 -0.66349695613E+02  0.14961884676E+03  0.12129476355E+03 0.  0.
        -11    1    4    4    0    0  0.16582134141E+02  0.60382707134E+02 -0.22670612563E+02  0.66595759381E+02  0.00000000000E+00 0.  1.
         11    1    4    4    0    0  0.40552873146E+02 -0.57796498357E+02 -0.43679083050E+02  0.83023087384E+02  0.00000000000E+00 0. -1.
        -11    1    3    3    0    0 -0.52392214201E+02 -0.18982551087E+02  0.20546893133E+02  0.59392391534E+02  0.00000000000E+00 0.  1.
         11    1    3    3    0    0  0.24314019972E+02  0.31081663696E+02  0.27055430749E+02  0.47845979124E+02  0.00000000000E+00 0. -1.
         21    1    1    2  502  501 -0.29056813058E+02 -0.14685321386E+02 -0.21646083874E+03  0.21889552704E+03  0.00000000000E+00 0. -1.
<scales pt_clust_5="13000.00000" pt_clust_6="13000.00000" pt_clust_7="13000.00000" pt_clust_8="13000.00000" pt_clust_9="32.55698"></scales>
<clustering>
<clus scale="   32.557">  2  9  1 -1</clus>
<clus scale="   91.101">  7  8 -1 -1</clus>
<clus scale="   97.775">  1  7  2 -1</clus>
<clus scale="  121.295">  5  6 -1 -1</clus>
<clus scale="   32.557">  2  5  1 -1</clus>
</clustering>
</event>
<event>
 9    1  0.9000149E-006  0.1520646E+03  0.7546771E-02  0.1198695E+00
          2   -1    0    0  502    0  0.00000000000E+00  0.00000000000E+00  0.52242161580E+03  0.52242161580E+03  0.00000000000E+00 0. -1.
         -2   -1    0    0    0  501 -0.00000000000E+00 -0.00000000000E+00 -0.77628150727E+02  0.77628150727E+02  0.00000000000E+00 0.  1.
         23    2    1    2    0    0  0.29103942866E+02 -0.14243170817E+03  0.76308536740E+02  0.18588828875E+03  0.87164397159E+02 0.  0.
         23    2    1    2    0    0 -0.22283718123E+02  0.11301558342E+03  0.34776307688E+03  0.37753882102E+03  0.91254137139E+02 0.  0.
        -11    1    3    3    0    0  0.17525679118E+02 -0.38050872985E+02  0.68861578818E+02  0.80603569405E+02  0.00000000000E+00 0. -1.
         11    1    3    3    0    0  0.11578263748E+02 -0.10438083518E+03  0.74469579224E+01  0.10528471934E+03  0.00000000000E+00 0.  1.
        -13    1    4    4    0    0 -0.49182036603E+02  0.52969309652E+02  0.11653091983E+03  0.13712795399E+03  0.00000000000E+00 0.  1.
         13    1    4    4    0    0  0.26898318479E+02  0.60046273771E+02  0.23123215705E+03  0.24041086702E+03  0.00000000000E+00 0. -1.
         21    1    1    2  502  501 -0.68202247422E+01  0.29416124745E+02  0.20721851453E+02  0.36622656760E+02  0.00000000000E+00 0. -1.
<scales pt_clust_5="13000.00000" pt_clust_6="13000.00000" pt_clust_7="13000.00000" pt_clust_8="13000.00000" pt_clust_9="30.19642"></scales>
<clustering>
<clus scale="   30.196">  2  9  1 -1</clus>
<clus scale="   87.164">  5  6 -1 -1</clus>
<clus scale="   91.254">  7  8 -1 -1</clus>
<clus scale="  149.646">  2  5  1 -1</clus>
<clus scale="  152.065">  1  5  2 -1</clus>
</clustering>
</event>
<event>
 9    1  0.9000149E-006  0.9711555E+02  0.7546771E-02  0.1287426E+00
          1   -1    0    0  502    0  0.00000000000E+00  0.00000000000E+00  0.34679311412E+02  0.34679311412E+02  0.00000000000E+00 0. -1.
         -1   -1    0    0    0  501 -0.00000000000E+00 -0.00000000000E+00 -0.46914597836E+03  0.46914597836E+03  0.00000000000E+00 0.  1.
         23    2    1    2    0    0  0.10446403173E+02 -0.11778852275E+02 -0.20736109434E+03  0.22763858867E+03  0.92589604741E+02 0.  0.
         23    2    1    2    0    0  0.26666272832E+02  0.35668246291E+02 -0.19648485050E+03  0.22246815227E+03  0.94352892888E+02 0.  0.
        -11    1    4    4    0    0  0.60741533241E+02  0.24796101281E+02 -0.10033645062E+03  0.11988237494E+03  0.00000000000E+00 0.  1.
         11    1    4    4    0    0 -0.34075260409E+02  0.10872145010E+02 -0.96148399885E+02  0.10258577733E+03  0.00000000000E+00 0. -1.
        -11    1    3    3    0    0 -0.67348818594E+01  0.38655592768E+02 -0.10776850276E+03  0.11468942267E+03  0.00000000000E+00 0. -1.
         11    1    3    3    0    0  0.17181285032E+02 -0.50434445043E+02 -0.99592591582E+02  0.11294916600E+03  0.00000000000E+00 0.  1.
         21    1    1    2  502  501 -0.37112676004E+02 -0.23889394016E+02 -0.30620722110E+02  0.53718548837E+02  0.00000000000E+00 0. -1.
<scales pt_clust_5="13000.00000" pt_clust_6="13000.00000" pt_clust_7="13000.00000" pt_clust_8="13000.00000" pt_clust_9="44.13676"></scales>
<clustering>
<clus scale="   44.137">  1  9  2 -1</clus>
<clus scale="   92.590">  7  8 -1 -1</clus>
<clus scale="   94.353">  5  6 -1 -1</clus>
<clus scale="   95.403">  2  7  1 -1</clus>
<clus scale="   44.137">  1  5  2 -1</clus>
</clustering>
</event>
<event>
 9    1  0.9000149E-006  0.1070317E+03  0.7546771E-02  0.1267316E+00
         -1   -1    0    0    0  501 -0.00000000000E+00  0.00000000000E+00  0.40150711720E+03  0.40150711720E+03  0.00000000000E+00 0.  1.
          1   -1    0    0  502    0  0.00000000000E+00 -0.00000000000E+00 -0.63666941024E+02  0.63666941024E+02  0.00000000000E+00 0. -1.
         23    2    1    2    0    0  0.43710942654E+02 -0.63822797559E+02  0.26190796362E+03  0.28815271338E+03  0.91935895174E+02 0.  0.
         23    2    1    2    0    0 -0.65796087451E+01  0.40513849679E+01  0.44372156632E+02  0.99901990268E+02  0.89172946592E+02 0.  0.
        -11    1    4    4    0    0  0.23801523057E+02 -0.59444069685E+01  0.59619933355E+02  0.64470031234E+02  0.00000000000E+00 0. -1.
         11    1    4    4    0    0 -0.30381131803E+02  0.99957919365E+01 -0.15247776723E+02  0.35431959034E+02  0.00000000000E+00 0.  1.
        -13    1    3    3    0    0  0.65341454394E+02 -0.41390560776E+02  0.11930260592E+03  0.14218226318E+03  0.00000000000E+00 0. -1.
         13    1    3    3    0    0 -0.21630511739E+02 -0.22432236783E+02  0.14260535770E+03  0.14597045020E+03  0.00000000000E+00 0.  1.
         21    1    1    2  502  501 -0.37131333909E+02  0.59771412591E+02  0.31560055921E+02  0.77119354580E+02  0.00000000000E+00 0.  1.
<scales pt_clust_5="13000.00000" pt_clust_6="13000.00000" pt_clust_7="13000.00000" pt_clust_8="13000.00000" pt_clust_9="70.36588"></scales>
<clustering>
<clus scale="   70.366">  2  9  1 -1</clus>
<clus scale="   89.173">  5  6 -1 -1</clus>
<clus scale="   91.936">  7  8 -1 -1</clus>
<clus scale="  104.668">  2  5  1 -1</clus>
<clus scale="   70.366">  2  5  1 -1</clus>
</clustering>
</event>
<event>
 9    1  0.9000149E-006  0.1006318E+03  0.7546771E-02  0.1279863E+00
         -1   -1    0    0    0  501 -0.00000000000E+00  0.00000000000E+00  0.42628762821E+03  0.42628762821E+03  0.00000000000E+00 0.  1.
          1   -1    0    0  502    0  0.00000000000E+00 -0.00000000000E+00 -0.39081062805E+02  0.39081062805E+02  0.00000000000E+00 0. -1.
         23    2    1    2    0    0  0.39740337216E+02  0.80745017883E+01  0.29317386711E+03  0.30993008477E+03  0.91985048285E+02 0.  0.
         23    2    1    2    0    0 -0.26054360802E+02  0.13119636592E+02  0.70262422333E+02  0.12077560765E+03  0.93802904171E+02 0.  0.
        -13    1    3    3    0    0 -0.28893444970E+02  0.13046523601E+02  0.90322360307E+02  0.95724457229E+02  0.00000000000E+00 0. -1.
         13    1    3    3    0    0  0.68633782186E+02 -0.49720218124E+01  0.20285150680E+03  0.21420562754E+03  0.00000000000E+00 0.  1.
        -13    1    4    4    0    0  0.11214842807E+02  0.16619269369E+02  0.79690103093E+02  0.82173507558E+02  0.00000000000E+00 0.  1.
         13    1    4    4    0    0 -0.37269203610E+02 -0.34996327772E+01 -0.94276807597E+01  0.38602100096E+02  0.00000000000E+00 0. -1.
         21    1    1    2  502  501 -0.13685976414E+02 -0.21194138380E+02  0.23770275961E+02  0.34662998591E+02  0.00000000000E+00 0.  1.
<scales pt_clust_5="13000.00000" pt_clust_6="13000.00000" pt_clust_7="13000.00000" pt_clust_8="13000.00000" pt_clust_9="25.22890"></scales>
<clustering>
<clus scale="   25.229">  2  9  1 -1</clus>
<clus scale="   91.985">  5  6 -1 -1</clus>
<clus scale="   93.803">  7  8 -1 -1</clus>
<clus scale="   98.939">  1  5  2 -1</clus>
<clus scale="   25.229">  2  5  1 -1</clus>
</clustering>
</event>
<event>
 9    1  0.9000149E-006  0.2257055E+03  0.7546771E-02  0.1129983E+00
          1   -1    0    0  502    0  0.00000000000E+00  0.00000000000E+00  0.25705926672E+03  0.25705926672E+03  0.00000000000E+00 0. -1.
         -1   -1    0    0    0  501 -0.00000000000E+00 -0.00000000000E+00 -0.53587432376E+03  0.53587432376E+03  0.00000000000E+00 0.  1.
         23    2    1    2    0    0 -0.19605816912E+03  0.50121455789E+02 -0.27936409423E+03  0.35765656386E+03  0.94461391700E+02 0.  0.
         23    2    1    2    0    0  0.19727633356E+03 -0.70732197503E+02 -0.15653467588E+03  0.27684224664E+03  0.90650588658E+02 0.  0.
        -11    1    4    4    0    0  0.51109938877E+02 -0.17898584295E+02 -0.95658603312E+02  0.10992339860E+03  0.00000000000E+00 0.  1.
         11    1    4    4    0    0  0.14616639468E+03 -0.52833613209E+02 -0.60876072564E+02  0.16691884804E+03  0.00000000000E+00 0. -1.
        -13    1    3    3    0    0 -0.14690568334E+03  0.76637567013E+02 -0.18820978995E+03  0.25075390627E+03  0.00000000000E+00 0.  1.
         13    1    3    3    0    0 -0.49152485778E+02 -0.26516111224E+02 -0.91154304276E+02  0.10690265759E+03  0.00000000000E+00 0. -1.
         21    1    1    2  502  501 -0.12181644428E+01  0.20610741714E+02  0.15708371306E+03  0.15843477998E+03  0.00000000000E+00 0. -1.
<scales pt_clust_5="13000.00000" pt_clust_6="13000.00000" pt_clust_7="13000.00000" pt_clust_8="13000.00000" pt_clust_9="20.64671"></scales>
<clustering>
<clus scale="   20.647">  1  9  2 -1</clus>
<clus scale="   90.651">  5  6 -1 -1</clus>
<clus scale="   94.461">  7  8 -1 -1</clus>
<clus scale="  224.137">  1  5  2 -1</clus>
<clus scale="   20.647">  1  5  2 -1</clus>
</clustering>
</event>
<event>
 9    1  0.9000149E-006  0.1001397E+03  0.7546771E-02  0.1280316E+00
         -1   -1    0    0    0  501 -0.00000000000E+00  0.00000000000E+00  0.33033510626E+02  0.33033510626E+02  0.00000000000E+00 0.  1.
          1   -1    0    0  502    0  0.00000000000E+00 -0.00000000000E+00 -0.39466176746E+03  0.39466176746E+03  0.00000000000E+00 0. -1.
         23    2    1    2    0    0 -0.29077797714E+02  0.46412183056E+01 -0.14243182777E+03  0.17150636385E+03  0.90887557202E+02 0.  0.
         23    2    1    2    0    0  0.50604093491E+02 -0.16090866334E+02 -0.15653394063E+03  0.18895006157E+03  0.91539941784E+02 0.  0.
        -13    1    4    4    0    0 -0.23271654451E+02 -0.13650559612E+01 -0.72208307514E+02  0.75878013632E+02  0.00000000000E+00 0.  1.
         13    1    4    4    0    0  0.73875747943E+02 -0.14725810373E+02 -0.84325633118E+02  0.11307204794E+03  0.00000000000E+00 0. -1.
        -13    1    3    3    0    0 -0.28899819027E+02  0.34534237708E+02 -0.27530684066E+02  0.52780220528E+02  0.00000000000E+00 0.  1.
         13    1    3    3    0    0 -0.17797868697E+00 -0.29893019402E+02 -0.11490114370E+03  0.11872614332E+03  0.00000000000E+00 0. -1.
         21    1    1    2  502  501 -0.21526295777E+02  0.11449648029E+02 -0.62662488439E+02  0.67238852661E+02  0.00000000000E+00 0.  1.
<scales pt_clust_5="13000.00000" pt_clust_6="13000.00000" pt_clust_7="13000.00000" pt_clust_8="13000.00000" pt_clust_9="24.38188"></scales>
<clustering>
<clus scale="   24.382">  2  9  1 -1</clus>
<clus scale="   90.888">  7  8 -1 -1</clus>
<clus scale="   91.540">  5  6 -1 -1</clus>
<clus scale="   99.544">  1  7  2 -1</clus>
<clus scale="   24.382">  2  5  1 -1</clus>
</clustering>
</event>
<event>
 9    1  0.9000149E-006  0.1177411E+03  0.7546771E-02  0.1248696E+00
          3   -1    0    0  502    0  0.00000000000E+00  0.00000000000E+00  0.11244721126E+03  0.11244721126E+03  0.00000000000E+00 0. -1.
         -3   -1    0    0    0  501 -0.00000000000E+00 -0.00000000000E+00 -0.16349258529E+03  0.16349258529E+03  0.00000000000E+00 0.  1.
         23    2    1    2    0    0  0.73348711410E+02 -0.14606833290E+02 -0.75831337715E+02  0.13991912124E+03  0.90739052590E+02 0.  0.
         23    2    1    2    0    0 -0.52665914515E+02  0.18434877659E+02  0.12656226008E+02  0.11173976620E+03  0.95979435439E+02 0.  0.
        -11    1    3    3    0    0  0.87624038346E+02  0.20673696947E+01 -0.36638228775E+02  0.94997925879E+02  0.00000000000E+00 0. -1.
         11    1    3    3    0    0 -0.14275326937E+02 -0.16674202984E+02 -0.39193108940E+02  0.44921195361E+02  0.00000000000E+00 0.  1.
        -11    1    4    4    0    0 -0.46051092774E+02 -0.15482807152E+02 -0.29801856012E+02  0.56996237462E+02  0.00000000000E+00 0.  1.
         11    1    4    4    0    0 -0.66148217410E+01  0.33917684812E+02  0.42458082020E+02  0.54743528736E+02  0.00000000000E+00 0. -1.
         21    1    1    2  502  501 -0.20682796895E+02 -0.38280443696E+01  0.12129737672E+02  0.24280909107E+02  0.00000000000E+00 0.  1.
<scales pt_clust_5="13000.00000" pt_clust_6="13000.00000" pt_clust_7="13000.00000" pt_clust_8="13000.00000" pt_clust_9="21.03407"></scales>
<clustering>
<clus scale="   21.034">  1  9  2 -1</clus>
<clus scale="   90.739">  5  6 -1 -1</clus>
<clus scale="   95.979">  7  8 -1 -1</clus>
<clus scale="  113.510">  2  5  1 -1</clus>
<clus scale="   21.034">  1  5  2 -1</clus>
</clustering>
</event>
<event>
 9    1  0.9000149E-006  0.1004227E+03  0.7546771E-02  0.1280757E+00
          1   -1    0    0  502    0  0.00000000000E+00  0.00000000000E+00  0.19963769287E+03  0.19963769287E+03  0.00000000000E+00 0. -1.
         -1   -1    0    0    0  501 -0.00000000000E+00 -0.00000000000E+00 -0.11785195763E+03  0.11785195763E+03  0.00000000000E+00 0.  1.
         23    2    1    2    0    0  0.20334773796E+02 -0.40894290596E+02 -0.64629825683E+02  0.11818880579E+03  0.87782306975E+02 0.  0.
         23    2    1    2    0    0 -0.34120544557E+02  0.15165735519E+02  0.13736634689E+03  0.16874116054E+03  0.90608249675E+02 0.  0.
        -13    1    4    4    0    0 -0.52891451292E+02 -0.66817562593E+01  0.12766213063E+03  0.13834656152E+03  0.00000000000E+00 0. -1.
         13    1    4    4    0    0  0.18770906736E+02  0.21847491779E+02  0.97042162571E+01  0.30394599025E+02  0.00000000000E+00 0.  1.
        -13    1    3    3    0    0  0.52320779710E+02 -0.24199609009E+02 -0.20491489114E+02  0.61179949263E+02  0.00000000000E+00 0.  1.
         13    1    3    3    0    0 -0.31986005914E+02 -0.16694681587E+02 -0.44138336569E+02  0.57008856529E+02  0.00000000000E+00 0. -1.
         21    1    1    2  502  501  0.13785770761E+02  0.25728555077E+02  0.90492140238E+01  0.30559684165E+02  0.00000000000E+00 0.  1.
<scales pt_clust_5="13000.00000" pt_clust_6="13000.00000" pt_clust_7="13000.00000" pt_clust_8="13000.00000" pt_clust_9="29.18914"></scales>
<clustering>
<clus scale="   29.189">  1  9  2 -1</clus>
<clus scale="   87.782">  7  8 -1 -1</clus>
<clus scale="   90.608">  5  6 -1 -1</clus>
<clus scale="   97.881">  2  7  1 -1</clus>
<clus scale="   29.189">  1  5  2 -1</clus>
</clustering>
</event>
<event>
 9    1  0.9000149E-006  0.1422059E+03  0.7546771E-02  0.1211163E+00
         -1   -1    0    0    0  501 -0.00000000000E+00  0.00000000000E+00  0.17438406942E+03  0.17438406942E+03  0.00000000000E+00 0.  1.
          1   -1    0    0  502    0  0.00000000000E+00 -0.00000000000E+00 -0.20182528578E+03  0.20182528578E+03  0.00000000000E+00 0. -1.
         23    2    1    2    0    0 -0.13506430823E+02 -0.14657785709E+03 -0.45575607078E+02  0.17983447568E+03  0.92713595658E+02 0.  0.
         23    2    1    2    0    0 -0.24036832924E-01  0.77302979701E+02 -0.14043564799E+02  0.11880231342E+03  0.89112382489E+02 0.  0.
        -11    1    3    3    0    0  0.30581803371E+01 -0.53655816714E+02 -0.64098122312E+02  0.83647285779E+02  0.00000000000E+00 0. -1.
         11    1    3    3    0    0 -0.16564611160E+02 -0.92922040373E+02  0.18522515234E+02  0.96187189898E+02  0.00000000000E+00 0.  1.
        -13    1    4    4    0    0  0.35556545885E+02  0.13396893838E+02  0.13962066242E+02  0.40480662217E+02  0.00000000000E+00 0.  1.
         13    1    4    4    0    0 -0.35580582718E+02  0.63906085862E+02 -0.28005631041E+02  0.78321651201E+02  0.00000000000E+00 0. -1.
         21    1    1    2  502  501  0.13530467656E+02  0.69274877386E+02  0.32177955513E+02  0.77572566110E+02  0.00000000000E+00 0.  1.
<scales pt_clust_5="13000.00000" pt_clust_6="13000.00000" pt_clust_7="13000.00000" pt_clust_8="13000.00000" pt_clust_9="70.58387"></scales>
<clustering>
<clus scale="   70.584">  1  9  2 -1</clus>
<clus scale="   89.112">  7  8 -1 -1</clus>
<clus scale="   92.714">  5  6 -1 -1</clus>
<clus scale="  139.885">  2  7  1 -1</clus>
<clus scale="  139.885">  2  5  1 -1</clus>
</clustering>
</event>
<event>
 9    1  0.9000149E-006  0.1918087E+03  0.7546771E-02  0.1182417E+00
          2   -1    0    0  502    0  0.00000000000E+00  0.00000000000E+00  0.69591767796E+03  0.69591767796E+03  0.00000000000E+00 0. -1.
         -2   -1    0    0    0  501 -0.00000000000E+00 -0.00000000000E+00 -0.10728754288E+03  0.10728754288E+03  0.00000000000E+00 0.  1.
         23    2    1    2    0    0 -0.34356492548E+02  0.48282102479E+02  0.13354679711E+01  0.10681515542E+03  0.88860362099E+02 0.  0.
         23    2    1    2    0    0 -0.15233256281E+03 -0.42752623009E+02  0.34385405257E+03  0.38955670454E+03  0.92118511276E+02 0.  0.
        -11    1    4    4    0    0 -0.22708615119E+02 -0.62865707073E+01  0.38712308037E+01  0.23878622234E+02  0.00000000000E+00 0.  1.
         11    1    4    4    0    0 -0.12962394770E+03 -0.36466052301E+02  0.33998282176E+03  0.36567808231E+03  0.00000000000E+00 0. -1.
        -13    1    3    3    0    0 -0.42952644980E+02  0.66586856537E+02  0.17234259874E+02  0.81091053068E+02  0.00000000000E+00 0.  1.
         13    1    3    3    0    0  0.85961524325E+01 -0.18304754058E+02 -0.15898791903E+02  0.25724102351E+02  0.00000000000E+00 0. -1.
         21    1    1    2  502  501  0.18668905536E+03 -0.55294794697E+01  0.24344061455E+03  0.30683336088E+03  0.00000000000E+00 0.  1.
<scales pt_clust_5="13000.00000" pt_clust_6="13000.00000" pt_clust_7="13000.00000" pt_clust_8="13000.00000" pt_clust_9="168.24017"></scales>
<clustering>
<clus scale="   88.860">  7  8 -1 -1</clus>
<clus scale="   92.119">  5  6 -1 -1</clus>
<clus scale="  106.807">  2  7  1 -1</clus>
<clus scale="  168.240">  2  9  1 -1</clus>
<clus scale="  191.809">  1  5  2 -1</clus>
</clustering>
</event>
<event>
 9    1  0.9000149E-006  0.1057011E+03  0.7546771E-02  0.1271896E+00
         -1   -1    0    0    0  501 -0.00000000000E+00  0.00000000000E+00  0.14054355868E+03  0.14054355868E+03  0.00000000000E+00 0.  1.
          1   -1    0    0  502    0  0.00000000000E+00 -0.00000000000E+00 -0.21537091465E+03  0.21537091465E+03  0.00000000000E+00 0. -1.
         23    2    1    2    0    0 -0.22660827887E+02 -0.59782455578E+02  0.77028755808E+02  0.13677276544E+03  0.93198202929E+02 0.  0.
         23    2    1    2    0    0  0.79093054175E+00 -0.62384806648E+01 -0.10185074821E+03  0.13348195761E+03  0.86048322968E+02 0.  0.
        -13    1    3    3    0    0 -0.26123306455E+02 -0.38704748034E+02  0.96921708154E+02  0.10758393083E+03  0.00000000000E+00 0.  1.
         13    1    3    3    0    0  0.34624785675E+01 -0.21077707544E+02 -0.19892952345E+02  0.29188834614E+02  0.00000000000E+00 0. -1.
        -13    1    4    4    0    0 -0.30201492804E+01  0.26518666680E+02 -0.27991506522E+00  0.26691559277E+02  0.00000000000E+00 0. -1.
         13    1    4    4    0    0  0.38110798221E+01 -0.32757147345E+02 -0.10157083314E+03  0.10679039834E+03  0.00000000000E+00 0.  1.
         21    1    1    2  502  501  0.21869897345E+02  0.66020936243E+02 -0.50005363574E+02  0.85659750282E+02  0.00000000000E+00 0. -1.
<scales pt_clust_5="13000.00000" pt_clust_6="13000.00000" pt_clust_7="13000.00000" pt_clust_8="13000.00000" pt_clust_9="69.54895"></scales>
<clustering>
<clus scale="   69.549">  2  9  1 -1</clus>
<clus scale="   86.048">  7  8 -1 -1</clus>
<clus scale="   93.198">  5  6 -1 -1</clus>
<clus scale="   99.454">  2  7  1 -1</clus>
<clus scale="   69.549">  2  5  1 -1</clus>
</clustering>
</event>
<event>
 9    1  0.9000149E-006  0.1141742E+03  0.7546771E-02  0.1254203E+00
          3   -1    0    0  502    0  0.00000000000E+00  0.00000000000E+00  0.39751240695E+03  0.39751240695E+03  0.00000000000E+00 0. -1.
         -3   -1    0    0    0  501 -0.00000000000E+00 -0.00000000000E+00 -0.68206320969E+02  0.68206320969E+02  0.00000000000E+00 0.  1.
         23    2    1    2    0    0 -0.18175334026E+01 -0.66482368011E+02  0.60611972189E+01  0.11622880210E+03  0.95127218199E+02 0.  0.
         23    2    1    2    0    0 -0.11259254105E+02  0.46566481357E+02  0.29412345309E+03  0.31186409787E+03  0.91953259306E+02 0.  0.
        -11    1    3    3    0    0  0.19449050432E+02 -0.71893180721E+02  0.33018963047E+02  0.81468686730E+02  0.00000000000E+00 0.  1.
         11    1    3    3    0    0 -0.21266583835E+02  0.54108127099E+01 -0.26957765828E+02  0.34760115371E+02  0.00000000000E+00 0. -1.
        -13    1    4    4    0    0  0.12803287538E+02  0.69342164594E+02  0.20403987139E+03  0.21588082147E+03  0.00000000000E+00 0. -1.
         13    1    4    4    0    0 -0.24062541644E+02 -0.22775683237E+02  0.90083581701E+02  0.95983276405E+02  0.00000000000E+00 0.  1.
         21    1    1    2  502  501  0.13076787508E+02  0.19915886654E+02  0.29121435674E+02  0.37625827944E+02  0.00000000000E+00 0. -1.
<scales pt_clust_5="13000.00000" pt_clust_6="13000.00000" pt_clust_7="13000.00000" pt_clust_8="13000.00000" pt_clust_9="23.82530"></scales>
<clustering>
<clus scale="   23.825">  1  9  2 -1</clus>
<clus scale="   91.953">  7  8 -1 -1</clus>
<clus scale="   95.127">  5  6 -1 -1</clus>
<clus scale="  111.544">  1  7  2 -1</clus>
<clus scale="   23.825">  1  5  2 -1</clus>
</clustering>
</event>
<event>
 9    1  0.9000149E-006  0.1092573E+03  0.7546771E-02  0.1262216E+00
         -1   -1    0    0    0  501 -0.00000000000E+00  0.00000000000E+00  0.11050777589E+03  0.11050777589E+03  0.00000000000E+00 0.  1.
          1   -1    0    0  502    0  0.00000000000E+00 -0.00000000000E+00 -0.22087035728E+03  0.22087035728E+03  0.00000000000E+00 0. -1.
         23    2    1    2    0    0 -0.11575671463E+02 -0.55072751311E+02  0.48683981400E+02  0.12054782731E+03  0.94840099733E+02 0.  0.
         23    2    1    2    0    0 -0.68289263322E+01  0.44730085358E+02 -0.90558242731E+02  0.13916197294E+03  0.95487405527E+02 0.  0.
        -13    1    4    4    0    0 -0.36025608581E+02 -0.85163674734E+01 -0.10122909740E+02  0.38377679583E+02  0.00000000000E+00 0.  1.
         13    1    4    4    0    0  0.29196682249E+02  0.53246452831E+02 -0.80435332991E+02  0.10078429335E+03  0.00000000000E+00 0. -1.
        -13    1    3    3    0    0 -0.34450939882E+02 -0.72458173204E+02  0.27362615033E+02  0.84768902461E+02  0.00000000000E+00 0.  1.
         13    1    3    3    0    0  0.22875268419E+02  0.17385421893E+02  0.21321366366E+02  0.35778924849E+02  0.00000000000E+00 0. -1.
         21    1    1    2  502  501  0.18404597796E+02  0.10342665953E+02 -0.68488320064E+02  0.71668332925E+02  0.00000000000E+00 0.  1.
<scales pt_clust_5="13000.00000" pt_clust_6="13000.00000" pt_clust_7="13000.00000" pt_clust_8="13000.00000" pt_clust_9="21.11161"></scales>
<clustering>
<clus scale="   21.112">  2  9  1 -1</clus>
<clus scale="   94.840">  7  8 -1 -1</clus>
<clus scale="   95.487">  5  6 -1 -1</clus>
<clus scale="  108.692">  1  7  2 -1</clus>
<clus scale="   21.112">  2  5  1 -1</clus>
</clustering>
</event>
<event>
 9    1  0.9000149E-006  0.1094349E+03  0.7546771E-02  0.1262004E+00
          2   -1    0    0  502    0  0.00000000000E+00  0.00000000000E+00  0.29116459213E+03  0.29116459213E+03  0.00000000000E+00 0. -1.
         -2   -1    0    0    0  501 -0.00000000000E+00 -0.00000000000E+00 -0.65572315224E+02  0.65572315224E+02  0.00000000000E+00 0.  1.
         23    2    1    2    0    0  0.57480939758E+02 -0.49052552629E+01  0.33449680985E+02  0.11245271820E+03  0.90546191013E+02 0.  0.
         23    2    1    2    0    0 -0.70895385786E+02 -0.25086902555E+02  0.16121864758E+03  0.19916470918E+03  0.89552334689E+02 0.  0.
        -11    1    3    3    0    0 -0.14214865422E+02 -0.20827987812E+02 -0.99920045399E+01  0.27123930946E+02  0.00000000000E+00 0.  1.
         11    1    3    3    0    0  0.71695805180E+02  0.15922732549E+02  0.43441685525E+02  0.85328787250E+02  0.00000000000E+00 0. -1.
        -13    1    4    4    0    0 -0.81125700256E+02  0.30356354783E+01  0.14209446995E+03  0.16365033674E+03  0.00000000000E+00 0.  1.
         13    1    4    4    0    0  0.10230314471E+02 -0.28122538033E+02  0.19124177633E+02  0.35514372439E+02  0.00000000000E+00 0. -1.
         21    1    1    2  502  501  0.13414446028E+02  0.29992157817E+02  0.30923948337E+02  0.45119479979E+02  0.00000000000E+00 0. -1.
<scales pt_clust_5="13000.00000" pt_clust_6="13000.00000" pt_clust_7="13000.00000" pt_clust_8="13000.00000" pt_clust_9="32.85539"></scales>
<clustering>
<clus scale="   32.855">  1  9  2 -1</clus>
<clus scale="   89.552">  7  8 -1 -1</clus>
<clus scale="   90.546">  5  6 -1 -1</clus>
<clus scale="  108.614">  1  7  2 -1</clus>
<clus scale="   32.855">  1  5  2 -1</clus>
</clustering>
</event>
<event>
 9    1  0.9000149E-006  0.9979214E+02  0.7546771E-02  0.1282744E+00
          2   -1    0    0  502    0  0.00000000000E+00  0.00000000000E+00  0.29841913153E+03  0.29841913153E+03  0.00000000000E+00 0. -1.
         -2   -1    0    0    0  501 -0.00000000000E+00 -0.00000000000E+00 -0.50079889355E+02  0.50079889355E+02  0.00000000000E+00 0.  1.
         23    2    1    2    0    0 -0.15659690555E+02 -0.27300723148E+02  0.48869902887E+02  0.10990728877E+03  0.93278021656E+02 0.  0.
         23    2    1    2    0    0 -0.11386273185E+02  0.11912268791E+02  0.13627443115E+03  0.16815108265E+03  0.97121144180E+02 0.  0.
        -11    1    4    4    0    0 -0.49089314472E+02  0.20315631430E+02  0.10774013916E+03  0.12012669671E+03  0.00000000000E+00 0. -1.
         11    1    4    4    0    0  0.37703041287E+02 -0.84033626394E+01  0.28534291990E+02  0.48024385944E+02  0.00000000000E+00 0.  1.
        -11    1    3    3    0    0  0.17741885912E+02  0.20443041707E+02  0.43708545418E+02  0.51411374350E+02  0.00000000000E+00 0. -1.
         11    1    3    3    0    0 -0.33401576467E+02 -0.47743764855E+02  0.51613574686E+01  0.58495914421E+02  0.00000000000E+00 0.  1.
         21    1    1    2  502  501  0.27045963739E+02  0.15388454358E+02  0.63194908142E+02  0.70440649466E+02  0.00000000000E+00 0. -1.
<scales pt_clust_5="13000.00000" pt_clust_6="13000.00000" pt_clust_7="13000.00000" pt_clust_8="13000.00000" pt_clust_9="31.11734"></scales>
<clustering>
<clus scale="   31.117">  1  9  2 -1</clus>
<clus scale="   93.278">  7  8 -1 -1</clus>
<clus scale="   96.056">  2  7  1 -1</clus>
<clus scale="   97.121">  5  6 -1 -1</clus>
<clus scale="   31.117">  1  5  2 -1</clus>
</clustering>
</event>
<event>
 9    1  0.9000149E-006  0.1140151E+03  0.7546771E-02  0.1253880E+00
          4   -1    0    0  502    0  0.00000000000E+00  0.00000000000E+00  0.39690663586E+03  0.39690663586E+03  0.00000000000E+00 0. -1.
         -4   -1    0    0    0  501 -0.00000000000E+00 -0.00000000000E+00 -0.50446485012E+02  0.50446485012E+02  0.00000000000E+00 0.  1.
         23    2    1    2    0    0  0.45361346993E+02 -0.61084349437E+02  0.80873722369E+02  0.14414544730E+03  0.91915186235E+02 0.  0.
         23    2    1    2    0    0 -0.12757684365E+02  0.49281142810E+02  0.16086127079E+03  0.19289143199E+03  0.93484579201E+02 0.  0.
        -11    1    3    3    0    0  0.52585988638E+02 -0.81778077234E+02  0.62889377961E+02  0.11579297896E+03  0.00000000000E+00 0.  1.
         11    1    3    3    0    0 -0.72246416453E+01  0.20693727796E+02  0.17984344409E+02  0.28352468337E+02  0.00000000000E+00 0. -1.
        -13    1    4    4    0    0  0.34536830102E+02  0.11241549007E+02  0.25009714688E+02  0.44098195953E+02  0.00000000000E+00 0.  1.
         13    1    4    4    0    0 -0.47294514466E+02  0.38039593804E+02  0.13585155610E+03  0.14879323604E+03  0.00000000000E+00 0. -1.
         21    1    1    2  502  501 -0.32603662628E+02  0.11803206627E+02  0.10472515769E+03  0.11031624158E+03  0.00000000000E+00 0. -1.
<scales pt_clust_5="13000.00000" pt_clust_6="13000.00000" pt_clust_7="13000.00000" pt_clust_8="13000.00000" pt_clust_9="34.67441"></scales>
<clustering>
<clus scale="   34.674">  1  9  2 -1</clus>
<clus scale="   91.915">  5  6 -1 -1</clus>
<clus scale="   93.485">  7  8 -1 -1</clus>
<clus scale="  112.732">  2  5  1 -1</clus>
<clus scale="   34.674">  1  5  2 -1</clus>
</clustering>
</event>
<event>
 9    1  0.9000149E-006  0.1140948E+03  0.7546771E-02  0.1256008E+00
          1   -1    0    0  502    0  0.00000000000E+00  0.00000000000E+00  0.46654512494E+03  0.46654512494E+03  0.00000000000E+00 0. -1.
         -1   -1    0    0    0  501 -0.00000000000E+00 -0.00000000000E+00 -0.40017359536E+02  0.40017359536E+02  0.00000000000E+00 0.  1.
         23    2    1    2    0    0  0.57903377947E+02  0.34062042518E+02  0.95377098155E+02  0.14821713627E+03  0.91424858282E+02 0.  0.
         23    2    1    2    0    0 -0.70678866972E+02 -0.16558693937E+02  0.23446200999E+03  0.25925813020E+03  0.83502403337E+02 0.  0.
        -11    1    4    4    0    0  0.34683876276E+01  0.24790487597E+02  0.66592639958E+02  0.71141954461E+02  0.00000000000E+00 0.  1.
         11    1    4    4    0    0 -0.74147254600E+02 -0.41349181534E+02  0.16786937003E+03  0.18811617574E+03  0.00000000000E+00 0. -1.
        -13    1    3    3    0    0  0.36047794141E+02  0.44368623336E+02  0.81982673667E+01  0.57751448353E+02  0.00000000000E+00 0.  1.
         13    1    3    3    0    0  0.21855583807E+02 -0.10306580818E+02  0.87178830789E+02  0.90465687912E+02  0.00000000000E+00 0. -1.
         21    1    1    2  502  501  0.12775489025E+02 -0.17503348581E+02  0.96688657257E+02  0.99087218013E+02  0.00000000000E+00 0.  1.
<scales pt_clust_5="13000.00000" pt_clust_6="13000.00000" pt_clust_7="13000.00000" pt_clust_8="13000.00000" pt_clust_9="21.66980"></scales>
<clustering>
<clus scale="   21.670">  1  9  2 -1</clus>
<clus scale="   83.502">  5  6 -1 -1</clus>
<clus scale="   91.425">  7  8 -1 -1</clus>
<clus scale="  107.851">  1  5  2 -1</clus>
<clus scale="   21.670">  1  5  2 -1</clus>
</clustering>
</event>
<event>
 9    1  0.9000149E-006  0.1557435E+03  0.7546771E-02  0.1214456E+00
          1   -1    0    0  502    0  0.00000000000E+00  0.00000000000E+00  0.15711498837E+03  0.15711498837E+03  0.00000000000E+00 0. -1.
         -1   -1    0    0    0  501 -0.00000000000E+00 -0.00000000000E+00 -0.23354415454E+03  0.23354415454E+03  0.00000000000E+00 0.  1.
         23    2    1    2    0    0 -0.93922874427E+02 -0.90750163640E+02 -0.57642867863E+01  0.17215069960E+03  0.11200686509E+03 0.  0.
         23    2    1    2    0    0  0.74135416798E+01  0.37984668397E+02 -0.85556547919E+01  0.99657200492E+02  0.91436112929E+02 0.  0.
        -11    1    4    4    0    0  0.29208855774E+02  0.52179621623E+02  0.18036446155E+02  0.62459455315E+02  0.00000000000E+00 0.  1.
         11    1    4    4    0    0 -0.21795314094E+02 -0.14194953226E+02 -0.26592100947E+02  0.37197745178E+02  0.00000000000E+00 0. -1.
        -13    1    3    3    0    0 -0.60796405238E+02  0.94135959781E+01  0.17814911831E+02  0.64048339265E+02  0.00000000000E+00 0.  1.
         13    1    3    3    0    0 -0.33126469188E+02 -0.10016375962E+03 -0.23579198617E+02  0.10810236033E+03  0.00000000000E+00 0. -1.
         21    1    1    2  502  501  0.86509332747E+02  0.52765495243E+02 -0.62109224595E+02  0.11885124282E+03  0.00000000000E+00 0.  1.
<scales pt_clust_5="13000.00000" pt_clust_6="13000.00000" pt_clust_7="13000.00000" pt_clust_8="13000.00000" pt_clust_9="108.21505"></scales>
<clustering>
<clus scale="   91.436">  5  6 -1 -1</clus>
<clus scale="   99.289">  1  5  2 -1</clus>
<clus scale="  108.215">  2  9  1 -1</clus>
<clus scale="  112.007">  7  8 -1 -1</clus>
<clus scale="   99.289">  1  5  2 -1</clus>
</clustering>
</event>
<event>
 9    1  0.9000149E-006  0.1138001E+03  0.7546771E-02  0.1254312E+00
          3   -1    0    0  502    0  0.00000000000E+00  0.00000000000E+00  0.14533713684E+03  0.14533713684E+03  0.00000000000E+00 0. -1.
         -3   -1    0    0    0  501 -0.00000000000E+00 -0.00000000000E+00 -0.42265807785E+03  0.42265807785E+03  0.00000000000E+00 0.  1.
         23    2    1    2    0    0  0.66231140680E+02  0.97916068390E+01 -0.32765682149E+03  0.34666409268E+03  0.91293816497E+02 0.  0.
         23    2    1    2    0    0 -0.74214385837E+02  0.14168858962E+02 -0.42872674904E+02  0.12476160860E+03  0.89548093767E+02 0.  0.
        -11    1    3    3    0    0  0.51212795221E+02 -0.28082087397E+02 -0.26885789460E+03  0.27512891799E+03  0.00000000000E+00 0.  1.
         11    1    3    3    0    0  0.15018345459E+02  0.37873694236E+02 -0.58798926887E+02  0.71535174693E+02  0.00000000000E+00 0. -1.
        -11    1    4    4    0    0  0.11581715556E+02 -0.18718381697E+02 -0.20755223540E+02  0.30253813855E+02  0.00000000000E+00 0.  1.
         11    1    4    4    0    0 -0.85796101393E+02  0.32887240660E+02 -0.22117451364E+02  0.94507794743E+02  0.00000000000E+00 0. -1.
         21    1    1    2  502  501  0.79832451571E+01 -0.23960465801E+02  0.93208555372E+02  0.96569513405E+02  0.00000000000E+00 0. -1.
<scales pt_clust_5="13000.00000" pt_clust_6="13000.00000" pt_clust_7="13000.00000" pt_clust_8="13000.00000" pt_clust_9="25.25542"></scales>
<clustering>
<clus scale="   25.255">  1  9  2 -1</clus>
<clus scale="   89.548">  7  8 -1 -1</clus>
<clus scale="   91.294">  5  6 -1 -1</clus>
<clus scale="  112.404">  1  7  2 -1</clus>
<clus scale="   25.255">  1  5  2 -1</clus>
</clustering>
</event>
<event>
 9    1  0.9000149E-006  0.1501599E+03  0.7546771E-02  0.1219465E+00
         -1   -1    0    0    0  501 -0.00000000000E+00  0.00000000000E+00  0.13595084788E+03  0.13595084788E+03  0.00000000000E+00 0.  1.
          1   -1    0    0  502    0  0.00000000000E+00 -0.00000000000E+00 -0.35402088008E+03  0.35402088008E+03  0.00000000000E+00 0. -1.
         23    2    1    2    0    0  0.24363060536E+02  0.32529779586E+02 -0.10162362969E+02  0.10018484750E+03  0.91005410662E+02 0.  0.
         23    2    1    2    0    0 -0.91226737292E+02 -0.12142163770E+03 -0.30455037692E+02  0.18035443276E+03  0.92383333984E+02 0.  0.
        -13    1    4    4    0    0 -0.56366225829E+01 -0.63361161251E+02  0.18046640537E+02  0.66121777834E+02  0.00000000000E+00 0.  1.
         13    1    4    4    0    0 -0.85590114709E+02 -0.58060476450E+02 -0.48501678229E+02  0.11423265493E+03  0.00000000000E+00 0. -1.
        -13    1    3    3    0    0  0.24075498666E+02 -0.28634316236E+02  0.33006259873E+01  0.37555929415E+02  0.00000000000E+00 0. -1.
         13    1    3    3    0    0  0.28756187042E+00  0.61164095822E+02 -0.13462988957E+02  0.62628918090E+02  0.00000000000E+00 0.  1.
         21    1    1    2  502  501  0.66863676756E+02  0.88891858115E+02 -0.17745263154E+03  0.20943244770E+03  0.00000000000E+00 0. -1.
<scales pt_clust_5="13000.00000" pt_clust_6="13000.00000" pt_clust_7="13000.00000" pt_clust_8="13000.00000" pt_clust_9="118.37781"></scales>
<clustering>
<clus scale="   91.005">  7  8 -1 -1</clus>
<clus scale="   92.383">  5  6 -1 -1</clus>
<clus scale="   99.668">  1  7  2 -1</clus>
<clus scale="  118.378">  2  9  1 -1</clus>
<clus scale="  118.378">  2  5  1 -1</clus>
</clustering>
</event>
<event>
 9    1  0.9000149E-006  0.9739363E+02  0.7546771E-02  0.1310963E+00
         -2   -1    0    0    0  501 -0.00000000000E+00  0.00000000000E+00  0.27299667965E+03  0.27299667965E+03  0.00000000000E+00 0.  1.
          2   -1    0    0  502    0  0.00000000000E+00 -0.00000000000E+00 -0.30592879982E+02  0.30592879982E+02  0.00000000000E+00 0. -1.
         23    2    1    2    0    0  0.11759049876E-01 -0.74388878136E+01  0.14560349920E+03  0.17451449018E+03  0.95914498977E+02 0.  0.
         23    2    1    2    0    0 -0.16309923287E+02  0.19250597810E+02  0.82197596389E+02  0.10420770898E+03  0.58874465131E+02 0.  0.
        -11    1    4    4    0    0 -0.14473705378E+02 -0.19737636441E+02  0.38449464295E+02  0.45578764181E+02  0.00000000000E+00 0.  1.
         11    1    4    4    0    0 -0.18362179092E+01  0.38988234251E+02  0.43748132094E+02  0.58628944796E+02  0.00000000000E+00 0. -1.
        -13    1    3    3    0    0  0.10986139747E+02 -0.47095291191E+02  0.45985883623E+02  0.66733523895E+02  0.00000000000E+00 0. -1.
         13    1    3    3    0    0 -0.10974380697E+02  0.39656403377E+02  0.99617615572E+02  0.10778096628E+03  0.00000000000E+00 0.  1.
         21    1    1    2  502  501  0.16298164237E+02 -0.11811709997E+02  0.14602704086E+02  0.24867360479E+02  0.00000000000E+00 0. -1.
<scales pt_clust_5="13000.00000" pt_clust_6="13000.00000" pt_clust_7="13000.00000" pt_clust_8="13000.00000" pt_clust_9="20.12826"></scales>
<clustering>
<clus scale="   20.128">  2  9  1 -1</clus>
<clus scale="   58.874">  5  6 -1 -1</clus>
<clus scale="   61.255">  2  5  1 -1</clus>
<clus scale="   95.914">  7  8 -1 -1</clus>
<clus scale="   20.128">  2  5  1 -1</clus>
</clustering>
</event>
<event>
 9    1  0.9000149E-006  0.1119943E+03  0.7546771E-02  0.1256996E+00
         -1   -1    0    0    0  501 -0.00000000000E+00  0.00000000000E+00  0.28809276227E+03  0.28809276227E+03  0.00000000000E+00 0.  1.
          1   -1    0    0  502    0  0.00000000000E+00 -0.00000000000E+00 -0.11048420011E+03  0.11048420011E+03  0.00000000000E+00 0. -1.
         23    2    1    2    0    0 -0.34664797426E+02  0.48856164224E+02  0.20907125418E+03  0.23598296990E+03  0.91589299568E+02 0.  0.
         23    2    1    2    0    0  0.42568252494E+02 -0.78964011283E+02 -0.26856515889E+02  0.13112712236E+03  0.91791495113E+02 0.  0.
        -13    1    3    3    0    0 -0.60038369643E+02  0.81220152808E+01  0.13117392271E+03  0.14448934550E+03  0.00000000000E+00 0.  1.
         13    1    3    3    0    0  0.25373572217E+02  0.40734148944E+02  0.77897331467E+02  0.91493624405E+02  0.00000000000E+00 0. -1.
        -13    1    4    4    0    0 -0.23197940421E+02 -0.36860250565E+01 -0.20141392347E+02  0.30941992602E+02  0.00000000000E+00 0.  1.
         13    1    4    4    0    0  0.65766192916E+02 -0.75277986226E+02 -0.67151235417E+01  0.10018512976E+03  0.00000000000E+00 0. -1.
         21    1    1    2  502  501 -0.79034550685E+01  0.30107847058E+02 -0.46061761311E+01  0.31466870119E+02  0.00000000000E+00 0. -1.
<scales pt_clust_5="13000.00000" pt_clust_6="13000.00000" pt_clust_7="13000.00000" pt_clust_8="13000.00000" pt_clust_9="31.12791"></scales>
<clustering>
<clus scale="   31.128">  2  9  1 -1</clus>
<clus scale="   91.589">  5  6 -1 -1</clus>
<clus scale="   91.791">  7  8 -1 -1</clus>
<clus scale="  111.829">  1  5  2 -1</clus>
<clus scale="   31.128">  2  5  1 -1</clus>
</clustering>
</event>
<event>
 9    1  0.9000149E-006  0.1107008E+03  0.7546771E-02  0.1260422E+00
         -2   -1    0    0    0  501 -0.00000000000E+00  0.00000000000E+00  0.11380021343E+03  0.11380021343E+03  0.00000000000E+00 0.  1.
          2   -1    0    0  502    0  0.00000000000E+00 -0.00000000000E+00 -0.22324602516E+03  0.22324602516E+03  0.00000000000E+00 0. -1.
         23    2    1    2    0    0 -0.44017082998E+02  0.48348812107E+02  0.51906371980E+02  0.12508611664E+03  0.93151242054E+02 0.  0.
         23    2    1    2    0    0  0.22054480118E+02 -0.38390908125E+02 -0.84123378061E+02  0.13105397757E+03  0.90211642155E+02 0.  0.
        -13    1    3    3    0    0 -0.10988566262E+02  0.69210793991E+02  0.49787623017E+02  0.85963306119E+02  0.00000000000E+00 0.  1.
         13    1    3    3    0    0 -0.33028516736E+02 -0.20861981883E+02  0.21187489635E+01  0.39122810521E+02  0.00000000000E+00 0. -1.
        -13    1    4    4    0    0  0.55707580188E+02 -0.32148558314E+02 -0.66654682748E+02  0.92626729535E+02  0.00000000000E+00 0. -1.
         13    1    4    4    0    0 -0.33653100070E+02 -0.62423498110E+01 -0.17468695313E+02  0.38427248034E+02  0.00000000000E+00 0.  1.
         21    1    1    2  502  501  0.21962602880E+02 -0.99579039821E+01 -0.77228805650E+02  0.80906144384E+02  0.00000000000E+00 0. -1.
<scales pt_clust_5="13000.00000" pt_clust_6="13000.00000" pt_clust_7="13000.00000" pt_clust_8="13000.00000" pt_clust_9="24.11464"></scales>
<clustering>
<clus scale="   24.115">  2  9  1 -1</clus>
<clus scale="   90.212">  7  8 -1 -1</clus>
<clus scale="   93.151">  5  6 -1 -1</clus>
<clus scale="  108.239">  2  7  1 -1</clus>
<clus scale="   24.115">  2  5  1 -1</clus>
</clustering>
</event>
<event>
 9    1  0.9000149E-006  0.1065948E+03  0.7546771E-02  0.1267574E+00
          1   -1    0    0  502    0  0.00000000000E+00  0.00000000000E+00  0.43294471412E+03  0.43294471412E+03  0.00000000000E+00 0. -1.
         -1   -1    0    0    0  501 -0.00000000000E+00 -0.00000000000E+00 -0.41214826302E+02  0.41214826302E+02  0.00000000000E+00 0.  1.
         23    2    1    2    0    0  0.34039087159E+02 -0.51483476740E+02  0.87970377938E+02  0.14087673195E+03  0.91094776893E+02 0.  0.
         23    2    1    2    0    0 -0.36014977386E+02  0.19942929665E+02  0.19064177049E+03  0.21583352914E+03  0.92439323916E+02 0.  0.
        -11    1    3    3    0    0  0.21111043728E+01 -0.43601437685E+02 -0.33837650641E+01  0.43783467153E+02  0.00000000000E+00 0.  1.
         11    1    3    3    0    0  0.31927982787E+02 -0.78820390549E+01  0.91354143002E+02  0.97093264792E+02  0.00000000000E+00 0. -1.
        -11    1    4    4    0    0 -0.15796038479E+02  0.55238350427E+02  0.84658765330E+02  0.10231273985E+03  0.00000000000E+00 0.  1.
         11    1    4    4    0    0 -0.20218938906E+02 -0.35295420761E+02  0.10598300516E+03  0.11352078929E+03  0.00000000000E+00 0. -1.
         21    1    1    2  502  501  0.19758902263E+01  0.31540547075E+02  0.11311773939E+03  0.11744927934E+03  0.00000000000E+00 0.  1.
<scales pt_clust_5="13000.00000" pt_clust_6="13000.00000" pt_clust_7="13000.00000" pt_clust_8="13000.00000" pt_clust_9="31.60238"></scales>
<clustering>
<clus scale="   31.602">  1  9  2 -1</clus>
<clus scale="   91.095">  5  6 -1 -1</clus>
<clus scale="   92.439">  7  8 -1 -1</clus>
<clus scale="  105.431">  2  5  1 -1</clus>
<clus scale="   31.602">  1  5  2 -1</clus>
</clustering>
</event>
<event>
 9    1  0.9000149E-006  0.1247494E+03  0.7546771E-02  0.1235807E+00
         -2   -1    0    0    0  501 -0.00000000000E+00  0.00000000000E+00  0.56833540250E+02  0.56833540250E+02  0.00000000000E+00 0.  1.
          2   -1    0    0  502    0  0.00000000000E+00 -0.00000000000E+00 -0.72837198530E+03  0.72837198530E+03  0.00000000000E+00 0. -1.
         23    2    1    2    0    0 -0.10854544050E+03 -0.39194062193E+02 -0.21220443914E+03  0.25828945982E+03  0.91457279090E+02 0.  0.
         23    2    1    2    0    0  0.61398880126E+02 -0.72641367724E+02 -0.29309066657E+03  0.32108407256E+03  0.90256589975E+02 0.  0.
        -13    1    4    4    0    0  0.58942911940E+02 -0.12954910416E+02 -0.21163522577E+03  0.22007172776E+03  0.00000000000E+00 0.  1.
         13    1    4    4    0    0  0.24559681861E+01 -0.59686457308E+02 -0.81455440795E+02  0.10101234479E+03  0.00000000000E+00 0. -1.
        -13    1    3    3    0    0 -0.50090827022E+02  0.24096484921E+02 -0.50663071408E+02  0.75209562835E+02  0.00000000000E+00 0.  1.
         13    1    3    3    0    0 -0.58454613474E+02 -0.63290547115E+02 -0.16154136774E+03  0.18307989699E+03  0.00000000000E+00 0. -1.
         21    1    1    2  502  501  0.47146560369E+02  0.11183542992E+03 -0.16624333934E+03  0.20583199317E+03  0.00000000000E+00 0. -1.
<scales pt_clust_5="13000.00000" pt_clust_6="13000.00000" pt_clust_7="13000.00000" pt_clust_8="13000.00000" pt_clust_9="121.36705"></scales>
<clustering>
<clus scale="   90.257">  5  6 -1 -1</clus>
<clus scale="   91.457">  7  8 -1 -1</clus>
<clus scale="  121.367">  1  9  2 -1</clus>
<clus scale="  123.872">  2  5  1 -1</clus>
<clus scale="  123.872">  2  5  1 -1</clus>
</clustering>
</event>
<event>
 9    1  0.9000149E-006  0.9919400E+02  0.7546771E-02  0.1282178E+00
          2   -1    0    0  502    0  0.00000000000E+00  0.00000000000E+00  0.37314902917E+03  0.37314902917E+03  0.00000000000E+00 0. -1.
         -2   -1    0    0    0  501 -0.00000000000E+00 -0.00000000000E+00 -0.47125821148E+02  0.47125821148E+02  0.00000000000E+00 0.  1.
         23    2    1    2    0    0 -0.24865136290E+02  0.26152727132E+02  0.39460368233E+02  0.10520658921E+03  0.90603894031E+02 0.  0.
         23    2    1    2    0    0  0.45582605770E+02 -0.23783939250E+02  0.19576619660E+03  0.22190788802E+03  0.90968441351E+02 0.  0.
        -11    1    3    3    0    0  0.59186598676E+01 -0.31123186146E+02  0.19440386655E+02  0.37170040137E+02  0.00000000000E+00 0. -1.
         11    1    3    3    0    0 -0.30783796158E+02  0.57275913278E+02  0.20019981578E+02  0.68036549076E+02  0.00000000000E+00 0.  1.
        -13    1    4    4    0    0 -0.21032491145E+02 -0.18293150946E+02  0.21316279191E+02  0.35091150079E+02  0.00000000000E+00 0.  1.
         13    1    4    4    0    0  0.66615096915E+02 -0.54907883036E+01  0.17444991741E+03  0.18681673795E+03  0.00000000000E+00 0. -1.
         21    1    1    2  502  501 -0.20717469480E+02 -0.23687878824E+01  0.90796643188E+02  0.93160373077E+02  0.00000000000E+00 0.  1.
<scales pt_clust_5="13000.00000" pt_clust_6="13000.00000" pt_clust_7="13000.00000" pt_clust_8="13000.00000" pt_clust_9="20.85245"></scales>
<clustering>
<clus scale="   20.852">  1  9  2 -1</clus>
<clus scale="   90.604">  5  6 -1 -1</clus>
<clus scale="   90.968">  7  8 -1 -1</clus>
<clus scale="   98.860">  2  5  1 -1</clus>
<clus scale="   20.852">  1  5  2 -1</clus>
</clustering>
</event>
<event>
 9    1  0.9000149E-006  0.1446173E+03  0.7546771E-02  0.1209370E+00
          1   -1    0    0  502    0  0.00000000000E+00  0.00000000000E+00  0.73367252326E+02  0.73367252326E+02  0.00000000000E+00 0. -1.
         -1   -1    0    0    0  501 -0.00000000000E+00 -0.00000000000E+00 -0.50689812648E+03  0.50689812648E+03  0.00000000000E+00 0.  1.
         23    2    1    2    0    0  0.93971454013E+01 -0.12006772634E+03 -0.24796106191E+03  0.28775682173E+03  0.82551408115E+02 0.  0.
         23    2    1    2    0    0  0.25508192245E+02  0.10038350339E+03 -0.20516953215E+03  0.24789913824E+03  0.92908181519E+02 0.  0.
        -11    1    3    3    0    0 -0.86019927236E+01 -0.21870651478E+02 -0.13488220925E+03  0.13691431644E+03  0.00000000000E+00 0. -1.
         11    1    3    3    0    0  0.17999138125E+02 -0.98197074858E+02 -0.11307885266E+03  0.15084250529E+03  0.00000000000E+00 0.  1.
        -13    1    4    4    0    0  0.47152076698E+02  0.77195000095E+02 -0.86846754435E+02  0.12539834581E+03  0.00000000000E+00 0. -1.
         13    1    4    4    0    0 -0.21643884453E+02  0.23188503293E+02 -0.11832277771E+03  0.12250079242E+03  0.00000000000E+00 0.  1.
         21    1    1    2  502  501 -0.34905337646E+02  0.19684222948E+02  0.19599719897E+02  0.44609418840E+02  0.00000000000E+00 0.  1.
<scales pt_clust_5="13000.00000" pt_clust_6="13000.00000" pt_clust_7="13000.00000" pt_clust_8="13000.00000" pt_clust_9="40.07307"></scales>
<clustering>
<clus scale="   40.073">  1  9  2 -1</clus>
<clus scale="   82.551">  5  6 -1 -1</clus>
<clus scale="   92.908">  7  8 -1 -1</clus>
<clus scale="  138.192">  2  5  1 -1</clus>
<clus scale="   40.073">  1  5  2 -1</clus>
</clustering>
</event>
<event>
 9    1  0.9000149E-006  0.1184228E+03  0.7546771E-02  0.1247717E+00
         -2   -1    0    0    0  501 -0.00000000000E+00  0.00000000000E+00  0.54023628117E+03  0.54023628117E+03  0.00000000000E+00 0.  1.
          2   -1    0    0  502    0  0.00000000000E+00 -0.00000000000E+00 -0.22093566491E+03  0.22093566491E+03  0.00000000000E+00 0. -1.
         23    2    1    2    0    0  0.63924235423E+02  0.39539145055E+02  0.25744451144E+03  0.28282031820E+03  0.89777525292E+02 0.  0.
         23    2    1    2    0    0 -0.82720557967E+02 -0.92172601430E+01  0.25552408230E+03  0.28142523568E+03  0.83546143217E+02 0.  0.
        -11    1    4    4    0    0 -0.74673717825E+02  0.27672880419E+02  0.16039193366E+03  0.17907407637E+03  0.00000000000E+00 0.  1.
         11    1    4    4    0    0 -0.80468401423E+01 -0.36890140562E+02  0.95132148640E+02  0.10235115931E+03  0.00000000000E+00 0. -1.
        -13    1    3    3    0    0  0.38184813954E+02  0.60162422553E+02  0.10531689767E+03  0.12715835025E+03  0.00000000000E+00 0.  1.
         13    1    3    3    0    0  0.25739421468E+02 -0.20623277498E+02  0.15212761377E+03  0.15566196795E+03  0.00000000000E+00 0. -1.
         21    1    1    2  502  501  0.18796322545E+02 -0.30321884912E+02 -0.19366797748E+03  0.19692639220E+03  0.00000000000E+00 0. -1.
<scales pt_clust_5="13000.00000" pt_clust_6="13000.00000" pt_clust_7="13000.00000" pt_clust_8="13000.00000" pt_clust_9="35.67518"></scales>
<clustering>
<clus scale="   35.675">  2  9  1 -1</clus>
<clus scale="   83.546">  5  6 -1 -1</clus>
<clus scale="   89.778">  7  8 -1 -1</clus>
<clus scale="  113.771">  2  5  1 -1</clus>
<clus scale="   35.675">  2  5  1 -1</clus>
</clustering>
</event>
<event>
 9    1  0.9000149E-006  0.1030842E+03  0.7546771E-02  0.1275347E+00
          1   -1    0    0  502    0  0.00000000000E+00  0.00000000000E+00  0.49987631734E+03  0.49987631734E+03  0.00000000000E+00 0. -1.
         -1   -1    0    0    0  501 -0.00000000000E+00 -0.00000000000E+00 -0.31981937461E+02  0.31981937461E+02  0.00000000000E+00 0.  1.
         23    2    1    2    0    0 -0.21358546420E+02 -0.18252762026E+02  0.14911144007E+03  0.17641426661E+03  0.89991227785E+02 0.  0.
         23    2    1    2    0    0  0.40670454043E+02  0.52845226130E+02  0.20273676136E+03  0.23282138064E+03  0.93042447948E+02 0.  0.
        -11    1    4    4    0    0 -0.88688039032E+01  0.48782764396E+02  0.43339130428E+02  0.65853580093E+02  0.00000000000E+00 0.  1.
         11    1    4    4    0    0  0.49539257946E+02  0.40624617342E+01  0.15939763093E+03  0.16696780055E+03  0.00000000000E+00 0. -1.
        -11    1    3    3    0    0 -0.33228322786E+02  0.21219891064E+02  0.27665554773E+02  0.48164178938E+02  0.00000000000E+00 0.  1.
         11    1    3    3    0    0  0.11869776366E+02 -0.39472653090E+02  0.12144588530E+03  0.12825008768E+03  0.00000000000E+00 0. -1.
         21    1    1    2  502  501 -0.19311907623E+02 -0.34592464105E+02  0.11604617845E+03  0.12262260755E+03  0.00000000000E+00 0.  1.
<scales pt_clust_5="13000.00000" pt_clust_6="13000.00000" pt_clust_7="13000.00000" pt_clust_8="13000.00000" pt_clust_9="39.61803"></scales>
<clustering>
<clus scale="   39.618">  1  9  2 -1</clus>
<clus scale="   89.991">  7  8 -1 -1</clus>
<clus scale="   93.042">  5  6 -1 -1</clus>
<clus scale="  100.339">  2  7  1 -1</clus>
<clus scale="   39.618">  1  5  2 -1</clus>
</clustering>
</event>
<event>
 9    1  0.9000149E-006  0.1238518E+03  0.7546771E-02  0.1237166E+00
         -1   -1    0    0    0  501 -0.00000000000E+00  0.00000000000E+00  0.38702968402E+03  0.38702968402E+03  0.00000000000E+00 0.  1.
          1   -1    0    0  502    0  0.00000000000E+00 -0.00000000000E+00 -0.61696692842E+02  0.61696692842E+02  0.00000000000E+00 0. -1.
         23    2    1    2    0    0 -0.50576212420E+02 -0.52444901404E+02  0.20208645870E+03  0.23342285562E+03  0.91317423257E+02 0.  0.
         23    2    1    2    0    0  0.75456828737E+02  0.67814555399E+02  0.12557959867E+03  0.18596558453E+03  0.92306100020E+02 0.  0.
        -13    1    3    3    0    0 -0.29042734747E+02  0.68125246529E+01  0.10332710110E+02  0.31569856382E+02  0.00000000000E+00 0. -1.
         13    1    3    3    0    0 -0.21533477673E+02 -0.59257426057E+02  0.19175374859E+03  0.20185299924E+03  0.00000000000E+00 0.  1.
        -13    1    4    4    0    0 -0.10185275065E+01  0.58587499340E+02  0.40703784431E+02  0.71346552434E+02  0.00000000000E+00 0. -1.
         13    1    4    4    0    0  0.76475356243E+02  0.92270560588E+01  0.84875814243E+02  0.11461903210E+03  0.00000000000E+00 0.  1.
         21    1    1    2  502  501 -0.24880616317E+02 -0.15369653994E+02 -0.23330661979E+01  0.29337936705E+02  0.00000000000E+00 0. -1.
<scales pt_clust_5="13000.00000" pt_clust_6="13000.00000" pt_clust_7="13000.00000" pt_clust_8="13000.00000" pt_clust_9="29.24502"></scales>
<clustering>
<clus scale="   29.245">  2  9  1 -1</clus>
<clus scale="   91.317">  5  6 -1 -1</clus>
<clus scale="   92.306">  7  8 -1 -1</clus>
<clus scale="  123.117">  1  5  2 -1</clus>
<clus scale="   29.245">  2  5  1 -1</clus>
</clustering>
</event>
<event>
 9    1  0.9000149E-006  0.9817261E+02  0.7546771E-02  0.1285859E+00
          2   -1    0    0  502    0  0.00000000000E+00  0.00000000000E+00  0.43172204665E+02  0.43172204665E+02  0.00000000000E+00 0. -1.
         -2   -1    0    0    0  501 -0.00000000000E+00 -0.00000000000E+00 -0.33443703532E+03  0.33443703532E+03  0.00000000000E+00 0.  1.
         23    2    1    2    0    0 -0.13260629589E+02  0.26932059260E+02 -0.18613559068E+03  0.20893131775E+03  0.90025870209E+02 0.  0.
         23    2    1    2    0    0  0.39084952122E+02 -0.11344815270E+02 -0.80405774304E+02  0.12967654323E+03  0.93244726424E+02 0.  0.
        -11    1    4    4    0    0 -0.44860594262E+01 -0.27145749562E+02 -0.78619052812E+02  0.83294489095E+02  0.00000000000E+00 0.  1.
         11    1    4    4    0    0  0.43571011549E+02  0.15800934291E+02 -0.17867214921E+01  0.46382054132E+02  0.00000000000E+00 0. -1.
        -13    1    3    3    0    0 -0.37771460990E+02 -0.16142722324E+02 -0.54288618120E+02  0.68077344298E+02  0.00000000000E+00 0.  1.
         13    1    3    3    0    0  0.24510831401E+02  0.43074781585E+02 -0.13184697256E+03  0.14085397345E+03  0.00000000000E+00 0. -1.
         21    1    1    2  502  501 -0.25824322534E+02 -0.15587243990E+02 -0.24723465668E+02  0.39001379004E+02  0.00000000000E+00 0.  1.
<scales pt_clust_5="13000.00000" pt_clust_6="13000.00000" pt_clust_7="13000.00000" pt_clust_8="13000.00000" pt_clust_9="30.16385"></scales>
<clustering>
<clus scale="   30.164">  1  9  2 -1</clus>
<clus scale="   90.026">  7  8 -1 -1</clus>
<clus scale="   93.245">  5  6 -1 -1</clus>
<clus scale="   95.121">  2  7  1 -1</clus>
<clus scale="   30.164">  1  5  2 -1</clus>
</clustering>
</event>
<event>
 9    1  0.9000149E-006  0.1256421E+03  0.7546771E-02  0.1234578E+00
          2   -1    0    0  502    0  0.00000000000E+00  0.00000000000E+00  0.61586708167E+03  0.61586708167E+03  0.00000000000E+00 0. -1.
         -2   -1    0    0    0  501 -0.00000000000E+00 -0.00000000000E+00 -0.85095048461E+02  0.85095048461E+02  0.00000000000E+00 0.  1.
         23    2    1    2    0    0  0.18024930154E+02  0.78425010744E+02 -0.19933653274E+02  0.12418104980E+03  0.92456488028E+02 0.  0.
         23    2    1    2    0    0 -0.16553516698E+02 -0.10656089948E+03  0.46721385121E+03  0.48866365953E+03  0.94202681311E+02 0.  0.
        -11    1    3    3    0    0  0.12037283365E+02  0.99208478443E+02 -0.10175145173E+02  0.10045273498E+03  0.00000000000E+00 0.  1.
         11    1    3    3    0    0  0.59876467890E+01 -0.20783467699E+02 -0.97585081005E+01  0.23728314816E+02  0.00000000000E+00 0. -1.
        -13    1    4    4    0    0  0.30964074391E+01 -0.11868554702E+03  0.41327098726E+03  0.42998692506E+03  0.00000000000E+00 0. -1.
         13    1    4    4    0    0 -0.19649924138E+02  0.12124647542E+02  0.53942863957E+02  0.58676734473E+02  0.00000000000E+00 0.  1.
         21    1    1    2  502  501 -0.14714134553E+01  0.28135888738E+02  0.83491835268E+02  0.88117420803E+02  0.00000000000E+00 0. -1.
<scales pt_clust_5="13000.00000" pt_clust_6="13000.00000" pt_clust_7="13000.00000" pt_clust_8="13000.00000" pt_clust_9="28.17434"></scales>
<clustering>
<clus scale="   28.174">  1  9  2 -1</clus>
<clus scale="   92.456">  5  6 -1 -1</clus>
<clus scale="   94.203">  7  8 -1 -1</clus>
<clus scale="  124.338">  2  5  1 -1</clus>
<clus scale="   28.174">  1  5  2 -1</clus>
</clustering>
</event>
<event>
 9    1  0.9000149E-006  0.1809028E+03  0.7546771E-02  0.1166983E+00
          2   -1    0    0  502    0  0.00000000000E+00  0.00000000000E+00  0.56748319693E+03  0.56748319693E+03  0.00000000000E+00 0. -1.
         -2   -1    0    0    0  501 -0.00000000000E+00 -0.00000000000E+00 -0.21482109729E+03  0.21482109729E+03  0.00000000000E+00 0.  1.
         23    2    1    2    0    0  0.72284745277E+02 -0.37964040561E+02 -0.14331817920E+03  0.18792132556E+03  0.90044274303E+02 0.  0.
         23    2    1    2    0    0 -0.11989106340E+03  0.11390655175E+03  0.46121125570E+03  0.49824498708E+03  0.90463667569E+02 0.  0.
        -13    1    4    4    0    0 -0.10070742421E+03  0.10058960589E+03  0.45068770020E+03  0.47263057161E+03  0.00000000000E+00 0. -1.
         13    1    4    4    0    0 -0.19183639190E+02  0.13316945867E+02  0.10523555502E+02  0.25614415477E+02  0.00000000000E+00 0.  1.
        -13    1    3    3    0    0  0.72853220276E+02 -0.10818480394E+02 -0.14290304894E+03  0.16076664026E+03  0.00000000000E+00 0.  1.
         13    1    3    3    0    0 -0.56847499892E+00 -0.27145560167E+02 -0.41513025760E+00  0.27154685300E+02  0.00000000000E+00 0. -1.
         21    1    1    2  502  501  0.47606318123E+02 -0.75942511192E+02  0.34769023137E+02  0.96137981575E+02  0.00000000000E+00 0.  1.
<scales pt_clust_5="13000.00000" pt_clust_6="13000.00000" pt_clust_7="13000.00000" pt_clust_8="13000.00000" pt_clust_9="89.63050"></scales>
<clustering>
<clus scale="   89.631">  2  9  1 -1</clus>
<clus scale="   90.044">  7  8 -1 -1</clus>
<clus scale="   90.464">  5  6 -1 -1</clus>
<clus scale="  180.693">  2  7  1 -1</clus>
<clus scale="  180.903">  1  5  2 -1</clus>
</clustering>
</event>
<event>
 9    1  0.9000149E-006  0.1500514E+03  0.7546771E-02  0.1200611E+00
          2   -1    0    0  502    0  0.00000000000E+00  0.00000000000E+00  0.86860289876E+03  0.86860289876E+03  0.00000000000E+00 0. -1.
         -2   -1    0    0    0  501 -0.00000000000E+00 -0.00000000000E+00 -0.44746724606E+02  0.44746724606E+02  0.00000000000E+00 0.  1.
         23    2    1    2    0    0 -0.13759893509E+03 -0.39191247070E+02  0.23197461230E+03  0.28758125657E+03  0.91767846197E+02 0.  0.
         23    2    1    2    0    0  0.87953085645E+02  0.28678328319E+02  0.26502114682E+03  0.29499206361E+03  0.90696844172E+02 0.  0.
        -11    1    4    4    0    0  0.78583042954E+02 -0.14909961736E+01  0.10111533905E+03  0.12806962755E+03  0.00000000000E+00 0.  1.
         11    1    4    4    0    0  0.93700426916E+01  0.30169324492E+02  0.16390580777E+03  0.16692243606E+03  0.00000000000E+00 0. -1.
        -11    1    3    3    0    0 -0.45302248826E+02  0.10324017784E+02  0.14231249170E+03  0.14970545877E+03  0.00000000000E+00 0. -1.
         11    1    3    3    0    0 -0.92296686268E+02 -0.49515264854E+02  0.89662120599E+02  0.13787579780E+03  0.00000000000E+00 0.  1.
         21    1    1    2  502  501  0.49645849449E+02  0.10512918751E+02  0.32686041504E+03  0.33077630318E+03  0.00000000000E+00 0. -1.
<scales pt_clust_5="13000.00000" pt_clust_6="13000.00000" pt_clust_7="13000.00000" pt_clust_8="13000.00000" pt_clust_9="50.74674"></scales>
<clustering>
<clus scale="   50.747">  1  9  2 -1</clus>
<clus scale="   90.697">  5  6 -1 -1</clus>
<clus scale="   91.768">  7  8 -1 -1</clus>
<clus scale="  149.399">  1  5  2 -1</clus>
<clus scale="   50.747">  1  5  2 -1</clus>
</clustering>
</event>
<event>
 9    1  0.9000149E-006  0.1010394E+03  0.7546771E-02  0.1278849E+00
          2   -1    0    0  502    0  0.00000000000E+00  0.00000000000E+00  0.33273207785E+03  0.33273207785E+03  0.00000000000E+00 0. -1.
         -2   -1    0    0    0  501 -0.00000000000E+00 -0.00000000000E+00 -0.87818364542E+02  0.87818364542E+02  0.00000000000E+00 0.  1.
         23    2    1    2    0    0 -0.20012062708E+02  0.36359664866E+02 -0.38837662375E+02  0.10867598200E+03  0.92626114901E+02 0.  0.
         23    2    1    2    0    0  0.32530846718E+02 -0.17366999513E+02  0.26415634298E+03  0.28185102626E+03  0.91112890463E+02 0.  0.
        -11    1    4    4    0    0  0.18649179441E+02 -0.48078295105E+02  0.22183191914E+03  0.22774704105E+03  0.00000000000E+00 0. -1.
         11    1    4    4    0    0  0.13881667277E+02  0.30711295592E+02  0.42324423838E+02  0.54103985218E+02  0.00000000000E+00 0.  1.
        -13    1    3    3    0    0 -0.51956224176E+02  0.57229669052E+01 -0.41370587575E+01  0.52433928291E+02  0.00000000000E+00 0.  1.
         13    1    3    3    0    0  0.31944161468E+02  0.30636697961E+02 -0.34700603618E+02  0.56242053708E+02  0.00000000000E+00 0. -1.
         21    1    1    2  502  501 -0.12518784010E+02 -0.18992665353E+02  0.19595032699E+02  0.30023434127E+02  0.00000000000E+00 0. -1.
<scales pt_clust_5="13000.00000" pt_clust_6="13000.00000" pt_clust_7="13000.00000" pt_clust_8="13000.00000" pt_clust_9="22.74734"></scales>
<clustering>
<clus scale="   22.747">  1  9  2 -1</clus>
<clus scale="   91.113">  5  6 -1 -1</clus>
<clus scale="   92.626">  7  8 -1 -1</clus>
<clus scale="   99.654">  1  5  2 -1</clus>
<clus scale="   22.747">  1  5  2 -1</clus>
</clustering>
</event>
<event>
 9    1  0.9000149E-006  0.1183122E+03  0.7546771E-02  0.1246016E+00
          1   -1    0    0  502    0  0.00000000000E+00  0.00000000000E+00  0.30541628993E+03  0.30541628993E+03  0.00000000000E+00 0. -1.
         -1   -1    0    0    0  501 -0.00000000000E+00 -0.00000000000E+00 -0.97212261204E+02  0.97212261204E+02  0.00000000000E+00 0.  1.
         23    2    1    2    0    0  0.70835398103E+02 -0.28717303464E+02 -0.29278326787E+02  0.12255010667E+03  0.91208393708E+02 0.  0.
         23    2    1    2    0    0 -0.71996008715E+02  0.55176573214E+01  0.15241136759E+03  0.19189316460E+03  0.91541749145E+02 0.  0.
        -11    1    3    3    0    0  0.38427040852E+02 -0.19019927610E+02 -0.62068592180E+02  0.75438088855E+02  0.00000000000E+00 0.  1.
         11    1    3    3    0    0  0.32408357251E+02 -0.96973758543E+01  0.32790265392E+02  0.47112017816E+02  0.00000000000E+00 0. -1.
        -13    1    4    4    0    0 -0.72977077773E+02  0.34826043771E+02  0.79903227094E+02  0.11367951841E+03  0.00000000000E+00 0. -1.
         13    1    4    4    0    0  0.98106905761E+00 -0.29308386450E+02  0.72508140497E+02  0.78213646196E+02  0.00000000000E+00 0.  1.
         21    1    1    2  502  501  0.11606106128E+01  0.23199646143E+02  0.85070987918E+02  0.88185279857E+02  0.00000000000E+00 0. -1.
<scales pt_clust_5="13000.00000" pt_clust_6="13000.00000" pt_clust_7="13000.00000" pt_clust_8="13000.00000" pt_clust_9="23.22866"></scales>
<clustering>
<clus scale="   23.229">  1  9  2 -1</clus>
<clus scale="   91.208">  5  6 -1 -1</clus>
<clus scale="   91.542">  7  8 -1 -1</clus>
<clus scale="  118.054">  2  5  1 -1</clus>
<clus scale="   23.229">  1  5  2 -1</clus>
</clustering>
</event>
<event>
 9    1  0.9000149E-006  0.1016074E+03  0.7546771E-02  0.1280447E+00
         -4   -1    0    0    0  501 -0.00000000000E+00  0.00000000000E+00  0.77849133494E+02  0.77849133494E+02  0.00000000000E+00 0.  1.
          4   -1    0    0  502    0  0.00000000000E+00 -0.00000000000E+00 -0.27069822844E+03  0.27069822844E+03  0.00000000000E+00 0. -1.
         23    2    1    2    0    0  0.38613292172E+02 -0.44028532372E+02  0.62814750409E+01  0.10167491194E+03  0.82878421765E+02 0.  0.
         23    2    1    2    0    0  0.84844062750E+01  0.19572259110E+02 -0.12972763826E+03  0.15950501079E+03  0.90319044844E+02 0.  0.
        -11    1    4    4    0    0  0.43536413270E+02 -0.40312822333E+01 -0.35801264398E+02  0.56510185359E+02  0.00000000000E+00 0.  1.
         11    1    4    4    0    0 -0.35052006995E+02  0.23603541343E+02 -0.93926373862E+02  0.10299482543E+03  0.00000000000E+00 0. -1.
        -13    1    3    3    0    0  0.60202766965E+00 -0.59836502873E+02  0.85391480161E+01  0.60445732374E+02  0.00000000000E+00 0.  1.
         13    1    3    3    0    0  0.38011264502E+02  0.15807970502E+02 -0.22576729752E+01  0.41229179566E+02  0.00000000000E+00 0. -1.
         21    1    1    2  502  501 -0.47097698447E+02  0.24456273262E+02 -0.69402931723E+02  0.87367439202E+02  0.00000000000E+00 0. -1.
<scales pt_clust_5="13000.00000" pt_clust_6="13000.00000" pt_clust_7="13000.00000" pt_clust_8="13000.00000" pt_clust_9="53.06885"></scales>
<clustering>
<clus scale="   53.069">  2  9  1 -1</clus>
<clus scale="   82.878">  7  8 -1 -1</clus>
<clus scale="   90.319">  5  6 -1 -1</clus>
<clus scale="   95.055">  1  7  2 -1</clus>
<clus scale="   53.069">  2  5  1 -1</clus>
</clustering>
</event>
<event>
 9    1  0.9000149E-006  0.1037078E+03  0.7546771E-02  0.1277982E+00
          2   -1    0    0  502    0  0.00000000000E+00  0.00000000000E+00  0.35155935133E+03  0.35155935133E+03  0.00000000000E+00 0. -1.
         -2   -1    0    0    0  501 -0.00000000000E+00 -0.00000000000E+00 -0.80983474363E+02  0.80983474363E+02  0.00000000000E+00 0.  1.
         23    2    1    2    0    0  0.21983222385E+02  0.76442096323E+01 -0.28814535418E+02  0.10708562685E+03  0.10047565883E+03 0.  0.
         23    2    1    2    0    0 -0.33584624146E+02 -0.29889953905E+02  0.25926241868E+03  0.27813150245E+03  0.90104353889E+02 0.  0.
        -11    1    4    4    0    0 -0.11866975876E+02  0.32515648390E+02  0.87449922516E+02  0.94050951376E+02  0.00000000000E+00 0. -1.
         11    1    4    4    0    0 -0.21717648270E+02 -0.62405602295E+02  0.17181249616E+03  0.18408055107E+03  0.00000000000E+00 0.  1.
        -11    1    3    3    0    0  0.18590000621E+02  0.47071622047E+02  0.10074318689E+02  0.51602496279E+02  0.00000000000E+00 0. -1.
         11    1    3    3    0    0  0.33932217643E+01 -0.39427412415E+02 -0.38888854106E+02  0.55483130566E+02  0.00000000000E+00 0.  1.
         21    1    1    2  502  501  0.11601401761E+02  0.22245744272E+02  0.40127993700E+02  0.47325696396E+02  0.00000000000E+00 0.  1.
<scales pt_clust_5="13000.00000" pt_clust_6="13000.00000" pt_clust_7="13000.00000" pt_clust_8="13000.00000" pt_clust_9="25.08915"></scales>
<clustering>
<clus scale="   25.089">  1  9  2 -1</clus>
<clus scale="   90.104">  5  6 -1 -1</clus>
<clus scale="   93.695">  1  5  2 -1</clus>
<clus scale="  100.476">  7  8 -1 -1</clus>
<clus scale="   25.089">  1  5  2 -1</clus>
</clustering>
</event>
<event>
 9    1  0.9000149E-006  0.9658028E+02  0.7546771E-02  0.1288064E+00
          1   -1    0    0  502    0  0.00000000000E+00  0.00000000000E+00  0.86368927035E+02  0.86368927035E+02  0.00000000000E+00 0. -1.
         -1   -1    0    0    0  501 -0.00000000000E+00 -0.00000000000E+00 -0.18144673539E+03  0.18144673539E+03  0.00000000000E+00 0.  1.
         23    2    1    2    0    0  0.15512862800E+02  0.30363748540E+02 -0.87520187304E+02  0.13141242301E+03  0.91906667869E+02 0.  0.
         23    2    1    2    0    0  0.36471131246E+01 -0.19505452219E+02 -0.35163294573E+02  0.10108921264E+03  0.92675819535E+02 0.  0.
        -11    1    4    4    0    0 -0.17645727673E+02  0.33066621269E+02 -0.85874415077E+01  0.38451492804E+02  0.00000000000E+00 0. -1.
         11    1    4    4    0    0  0.21292840797E+02 -0.52572073488E+02 -0.26575853066E+02  0.62637719835E+02  0.00000000000E+00 0.  1.
        -11    1    3    3    0    0 -0.30126193610E+02  0.34998460294E+02 -0.66477097562E+02  0.80942475034E+02  0.00000000000E+00 0. -1.
         11    1    3    3    0    0  0.45639056410E+02 -0.46347117546E+01 -0.21043089742E+02  0.50469947979E+02  0.00000000000E+00 0.  1.
         21    1    1    2  502  501 -0.19159975925E+02 -0.10858296320E+02  0.27605673520E+02  0.35314026773E+02  0.00000000000E+00 0. -1.
<scales pt_clust_5="13000.00000" pt_clust_6="13000.00000" pt_clust_7="13000.00000" pt_clust_8="13000.00000" pt_clust_9="22.02288"></scales>
<clustering>
<clus scale="   22.023">  1  9  2 -1</clus>
<clus scale="   91.907">  7  8 -1 -1</clus>
<clus scale="   92.676">  5  6 -1 -1</clus>
<clus scale="   95.842">  2  7  1 -1</clus>
<clus scale="   22.023">  1  5  2 -1</clus>
</clustering>
</event>
<event>
 9    1  0.1194031E-005  0.1877014E+03  0.7546771E-02  0.1160801E+00
          2   -1    0    0  502    0  0.00000000000E+00  0.00000000000E+00  0.31664693152E+03  0.31664693152E+03  0.00000000000E+00 0. -1.
         -2   -1    0    0    0  501 -0.00000000000E+00 -0.00000000000E+00 -0.70440207387E+03  0.70440207387E+03  0.00000000000E+00 0.  1.
         23    2    1    2    0    0  0.15439807526E+03 -0.49512222867E+02 -0.63821335319E+03  0.66467254630E+03  0.90460398798E+02 0.  0.
         23    2    1    2    0    0 -0.17719619893E+03  0.60220272366E+02  0.25620627068E+03  0.33054127071E+03  0.92687131753E+02 0.  0.
        -11    1    4    4    0    0 -0.13488872280E+03  0.79125550580E+02  0.15986585067E+03  0.22363566466E+03  0.00000000000E+00 0.  1.
         11    1    4    4    0    0 -0.42307476122E+02 -0.18905278213E+02  0.96340420002E+02  0.10690560606E+03  0.00000000000E+00 0. -1.
        -13    1    3    3    0    0  0.66573666363E+02 -0.65176852296E+02 -0.38808089984E+03  0.39910757942E+03  0.00000000000E+00 0. -1.
         13    1    3    3    0    0  0.87824408899E+02  0.15664629429E+02 -0.25013245335E+03  0.26556496687E+03  0.00000000000E+00 0.  1.
         21    1    1    2  502  501  0.22798123665E+02 -0.10708049499E+02 -0.57480598351E+01  0.25835188379E+02  0.00000000000E+00 0. -1.
<scales pt_clust_5="13000.00000" pt_clust_6="13000.00000" pt_clust_7="13000.00000" pt_clust_8="13000.00000" pt_clust_9="25.18763"></scales>
<clustering>
<clus scale="   25.188">  1  9  2 -1</clus>
<clus scale="   90.460">  7  8 -1 -1</clus>
<clus scale="   92.687">  5  6 -1 -1</clus>
<clus scale="  186.612">  2  7  1 -1</clus>
<clus scale="   25.188">  1  5  2 -1</clus>
</clustering>
</event>
<event>
 9    1  0.9000149E-006  0.1060575E+03  0.7546771E-02  0.1269147E+00
         -2   -1    0    0    0  501 -0.00000000000E+00  0.00000000000E+00  0.55651891662E+02  0.55651891662E+02  0.00000000000E+00 0.  1.
          2   -1    0    0  502    0  0.00000000000E+00 -0.00000000000E+00 -0.55289260417E+03  0.55289260417E+03  0.00000000000E+00 0. -1.
         23    2    1    2    0    0 -0.47736736228E+02 -0.24594277148E+02 -0.42284731184E+02  0.11564056918E+03  0.93279517020E+02 0.  0.
         23    2    1    2    0    0  0.15554897130E+02  0.53640778846E+02 -0.14502931508E+03  0.17995998842E+03  0.90734818111E+02 0.  0.
        -11    1    4    4    0    0 -0.37898112977E+02  0.25731905468E+02 -0.70763102235E+02  0.84295993761E+02  0.00000000000E+00 0.  1.
         11    1    4    4    0    0  0.53453010107E+02  0.27908873378E+02 -0.74266212849E+02  0.95663994656E+02  0.00000000000E+00 0. -1.
        -13    1    3    3    0    0 -0.34503694763E+02 -0.44451174053E+02  0.10928227828E+02  0.57322229462E+02  0.00000000000E+00 0.  1.
         13    1    3    3    0    0 -0.13233041465E+02  0.19856896905E+02 -0.53212959012E+02  0.58318339721E+02  0.00000000000E+00 0. -1.
         21    1    1    2  502  501  0.32181839099E+02 -0.29046501698E+02 -0.30992666624E+03  0.31294393823E+03  0.00000000000E+00 0. -1.
<scales pt_clust_5="13000.00000" pt_clust_6="13000.00000" pt_clust_7="13000.00000" pt_clust_8="13000.00000" pt_clust_9="43.35170"></scales>
<clustering>
<clus scale="   43.352">  2  9  1 -1</clus>
<clus scale="   90.735">  5  6 -1 -1</clus>
<clus scale="   93.280">  7  8 -1 -1</clus>
<clus scale="  103.826">  2  5  1 -1</clus>
<clus scale="   43.352">  2  5  1 -1</clus>
</clustering>
</event>
<event>
 9    1  0.9000149E-006  0.9791138E+02  0.7546771E-02  0.1285109E+00
          1   -1    0    0  502    0  0.00000000000E+00  0.00000000000E+00  0.53385638548E+03  0.53385638548E+03  0.00000000000E+00 0. -1.
         -1   -1    0    0    0  501 -0.00000000000E+00 -0.00000000000E+00 -0.33654922012E+02  0.33654922012E+02  0.00000000000E+00 0.  1.
         23    2    1    2    0    0 -0.30517249861E+02 -0.11959216305E+02  0.88625239492E+02  0.13183217856E+03  0.91929129417E+02 0.  0.
         23    2    1    2    0    0  0.40994989575E+02 -0.21954980991E+02  0.24820695056E+03  0.26849816320E+03  0.91224793632E+02 0.  0.
        -13    1    3    3    0    0 -0.49035824109E+02 -0.35368325848E+02  0.33439355712E+02  0.69091396207E+02  0.00000000000E+00 0.  1.
         13    1    3    3    0    0  0.18518574248E+02  0.23409109544E+02  0.55185883780E+02  0.62740782354E+02  0.00000000000E+00 0. -1.
        -13    1    4    4    0    0  0.57654876251E+02 -0.38099180207E+02  0.12231871071E+03  0.14049021061E+03  0.00000000000E+00 0.  1.
         13    1    4    4    0    0 -0.16659886676E+02  0.16144199216E+02  0.12588823985E+03  0.12800795259E+03  0.00000000000E+00 0. -1.
         21    1    1    2  502  501 -0.10477739714E+02  0.33914197296E+02  0.16336927341E+03  0.16718096573E+03  0.00000000000E+00 0. -1.
<scales pt_clust_5="13000.00000" pt_clust_6="13000.00000" pt_clust_7="13000.00000" pt_clust_8="13000.00000" pt_clust_9="35.49586"></scales>
<clustering>
<clus scale="   35.496">  1  9  2 -1</clus>
<clus scale="   91.225">  7  8 -1 -1</clus>
<clus scale="   91.929">  5  6 -1 -1</clus>
<clus scale="   97.250">  1  7  2 -1</clus>
<clus scale="   35.496">  1  5  2 -1</clus>
</clustering>
</event>
<event>
 9    1  0.9000149E-006  0.9864069E+02  0.7546771E-02  0.1283183E+00
          1   -1    0    0  502    0  0.00000000000E+00  0.00000000000E+00  0.31208739128E+03  0.31208739128E+03  0.00000000000E+00 0. -1.
         -1   -1    0    0    0  501 -0.00000000000E+00 -0.00000000000E+00 -0.47086996994E+02  0.47086996994E+02  0.00000000000E+00 0.  1.
         23    2    1    2    0    0 -0.13603512107E+02  0.45114610625E+02  0.59875728653E+02  0.11887670497E+03  0.91247928571E+02 0.  0.
         23    2    1    2    0    0  0.16278867114E+02 -0.14064838778E+02  0.16040538733E+03  0.18579025530E+03  0.91243133855E+02 0.  0.
        -11    1    4    4    0    0  0.14172352493E+02  0.18734687091E+02  0.15194101932E+01  0.23540447807E+02  0.00000000000E+00 0.  1.
         11    1    4    4    0    0  0.21065146210E+01 -0.32799525869E+02  0.15888597713E+03  0.16224980749E+03  0.00000000000E+00 0. -1.
        -13    1    3    3    0    0 -0.24350644143E+02  0.69891506729E+02  0.52928606500E+02  0.90990186114E+02  0.00000000000E+00 0. -1.
         13    1    3    3    0    0  0.10747132035E+02 -0.24776896104E+02  0.69471221525E+01  0.27886518852E+02  0.00000000000E+00 0.  1.
         21    1    1    2  502  501 -0.26753550069E+01 -0.31049771848E+02  0.44719278310E+02  0.54507428015E+02  0.00000000000E+00 0.  1.
<scales pt_clust_5="13000.00000" pt_clust_6="13000.00000" pt_clust_7="13000.00000" pt_clust_8="13000.00000" pt_clust_9="31.16482"></scales>
<clustering>
<clus scale="   31.165">  1  9  2 -1</clus>
<clus scale="   91.243">  5  6 -1 -1</clus>
<clus scale="   91.248">  7  8 -1 -1</clus>
<clus scale="   98.636">  1  5  2 -1</clus>
<clus scale="   31.165">  1  5  2 -1</clus>
</clustering>
</event>
<event>
 9    1  0.9000149E-006  0.1173500E+03  0.7546771E-02  0.1249063E+00
         -1   -1    0    0    0  501 -0.00000000000E+00  0.00000000000E+00  0.58834223638E+02  0.58834223638E+02  0.00000000000E+00 0.  1.
          1   -1    0    0  502    0  0.00000000000E+00 -0.00000000000E+00 -0.33122404828E+03  0.33122404828E+03  0.00000000000E+00 0. -1.
         23    2    1    2    0    0  0.19258342313E+02 -0.69826428330E+02 -0.43144463678E+02  0.12242559998E+03  0.88769189149E+02 0.  0.
         23    2    1    2    0    0 -0.37169323620E+02  0.59727970697E+02 -0.18428297169E+03  0.21819181286E+03  0.93265558697E+02 0.  0.
        -11    1    4    4    0    0  0.14006446195E+02  0.24763627985E+02 -0.13783190395E+03  0.14073752716E+03  0.00000000000E+00 0. -1.
         11    1    4    4    0    0 -0.51175769815E+02  0.34964342712E+02 -0.46451067745E+02  0.77454285692E+02  0.00000000000E+00 0.  1.
        -13    1    3    3    0    0 -0.27197767216E+02 -0.13638164977E+02 -0.38914532224E+02  0.49396952373E+02  0.00000000000E+00 0.  1.
         13    1    3    3    0    0  0.46456109529E+02 -0.56188263353E+02 -0.42299314541E+01  0.73028647607E+02  0.00000000000E+00 0. -1.
         21    1    1    2  502  501  0.17910981307E+02  0.10098457633E+02 -0.44962389270E+02  0.49440859083E+02  0.00000000000E+00 0.  1.
<scales pt_clust_5="13000.00000" pt_clust_6="13000.00000" pt_clust_7="13000.00000" pt_clust_8="13000.00000" pt_clust_9="20.56167"></scales>
<clustering>
<clus scale="   20.562">  2  9  1 -1</clus>
<clus scale="   88.769">  7  8 -1 -1</clus>
<clus scale="   93.266">  5  6 -1 -1</clus>
<clus scale="  113.809">  1  7  2 -1</clus>
<clus scale="   20.562">  2  5  1 -1</clus>
</clustering>
</event>
<event>
 9    1  0.9000149E-006  0.1109181E+03  0.7546771E-02  0.1268299E+00
         -1   -1    0    0    0  501 -0.00000000000E+00  0.00000000000E+00  0.83307024762E+02  0.83307024762E+02  0.00000000000E+00 0.  1.
          1   -1    0    0  502    0  0.00000000000E+00 -0.00000000000E+00 -0.18318585266E+03  0.18318585266E+03  0.00000000000E+00 0. -1.
         23    2    1    2    0    0  0.25754557843E+02 -0.37876856956E+01 -0.29268499974E+01  0.93179092788E+02  0.89421099687E+02 0.  0.
         23    2    1    2    0    0 -0.15117137641E+02 -0.22613974292E+02 -0.61009341658E+02  0.12746538817E+03  0.10856042431E+03 0.  0.
        -11    1    3    3    0    0 -0.32236628760E+02  0.58531508555E+01 -0.92724050768E+01  0.34050508141E+02  0.00000000000E+00 0. -1.
         11    1    3    3    0    0  0.57991186603E+02 -0.96408365511E+01  0.63455550795E+01  0.59128584647E+02  0.00000000000E+00 0.  1.
        -11    1    4    4    0    0 -0.16237155201E+02  0.43148185929E+02 -0.26875225634E+02  0.53363741537E+02  0.00000000000E+00 0.  1.
         11    1    4    4    0    0  0.11200175599E+01 -0.65762160221E+02 -0.34134116024E+02  0.74101646628E+02  0.00000000000E+00 0. -1.
         21    1    1    2  502  501 -0.10637420202E+02  0.26401659987E+02 -0.35942636238E+02  0.45848396464E+02  0.00000000000E+00 0.  1.
<scales pt_clust_5="13000.00000" pt_clust_6="13000.00000" pt_clust_7="13000.00000" pt_clust_8="13000.00000" pt_clust_9="28.46405"></scales>
<clustering>
<clus scale="   28.464">  2  9  1 -1</clus>
<clus scale="   89.421">  5  6 -1 -1</clus>
<clus scale="   92.269">  1  5  2 -1</clus>
<clus scale="  108.560">  7  8 -1 -1</clus>
<clus scale="   28.464">  2  5  1 -1</clus>
</clustering>
</event>
<event>
 9    1  0.9000149E-006  0.2537864E+03  0.7546771E-02  0.1111131E+00
          1   -1    0    0  502    0  0.00000000000E+00  0.00000000000E+00  0.91493924419E+02  0.91493924419E+02  0.00000000000E+00 0. -1.
         -1   -1    0    0    0  501 -0.00000000000E+00 -0.00000000000E+00 -0.98132443653E+03  0.98132443653E+03  0.00000000000E+00 0.  1.
         23    2    1    2    0    0 -0.11528126238E+03 -0.20649073103E+03 -0.58675056098E+03  0.63887407365E+03  0.89194561009E+02 0.  0.
         23    2    1    2    0    0  0.13479126364E+03  0.19437741402E+03 -0.31764740039E+03  0.40674900875E+03  0.92701786984E+02 0.  0.
        -11    1    3    3    0    0 -0.15284296649E+02 -0.10019525581E+03 -0.17774402262E+03  0.20461093956E+03  0.00000000000E+00 0. -1.
         11    1    3    3    0    0 -0.99996965730E+02 -0.10629547522E+03 -0.40900653836E+03  0.43426313409E+03  0.00000000000E+00 0.  1.
        -11    1    4    4    0    0  0.53395279162E+02  0.10331557019E+03 -0.22559366740E+03  0.25380635463E+03  0.00000000000E+00 0. -1.
         11    1    4    4    0    0  0.81395984476E+02  0.91061843835E+02 -0.92053732984E+02  0.15294265412E+03  0.00000000000E+00 0.  1.
         21    1    1    2  502  501 -0.19510001259E+02  0.12113317010E+02  0.14567449250E+02  0.27195278556E+02  0.00000000000E+00 0. -1.
<scales pt_clust_5="13000.00000" pt_clust_6="13000.00000" pt_clust_7="13000.00000" pt_clust_8="13000.00000" pt_clust_9="22.96459"></scales>
<clustering>
<clus scale="   22.965">  1  9  2 -1</clus>
<clus scale="   89.195">  5  6 -1 -1</clus>
<clus scale="   92.702">  7  8 -1 -1</clus>
<clus scale="  252.526">  2  5  1 -1</clus>
<clus scale="   22.965">  1  5  2 -1</clus>
</clustering>
</event>
<event>
 9    1  0.9000149E-006  0.1789649E+03  0.7546771E-02  0.1169669E+00
         -2   -1    0    0    0  501 -0.00000000000E+00  0.00000000000E+00  0.34670724259E+02  0.34670724259E+02  0.00000000000E+00 0.  1.
          2   -1    0    0  502    0  0.00000000000E+00 -0.00000000000E+00 -0.11174827645E+04  0.11174827645E+04  0.00000000000E+00 0. -1.
         23    2    1    2    0    0 -0.11658735590E+03 -0.98927290126E+02 -0.38354855856E+03  0.42203609909E+03  0.87325551103E+02 0.  0.
         23    2    1    2    0    0  0.10119227816E+03  0.11355926221E+03 -0.52662058596E+03  0.55617293742E+03  0.94146224386E+02 0.  0.
        -13    1    4    4    0    0  0.16429358641E+02  0.50475614504E+02 -0.31715627222E+03  0.32156774169E+03  0.00000000000E+00 0. -1.
         13    1    4    4    0    0  0.84762919520E+02  0.63083647709E+02 -0.20946431374E+03  0.23460519573E+03  0.00000000000E+00 0.  1.
        -13    1    3    3    0    0 -0.14941115968E+02  0.16359023181E+02 -0.55858265980E+02  0.60091600613E+02  0.00000000000E+00 0.  1.
         13    1    3    3    0    0 -0.10164623993E+03 -0.11528631331E+03 -0.32769029258E+03  0.36194449847E+03  0.00000000000E+00 0. -1.
         21    1    1    2  502  501  0.15395077736E+02 -0.14631972086E+02 -0.17264289576E+03  0.17394445229E+03  0.00000000000E+00 0. -1.
<scales pt_clust_5="13000.00000" pt_clust_6="13000.00000" pt_clust_7="13000.00000" pt_clust_8="13000.00000" pt_clust_9="21.23919"></scales>
<clustering>
<clus scale="   21.239">  2  9  1 -1</clus>
<clus scale="   87.326">  7  8 -1 -1</clus>
<clus scale="   94.146">  5  6 -1 -1</clus>
<clus scale="  175.473">  1  7  2 -1</clus>
<clus scale="   21.239">  2  5  1 -1</clus>
</clustering>
</event>
<event>
 9    1  0.9000149E-006  0.1530094E+03  0.7546771E-02  0.1214763E+00
         -1   -1    0    0    0  501 -0.00000000000E+00  0.00000000000E+00  0.82644329365E+02  0.82644329365E+02  0.00000000000E+00 0.  1.
          1   -1    0    0  502    0  0.00000000000E+00 -0.00000000000E+00 -0.70362995094E+03  0.70362995094E+03  0.00000000000E+00 0. -1.
         23    2    1    2    0    0 -0.12643841784E+03  0.27398970744E+02 -0.35290813304E+02  0.16276894475E+03  0.92254597534E+02 0.  0.
         23    2    1    2    0    0  0.38757571555E+02  0.36996768188E+02 -0.31659541055E+03  0.33324816019E+03  0.89167102005E+02 0.  0.
        -11    1    3    3    0    0 -0.73999905746E+02  0.80772293675E+00  0.25425810319E+02  0.78250305412E+02  0.00000000000E+00 0.  1.
         11    1    3    3    0    0 -0.52438512096E+02  0.26591247807E+02 -0.60716623623E+02  0.84518639335E+02  0.00000000000E+00 0. -1.
        -13    1    4    4    0    0 -0.24680091644E+02  0.22644945581E+02 -0.16373519918E+03  0.16712604805E+03  0.00000000000E+00 0.  1.
         13    1    4    4    0    0  0.63437663199E+02  0.14351822607E+02 -0.15286021137E+03  0.16612211215E+03  0.00000000000E+00 0. -1.
         21    1    1    2  502  501  0.87680846287E+02 -0.64395738932E+02 -0.26909939772E+03  0.29025717537E+03  0.00000000000E+00 0. -1.
<scales pt_clust_5="13000.00000" pt_clust_6="13000.00000" pt_clust_7="13000.00000" pt_clust_8="13000.00000" pt_clust_9="122.06946"></scales>
<clustering>
<clus scale="   89.167">  7  8 -1 -1</clus>
<clus scale="   92.255">  5  6 -1 -1</clus>
<clus scale="  104.027">  2  7  1 -1</clus>
<clus scale="  122.069">  2  9  1 -1</clus>
<clus scale="  104.027">  2  5  1 -1</clus>
</clustering>
</event>
<event>
 9    1  0.9000149E-006  0.9880819E+02  0.7546771E-02  0.1283240E+00
          1   -1    0    0  502    0  0.00000000000E+00  0.00000000000E+00  0.71754894763E+02  0.71754894763E+02  0.00000000000E+00 0. -1.
         -1   -1    0    0    0  501 -0.00000000000E+00 -0.00000000000E+00 -0.31721357843E+03  0.31721357843E+03  0.00000000000E+00 0.  1.
         23    2    1    2    0    0 -0.74089895947E+01 -0.39110931103E+02 -0.24666089833E+03  0.26579026091E+03  0.90654872854E+02 0.  0.
         23    2    1    2    0    0  0.29094443939E+02  0.30626579000E+02  0.59111395642E+01  0.99420747461E+02  0.89805731696E+02 0.  0.
        -11    1    4    4    0    0  0.54773787785E+02  0.23194315405E+02  0.27045768583E+02  0.65342311665E+02  0.00000000000E+00 0. -1.
         11    1    4    4    0    0 -0.25679343846E+02  0.74322635942E+01 -0.21134629019E+02  0.34078435796E+02  0.00000000000E+00 0.  1.
        -11    1    3    3    0    0 -0.48159767199E+02 -0.24399046437E+02 -0.11203081672E+03  0.12436068727E+03  0.00000000000E+00 0.  1.
         11    1    3    3    0    0  0.40750777604E+02 -0.14711884666E+02 -0.13463008161E+03  0.14142957364E+03  0.00000000000E+00 0. -1.
         21    1    1    2  502  501 -0.21685454344E+02  0.84843521035E+01 -0.47089248952E+01  0.23757464814E+02  0.00000000000E+00 0. -1.
<scales pt_clust_5="13000.00000" pt_clust_6="13000.00000" pt_clust_7="13000.00000" pt_clust_8="13000.00000" pt_clust_9="23.28612"></scales>
<clustering>
<clus scale="   23.286">  1  9  2 -1</clus>
<clus scale="   89.806">  5  6 -1 -1</clus>
<clus scale="   90.655">  7  8 -1 -1</clus>
<clus scale="   98.030">  1  5  2 -1</clus>
<clus scale="   23.286">  1  5  2 -1</clus>
</clustering>
</event>
<event>
 9    1  0.9000149E-006  0.1074121E+03  0.7546771E-02  0.1269756E+00
         -2   -1    0    0    0  501 -0.00000000000E+00  0.00000000000E+00  0.77223197556E+02  0.77223197556E+02  0.00000000000E+00 0.  1.
          2   -1    0    0  502    0  0.00000000000E+00 -0.00000000000E+00 -0.31640616604E+03  0.31640616604E+03  0.00000000000E+00 0. -1.
         23    2    1    2    0    0 -0.14842104086E+02  0.44060299277E+02 -0.30395280067E+02  0.99263084389E+02  0.82265964079E+02 0.  0.
         23    2    1    2    0    0 -0.43613399144E+02 -0.71465298191E+02 -0.74297160093E+02  0.14518256015E+03  0.92458046393E+02 0.  0.
        -11    1    3    3    0    0 -0.40221499410E+02  0.93634046137E+01  0.74809648343E+01  0.41969121930E+02  0.00000000000E+00 0.  1.
         11    1    3    3    0    0  0.25379395324E+02  0.34696894664E+02 -0.37876244902E+02  0.57293962458E+02  0.00000000000E+00 0. -1.
        -13    1    4    4    0    0 -0.54279523293E+02 -0.40525713619E+02 -0.42558880047E+01  0.67872768442E+02  0.00000000000E+00 0.  1.
         13    1    4    4    0    0  0.10666124149E+02 -0.30939584573E+02 -0.70041272089E+02  0.77309791706E+02  0.00000000000E+00 0. -1.
         21    1    1    2  502  501  0.58455503230E+02  0.27404998914E+02 -0.13449052832E+03  0.14918371906E+03  0.00000000000E+00 0. -1.
<scales pt_clust_5="13000.00000" pt_clust_6="13000.00000" pt_clust_7="13000.00000" pt_clust_8="13000.00000" pt_clust_9="64.56067"></scales>
<clustering>
<clus scale="   64.561">  2  9  1 -1</clus>
<clus scale="   82.266">  5  6 -1 -1</clus>
<clus scale="   92.458">  7  8 -1 -1</clus>
<clus scale="   98.775">  1  5  2 -1</clus>
<clus scale="   64.561">  2  5  1 -1</clus>
</clustering>
</event>
<event>
 9    1  0.9000149E-006  0.9303196E+02  0.7546771E-02  0.1295725E+00
          2   -1    0    0  502    0  0.00000000000E+00  0.00000000000E+00  0.21097501619E+03  0.21097501619E+03  0.00000000000E+00 0. -1.
         -2   -1    0    0    0  501 -0.00000000000E+00 -0.00000000000E+00 -0.73908727596E+02  0.73908727596E+02  0.00000000000E+00 0.  1.
         23    2    1    2    0    0  0.67408465425E+01  0.13372723063E+02 -0.44191952313E+01  0.92785195539E+02  0.91461983854E+02 0.  0.
         23    2    1    2    0    0  0.22101458042E+02 -0.25948964359E+02  0.11561078221E+03  0.15136108929E+03  0.91556011206E+02 0.  0.
        -13    1    3    3    0    0  0.19135249463E+02 -0.73645599106E+01  0.38451163539E+02  0.43576214753E+02  0.00000000000E+00 0. -1.
         13    1    3    3    0    0 -0.12394402921E+02  0.20737282973E+02 -0.42870358771E+02  0.49208980786E+02  0.00000000000E+00 0.  1.
        -13    1    4    4    0    0  0.24374248755E+02  0.36685984509E+00 -0.74558860118E+01  0.25491740324E+02  0.00000000000E+00 0.  1.
         13    1    4    4    0    0 -0.22727907126E+01 -0.26315824205E+02  0.12306666822E+03  0.12586934896E+03  0.00000000000E+00 0. -1.
         21    1    1    2  502  501 -0.28842304585E+02  0.12576241297E+02  0.25874701620E+02  0.40737458964E+02  0.00000000000E+00 0.  1.
<scales pt_clust_5="13000.00000" pt_clust_6="13000.00000" pt_clust_7="13000.00000" pt_clust_8="13000.00000" pt_clust_9="31.46491"></scales>
<clustering>
<clus scale="   31.465">  1  9  2 -1</clus>
<clus scale="   91.462">  5  6 -1 -1</clus>
<clus scale="   91.556">  7  8 -1 -1</clus>
<clus scale="   92.939">  2  5  1 -1</clus>
<clus scale="   31.465">  1  5  2 -1</clus>
</clustering>
</event>
<event>
 9    1  0.9000149E-006  0.1213593E+03  0.7546771E-02  0.1241428E+00
         -2   -1    0    0    0  501 -0.00000000000E+00  0.00000000000E+00  0.60224824726E+02  0.60224824726E+02  0.00000000000E+00 0.  1.
          2   -1    0    0  502    0  0.00000000000E+00 -0.00000000000E+00 -0.53384340613E+03  0.53384340613E+03  0.00000000000E+00 0. -1.
         23    2    1    2    0    0  0.44819958939E+02  0.68710264608E+02 -0.24821202624E+02  0.12603749612E+03  0.92409031736E+02 0.  0.
         23    2    1    2    0    0 -0.27577570370E+02 -0.56790455828E+02 -0.34903129423E+03  0.36608637035E+03  0.90612956804E+02 0.  0.
        -11    1    3    3    0    0  0.43117030189E+02  0.30393897487E+02 -0.55760391988E+02  0.76759941450E+02  0.00000000000E+00 0.  1.
         11    1    3    3    0    0  0.17029287501E+01  0.38316367121E+02  0.30939189363E+02  0.49277554669E+02  0.00000000000E+00 0. -1.
        -13    1    4    4    0    0 -0.50879764230E+02 -0.61323897790E+02 -0.31265559650E+03  0.32264979912E+03  0.00000000000E+00 0. -1.
         13    1    4    4    0    0  0.23302193860E+02  0.45334419619E+01 -0.36375697732E+02  0.43436571230E+02  0.00000000000E+00 0.  1.
         21    1    1    2  502  501 -0.17242388568E+02 -0.11919808779E+02 -0.99766084546E+02  0.10194436439E+03  0.00000000000E+00 0.  1.
<scales pt_clust_5="13000.00000" pt_clust_6="13000.00000" pt_clust_7="13000.00000" pt_clust_8="13000.00000" pt_clust_9="20.96144"></scales>
<clustering>
<clus scale="   20.961">  2  9  1 -1</clus>
<clus scale="   90.613">  7  8 -1 -1</clus>
<clus scale="   92.409">  5  6 -1 -1</clus>
<clus scale="  119.997">  2  7  1 -1</clus>
<clus scale="   20.961">  2  5  1 -1</clus>
</clustering>
</event>
<event>
 9    1  0.9000149E-006  0.2811788E+03  0.7546771E-02  0.1096156E+00
         -1   -1    0    0    0  501 -0.00000000000E+00  0.00000000000E+00  0.80043275409E+02  0.80043275409E+02  0.00000000000E+00 0.  1.
          1   -1    0    0  502    0  0.00000000000E+00 -0.00000000000E+00 -0.16336656201E+04  0.16336656201E+04  0.00000000000E+00 0. -1.
         23    2    1    2    0    0 -0.24320997208E+03 -0.12851776546E+03 -0.28372404513E+03  0.40971898172E+03  0.10817764849E+03 0.  0.
         23    2    1    2    0    0  0.19412013342E+03  0.99241180529E+02 -0.91182483705E+03  0.94138332913E+03  0.85126968720E+02 0.  0.
        -11    1    3    3    0    0 -0.12746437864E+03 -0.12682080773E+03 -0.17488528210E+03  0.25082971712E+03  0.00000000000E+00 0. -1.
         11    1    3    3    0    0 -0.11574559343E+03 -0.16969577369E+01 -0.10883876303E+03  0.15888926459E+03  0.00000000000E+00 0.  1.
        -13    1    4    4    0    0  0.43141077705E+02  0.18984019331E+02 -0.86253652759E+02  0.98291597758E+02  0.00000000000E+00 0.  1.
         13    1    4    4    0    0  0.15097905572E+03  0.80257161199E+02 -0.82557118429E+03  0.84309173137E+03  0.00000000000E+00 0. -1.
         21    1    1    2  502  501  0.49089838652E+02  0.29276584935E+02 -0.35807346254E+03  0.36260658469E+03  0.00000000000E+00 0. -1.
<scales pt_clust_5="13000.00000" pt_clust_6="13000.00000" pt_clust_7="13000.00000" pt_clust_8="13000.00000" pt_clust_9="57.15707"></scales>
<clustering>
<clus scale="   57.157">  2  9  1 -1</clus>
<clus scale="   85.127">  7  8 -1 -1</clus>
<clus scale="  108.178">  5  6 -1 -1</clus>
<clus scale="  273.140">  2  7  1 -1</clus>
<clus scale="   57.157">  2  5  1 -1</clus>
</clustering>
</event>
<event>
 9    1  0.9000149E-006  0.1001270E+03  0.7546771E-02  0.1280825E+00
          2   -1    0    0  502    0  0.00000000000E+00  0.00000000000E+00  0.24453488757E+03  0.24453488757E+03  0.00000000000E+00 0. -1.
         -2   -1    0    0    0  501 -0.00000000000E+00 -0.00000000000E+00 -0.42532458578E+03  0.42532458578E+03  0.00000000000E+00 0.  1.
         23    2    1    2    0    0  0.50367005885E+02  0.11329796098E+02 -0.24362104138E+03  0.26532447472E+03  0.91545974907E+02 0.  0.
         23    2    1    2    0    0 -0.28386243386E+02  0.15241063793E+02 -0.15605116161E+03  0.18295269922E+03  0.89898032656E+02 0.  0.
        -13    1    4    4    0    0 -0.23313389659E+02 -0.30880014578E+02 -0.11380347955E+03  0.12020117052E+03  0.00000000000E+00 0. -1.
         13    1    4    4    0    0 -0.50728537265E+01  0.46121078371E+02 -0.42247682059E+02  0.62751528702E+02  0.00000000000E+00 0.  1.
        -13    1    3    3    0    0  0.51070152282E+02 -0.32947205948E+02 -0.13725560634E+03  0.15010922791E+03  0.00000000000E+00 0. -1.
         13    1    3    3    0    0 -0.70314639743E+00  0.44277002046E+02 -0.10636543504E+03  0.11521524681E+03  0.00000000000E+00 0.  1.
         21    1    1    2  502  501 -0.21980762499E+02 -0.26570859891E+02  0.21888250477E+03  0.22158229940E+03  0.00000000000E+00 0. -1.
<scales pt_clust_5="13000.00000" pt_clust_6="13000.00000" pt_clust_7="13000.00000" pt_clust_8="13000.00000" pt_clust_9="34.48426"></scales>
<clustering>
<clus scale="   34.484">  1  9  2 -1</clus>
<clus scale="   89.898">  5  6 -1 -1</clus>
<clus scale="   91.546">  7  8 -1 -1</clus>
<clus scale="   98.623">  1  5  2 -1</clus>
<clus scale="   34.484">  1  5  2 -1</clus>
</clustering>
</event>
<event>
 9    1  0.9000149E-006  0.1540443E+03  0.7546771E-02  0.1196751E+00
          1   -1    0    0  502    0  0.00000000000E+00  0.00000000000E+00  0.16326767238E+03  0.16326767238E+03  0.00000000000E+00 0. -1.
         -1   -1    0    0    0  501 -0.00000000000E+00 -0.00000000000E+00 -0.23574065809E+03  0.23574065809E+03  0.00000000000E+00 0.  1.
         23    2    1    2    0    0 -0.10705611347E+03  0.82749060488E+02 -0.11971477396E+03  0.19931572753E+03  0.84182621103E+02 0.  0.
         23    2    1    2    0    0  0.70509812392E+02 -0.79732159363E+02  0.96181005941E-01  0.13996453503E+03  0.90891203834E+02 0.  0.
        -11    1    4    4    0    0  0.25990146181E+02  0.12354530063E+02  0.20926283959E+02  0.35581336005E+02  0.00000000000E+00 0. -1.
         11    1    4    4    0    0  0.44519666211E+02 -0.92086689426E+02 -0.20830102953E+02  0.10438319902E+03  0.00000000000E+00 0.  1.
        -13    1    3    3    0    0 -0.10393656564E+03  0.45936561249E+02 -0.11567136842E+03  0.16215067934E+03  0.00000000000E+00 0.  1.
         13    1    3    3    0    0 -0.31195478211E+01  0.36812499239E+02 -0.40434055350E+01  0.37165048192E+02  0.00000000000E+00 0. -1.
         21    1    1    2  502  501  0.36546301074E+02 -0.30169011249E+01  0.47145607235E+02  0.59728067909E+02  0.00000000000E+00 0. -1.
<scales pt_clust_5="13000.00000" pt_clust_6="13000.00000" pt_clust_7="13000.00000" pt_clust_8="13000.00000" pt_clust_9="36.67061"></scales>
<clustering>
<clus scale="   36.671">  1  9  2 -1</clus>
<clus scale="   84.183">  7  8 -1 -1</clus>
<clus scale="   90.891">  5  6 -1 -1</clus>
<clus scale="  150.184">  2  7  1 -1</clus>
<clus scale="   36.671">  1  5  2 -1</clus>
</clustering>
</event>
<event>
 9    1  0.9000149E-006  0.9351241E+02  0.7546771E-02  0.1294654E+00
         -1   -1    0    0    0  501 -0.00000000000E+00  0.00000000000E+00  0.82520316551E+02  0.82520316551E+02  0.00000000000E+00 0.  1.
          1   -1    0    0  502    0  0.00000000000E+00 -0.00000000000E+00 -0.29475360023E+03  0.29475360023E+03  0.00000000000E+00 0. -1.
         23    2    1    2    0    0 -0.45312813785E+01 -0.11234636277E+02  0.29891508684E+02  0.98519277830E+02  0.93090258617E+02 0.  0.
         23    2    1    2    0    0  0.76502600014E+01 -0.28819809861E+02 -0.16816549082E+03  0.19458775136E+03  0.93250483944E+02 0.  0.
        -11    1    4    4    0    0 -0.28040852795E+02  0.14472092105E+02 -0.10713572801E+03  0.11168614547E+03  0.00000000000E+00 0. -1.
         11    1    4    4    0    0  0.35691112797E+02 -0.43291901966E+02 -0.61029762815E+02  0.82901605882E+02  0.00000000000E+00 0.  1.
        -13    1    3    3    0    0 -0.29223608192E+02  0.32179537634E+02  0.18785622304E+02  0.47354424540E+02  0.00000000000E+00 0. -1.
         13    1    3    3    0    0  0.24692326814E+02 -0.43414173911E+02  0.11105886379E+02  0.51164853290E+02  0.00000000000E+00 0.  1.
         21    1    1    2  502  501 -0.31189786230E+01  0.40054446138E+02 -0.73959301541E+02  0.84166887596E+02  0.00000000000E+00 0. -1.
<scales pt_clust_5="13000.00000" pt_clust_6="13000.00000" pt_clust_7="13000.00000" pt_clust_8="13000.00000" pt_clust_9="40.17570"></scales>
<clustering>
<clus scale="   40.176">  2  9  1 -1</clus>
<clus scale="   93.090">  7  8 -1 -1</clus>
<clus scale="   93.250">  5  6 -1 -1</clus>
<clus scale="   93.353">  1  7  2 -1</clus>
<clus scale="   40.176">  2  5  1 -1</clus>
</clustering>
</event>
<event>
 9    1  0.9000149E-006  0.3734261E+03  0.7546771E-02  0.1053460E+00
          2   -1    0    0  502    0  0.00000000000E+00  0.00000000000E+00  0.12098904175E+04  0.12098904175E+04  0.00000000000E+00 0. -1.
         -2   -1    0    0    0  501 -0.00000000000E+00 -0.00000000000E+00 -0.23493471470E+03  0.23493471470E+03  0.00000000000E+00 0.  1.
         23    2    1    2    0    0 -0.29480506724E+03 -0.22489778058E+03 -0.13026260010E+02  0.38187871507E+03  0.90402600585E+02 0.  0.
         23    2    1    2    0    0  0.26414177083E+03  0.18228745670E+03  0.78317950397E+03  0.85152285033E+03  0.93388635448E+02 0.  0.
        -11    1    3    3    0    0 -0.21408876715E+03 -0.12191677977E+03 -0.36149498789E+02  0.24900700326E+03  0.00000000000E+00 0.  1.
         11    1    3    3    0    0 -0.80716300096E+02 -0.10298100081E+03  0.23123238779E+02  0.13287171181E+03  0.00000000000E+00 0. -1.
        -13    1    4    4    0    0  0.23321670024E+03  0.11857334980E+03  0.57774538689E+03  0.63422346268E+03  0.00000000000E+00 0. -1.
         13    1    4    4    0    0  0.30925070593E+02  0.63714106906E+02  0.20543411708E+03  0.21729938765E+03  0.00000000000E+00 0.  1.
         21    1    1    2  502  501  0.30663296413E+02  0.42610323875E+02  0.20480245880E+03  0.21142356675E+03  0.00000000000E+00 0.  1.
<scales pt_clust_5="13000.00000" pt_clust_6="13000.00000" pt_clust_7="13000.00000" pt_clust_8="13000.00000" pt_clust_9="52.49645"></scales>
<clustering>
<clus scale="   52.496">  1  9  2 -1</clus>
<clus scale="   90.403">  5  6 -1 -1</clus>
<clus scale="   93.389">  7  8 -1 -1</clus>
<clus scale="  372.691">  2  5  1 -1</clus>
<clus scale="   52.496">  1  5  2 -1</clus>
</clustering>
</event>
<event>
 9    1  0.9000149E-006  0.1392754E+03  0.7546771E-02  0.1230289E+00
         -1   -1    0    0    0  501 -0.00000000000E+00  0.00000000000E+00  0.62668854110E+03  0.62668854110E+03  0.00000000000E+00 0.  1.
          1   -1    0    0  502    0  0.00000000000E+00 -0.00000000000E+00 -0.41967291606E+03  0.41967291606E+03  0.00000000000E+00 0. -1.
         23    2    1    2    0    0  0.44832513819E+02 -0.20374329247E+02  0.37303670897E+03  0.38613014866E+03  0.86689318120E+02 0.  0.
         23    2    1    2    0    0  0.48707222188E+02  0.74158665413E+02  0.22328333483E+03  0.25625065613E+03  0.89090122947E+02 0.  0.
        -11    1    4    4    0    0  0.24410713782E+02  0.54224000693E+02  0.21593746164E+03  0.22397569632E+03  0.00000000000E+00 0.  1.
         11    1    4    4    0    0  0.24296508406E+02  0.19934664721E+02  0.73458731818E+01  0.32274959815E+02  0.00000000000E+00 0. -1.
        -11    1    3    3    0    0 -0.50942656168E+00 -0.46646641573E+02  0.15389816329E+03  0.16081297631E+03  0.00000000000E+00 0. -1.
         11    1    3    3    0    0  0.45341940381E+02  0.26272312326E+02  0.21913854568E+03  0.22531717235E+03  0.00000000000E+00 0.  1.
         21    1    1    2  502  501 -0.93539736007E+02 -0.53784336166E+02 -0.38930441876E+03  0.40398065238E+03  0.00000000000E+00 0. -1.
<scales pt_clust_5="13000.00000" pt_clust_6="13000.00000" pt_clust_7="13000.00000" pt_clust_8="13000.00000" pt_clust_9="107.05414"></scales>
<clustering>
<clus scale="   86.689">  7  8 -1 -1</clus>
<clus scale="   89.090">  5  6 -1 -1</clus>
<clus scale="   99.700">  1  7  2 -1</clus>
<clus scale="  107.054">  2  9  1 -1</clus>
<clus scale="  107.054">  2  5  1 -1</clus>
</clustering>
</event>
<event>
 9    1  0.9000149E-006  0.1211387E+03  0.7546771E-02  0.1245085E+00
          2   -1    0    0  502    0  0.00000000000E+00  0.00000000000E+00  0.80975497617E+03  0.80975497617E+03  0.00000000000E+00 0. -1.
         -2   -1    0    0    0  501 -0.00000000000E+00 -0.00000000000E+00 -0.28005728163E+02  0.28005728163E+02  0.00000000000E+00 0.  1.
         23    2    1    2    0    0  0.53869346326E+02 -0.29827836440E+02  0.18024545179E+03  0.21561555190E+03  0.10104472786E+03 0.  0.
         23    2    1    2    0    0 -0.80120803499E+02  0.10925597230E+02  0.39449177635E+03  0.41262090558E+03  0.89964094436E+02 0.  0.
        -13    1    3    3    0    0  0.65213182905E-01  0.32353385468E+02  0.28931059261E+02  0.43402211856E+02  0.00000000000E+00 0.  1.
         13    1    3    3    0    0  0.53804133143E+02 -0.62181221908E+02  0.15131439253E+03  0.17221334004E+03  0.00000000000E+00 0. -1.
        -13    1    4    4    0    0  0.75856313725E+01 -0.24791187740E+02  0.98093098999E+02  0.10146132694E+03  0.00000000000E+00 0.  1.
         13    1    4    4    0    0 -0.87706434872E+02  0.35716784970E+02  0.29639867735E+03  0.31115957864E+03  0.00000000000E+00 0. -1.
         21    1    1    2  502  501  0.26251457174E+02  0.18902239210E+02  0.20701201987E+03  0.20952424686E+03  0.00000000000E+00 0.  1.
<scales pt_clust_5="13000.00000" pt_clust_6="13000.00000" pt_clust_7="13000.00000" pt_clust_8="13000.00000" pt_clust_9="32.34863"></scales>
<clustering>
<clus scale="   32.349">  1  9  2 -1</clus>
<clus scale="   89.964">  7  8 -1 -1</clus>
<clus scale="  101.045">  5  6 -1 -1</clus>
<clus scale="  112.063">  1  7  2 -1</clus>
<clus scale="   32.349">  1  5  2 -1</clus>
</clustering>
</event>
<event>
 9    1  0.9000149E-006  0.1327362E+03  0.7546771E-02  0.1223703E+00
          1   -1    0    0  502    0  0.00000000000E+00  0.00000000000E+00  0.63612322530E+03  0.63612322530E+03  0.00000000000E+00 0. -1.
         -1   -1    0    0    0  501 -0.00000000000E+00 -0.00000000000E+00 -0.56867693875E+02  0.56867693875E+02  0.00000000000E+00 0.  1.
         23    2    1    2    0    0 -0.89757895947E+02  0.27342094023E+02  0.70395799357E+02  0.14899148097E+03  0.91863065720E+02 0.  0.
         23    2    1    2    0    0  0.81557075651E+02 -0.75260177380E+02  0.36624801344E+03  0.39332927376E+03  0.90855155914E+02 0.  0.
        -11    1    3    3    0    0 -0.81676021106E+02  0.53063551120E+02  0.32894905057E+02  0.10280460914E+03  0.00000000000E+00 0.  1.
         11    1    3    3    0    0 -0.80818748409E+01 -0.25721457097E+02  0.37500894301E+02  0.46186871830E+02  0.00000000000E+00 0. -1.
        -13    1    4    4    0    0 -0.18475635087E+02 -0.20648623255E+02  0.49879686126E+02  0.57058722578E+02  0.00000000000E+00 0.  1.
         13    1    4    4    0    0  0.10003271074E+03 -0.54611554125E+02  0.31636832732E+03  0.33627055118E+03  0.00000000000E+00 0. -1.
         21    1    1    2  502  501  0.82008202958E+01  0.47918083357E+02  0.14261171862E+03  0.15067016445E+03  0.00000000000E+00 0. -1.
<scales pt_clust_5="13000.00000" pt_clust_6="13000.00000" pt_clust_7="13000.00000" pt_clust_8="13000.00000" pt_clust_9="48.61477"></scales>
<clustering>
<clus scale="   48.615">  1  9  2 -1</clus>
<clus scale="   90.855">  7  8 -1 -1</clus>
<clus scale="   91.863">  5  6 -1 -1</clus>
<clus scale="  132.041">  1  7  2 -1</clus>
<clus scale="   48.615">  1  5  2 -1</clus>
</clustering>
</event>
<event>
 9    1  0.9000149E-006  0.1576126E+03  0.7546771E-02  0.1192004E+00
         -1   -1    0    0    0  501 -0.00000000000E+00  0.00000000000E+00  0.27261578730E+02  0.27261578730E+02  0.00000000000E+00 0.  1.
          1   -1    0    0  502    0  0.00000000000E+00 -0.00000000000E+00 -0.13677451575E+04  0.13677451575E+04  0.00000000000E+00 0. -1.
         23    2    1    2    0    0 -0.51165620767E+02  0.11019877800E+03 -0.29690477001E+03  0.33377364612E+03  0.92145064811E+02 0.  0.
         23    2    1    2    0    0  0.74645505653E+02 -0.11483585785E+03 -0.85609363905E+03  0.87222648608E+03  0.95517006053E+02 0.  0.
        -13    1    4    4    0    0  0.13478526649E+02  0.16748771358E+02 -0.92232690057E+02  0.94705127305E+02  0.00000000000E+00 0. -1.
         13    1    4    4    0    0  0.61166979004E+02 -0.13158462921E+03 -0.76386094899E+03  0.77752135878E+03  0.00000000000E+00 0.  1.
        -13    1    3    3    0    0 -0.16966288458E+02 -0.15030334135E+02 -0.45198568108E+02  0.50563588156E+02  0.00000000000E+00 0.  1.
         13    1    3    3    0    0 -0.34199332309E+02  0.12522911213E+03 -0.25170620190E+03  0.28321005796E+03  0.00000000000E+00 0. -1.
         21    1    1    2  502  501 -0.23479884886E+02  0.46370798514E+01 -0.18748516973E+03  0.18900660405E+03  0.00000000000E+00 0.  1.
<scales pt_clust_5="13000.00000" pt_clust_6="13000.00000" pt_clust_7="13000.00000" pt_clust_8="13000.00000" pt_clust_9="23.93340"></scales>
<clustering>
<clus scale="   23.933">  2  9  1 -1</clus>
<clus scale="   92.145">  7  8 -1 -1</clus>
<clus scale="   95.517">  5  6 -1 -1</clus>
<clus scale="  155.592">  1  7  2 -1</clus>
<clus scale="   23.933">  2  5  1 -1</clus>
</clustering>
</event>
<event>
 9    1  0.9000149E-006  0.9739602E+02  0.7546771E-02  0.1288635E+00
          1   -1    0    0  502    0  0.00000000000E+00  0.00000000000E+00  0.22551560236E+03  0.22551560236E+03  0.00000000000E+00 0. -1.
         -1   -1    0    0    0  501 -0.00000000000E+00 -0.00000000000E+00 -0.50530642858E+02  0.50530642858E+02  0.00000000000E+00 0.  1.
         23    2    1    2    0    0 -0.51884700806E+01  0.21559272994E+02  0.76112645402E+02  0.12384956438E+03  0.95151759483E+02 0.  0.
         23    2    1    2    0    0 -0.16687325904E+02 -0.18178906174E+02  0.83020296523E+02  0.12497052079E+03  0.90090631901E+02 0.  0.
        -13    1    3    3    0    0 -0.39722952089E+02  0.34146552628E+02  0.18584571705E+02  0.55581348351E+02  0.00000000000E+00 0.  1.
         13    1    3    3    0    0  0.34534482008E+02 -0.12587279634E+02  0.57528073697E+02  0.68268216027E+02  0.00000000000E+00 0. -1.
        -13    1    4    4    0    0  0.26162699260E+02  0.11410859028E+02  0.19406322161E+01  0.28608750230E+02  0.00000000000E+00 0.  1.
         13    1    4    4    0    0 -0.42850025164E+02 -0.29589765203E+02  0.81079664306E+02  0.96361770560E+02  0.00000000000E+00 0. -1.
         21    1    1    2  502  501  0.21875795985E+02 -0.33803668196E+01  0.15852017578E+02  0.27226160051E+02  0.00000000000E+00 0. -1.
<scales pt_clust_5="13000.00000" pt_clust_6="13000.00000" pt_clust_7="13000.00000" pt_clust_8="13000.00000" pt_clust_9="22.13543"></scales>
<clustering>
<clus scale="   22.135">  2  9  1 -1</clus>
<clus scale="   90.091">  7  8 -1 -1</clus>
<clus scale="   92.458">  1  7  2 -1</clus>
<clus scale="   95.152">  5  6 -1 -1</clus>
<clus scale="   92.458">  1  5  2 -1</clus>
</clustering>
</event>
<event>
 9    1  0.9000149E-006  0.1088593E+03  0.7546771E-02  0.1263325E+00
         -1   -1    0    0    0  501 -0.00000000000E+00  0.00000000000E+00  0.12296043296E+03  0.12296043296E+03  0.00000000000E+00 0.  1.
          1   -1    0    0  502    0  0.00000000000E+00 -0.00000000000E+00 -0.14727587743E+03  0.14727587743E+03  0.00000000000E+00 0. -1.
         23    2    1    2    0    0  0.40718784762E+02 -0.53327012754E+02  0.50587644073E+02  0.12284599060E+03  0.89611594964E+02 0.  0.
         23    2    1    2    0    0 -0.26032558988E+02  0.30750898106E+02 -0.63026088986E+02  0.11795514867E+03  0.91202068748E+02 0.  0.
        -11    1    3    3    0    0 -0.94573194678E+01 -0.35498270338E+02 -0.13843668970E+02  0.39258314522E+02  0.00000000000E+00 0. -1.
         11    1    3    3    0    0  0.50176104229E+02 -0.17828742416E+02  0.64431313043E+02  0.83587676079E+02  0.00000000000E+00 0.  1.
        -13    1    4    4    0    0 -0.25045252629E+01  0.60078318374E+02 -0.27112165365E+02  0.65960188721E+02  0.00000000000E+00 0. -1.
         13    1    4    4    0    0 -0.23528033725E+02 -0.29327420268E+02 -0.35913923622E+02  0.51994959952E+02  0.00000000000E+00 0.  1.
         21    1    1    2  502  501 -0.14686225774E+02  0.22576114648E+02 -0.11876999562E+02  0.29435171117E+02  0.00000000000E+00 0. -1.
<scales pt_clust_5="13000.00000" pt_clust_6="13000.00000" pt_clust_7="13000.00000" pt_clust_8="13000.00000" pt_clust_9="26.93262"></scales>
<clustering>
<clus scale="   26.933">  2  9  1 -1</clus>
<clus scale="   89.612">  5  6 -1 -1</clus>
<clus scale="   91.202">  7  8 -1 -1</clus>
<clus scale="  107.530">  1  5  2 -1</clus>
<clus scale="   26.933">  2  5  1 -1</clus>
</clustering>
</event>
<event>
 9    1  0.9000149E-006  0.1050711E+03  0.7546771E-02  0.1272163E+00
          2   -1    0    0  502    0  0.00000000000E+00  0.00000000000E+00  0.24338279848E+03  0.24338279848E+03  0.00000000000E+00 0. -1.
         -2   -1    0    0    0  501 -0.00000000000E+00 -0.00000000000E+00 -0.24092811868E+03  0.24092811868E+03  0.00000000000E+00 0.  1.
         23    2    1    2    0    0 -0.40791535038E+02 -0.20414931104E+02 -0.20912880070E+03  0.23426173664E+03  0.95199722826E+02 0.  0.
         23    2    1    2    0    0  0.15880142982E+02  0.23797442948E+02  0.20200236971E+03  0.22314534205E+03  0.90390204541E+02 0.  0.
        -13    1    4    4    0    0 -0.68105100889E+01 -0.25742779661E+02  0.20400319097E+02  0.33544698115E+02  0.00000000000E+00 0.  1.
         13    1    4    4    0    0  0.22690653071E+02  0.49540222608E+02  0.18160205062E+03  0.18960064394E+03  0.00000000000E+00 0. -1.
        -13    1    3    3    0    0 -0.51782039975E+02 -0.48933579026E+02 -0.17200043107E+03  0.18617202558E+03  0.00000000000E+00 0.  1.
         13    1    3    3    0    0  0.10990504936E+02  0.28518647923E+02 -0.37128369640E+02  0.48089711064E+02  0.00000000000E+00 0. -1.
         21    1    1    2  502  501  0.24911392057E+02 -0.33825118439E+01  0.95811107820E+01  0.26903838469E+02  0.00000000000E+00 0.  1.
<scales pt_clust_5="13000.00000" pt_clust_6="13000.00000" pt_clust_7="13000.00000" pt_clust_8="13000.00000" pt_clust_9="25.13998"></scales>
<clustering>
<clus scale="   25.140">  1  9  2 -1</clus>
<clus scale="   90.390">  5  6 -1 -1</clus>
<clus scale="   95.200">  7  8 -1 -1</clus>
<clus scale="  100.734">  1  5  2 -1</clus>
<clus scale="   25.140">  1  5  2 -1</clus>
</clustering>
</event>
<event>
 9    1  0.9000149E-006  0.1022853E+03  0.7546771E-02  0.1277665E+00
          2   -1    0    0  502    0  0.00000000000E+00  0.00000000000E+00  0.32938614587E+03  0.32938614587E+03  0.00000000000E+00 0. -1.
         -2   -1    0    0    0  501 -0.00000000000E+00 -0.00000000000E+00 -0.69956213090E+02  0.69956213090E+02  0.00000000000E+00 0.  1.
         23    2    1    2    0    0 -0.33259496084E+02 -0.16703407550E+02 -0.10131523885E+02  0.99488930903E+02  0.91707151807E+02 0.  0.
         23    2    1    2    0    0  0.99220433537E+01  0.32542288647E+02  0.22682886409E+03  0.24865204797E+03  0.96015935558E+02 0.  0.
        -13    1    4    4    0    0 -0.38564806154E+02  0.20281962475E+02  0.57828655248E+02  0.72406875664E+02  0.00000000000E+00 0.  1.
         13    1    4    4    0    0  0.48486849508E+02  0.12260326171E+02  0.16900020884E+03  0.17624517231E+03  0.00000000000E+00 0. -1.
        -13    1    3    3    0    0 -0.56122448287E+02 -0.19374883171E+02 -0.32249850286E+02  0.67566028025E+02  0.00000000000E+00 0.  1.
         13    1    3    3    0    0  0.22862952202E+02  0.26714756210E+01  0.22118326401E+02  0.31922902878E+02  0.00000000000E+00 0. -1.
         21    1    1    2  502  501  0.23337452731E+02 -0.15838881097E+02  0.42732592569E+02  0.51201380080E+02  0.00000000000E+00 0. -1.
<scales pt_clust_5="13000.00000" pt_clust_6="13000.00000" pt_clust_7="13000.00000" pt_clust_8="13000.00000" pt_clust_9="28.20473"></scales>
<clustering>
<clus scale="   28.205">  1  9  2 -1</clus>
<clus scale="   91.707">  7  8 -1 -1</clus>
<clus scale="   96.016">  5  6 -1 -1</clus>
<clus scale="   98.252">  2  7  1 -1</clus>
<clus scale="   28.205">  1  5  2 -1</clus>
</clustering>
</event>
<event>
 9    1  0.9000149E-006  0.9405831E+02  0.7546771E-02  0.1295130E+00
         -1   -1    0    0    0  501 -0.00000000000E+00  0.00000000000E+00  0.25504072467E+03  0.25504072467E+03  0.00000000000E+00 0.  1.
          1   -1    0    0  502    0  0.00000000000E+00 -0.00000000000E+00 -0.83801906471E+02  0.83801906471E+02  0.00000000000E+00 0. -1.
         23    2    1    2    0    0  0.26700654365E+01 -0.15897215172E+02  0.19707768503E+03  0.21696668777E+03  0.89303297617E+02 0.  0.
         23    2    1    2    0    0 -0.22981196158E+02  0.17319541771E+02 -0.12813701529E+02  0.97705300528E+02  0.92488014901E+02 0.  0.
        -11    1    4    4    0    0 -0.27837604243E+02 -0.10831549616E+02 -0.45415634474E+02  0.54358389709E+02  0.00000000000E+00 0. -1.
         11    1    4    4    0    0  0.48564080847E+01  0.28151091387E+02  0.32601932945E+02  0.43346910819E+02  0.00000000000E+00 0.  1.
        -13    1    3    3    0    0  0.41584831481E+02 -0.27540797275E+02  0.10056973443E+03  0.11225892039E+03  0.00000000000E+00 0.  1.
         13    1    3    3    0    0 -0.38914766045E+02  0.11643582104E+02  0.96507950603E+02  0.10470776738E+03  0.00000000000E+00 0. -1.
         21    1    1    2  502  501  0.20311130722E+02 -0.14223265991E+01 -0.13025165304E+02  0.24170642841E+02  0.00000000000E+00 0.  1.
<scales pt_clust_5="13000.00000" pt_clust_6="13000.00000" pt_clust_7="13000.00000" pt_clust_8="13000.00000" pt_clust_9="20.36087"></scales>
<clustering>
<clus scale="   20.361">  2  9  1 -1</clus>
<clus scale="   89.303">  7  8 -1 -1</clus>
<clus scale="   90.929">  1  7  2 -1</clus>
<clus scale="   92.488">  5  6 -1 -1</clus>
<clus scale="   20.361">  2  5  1 -1</clus>
</clustering>
</event>
<event>
 9    1  0.9000149E-006  0.1729916E+03  0.7546771E-02  0.1175116E+00
          1   -1    0    0  502    0  0.00000000000E+00  0.00000000000E+00  0.70948192226E+03  0.70948192226E+03  0.00000000000E+00 0. -1.
         -1   -1    0    0    0  501 -0.00000000000E+00 -0.00000000000E+00 -0.48830619267E+02  0.48830619267E+02  0.00000000000E+00 0.  1.
         23    2    1    2    0    0  0.13781316923E+03  0.73022418277E+02  0.29209436344E+03  0.34386378510E+03  0.92727786367E+02 0.  0.
         23    2    1    2    0    0 -0.11231094633E+03 -0.77140835216E+02  0.30890660674E+03  0.34944501088E+03  0.90133605365E+02 0.  0.
        -11    1    4    4    0    0 -0.12005240389E+03 -0.45884143236E+02  0.26932815964E+03  0.29842183542E+03  0.00000000000E+00 0.  1.
         11    1    4    4    0    0  0.77414575637E+01 -0.31256691980E+02  0.39578447097E+02  0.51023175453E+02  0.00000000000E+00 0. -1.
        -13    1    3    3    0    0  0.53258668233E+02  0.74434559693E+02  0.11005131529E+03  0.14313728171E+03  0.00000000000E+00 0.  1.
         13    1    3    3    0    0  0.84554500999E+02 -0.14121414158E+01  0.18204304815E+03  0.20072650339E+03  0.00000000000E+00 0. -1.
         21    1    1    2  502  501 -0.25502222905E+02  0.41184169393E+01  0.59650332806E+02  0.65003745547E+02  0.00000000000E+00 0. -1.
<scales pt_clust_5="13000.00000" pt_clust_6="13000.00000" pt_clust_7="13000.00000" pt_clust_8="13000.00000" pt_clust_9="25.83263"></scales>
<clustering>
<clus scale="   25.833">  1  9  2 -1</clus>
<clus scale="   90.134">  5  6 -1 -1</clus>
<clus scale="   92.728">  7  8 -1 -1</clus>
<clus scale="  171.615">  1  5  2 -1</clus>
<clus scale="   25.833">  1  5  2 -1</clus>
</clustering>
</event>
<event>
 9    1  0.9000149E-006  0.9189309E+02  0.7546771E-02  0.1299119E+00
          1   -1    0    0  502    0  0.00000000000E+00  0.00000000000E+00  0.53004605558E+03  0.53004605558E+03  0.00000000000E+00 0. -1.
         -1   -1    0    0    0  501 -0.00000000000E+00 -0.00000000000E+00 -0.20605194953E+02  0.20605194953E+02  0.00000000000E+00 0.  1.
         23    2    1    2    0    0  0.19602849336E+02 -0.65506885497E+01  0.21466767860E+03  0.23425203727E+03  0.91458304757E+02 0.  0.
         23    2    1    2    0    0  0.43211510340E+01  0.21483705725E+01  0.22099154194E+03  0.23871093479E+03  0.90124141811E+02 0.  0.
        -11    1    4    4    0    0  0.15946554369E+02 -0.33977762003E+02  0.44641509531E+02  0.58323625403E+02  0.00000000000E+00 0.  1.
         11    1    4    4    0    0 -0.11625403335E+02  0.36126132575E+02  0.17635003241E+03  0.18038730938E+03  0.00000000000E+00 0. -1.
        -13    1    3    3    0    0 -0.35385663563E+02 -0.87992739618E+01  0.61497398858E+02  0.71494772357E+02  0.00000000000E+00 0.  1.
         13    1    3    3    0    0  0.54988512899E+02  0.22485854121E+01  0.15317027974E+03  0.16275726492E+03  0.00000000000E+00 0. -1.
         21    1    1    2  502  501 -0.23924000370E+02  0.44023179772E+01  0.73781640094E+02  0.77688278474E+02  0.00000000000E+00 0. -1.
<scales pt_clust_5="13000.00000" pt_clust_6="13000.00000" pt_clust_7="13000.00000" pt_clust_8="13000.00000" pt_clust_9="24.32567"></scales>
<clustering>
<clus scale="   24.326">  1  9  2 -1</clus>
<clus scale="   90.124">  5  6 -1 -1</clus>
<clus scale="   90.565">  1  5  2 -1</clus>
<clus scale="   91.458">  7  8 -1 -1</clus>
<clus scale="   24.326">  1  5  2 -1</clus>
</clustering>
</event>
<event>
 9    1  0.9000149E-006  0.2177813E+03  0.7546771E-02  0.1138143E+00
         -3   -1    0    0    0  501 -0.00000000000E+00  0.00000000000E+00  0.66599567156E+03  0.66599567156E+03  0.00000000000E+00 0.  1.
          3   -1    0    0  502    0  0.00000000000E+00 -0.00000000000E+00 -0.15992311700E+03  0.15992311700E+03  0.00000000000E+00 0. -1.
         23    2    1    2    0    0 -0.20297611203E+02  0.18145019762E+03  0.52799830463E+03  0.57092016871E+03  0.11760723668E+03 0.  0.
         23    2    1    2    0    0 -0.18914224711E+02 -0.19000632397E+03 -0.31561666270E+02  0.21372361221E+03  0.90672446718E+02 0.  0.
        -13    1    4    4    0    0  0.20217654305E+02 -0.14136757017E+03  0.20564922003E+01  0.14282077090E+03  0.00000000000E+00 0. -1.
         13    1    4    4    0    0 -0.39131879016E+02 -0.48638753799E+02 -0.33618158470E+02  0.70902841307E+02  0.00000000000E+00 0.  1.
        -13    1    3    3    0    0 -0.63584530988E+02  0.14947155682E+03  0.41830615342E+03  0.44873686818E+03  0.00000000000E+00 0.  1.
         13    1    3    3    0    0  0.43286919785E+02  0.31978640797E+02  0.10969215121E+03  0.12218330053E+03  0.00000000000E+00 0. -1.
         21    1    1    2  502  501  0.39211835914E+02  0.85561263489E+01  0.96359162042E+01  0.41275007631E+02  0.00000000000E+00 0. -1.
<scales pt_clust_5="13000.00000" pt_clust_6="13000.00000" pt_clust_7="13000.00000" pt_clust_8="13000.00000" pt_clust_9="40.13447"></scales>
<clustering>
<clus scale="   40.134">  2  9  1 -1</clus>
<clus scale="   90.672">  5  6 -1 -1</clus>
<clus scale="  117.607">  7  8 -1 -1</clus>
<clus scale="  204.496">  2  5  1 -1</clus>
<clus scale="   40.134">  2  5  1 -1</clus>
</clustering>
</event>
<event>
 9    1  0.9000149E-006  0.1060022E+03  0.7546771E-02  0.1269233E+00
         -1   -1    0    0    0  501 -0.00000000000E+00  0.00000000000E+00  0.51458251102E+02  0.51458251102E+02  0.00000000000E+00 0.  1.
          1   -1    0    0  502    0  0.00000000000E+00 -0.00000000000E+00 -0.42746869389E+03  0.42746869389E+03  0.00000000000E+00 0. -1.
         23    2    1    2    0    0  0.42966961823E+02 -0.17524582983E+02 -0.33315029428E+02  0.10688324955E+03  0.90337517297E+02 0.  0.
         23    2    1    2    0    0 -0.34877938237E+02  0.47648875496E+02 -0.30662286842E+03  0.32435581647E+03  0.87762328656E+02 0.  0.
        -11    1    3    3    0    0  0.30315836908E+02 -0.54562674144E+02 -0.20619579239E+02  0.65736614038E+02  0.00000000000E+00 0.  1.
         11    1    3    3    0    0  0.12651124915E+02  0.37038091161E+02 -0.12695450189E+02  0.41146635512E+02  0.00000000000E+00 0. -1.
        -13    1    4    4    0    0 -0.23927798203E+02 -0.21743248233E+02 -0.63074850757E+02  0.70878382942E+02  0.00000000000E+00 0.  1.
         13    1    4    4    0    0 -0.10950140034E+02  0.69392123728E+02 -0.24354801766E+03  0.25347743353E+03  0.00000000000E+00 0. -1.
         21    1    1    2  502  501 -0.80890235859E+01 -0.30124292512E+02 -0.36072544941E+02  0.47687878968E+02  0.00000000000E+00 0. -1.
<scales pt_clust_5="13000.00000" pt_clust_6="13000.00000" pt_clust_7="13000.00000" pt_clust_8="13000.00000" pt_clust_9="31.19143"></scales>
<clustering>
<clus scale="   31.191">  1  9  2 -1</clus>
<clus scale="   87.762">  7  8 -1 -1</clus>
<clus scale="   90.338">  5  6 -1 -1</clus>
<clus scale="  103.816">  2  7  1 -1</clus>
<clus scale="  103.816">  2  5  1 -1</clus>
</clustering>
</event>
<event>
 9    1  0.9000149E-006  0.1798227E+03  0.7546771E-02  0.1168386E+00
         -1   -1    0    0    0  501 -0.00000000000E+00  0.00000000000E+00  0.16651906488E+03  0.16651906488E+03  0.00000000000E+00 0.  1.
          1   -1    0    0  502    0  0.00000000000E+00 -0.00000000000E+00 -0.45091767117E+03  0.45091767117E+03  0.00000000000E+00 0. -1.
         23    2    1    2    0    0  0.13061508106E+03 -0.79414099020E+02  0.52950640085E+02  0.18483445556E+03  0.89404178623E+02 0.  0.
         23    2    1    2    0    0 -0.15312616928E+03  0.49053981869E+02 -0.14218805079E+03  0.23381501211E+03  0.92725946990E+02 0.  0.
        -13    1    3    3    0    0  0.89827162232E+02 -0.13108106156E+02  0.56467784741E+02  0.10690814859E+03  0.00000000000E+00 0.  1.
         13    1    3    3    0    0  0.40787918824E+02 -0.66305992864E+02 -0.35171446563E+01  0.77926306971E+02  0.00000000000E+00 0. -1.
        -13    1    4    4    0    0 -0.49244647274E+02  0.60650518757E+02 -0.40556668126E+02  0.88024792191E+02  0.00000000000E+00 0. -1.
         13    1    4    4    0    0 -0.10388152201E+03 -0.11596536888E+02 -0.10163138267E+03  0.14579021992E+03  0.00000000000E+00 0.  1.
         21    1    1    2  502  501  0.22511088226E+02  0.30360117151E+02 -0.19516119558E+03  0.19878726838E+03  0.00000000000E+00 0.  1.
<scales pt_clust_5="13000.00000" pt_clust_6="13000.00000" pt_clust_7="13000.00000" pt_clust_8="13000.00000" pt_clust_9="37.79531"></scales>
<clustering>
<clus scale="   37.795">  2  9  1 -1</clus>
<clus scale="   89.404">  5  6 -1 -1</clus>
<clus scale="   92.726">  7  8 -1 -1</clus>
<clus scale="  178.133">  1  5  2 -1</clus>
<clus scale="   37.795">  2  5  1 -1</clus>
</clustering>
</event>
<event>
 9    1  0.9000149E-006  0.9898363E+02  0.7546771E-02  0.1282921E+00
         -2   -1    0    0    0  501 -0.00000000000E+00  0.00000000000E+00  0.12750524879E+03  0.12750524879E+03  0.00000000000E+00 0.  1.
          2   -1    0    0  502    0  0.00000000000E+00 -0.00000000000E+00 -0.96622473026E+02  0.96622473026E+02  0.00000000000E+00 0. -1.
         23    2    1    2    0    0 -0.17690407379E+02 -0.28731250742E+02  0.19642494604E+02  0.99689516828E+02  0.91726424158E+02 0.  0.
         23    2    1    2    0    0  0.37758778837E+02  0.19737107799E+02  0.12432621555E+01  0.10028091770E+03  0.90771349830E+02 0.  0.
        -13    1    3    3    0    0  0.35169956199E+02 -0.26815800976E+02  0.14509022654E+02  0.46545942244E+02  0.00000000000E+00 0.  1.
         13    1    3    3    0    0 -0.52860363577E+02 -0.19154497659E+01  0.51334719498E+01  0.53143574584E+02  0.00000000000E+00 0. -1.
        -13    1    4    4    0    0  0.47461803387E+02 -0.18789089423E+02 -0.20479694790E+02  0.55000641458E+02  0.00000000000E+00 0.  1.
         13    1    4    4    0    0 -0.97030245506E+01  0.38526197222E+02  0.21722956946E+02  0.45280276239E+02  0.00000000000E+00 0. -1.
         21    1    1    2  502  501 -0.20068371458E+02  0.89941429426E+01  0.99970190050E+01  0.24157287290E+02  0.00000000000E+00 0. -1.
<scales pt_clust_5="13000.00000" pt_clust_6="13000.00000" pt_clust_7="13000.00000" pt_clust_8="13000.00000" pt_clust_9="21.99168"></scales>
<clustering>
<clus scale="   21.992">  1  9  2 -1</clus>
<clus scale="   90.771">  7  8 -1 -1</clus>
<clus scale="   91.726">  5  6 -1 -1</clus>
<clus scale="   98.099">  2  7  1 -1</clus>
<clus scale="   98.099">  2  5  1 -1</clus>
</clustering>
</event>
<event>
 9    1  0.9000149E-006  0.9353732E+02  0.7546771E-02  0.1302454E+00
          3   -1    0    0  502    0  0.00000000000E+00  0.00000000000E+00  0.37757701703E+02  0.37757701703E+02  0.00000000000E+00 0. -1.
         -3   -1    0    0    0  501 -0.00000000000E+00 -0.00000000000E+00 -0.26978512138E+03  0.26978512138E+03  0.00000000000E+00 0.  1.
         23    2    1    2    0    0 -0.41389919748E+01 -0.23306680376E+02 -0.97727445665E+02  0.12696607680E+03  0.77520309708E+02 0.  0.
         23    2    1    2    0    0  0.25866509486E+02  0.11087333738E+02 -0.11415524003E+03  0.14852666427E+03  0.90756519832E+02 0.  0.
        -11    1    3    3    0    0 -0.28356671605E+01 -0.44144124806E+02 -0.23973004223E+02  0.50313514036E+02  0.00000000000E+00 0. -1.
         11    1    3    3    0    0 -0.13033248143E+01  0.20837444430E+02 -0.73754441442E+02  0.76652562765E+02  0.00000000000E+00 0.  1.
        -13    1    4    4    0    0  0.54951386210E+02 -0.75437222670E+01 -0.45767659865E+02  0.71911343205E+02  0.00000000000E+00 0.  1.
         13    1    4    4    0    0 -0.29084876724E+02  0.18631056005E+02 -0.68387580160E+02  0.76615321066E+02  0.00000000000E+00 0. -1.
         21    1    1    2  502  501 -0.21727517512E+02  0.12219346638E+02 -0.20144733987E+02  0.32050082010E+02  0.00000000000E+00 0. -1.
<scales pt_clust_5="13000.00000" pt_clust_6="13000.00000" pt_clust_7="13000.00000" pt_clust_8="13000.00000" pt_clust_9="24.92784"></scales>
<clustering>
<clus scale="   24.928">  1  9  2 -1</clus>
<clus scale="   77.520">  5  6 -1 -1</clus>
<clus scale="   80.758">  2  5  1 -1</clus>
<clus scale="   90.757">  7  8 -1 -1</clus>
<clus scale="   24.928">  1  5  2 -1</clus>
</clustering>
</event>
<event>
 9    1  0.9000149E-006  0.9839038E+02  0.7546771E-02  0.1289792E+00
          1   -1    0    0  502    0  0.00000000000E+00  0.00000000000E+00  0.61585039853E+02  0.61585039853E+02  0.00000000000E+00 0. -1.
         -1   -1    0    0    0  501 -0.00000000000E+00 -0.00000000000E+00 -0.29729317693E+03  0.29729317693E+03  0.00000000000E+00 0.  1.
         23    2    1    2    0    0  0.17460184866E+02  0.17144326798E+02 -0.18541678417E+03  0.20875807839E+03  0.92745703106E+02 0.  0.
         23    2    1    2    0    0 -0.21102615343E+02 -0.50546757277E+02 -0.60193054572E+02  0.11509110248E+03  0.81378516858E+02 0.  0.
        -11    1    4    4    0    0 -0.25593143833E+02 -0.19049604092E+01 -0.61060673140E+02  0.66234761944E+02  0.00000000000E+00 0.  1.
         11    1    4    4    0    0  0.44905284904E+01 -0.48641796868E+02  0.86761856839E+00  0.48856340536E+02  0.00000000000E+00 0. -1.
        -13    1    3    3    0    0  0.50947185307E+02 -0.88034292535E+01 -0.81234896849E+02  0.96292390787E+02  0.00000000000E+00 0. -1.
         13    1    3    3    0    0 -0.33487000441E+02  0.25947756051E+02 -0.10418188732E+03  0.11246568760E+03  0.00000000000E+00 0.  1.
         21    1    1    2  502  501  0.36424304763E+01  0.33402430479E+02  0.99017016574E+01  0.35029035919E+02  0.00000000000E+00 0. -1.
<scales pt_clust_5="13000.00000" pt_clust_6="13000.00000" pt_clust_7="13000.00000" pt_clust_8="13000.00000" pt_clust_9="33.60044"></scales>
<clustering>
<clus scale="   33.600">  1  9  2 -1</clus>
<clus scale="   81.379">  5  6 -1 -1</clus>
<clus scale="   87.757">  1  5  2 -1</clus>
<clus scale="   92.746">  7  8 -1 -1</clus>
<clus scale="   33.600">  1  5  2 -1</clus>
</clustering>
</event>
<event>
 9    1  0.9000149E-006  0.1138340E+03  0.7546771E-02  0.1254306E+00
         -2   -1    0    0    0  501 -0.00000000000E+00  0.00000000000E+00  0.13142478979E+03  0.13142478979E+03  0.00000000000E+00 0.  1.
          2   -1    0    0  502    0  0.00000000000E+00 -0.00000000000E+00 -0.21772175430E+03  0.21772175430E+03  0.00000000000E+00 0. -1.
         23    2    1    2    0    0  0.59666181448E+02 -0.41468259867E+02  0.77720044161E+02  0.14032480679E+03  0.91493039901E+02 0.  0.
         23    2    1    2    0    0 -0.35045025555E+02  0.30918156111E+02 -0.11604268036E+03  0.15387592597E+03  0.89598050946E+02 0.  0.
        -11    1    3    3    0    0 -0.20438180210E+01 -0.34975288771E+02  0.69369609493E+02  0.77714803853E+02  0.00000000000E+00 0.  1.
         11    1    3    3    0    0  0.61709999469E+02 -0.64929710959E+01  0.83504346675E+01  0.62610002933E+02  0.00000000000E+00 0. -1.
        -13    1    4    4    0    0 -0.58844078206E+02  0.21848214124E+02 -0.11157345784E+03  0.12801799286E+03  0.00000000000E+00 0. -1.
         13    1    4    4    0    0  0.23799052652E+02  0.90699419867E+01 -0.44692225187E+01  0.25857933109E+02  0.00000000000E+00 0.  1.
         21    1    1    2  502  501 -0.24621155894E+02  0.10550103756E+02 -0.47974328308E+02  0.54945811336E+02  0.00000000000E+00 0. -1.
<scales pt_clust_5="13000.00000" pt_clust_6="13000.00000" pt_clust_7="13000.00000" pt_clust_8="13000.00000" pt_clust_9="26.78630"></scales>
<clustering>
<clus scale="   26.786">  2  9  1 -1</clus>
<clus scale="   89.598">  7  8 -1 -1</clus>
<clus scale="   91.493">  5  6 -1 -1</clus>
<clus scale="  112.317">  2  7  1 -1</clus>
<clus scale="   26.786">  2  5  1 -1</clus>
</clustering>
</event>
<event>
 9    1  0.9000149E-006  0.1149910E+03  0.7546771E-02  0.1255805E+00
         -1   -1    0    0    0  501 -0.00000000000E+00  0.00000000000E+00  0.39674833868E+02  0.39674833868E+02  0.00000000000E+00 0.  1.
          1   -1    0    0  502    0  0.00000000000E+00 -0.00000000000E+00 -0.41415079262E+03  0.41415079262E+03  0.00000000000E+00 0. -1.
         23    2    1    2    0    0  0.61991046035E+02 -0.50401990953E+00 -0.16365552394E+03  0.19699983254E+03  0.90458054828E+02 0.  0.
         23    2    1    2    0    0 -0.44612036663E+02 -0.26215940751E+02 -0.17748445655E+03  0.21070341639E+03  0.10108258008E+03 0.  0.
        -11    1    4    4    0    0 -0.17399922697E+02 -0.64212056870E+02 -0.11162666475E+03  0.12994790433E+03  0.00000000000E+00 0. -1.
         11    1    4    4    0    0 -0.27212113966E+02  0.37996116119E+02 -0.65857791798E+02  0.80755512054E+02  0.00000000000E+00 0.  1.
        -13    1    3    3    0    0  0.14064519767E+02 -0.35720018245E+02 -0.11140555282E+03  0.11783432275E+03  0.00000000000E+00 0. -1.
         13    1    3    3    0    0  0.47926526268E+02  0.35215998336E+02 -0.52249971117E+02  0.79165509792E+02  0.00000000000E+00 0.  1.
         21    1    1    2  502  501 -0.17379009372E+02  0.26719960661E+02 -0.33335978270E+02  0.46122377558E+02  0.00000000000E+00 0.  1.
<scales pt_clust_5="13000.00000" pt_clust_6="13000.00000" pt_clust_7="13000.00000" pt_clust_8="13000.00000" pt_clust_9="31.87454"></scales>
<clustering>
<clus scale="   31.875">  1  9  2 -1</clus>
<clus scale="   90.458">  7  8 -1 -1</clus>
<clus scale="  101.083">  5  6 -1 -1</clus>
<clus scale="  105.773">  1  7  2 -1</clus>
<clus scale="  114.991">  2  5  1 -1</clus>
</clustering>
</event>
<event>
 9    1  0.9000149E-006  0.1083534E+03  0.7546771E-02  0.1268186E+00
          1   -1    0    0  502    0  0.00000000000E+00  0.00000000000E+00  0.41837482490E+03  0.41837482490E+03  0.00000000000E+00 0. -1.
         -1   -1    0    0    0  501 -0.00000000000E+00 -0.00000000000E+00 -0.42143258101E+02  0.42143258101E+02  0.00000000000E+00 0.  1.
         23    2    1    2    0    0 -0.45245274150E+02 -0.33874650511E+02  0.75212106427E+02  0.13044556527E+03  0.90357942463E+02 0.  0.
         23    2    1    2    0    0  0.68946834157E+02  0.18932487229E+02  0.25138331532E+03  0.27307445560E+03  0.79145322469E+02 0.  0.
        -11    1    3    3    0    0 -0.26262196898E+02 -0.16897000419E+02 -0.16460596364E+02  0.35301031738E+02  0.00000000000E+00 0.  1.
         11    1    3    3    0    0 -0.18983077252E+02 -0.16977650092E+02  0.91672702792E+02  0.95144533536E+02  0.00000000000E+00 0. -1.
        -13    1    4    4    0    0  0.43941544805E+02 -0.28962388916E+02  0.12477060436E+03  0.13541559380E+03  0.00000000000E+00 0.  1.
         13    1    4    4    0    0  0.25005289352E+02  0.47894876145E+02  0.12661271096E+03  0.13765886181E+03  0.00000000000E+00 0. -1.
         21    1    1    2  502  501 -0.23701560008E+02  0.14942163282E+02  0.49636145052E+02  0.56998062124E+02  0.00000000000E+00 0.  1.
<scales pt_clust_5="13000.00000" pt_clust_6="13000.00000" pt_clust_7="13000.00000" pt_clust_8="13000.00000" pt_clust_9="28.01843"></scales>
<clustering>
<clus scale="   28.018">  1  9  2 -1</clus>
<clus scale="   79.145">  7  8 -1 -1</clus>
<clus scale="   90.358">  5  6 -1 -1</clus>
<clus scale="   99.196">  1  7  2 -1</clus>
<clus scale="   28.018">  1  5  2 -1</clus>
</clustering>
</event>
<event>
 9    1  0.9000149E-006  0.9254296E+02  0.7546771E-02  0.1297929E+00
          1   -1    0    0  502    0  0.00000000000E+00  0.00000000000E+00  0.11471096037E+03  0.11471096037E+03  0.00000000000E+00 0. -1.
         -1   -1    0    0    0  501 -0.00000000000E+00 -0.00000000000E+00 -0.20142633168E+03  0.20142633168E+03  0.00000000000E+00 0.  1.
         23    2    1    2    0    0 -0.17108166411E+02 -0.80522312106E+01 -0.13136871738E+03  0.16131572456E+03  0.91692394980E+02 0.  0.
         23    2    1    2    0    0 -0.57020914702E+01 -0.36201877298E+02  0.18983392851E+02  0.98806565189E+02  0.89773483576E+02 0.  0.
        -11    1    3    3    0    0  0.18455875332E+02 -0.24898375186E+02 -0.82659332812E+01  0.32076067000E+02  0.00000000000E+00 0.  1.
         11    1    3    3    0    0 -0.35564041743E+02  0.16846143975E+02 -0.12310278410E+03  0.12923965756E+03  0.00000000000E+00 0. -1.
        -13    1    4    4    0    0 -0.28004817611E+02 -0.57301075704E+02  0.21984913815E+01  0.63816271049E+02  0.00000000000E+00 0. -1.
         13    1    4    4    0    0  0.22302726141E+02  0.21099198406E+02  0.16784901470E+02  0.34990294141E+02  0.00000000000E+00 0.  1.
         21    1    1    2  502  501  0.22810257881E+02  0.44254108508E+02  0.25669953225E+02  0.56015002303E+02  0.00000000000E+00 0.  1.
<scales pt_clust_5="13000.00000" pt_clust_6="13000.00000" pt_clust_7="13000.00000" pt_clust_8="13000.00000" pt_clust_9="49.78689"></scales>
<clustering>
<clus scale="   49.787">  1  9  2 -1</clus>
<clus scale="   89.773">  7  8 -1 -1</clus>
<clus scale="   90.642">  1  7  2 -1</clus>
<clus scale="   91.692">  5  6 -1 -1</clus>
<clus scale="   49.787">  1  5  2 -1</clus>
</clustering>
</event>
<event>
 9    1  0.9000149E-006  0.1013406E+03  0.7546771E-02  0.1278930E+00
          3   -1    0    0  502    0  0.00000000000E+00  0.00000000000E+00  0.67175174619E+02  0.67175174619E+02  0.00000000000E+00 0. -1.
         -3   -1    0    0    0  501 -0.00000000000E+00 -0.00000000000E+00 -0.23982224378E+03  0.23982224378E+03  0.00000000000E+00 0.  1.
         23    2    1    2    0    0 -0.19230249685E+02  0.27789666324E+02 -0.14846339149E+03  0.17947303942E+03  0.95011184648E+02 0.  0.
         23    2    1    2    0    0  0.39884779164E+02 -0.17435914216E+02 -0.22734143878E+02  0.10437462911E+03  0.92100028176E+02 0.  0.
        -11    1    3    3    0    0 -0.32671344452E+02  0.58641657539E+02 -0.95915927043E+02  0.11707316434E+03  0.00000000000E+00 0. -1.
         11    1    3    3    0    0  0.13441094767E+02 -0.30851991215E+02 -0.52547464451E+02  0.62399875085E+02  0.00000000000E+00 0.  1.
        -11    1    4    4    0    0  0.37860970601E+02 -0.51857651985E+02 -0.26954168663E+02  0.69636171438E+02  0.00000000000E+00 0.  1.
         11    1    4    4    0    0  0.20238085633E+01  0.34421737768E+02  0.42200247850E+01  0.34738457670E+02  0.00000000000E+00 0. -1.
         21    1    1    2  502  501 -0.20654529479E+02 -0.10353752108E+02 -0.14495337869E+01  0.23149749868E+02  0.00000000000E+00 0. -1.
<scales pt_clust_5="13000.00000" pt_clust_6="13000.00000" pt_clust_7="13000.00000" pt_clust_8="13000.00000" pt_clust_9="23.10432"></scales>
<clustering>
<clus scale="   23.104">  1  9  2 -1</clus>
<clus scale="   92.100">  7  8 -1 -1</clus>
<clus scale="   95.011">  5  6 -1 -1</clus>
<clus scale="   98.616">  1  7  2 -1</clus>
<clus scale="   23.104">  1  5  2 -1</clus>
</clustering>
</event>
<event>
 9    1  0.9000149E-006  0.9893510E+02  0.7546771E-02  0.1283865E+00
         -1   -1    0    0    0  501 -0.00000000000E+00  0.00000000000E+00  0.35476644896E+02  0.35476644896E+02  0.00000000000E+00 0.  1.
          1   -1    0    0  502    0  0.00000000000E+00 -0.00000000000E+00 -0.43746910602E+03  0.43746910602E+03  0.00000000000E+00 0. -1.
         23    2    1    2    0    0  0.34868478037E+02 -0.33677609306E+02 -0.10192148123E+03  0.14605926132E+03  0.92710988300E+02 0.  0.
         23    2    1    2    0    0 -0.88736632796E+01  0.46324980750E+01 -0.21215591835E+03  0.23071785164E+03  0.90113214542E+02 0.  0.
        -11    1    4    4    0    0  0.92595071176E+01 -0.35843348484E+02 -0.14909256071E+03  0.15361990678E+03  0.00000000000E+00 0.  1.
         11    1    4    4    0    0 -0.18133170397E+02  0.40475846559E+02 -0.63063357646E+02  0.77097944856E+02  0.00000000000E+00 0. -1.
        -13    1    3    3    0    0  0.38988553638E+02 -0.61586916334E+02 -0.88971310289E+02  0.11501717103E+03  0.00000000000E+00 0.  1.
         13    1    3    3    0    0 -0.41200756009E+01  0.27909307028E+02 -0.12950170939E+02  0.31042090282E+02  0.00000000000E+00 0. -1.
         21    1    1    2  502  501 -0.25994814758E+02  0.29045111231E+02 -0.87915061549E+02  0.96168637964E+02  0.00000000000E+00 0. -1.
<scales pt_clust_5="13000.00000" pt_clust_6="13000.00000" pt_clust_7="13000.00000" pt_clust_8="13000.00000" pt_clust_9="38.97883"></scales>
<clustering>
<clus scale="   38.979">  2  9  1 -1</clus>
<clus scale="   90.113">  5  6 -1 -1</clus>
<clus scale="   92.711">  7  8 -1 -1</clus>
<clus scale="   96.505">  2  5  1 -1</clus>
<clus scale="   38.979">  2  5  1 -1</clus>
</clustering>
</event>
<event>
 9    1  0.9000149E-006  0.9824049E+02  0.7546771E-02  0.1284758E+00
          1   -1    0    0  502    0  0.00000000000E+00  0.00000000000E+00  0.56459519822E+02  0.56459519822E+02  0.00000000000E+00 0. -1.
         -1   -1    0    0    0  501 -0.00000000000E+00 -0.00000000000E+00 -0.24523903194E+03  0.24523903194E+03  0.00000000000E+00 0.  1.
         23    2    1    2    0    0  0.22642986325E+01 -0.31374685239E+02 -0.98418112247E+02  0.13688055479E+03  0.89781198145E+02 0.  0.
         23    2    1    2    0    0  0.27482646766E+02  0.39201712552E+02 -0.85091661500E+02  0.13361041360E+03  0.91208999699E+02 0.  0.
        -11    1    4    4    0    0  0.41356830552E+02  0.62510400989E+02 -0.54179276345E+02  0.92484223792E+02  0.00000000000E+00 0. -1.
         11    1    4    4    0    0 -0.13874183786E+02 -0.23308688438E+02 -0.30912385155E+02  0.41126189811E+02  0.00000000000E+00 0.  1.
        -13    1    3    3    0    0 -0.11621032720E+02 -0.57003707669E+02 -0.37133744386E+02  0.69017288135E+02  0.00000000000E+00 0.  1.
         13    1    3    3    0    0  0.13885331353E+02  0.25629022430E+02 -0.61284367861E+02  0.67863266659E+02  0.00000000000E+00 0. -1.
         21    1    1    2  502  501 -0.29746945399E+02 -0.78270273128E+01 -0.52697383735E+01  0.31207583367E+02  0.00000000000E+00 0.  1.
<scales pt_clust_5="13000.00000" pt_clust_6="13000.00000" pt_clust_7="13000.00000" pt_clust_8="13000.00000" pt_clust_9="30.75944"></scales>
<clustering>
<clus scale="   30.759">  1  9  2 -1</clus>
<clus scale="   89.781">  7  8 -1 -1</clus>
<clus scale="   91.209">  5  6 -1 -1</clus>
<clus scale="   96.916">  2  7  1 -1</clus>
<clus scale="   30.759">  1  5  2 -1</clus>
</clustering>
</event>
<event>
 9    1  0.9000149E-006  0.9834544E+02  0.7546771E-02  0.1286356E+00
          2   -1    0    0  502    0  0.00000000000E+00  0.00000000000E+00  0.45493541798E+03  0.45493541798E+03  0.00000000000E+00 0. -1.
         -2   -1    0    0    0  501 -0.00000000000E+00 -0.00000000000E+00 -0.37495217617E+02  0.37495217617E+02  0.00000000000E+00 0.  1.
         23    2    1    2    0    0 -0.18367692553E+02  0.23886849625E+02  0.60466149883E+02  0.11669730743E+03  0.95153310846E+02 0.  0.
         23    2    1    2    0    0 -0.28678211049E+01 -0.10234256580E+02  0.29790582868E+03  0.31149630486E+03  0.90383077908E+02 0.  0.
        -11    1    4    4    0    0  0.21131842393E+02 -0.41123759918E+02  0.21375304238E+03  0.21869632260E+03  0.00000000000E+00 0. -1.
         11    1    4    4    0    0 -0.23999663498E+02  0.30889503338E+02  0.84152786303E+02  0.92799982258E+02  0.00000000000E+00 0.  1.
        -13    1    3    3    0    0  0.36505038627E+02 -0.33005169385E+01  0.33961747441E+02  0.49969105920E+02  0.00000000000E+00 0. -1.
         13    1    3    3    0    0 -0.54872731181E+02  0.27187366563E+02  0.26504402442E+02  0.66728201509E+02  0.00000000000E+00 0.  1.
         21    1    1    2  502  501  0.21235513658E+02 -0.13652593045E+02  0.59068221799E+02  0.64237023310E+02  0.00000000000E+00 0. -1.
<scales pt_clust_5="13000.00000" pt_clust_6="13000.00000" pt_clust_7="13000.00000" pt_clust_8="13000.00000" pt_clust_9="25.24560"></scales>
<clustering>
<clus scale="   25.246">  1  9  2 -1</clus>
<clus scale="   90.383">  5  6 -1 -1</clus>
<clus scale="   93.738">  1  5  2 -1</clus>
<clus scale="   95.153">  7  8 -1 -1</clus>
<clus scale="   25.246">  1  5  2 -1</clus>
</clustering>
</event>
<event>
 9    1  0.9000149E-006  0.1200176E+03  0.7546771E-02  0.1243106E+00
         -1   -1    0    0    0  501 -0.00000000000E+00  0.00000000000E+00  0.21744687188E+03  0.21744687188E+03  0.00000000000E+00 0.  1.
          1   -1    0    0  502    0  0.00000000000E+00 -0.00000000000E+00 -0.97046367619E+02  0.97046367619E+02  0.00000000000E+00 0. -1.
         23    2    1    2    0    0 -0.35835840336E+02  0.69289113299E+02  0.76040558529E+02  0.14323530010E+03  0.92999978384E+02 0.  0.
         23    2    1    2    0    0  0.59007769720E+02 -0.49060513270E+02  0.62314284411E+02  0.13564203217E+03  0.92880783800E+02 0.  0.
        -11    1    4    4    0    0  0.70770735854E+02 -0.67048930669E+02  0.42288896121E+02  0.10626573715E+03  0.00000000000E+00 0. -1.
         11    1    4    4    0    0 -0.11762966134E+02  0.17988417399E+02  0.20025388290E+02  0.29376295017E+02  0.00000000000E+00 0.  1.
        -13    1    3    3    0    0 -0.58491141526E+02  0.19568660280E+02  0.60576712268E+02  0.86450472361E+02  0.00000000000E+00 0.  1.
         13    1    3    3    0    0  0.22655301190E+02  0.49720453019E+02  0.15463846261E+02  0.56784827741E+02  0.00000000000E+00 0. -1.
         21    1    1    2  502  501 -0.23171929384E+02 -0.20228600029E+02 -0.17954338677E+02  0.35615907230E+02  0.00000000000E+00 0. -1.
<scales pt_clust_5="13000.00000" pt_clust_6="13000.00000" pt_clust_7="13000.00000" pt_clust_8="13000.00000" pt_clust_9="30.75930"></scales>
<clustering>
<clus scale="   30.759">  2  9  1 -1</clus>
<clus scale="   92.881">  5  6 -1 -1</clus>
<clus scale="   93.000">  7  8 -1 -1</clus>
<clus scale="  119.925">  2  5  1 -1</clus>
<clus scale="   30.759">  2  5  1 -1</clus>
</clustering>
</event>
<event>
 9    1  0.9000149E-006  0.1094260E+03  0.7546771E-02  0.1267066E+00
          1   -1    0    0  502    0  0.00000000000E+00  0.00000000000E+00  0.75980610196E+03  0.75980610196E+03  0.00000000000E+00 0. -1.
         -1   -1    0    0    0  501 -0.00000000000E+00 -0.00000000000E+00 -0.35070624582E+02  0.35070624582E+02  0.00000000000E+00 0.  1.
         23    2    1    2    0    0  0.10814247258E+02  0.68558064131E+02  0.18219517046E+03  0.21677858742E+03  0.94766659357E+02 0.  0.
         23    2    1    2    0    0 -0.61906282323E+02 -0.13379861261E+02  0.17803918563E+03  0.20592063101E+03  0.81816539759E+02 0.  0.
        -11    1    4    4    0    0  0.14900678865E+02  0.15414844994E+02  0.37053021327E+02  0.42808574682E+02  0.00000000000E+00 0. -1.
         11    1    4    4    0    0 -0.76806961188E+02 -0.28794706255E+02  0.14098616430E+03  0.16311205633E+03  0.00000000000E+00 0.  1.
        -13    1    3    3    0    0 -0.20814029955E+02  0.46313262070E+02  0.16813417855E+03  0.17563383525E+03  0.00000000000E+00 0.  1.
         13    1    3    3    0    0  0.31628277213E+02  0.22244802060E+02  0.14060991906E+02  0.41144752175E+02  0.00000000000E+00 0. -1.
         21    1    1    2  502  501  0.51092035065E+02 -0.55178202870E+02  0.36450112129E+03  0.37217750811E+03  0.00000000000E+00 0. -1.
<scales pt_clust_5="13000.00000" pt_clust_6="13000.00000" pt_clust_7="13000.00000" pt_clust_8="13000.00000" pt_clust_9="75.19993"></scales>
<clustering>
<clus scale="   75.200">  1  9  2 -1</clus>
<clus scale="   81.817">  5  6 -1 -1</clus>
<clus scale="   94.767">  7  8 -1 -1</clus>
<clus scale="   98.424">  1  5  2 -1</clus>
<clus scale="   75.200">  1  5  2 -1</clus>
</clustering>
</event>
<event>
 9    1  0.9000149E-006  0.1409815E+03  0.7546771E-02  0.1212131E+00
          2   -1    0    0  502    0  0.00000000000E+00  0.00000000000E+00  0.12842613161E+04  0.12842613161E+04  0.00000000000E+00 0. -1.
         -2   -1    0    0    0  501 -0.00000000000E+00 -0.00000000000E+00 -0.76774336920E+02  0.76774336920E+02  0.00000000000E+00 0.  1.
         23    2    1    2    0    0  0.42094253464E+02 -0.93755658725E+02  0.17697370843E+02  0.13787748898E+03  0.90193987139E+02 0.  0.
         23    2    1    2    0    0 -0.48764403543E+01  0.16193592929E+03  0.59032136533E+03  0.61867831385E+03  0.89646621775E+02 0.  0.
        -11    1    4    4    0    0 -0.40345350637E+02  0.39915922920E+02  0.14959402293E+03  0.15999812473E+03  0.00000000000E+00 0.  1.
         11    1    4    4    0    0  0.35468910282E+02  0.12202000637E+03  0.44072734240E+03  0.45868018912E+03  0.00000000000E+00 0. -1.
        -11    1    3    3    0    0  0.10925409217E+02 -0.10342689323E+03  0.11216779463E+02  0.10460546330E+03  0.00000000000E+00 0.  1.
         11    1    3    3    0    0  0.31168844247E+02  0.96712345075E+01  0.64805913801E+01  0.33272025685E+02  0.00000000000E+00 0. -1.
         21    1    1    2  502  501 -0.37217813109E+02 -0.68180270570E+02  0.59946824304E+03  0.60447985022E+03  0.00000000000E+00 0.  1.
<scales pt_clust_5="13000.00000" pt_clust_6="13000.00000" pt_clust_7="13000.00000" pt_clust_8="13000.00000" pt_clust_9="77.67699"></scales>
<clustering>
<clus scale="   77.677">  1  9  2 -1</clus>
<clus scale="   89.647">  5  6 -1 -1</clus>
<clus scale="   90.194">  7  8 -1 -1</clus>
<clus scale="  140.632">  1  5  2 -1</clus>
<clus scale="   77.677">  1  5  2 -1</clus>
</clustering>
</event>
<event>
 9    1  0.9000149E-006  0.1273327E+03  0.7546771E-02  0.1233381E+00
         -1   -1    0    0    0  501 -0.00000000000E+00  0.00000000000E+00  0.28789004753E+03  0.28789004753E+03  0.00000000000E+00 0.  1.
          1   -1    0    0  502    0  0.00000000000E+00 -0.00000000000E+00 -0.17736073428E+03  0.17736073428E+03  0.00000000000E+00 0. -1.
         23    2    1    2    0    0  0.90096614661E+02 -0.66807986620E+01  0.23336055893E+03  0.26663716479E+03  0.92066248644E+02 0.  0.
         23    2    1    2    0    0 -0.72483910639E+02  0.26242613222E+02 -0.58057529461E+02  0.12869576348E+03  0.85143001825E+02 0.  0.
        -13    1    3    3    0    0  0.39957134297E+02  0.68492364781E+01  0.16709222594E+02  0.43848406371E+02  0.00000000000E+00 0. -1.
         13    1    3    3    0    0  0.50139480363E+02 -0.13530035140E+02  0.21665133633E+03  0.22278875842E+03  0.00000000000E+00 0.  1.
        -13    1    4    4    0    0 -0.85305337868E+01  0.38145639890E+02 -0.49517421736E+02  0.63085932700E+02  0.00000000000E+00 0.  1.
         13    1    4    4    0    0 -0.63953376853E+02 -0.11903026668E+02 -0.85401077249E+01  0.65609830777E+02  0.00000000000E+00 0. -1.
         21    1    1    2  502  501 -0.17612704021E+02 -0.19561814560E+02 -0.64773716220E+02  0.69917853548E+02  0.00000000000E+00 0.  1.
<scales pt_clust_5="13000.00000" pt_clust_6="13000.00000" pt_clust_7="13000.00000" pt_clust_8="13000.00000" pt_clust_9="26.32246"></scales>
<clustering>
<clus scale="   26.322">  2  9  1 -1</clus>
<clus scale="   85.143">  7  8 -1 -1</clus>
<clus scale="   92.066">  5  6 -1 -1</clus>
<clus scale="  122.420">  2  7  1 -1</clus>
<clus scale="   26.322">  2  5  1 -1</clus>
</clustering>
</event>
<event>
 9    1  0.9000149E-006  0.1299605E+03  0.7546771E-02  0.1235065E+00
         -1   -1    0    0    0  501 -0.00000000000E+00  0.00000000000E+00  0.10186368925E+03  0.10186368925E+03  0.00000000000E+00 0.  1.
          1   -1    0    0  502    0  0.00000000000E+00 -0.00000000000E+00 -0.92275749286E+03  0.92275749286E+03  0.00000000000E+00 0. -1.
         23    2    1    2    0    0  0.73629376896E+02  0.58998486671E+02 -0.13181928632E+02  0.13307590398E+03  0.92915695148E+02 0.  0.
         23    2    1    2    0    0  0.29133726164E+02 -0.43592112473E+02 -0.65485421702E+02  0.14208032254E+03  0.11467096985E+03 0.  0.
        -11    1    4    4    0    0 -0.38711504546E+02  0.68566591110E+01 -0.87911528830E+01  0.40284969001E+02  0.00000000000E+00 0. -1.
         11    1    4    4    0    0  0.67845230710E+02 -0.50448771584E+02 -0.56694268819E+02  0.10179535354E+03  0.00000000000E+00 0.  1.
        -13    1    3    3    0    0  0.25545671036E+02  0.72806479687E+02 -0.26021001443E+02  0.81427620064E+02  0.00000000000E+00 0. -1.
         13    1    3    3    0    0  0.48083705860E+02 -0.13807993017E+02  0.12839072811E+02  0.51648283912E+02  0.00000000000E+00 0.  1.
         21    1    1    2  502  501 -0.10276310306E+03 -0.15406374198E+02 -0.74222645328E+03  0.74946495559E+03  0.00000000000E+00 0. -1.
<scales pt_clust_5="13000.00000" pt_clust_6="13000.00000" pt_clust_7="13000.00000" pt_clust_8="13000.00000" pt_clust_9="103.91156"></scales>
<clustering>
<clus scale="   92.916">  7  8 -1 -1</clus>
<clus scale="  103.912">  2  9  1 -1</clus>
<clus scale="  111.237">  1  7  2 -1</clus>
<clus scale="  114.671">  5  6 -1 -1</clus>
<clus scale="  103.912">  2  5  1 -1</clus>
</clustering>
</event>
<event>
 9    1  0.9000149E-006  0.1434043E+03  0.7546771E-02  0.1209121E+00
          1   -1    0    0  502    0  0.00000000000E+00  0.00000000000E+00  0.53564374642E+03  0.53564374642E+03  0.00000000000E+00 0. -1.
         -1   -1    0    0    0  501 -0.00000000000E+00 -0.00000000000E+00 -0.62041295117E+02  0.62041295117E+02  0.00000000000E+00 0.  1.
         23    2    1    2    0    0  0.14084592155E+03 -0.11641532860E+02  0.22692769691E+03  0.28230268043E+03  0.90694679250E+02 0.  0.
         23    2    1    2    0    0 -0.92027282075E+02  0.12075918626E+02  0.23037440303E+03  0.26391246986E+03  0.89233276975E+02 0.  0.
        -11    1    4    4    0    0 -0.54735707573E+02 -0.37715624039E+02  0.11453993813E+03  0.13243059846E+03  0.00000000000E+00 0.  1.
         11    1    4    4    0    0 -0.37291574503E+02  0.49791542665E+02  0.11583446490E+03  0.13148187140E+03  0.00000000000E+00 0. -1.
        -13    1    3    3    0    0  0.22720780330E+02 -0.36901949290E+02  0.88774670550E+02  0.98787296002E+02  0.00000000000E+00 0. -1.
         13    1    3    3    0    0  0.11812514122E+03  0.25260416430E+02  0.13815302636E+03  0.18351538442E+03  0.00000000000E+00 0.  1.
         21    1    1    2  502  501 -0.48818639475E+02 -0.43438576640E+00  0.16300351365E+02  0.51469891255E+02  0.00000000000E+00 0. -1.
<scales pt_clust_5="13000.00000" pt_clust_6="13000.00000" pt_clust_7="13000.00000" pt_clust_8="13000.00000" pt_clust_9="48.82057"></scales>
<clustering>
<clus scale="   48.821">  2  9  1 -1</clus>
<clus scale="   89.233">  5  6 -1 -1</clus>
<clus scale="   90.695">  7  8 -1 -1</clus>
<clus scale="  142.485">  1  5  2 -1</clus>
<clus scale="  142.485">  1  5  2 -1</clus>
</clustering>
</event>
<event>
 9    1  0.9000149E-006  0.2197001E+03  0.7546771E-02  0.1134325E+00
          1   -1    0    0  502    0  0.00000000000E+00  0.00000000000E+00  0.53450094931E+03  0.53450094931E+03  0.00000000000E+00 0. -1.
         -1   -1    0    0    0  501 -0.00000000000E+00 -0.00000000000E+00 -0.12551603614E+03  0.12551603614E+03  0.00000000000E+00 0.  1.
         23    2    1    2    0    0 -0.19928982069E+03  0.33380273300E+02  0.10256818748E+03  0.24412340924E+03  0.90803802656E+02 0.  0.
         23    2    1    2    0    0  0.19048278182E+03 -0.54988164641E+02  0.16488449804E+03  0.27245077799E+03  0.87949646441E+02 0.  0.
        -11    1    4    4    0    0  0.48524676836E+02  0.22845704847E+02  0.54765216099E+02  0.76653763028E+02  0.00000000000E+00 0.  1.
         11    1    4    4    0    0  0.14195810499E+03 -0.77833869488E+02  0.11011928195E+03  0.19579701496E+03  0.00000000000E+00 0. -1.
        -13    1    3    3    0    0 -0.30225045407E+02  0.30875849256E+02 -0.53473348382E+01  0.43536943244E+02  0.00000000000E+00 0. -1.
         13    1    3    3    0    0 -0.16906477529E+03  0.25044240444E+01  0.10791552232E+03  0.20058646599E+03  0.00000000000E+00 0.  1.
         21    1    1    2  502  501  0.88070388713E+01  0.21607891341E+02  0.14153222765E+03  0.14344279823E+03  0.00000000000E+00 0.  1.
<scales pt_clust_5="13000.00000" pt_clust_6="13000.00000" pt_clust_7="13000.00000" pt_clust_8="13000.00000" pt_clust_9="23.33377"></scales>
<clustering>
<clus scale="   23.334">  1  9  2 -1</clus>
<clus scale="   87.950">  5  6 -1 -1</clus>
<clus scale="   90.804">  7  8 -1 -1</clus>
<clus scale="  218.536">  1  5  2 -1</clus>
<clus scale="   23.334">  1  5  2 -1</clus>
</clustering>
</event>
<event>
 9    1  0.9000149E-006  0.1570450E+03  0.7546771E-02  0.1192097E+00
          1   -1    0    0  502    0  0.00000000000E+00  0.00000000000E+00  0.24757702446E+03  0.24757702446E+03  0.00000000000E+00 0. -1.
         -1   -1    0    0    0  501 -0.00000000000E+00 -0.00000000000E+00 -0.13621884918E+03  0.13621884918E+03  0.00000000000E+00 0.  1.
         23    2    1    2    0    0  0.11356595284E+03 -0.50315101198E+02  0.19224135303E+02  0.15538084183E+03  0.91349896418E+02 0.  0.
         23    2    1    2    0    0 -0.12725845861E+03  0.35654814175E+02  0.30506534913E+02  0.16360486201E+03  0.91487273112E+02 0.  0.
        -11    1    3    3    0    0 -0.48375201264E+00 -0.32518372600E+02 -0.13786602948E+02  0.35323490674E+02  0.00000000000E+00 0.  1.
         11    1    3    3    0    0  0.11404970486E+03 -0.17796728598E+02  0.33010738251E+02  0.12005735116E+03  0.00000000000E+00 0. -1.
        -11    1    4    4    0    0 -0.11833950448E+03  0.10404157840E+02 -0.52736437185E+01  0.11891297717E+03  0.00000000000E+00 0.  1.
         11    1    4    4    0    0 -0.89189541249E+01  0.25250656335E+02  0.35780178632E+02  0.44691884844E+02  0.00000000000E+00 0. -1.
         21    1    1    2  502  501  0.13692505763E+02  0.14660287023E+02  0.61627505057E+02  0.64810169798E+02  0.00000000000E+00 0. -1.
<scales pt_clust_5="13000.00000" pt_clust_6="13000.00000" pt_clust_7="13000.00000" pt_clust_8="13000.00000" pt_clust_9="20.06013"></scales>
<clustering>
<clus scale="   20.060">  1  9  2 -1</clus>
<clus scale="   91.350">  5  6 -1 -1</clus>
<clus scale="   91.487">  7  8 -1 -1</clus>
<clus scale="  156.965">  2  5  1 -1</clus>
<clus scale="   20.060">  1  5  2 -1</clus>
</clustering>
</event>
<event>
 9    1  0.9000149E-006  0.1021203E+03  0.7546771E-02  0.1276092E+00
          2   -1    0    0  502    0  0.00000000000E+00  0.00000000000E+00  0.41804888680E+03  0.41804888680E+03  0.00000000000E+00 0. -1.
         -2   -1    0    0    0  501 -0.00000000000E+00 -0.00000000000E+00 -0.24234641699E+03  0.24234641699E+03  0.00000000000E+00 0.  1.
         23    2    1    2    0    0 -0.31880418172E+02 -0.30580028810E+02 -0.21092518991E+03  0.23382883911E+03  0.90746851365E+02 0.  0.
         23    2    1    2    0    0  0.63892683289E+02  0.68397905103E+02  0.28209733765E+03  0.31088774963E+03  0.91168725775E+02 0.  0.
        -11    1    3    3    0    0 -0.38798522540E+02  0.15292691022E+02 -0.15817845111E+03  0.16358366100E+03  0.00000000000E+00 0.  1.
         11    1    3    3    0    0  0.69181043687E+01 -0.45872719832E+02 -0.52746738798E+02  0.70245178103E+02  0.00000000000E+00 0. -1.
        -13    1    4    4    0    0  0.78870674459E+02  0.32291745820E+02  0.14366017430E+03  0.16703767784E+03  0.00000000000E+00 0. -1.
         13    1    4    4    0    0 -0.14977991170E+02  0.36106159283E+02  0.13843716335E+03  0.14385007179E+03  0.00000000000E+00 0.  1.
         21    1    1    2  502  501 -0.32012265118E+02 -0.37817876293E+02  0.10453032207E+03  0.11567871506E+03  0.00000000000E+00 0.  1.
<scales pt_clust_5="13000.00000" pt_clust_6="13000.00000" pt_clust_7="13000.00000" pt_clust_8="13000.00000" pt_clust_9="49.54772"></scales>
<clustering>
<clus scale="   49.548">  1  9  2 -1</clus>
<clus scale="   90.747">  5  6 -1 -1</clus>
<clus scale="   91.169">  7  8 -1 -1</clus>
<clus scale="  101.744">  2  5  1 -1</clus>
<clus scale="   49.548">  1  5  2 -1</clus>
</clustering>
</event>
<event>
 9    1  0.9000149E-006  0.1102733E+03  0.7546771E-02  0.1260135E+00
         -4   -1    0    0    0  501 -0.00000000000E+00  0.00000000000E+00  0.56718527478E+02  0.56718527478E+02  0.00000000000E+00 0.  1.
          4   -1    0    0  502    0  0.00000000000E+00 -0.00000000000E+00 -0.49410137060E+03  0.49410137060E+03  0.00000000000E+00 0. -1.
         23    2    1    2    0    0 -0.19177252764E+02  0.67064875283E+01 -0.47326357833E+02  0.10436901975E+03  0.90776451454E+02 0.  0.
         23    2    1    2    0    0  0.74432468339E+02  0.24183537222E+02 -0.35358697699E+03  0.37339365752E+03  0.90961735699E+02 0.  0.
        -11    1    4    4    0    0 -0.17507472571E+02 -0.10521055252E+02 -0.42495297480E+02  0.47149278970E+02  0.00000000000E+00 0.  1.
         11    1    4    4    0    0  0.91939940910E+02  0.34704592475E+02 -0.31109167951E+03  0.32624437855E+03  0.00000000000E+00 0. -1.
        -11    1    3    3    0    0 -0.76096029414E+01 -0.31191096199E+02  0.10929195195E+02  0.33915156592E+02  0.00000000000E+00 0.  1.
         11    1    3    3    0    0 -0.11567649822E+02  0.37897583727E+02 -0.58255553029E+02  0.70453863155E+02  0.00000000000E+00 0. -1.
         21    1    1    2  502  501 -0.55255215575E+02 -0.30890024751E+02 -0.36469508296E+02  0.73057220812E+02  0.00000000000E+00 0.  1.
<scales pt_clust_5="13000.00000" pt_clust_6="13000.00000" pt_clust_7="13000.00000" pt_clust_8="13000.00000" pt_clust_9="63.30349"></scales>
<clustering>
<clus scale="   63.303">  1  9  2 -1</clus>
<clus scale="   90.776">  7  8 -1 -1</clus>
<clus scale="   90.962">  5  6 -1 -1</clus>
<clus scale="  110.120">  1  7  2 -1</clus>
<clus scale="  110.273">  2  5  1 -1</clus>
</clustering>
</event>
<event>
 9    1  0.9000149E-006  0.1262499E+03  0.7546771E-02  0.1234638E+00
         -2   -1    0    0    0  501 -0.00000000000E+00  0.00000000000E+00  0.16024999412E+03  0.16024999412E+03  0.00000000000E+00 0.  1.
          2   -1    0    0  502    0  0.00000000000E+00 -0.00000000000E+00 -0.13431191052E+03  0.13431191052E+03  0.00000000000E+00 0. -1.
         23    2    1    2    0    0  0.28590163786E+02 -0.75010764498E+02  0.38722013864E+02  0.12639176666E+03  0.89618480610E+02 0.  0.
         23    2    1    2    0    0 -0.61214886138E+02  0.63292679923E+02 -0.24279232872E+02  0.13164852798E+03  0.94808375970E+02 0.  0.
        -13    1    4    4    0    0 -0.10928767120E+02  0.72031007098E+02  0.46082291874E+01  0.73000956915E+02  0.00000000000E+00 0.  1.
         13    1    4    4    0    0 -0.50286119018E+02 -0.87383271745E+01 -0.28887462060E+02  0.58647571066E+02  0.00000000000E+00 0. -1.
        -13    1    3    3    0    0 -0.26626816496E+01 -0.39340428767E+02 -0.25202163017E+02  0.46796455313E+02  0.00000000000E+00 0. -1.
         13    1    3    3    0    0  0.31252845436E+02 -0.35670335731E+02  0.63924176882E+02  0.79595311351E+02  0.00000000000E+00 0.  1.
         21    1    1    2  502  501  0.32624722352E+02  0.11718084575E+02  0.11495302612E+02  0.36521609997E+02  0.00000000000E+00 0.  1.
<scales pt_clust_5="13000.00000" pt_clust_6="13000.00000" pt_clust_7="13000.00000" pt_clust_8="13000.00000" pt_clust_9="34.66534"></scales>
<clustering>
<clus scale="   34.665">  1  9  2 -1</clus>
<clus scale="   89.618">  7  8 -1 -1</clus>
<clus scale="   94.808">  5  6 -1 -1</clus>
<clus scale="  122.401">  1  7  2 -1</clus>
<clus scale="  126.250">  2  5  1 -1</clus>
</clustering>
</event>
<event>
 9    1  0.9000149E-006  0.1040310E+03  0.7546771E-02  0.1274070E+00
         -3   -1    0    0    0  501 -0.00000000000E+00  0.00000000000E+00  0.85699618384E+02  0.85699618384E+02  0.00000000000E+00 0.  1.
          3   -1    0    0  502    0  0.00000000000E+00 -0.00000000000E+00 -0.46167645848E+03  0.46167645848E+03  0.00000000000E+00 0. -1.
         23    2    1    2    0    0  0.38501680839E+02  0.21048739660E+02  0.54022842974E+01  0.99557137009E+02  0.89202073883E+02 0.  0.
         23    2    1    2    0    0  0.13211762178E+02 -0.90152428040E+02 -0.14012913679E+03  0.19159412362E+03  0.93648931049E+02 0.  0.
        -11    1    4    4    0    0  0.39182920973E+02 -0.55252252351E+02 -0.31745457823E+02  0.74805660068E+02  0.00000000000E+00 0.  1.
         11    1    4    4    0    0 -0.25971158795E+02 -0.34900175688E+02 -0.10838367896E+03  0.11678846355E+03  0.00000000000E+00 0. -1.
        -11    1    3    3    0    0  0.38927330827E+02 -0.29234180936E+02  0.73532150654E+01  0.49234583294E+02  0.00000000000E+00 0. -1.
         11    1    3    3    0    0 -0.42564998737E+00  0.50282920596E+02 -0.19509307680E+01  0.50322553715E+02  0.00000000000E+00 0.  1.
         21    1    1    2  502  501 -0.51713443017E+02  0.69103688380E+02 -0.24124998761E+03  0.25622481624E+03  0.00000000000E+00 0. -1.
<scales pt_clust_5="13000.00000" pt_clust_6="13000.00000" pt_clust_7="13000.00000" pt_clust_8="13000.00000" pt_clust_9="86.31106"></scales>
<clustering>
<clus scale="   86.311">  2  9  1 -1</clus>
<clus scale="   89.202">  7  8 -1 -1</clus>
<clus scale="   93.649">  5  6 -1 -1</clus>
<clus scale="  100.047">  1  7  2 -1</clus>
<clus scale="   86.311">  2  5  1 -1</clus>
</clustering>
</event>
<event>
 9    1  0.9000149E-006  0.1275819E+03  0.7546771E-02  0.1233591E+00
          1   -1    0    0  502    0  0.00000000000E+00  0.00000000000E+00  0.46821911339E+03  0.46821911339E+03  0.00000000000E+00 0. -1.
         -1   -1    0    0    0  501 -0.00000000000E+00 -0.00000000000E+00 -0.46452224602E+02  0.46452224602E+02  0.00000000000E+00 0.  1.
         23    2    1    2    0    0 -0.30197953682E+02  0.67841075853E+02  0.10117378550E+03  0.15606554124E+03  0.92768476922E+02 0.  0.
         23    2    1    2    0    0  0.18546289566E+02 -0.84119019987E+02  0.22754620751E+03  0.26342986725E+03  0.10098536542E+03 0.  0.
        -11    1    4    4    0    0  0.25210678699E+02 -0.43297356001E+02  0.23691598793E+02  0.55421396685E+02  0.00000000000E+00 0.  1.
         11    1    4    4    0    0 -0.66643891329E+01 -0.40821663986E+02  0.20385460872E+03  0.20800847057E+03  0.00000000000E+00 0. -1.
        -13    1    3    3    0    0  0.18029153621E+02  0.66976285315E+02  0.70523123634E+02  0.98916045928E+02  0.00000000000E+00 0.  1.
         13    1    3    3    0    0 -0.48227107303E+02  0.86479053818E+00  0.30650661862E+02  0.57149495309E+02  0.00000000000E+00 0. -1.
         21    1    1    2  502  501  0.11651664116E+02  0.16277944134E+02  0.93046895787E+02  0.95175929506E+02  0.00000000000E+00 0. -1.
<scales pt_clust_5="13000.00000" pt_clust_6="13000.00000" pt_clust_7="13000.00000" pt_clust_8="13000.00000" pt_clust_9="20.01831"></scales>
<clustering>
<clus scale="   20.018">  1  9  2 -1</clus>
<clus scale="   92.768">  7  8 -1 -1</clus>
<clus scale="  100.985">  5  6 -1 -1</clus>
<clus scale="  121.182">  2  7  1 -1</clus>
<clus scale="   20.018">  1  5  2 -1</clus>
</clustering>
</event>
<event>
 9    1  0.9000149E-006  0.1073922E+03  0.7546771E-02  0.1268200E+00
          2   -1    0    0  502    0  0.00000000000E+00  0.00000000000E+00  0.36296924562E+03  0.36296924562E+03  0.00000000000E+00 0. -1.
         -2   -1    0    0    0  501 -0.00000000000E+00 -0.00000000000E+00 -0.57956964312E+02  0.57956964312E+02  0.00000000000E+00 0.  1.
         23    2    1    2    0    0  0.15593047230E+02  0.66548961075E+02  0.57334725675E+02  0.12888874945E+03  0.93022210389E+02 0.  0.
         23    2    1    2    0    0  0.25579501876E+02 -0.26761354887E+02  0.18196233173E+03  0.20487827818E+03  0.86569842727E+02 0.  0.
        -11    1    3    3    0    0  0.28290530504E+02  0.86894888984E+02  0.43614860348E+02  0.10125873736E+03  0.00000000000E+00 0.  1.
         11    1    3    3    0    0 -0.12697483274E+02 -0.20345927909E+02  0.13719865327E+02  0.27630012098E+02  0.00000000000E+00 0. -1.
        -11    1    4    4    0    0  0.29412385287E+02  0.68239680200E+01  0.16369208474E+03  0.16645345762E+03  0.00000000000E+00 0.  1.
         11    1    4    4    0    0 -0.38328834112E+01 -0.33585322907E+02  0.18270246995E+02  0.38424820562E+02  0.00000000000E+00 0. -1.
         21    1    1    2  502  501 -0.41172549106E+02 -0.39787606188E+02  0.65715223902E+02  0.87159182296E+02  0.00000000000E+00 0. -1.
<scales pt_clust_5="13000.00000" pt_clust_6="13000.00000" pt_clust_7="13000.00000" pt_clust_8="13000.00000" pt_clust_9="57.25585"></scales>
<clustering>
<clus scale="   57.256">  1  9  2 -1</clus>
<clus scale="   86.570">  7  8 -1 -1</clus>
<clus scale="   93.022">  5  6 -1 -1</clus>
<clus scale="  101.854">  1  7  2 -1</clus>
<clus scale="   57.256">  1  5  2 -1</clus>
</clustering>
</event>
<event>
 9    1  0.9000149E-006  0.1304401E+03  0.7546771E-02  0.1226995E+00
         -3   -1    0    0    0  501 -0.00000000000E+00  0.00000000000E+00  0.13466206490E+03  0.13466206490E+03  0.00000000000E+00 0.  1.
          3   -1    0    0  502    0  0.00000000000E+00 -0.00000000000E+00 -0.34510357928E+03  0.34510357928E+03  0.00000000000E+00 0. -1.
         23    2    1    2    0    0 -0.91892714190E+02 -0.11146207433E+02  0.69714577567E+02  0.14723814080E+03  0.90831926761E+02 0.  0.
         23    2    1    2    0    0  0.94543000158E+02  0.48561635821E+02 -0.24048539156E+03  0.27793169066E+03  0.90089898262E+02 0.  0.
        -11    1    3    3    0    0 -0.85157968303E+02  0.28242131130E+02  0.49028709128E+02  0.10224143903E+03  0.00000000000E+00 0.  1.
         11    1    3    3    0    0 -0.67347458865E+01 -0.39388338563E+02  0.20685868439E+02  0.44996701768E+02  0.00000000000E+00 0. -1.
        -13    1    4    4    0    0  0.78556695895E+02 -0.31240331338E+01 -0.98763933551E+02  0.12623481542E+03  0.00000000000E+00 0.  1.
         13    1    4    4    0    0  0.15986304263E+02  0.51685668955E+02 -0.14172145801E+03  0.15169687525E+03  0.00000000000E+00 0. -1.
         21    1    1    2  502  501 -0.26502859683E+01 -0.37415428388E+02 -0.39670700390E+02  0.54595812721E+02  0.00000000000E+00 0.  1.
<scales pt_clust_5="13000.00000" pt_clust_6="13000.00000" pt_clust_7="13000.00000" pt_clust_8="13000.00000" pt_clust_9="37.50918"></scales>
<clustering>
<clus scale="   37.509">  2  9  1 -1</clus>
<clus scale="   90.090">  7  8 -1 -1</clus>
<clus scale="   90.832">  5  6 -1 -1</clus>
<clus scale="  129.924">  2  7  1 -1</clus>
<clus scale="   37.509">  2  5  1 -1</clus>
</clustering>
</event>
<event>
 9    1  0.9000149E-006  0.1851759E+03  0.7546771E-02  0.1163647E+00
         -2   -1    0    0    0  501 -0.00000000000E+00  0.00000000000E+00  0.97275450909E+02  0.97275450909E+02  0.00000000000E+00 0.  1.
          2   -1    0    0  502    0  0.00000000000E+00 -0.00000000000E+00 -0.48704765483E+03  0.48704765483E+03  0.00000000000E+00 0. -1.
         23    2    1    2    0    0  0.46972831728E+02 -0.12712106190E+03 -0.14292418290E+03  0.21959507380E+03  0.97100273317E+02 0.  0.
         23    2    1    2    0    0 -0.44346145767E+02  0.17612263544E+03 -0.13848909970E+03  0.24577548040E+03  0.90777710213E+02 0.  0.
        -11    1    4    4    0    0 -0.20705123178E+02  0.11049227834E+03 -0.29242646779E+02  0.11615669628E+03  0.00000000000E+00 0.  1.
         11    1    4    4    0    0 -0.23641022589E+02  0.65630357096E+02 -0.10924645292E+03  0.12961878412E+03  0.00000000000E+00 0. -1.
        -13    1    3    3    0    0 -0.97509961885E+01 -0.81777878271E+02 -0.34936915803E+02  0.89461116621E+02  0.00000000000E+00 0.  1.
         13    1    3    3    0    0  0.56723827917E+02 -0.45343183633E+02 -0.10798726709E+03  0.13013395717E+03  0.00000000000E+00 0. -1.
         21    1    1    2  502  501 -0.26266859613E+01 -0.49001573535E+02 -0.10835892133E+03  0.11895255155E+03  0.00000000000E+00 0. -1.
<scales pt_clust_5="13000.00000" pt_clust_6="13000.00000" pt_clust_7="13000.00000" pt_clust_8="13000.00000" pt_clust_9="49.07192"></scales>
<clustering>
<clus scale="   49.072">  2  9  1 -1</clus>
<clus scale="   90.778">  5  6 -1 -1</clus>
<clus scale="   97.100">  7  8 -1 -1</clus>
<clus scale="  181.940">  2  5  1 -1</clus>
<clus scale="   49.072">  2  5  1 -1</clus>
</clustering>
</event>
<event>
 9    1  0.9000149E-006  0.9730817E+02  0.7546771E-02  0.1287143E+00
          3   -1    0    0  502    0  0.00000000000E+00  0.00000000000E+00  0.30208896159E+03  0.30208896159E+03  0.00000000000E+00 0. -1.
         -3   -1    0    0    0  501 -0.00000000000E+00 -0.00000000000E+00 -0.10636720799E+03  0.10636720799E+03  0.00000000000E+00 0.  1.
         23    2    1    2    0    0  0.37848454465E+01 -0.21286927683E+02 -0.53028531344E+02  0.11188178046E+03  0.96114771584E+02 0.  0.
         23    2    1    2    0    0 -0.10103368830E+02 -0.33558065312E+02  0.19590188195E+03  0.22014893071E+03  0.94126417816E+02 0.  0.
        -11    1    3    3    0    0 -0.28106692505E+02 -0.44228961196E+02 -0.95214432679E+01  0.53262041398E+02  0.00000000000E+00 0. -1.
         11    1    3    3    0    0  0.31891537951E+02  0.22942033512E+02 -0.43507088077E+02  0.58619739060E+02  0.00000000000E+00 0.  1.
        -11    1    4    4    0    0  0.25230228082E+02 -0.41257656579E+01  0.81284533866E+01  0.26826444151E+02  0.00000000000E+00 0.  1.
         11    1    4    4    0    0 -0.35333596913E+02 -0.29432299654E+02  0.18777342857E+03  0.19332248656E+03  0.00000000000E+00 0. -1.
         21    1    1    2  502  501  0.63185233839E+01  0.54844992996E+02  0.52848402993E+02  0.76425458411E+02  0.00000000000E+00 0. -1.
<scales pt_clust_5="13000.00000" pt_clust_6="13000.00000" pt_clust_7="13000.00000" pt_clust_8="13000.00000" pt_clust_9="55.20776"></scales>
<clustering>
<clus scale="   55.208">  1  9  2 -1</clus>
<clus scale="   94.126">  7  8 -1 -1</clus>
<clus scale="   95.345">  1  7  2 -1</clus>
<clus scale="   96.115">  5  6 -1 -1</clus>
<clus scale="   55.208">  1  5  2 -1</clus>
</clustering>
</event>
<event>
 9    1  0.9000149E-006  0.1239703E+03  0.7546771E-02  0.1237777E+00
         -1   -1    0    0    0  501 -0.00000000000E+00  0.00000000000E+00  0.99710297570E+02  0.99710297570E+02  0.00000000000E+00 0.  1.
          1   -1    0    0  502    0  0.00000000000E+00 -0.00000000000E+00 -0.29806742437E+03  0.29806742437E+03  0.00000000000E+00 0. -1.
         23    2    1    2    0    0 -0.61593963516E+02 -0.97574108517E+01  0.13605548454E+02  0.11307759115E+03  0.93340276745E+02 0.  0.
         23    2    1    2    0    0  0.80817982291E+02 -0.41706970585E+02 -0.18132659663E+03  0.22179770820E+03  0.89687630470E+02 0.  0.
        -11    1    3    3    0    0  0.99820566278E+01  0.18882800913E+02 -0.19737995374E+02  0.29082470429E+02  0.00000000000E+00 0.  1.
         11    1    3    3    0    0 -0.71576020144E+02 -0.28640211764E+02  0.33343543829E+02  0.83995120719E+02  0.00000000000E+00 0. -1.
        -13    1    4    4    0    0  0.35100328373E+02  0.10718304601E+02 -0.13072780543E+03  0.13578171533E+03  0.00000000000E+00 0. -1.
         13    1    4    4    0    0  0.45717653918E+02 -0.52425275186E+02 -0.50598791200E+02  0.86015992868E+02  0.00000000000E+00 0.  1.
         21    1    1    2  502  501 -0.19224018775E+02  0.51464381437E+02 -0.30636078620E+02  0.62902422590E+02  0.00000000000E+00 0. -1.
<scales pt_clust_5="13000.00000" pt_clust_6="13000.00000" pt_clust_7="13000.00000" pt_clust_8="13000.00000" pt_clust_9="54.93765"></scales>
<clustering>
<clus scale="   54.938">  1  9  2 -1</clus>
<clus scale="   89.688">  7  8 -1 -1</clus>
<clus scale="   93.340">  5  6 -1 -1</clus>
<clus scale="  121.244">  2  7  1 -1</clus>
<clus scale="  121.244">  2  5  1 -1</clus>
</clustering>
</event>
<event>
 9    1  0.9000149E-006  0.9950122E+02  0.7546771E-02  0.1281954E+00
          1   -1    0    0  502    0  0.00000000000E+00  0.00000000000E+00  0.33551115685E+03  0.33551115685E+03  0.00000000000E+00 0. -1.
         -1   -1    0    0    0  501 -0.00000000000E+00 -0.00000000000E+00 -0.42883914268E+02  0.42883914268E+02  0.00000000000E+00 0.  1.
         23    2    1    2    0    0 -0.13642503281E+01 -0.42372949545E+02  0.72555830505E+02  0.12371434617E+03  0.90794068504E+02 0.  0.
         23    2    1    2    0    0  0.16758952560E+02  0.29096121391E+02  0.13249266943E+03  0.16477351064E+03  0.92024755270E+02 0.  0.
        -11    1    4    4    0    0  0.19026673100E+02  0.61029118646E+02  0.10311767209E+03  0.12132527316E+03  0.00000000000E+00 0. -1.
         11    1    4    4    0    0 -0.22677205399E+01 -0.31932997255E+02  0.29374997349E+02  0.43448237472E+02  0.00000000000E+00 0.  1.
        -13    1    3    3    0    0 -0.43210168129E+02 -0.25627030280E+02  0.18987058955E+02  0.53706347097E+02  0.00000000000E+00 0.  1.
         13    1    3    3    0    0  0.41845917801E+02 -0.16745919265E+02  0.53568771550E+02  0.70007999072E+02  0.00000000000E+00 0. -1.
         21    1    1    2  502  501 -0.15394702232E+02  0.13276828154E+02  0.87578742640E+02  0.89907214310E+02  0.00000000000E+00 0. -1.
<scales pt_clust_5="13000.00000" pt_clust_6="13000.00000" pt_clust_7="13000.00000" pt_clust_8="13000.00000" pt_clust_9="20.32907"></scales>
<clustering>
<clus scale="   20.329">  1  9  2 -1</clus>
<clus scale="   90.794">  7  8 -1 -1</clus>
<clus scale="   92.025">  5  6 -1 -1</clus>
<clus scale="   98.364">  2  7  1 -1</clus>
<clus scale="   20.329">  1  5  2 -1</clus>
</clustering>
</event>
<event>
 9    1  0.9000149E-006  0.1416754E+03  0.7546771E-02  0.1228747E+00
          2   -1    0    0  502    0  0.00000000000E+00  0.00000000000E+00  0.12185719326E+03  0.12185719326E+03  0.00000000000E+00 0. -1.
         -2   -1    0    0    0  501 -0.00000000000E+00 -0.00000000000E+00 -0.32771074122E+03  0.32771074122E+03  0.00000000000E+00 0.  1.
         23    2    1    2    0    0  0.62400465714E+02 -0.12297276808E+03 -0.17804493403E+02  0.16625267104E+03  0.91141817152E+02 0.  0.
         23    2    1    2    0    0 -0.74991174435E+01  0.36900231366E+02 -0.45178105348E+02  0.10771700676E+03  0.90244271312E+02 0.  0.
        -11    1    4    4    0    0 -0.35032521925E+02 -0.11791913882E+02 -0.34913094221E+02  0.50845363343E+02  0.00000000000E+00 0.  1.
         11    1    4    4    0    0  0.27533404482E+02  0.48692145248E+02 -0.10265011128E+02  0.56871643414E+02  0.00000000000E+00 0. -1.
        -11    1    3    3    0    0  0.35710062989E+01 -0.60908808203E+02 -0.45779037252E+02  0.76278144015E+02  0.00000000000E+00 0.  1.
         11    1    3    3    0    0  0.58829459415E+02 -0.62063959876E+02  0.27974543849E+02  0.89974527029E+02  0.00000000000E+00 0. -1.
         21    1    1    2  502  501 -0.54901348271E+02  0.86072536713E+02 -0.14287094922E+03  0.17559825668E+03  0.00000000000E+00 0.  1.
<scales pt_clust_5="13000.00000" pt_clust_6="13000.00000" pt_clust_7="13000.00000" pt_clust_8="13000.00000" pt_clust_9="108.46704"></scales>
<clustering>
<clus scale="   90.244">  5  6 -1 -1</clus>
<clus scale="   91.142">  7  8 -1 -1</clus>
<clus scale="   97.785">  1  5  2 -1</clus>
<clus scale="  108.467">  2  9  1 -1</clus>
<clus scale="   97.785">  1  5  2 -1</clus>
</clustering>
</event>
<event>
 9    1  0.9000149E-006  0.9521215E+02  0.7546771E-02  0.1290925E+00
         -2   -1    0    0    0  501 -0.00000000000E+00  0.00000000000E+00  0.31260550112E+03  0.31260550112E+03  0.00000000000E+00 0.  1.
          2   -1    0    0  502    0  0.00000000000E+00 -0.00000000000E+00 -0.94410663045E+02  0.94410663045E+02  0.00000000000E+00 0. -1.
         23    2    1    2    0    0  0.15585691441E+01  0.23657159888E+02  0.24979257148E+03  0.26709602308E+03  0.91552533692E+02 0.  0.
         23    2    1    2    0    0  0.23430037968E+02 -0.43381319625E+02 -0.17421983543E+02  0.10507154216E+03  0.91135053019E+02 0.  0.
        -11    1    3    3    0    0 -0.38658551997E+02 -0.38820599685E+01  0.62731691494E+02  0.73789017813E+02  0.00000000000E+00 0.  1.
         11    1    3    3    0    0  0.40217121141E+02  0.27539219857E+02  0.18706087999E+03  0.19330700527E+03  0.00000000000E+00 0. -1.
        -11    1    4    4    0    0  0.86414021830E+01  0.21106832800E+02  0.18877065737E+02  0.29606010089E+02  0.00000000000E+00 0.  1.
         11    1    4    4    0    0  0.14788635785E+02 -0.64488152425E+02 -0.36299049280E+02  0.75465532067E+02  0.00000000000E+00 0. -1.
         21    1    1    2  502  501 -0.24988607112E+02  0.19724159737E+02 -0.14175749869E+02  0.34848598925E+02  0.00000000000E+00 0.  1.
<scales pt_clust_5="13000.00000" pt_clust_6="13000.00000" pt_clust_7="13000.00000" pt_clust_8="13000.00000" pt_clust_9="31.83509"></scales>
<clustering>
<clus scale="   31.835">  2  9  1 -1</clus>
<clus scale="   91.135">  7  8 -1 -1</clus>
<clus scale="   91.553">  5  6 -1 -1</clus>
<clus scale="   94.811">  2  7  1 -1</clus>
<clus scale="   31.835">  2  5  1 -1</clus>
</clustering>
</event>
<event>
 9    1  0.9000149E-006  0.3736095E+03  0.7546771E-02  0.1053354E+00
         -1   -1    0    0    0  501 -0.00000000000E+00  0.00000000000E+00  0.89754875891E+03  0.89754875891E+03  0.00000000000E+00 0.  1.
          1   -1    0    0  502    0  0.00000000000E+00 -0.00000000000E+00 -0.19176852422E+03  0.19176852422E+03  0.00000000000E+00 0. -1.
         23    2    1    2    0    0 -0.31445134845E+03 -0.14649618471E+03  0.44378800989E+03  0.57056217321E+03  0.90843894155E+02 0.  0.
         23    2    1    2    0    0  0.35799189052E+03  0.15273220370E+03  0.25601412821E+03  0.47436587276E+03  0.89411563381E+02 0.  0.
        -11    1    4    4    0    0  0.23801129029E+03  0.92520187976E+02  0.11625583696E+03  0.28057936331E+03  0.00000000000E+00 0.  1.
         11    1    4    4    0    0  0.11998060023E+03  0.60212015724E+02  0.13975829125E+03  0.19378650944E+03  0.00000000000E+00 0. -1.
        -11    1    3    3    0    0 -0.23375199010E+03 -0.62174085212E+02  0.30060092905E+03  0.38583225409E+03  0.00000000000E+00 0. -1.
         11    1    3    3    0    0 -0.80699358353E+02 -0.84322099499E+02  0.14318708083E+03  0.18472991912E+03  0.00000000000E+00 0.  1.
         21    1    1    2  502  501 -0.43540542069E+02 -0.62360189895E+01  0.59780965995E+01  0.44389237158E+02  0.00000000000E+00 0. -1.
<scales pt_clust_5="13000.00000" pt_clust_6="13000.00000" pt_clust_7="13000.00000" pt_clust_8="13000.00000" pt_clust_9="43.98485"></scales>
<clustering>
<clus scale="   43.985">  2  9  1 -1</clus>
<clus scale="   89.412">  5  6 -1 -1</clus>
<clus scale="   90.844">  7  8 -1 -1</clus>
<clus scale="  373.264">  2  5  1 -1</clus>
<clus scale="   43.985">  2  5  1 -1</clus>
</clustering>
</event>
<event>
 9    1  0.9000149E-006  0.1337522E+03  0.7546771E-02  0.1229851E+00
          2   -1    0    0  502    0  0.00000000000E+00  0.00000000000E+00  0.49066229818E+03  0.49066229818E+03  0.00000000000E+00 0. -1.
         -2   -1    0    0    0  501 -0.00000000000E+00 -0.00000000000E+00 -0.31177535774E+03  0.31177535774E+03  0.00000000000E+00 0.  1.
         23    2    1    2    0    0 -0.33360611058E+02  0.92280671654E+02 -0.28557372214E+03  0.31573599263E+03  0.92239977971E+02 0.  0.
         23    2    1    2    0    0  0.57541274949E+02 -0.55734266724E+02  0.28373478987E+03  0.30073880333E+03  0.59338773451E+02 0.  0.
        -11    1    4    4    0    0  0.18977576932E+02  0.75153785834E+01  0.29083248283E+02  0.35531178874E+02  0.00000000000E+00 0.  1.
         11    1    4    4    0    0  0.38563698018E+02 -0.63249645308E+02  0.25465154159E+03  0.26520762446E+03  0.00000000000E+00 0. -1.
        -11    1    3    3    0    0 -0.14669240675E+02  0.50961210952E+02 -0.25636711375E+03  0.26179443969E+03  0.00000000000E+00 0.  1.
         11    1    3    3    0    0 -0.18691370384E+02  0.41319460702E+02 -0.29206608389E+02  0.53941552936E+02  0.00000000000E+00 0. -1.
         21    1    1    2  502  501 -0.24180663891E+02 -0.36546404929E+02  0.18072587271E+03  0.18596285996E+03  0.00000000000E+00 0. -1.
<scales pt_clust_5="13000.00000" pt_clust_6="13000.00000" pt_clust_7="13000.00000" pt_clust_8="13000.00000" pt_clust_9="43.82173"></scales>
<clustering>
<clus scale="   43.822">  1  9  2 -1</clus>
<clus scale="   59.339">  5  6 -1 -1</clus>
<clus scale="   92.240">  7  8 -1 -1</clus>
<clus scale="  113.589">  1  5  2 -1</clus>
<clus scale="   43.822">  1  5  2 -1</clus>
</clustering>
</event>
<event>
 9    1  0.9000149E-006  0.1075547E+03  0.7546771E-02  0.1266787E+00
         -2   -1    0    0    0  501 -0.00000000000E+00  0.00000000000E+00  0.18339817396E+03  0.18339817396E+03  0.00000000000E+00 0.  1.
          2   -1    0    0  502    0  0.00000000000E+00 -0.00000000000E+00 -0.22177005779E+03  0.22177005779E+03  0.00000000000E+00 0. -1.
         23    2    1    2    0    0  0.36796752423E+02 -0.46870905558E+02  0.13331643377E+03  0.17282146361E+03  0.92428913200E+02 0.  0.
         23    2    1    2    0    0 -0.37053578052E+02  0.15262669176E+02 -0.55426321132E+02  0.11186441097E+03  0.88519221923E+02 0.  0.
        -11    1    3    3    0    0  0.58069305000E+02 -0.33405614440E+02  0.13149837290E+03  0.14757981344E+03  0.00000000000E+00 0.  1.
         11    1    3    3    0    0 -0.21272552577E+02 -0.13465291118E+02  0.18180608674E+01  0.25241650171E+02  0.00000000000E+00 0. -1.
        -13    1    4    4    0    0 -0.40826917727E+02  0.43951778950E+02 -0.57181112857E+02  0.82875061096E+02  0.00000000000E+00 0. -1.
         13    1    4    4    0    0  0.37733396747E+01 -0.28689109774E+02  0.17547917256E+01  0.28989349871E+02  0.00000000000E+00 0.  1.
         21    1    1    2  502  501  0.25682562964E+00  0.31608236382E+02 -0.11626199647E+03  0.12048235717E+03  0.00000000000E+00 0.  1.
<scales pt_clust_5="13000.00000" pt_clust_6="13000.00000" pt_clust_7="13000.00000" pt_clust_8="13000.00000" pt_clust_9="31.60928"></scales>
<clustering>
<clus scale="   31.609">  2  9  1 -1</clus>
<clus scale="   88.519">  7  8 -1 -1</clus>
<clus scale="   92.429">  5  6 -1 -1</clus>
<clus scale="  104.214">  2  7  1 -1</clus>
<clus scale="   31.609">  2  5  1 -1</clus>
</clustering>
</event>
<event>
 9    1  0.9000149E-006  0.1625784E+03  0.7546771E-02  0.1186234E+00
          4   -1    0    0  502    0  0.00000000000E+00  0.00000000000E+00  0.10736797476E+03  0.10736797476E+03  0.00000000000E+00 0. -1.
         -4   -1    0    0    0  501 -0.00000000000E+00 -0.00000000000E+00 -0.42584174722E+03  0.42584174722E+03  0.00000000000E+00 0.  1.
         23    2    1    2    0    0  0.11487157889E+03  0.82413052057E+02 -0.31111819577E+03  0.35367495076E+03  0.91126550846E+02 0.  0.
         23    2    1    2    0    0 -0.10025460858E+03 -0.56963662871E+02 -0.21620382506E+02  0.14690331529E+03  0.88415483225E+02 0.  0.
        -11    1    3    3    0    0  0.80505712396E+02  0.52013564478E+01 -0.11875933671E+03  0.14356881240E+03  0.00000000000E+00 0.  1.
         11    1    3    3    0    0  0.34365866497E+02  0.77211695609E+02 -0.19235885906E+03  0.21010613837E+03  0.00000000000E+00 0. -1.
        -11    1    4    4    0    0 -0.20724294872E+02  0.97613958271E+01 -0.35413755501E+02  0.42177189631E+02  0.00000000000E+00 0.  1.
         11    1    4    4    0    0 -0.79530313709E+02 -0.66725058698E+02  0.13793372995E+02  0.10472612566E+03  0.00000000000E+00 0. -1.
         21    1    1    2  502  501 -0.14616970311E+02 -0.25449389185E+02  0.14264805817E+02  0.32631455928E+02  0.00000000000E+00 0. -1.
<scales pt_clust_5="13000.00000" pt_clust_6="13000.00000" pt_clust_7="13000.00000" pt_clust_8="13000.00000" pt_clust_9="29.34838"></scales>
<clustering>
<clus scale="   29.348">  1  9  2 -1</clus>
<clus scale="   88.415">  7  8 -1 -1</clus>
<clus scale="   91.127">  5  6 -1 -1</clus>
<clus scale="  161.074">  1  7  2 -1</clus>
<clus scale="   29.348">  1  5  2 -1</clus>
</clustering>
</event>
<event>
 9    1  0.9000149E-006  0.1231747E+03  0.7546771E-02  0.1241913E+00
         -1   -1    0    0    0  501 -0.00000000000E+00  0.00000000000E+00  0.45026944928E+03  0.45026944928E+03  0.00000000000E+00 0.  1.
          1   -1    0    0  502    0  0.00000000000E+00 -0.00000000000E+00 -0.14692005999E+03  0.14692005999E+03  0.00000000000E+00 0. -1.
         23    2    1    2    0    0 -0.15208865635E+01 -0.75278726942E+02  0.33859255394E+03  0.36201463619E+03  0.10363628422E+03 0.  0.
         23    2    1    2    0    0  0.34697383658E+02  0.41050670421E+02  0.64494332061E+02  0.12463163239E+03  0.92111122838E+02 0.  0.
        -11    1    4    4    0    0  0.44424159750E+02  0.65983132735E+02  0.43836259719E+02  0.90823441033E+02  0.00000000000E+00 0. -1.
         11    1    4    4    0    0 -0.97267760920E+01 -0.24932462314E+02  0.20658072342E+02  0.33808191361E+02  0.00000000000E+00 0.  1.
        -11    1    3    3    0    0  0.38325502130E+02  0.48295098031E+01  0.10157387129E+03  0.10867115352E+03  0.00000000000E+00 0. -1.
         11    1    3    3    0    0 -0.39846388694E+02 -0.80108236746E+02  0.23701868265E+03  0.25334348267E+03  0.00000000000E+00 0.  1.
         21    1    1    2  502  501 -0.33176497094E+02  0.34228056522E+02 -0.99737496711E+02  0.11054324069E+03  0.00000000000E+00 0. -1.
<scales pt_clust_5="13000.00000" pt_clust_6="13000.00000" pt_clust_7="13000.00000" pt_clust_8="13000.00000" pt_clust_9="47.66802"></scales>
<clustering>
<clus scale="   47.668">  2  9  1 -1</clus>
<clus scale="   92.111">  5  6 -1 -1</clus>
<clus scale="  103.636">  7  8 -1 -1</clus>
<clus scale="  113.649">  2  5  1 -1</clus>
<clus scale="   47.668">  2  5  1 -1</clus>
</clustering>
</event>
<event>
 9    1  0.9000149E-006  0.9241705E+02  0.7546771E-02  0.1297668E+00
          3   -1    0    0  502    0  0.00000000000E+00  0.00000000000E+00  0.96579217740E+02  0.96579217740E+02  0.00000000000E+00 0. -1.
         -3   -1    0    0    0  501 -0.00000000000E+00 -0.00000000000E+00 -0.12754480048E+03  0.12754480048E+03  0.00000000000E+00 0.  1.
         23    2    1    2    0    0  0.15560500024E+02  0.30528227928E+02 -0.19358146931E+02  0.99126674673E+02  0.90979436785E+02 0.  0.
         23    2    1    2    0    0  0.41717769795E+00 -0.35897665904E+01  0.36742278291E+01  0.90147721909E+02  0.90000285299E+02 0.  0.
        -11    1    4    4    0    0  0.28989522713E+01 -0.45978592692E+02  0.10206063811E+02  0.47186848261E+02  0.00000000000E+00 0.  1.
         11    1    4    4    0    0 -0.24817745734E+01  0.42388826102E+02 -0.65318359824E+01  0.42960873648E+02  0.00000000000E+00 0. -1.
        -11    1    3    3    0    0  0.36033147834E+02  0.53914030153E+02 -0.54488705071E+01  0.65075345408E+02  0.00000000000E+00 0. -1.
         11    1    3    3    0    0 -0.20472647811E+02 -0.23385802225E+02 -0.13909276424E+02  0.34051329265E+02  0.00000000000E+00 0.  1.
         21    1    1    2  502  501 -0.15977677722E+02 -0.26938461337E+02 -0.15281663634E+02  0.34849621634E+02  0.00000000000E+00 0. -1.
<scales pt_clust_5="13000.00000" pt_clust_6="13000.00000" pt_clust_7="13000.00000" pt_clust_8="13000.00000" pt_clust_9="31.32039"></scales>
<clustering>
<clus scale="   31.320">  2  9  1 -1</clus>
<clus scale="   90.000">  5  6 -1 -1</clus>
<clus scale="   90.979">  7  8 -1 -1</clus>
<clus scale="   91.453">  1  5  2 -1</clus>
<clus scale="   91.453">  1  5  2 -1</clus>
</clustering>
</event>
<event>
 9    1  0.9000149E-006  0.9784616E+02  0.7546771E-02  0.1287814E+00
         -2   -1    0    0    0  501 -0.00000000000E+00  0.00000000000E+00  0.57890074482E+02  0.57890074482E+02  0.00000000000E+00 0.  1.
          2   -1    0    0  502    0  0.00000000000E+00 -0.00000000000E+00 -0.29434607490E+03  0.29434607490E+03  0.00000000000E+00 0. -1.
         23    2    1    2    0    0  0.65906432063E+01  0.24120788419E+02 -0.60554706960E+02  0.11648927327E+03  0.96320450792E+02 0.  0.
         23    2    1    2    0    0  0.27916018913E+02 -0.27889785904E+01 -0.59021680232E+02  0.11202703199E+03  0.90991288844E+02 0.  0.
        -11    1    4    4    0    0 -0.25418106965E+02 -0.11964951710E+02 -0.49731114996E+02  0.57117633266E+02  0.00000000000E+00 0. -1.
         11    1    4    4    0    0  0.53334125878E+02  0.91759731193E+01 -0.92905652356E+01  0.54909398724E+02  0.00000000000E+00 0.  1.
        -11    1    3    3    0    0  0.47386037680E+02  0.27302074559E+02 -0.50303857729E+02  0.74305571424E+02  0.00000000000E+00 0.  1.
         11    1    3    3    0    0 -0.40795394473E+02 -0.31812861402E+01 -0.10250849231E+02  0.42183701849E+02  0.00000000000E+00 0. -1.
         21    1    1    2  502  501 -0.34506662119E+02 -0.21331809828E+02 -0.11687961323E+03  0.12371984412E+03  0.00000000000E+00 0. -1.
<scales pt_clust_5="13000.00000" pt_clust_6="13000.00000" pt_clust_7="13000.00000" pt_clust_8="13000.00000" pt_clust_9="40.56792"></scales>
<clustering>
<clus scale="   40.568">  2  9  1 -1</clus>
<clus scale="   90.991">  5  6 -1 -1</clus>
<clus scale="   92.605">  2  5  1 -1</clus>
<clus scale="   96.320">  7  8 -1 -1</clus>
<clus scale="   40.568">  2  5  1 -1</clus>
</clustering>
</event>
