<event>
 9    1  0.1748361E-005  0.1187803E+03  0.7546771E-02  0.1245355E+00
          1   -1    0    0  502    0  0.00000000000E+00  0.00000000000E+00  0.44511973605E+03  0.44511973605E+03  0.00000000000E+00 0. -1.
         -1   -1    0    0    0  501 -0.00000000000E+00 -0.00000000000E+00 -0.42802959667E+02  0.42802959667E+02  0.00000000000E+00 0.  1.
         23    2    1    2    0    0 -0.76964892350E+02  0.16585549676E+02  0.14421686823E+03  0.18793142210E+03  0.91219730432E+02 0.  0.
         23    2    1    2    0    0  0.74065369282E+02  0.11921181302E+02  0.23472100930E+03  0.26301001002E+03  0.91937585750E+02 0.  0.
        -11    1    3    3    0    0 -0.35510790614E+02  0.49824594451E+02  0.47040806055E+02  0.77177353521E+02  0.00000000000E+00 0.  1.
         11    1    3    3    0    0 -0.41454101737E+02 -0.33239044775E+02  0.97176062170E+02  0.11075406858E+03  0.00000000000E+00 0. -1.
        -11    1    4    4    0    0 -0.14959070151E+01 -0.31474709915E+02  0.60559840996E+02  0.68267045077E+02  0.00000000000E+00 0. -1.
         11    1    4    4    0    0  0.75561276297E+02  0.43395891217E+02  0.17416116831E+03  0.19474296495E+03  0.00000000000E+00 0.  1.
         21    1    1    2  502  501  0.28995230686E+01 -0.28506730978E+02  0.23378898850E+02  0.36981263588E+02  0.00000000000E+00 0.  1.
<scales pt_clust_5="13000.00000" pt_clust_6="13000.00000" pt_clust_7="13000.00000" pt_clust_8="13000.00000" pt_clust_9="28.65381"></scales>
<clustering>
<clus scale="   28.654">  2  9  1 -1</clus>
<clus scale="   91.220">  5  6 -1 -1</clus>
<clus scale="   91.938">  7  8 -1 -1</clus>
<clus scale="  118.226">  2  5  1 -1</clus>
<clus scale="  118.780">  1  5  2 -1</clus>
</clustering>
</event>
<event>
 9    1  0.1748361E-005  0.1076243E+03  0.7546771E-02  0.1265237E+00
         -1   -1    0    0    0  501 -0.00000000000E+00  0.00000000000E+00  0.64033216602E+03  0.64033216602E+03  0.00000000000E+00 0.  1.
          1   -1    0    0  502    0  0.00000000000E+00 -0.00000000000E+00 -0.29508566534E+02  0.29508566534E+02  0.00000000000E+00 0. -1.
         23    2    1    2    0    0 -0.49924020701E+02 -0.31453581071E+02  0.28303712342E+03  0.30308664891E+03  0.90938264254E+02 0.  0.
         23    2    1    2    0    0  0.15659514481E+02  0.59826861920E+02  0.16903557507E+03  0.20188762855E+03  0.91439133407E+02 0.  0.
        -11    1    4    4    0    0  0.52200701012E+01  0.29166743329E+02 -0.14915113197E+00  0.29630563517E+02  0.00000000000E+00 0. -1.
         11    1    4    4    0    0  0.10439444380E+02  0.30660118591E+02  0.16918472620E+03  0.17225706503E+03  0.00000000000E+00 0.  1.
        -11    1    3    3    0    0  0.26560007895E+02 -0.28529174010E+01  0.73130488763E+02  0.77856544643E+02  0.00000000000E+00 0.  1.
         11    1    3    3    0    0 -0.76484028596E+02 -0.28600663670E+02  0.20990663466E+03  0.22523010427E+03  0.00000000000E+00 0. -1.
         21    1    1    2  502  501  0.34264506220E+02 -0.28373280849E+02  0.15875090099E+03  0.16486645510E+03  0.00000000000E+00 0.  1.
<scales pt_clust_5="13000.00000" pt_clust_6="13000.00000" pt_clust_7="13000.00000" pt_clust_8="13000.00000" pt_clust_9="44.48707"></scales>
<clustering>
<clus scale="   44.487">  1  9  2 -1</clus>
<clus scale="   90.938">  7  8 -1 -1</clus>
<clus scale="   91.439">  5  6 -1 -1</clus>
<clus scale="  107.199">  1  7  2 -1</clus>
<clus scale="  107.624">  2  5  1 -1</clus>
</clustering>
</event>
<event>
 9    1  0.1748361E-005  0.1032181E+03  0.7546771E-02  0.1273862E+00
          2   -1    0    0  502    0  0.00000000000E+00  0.00000000000E+00  0.19184150691E+03  0.19184150691E+03  0.00000000000E+00 0.  1.
         -2   -1    0    0    0  501 -0.00000000000E+00 -0.00000000000E+00 -0.75950723873E+02  0.75950723873E+02  0.00000000000E+00 0. -1.
         23    2    1    2    0    0 -0.32753877092E+02  0.13251837731E+02  0.50840909407E+02  0.11039529548E+03  0.91399647302E+02 0.  0.
         23    2    1    2    0    0  0.54831959408E+02 -0.20366450535E+02  0.74949525839E+02  0.13217665482E+03  0.91825380886E+02 0.  0.
        -11    1    4    4    0    0  0.17322509808E+01  0.31071640710E+02  0.72940215429E+01  0.31963264855E+02  0.00000000000E+00 0.  1.
         11    1    4    4    0    0  0.53099708427E+02 -0.51438091245E+02  0.67655504296E+02  0.10021338996E+03  0.00000000000E+00 0. -1.
        -13    1    3    3    0    0 -0.17882922336E+02 -0.21329422860E+02  0.64580198612E+02  0.70323148704E+02  0.00000000000E+00 0.  1.
         13    1    3    3    0    0 -0.14870954756E+02  0.34581260591E+02 -0.13739289205E+02  0.40072146777E+02  0.00000000000E+00 0. -1.
         21    1    1    2  502  501 -0.22078082316E+02  0.71146128032E+01 -0.98996522076E+01  0.25220280488E+02  0.00000000000E+00 0. -1.
<scales pt_clust_5="13000.00000" pt_clust_6="13000.00000" pt_clust_7="13000.00000" pt_clust_8="13000.00000" pt_clust_9="23.19611"></scales>
<clustering>
<clus scale="   23.196">  2  9  1 -1</clus>
<clus scale="   91.400">  7  8 -1 -1</clus>
<clus scale="   91.825">  5  6 -1 -1</clus>
<clus scale="  102.840">  2  7  1 -1</clus>
<clus scale="  103.218">  1  5  2 -1</clus>
</clustering>
</event>
<event>
 9    1  0.1748361E-005  0.1341125E+03  0.7546771E-02  0.1223315E+00
          2   -1    0    0  502    0  0.00000000000E+00  0.00000000000E+00  0.35398633459E+02  0.35398633459E+02  0.00000000000E+00 0. -1.
         -2   -1    0    0    0  501 -0.00000000000E+00 -0.00000000000E+00 -0.76261863993E+03  0.76261863993E+03  0.00000000000E+00 0.  1.
         23    2    1    2    0    0  0.62697556679E+02 -0.58179938805E+02 -0.24424844160E+03  0.27578858321E+03  0.95321311943E+02 0.  0.
         23    2    1    2    0    0 -0.34147776260E+02  0.86492422900E+02 -0.24801866238E+03  0.28386016645E+03  0.10206041037E+03 0.  0.
        -11    1    4    4    0    0 -0.67279300928E+02  0.79379946654E+02 -0.19222779302E+03  0.21858454811E+03  0.00000000000E+00 0.  1.
         11    1    4    4    0    0  0.33131524668E+02  0.71124762458E+01 -0.55790869361E+02  0.65275618336E+02  0.00000000000E+00 0. -1.
        -11    1    3    3    0    0  0.85474659737E+02 -0.38334609531E+02 -0.15030695538E+03  0.17710912054E+03  0.00000000000E+00 0. -1.
         11    1    3    3    0    0 -0.22777103058E+02 -0.19845329275E+02 -0.93941486226E+02  0.98679462666E+02  0.00000000000E+00 0.  1.
         21    1    1    2  502  501 -0.28549780419E+02 -0.28312484095E+02 -0.23495290249E+03  0.23836852373E+03  0.00000000000E+00 0.  1.
<scales pt_clust_5="13000.00000" pt_clust_6="13000.00000" pt_clust_7="13000.00000" pt_clust_8="13000.00000" pt_clust_9="40.20804"></scales>
<clustering>
<clus scale="   40.208">  2  9  1 -1</clus>
<clus scale="   95.321">  7  8 -1 -1</clus>
<clus scale="  102.060">  5  6 -1 -1</clus>
<clus scale="  129.058">  2  7  1 -1</clus>
<clus scale="  134.113">  1  5  2 -1</clus>
</clustering>
</event>
<event>
 9    1  0.1748361E-005  0.1172501E+03  0.7546771E-02  0.1248417E+00
          4   -1    0    0  502    0  0.00000000000E+00  0.00000000000E+00  0.52968221520E+02  0.52968221520E+02  0.00000000000E+00 0. -1.
         -4   -1    0    0    0  501 -0.00000000000E+00 -0.00000000000E+00 -0.32829255140E+03  0.32829255140E+03  0.00000000000E+00 0.  1.
         23    2    1    2    0    0 -0.42527385562E+02  0.71798708218E+02 -0.13342035450E+03  0.18209191873E+03  0.91612460102E+02 0.  0.
         23    2    1    2    0    0  0.23167639038E+02 -0.56113877518E+02 -0.97394573317E+02  0.14816002583E+03  0.93702633861E+02 0.  0.
        -13    1    3    3    0    0 -0.65463878739E+02  0.53506804595E+02 -0.12615737340E+03  0.15186895805E+03  0.00000000000E+00 0.  1.
         13    1    3    3    0    0  0.22936493177E+02  0.18291903623E+02 -0.72629811054E+01  0.30222960675E+02  0.00000000000E+00 0. -1.
        -13    1    4    4    0    0 -0.23303915669E+02 -0.34522754563E+02 -0.86161178221E+02  0.95700792581E+02  0.00000000000E+00 0.  1.
         13    1    4    4    0    0  0.46471554707E+02 -0.21591122956E+02 -0.11233395096E+02  0.52459233246E+02  0.00000000000E+00 0. -1.
         21    1    1    2  502  501  0.19359746524E+02 -0.15684830700E+02 -0.44509402065E+02  0.51008828371E+02  0.00000000000E+00 0. -1.
<scales pt_clust_5="13000.00000" pt_clust_6="13000.00000" pt_clust_7="13000.00000" pt_clust_8="13000.00000" pt_clust_9="24.91613"></scales>
<clustering>
<clus scale="   24.916">  2  9  1 -1</clus>
<clus scale="   91.612">  5  6 -1 -1</clus>
<clus scale="   93.703">  7  8 -1 -1</clus>
<clus scale="  115.587">  2  5  1 -1</clus>
<clus scale="  117.250">  1  5  2 -1</clus>
</clustering>
</event>
<event>
 9    1  0.1748361E-005  0.1348773E+03  0.7546771E-02  0.1220683E+00
         -1   -1    0    0    0  501 -0.00000000000E+00  0.00000000000E+00  0.91941365357E+02  0.91941365357E+02  0.00000000000E+00 0.  1.
          1   -1    0    0  502    0  0.00000000000E+00 -0.00000000000E+00 -0.36566367851E+03  0.36566367851E+03  0.00000000000E+00 0. -1.
         23    2    1    2    0    0  0.45642890055E+02  0.73803816333E+02  0.62727429741E+01  0.12350090671E+03  0.87651867841E+02 0.  0.
         23    2    1    2    0    0 -0.79563191887E+02 -0.72130140236E+02 -0.26108965324E+03  0.29523509644E+03  0.86388057657E+02 0.  0.
        -13    1    3    3    0    0  0.65536323929E+02  0.25047071712E+02  0.92022844564E+01  0.70760494590E+02  0.00000000000E+00 0. -1.
         13    1    3    3    0    0 -0.19893433874E+02  0.48756744621E+02 -0.29295414823E+01  0.52740412121E+02  0.00000000000E+00 0.  1.
        -13    1    4    4    0    0 -0.37112527193E+02 -0.12261491089E+02 -0.21398837445E+02  0.44560005413E+02  0.00000000000E+00 0.  1.
         13    1    4    4    0    0 -0.42450664694E+02 -0.59868649147E+02 -0.23969081580E+03  0.25067509102E+03  0.00000000000E+00 0. -1.
         21    1    1    2  502  501  0.33920301832E+02 -0.16736760973E+01 -0.18905402887E+02  0.38869040718E+02  0.00000000000E+00 0.  1.
<scales pt_clust_5="13000.00000" pt_clust_6="13000.00000" pt_clust_7="13000.00000" pt_clust_8="13000.00000" pt_clust_9="33.96157"></scales>
<clustering>
<clus scale="   33.962">  1  9  2 -1</clus>
<clus scale="   86.388">  7  8 -1 -1</clus>
<clus scale="   87.652">  5  6 -1 -1</clus>
<clus scale="  134.059">  2  7  1 -1</clus>
<clus scale="  134.059">  2  5  1 -1</clus>
</clustering>
</event>
<event>
 9    1  0.1748361E-005  0.1091553E+03  0.7546771E-02  0.1269882E+00
         -2   -1    0    0    0  501 -0.00000000000E+00  0.00000000000E+00  0.30215467680E+02  0.30215467680E+02  0.00000000000E+00 0.  1.
          2   -1    0    0  502    0  0.00000000000E+00 -0.00000000000E+00 -0.51459693658E+03  0.51459693658E+03  0.00000000000E+00 0. -1.
         23    2    1    2    0    0 -0.34036526039E+02 -0.52108934371E+01 -0.22861313164E+03  0.24838167611E+03  0.90795674741E+02 0.  0.
         23    2    1    2    0    0  0.11742396851E+02  0.40146953029E+01 -0.25190029565E+03  0.27377193665E+03  0.10650498904E+03 0.  0.
        -11    1    4    4    0    0 -0.19504197076E+02  0.48436716864E+02 -0.10790930798E+03  0.11987888886E+03  0.00000000000E+00 0. -1.
         11    1    4    4    0    0  0.31246593928E+02 -0.44422021561E+02 -0.14399098766E+03  0.15389304779E+03  0.00000000000E+00 0.  1.
        -13    1    3    3    0    0 -0.25748481823E+02 -0.31717687760E+02 -0.21225294612E+03  0.21614881256E+03  0.00000000000E+00 0.  1.
         13    1    3    3    0    0 -0.82880442165E+01  0.26506794323E+02 -0.16360185516E+02  0.32232863545E+02  0.00000000000E+00 0. -1.
         21    1    1    2  502  501  0.22294129188E+02  0.11961981343E+01 -0.38680416100E+01  0.22658791498E+02  0.00000000000E+00 0.  1.
<scales pt_clust_5="13000.00000" pt_clust_6="13000.00000" pt_clust_7="13000.00000" pt_clust_8="13000.00000" pt_clust_9="22.32620"></scales>
<clustering>
<clus scale="   22.326">  1  9  2 -1</clus>
<clus scale="   90.796">  7  8 -1 -1</clus>
<clus scale="   93.891">  1  7  2 -1</clus>
<clus scale="  106.505">  5  6 -1 -1</clus>
<clus scale="  109.155">  2  5  1 -1</clus>
</clustering>
</event>
<event>
 9    1  0.1748361E-005  0.1313782E+03  0.7546771E-02  0.1225694E+00
         -2   -1    0    0    0  501 -0.00000000000E+00  0.00000000000E+00  0.27566862198E+03  0.27566862198E+03  0.00000000000E+00 0.  1.
          2   -1    0    0  502    0  0.00000000000E+00 -0.00000000000E+00 -0.40237784934E+03  0.40237784934E+03  0.00000000000E+00 0. -1.
         23    2    1    2    0    0 -0.11985260260E+03 -0.54447488654E+02  0.76955488649E+02  0.17756110968E+03  0.90975958738E+02 0.  0.
         23    2    1    2    0    0  0.91254396209E+02 -0.57694984484E+01 -0.33168312127E+03  0.35615014408E+03  0.92024889312E+02 0.  0.
        -11    1    4    4    0    0  0.41093774706E+02  0.42802915707E+02 -0.16907647976E+03  0.17918605950E+03  0.00000000000E+00 0.  1.
         11    1    4    4    0    0  0.50160621503E+02 -0.48572414156E+02 -0.16260664151E+03  0.17696408457E+03  0.00000000000E+00 0. -1.
        -11    1    3    3    0    0 -0.92223143487E+01 -0.19697043713E+02  0.55531828838E+02  0.59638985798E+02  0.00000000000E+00 0. -1.
         11    1    3    3    0    0 -0.11063028825E+03 -0.34750444941E+02  0.21423659812E+02  0.11792212389E+03  0.00000000000E+00 0.  1.
         21    1    1    2  502  501  0.28598206390E+02  0.60216987102E+02  0.12801840525E+03  0.14433521756E+03  0.00000000000E+00 0.  1.
<scales pt_clust_5="13000.00000" pt_clust_6="13000.00000" pt_clust_7="13000.00000" pt_clust_8="13000.00000" pt_clust_9="66.66291"></scales>
<clustering>
<clus scale="   66.663">  1  9  2 -1</clus>
<clus scale="   90.976">  7  8 -1 -1</clus>
<clus scale="   92.025">  5  6 -1 -1</clus>
<clus scale="  130.646">  1  7  2 -1</clus>
<clus scale="  131.378">  2  5  1 -1</clus>
</clustering>
</event>
<event>
 9    1  0.1748361E-005  0.9783732E+02  0.7546771E-02  0.1287258E+00
          2   -1    0    0  502    0  0.00000000000E+00  0.00000000000E+00  0.52899896028E+02  0.52899896028E+02  0.00000000000E+00 0. -1.
         -2   -1    0    0    0  501 -0.00000000000E+00 -0.00000000000E+00 -0.58705733133E+03  0.58705733133E+03  0.00000000000E+00 0.  1.
         23    2    1    2    0    0  0.16314083475E+02 -0.13945402464E+02 -0.37129391255E+03  0.38138533330E+03  0.84468807198E+02 0.  0.
         23    2    1    2    0    0 -0.33764036664E+02  0.26526635947E+02 -0.48057166783E+01  0.99056821531E+02  0.89137457854E+02 0.  0.
        -11    1    3    3    0    0 -0.93488950257E+01 -0.43533515457E+02 -0.14351380240E+03  0.15026237149E+03  0.00000000000E+00 0. -1.
         11    1    3    3    0    0  0.25662978500E+02  0.29588112992E+02 -0.22778011014E+03  0.23112296180E+03  0.00000000000E+00 0.  1.
        -11    1    4    4    0    0 -0.32790910944E+02 -0.19609696639E+02 -0.28038955079E+02  0.47391634754E+02  0.00000000000E+00 0.  1.
         11    1    4    4    0    0 -0.97312572049E+00  0.46136332586E+02  0.23233238400E+02  0.51665186777E+02  0.00000000000E+00 0. -1.
         21    1    1    2  502  501  0.17449953189E+02 -0.12581233482E+02 -0.15805780607E+03  0.15951507252E+03  0.00000000000E+00 0.  1.
<scales pt_clust_5="13000.00000" pt_clust_6="13000.00000" pt_clust_7="13000.00000" pt_clust_8="13000.00000" pt_clust_9="21.51252"></scales>
<clustering>
<clus scale="   21.513">  2  9  1 -1</clus>
<clus scale="   84.469">  5  6 -1 -1</clus>
<clus scale="   89.137">  7  8 -1 -1</clus>
<clus scale="   93.604">  2  5  1 -1</clus>
<clus scale="   97.837">  1  5  2 -1</clus>
</clustering>
</event>
<event>
 9    1  0.1748361E-005  0.4189734E+03  0.7546771E-02  0.1037433E+00
         -2   -1    0    0    0  501 -0.00000000000E+00  0.00000000000E+00  0.17115212960E+03  0.17115212960E+03  0.00000000000E+00 0.  1.
          2   -1    0    0  502    0  0.00000000000E+00 -0.00000000000E+00 -0.17760562815E+04  0.17760562815E+04  0.00000000000E+00 0. -1.
         23    2    1    2    0    0 -0.39681794597E+03  0.50913296400E+02 -0.27622387567E+03  0.49480300268E+03  0.92052897710E+02 0.  0.
         23    2    1    2    0    0  0.40499744656E+03 -0.72187397308E+02 -0.13542053974E+04  0.14181851890E+04  0.90238682687E+02 0.  0.
        -11    1    4    4    0    0  0.34089566857E+03 -0.25528441563E+02 -0.10930012857E+04  0.11452132416E+04  0.00000000000E+00 0. -1.
         11    1    4    4    0    0  0.64101777986E+02 -0.46658955745E+02 -0.26120411169E+03  0.27297194738E+03  0.00000000000E+00 0.  1.
        -13    1    3    3    0    0 -0.35366622135E+03  0.73215053243E+02 -0.25299029197E+03  0.44095841978E+03  0.00000000000E+00 0.  1.
         13    1    3    3    0    0 -0.43151724621E+02 -0.22301756843E+02 -0.23233583702E+02  0.53844582900E+02  0.00000000000E+00 0. -1.
         21    1    1    2  502  501 -0.81795005938E+01  0.21274100908E+02  0.25525121241E+02  0.34220219371E+02  0.00000000000E+00 0.  1.
<scales pt_clust_5="13000.00000" pt_clust_6="13000.00000" pt_clust_7="13000.00000" pt_clust_8="13000.00000" pt_clust_9="22.79236"></scales>
<clustering>
<clus scale="   22.792">  1  9  2 -1</clus>
<clus scale="   90.239">  5  6 -1 -1</clus>
<clus scale="   92.053">  7  8 -1 -1</clus>
<clus scale="  418.579">  2  5  1 -1</clus>
<clus scale="  418.579">  2  5  1 -1</clus>
</clustering>
</event>
<event>
 9    1  0.1748361E-005  0.1010670E+03  0.7546771E-02  0.1280256E+00
         -2   -1    0    0    0  501 -0.00000000000E+00  0.00000000000E+00  0.41764318656E+03  0.41764318656E+03  0.00000000000E+00 0.  1.
          2   -1    0    0  502    0  0.00000000000E+00 -0.00000000000E+00 -0.30922964395E+02  0.30922964395E+02  0.00000000000E+00 0. -1.
         23    2    1    2    0    0 -0.22828340790E+02  0.31017867324E+02  0.18069435364E+03  0.20640962304E+03  0.92039349248E+02 0.  0.
         23    2    1    2    0    0  0.26172916719E+02 -0.45359795512E+01  0.17156975985E+03  0.19857097993E+03  0.96377668030E+02 0.  0.
        -13    1    4    4    0    0  0.41778236491E+02  0.15290626327E+02  0.27485352281E+02  0.52294061687E+02  0.00000000000E+00 0. -1.
         13    1    4    4    0    0 -0.15605319772E+02 -0.19826605878E+02  0.14408440756E+03  0.14627691824E+03  0.00000000000E+00 0.  1.
        -13    1    3    3    0    0 -0.50436949021E+01  0.62610305078E+02  0.10242439086E+03  0.12015092594E+03  0.00000000000E+00 0.  1.
         13    1    3    3    0    0 -0.17784645887E+02 -0.31592437755E+02  0.78269962779E+02  0.86258697104E+02  0.00000000000E+00 0. -1.
         21    1    1    2  502  501 -0.33445759295E+01 -0.26481887772E+02  0.34456108681E+02  0.43585547990E+02  0.00000000000E+00 0.  1.
<scales pt_clust_5="13000.00000" pt_clust_6="13000.00000" pt_clust_7="13000.00000" pt_clust_8="13000.00000" pt_clust_9="26.69226"></scales>
<clustering>
<clus scale="   26.692">  2  9  1 -1</clus>
<clus scale="   92.039">  7  8 -1 -1</clus>
<clus scale="   96.378">  5  6 -1 -1</clus>
<clus scale="   96.939">  1  7  2 -1</clus>
<clus scale="   26.692">  2  5  1 -1</clus>
</clustering>
</event>
<event>
 9    1  0.1748361E-005  0.1701131E+03  0.7546771E-02  0.1177984E+00
         -1   -1    0    0    0  501 -0.00000000000E+00  0.00000000000E+00  0.15686930895E+03  0.15686930895E+03  0.00000000000E+00 0.  1.
          1   -1    0    0  502    0  0.00000000000E+00 -0.00000000000E+00 -0.52286260390E+03  0.52286260390E+03  0.00000000000E+00 0. -1.
         23    2    1    2    0    0 -0.61333613402E+02  0.11254282629E+03  0.35140250451E+02  0.16084933023E+03  0.90608884506E+02 0.  0.
         23    2    1    2    0    0  0.55266286910E+02 -0.13587677946E+03 -0.44051618344E+03  0.47270598681E+03  0.88767000764E+02 0.  0.
        -11    1    4    4    0    0 -0.21626273444E+02 -0.51226290073E+02 -0.17464170022E+03  0.18327998242E+03  0.00000000000E+00 0.  1.
         11    1    4    4    0    0  0.76892560354E+02 -0.84650489389E+02 -0.26587448322E+03  0.28942600439E+03  0.00000000000E+00 0. -1.
        -13    1    3    3    0    0 -0.25791611223E+02  0.80985554581E+00 -0.18661326594E+02  0.31845065328E+02  0.00000000000E+00 0. -1.
         13    1    3    3    0    0 -0.35542002179E+02  0.11173297075E+03  0.53801577045E+02  0.12900426490E+03  0.00000000000E+00 0.  1.
         21    1    1    2  502  501  0.60673264924E+01  0.23333953170E+02  0.39382638048E+02  0.46176595813E+02  0.00000000000E+00 0. -1.
<scales pt_clust_5="13000.00000" pt_clust_6="13000.00000" pt_clust_7="13000.00000" pt_clust_8="13000.00000" pt_clust_9="24.10987"></scales>
<clustering>
<clus scale="   24.110">  1  9  2 -1</clus>
<clus scale="   88.767">  5  6 -1 -1</clus>
<clus scale="   90.609">  7  8 -1 -1</clus>
<clus scale="  169.139">  2  5  1 -1</clus>
<clus scale="  169.139">  2  5  1 -1</clus>
</clustering>
</event>
<event>
 9    1  0.1748361E-005  0.1385258E+03  0.7546771E-02  0.1224190E+00
         -1   -1    0    0    0  501 -0.00000000000E+00  0.00000000000E+00  0.36772484986E+03  0.36772484986E+03  0.00000000000E+00 0.  1.
          1   -1    0    0  502    0  0.00000000000E+00 -0.00000000000E+00 -0.22632977472E+03  0.22632977472E+03  0.00000000000E+00 0. -1.
         23    2    1    2    0    0  0.24704065847E+02 -0.35528285064E+02  0.13782516568E+02  0.12708338023E+03  0.11869152396E+03 0.  0.
         23    2    1    2    0    0 -0.24164568474E+02  0.76938055045E+02 -0.14637600588E+03  0.18987055225E+03  0.90119369901E+02 0.  0.
        -11    1    4    4    0    0  0.24499647391E+02  0.22694536653E+02 -0.93634563550E+01  0.34683555629E+02  0.00000000000E+00 0.  1.
         11    1    4    4    0    0 -0.48664215865E+02  0.54243518392E+02 -0.13701254952E+03  0.15518699662E+03  0.00000000000E+00 0. -1.
        -13    1    3    3    0    0  0.73794711641E+01 -0.65020494876E+02  0.46084692257E+02  0.80036992754E+02  0.00000000000E+00 0.  1.
         13    1    3    3    0    0  0.17324594683E+02  0.29492209812E+02 -0.32302175689E+02  0.47046387479E+02  0.00000000000E+00 0. -1.
         21    1    1    2  502  501 -0.53949737308E+00 -0.41409769982E+02  0.27398856445E+03  0.27710069209E+03  0.00000000000E+00 0.  1.
<scales pt_clust_5="13000.00000" pt_clust_6="13000.00000" pt_clust_7="13000.00000" pt_clust_8="13000.00000" pt_clust_9="41.41328"></scales>
<clustering>
<clus scale="   41.413">  1  9  2 -1</clus>
<clus scale="   90.119">  5  6 -1 -1</clus>
<clus scale="  114.992">  2  5  1 -1</clus>
<clus scale="  118.692">  7  8 -1 -1</clus>
<clus scale="  114.992">  2  5  1 -1</clus>
</clustering>
</event>
<event>
 9    1  0.1748361E-005  0.9959869E+02  0.7546771E-02  0.1282484E+00
         -1   -1    0    0    0  501 -0.00000000000E+00  0.00000000000E+00  0.36425096603E+02  0.36425096603E+02  0.00000000000E+00 0.  1.
          1   -1    0    0  502    0  0.00000000000E+00 -0.00000000000E+00 -0.68197604102E+03  0.68197604102E+03  0.00000000000E+00 0. -1.
         23    2    1    2    0    0 -0.48990194693E+02 -0.13882645949E+02 -0.28479680466E+03  0.30292833666E+03  0.89797495362E+02 0.  0.
         23    2    1    2    0    0  0.27344975574E+02 -0.20256891554E+02 -0.36185204230E+03  0.37503483710E+03  0.92499400986E+02 0.  0.
        -11    1    3    3    0    0  0.85228687928E+01 -0.36616254928E+02 -0.70643830505E+02  0.80024622497E+02  0.00000000000E+00 0. -1.
         11    1    3    3    0    0 -0.57513063486E+02  0.22733608979E+02 -0.21415297415E+03  0.22290371416E+03  0.00000000000E+00 0.  1.
        -13    1    4    4    0    0 -0.27252825479E+02 -0.30461143895E+02 -0.19305384984E+03  0.19733318708E+03  0.00000000000E+00 0. -1.
         13    1    4    4    0    0  0.54597801053E+02  0.10204252341E+02 -0.16879819245E+03  0.17770165002E+03  0.00000000000E+00 0.  1.
         21    1    1    2  502  501  0.21645219119E+02  0.34139537503E+02  0.10979025322E+01  0.40437963866E+02  0.00000000000E+00 0.  1.
<scales pt_clust_5="13000.00000" pt_clust_6="13000.00000" pt_clust_7="13000.00000" pt_clust_8="13000.00000" pt_clust_9="40.42306"></scales>
<clustering>
<clus scale="   40.423">  1  9  2 -1</clus>
<clus scale="   89.797">  5  6 -1 -1</clus>
<clus scale="   92.499">  7  8 -1 -1</clus>
<clus scale="   97.095">  1  5  2 -1</clus>
<clus scale="   99.599">  2  5  1 -1</clus>
</clustering>
</event>
<event>
 9    1  0.1748361E-005  0.1023309E+03  0.7546771E-02  0.1276117E+00
         -3   -1    0    0    0  501 -0.00000000000E+00  0.00000000000E+00  0.44923626754E+03  0.44923626754E+03  0.00000000000E+00 0.  1.
          3   -1    0    0  502    0  0.00000000000E+00 -0.00000000000E+00 -0.47784111848E+02  0.47784111848E+02  0.00000000000E+00 0. -1.
         23    2    1    2    0    0 -0.40112364203E+02 -0.46764472400E+02  0.17348000594E+03  0.20513745473E+03  0.90499421177E+02 0.  0.
         23    2    1    2    0    0  0.18611744205E+02  0.33483647732E+02  0.48708782469E+02  0.11084698398E+03  0.91907326591E+02 0.  0.
        -11    1    3    3    0    0 -0.48627894177E+02  0.11815552726E+02  0.72706864614E+02  0.88264191722E+02  0.00000000000E+00 0. -1.
         11    1    3    3    0    0  0.85155299746E+01 -0.58580025126E+02  0.10077314133E+03  0.11687326301E+03  0.00000000000E+00 0.  1.
        -13    1    4    4    0    0 -0.21537216255E+02  0.37824195821E+02 -0.48219583330E+01  0.43792382393E+02  0.00000000000E+00 0. -1.
         13    1    4    4    0    0  0.40148960460E+02 -0.43405480889E+01  0.53530740802E+02  0.67054601591E+02  0.00000000000E+00 0.  1.
         21    1    1    2  502  501  0.21500619998E+02  0.13280824668E+02  0.17926336729E+03  0.18103594067E+03  0.00000000000E+00 0.  1.
<scales pt_clust_5="13000.00000" pt_clust_6="13000.00000" pt_clust_7="13000.00000" pt_clust_8="13000.00000" pt_clust_9="25.27166"></scales>
<clustering>
<clus scale="   25.272">  1  9  2 -1</clus>
<clus scale="   90.499">  5  6 -1 -1</clus>
<clus scale="   91.907">  7  8 -1 -1</clus>
<clus scale="  101.068">  1  5  2 -1</clus>
<clus scale="  102.331">  2  5  1 -1</clus>
</clustering>
</event>
<event>
 9    1  0.1748361E-005  0.1482638E+03  0.7546771E-02  0.1203422E+00
          1   -1    0    0  502    0  0.00000000000E+00  0.00000000000E+00  0.11580919998E+03  0.11580919998E+03  0.00000000000E+00 0. -1.
         -1   -1    0    0    0  501 -0.00000000000E+00 -0.00000000000E+00 -0.25079457906E+03  0.25079457906E+03  0.00000000000E+00 0.  1.
         23    2    1    2    0    0  0.28331262639E+02 -0.11203119859E+03 -0.62787783746E+02  0.15779640545E+03  0.87199483278E+02 0.  0.
         23    2    1    2    0    0 -0.47584523665E+01  0.11869035921E+03 -0.20062897931E+02  0.15120486951E+03  0.91380241043E+02 0.  0.
        -13    1    4    4    0    0 -0.26897570039E+02  0.35356011510E+02 -0.43162044270E+02  0.61939396909E+02  0.00000000000E+00 0.  1.
         13    1    4    4    0    0  0.22139117672E+02  0.83334347696E+02  0.23099146339E+02  0.89265472602E+02  0.00000000000E+00 0. -1.
        -13    1    3    3    0    0 -0.27172426392E+02 -0.24031727348E+02 -0.34304887243E+02  0.49926846125E+02  0.00000000000E+00 0.  1.
         13    1    3    3    0    0  0.55503689030E+02 -0.87999471244E+02 -0.28482896503E+02  0.10786955932E+03  0.00000000000E+00 0. -1.
         21    1    1    2  502  501 -0.23572810272E+02 -0.66591606146E+01 -0.52134697398E+02  0.57602504086E+02  0.00000000000E+00 0.  1.
<scales pt_clust_5="13000.00000" pt_clust_6="13000.00000" pt_clust_7="13000.00000" pt_clust_8="13000.00000" pt_clust_9="24.49534"></scales>
<clustering>
<clus scale="   24.495">  2  9  1 -1</clus>
<clus scale="   87.199">  7  8 -1 -1</clus>
<clus scale="   91.380">  5  6 -1 -1</clus>
<clus scale="  145.724">  2  7  1 -1</clus>
<clus scale="  148.264">  1  5  2 -1</clus>
</clustering>
</event>
<event>
 9    1  0.1748361E-005  0.1040881E+03  0.7546771E-02  0.1272970E+00
         -1   -1    0    0    0  501 -0.00000000000E+00  0.00000000000E+00  0.17453656145E+03  0.17453656145E+03  0.00000000000E+00 0.  1.
          1   -1    0    0  502    0  0.00000000000E+00 -0.00000000000E+00 -0.79378501176E+02  0.79378501176E+02  0.00000000000E+00 0. -1.
         23    2    1    2    0    0  0.43045171204E+02 -0.28279314276E+02  0.64193139879E+02  0.12230877649E+03  0.90476909863E+02 0.  0.
         23    2    1    2    0    0 -0.46051907883E+02  0.52971729213E+01  0.18797025022E+02  0.10542849088E+03  0.92806251297E+02 0.  0.
        -11    1    4    4    0    0 -0.72956061054E+02 -0.47804915063E+01  0.22416307977E+02  0.76471764769E+02  0.00000000000E+00 0. -1.
         11    1    4    4    0    0  0.26904153171E+02  0.10077664428E+02 -0.36192829548E+01  0.28956726115E+02  0.00000000000E+00 0.  1.
        -11    1    3    3    0    0 -0.31723317479E+01 -0.49538580971E+02  0.15795968448E+02  0.52092680028E+02  0.00000000000E+00 0. -1.
         11    1    3    3    0    0  0.46217502952E+02  0.21259266694E+02  0.48397171431E+02  0.70216096459E+02  0.00000000000E+00 0.  1.
         21    1    1    2  502  501  0.30067366792E+01  0.22982141355E+02  0.12167895375E+02  0.26177795258E+02  0.00000000000E+00 0. -1.
<scales pt_clust_5="13000.00000" pt_clust_6="13000.00000" pt_clust_7="13000.00000" pt_clust_8="13000.00000" pt_clust_9="23.17799"></scales>
<clustering>
<clus scale="   23.178">  1  9  2 -1</clus>
<clus scale="   90.477">  7  8 -1 -1</clus>
<clus scale="   92.806">  5  6 -1 -1</clus>
<clus scale="  102.017">  1  7  2 -1</clus>
<clus scale="  104.088">  2  5  1 -1</clus>
</clustering>
</event>
<event>
 9    1  0.1748361E-005  0.3966526E+03  0.7546771E-02  0.1045173E+00
          1   -1    0    0  502    0  0.00000000000E+00  0.00000000000E+00  0.14924560282E+04  0.14924560282E+04  0.00000000000E+00 0. -1.
         -1   -1    0    0    0  501 -0.00000000000E+00 -0.00000000000E+00 -0.16005183335E+03  0.16005183335E+03  0.00000000000E+00 0.  1.
         23    2    1    2    0    0  0.37327058159E+03 -0.37441915018E+02  0.31573347038E+03  0.49850410087E+03  0.89921577967E+02 0.  0.
         23    2    1    2    0    0 -0.38667755976E+03  0.20561626691E+02  0.10446697218E+04  0.11186677302E+04  0.10069929085E+03 0.  0.
        -13    1    4    4    0    0 -0.22970341653E+03 -0.37309161188E+02  0.59614939293E+03  0.63996072674E+03  0.00000000000E+00 0.  1.
         13    1    4    4    0    0 -0.15697414322E+03  0.57870787880E+02  0.44852032891E+03  0.47870700347E+03  0.00000000000E+00 0. -1.
        -13    1    3    3    0    0  0.18282234390E+03 -0.63275794091E+02  0.15229734003E+03  0.24621599324E+03  0.00000000000E+00 0.  1.
         13    1    3    3    0    0  0.19044823768E+03  0.25833879073E+02  0.16343613035E+03  0.25228810762E+03  0.00000000000E+00 0. -1.
         21    1    1    2  502  501  0.13406978169E+02  0.16880288327E+02 -0.27998997354E+02  0.35336030485E+02  0.00000000000E+00 0.  1.
<scales pt_clust_5="13000.00000" pt_clust_6="13000.00000" pt_clust_7="13000.00000" pt_clust_8="13000.00000" pt_clust_9="21.55670"></scales>
<clustering>
<clus scale="   21.557">  2  9  1 -1</clus>
<clus scale="   89.922">  7  8 -1 -1</clus>
<clus scale="  100.699">  5  6 -1 -1</clus>
<clus scale="  394.054">  2  7  1 -1</clus>
<clus scale="  396.653">  1  5  2 -1</clus>
</clustering>
</event>
<event>
 9    1  0.1748361E-005  0.1009809E+03  0.7546771E-02  0.1278528E+00
          1   -1    0    0  502    0  0.00000000000E+00  0.00000000000E+00  0.34944046474E+03  0.34944046474E+03  0.00000000000E+00 0. -1.
         -1   -1    0    0    0  501 -0.00000000000E+00 -0.00000000000E+00 -0.47450991713E+02  0.47450991713E+02  0.00000000000E+00 0.  1.
         23    2    1    2    0    0 -0.76447388236E+01  0.29530029137E+02  0.12234354453E+03  0.15692730667E+03  0.93422545666E+02 0.  0.
         23    2    1    2    0    0  0.30911583403E+02 -0.31199895318E+02  0.18837285385E+03  0.21505845293E+03  0.94004503369E+02 0.  0.
        -11    1    3    3    0    0 -0.31022784471E+02  0.37599191242E+02  0.21820109887E+02  0.53406268676E+02  0.00000000000E+00 0.  1.
         11    1    3    3    0    0  0.23378045648E+02 -0.80691621052E+01  0.10052343464E+03  0.10352103800E+03  0.00000000000E+00 0. -1.
        -11    1    4    4    0    0 -0.12335902905E+01  0.28646614032E+02  0.24690571442E+02  0.37838797003E+02  0.00000000000E+00 0. -1.
         11    1    4    4    0    0  0.32145173693E+02 -0.59846509351E+02  0.16368228241E+03  0.17721965593E+03  0.00000000000E+00 0.  1.
         21    1    1    2  502  501 -0.23266844579E+02  0.16698661810E+01 -0.87269253477E+01  0.24905696853E+02  0.00000000000E+00 0.  1.
<scales pt_clust_5="13000.00000" pt_clust_6="13000.00000" pt_clust_7="13000.00000" pt_clust_8="13000.00000" pt_clust_9="23.32669"></scales>
<clustering>
<clus scale="   23.327">  2  9  1 -1</clus>
<clus scale="   93.423">  5  6 -1 -1</clus>
<clus scale="   94.005">  7  8 -1 -1</clus>
<clus scale="  100.439">  2  5  1 -1</clus>
<clus scale="  100.981">  1  5  2 -1</clus>
</clustering>
</event>
<event>
 9    1  0.1748361E-005  0.9586924E+02  0.7546771E-02  0.1290424E+00
         -1   -1    0    0    0  501 -0.00000000000E+00  0.00000000000E+00  0.54480361493E+03  0.54480361493E+03  0.00000000000E+00 0.  1.
          1   -1    0    0  502    0  0.00000000000E+00 -0.00000000000E+00 -0.75168379158E+02  0.75168379158E+02  0.00000000000E+00 0. -1.
         23    2    1    2    0    0 -0.10148881703E+01  0.87377240552E+02  0.37452570138E+03  0.39553565091E+03  0.92429097064E+02 0.  0.
         23    2    1    2    0    0 -0.20596480303E+02 -0.98116480126E+01 -0.82293716705E+01  0.93430992524E+02  0.90228290288E+02 0.  0.
        -11    1    3    3    0    0  0.11014604952E+02  0.19132352861E+02  0.95738101564E+01  0.24062965095E+02  0.00000000000E+00 0. -1.
         11    1    3    3    0    0 -0.12029493123E+02  0.68244887691E+02  0.36495189122E+03  0.37147268582E+03  0.00000000000E+00 0.  1.
        -11    1    4    4    0    0 -0.47686489152E+02  0.20349938995E+02 -0.10204174622E+02  0.52841711218E+02  0.00000000000E+00 0.  1.
         11    1    4    4    0    0  0.27090008849E+02 -0.30161587008E+02  0.19748029511E+01  0.40589281306E+02  0.00000000000E+00 0. -1.
         21    1    1    2  502  501  0.21611368473E+02 -0.77565592539E+02  0.10333890607E+03  0.13100535066E+03  0.00000000000E+00 0.  1.
<scales pt_clust_5="13000.00000" pt_clust_6="13000.00000" pt_clust_7="13000.00000" pt_clust_8="13000.00000" pt_clust_9="80.52001"></scales>
<clustering>
<clus scale="   80.520">  1  9  2 -1</clus>
<clus scale="   90.228">  7  8 -1 -1</clus>
<clus scale="   92.429">  5  6 -1 -1</clus>
<clus scale="   93.749">  2  7  1 -1</clus>
<clus scale="   93.749">  2  5  1 -1</clus>
</clustering>
</event>
<event>
 9    1  0.1748361E-005  0.1109542E+03  0.7546771E-02  0.1260279E+00
          2   -1    0    0  502    0  0.00000000000E+00  0.00000000000E+00  0.31741309324E+03  0.31741309324E+03  0.00000000000E+00 0. -1.
         -2   -1    0    0    0  501 -0.00000000000E+00 -0.00000000000E+00 -0.63591467275E+02  0.63591467275E+02  0.00000000000E+00 0.  1.
         23    2    1    2    0    0 -0.79136618373E+02  0.32550120204E+02  0.79611966318E+02  0.14742828093E+03  0.89860548318E+02 0.  0.
         23    2    1    2    0    0  0.47298221171E+02 -0.78416586563E+01  0.15870323710E+03  0.19039479341E+03  0.93620759207E+02 0.  0.
        -11    1    4    4    0    0  0.28468910524E+01 -0.43125469140E+02  0.98994038397E+02  0.10801726952E+03  0.00000000000E+00 0. -1.
         11    1    4    4    0    0  0.44451330118E+02  0.35283810484E+02  0.59709198705E+02  0.82377523886E+02  0.00000000000E+00 0.  1.
        -13    1    3    3    0    0 -0.74109651879E+02  0.60427330056E+02  0.64261468115E+02  0.11520954389E+03  0.00000000000E+00 0.  1.
         13    1    3    3    0    0 -0.50269664939E+01 -0.27877209852E+02  0.15350498203E+02  0.32218737038E+02  0.00000000000E+00 0. -1.
         21    1    1    2  502  501  0.31838397202E+02 -0.24708461548E+02  0.15506422549E+02  0.43181486180E+02  0.00000000000E+00 0. -1.
<scales pt_clust_5="13000.00000" pt_clust_6="13000.00000" pt_clust_7="13000.00000" pt_clust_8="13000.00000" pt_clust_9="40.30126"></scales>
<clustering>
<clus scale="   40.301">  2  9  1 -1</clus>
<clus scale="   89.861">  7  8 -1 -1</clus>
<clus scale="   93.621">  5  6 -1 -1</clus>
<clus scale="  107.800">  2  7  1 -1</clus>
<clus scale="  110.954">  1  5  2 -1</clus>
</clustering>
</event>
<event>
 9    1  0.1748361E-005  0.1396099E+03  0.7546771E-02  0.1215284E+00
          2   -1    0    0  502    0  0.00000000000E+00  0.00000000000E+00  0.89107383236E+02  0.89107383236E+02  0.00000000000E+00 0. -1.
         -2   -1    0    0    0  501 -0.00000000000E+00 -0.00000000000E+00 -0.42453860800E+03  0.42453860800E+03  0.00000000000E+00 0.  1.
         23    2    1    2    0    0 -0.94263261786E+02 -0.51601295592E+01 -0.28042255596E+03  0.31202952000E+03  0.99062717494E+02 0.  0.
         23    2    1    2    0    0  0.95328486691E+02  0.29438078745E+02  0.53306786511E+01  0.13656733311E+03  0.93102628760E+02 0.  0.
        -13    1    4    4    0    0  0.24936725682E+02 -0.33509877226E+02 -0.22540008770E+01  0.41831001415E+02  0.00000000000E+00 0.  1.
         13    1    4    4    0    0  0.70391761009E+02  0.62947955971E+02  0.75846795281E+01  0.94736331691E+02  0.00000000000E+00 0. -1.
        -13    1    3    3    0    0 -0.95630450265E+02 -0.36247297050E+02 -0.18151856372E+03  0.20834595877E+03  0.00000000000E+00 0.  1.
         13    1    3    3    0    0  0.13671884787E+01  0.31087167491E+02 -0.98903992242E+02  0.10368356122E+03  0.00000000000E+00 0. -1.
         21    1    1    2  502  501 -0.10652249044E+01 -0.24277949186E+02 -0.60339347452E+02  0.65049138132E+02  0.00000000000E+00 0.  1.
<scales pt_clust_5="13000.00000" pt_clust_6="13000.00000" pt_clust_7="13000.00000" pt_clust_8="13000.00000" pt_clust_9="24.30131"></scales>
<clustering>
<clus scale="   24.301">  2  9  1 -1</clus>
<clus scale="   93.103">  5  6 -1 -1</clus>
<clus scale="   99.063">  7  8 -1 -1</clus>
<clus scale="  135.446">  1  5  2 -1</clus>
<clus scale="  135.446">  1  5  2 -1</clus>
</clustering>
</event>
<event>
 9    1  0.1748361E-005  0.1386675E+03  0.7546771E-02  0.1215782E+00
         -1   -1    0    0    0  501 -0.00000000000E+00  0.00000000000E+00  0.27085781126E+03  0.27085781126E+03  0.00000000000E+00 0.  1.
          1   -1    0    0  502    0  0.00000000000E+00 -0.00000000000E+00 -0.92354799135E+02  0.92354799135E+02  0.00000000000E+00 0. -1.
         23    2    1    2    0    0 -0.11140595893E+02  0.11166660115E+03  0.68274286056E+02  0.15827967235E+03  0.88303645756E+02 0.  0.
         23    2    1    2    0    0  0.28678194291E+02 -0.94222988845E+02  0.56221580263E+02  0.14553075992E+03  0.91202661916E+02 0.  0.
        -11    1    4    4    0    0 -0.10062161219E+02 -0.82581485918E+02  0.95034071133E+01  0.83733288790E+02  0.00000000000E+00 0. -1.
         11    1    4    4    0    0  0.38740355511E+02 -0.11641502927E+02  0.46718173150E+02  0.61797471129E+02  0.00000000000E+00 0.  1.
        -11    1    3    3    0    0 -0.21415413236E+02 -0.37678659393E+01 -0.34103736012E+01  0.22010165513E+02  0.00000000000E+00 0. -1.
         11    1    3    3    0    0  0.10274817343E+02  0.11543446709E+03  0.71684659657E+02  0.13626950684E+03  0.00000000000E+00 0.  1.
         21    1    1    2  502  501 -0.17537598398E+02 -0.17443612306E+02  0.54007145801E+02  0.59402178120E+02  0.00000000000E+00 0.  1.
<scales pt_clust_5="13000.00000" pt_clust_6="13000.00000" pt_clust_7="13000.00000" pt_clust_8="13000.00000" pt_clust_9="24.73554"></scales>
<clustering>
<clus scale="   24.736">  1  9  2 -1</clus>
<clus scale="   88.304">  7  8 -1 -1</clus>
<clus scale="   91.203">  5  6 -1 -1</clus>
<clus scale="  136.778">  1  7  2 -1</clus>
<clus scale="  138.668">  2  5  1 -1</clus>
</clustering>
</event>
<event>
 9    1  0.1748361E-005  0.1127884E+03  0.7546771E-02  0.1256947E+00
          1   -1    0    0  502    0  0.00000000000E+00  0.00000000000E+00  0.55295431479E+03  0.55295431479E+03  0.00000000000E+00 0. -1.
         -1   -1    0    0    0  501 -0.00000000000E+00 -0.00000000000E+00 -0.70578955800E+02  0.70578955800E+02  0.00000000000E+00 0.  1.
         23    2    1    2    0    0  0.15543048294E+02 -0.10343238345E+03  0.39253150038E+02  0.14148916601E+03  0.86824708536E+02 0.  0.
         23    2    1    2    0    0  0.18456106681E+02  0.59689179257E+02  0.39002513710E+03  0.40530617725E+03  0.90829861572E+02 0.  0.
        -13    1    3    3    0    0  0.32815911949E+02 -0.87554213641E+01  0.29081837548E+02  0.44713473981E+02  0.00000000000E+00 0. -1.
         13    1    3    3    0    0 -0.17272863655E+02 -0.94676962089E+02  0.10171312491E+02  0.96775692025E+02  0.00000000000E+00 0.  1.
        -13    1    4    4    0    0 -0.32779035973E+02  0.44363521179E+01  0.87658346488E+02  0.93691686550E+02  0.00000000000E+00 0.  1.
         13    1    4    4    0    0  0.51235142655E+02  0.55252827140E+02  0.30236679061E+03  0.31161449070E+03  0.00000000000E+00 0. -1.
         21    1    1    2  502  501 -0.33999154975E+02  0.43743204195E+02  0.53097071852E+02  0.76737927334E+02  0.00000000000E+00 0.  1.
<scales pt_clust_5="13000.00000" pt_clust_6="13000.00000" pt_clust_7="13000.00000" pt_clust_8="13000.00000" pt_clust_9="55.40226"></scales>
<clustering>
<clus scale="   55.402">  2  9  1 -1</clus>
<clus scale="   86.825">  5  6 -1 -1</clus>
<clus scale="   90.830">  7  8 -1 -1</clus>
<clus scale="  109.589">  2  5  1 -1</clus>
<clus scale="  112.788">  1  5  2 -1</clus>
</clustering>
</event>
<event>
 9    1  0.1748361E-005  0.9635012E+02  0.7546771E-02  0.1288794E+00
          2   -1    0    0  502    0  0.00000000000E+00  0.00000000000E+00  0.32950800099E+03  0.32950800099E+03  0.00000000000E+00 0. -1.
         -2   -1    0    0    0  501 -0.00000000000E+00 -0.00000000000E+00 -0.49409894985E+02  0.49409894985E+02  0.00000000000E+00 0.  1.
         23    2    1    2    0    0 -0.19746365695E+02  0.99248824482E+01  0.31511472141E+02  0.98273239405E+02  0.90422532905E+02 0.  0.
         23    2    1    2    0    0  0.82517966468E+01 -0.33170830019E+02  0.22602989269E+03  0.24627452756E+03  0.91614597203E+02 0.  0.
        -11    1    3    3    0    0  0.21240448552E+02  0.62766498523E+01 -0.21700190757E+02  0.31007277645E+02  0.00000000000E+00 0.  1.
         11    1    3    3    0    0 -0.40986814247E+02  0.36482325959E+01  0.53211662898E+02  0.67265961761E+02  0.00000000000E+00 0. -1.
        -11    1    4    4    0    0  0.31716533470E+01 -0.65199030472E+02  0.15560579275E+03  0.16874280932E+03  0.00000000000E+00 0.  1.
         11    1    4    4    0    0  0.50801432998E+01  0.32028200453E+02  0.70424099937E+02  0.77531718233E+02  0.00000000000E+00 0. -1.
         21    1    1    2  502  501  0.11494569048E+02  0.23245947571E+02  0.22556741169E+02  0.34370129011E+02  0.00000000000E+00 0. -1.
<scales pt_clust_5="13000.00000" pt_clust_6="13000.00000" pt_clust_7="13000.00000" pt_clust_8="13000.00000" pt_clust_9="25.93259"></scales>
<clustering>
<clus scale="   25.933">  2  9  1 -1</clus>
<clus scale="   90.423">  5  6 -1 -1</clus>
<clus scale="   91.615">  7  8 -1 -1</clus>
<clus scale="   95.217">  2  5  1 -1</clus>
<clus scale="   96.350">  1  5  2 -1</clus>
</clustering>
</event>
<event>
 9    1  0.1748361E-005  0.1270277E+03  0.7546771E-02  0.1231978E+00
         -1   -1    0    0    0  501 -0.00000000000E+00  0.00000000000E+00  0.15720300490E+03  0.15720300490E+03  0.00000000000E+00 0.  1.
          1   -1    0    0  502    0  0.00000000000E+00 -0.00000000000E+00 -0.17573222197E+03  0.17573222197E+03  0.00000000000E+00 0. -1.
         23    2    1    2    0    0  0.62545252293E+01 -0.72015358255E+02  0.52125272028E+02  0.12765140166E+03  0.91392042603E+02 0.  0.
         23    2    1    2    0    0 -0.24801513471E+02  0.90743010218E+02 -0.10060550610E+03  0.16538671830E+03  0.91552661132E+02 0.  0.
        -11    1    3    3    0    0  0.27515389553E+02 -0.81724134665E+02  0.21043616169E+02  0.88762405502E+02  0.00000000000E+00 0.  1.
         11    1    3    3    0    0 -0.21260864324E+02  0.97087764099E+01  0.31081655859E+02  0.38888996157E+02  0.00000000000E+00 0. -1.
        -11    1    4    4    0    0 -0.58722563016E+02  0.47475462279E+02 -0.49260207020E+02  0.90160007329E+02  0.00000000000E+00 0. -1.
         11    1    4    4    0    0  0.33921049545E+02  0.43267547939E+02 -0.51345299077E+02  0.75226710976E+02  0.00000000000E+00 0.  1.
         21    1    1    2  502  501  0.18546988242E+02 -0.18727651963E+02  0.29951016994E+02  0.39897106911E+02  0.00000000000E+00 0.  1.
<scales pt_clust_5="13000.00000" pt_clust_6="13000.00000" pt_clust_7="13000.00000" pt_clust_8="13000.00000" pt_clust_9="26.35746"></scales>
<clustering>
<clus scale="   26.357">  1  9  2 -1</clus>
<clus scale="   91.392">  5  6 -1 -1</clus>
<clus scale="   91.553">  7  8 -1 -1</clus>
<clus scale="  126.912">  1  5  2 -1</clus>
<clus scale="  127.028">  2  5  1 -1</clus>
</clustering>
</event>
<event>
 9    1  0.1748361E-005  0.9577708E+02  0.7546771E-02  0.1290764E+00
         -1   -1    0    0    0  501 -0.00000000000E+00  0.00000000000E+00  0.13273249982E+03  0.13273249982E+03  0.00000000000E+00 0.  1.
          1   -1    0    0  502    0  0.00000000000E+00 -0.00000000000E+00 -0.12615199972E+03  0.12615199972E+03  0.00000000000E+00 0. -1.
         23    2    1    2    0    0  0.41344687289E+02  0.15091231794E+01  0.39210493638E+02  0.10753593877E+03  0.91185825088E+02 0.  0.
         23    2    1    2    0    0 -0.79252499404E+01  0.15607486065E+02 -0.52641538053E+02  0.10880095192E+03  0.93595472121E+02 0.  0.
        -13    1    3    3    0    0  0.64709330878E+02 -0.20653127842E+02  0.26175102511E+02  0.72794128773E+02  0.00000000000E+00 0.  1.
         13    1    3    3    0    0 -0.23364643589E+02  0.22162251021E+02  0.13035391127E+02  0.34741810002E+02  0.00000000000E+00 0. -1.
        -13    1    4    4    0    0  0.26699913371E+02  0.41131402877E+02 -0.14048963883E+02  0.51010303497E+02  0.00000000000E+00 0.  1.
         13    1    4    4    0    0 -0.34625163311E+02 -0.25523916812E+02 -0.38592574170E+02  0.57790648421E+02  0.00000000000E+00 0. -1.
         21    1    1    2  502  501 -0.33419437348E+02 -0.17116609244E+02  0.20011544520E+02  0.42547608849E+02  0.00000000000E+00 0.  1.
<scales pt_clust_5="13000.00000" pt_clust_6="13000.00000" pt_clust_7="13000.00000" pt_clust_8="13000.00000" pt_clust_9="37.54780"></scales>
<clustering>
<clus scale="   37.548">  1  9  2 -1</clus>
<clus scale="   91.186">  5  6 -1 -1</clus>
<clus scale="   93.424">  1  5  2 -1</clus>
<clus scale="   93.595">  7  8 -1 -1</clus>
<clus scale="   95.777">  2  5  1 -1</clus>
</clustering>
</event>
<event>
 9    1  0.1748361E-005  0.1322755E+03  0.7546771E-02  0.1225003E+00
          2   -1    0    0  502    0  0.00000000000E+00  0.00000000000E+00  0.41249308418E+03  0.41249308418E+03  0.00000000000E+00 0. -1.
         -2   -1    0    0    0  501 -0.00000000000E+00 -0.00000000000E+00 -0.15530886300E+03  0.15530886300E+03  0.00000000000E+00 0.  1.
         23    2    1    2    0    0 -0.13170000990E+02  0.86729615759E+02 -0.86049692687E+02  0.15362406593E+03  0.92197227963E+02 0.  0.
         23    2    1    2    0    0 -0.51369919123E+02 -0.83139745497E+02  0.31886322092E+03  0.34509663104E+03  0.88695237881E+02 0.  0.
        -11    1    4    4    0    0 -0.85072387091E+01  0.19165968019E+02  0.46282308122E+02  0.50811017365E+02  0.00000000000E+00 0.  1.
         11    1    4    4    0    0 -0.42862680414E+02 -0.10230571352E+03  0.27258091280E+03  0.29428561367E+03  0.00000000000E+00 0. -1.
        -13    1    3    3    0    0 -0.32799039660E+02  0.24422042873E+02 -0.77650491462E+02  0.87759968123E+02  0.00000000000E+00 0.  1.
         13    1    3    3    0    0  0.19629038669E+02  0.62307572886E+02 -0.83992012253E+01  0.65864097802E+02  0.00000000000E+00 0. -1.
         21    1    1    2  502  501  0.64539920113E+02 -0.35898702615E+01  0.24370692942E+02  0.69081250214E+02  0.00000000000E+00 0. -1.
<scales pt_clust_5="13000.00000" pt_clust_6="13000.00000" pt_clust_7="13000.00000" pt_clust_8="13000.00000" pt_clust_9="64.63968"></scales>
<clustering>
<clus scale="   64.640">  2  9  1 -1</clus>
<clus scale="   88.695">  5  6 -1 -1</clus>
<clus scale="   92.197">  7  8 -1 -1</clus>
<clus scale="  129.859">  1  5  2 -1</clus>
<clus scale="  129.859">  1  5  2 -1</clus>
</clustering>
</event>
<event>
 9    1  0.1748361E-005  0.1477628E+03  0.7546771E-02  0.1203436E+00
          2   -1    0    0  502    0  0.00000000000E+00  0.00000000000E+00  0.61716425717E+03  0.61716425717E+03  0.00000000000E+00 0. -1.
         -2   -1    0    0    0  501 -0.00000000000E+00 -0.00000000000E+00 -0.78572467538E+02  0.78572467538E+02  0.00000000000E+00 0.  1.
         23    2    1    2    0    0  0.24286806850E+02 -0.63752794063E+02  0.12577504721E+02  0.11470954095E+03  0.91355445503E+02 0.  0.
         23    2    1    2    0    0 -0.48686168965E+02  0.11811142655E+03  0.48250338412E+03  0.50724786223E+03  0.90389301975E+02 0.  0.
        -11    1    4    4    0    0 -0.14410265750E+02  0.63351743823E+02  0.99492796389E+02  0.11882725166E+03  0.00000000000E+00 0.  1.
         11    1    4    4    0    0 -0.34275903215E+02  0.54759682730E+02  0.38301058773E+03  0.38842061056E+03  0.00000000000E+00 0. -1.
        -13    1    3    3    0    0 -0.18322411586E+02 -0.40212354385E+02  0.39335111855E+02  0.59160757569E+02  0.00000000000E+00 0. -1.
         13    1    3    3    0    0  0.42609218436E+02 -0.23540439678E+02 -0.26757607134E+02  0.55548783385E+02  0.00000000000E+00 0.  1.
         21    1    1    2  502  501  0.24399362115E+02 -0.54358632489E+02  0.43510900788E+02  0.73779321528E+02  0.00000000000E+00 0.  1.
<scales pt_clust_5="13000.00000" pt_clust_6="13000.00000" pt_clust_7="13000.00000" pt_clust_8="13000.00000" pt_clust_9="59.58347"></scales>
<clustering>
<clus scale="   59.583">  2  9  1 -1</clus>
<clus scale="   90.389">  5  6 -1 -1</clus>
<clus scale="   91.355">  7  8 -1 -1</clus>
<clus scale="  147.167">  1  5  2 -1</clus>
<clus scale="  147.167">  1  5  2 -1</clus>
</clustering>
</event>
<event>
 9    1  0.1748361E-005  0.9483622E+02  0.7546771E-02  0.1292048E+00
         -1   -1    0    0    0  501 -0.00000000000E+00  0.00000000000E+00  0.73103008343E+02  0.73103008343E+02  0.00000000000E+00 0.  1.
          1   -1    0    0  502    0  0.00000000000E+00 -0.00000000000E+00 -0.36503708484E+03  0.36503708484E+03  0.00000000000E+00 0. -1.
         23    2    1    2    0    0  0.12200762485E+02  0.13827841967E+02 -0.60779491970E+01  0.93928144293E+02  0.91899330820E+02 0.  0.
         23    2    1    2    0    0  0.35037480362E+02 -0.65478020092E+02 -0.21266395458E+03  0.24293862252E+03  0.90984727221E+02 0.  0.
        -11    1    3    3    0    0  0.43712879625E+02  0.28696422025E+02 -0.20569759852E+02  0.56190884514E+02  0.00000000000E+00 0.  1.
         11    1    3    3    0    0 -0.31512117140E+02 -0.14868580058E+02  0.14491810655E+02  0.37737259779E+02  0.00000000000E+00 0. -1.
        -11    1    4    4    0    0  0.62789298449E+02 -0.25818927068E+02 -0.14051943892E+03  0.15606032715E+03  0.00000000000E+00 0.  1.
         11    1    4    4    0    0 -0.27751818088E+02 -0.39659093024E+02 -0.72144515662E+02  0.86878295372E+02  0.00000000000E+00 0. -1.
         21    1    1    2  502  501 -0.47238242846E+02  0.51650178125E+02 -0.73192172721E+02  0.10127332638E+03  0.00000000000E+00 0. -1.
<scales pt_clust_5="13000.00000" pt_clust_6="13000.00000" pt_clust_7="13000.00000" pt_clust_8="13000.00000" pt_clust_9="69.99423"></scales>
<clustering>
<clus scale="   69.994">  2  9  1 -1</clus>
<clus scale="   90.985">  7  8 -1 -1</clus>
<clus scale="   91.899">  5  6 -1 -1</clus>
<clus scale="   93.950">  2  7  1 -1</clus>
<clus scale="   69.994">  2  5  1 -1</clus>
</clustering>
</event>
<event>
 9    1  0.1748361E-005  0.1230630E+03  0.7546771E-02  0.1238281E+00
         -2   -1    0    0    0  501 -0.00000000000E+00  0.00000000000E+00  0.79890048572E+02  0.79890048572E+02  0.00000000000E+00 0.  1.
          2   -1    0    0  502    0  0.00000000000E+00 -0.00000000000E+00 -0.25037076191E+03  0.25037076191E+03  0.00000000000E+00 0. -1.
         23    2    1    2    0    0  0.66894039717E+02 -0.91390458299E+01 -0.40478786835E+02  0.12001599217E+03  0.90592336785E+02 0.  0.
         23    2    1    2    0    0 -0.94200636934E+02 -0.51667188338E+01 -0.12018051846E+03  0.17789106721E+03  0.91112127594E+02 0.  0.
        -13    1    3    3    0    0  0.33573536782E+02  0.72038141474E+01  0.26545899258E+02  0.43402328022E+02  0.00000000000E+00 0.  1.
         13    1    3    3    0    0  0.33320502935E+02 -0.16342859977E+02 -0.67024686092E+02  0.76613664146E+02  0.00000000000E+00 0. -1.
        -13    1    4    4    0    0  0.74185430127E+01 -0.24646887146E+02 -0.12706775625E+02  0.28704807492E+02  0.00000000000E+00 0.  1.
         13    1    4    4    0    0 -0.10161917995E+03  0.19480168312E+02 -0.10747374284E+03  0.14918625972E+03  0.00000000000E+00 0. -1.
         21    1    1    2  502  501  0.27306597217E+02  0.14305764664E+02 -0.98214080399E+01  0.32353751098E+02  0.00000000000E+00 0. -1.
<scales pt_clust_5="13000.00000" pt_clust_6="13000.00000" pt_clust_7="13000.00000" pt_clust_8="13000.00000" pt_clust_9="30.82702"></scales>
<clustering>
<clus scale="   30.827">  1  9  2 -1</clus>
<clus scale="   90.592">  5  6 -1 -1</clus>
<clus scale="   91.112">  7  8 -1 -1</clus>
<clus scale="  122.679">  1  5  2 -1</clus>
<clus scale="  123.063">  2  5  1 -1</clus>
</clustering>
</event>
<event>
 9    1  0.1748361E-005  0.2445491E+03  0.7546771E-02  0.1116965E+00
         -1   -1    0    0    0  501 -0.00000000000E+00  0.00000000000E+00  0.79067106914E+03  0.79067106914E+03  0.00000000000E+00 0.  1.
          1   -1    0    0  502    0  0.00000000000E+00 -0.00000000000E+00 -0.21833924819E+03  0.21833924819E+03  0.00000000000E+00 0. -1.
         23    2    1    2    0    0 -0.13848151289E+03  0.10447514228E+03  0.55708616852E+03  0.59086239367E+03  0.93172873359E+02 0.  0.
         23    2    1    2    0    0  0.22267156701E+03 -0.75388184592E+02 -0.10127037509E+03  0.27148504154E+03  0.90456806160E+02 0.  0.
        -11    1    3    3    0    0 -0.86104264579E+02  0.86311994412E+01  0.21494470731E+03  0.23171031307E+03  0.00000000000E+00 0. -1.
         11    1    3    3    0    0 -0.52377248308E+02  0.95843942843E+02  0.34214146121E+03  0.35915208060E+03  0.00000000000E+00 0.  1.
        -13    1    4    4    0    0  0.37849963076E+02  0.20542138386E+02 -0.24521241314E+02  0.49556941289E+02  0.00000000000E+00 0.  1.
         13    1    4    4    0    0  0.18482160393E+03 -0.95930322979E+02 -0.76749133777E+02  0.22192810025E+03  0.00000000000E+00 0. -1.
         21    1    1    2  502  501 -0.84190054120E+02 -0.29086957691E+02  0.11651602753E+03  0.14666288212E+03  0.00000000000E+00 0. -1.
<scales pt_clust_5="13000.00000" pt_clust_6="13000.00000" pt_clust_7="13000.00000" pt_clust_8="13000.00000" pt_clust_9="89.07310"></scales>
<clustering>
<clus scale="   89.073">  1  9  2 -1</clus>
<clus scale="   90.457">  7  8 -1 -1</clus>
<clus scale="   93.173">  5  6 -1 -1</clus>
<clus scale="  243.527">  2  7  1 -1</clus>
<clus scale="  243.527">  2  5  1 -1</clus>
</clustering>
</event>
<event>
 9    1  0.1748361E-005  0.1543480E+03  0.7546771E-02  0.1196136E+00
          1   -1    0    0  502    0  0.00000000000E+00  0.00000000000E+00  0.31064467141E+03  0.31064467141E+03  0.00000000000E+00 0. -1.
         -1   -1    0    0    0  501 -0.00000000000E+00 -0.00000000000E+00 -0.31016628338E+03  0.31016628338E+03  0.00000000000E+00 0.  1.
         23    2    1    2    0    0  0.14080477625E+02  0.87133924533E+02 -0.64048707715E+02  0.14497256709E+03  0.95520822831E+02 0.  0.
         23    2    1    2    0    0 -0.43109010618E+02 -0.11659643930E+03  0.24402548262E+03  0.29163641595E+03  0.10025091761E+03 0.  0.
        -11    1    3    3    0    0  0.37540509511E+02  0.11017539689E+02  0.51504676331E+01  0.39461415990E+02  0.00000000000E+00 0. -1.
         11    1    3    3    0    0 -0.23460031885E+02  0.76116384844E+02 -0.69199175348E+02  0.10551115110E+03  0.00000000000E+00 0.  1.
        -13    1    4    4    0    0  0.15685237578E+02 -0.96081666449E+02  0.15312422778E+03  0.18145176339E+03  0.00000000000E+00 0. -1.
         13    1    4    4    0    0 -0.58794248196E+02 -0.20514772856E+02  0.90901254847E+02  0.11018465256E+03  0.00000000000E+00 0.  1.
         21    1    1    2  502  501  0.29028532992E+02  0.29462514771E+02 -0.17949838688E+03  0.18420197175E+03  0.00000000000E+00 0.  1.
<scales pt_clust_5="13000.00000" pt_clust_6="13000.00000" pt_clust_7="13000.00000" pt_clust_8="13000.00000" pt_clust_9="41.36055"></scales>
<clustering>
<clus scale="   41.361">  2  9  1 -1</clus>
<clus scale="   95.521">  5  6 -1 -1</clus>
<clus scale="  100.251">  7  8 -1 -1</clus>
<clus scale="  151.318">  2  5  1 -1</clus>
<clus scale="  154.348">  1  5  2 -1</clus>
</clustering>
</event>
<event>
 9    1  0.1748361E-005  0.1240796E+03  0.7546771E-02  0.1237108E+00
         -1   -1    0    0    0  501 -0.00000000000E+00  0.00000000000E+00  0.51991352606E+02  0.51991352606E+02  0.00000000000E+00 0.  1.
          1   -1    0    0  502    0  0.00000000000E+00 -0.00000000000E+00 -0.39688745876E+03  0.39688745876E+03  0.00000000000E+00 0. -1.
         23    2    1    2    0    0  0.58531597397E+02 -0.49177845941E+02 -0.10857639784E+03  0.16034602809E+03  0.89875503504E+02 0.  0.
         23    2    1    2    0    0 -0.77374066967E+02  0.42456607044E+02 -0.23637138717E+03  0.26852737444E+03  0.91903255821E+02 0.  0.
        -13    1    4    4    0    0 -0.49324336284E+02  0.69648434252E+02 -0.18711492585E+03  0.20565940294E+03  0.00000000000E+00 0. -1.
         13    1    4    4    0    0 -0.28049730684E+02 -0.27191827209E+02 -0.49256461329E+02  0.62867971504E+02  0.00000000000E+00 0.  1.
        -13    1    3    3    0    0  0.40057295298E+02  0.97005610822E+01 -0.84669852954E+02  0.94168316281E+02  0.00000000000E+00 0. -1.
         13    1    3    3    0    0  0.18474302099E+02 -0.58878407023E+02 -0.23906544890E+02  0.66177711808E+02  0.00000000000E+00 0.  1.
         21    1    1    2  502  501  0.18842469570E+02  0.67212388973E+01  0.51678865356E-01  0.20005408832E+02  0.00000000000E+00 0. -1.
<scales pt_clust_5="13000.00000" pt_clust_6="13000.00000" pt_clust_7="13000.00000" pt_clust_8="13000.00000" pt_clust_9="20.00534"></scales>
<clustering>
<clus scale="   20.005">  1  9  2 -1</clus>
<clus scale="   89.876">  7  8 -1 -1</clus>
<clus scale="   91.903">  5  6 -1 -1</clus>
<clus scale="  122.585">  1  7  2 -1</clus>
<clus scale="  124.080">  2  5  1 -1</clus>
</clustering>
</event>
<event>
 9    1  0.1748361E-005  0.2264680E+03  0.7546771E-02  0.1130341E+00
          2   -1    0    0  502    0  0.00000000000E+00  0.00000000000E+00  0.10694961288E+04  0.10694961288E+04  0.00000000000E+00 0. -1.
         -2   -1    0    0    0  501 -0.00000000000E+00 -0.00000000000E+00 -0.70936294240E+02  0.70936294240E+02  0.00000000000E+00 0.  1.
         23    2    1    2    0    0 -0.22207101884E+03 -0.17500533568E+02  0.48728876925E+03  0.54343157552E+03  0.90805982987E+02 0.  0.
         23    2    1    2    0    0  0.18382884179E+03 -0.63073972297E+01  0.50953178046E+03  0.55191973411E+03  0.10564057588E+03 0.  0.
        -11    1    3    3    0    0 -0.23998285804E+02  0.27937789132E+02  0.88237926721E+02  0.95615738742E+02  0.00000000000E+00 0. -1.
         11    1    3    3    0    0 -0.19807273304E+03 -0.45438322700E+02  0.39905084253E+03  0.44781583677E+03  0.00000000000E+00 0.  1.
        -13    1    4    4    0    0  0.18804911215E+03 -0.26722105887E+02  0.43795314761E+03  0.47736725801E+03  0.00000000000E+00 0. -1.
         13    1    4    4    0    0 -0.42202703667E+01  0.20414708657E+02  0.71578632854E+02  0.74552476101E+02  0.00000000000E+00 0.  1.
         21    1    1    2  502  501  0.38242177056E+02  0.23807930798E+02  0.17392848554E+01  0.45081113414E+02  0.00000000000E+00 0.  1.
<scales pt_clust_5="13000.00000" pt_clust_6="13000.00000" pt_clust_7="13000.00000" pt_clust_8="13000.00000" pt_clust_9="45.04755"></scales>
<clustering>
<clus scale="   45.048">  2  9  1 -1</clus>
<clus scale="   90.806">  5  6 -1 -1</clus>
<clus scale="  105.641">  7  8 -1 -1</clus>
<clus scale="  219.940">  2  5  1 -1</clus>
<clus scale="  226.468">  1  5  2 -1</clus>
</clustering>
</event>
<event>
 9    1  0.1748361E-005  0.2538740E+03  0.7546771E-02  0.1111007E+00
          1   -1    0    0  502    0  0.00000000000E+00  0.00000000000E+00  0.53351353422E+03  0.53351353422E+03  0.00000000000E+00 0. -1.
         -1   -1    0    0    0  501 -0.00000000000E+00 -0.00000000000E+00 -0.41828876890E+03  0.41828876890E+03  0.00000000000E+00 0.  1.
         23    2    1    2    0    0 -0.24465786537E+03 -0.66419671069E+02 -0.25097644179E+03  0.36806511971E+03  0.90629543839E+02 0.  0.
         23    2    1    2    0    0  0.21763422944E+03  0.90156102109E+02  0.43704670724E+03  0.50428417877E+03  0.88317201529E+02 0.  0.
        -11    1    4    4    0    0  0.13481675105E+03  0.66420293518E+02  0.18758437460E+03  0.24036453430E+03  0.00000000000E+00 0. -1.
         11    1    4    4    0    0  0.82817478385E+02  0.23735808591E+02  0.24946233263E+03  0.26391964447E+03  0.00000000000E+00 0.  1.
        -13    1    3    3    0    0 -0.40102605513E+02  0.22648796856E+02 -0.46016735900E+02  0.65105506302E+02  0.00000000000E+00 0. -1.
         13    1    3    3    0    0 -0.20455525986E+03 -0.89068467925E+02 -0.20495970589E+03  0.30295961341E+03  0.00000000000E+00 0.  1.
         21    1    1    2  502  501  0.27023635937E+02 -0.23736431040E+02 -0.70845500129E+02  0.79453004640E+02  0.00000000000E+00 0.  1.
<scales pt_clust_5="13000.00000" pt_clust_6="13000.00000" pt_clust_7="13000.00000" pt_clust_8="13000.00000" pt_clust_9="35.96797"></scales>
<clustering>
<clus scale="   35.968">  2  9  1 -1</clus>
<clus scale="   88.317">  5  6 -1 -1</clus>
<clus scale="   90.630">  7  8 -1 -1</clus>
<clus scale="  253.058">  1  5  2 -1</clus>
<clus scale="  253.058">  1  5  2 -1</clus>
</clustering>
</event>
<event>
 9    1  0.1748361E-005  0.1215704E+03  0.7546771E-02  0.1241839E+00
          1   -1    0    0  502    0  0.00000000000E+00  0.00000000000E+00  0.24931943337E+03  0.24931943337E+03  0.00000000000E+00 0. -1.
         -1   -1    0    0    0  501 -0.00000000000E+00 -0.00000000000E+00 -0.92429273101E+02  0.92429273101E+02  0.00000000000E+00 0.  1.
         23    2    1    2    0    0  0.14280668598E+02  0.77142236405E+02  0.21488005212E+00  0.12108109511E+03  0.92226478232E+02 0.  0.
         23    2    1    2    0    0 -0.44829035046E+02 -0.72615239955E+02  0.13801249531E+03  0.18458443065E+03  0.87984928933E+02 0.  0.
        -13    1    3    3    0    0 -0.36236041230E+02  0.38448574126E+02  0.16587145206E+02  0.55375779204E+02  0.00000000000E+00 0.  1.
         13    1    3    3    0    0  0.50516709828E+02  0.38693662280E+02 -0.16372265154E+02  0.65705315909E+02  0.00000000000E+00 0. -1.
        -13    1    4    4    0    0 -0.22453167183E+02 -0.70116671487E+02  0.39537927469E+02  0.83568774345E+02  0.00000000000E+00 0.  1.
         13    1    4    4    0    0 -0.22375867863E+02 -0.24985684682E+01  0.98474567842E+02  0.10101565630E+03  0.00000000000E+00 0. -1.
         21    1    1    2  502  501  0.30548366447E+02 -0.45269964506E+01  0.18662784901E+02  0.36083180704E+02  0.00000000000E+00 0.  1.
<scales pt_clust_5="13000.00000" pt_clust_6="13000.00000" pt_clust_7="13000.00000" pt_clust_8="13000.00000" pt_clust_9="30.88198"></scales>
<clustering>
<clus scale="   30.882">  1  9  2 -1</clus>
<clus scale="   87.985">  7  8 -1 -1</clus>
<clus scale="   92.226">  5  6 -1 -1</clus>
<clus scale="  118.385">  1  7  2 -1</clus>
<clus scale="   30.882">  1  5  2 -1</clus>
</clustering>
</event>
<event>
 9    1  0.1748361E-005  0.1022819E+03  0.7546771E-02  0.1276799E+00
          1   -1    0    0  502    0  0.00000000000E+00  0.00000000000E+00  0.21765276349E+03  0.21765276349E+03  0.00000000000E+00 0. -1.
         -1   -1    0    0    0  501 -0.00000000000E+00 -0.00000000000E+00 -0.60671600988E+02  0.60671600988E+02  0.00000000000E+00 0.  1.
         23    2    1    2    0    0  0.11693781723E+02  0.32258191403E+02  0.53054806328E+02  0.11186012700E+03  0.92306771663E+02 0.  0.
         23    2    1    2    0    0 -0.34290832902E+02 -0.27181544066E+02  0.96268528347E+02  0.14207076710E+03  0.94877688388E+02 0.  0.
        -13    1    3    3    0    0 -0.24191417753E+02 -0.86808651681E+01 -0.10860571463E+02  0.27902224382E+02  0.00000000000E+00 0. -1.
         13    1    3    3    0    0  0.35885199476E+02  0.40939056571E+02  0.63915377791E+02  0.83957902621E+02  0.00000000000E+00 0.  1.
        -13    1    4    4    0    0 -0.47337928186E+02  0.20568895016E+02  0.31190360693E+02  0.60305866110E+02  0.00000000000E+00 0.  1.
         13    1    4    4    0    0  0.13047095284E+02 -0.47750439082E+02  0.65078167654E+02  0.81764900985E+02  0.00000000000E+00 0. -1.
         21    1    1    2  502  501  0.22597051179E+02 -0.50766473370E+01  0.76578278271E+01  0.24393470381E+02  0.00000000000E+00 0. -1.
<scales pt_clust_5="13000.00000" pt_clust_6="13000.00000" pt_clust_7="13000.00000" pt_clust_8="13000.00000" pt_clust_9="23.16029"></scales>
<clustering>
<clus scale="   23.160">  2  9  1 -1</clus>
<clus scale="   92.307">  5  6 -1 -1</clus>
<clus scale="   94.878">  7  8 -1 -1</clus>
<clus scale="   99.902">  2  5  1 -1</clus>
<clus scale="  102.282">  1  5  2 -1</clus>
</clustering>
</event>
<event>
 9    1  0.1748361E-005  0.1264214E+03  0.7546771E-02  0.1245518E+00
          1   -1    0    0  502    0  0.00000000000E+00  0.00000000000E+00  0.37430898073E+03  0.37430898073E+03  0.00000000000E+00 0. -1.
         -1   -1    0    0    0  501 -0.00000000000E+00 -0.00000000000E+00 -0.93223616756E+02  0.93223616756E+02  0.00000000000E+00 0.  1.
         23    2    1    2    0    0  0.76816154773E+01  0.83478917644E+02  0.31266904948E+02  0.12546176328E+03  0.87950541743E+02 0.  0.
         23    2    1    2    0    0 -0.31443060658E+02  0.12980221154E+02  0.21607757385E+03  0.23715458634E+03  0.91627657908E+02 0.  0.
        -13    1    4    4    0    0 -0.32482808377E+02 -0.18982196303E+02  0.29372331053E+02  0.47730393336E+02  0.00000000000E+00 0.  1.
         13    1    4    4    0    0  0.10397477191E+01  0.31962417457E+02  0.18670524280E+03  0.18942419300E+03  0.00000000000E+00 0. -1.
        -13    1    3    3    0    0 -0.36197427025E+02  0.63524548554E+02  0.15435135383E+02  0.74725266118E+02  0.00000000000E+00 0. -1.
         13    1    3    3    0    0  0.43879042502E+02  0.19954369090E+02  0.15831769565E+02  0.50736497162E+02  0.00000000000E+00 0.  1.
         21    1    1    2  502  501  0.23761445180E+02 -0.96459138798E+02  0.33740885175E+02  0.10491624787E+03  0.00000000000E+00 0.  1.
<scales pt_clust_5="13000.00000" pt_clust_6="13000.00000" pt_clust_7="13000.00000" pt_clust_8="13000.00000" pt_clust_9="90.81333"></scales>
<clustering>
<clus scale="   87.951">  7  8 -1 -1</clus>
<clus scale="   91.628">  5  6 -1 -1</clus>
<clus scale="   97.738">  1  5  2 -1</clus>
<clus scale="   90.813">  1  9  2 -1</clus>
<clus scale="   97.738">  1  5  2 -1</clus>
</clustering>
</event>
<event>
 9    1  0.1748361E-005  0.1266705E+03  0.7546771E-02  0.1233329E+00
          2   -1    0    0  502    0  0.00000000000E+00  0.00000000000E+00  0.16826025041E+03  0.16826025041E+03  0.00000000000E+00 0. -1.
         -2   -1    0    0    0  501 -0.00000000000E+00 -0.00000000000E+00 -0.22351274539E+03  0.22351274539E+03  0.00000000000E+00 0.  1.
         23    2    1    2    0    0 -0.36747292882E+02  0.83347575131E+02 -0.15482887697E+03  0.20085828280E+03  0.89860373965E+02 0.  0.
         23    2    1    2    0    0  0.16450867668E+02 -0.84061775431E+02  0.11050898875E+03  0.16785008968E+03  0.92867663234E+02 0.  0.
        -13    1    3    3    0    0 -0.29287694348E+02  0.57078844099E+02 -0.16060713295E+03  0.17294627674E+03  0.00000000000E+00 0.  1.
         13    1    3    3    0    0 -0.74595985334E+01  0.26268731032E+02  0.57782559715E+01  0.27912006061E+02  0.00000000000E+00 0. -1.
        -13    1    4    4    0    0 -0.18313412352E+02 -0.88065551389E+02  0.67825651894E+02  0.11265541029E+03  0.00000000000E+00 0. -1.
         13    1    4    4    0    0  0.34764280020E+02  0.40037759576E+01  0.42683336858E+02  0.55194679386E+02  0.00000000000E+00 0.  1.
         21    1    1    2  502  501  0.20296425214E+02  0.71420030037E+00 -0.10932606759E+02  0.23064623324E+02  0.00000000000E+00 0.  1.
<scales pt_clust_5="13000.00000" pt_clust_6="13000.00000" pt_clust_7="13000.00000" pt_clust_8="13000.00000" pt_clust_9="20.30899"></scales>
<clustering>
<clus scale="   20.309">  2  9  1 -1</clus>
<clus scale="   89.860">  5  6 -1 -1</clus>
<clus scale="   92.868">  7  8 -1 -1</clus>
<clus scale="  124.482">  2  5  1 -1</clus>
<clus scale="  126.670">  1  5  2 -1</clus>
</clustering>
</event>
<event>
 9    1  0.1748361E-005  0.1978895E+03  0.7546771E-02  0.1151650E+00
         -1   -1    0    0    0  501 -0.00000000000E+00  0.00000000000E+00  0.11308772434E+04  0.11308772434E+04  0.00000000000E+00 0.  1.
          1   -1    0    0  502    0  0.00000000000E+00 -0.00000000000E+00 -0.67645022662E+02  0.67645022662E+02  0.00000000000E+00 0. -1.
         23    2    1    2    0    0  0.17100031001E+03 -0.72816305023E+02  0.83653706884E+03  0.86201956190E+03  0.93488701207E+02 0.  0.
         23    2    1    2    0    0 -0.15196516187E+03  0.80875886312E+02  0.12315380480E+03  0.23091812065E+03  0.92314675979E+02 0.  0.
        -11    1    3    3    0    0  0.47036060388E+02  0.21829186687E+02  0.19173608706E+03  0.19862434758E+03  0.00000000000E+00 0. -1.
         11    1    3    3    0    0  0.12396424962E+03 -0.94645491710E+02  0.64480098177E+03  0.66339521432E+03  0.00000000000E+00 0.  1.
        -13    1    4    4    0    0 -0.71511535066E+02 -0.94631989524E+01  0.63204417208E+02  0.95907508239E+02  0.00000000000E+00 0.  1.
         13    1    4    4    0    0 -0.80453626807E+02  0.90339085264E+02  0.59949387588E+02  0.13501061242E+03  0.00000000000E+00 0. -1.
         21    1    1    2  502  501 -0.19035148136E+02 -0.80595812888E+01  0.10354134715E+03  0.10558458355E+03  0.00000000000E+00 0. -1.
<scales pt_clust_5="13000.00000" pt_clust_6="13000.00000" pt_clust_7="13000.00000" pt_clust_8="13000.00000" pt_clust_9="20.67108"></scales>
<clustering>
<clus scale="   20.671">  1  9  2 -1</clus>
<clus scale="   92.315">  7  8 -1 -1</clus>
<clus scale="   93.489">  5  6 -1 -1</clus>
<clus scale="  197.338">  2  7  1 -1</clus>
<clus scale="  197.338">  2  5  1 -1</clus>
</clustering>
</event>
<event>
 9    1  0.1748361E-005  0.9508957E+02  0.7546771E-02  0.1292540E+00
         -2   -1    0    0    0  501 -0.00000000000E+00  0.00000000000E+00  0.10316938684E+03  0.10316938684E+03  0.00000000000E+00 0.  1.
          2   -1    0    0  502    0  0.00000000000E+00 -0.00000000000E+00 -0.54128088790E+03  0.54128088790E+03  0.00000000000E+00 0. -1.
         23    2    1    2    0    0 -0.13308162901E+02  0.25017751942E+02  0.37311340170E+02  0.10227865533E+03  0.90916401811E+02 0.  0.
         23    2    1    2    0    0  0.15215660509E+02 -0.46584251295E+01 -0.50071066864E+03  0.50965062695E+03  0.93698295685E+02 0.  0.
        -13    1    3    3    0    0  0.28880852674E+02  0.27783942622E+02 -0.73886456143E+01  0.40750990207E+02  0.00000000000E+00 0. -1.
         13    1    3    3    0    0 -0.42189015575E+02 -0.27661906796E+01  0.44699985784E+02  0.61527665121E+02  0.00000000000E+00 0.  1.
        -13    1    4    4    0    0 -0.30573492580E+02  0.25587872113E+02 -0.23074123953E+03  0.23416019573E+03  0.00000000000E+00 0.  1.
         13    1    4    4    0    0  0.45789153089E+02 -0.30246297243E+02 -0.26996942911E+03  0.27549043122E+03  0.00000000000E+00 0. -1.
         21    1    1    2  502  501 -0.19074976076E+01 -0.20359326813E+02  0.25287827406E+02  0.32520992455E+02  0.00000000000E+00 0. -1.
<scales pt_clust_5="13000.00000" pt_clust_6="13000.00000" pt_clust_7="13000.00000" pt_clust_8="13000.00000" pt_clust_9="20.44849"></scales>
<clustering>
<clus scale="   20.448">  1  9  2 -1</clus>
<clus scale="   90.916">  5  6 -1 -1</clus>
<clus scale="   92.350">  1  5  2 -1</clus>
<clus scale="   93.698">  7  8 -1 -1</clus>
<clus scale="   95.090">  2  5  1 -1</clus>
</clustering>
</event>
<event>
 9    1  0.1748361E-005  0.1156252E+03  0.7546771E-02  0.1258199E+00
          1   -1    0    0  502    0  0.00000000000E+00  0.00000000000E+00  0.22294640102E+03  0.22294640102E+03  0.00000000000E+00 0. -1.
         -1   -1    0    0    0  501 -0.00000000000E+00 -0.00000000000E+00 -0.64807116328E+03  0.64807116328E+03  0.00000000000E+00 0.  1.
         23    2    1    2    0    0 -0.26981759506E+01  0.43243373618E+02 -0.14642876943E+03  0.17688805447E+03  0.89278943667E+02 0.  0.
         23    2    1    2    0    0  0.29136366952E+02  0.68025546611E+02  0.18435443983E+03  0.21716467492E+03  0.87735589576E+02 0.  0.
        -11    1    3    3    0    0  0.19552461869E+02 -0.16697036037E+02 -0.82739543939E+02  0.86642494820E+02  0.00000000000E+00 0.  1.
         11    1    3    3    0    0 -0.22250637819E+02  0.59940409654E+02 -0.63689225492E+02  0.90245559651E+02  0.00000000000E+00 0. -1.
        -13    1    4    4    0    0  0.76836809100E+01  0.79294065663E+02  0.17288122606E+03  0.19035363439E+03  0.00000000000E+00 0. -1.
         13    1    4    4    0    0  0.21452686042E+02 -0.11268519052E+02  0.11473213764E+02  0.26811040526E+02  0.00000000000E+00 0.  1.
         21    1    1    2  502  501 -0.26438191001E+02 -0.11126892023E+03 -0.46305043266E+03  0.47696483490E+03  0.00000000000E+00 0.  1.
<scales pt_clust_5="13000.00000" pt_clust_6="13000.00000" pt_clust_7="13000.00000" pt_clust_8="13000.00000" pt_clust_9="75.31043"></scales>
<clustering>
<clus scale="   87.736">  7  8 -1 -1</clus>
<clus scale="   89.279">  5  6 -1 -1</clus>
<clus scale="   99.237">  2  5  1 -1</clus>
<clus scale="   75.310">  2  9  1 -1</clus>
<clus scale="  115.625">  1  5  2 -1</clus>
</clustering>
</event>
<event>
 9    1  0.1748361E-005  0.9332526E+02  0.7546771E-02  0.1295373E+00
         -2   -1    0    0    0  501 -0.00000000000E+00  0.00000000000E+00  0.57564344842E+03  0.57564344842E+03  0.00000000000E+00 0.  1.
          2   -1    0    0  502    0  0.00000000000E+00 -0.00000000000E+00 -0.20808123016E+02  0.20808123016E+02  0.00000000000E+00 0. -1.
         23    2    1    2    0    0 -0.12573748843E+02 -0.56577603864E+01  0.26432903412E+03  0.28014762058E+03  0.91775495779E+02 0.  0.
         23    2    1    2    0    0 -0.96365775165E+01  0.18015522796E+02  0.18544391594E+03  0.20821086319E+03  0.92438600718E+02 0.  0.
        -11    1    4    4    0    0  0.28176800408E+02 -0.24430610341E+02  0.84438925909E+02  0.92307740799E+02  0.00000000000E+00 0.  1.
         11    1    4    4    0    0 -0.37813377924E+02  0.42446133137E+02  0.10100499003E+03  0.11590312239E+03  0.00000000000E+00 0. -1.
        -11    1    3    3    0    0  0.31776100129E+02 -0.21577940215E+02  0.17485601998E+03  0.17902501436E+03  0.00000000000E+00 0.  1.
         11    1    3    3    0    0 -0.44349848972E+02  0.15920179828E+02  0.89473014146E+02  0.10112260623E+03  0.00000000000E+00 0. -1.
         21    1    1    2  502  501  0.22210326359E+02 -0.12357762410E+02  0.10506237534E+03  0.10809308767E+03  0.00000000000E+00 0. -1.
<scales pt_clust_5="13000.00000" pt_clust_6="13000.00000" pt_clust_7="13000.00000" pt_clust_8="13000.00000" pt_clust_9="25.41678"></scales>
<clustering>
<clus scale="   25.417">  1  9  2 -1</clus>
<clus scale="   91.775">  7  8 -1 -1</clus>
<clus scale="   92.439">  5  6 -1 -1</clus>
<clus scale="   92.669">  1  7  2 -1</clus>
<clus scale="   93.325">  2  5  1 -1</clus>
</clustering>
</event>
<event>
 9    1  0.1748361E-005  0.1358624E+03  0.7546771E-02  0.1223181E+00
          2   -1    0    0  502    0  0.00000000000E+00  0.00000000000E+00  0.68038381135E+02  0.68038381135E+02  0.00000000000E+00 0. -1.
         -2   -1    0    0    0  501 -0.00000000000E+00 -0.00000000000E+00 -0.44252730310E+03  0.44252730310E+03  0.00000000000E+00 0.  1.
         23    2    1    2    0    0 -0.91357733623E+02  0.28972229330E+02 -0.30204373269E+03  0.32922623567E+03  0.89296540975E+02 0.  0.
         23    2    1    2    0    0  0.59622308781E+02  0.22142287074E+00 -0.38264618686E+02  0.12631474571E+03  0.10457707783E+03 0.  0.
        -11    1    4    4    0    0 -0.25350025724E+02  0.13150757721E+02  0.66707193463E+01  0.29326860204E+02  0.00000000000E+00 0.  1.
         11    1    4    4    0    0  0.84972334505E+02 -0.12929334851E+02 -0.44935338032E+02  0.96987885506E+02  0.00000000000E+00 0. -1.
        -13    1    3    3    0    0 -0.45391953108E+02 -0.31326966568E+02 -0.13007488519E+03  0.14128440819E+03  0.00000000000E+00 0.  1.
         13    1    3    3    0    0 -0.45965780515E+02  0.60299195898E+02 -0.17196884750E+03  0.18794182747E+03  0.00000000000E+00 0. -1.
         21    1    1    2  502  501  0.31735424842E+02 -0.29193652201E+02 -0.34180570591E+02  0.55024702858E+02  0.00000000000E+00 0.  1.
<scales pt_clust_5="13000.00000" pt_clust_6="13000.00000" pt_clust_7="13000.00000" pt_clust_8="13000.00000" pt_clust_9="43.12084"></scales>
<clustering>
<clus scale="   43.121">  1  9  2 -1</clus>
<clus scale="   89.297">  7  8 -1 -1</clus>
<clus scale="  104.577">  5  6 -1 -1</clus>
<clus scale="  124.483">  2  7  1 -1</clus>
<clus scale="   43.121">  1  5  2 -1</clus>
</clustering>
</event>
<event>
 9    1  0.1748361E-005  0.9674080E+02  0.7546771E-02  0.1288914E+00
         -1   -1    0    0    0  501 -0.00000000000E+00  0.00000000000E+00  0.35336921721E+02  0.35336921721E+02  0.00000000000E+00 0.  1.
          1   -1    0    0  502    0  0.00000000000E+00 -0.00000000000E+00 -0.45870047934E+03  0.45870047934E+03  0.00000000000E+00 0. -1.
         23    2    1    2    0    0 -0.25393264691E+02  0.26122057560E+02 -0.21699969561E+03  0.23924730393E+03  0.93932022001E+02 0.  0.
         23    2    1    2    0    0  0.76240864217E+00 -0.13950727376E+02 -0.20781370831E+03  0.22727787435E+03  0.90958731020E+02 0.  0.
        -11    1    4    4    0    0  0.33920766411E+02 -0.82991068162E+01 -0.29188729956E+02  0.45513465308E+02  0.00000000000E+00 0.  1.
         11    1    4    4    0    0 -0.33158357768E+02 -0.56516205600E+01 -0.17862497835E+03  0.18176440905E+03  0.00000000000E+00 0. -1.
        -11    1    3    3    0    0  0.18183324088E+00  0.48209385580E+02 -0.18991964713E+03  0.19594297713E+03  0.00000000000E+00 0.  1.
         11    1    3    3    0    0 -0.25575097932E+02 -0.22087328020E+02 -0.27080048482E+02  0.43304326793E+02  0.00000000000E+00 0. -1.
         21    1    1    2  502  501  0.24630856049E+02 -0.12171330184E+02  0.14498462992E+01  0.27512222782E+02  0.00000000000E+00 0.  1.
<scales pt_clust_5="13000.00000" pt_clust_6="13000.00000" pt_clust_7="13000.00000" pt_clust_8="13000.00000" pt_clust_9="27.47399"></scales>
<clustering>
<clus scale="   27.474">  1  9  2 -1</clus>
<clus scale="   90.959">  5  6 -1 -1</clus>
<clus scale="   93.857">  2  5  1 -1</clus>
<clus scale="   93.932">  7  8 -1 -1</clus>
<clus scale="   93.857">  2  5  1 -1</clus>
</clustering>
</event>
<event>
 9    1  0.1748361E-005  0.9936404E+02  0.7546771E-02  0.1283392E+00
         -3   -1    0    0    0  501 -0.00000000000E+00  0.00000000000E+00  0.10832857312E+03  0.10832857312E+03  0.00000000000E+00 0.  1.
          3   -1    0    0  502    0  0.00000000000E+00 -0.00000000000E+00 -0.18177116668E+03  0.18177116668E+03  0.00000000000E+00 0. -1.
         23    2    1    2    0    0  0.12993247808E+02  0.30178969996E+02  0.25858103594E+02  0.10126935991E+03  0.92234738662E+02 0.  0.
         23    2    1    2    0    0 -0.37457048362E+02 -0.14847200357E+02 -0.11905290379E+03  0.15384909397E+03  0.88726996939E+02 0.  0.
        -13    1    4    4    0    0 -0.27618595576E+02 -0.52015067946E+02 -0.68486733245E+02  0.90326002600E+02  0.00000000000E+00 0.  1.
         13    1    4    4    0    0 -0.98384527860E+01  0.37167867590E+02 -0.50566170540E+02  0.63523091372E+02  0.00000000000E+00 0. -1.
        -13    1    3    3    0    0 -0.37225087768E+02  0.12848532770E+02 -0.52160301256E+01  0.39724034588E+02  0.00000000000E+00 0. -1.
         13    1    3    3    0    0  0.50218335575E+02  0.17330437226E+02  0.31074133720E+02  0.61545325321E+02  0.00000000000E+00 0.  1.
         21    1    1    2  502  501  0.24463800554E+02 -0.15331769639E+02  0.19752206625E+02  0.34981285917E+02  0.00000000000E+00 0.  1.
<scales pt_clust_5="13000.00000" pt_clust_6="13000.00000" pt_clust_7="13000.00000" pt_clust_8="13000.00000" pt_clust_9="28.87110"></scales>
<clustering>
<clus scale="   28.871">  1  9  2 -1</clus>
<clus scale="   88.727">  5  6 -1 -1</clus>
<clus scale="   92.235">  7  8 -1 -1</clus>
<clus scale="   96.117">  2  5  1 -1</clus>
<clus scale="   96.117">  2  5  1 -1</clus>
</clustering>
</event>
<event>
 9    1  0.1748361E-005  0.1907471E+03  0.7546771E-02  0.1158088E+00
         -1   -1    0    0    0  501 -0.00000000000E+00  0.00000000000E+00  0.31391196155E+03  0.31391196155E+03  0.00000000000E+00 0.  1.
          1   -1    0    0  502    0  0.00000000000E+00 -0.00000000000E+00 -0.15220340485E+03  0.15220340485E+03  0.00000000000E+00 0. -1.
         23    2    1    2    0    0 -0.17050202380E+03  0.38256576707E+01  0.89965215180E+02  0.21379301542E+03  0.92347916729E+02 0.  0.
         23    2    1    2    0    0  0.16269885215E+03 -0.29104531457E+02  0.13649562377E+02  0.18848820554E+03  0.89574007562E+02 0.  0.
        -11    1    3    3    0    0 -0.50657232133E+02  0.67900447041E+01  0.78084316028E+02  0.93324274892E+02  0.00000000000E+00 0. -1.
         11    1    3    3    0    0 -0.11984479167E+03 -0.29643870335E+01  0.11880899152E+02  0.12046874053E+03  0.00000000000E+00 0.  1.
        -11    1    4    4    0    0  0.75984538395E+01  0.22843689755E+02 -0.20847940855E+01  0.24164375199E+02  0.00000000000E+00 0.  1.
         11    1    4    4    0    0  0.15510039832E+03 -0.51948221212E+02  0.15734356463E+02  0.16432383034E+03  0.00000000000E+00 0. -1.
         21    1    1    2  502  501  0.78031716463E+01  0.25278873786E+02  0.58093779147E+02  0.63834145434E+02  0.00000000000E+00 0. -1.
<scales pt_clust_5="13000.00000" pt_clust_6="13000.00000" pt_clust_7="13000.00000" pt_clust_8="13000.00000" pt_clust_9="26.45583"></scales>
<clustering>
<clus scale="   26.456">  1  9  2 -1</clus>
<clus scale="   89.574">  7  8 -1 -1</clus>
<clus scale="   92.348">  5  6 -1 -1</clus>
<clus scale="  189.420">  2  7  1 -1</clus>
<clus scale="  189.420">  2  5  1 -1</clus>
</clustering>
</event>
<event>
 9    1  0.1748361E-005  0.1137312E+03  0.7546771E-02  0.1254135E+00
          1   -1    0    0  502    0  0.00000000000E+00  0.00000000000E+00  0.19380751349E+03  0.19380751349E+03  0.00000000000E+00 0. -1.
         -1   -1    0    0    0  501 -0.00000000000E+00 -0.00000000000E+00 -0.95292424101E+02  0.95292424101E+02  0.00000000000E+00 0.  1.
         23    2    1    2    0    0  0.44783148895E+02 -0.67819375411E+02  0.92818072093E+01  0.12347484327E+03  0.92492631438E+02 0.  0.
         23    2    1    2    0    0 -0.41437440898E+02  0.42928430739E+02  0.88248675042E+02  0.14049100710E+03  0.91596849053E+02 0.  0.
        -11    1    4    4    0    0  0.26831876916E+01  0.46248635128E+02  0.84146239852E+02  0.96055845364E+02  0.00000000000E+00 0. -1.
         11    1    4    4    0    0 -0.44120628589E+02 -0.33202043888E+01  0.41024351894E+01  0.44435161739E+02  0.00000000000E+00 0.  1.
        -13    1    3    3    0    0  0.43367451691E+02 -0.98816840051E+01  0.38267755902E+02  0.58675418079E+02  0.00000000000E+00 0. -1.
         13    1    3    3    0    0  0.14156972041E+01 -0.57937691406E+02 -0.28985948692E+02  0.64799425195E+02  0.00000000000E+00 0.  1.
         21    1    1    2  502  501 -0.33457079977E+01  0.24890944672E+02  0.98460713528E+00  0.25134087210E+02  0.00000000000E+00 0. -1.
<scales pt_clust_5="13000.00000" pt_clust_6="13000.00000" pt_clust_7="13000.00000" pt_clust_8="13000.00000" pt_clust_9="25.11479"></scales>
<clustering>
<clus scale="   25.115">  2  9  1 -1</clus>
<clus scale="   91.597">  5  6 -1 -1</clus>
<clus scale="   92.493">  7  8 -1 -1</clus>
<clus scale="  113.004">  1  5  2 -1</clus>
<clus scale="  113.004">  1  5  2 -1</clus>
</clustering>
</event>
<event>
 9    1  0.1748361E-005  0.1304796E+03  0.7546771E-02  0.1226906E+00
         -2   -1    0    0    0  501 -0.00000000000E+00  0.00000000000E+00  0.46822501667E+02  0.46822501667E+02  0.00000000000E+00 0.  1.
          2   -1    0    0  502    0  0.00000000000E+00 -0.00000000000E+00 -0.58783821149E+03  0.58783821149E+03  0.00000000000E+00 0. -1.
         23    2    1    2    0    0  0.20763510368E+02 -0.10611660525E+03 -0.15288652435E+03  0.20860703967E+03  0.91927963096E+02 0.  0.
         23    2    1    2    0    0 -0.93043926328E+00  0.87279057975E+02 -0.37501764344E+03  0.39572025246E+03  0.91311475915E+02 0.  0.
        -11    1    4    4    0    0 -0.25108662673E+02  0.93587250191E+02 -0.24778605974E+03  0.26605816985E+03  0.00000000000E+00 0. -1.
         11    1    4    4    0    0  0.24178223409E+02 -0.63081922158E+01 -0.12723158370E+03  0.12966208261E+03  0.00000000000E+00 0.  1.
        -13    1    3    3    0    0 -0.27058579417E+02 -0.80090407177E+02 -0.71671020256E+02  0.11083038927E+03  0.00000000000E+00 0.  1.
         13    1    3    3    0    0  0.47822089785E+02 -0.26026198075E+02 -0.81215504092E+02  0.97776650395E+02  0.00000000000E+00 0. -1.
         21    1    1    2  502  501 -0.19833071105E+02  0.18837547277E+02 -0.13111542031E+02  0.30333421028E+02  0.00000000000E+00 0. -1.
<scales pt_clust_5="13000.00000" pt_clust_6="13000.00000" pt_clust_7="13000.00000" pt_clust_8="13000.00000" pt_clust_9="27.35332"></scales>
<clustering>
<clus scale="   27.353">  1  9  2 -1</clus>
<clus scale="   91.311">  5  6 -1 -1</clus>
<clus scale="   91.928">  7  8 -1 -1</clus>
<clus scale="  130.046">  2  5  1 -1</clus>
<clus scale="  130.046">  2  5  1 -1</clus>
</clustering>
</event>
<event>
 9    1  0.1748361E-005  0.1062400E+03  0.7546771E-02  0.1268774E+00
         -1   -1    0    0    0  501 -0.00000000000E+00  0.00000000000E+00  0.53554785696E+02  0.53554785696E+02  0.00000000000E+00 0.  1.
          1   -1    0    0  502    0  0.00000000000E+00 -0.00000000000E+00 -0.34085513063E+03  0.34085513063E+03  0.00000000000E+00 0. -1.
         23    2    1    2    0    0  0.31027296738E+02 -0.34526547961E+02 -0.37816369888E+02  0.11172925172E+03  0.94332243704E+02 0.  0.
         23    2    1    2    0    0 -0.53103153745E+02  0.25879781906E+02 -0.20484382279E+03  0.23213510873E+03  0.91847748571E+02 0.  0.
        -11    1    3    3    0    0  0.35689915624E+02  0.38529306147E+00  0.22277657918E+02  0.42073894166E+02  0.00000000000E+00 0.  1.
         11    1    3    3    0    0 -0.46626188869E+01 -0.34911841022E+02 -0.60094027806E+02  0.69655357557E+02  0.00000000000E+00 0. -1.
        -13    1    4    4    0    0 -0.36145719507E+02 -0.13019583151E+02 -0.21667683939E+02  0.44107948392E+02  0.00000000000E+00 0.  1.
         13    1    4    4    0    0 -0.16957434238E+02  0.38899365057E+02 -0.18317613885E+03  0.18802716033E+03  0.00000000000E+00 0. -1.
         21    1    1    2  502  501  0.22075857007E+02  0.86467660546E+01 -0.44640152250E+02  0.50545555875E+02  0.00000000000E+00 0. -1.
<scales pt_clust_5="13000.00000" pt_clust_6="13000.00000" pt_clust_7="13000.00000" pt_clust_8="13000.00000" pt_clust_9="23.70886"></scales>
<clustering>
<clus scale="   23.709">  2  9  1 -1</clus>
<clus scale="   91.848">  7  8 -1 -1</clus>
<clus scale="   94.332">  5  6 -1 -1</clus>
<clus scale="  104.040">  2  7  1 -1</clus>
<clus scale="   23.709">  2  5  1 -1</clus>
</clustering>
</event>
<event>
 9    1  0.2646124E-005  0.1902475E+03  0.7546771E-02  0.1158274E+00
          1   -1    0    0  502    0  0.00000000000E+00  0.00000000000E+00  0.59361777238E+03  0.59361777238E+03  0.00000000000E+00 0. -1.
         -1   -1    0    0    0  501 -0.00000000000E+00 -0.00000000000E+00 -0.16584490107E+03  0.16584490107E+03  0.00000000000E+00 0.  1.
         23    2    1    2    0    0  0.15738665210E+03  0.26325218906E+01 -0.71261269819E+02  0.19621929781E+03  0.92985782919E+02 0.  0.
         23    2    1    2    0    0 -0.16314632396E+03 -0.37160556504E+02  0.49138490742E+03  0.52741224713E+03  0.93310884687E+02 0.  0.
        -11    1    3    3    0    0  0.10430729196E+03  0.49974582180E+01 -0.92010524644E+02  0.13917946109E+03  0.00000000000E+00 0.  1.
         11    1    3    3    0    0  0.53079360143E+02 -0.23649363274E+01  0.20749254825E+02  0.57039836718E+02  0.00000000000E+00 0. -1.
        -11    1    4    4    0    0 -0.12049227859E+03 -0.40522657587E+02  0.45101052946E+03  0.46858400811E+03  0.00000000000E+00 0. -1.
         11    1    4    4    0    0 -0.42654045367E+02  0.33621010833E+01  0.40374377962E+02  0.58828239015E+02  0.00000000000E+00 0.  1.
         21    1    1    2  502  501  0.57596718546E+01  0.34528034613E+02  0.76492337008E+01  0.35831128511E+02  0.00000000000E+00 0.  1.
<scales pt_clust_5="13000.00000" pt_clust_6="13000.00000" pt_clust_7="13000.00000" pt_clust_8="13000.00000" pt_clust_9="35.00513"></scales>
<clustering>
<clus scale="   35.005">  2  9  1 -1</clus>
<clus scale="   92.986">  5  6 -1 -1</clus>
<clus scale="   93.311">  7  8 -1 -1</clus>
<clus scale="  190.088">  2  5  1 -1</clus>
<clus scale="  190.248">  1  5  2 -1</clus>
</clustering>
</event>
<event>
 9    1  0.1748361E-005  0.1004965E+03  0.7546771E-02  0.1280195E+00
         -3   -1    0    0    0  501 -0.00000000000E+00  0.00000000000E+00  0.54667275841E+02  0.54667275841E+02  0.00000000000E+00 0.  1.
          3   -1    0    0  502    0  0.00000000000E+00 -0.00000000000E+00 -0.29842093434E+03  0.29842093434E+03  0.00000000000E+00 0. -1.
         23    2    1    2    0    0 -0.55460392112E+02  0.23929567905E+02 -0.71202308898E+02  0.13214810231E+03  0.93514024819E+02 0.  0.
         23    2    1    2    0    0  0.23405918604E+02 -0.12408287286E+02 -0.15656168130E+03  0.18331167884E+03  0.91595900173E+02 0.  0.
        -13    1    3    3    0    0 -0.44239221067E+02 -0.31138359060E+02 -0.43887539928E+02  0.69662200988E+02  0.00000000000E+00 0.  1.
         13    1    3    3    0    0 -0.11221171044E+02  0.55067926965E+02 -0.27314768970E+02  0.62485901320E+02  0.00000000000E+00 0. -1.
        -13    1    4    4    0    0 -0.25180702253E+02 -0.16165587391E+02 -0.11633520792E+03  0.12012191550E+03  0.00000000000E+00 0.  1.
         13    1    4    4    0    0  0.48586620856E+02  0.37573001050E+01 -0.40226473379E+02  0.63189763339E+02  0.00000000000E+00 0. -1.
         21    1    1    2  502  501  0.32054473508E+02 -0.11521280619E+02 -0.15989668299E+02  0.37628429030E+02  0.00000000000E+00 0. -1.
<scales pt_clust_5="13000.00000" pt_clust_6="13000.00000" pt_clust_7="13000.00000" pt_clust_8="13000.00000" pt_clust_9="34.06214"></scales>
<clustering>
<clus scale="   34.062">  1  9  2 -1</clus>
<clus scale="   91.596">  7  8 -1 -1</clus>
<clus scale="   93.514">  5  6 -1 -1</clus>
<clus scale="   98.714">  2  7  1 -1</clus>
<clus scale="   98.714">  2  5  1 -1</clus>
</clustering>
</event>
<event>
 9    1  0.1748361E-005  0.1889960E+03  0.7546771E-02  0.1159651E+00
          2   -1    0    0  502    0  0.00000000000E+00  0.00000000000E+00  0.80206372411E+03  0.80206372411E+03  0.00000000000E+00 0. -1.
         -2   -1    0    0    0  501 -0.00000000000E+00 -0.00000000000E+00 -0.20905135968E+03  0.20905135968E+03  0.00000000000E+00 0.  1.
         23    2    1    2    0    0  0.12549899546E+03 -0.53650383119E+02 -0.74007451299E+02  0.18068758967E+03  0.92425866202E+02 0.  0.
         23    2    1    2    0    0 -0.15295429391E+03  0.68414922047E+02  0.73310325834E+03  0.75736035779E+03  0.89881625349E+02 0.  0.
        -11    1    3    3    0    0  0.86455805533E+02 -0.75853049104E+02 -0.32469336858E+02  0.11950961972E+03  0.00000000000E+00 0.  1.
         11    1    3    3    0    0  0.39043189927E+02  0.22202665985E+02 -0.41538114442E+02  0.61177969956E+02  0.00000000000E+00 0. -1.
        -13    1    4    4    0    0 -0.10717295017E+03  0.53556260280E+02  0.65306683716E+03  0.66396581844E+03  0.00000000000E+00 0. -1.
         13    1    4    4    0    0 -0.45781343740E+02  0.14858661767E+02  0.80036421185E+02  0.93394539349E+02  0.00000000000E+00 0.  1.
         21    1    1    2  502  501  0.27455298452E+02 -0.14764538928E+02 -0.66083442617E+02  0.73067136327E+02  0.00000000000E+00 0.  1.
<scales pt_clust_5="13000.00000" pt_clust_6="13000.00000" pt_clust_7="13000.00000" pt_clust_8="13000.00000" pt_clust_9="31.17347"></scales>
<clustering>
<clus scale="   31.173">  2  9  1 -1</clus>
<clus scale="   89.882">  7  8 -1 -1</clus>
<clus scale="   92.426">  5  6 -1 -1</clus>
<clus scale="  187.765">  1  7  2 -1</clus>
<clus scale="  187.765">  1  5  2 -1</clus>
</clustering>
</event>
<event>
 9    1  0.1748361E-005  0.1186077E+03  0.7546771E-02  0.1255710E+00
          1   -1    0    0  502    0  0.00000000000E+00  0.00000000000E+00  0.25144206360E+02  0.25144206360E+02  0.00000000000E+00 0. -1.
         -1   -1    0    0    0  501 -0.00000000000E+00 -0.00000000000E+00 -0.67596945154E+03  0.67596945154E+03  0.00000000000E+00 0.  1.
         23    2    1    2    0    0 -0.36554557502E+02 -0.29579166576E+02 -0.31022530089E+03  0.33368931796E+03  0.11356786887E+03 0.  0.
         23    2    1    2    0    0  0.26921509546E+02  0.82261105198E+01 -0.16437944684E+03  0.18965366649E+03  0.90307663576E+02 0.  0.
        -11    1    3    3    0    0  0.22160487837E+02  0.17444993771E+01 -0.70856722419E+01  0.23331036205E+02  0.00000000000E+00 0. -1.
         11    1    3    3    0    0 -0.58715045339E+02 -0.31323665953E+02 -0.30313962865E+03  0.31035828176E+03  0.00000000000E+00 0.  1.
        -13    1    4    4    0    0 -0.30294815077E+01 -0.37840837295E+02 -0.50170310877E+02  0.62913963624E+02  0.00000000000E+00 0.  1.
         13    1    4    4    0    0  0.29950991054E+02  0.46066947815E+02 -0.11420913596E+03  0.12673970287E+03  0.00000000000E+00 0. -1.
         21    1    1    2  502  501  0.96330479552E+01  0.21353056056E+02 -0.17622049745E+03  0.17777067345E+03  0.00000000000E+00 0. -1.
<scales pt_clust_5="13000.00000" pt_clust_6="13000.00000" pt_clust_7="13000.00000" pt_clust_8="13000.00000" pt_clust_9="23.42538"></scales>
<clustering>
<clus scale="   23.425">  2  9  1 -1</clus>
<clus scale="   90.308">  7  8 -1 -1</clus>
<clus scale="   96.569">  1  7  2 -1</clus>
<clus scale="  113.568">  5  6 -1 -1</clus>
<clus scale="   96.569">  1  5  2 -1</clus>
</clustering>
</event>
<event>
 9    1  0.1748361E-005  0.9543058E+02  0.7546771E-02  0.1296875E+00
         -2   -1    0    0    0  501 -0.00000000000E+00  0.00000000000E+00  0.12907541533E+03  0.12907541533E+03  0.00000000000E+00 0.  1.
          2   -1    0    0  502    0  0.00000000000E+00 -0.00000000000E+00 -0.26883889004E+03  0.26883889004E+03  0.00000000000E+00 0. -1.
         23    2    1    2    0    0 -0.72107050292E+01 -0.19979681208E+02  0.47520688293E+02  0.10631889346E+03  0.92705498021E+02 0.  0.
         23    2    1    2    0    0 -0.25609553079E+02 -0.42571654918E+01 -0.22214098314E+03  0.23793358199E+03  0.81189903217E+02 0.  0.
        -11    1    4    4    0    0 -0.47328151124E+02 -0.26396208376E+02 -0.14452122573E+03  0.15434733036E+03  0.00000000000E+00 0.  1.
         11    1    4    4    0    0  0.21718598045E+02  0.22139042884E+02 -0.77619757410E+02  0.83586251628E+02  0.00000000000E+00 0. -1.
        -13    1    3    3    0    0  0.14569565316E+02 -0.31690855319E+02 -0.15836716002E+02  0.38306450085E+02  0.00000000000E+00 0. -1.
         13    1    3    3    0    0 -0.21780270345E+02  0.11711174111E+02  0.63357404295E+02  0.68012443379E+02  0.00000000000E+00 0.  1.
         21    1    1    2  502  501  0.32820258108E+02  0.24236846700E+02  0.34856820135E+02  0.53661829918E+02  0.00000000000E+00 0. -1.
<scales pt_clust_5="13000.00000" pt_clust_6="13000.00000" pt_clust_7="13000.00000" pt_clust_8="13000.00000" pt_clust_9="40.79944"></scales>
<clustering>
<clus scale="   40.799">  1  9  2 -1</clus>
<clus scale="   81.190">  5  6 -1 -1</clus>
<clus scale="   84.288">  2  5  1 -1</clus>
<clus scale="   92.705">  7  8 -1 -1</clus>
<clus scale="   84.288">  2  5  1 -1</clus>
</clustering>
</event>
<event>
 9    1  0.1748361E-005  0.9773403E+02  0.7546771E-02  0.1286332E+00
         -1   -1    0    0    0  501 -0.00000000000E+00  0.00000000000E+00  0.14612814557E+03  0.14612814557E+03  0.00000000000E+00 0.  1.
          1   -1    0    0  502    0  0.00000000000E+00 -0.00000000000E+00 -0.10939793338E+03  0.10939793338E+03  0.00000000000E+00 0. -1.
         23    2    1    2    0    0  0.45921705648E+02  0.25194681786E+02  0.45719962648E+02  0.11519682657E+03  0.91849980005E+02 0.  0.
         23    2    1    2    0    0 -0.27828564420E+02  0.81955036235E+01 -0.27552630384E+02  0.98058142240E+02  0.89524614164E+02 0.  0.
        -11    1    4    4    0    0  0.18482177510E+02  0.35174912846E+02 -0.55477837709E+01  0.40120359968E+02  0.00000000000E+00 0. -1.
         11    1    4    4    0    0 -0.46310741930E+02 -0.26979409222E+02 -0.22004846613E+02  0.57937782272E+02  0.00000000000E+00 0.  1.
        -13    1    3    3    0    0  0.61907168856E+01 -0.32572561614E+02  0.26649454748E+02  0.42538102731E+02  0.00000000000E+00 0.  1.
         13    1    3    3    0    0  0.39730988762E+02  0.57767243399E+02  0.19070507901E+02  0.72658723837E+02  0.00000000000E+00 0. -1.
         21    1    1    2  502  501 -0.18093141228E+02 -0.33390185409E+02  0.18562879930E+02  0.42271110140E+02  0.00000000000E+00 0. -1.
<scales pt_clust_5="13000.00000" pt_clust_6="13000.00000" pt_clust_7="13000.00000" pt_clust_8="13000.00000" pt_clust_9="37.97718"></scales>
<clustering>
<clus scale="   37.977">  1  9  2 -1</clus>
<clus scale="   89.525">  5  6 -1 -1</clus>
<clus scale="   91.850">  7  8 -1 -1</clus>
<clus scale="   95.552">  2  5  1 -1</clus>
<clus scale="   95.552">  2  5  1 -1</clus>
</clustering>
</event>
<event>
 9    1  0.1804336E-005  0.5693844E+03  0.7546771E-02  0.9971216E-01
          1   -1    0    0  502    0  0.00000000000E+00  0.00000000000E+00  0.19771983106E+04  0.19771983106E+04  0.00000000000E+00 0. -1.
         -1   -1    0    0    0  501 -0.00000000000E+00 -0.00000000000E+00 -0.18126750058E+03  0.18126750058E+03  0.00000000000E+00 0.  1.
         23    2    1    2    0    0 -0.56921769544E+03 -0.82380382991E+02  0.68100998712E+03  0.89587165639E+03  0.89532730664E+02 0.  0.
         23    2    1    2    0    0  0.54892942907E+03  0.72862953101E+02  0.11020831141E+04  0.12367677731E+04  0.91513966775E+02 0.  0.
        -11    1    3    3    0    0 -0.59213730964E+02 -0.27508035270E+02  0.11317604788E+03  0.13065900563E+03  0.00000000000E+00 0.  1.
         11    1    3    3    0    0 -0.51000396448E+03 -0.54872347721E+02  0.56783393924E+03  0.76521265076E+03  0.00000000000E+00 0. -1.
        -11    1    4    4    0    0  0.50519574469E+03  0.69068819991E+02  0.94646212900E+03  0.10750738598E+04  0.00000000000E+00 0.  1.
         11    1    4    4    0    0  0.43733684382E+02  0.37941331102E+01  0.15562098512E+03  0.16169391332E+03  0.00000000000E+00 0. -1.
         21    1    1    2  502  501  0.20288266372E+02  0.95174298895E+01  0.12837708754E+02  0.25826381670E+02  0.00000000000E+00 0.  1.
<scales pt_clust_5="13000.00000" pt_clust_6="13000.00000" pt_clust_7="13000.00000" pt_clust_8="13000.00000" pt_clust_9="22.40971"></scales>
<clustering>
<clus scale="   22.410">  2  9  1 -1</clus>
<clus scale="   89.533">  5  6 -1 -1</clus>
<clus scale="   91.514">  7  8 -1 -1</clus>
<clus scale="  569.069">  2  5  1 -1</clus>
<clus scale="  569.384">  1  5  2 -1</clus>
</clustering>
</event>
<event>
 9    1  0.1748361E-005  0.1580516E+03  0.7546771E-02  0.1202570E+00
          1   -1    0    0  502    0  0.00000000000E+00  0.00000000000E+00  0.78630379764E+03  0.78630379764E+03  0.00000000000E+00 0. -1.
         -1   -1    0    0    0  501 -0.00000000000E+00 -0.00000000000E+00 -0.13526675662E+03  0.13526675662E+03  0.00000000000E+00 0.  1.
         23    2    1    2    0    0 -0.59499642952E+02  0.53860259409E+02  0.20377282290E+02  0.12421198578E+03  0.92586439191E+02 0.  0.
         23    2    1    2    0    0 -0.54299939241E+02 -0.11977185192E+03  0.64544900492E+03  0.66502034748E+03  0.91399478619E+02 0.  0.
        -13    1    3    3    0    0 -0.18766556462E+01  0.23567771117E+02 -0.32606281825E+02  0.40275691009E+02  0.00000000000E+00 0.  1.
         13    1    3    3    0    0 -0.57622987306E+02  0.30292488292E+02  0.52983564115E+02  0.83936294767E+02  0.00000000000E+00 0. -1.
        -13    1    4    4    0    0  0.23573602977E+02 -0.50983109417E+02  0.23627736875E+03  0.24286207441E+03  0.00000000000E+00 0.  1.
         13    1    4    4    0    0 -0.77873542218E+02 -0.68788742505E+02  0.40917163617E+03  0.42215827307E+03  0.00000000000E+00 0. -1.
         21    1    1    2  502  501  0.11379958219E+03  0.65911592514E+02 -0.14789246197E+02  0.13233822100E+03  0.00000000000E+00 0.  1.
<scales pt_clust_5="13000.00000" pt_clust_6="13000.00000" pt_clust_7="13000.00000" pt_clust_8="13000.00000" pt_clust_9="128.94358"></scales>
<clustering>
<clus scale="   91.399">  7  8 -1 -1</clus>
<clus scale="   92.586">  5  6 -1 -1</clus>
<clus scale="  122.529">  2  5  1 -1</clus>
<clus scale="  128.944">  2  9  1 -1</clus>
<clus scale="  158.052">  1  5  2 -1</clus>
</clustering>
</event>
<event>
 9    1  0.1748361E-005  0.1699679E+03  0.7546771E-02  0.1199835E+00
          2   -1    0    0  502    0  0.00000000000E+00  0.00000000000E+00  0.88493254727E+03  0.88493254727E+03  0.00000000000E+00 0. -1.
         -2   -1    0    0    0  501 -0.00000000000E+00 -0.00000000000E+00 -0.53979033540E+02  0.53979033540E+02  0.00000000000E+00 0.  1.
         23    2    1    2    0    0 -0.12252841800E+03  0.11977108223E+03  0.24517445656E+03  0.31330348543E+03  0.93221427125E+02 0.  0.
         23    2    1    2    0    0  0.57118647982E+02 -0.26682472933E+02  0.31518738226E+03  0.33207141671E+03  0.83389720905E+02 0.  0.
        -13    1    4    4    0    0  0.39971717845E+02  0.13990708749E+02  0.62112493220E+02  0.75176059838E+02  0.00000000000E+00 0.  1.
         13    1    4    4    0    0  0.17146930138E+02 -0.40673181681E+02  0.25307488904E+03  0.25689535688E+03  0.00000000000E+00 0. -1.
        -13    1    3    3    0    0 -0.92658796235E+02  0.94037218013E+02  0.10796983905E+03  0.17054658319E+03  0.00000000000E+00 0.  1.
         13    1    3    3    0    0 -0.29869621766E+02  0.25733864214E+02  0.13720461751E+03  0.14275690224E+03  0.00000000000E+00 0. -1.
         21    1    1    2  502  501  0.65409770018E+02 -0.93088609295E+02  0.27059167490E+03  0.29353667866E+03  0.00000000000E+00 0. -1.
<scales pt_clust_5="13000.00000" pt_clust_6="13000.00000" pt_clust_7="13000.00000" pt_clust_8="13000.00000" pt_clust_9="142.12261"></scales>
<clustering>
<clus scale="   83.390">  5  6 -1 -1</clus>
<clus scale="   93.221">  7  8 -1 -1</clus>
<clus scale="  104.539">  1  5  2 -1</clus>
<clus scale="  142.123">  1  9  2 -1</clus>
<clus scale="  104.539">  1  5  2 -1</clus>
</clustering>
</event>
<event>
 9    1  0.1748361E-005  0.1345910E+03  0.7546771E-02  0.1220934E+00
         -3   -1    0    0    0  501 -0.00000000000E+00  0.00000000000E+00  0.66221526219E+03  0.66221526219E+03  0.00000000000E+00 0.  1.
          3   -1    0    0  502    0  0.00000000000E+00 -0.00000000000E+00 -0.69961539836E+02  0.69961539836E+02  0.00000000000E+00 0. -1.
         23    2    1    2    0    0  0.80366774782E+02 -0.53563251144E+02  0.42036859482E+03  0.44092795924E+03  0.91541626416E+02 0.  0.
         23    2    1    2    0    0 -0.69730751863E+02  0.70760567968E+02  0.17843298010E+02  0.13588553331E+03  0.90978344366E+02 0.  0.
        -11    1    3    3    0    0  0.32407640878E+02  0.19789398508E+02  0.68617498278E+02  0.78423443883E+02  0.00000000000E+00 0. -1.
         11    1    3    3    0    0  0.47959133904E+02 -0.73352649652E+02  0.35175109654E+03  0.36250451535E+03  0.00000000000E+00 0.  1.
        -13    1    4    4    0    0 -0.70824903199E+02  0.35347240101E+02  0.45174000937E+02  0.91138820799E+02  0.00000000000E+00 0.  1.
         13    1    4    4    0    0  0.10941513360E+01  0.35413327866E+02 -0.27330702927E+02  0.44746712507E+02  0.00000000000E+00 0. -1.
         21    1    1    2  502  501 -0.10636022918E+02 -0.17197316824E+02  0.15404182953E+03  0.15536330948E+03  0.00000000000E+00 0.  1.
<scales pt_clust_5="13000.00000" pt_clust_6="13000.00000" pt_clust_7="13000.00000" pt_clust_8="13000.00000" pt_clust_9="20.22060"></scales>
<clustering>
<clus scale="   20.221">  1  9  2 -1</clus>
<clus scale="   90.978">  7  8 -1 -1</clus>
<clus scale="   91.542">  5  6 -1 -1</clus>
<clus scale="  134.209">  2  7  1 -1</clus>
<clus scale="  134.209">  2  5  1 -1</clus>
</clustering>
</event>
<event>
 9    1  0.1748361E-005  0.1429006E+03  0.7546771E-02  0.1209989E+00
         -3   -1    0    0    0  501 -0.00000000000E+00  0.00000000000E+00  0.11593572442E+03  0.11593572442E+03  0.00000000000E+00 0.  1.
          3   -1    0    0  502    0  0.00000000000E+00 -0.00000000000E+00 -0.23005334169E+03  0.23005334169E+03  0.00000000000E+00 0. -1.
         23    2    1    2    0    0 -0.66222511827E+02  0.70481094349E+02  0.26748710743E+01  0.13165443386E+03  0.89290141032E+02 0.  0.
         23    2    1    2    0    0  0.86015008961E+02 -0.78368044626E+02 -0.12253115725E+03  0.19226929182E+03  0.91724936062E+02 0.  0.
        -11    1    4    4    0    0  0.42877775359E+01 -0.63575764123E+02 -0.40310951701E+02  0.75400501636E+02  0.00000000000E+00 0.  1.
         11    1    4    4    0    0  0.81727231425E+02 -0.14792280504E+02 -0.82220205552E+02  0.11686879019E+03  0.00000000000E+00 0. -1.
        -11    1    3    3    0    0 -0.26399336609E+02 -0.16939330541E+01 -0.32607472580E+02  0.41988589530E+02  0.00000000000E+00 0. -1.
         11    1    3    3    0    0 -0.39823175218E+02  0.72175027403E+02  0.35282343655E+02  0.89665844327E+02  0.00000000000E+00 0.  1.
         21    1    1    2  502  501 -0.19792497134E+02  0.78869502776E+01  0.57386689139E+01  0.22065340432E+02  0.00000000000E+00 0. -1.
<scales pt_clust_5="13000.00000" pt_clust_6="13000.00000" pt_clust_7="13000.00000" pt_clust_8="13000.00000" pt_clust_9="21.30603"></scales>
<clustering>
<clus scale="   21.306">  1  9  2 -1</clus>
<clus scale="   89.290">  7  8 -1 -1</clus>
<clus scale="   91.725">  5  6 -1 -1</clus>
<clus scale="  141.350">  1  7  2 -1</clus>
<clus scale="  142.901">  2  5  1 -1</clus>
</clustering>
</event>
<event>
 9    1  0.1748361E-005  0.1026098E+03  0.7546771E-02  0.1277366E+00
         -1   -1    0    0    0  501 -0.00000000000E+00  0.00000000000E+00  0.12892750008E+03  0.12892750008E+03  0.00000000000E+00 0.  1.
          1   -1    0    0  502    0  0.00000000000E+00 -0.00000000000E+00 -0.36424099279E+03  0.36424099279E+03  0.00000000000E+00 0. -1.
         23    2    1    2    0    0 -0.49225497850E+02  0.30240229369E+01  0.82883450550E+02  0.12894946531E+03  0.85592078341E+02 0.  0.
         23    2    1    2    0    0  0.27483910452E+02  0.54276352234E+02 -0.24776182517E+03  0.27085342642E+03  0.90963557782E+02 0.  0.
        -11    1    3    3    0    0 -0.50801606496E+02 -0.34296097983E+02  0.54754462463E+02  0.82189273747E+02  0.00000000000E+00 0.  1.
         11    1    3    3    0    0  0.15761086459E+01  0.37320120920E+02  0.28128988087E+02  0.46760191560E+02  0.00000000000E+00 0. -1.
        -11    1    4    4    0    0 -0.25430364912E+02 -0.19687112772E+01 -0.27792475467E+02  0.37722685167E+02  0.00000000000E+00 0.  1.
         11    1    4    4    0    0  0.52914275364E+02  0.56245063512E+02 -0.21996934970E+03  0.23313074125E+03  0.00000000000E+00 0. -1.
         21    1    1    2  502  501  0.21741587398E+02 -0.57300375171E+02 -0.70435118088E+02  0.93365601146E+02  0.00000000000E+00 0. -1.
<scales pt_clust_5="13000.00000" pt_clust_6="13000.00000" pt_clust_7="13000.00000" pt_clust_8="13000.00000" pt_clust_9="61.28646"></scales>
<clustering>
<clus scale="   61.286">  2  9  1 -1</clus>
<clus scale="   85.592">  5  6 -1 -1</clus>
<clus scale="   90.964">  7  8 -1 -1</clus>
<clus scale="   97.880">  1  5  2 -1</clus>
<clus scale="   61.286">  2  5  1 -1</clus>
</clustering>
</event>
<event>
 9    1  0.1748361E-005  0.1166405E+03  0.7546771E-02  0.1254892E+00
         -1   -1    0    0    0  501 -0.00000000000E+00  0.00000000000E+00  0.31790795662E+02  0.31790795662E+02  0.00000000000E+00 0.  1.
          1   -1    0    0  502    0  0.00000000000E+00 -0.00000000000E+00 -0.68335743620E+03  0.68335743620E+03  0.00000000000E+00 0. -1.
         23    2    1    2    0    0  0.20406403228E+02  0.26225645706E+02 -0.16004628172E+03  0.19745863994E+03  0.11077407823E+03 0.  0.
         23    2    1    2    0    0  0.21750268756E+02 -0.37864483653E+02 -0.42556379890E+03  0.43855100881E+03  0.96517599839E+02 0.  0.
        -11    1    3    3    0    0 -0.45448700759E+02  0.99848252830E+01 -0.50998454127E+02  0.69037116539E+02  0.00000000000E+00 0. -1.
         11    1    3    3    0    0  0.65855103987E+02  0.16240820423E+02 -0.10904782760E+03  0.12842152340E+03  0.00000000000E+00 0.  1.
        -11    1    4    4    0    0  0.59060796106E+02 -0.22004745976E+02 -0.21188606903E+03  0.22106128727E+03  0.00000000000E+00 0.  1.
         11    1    4    4    0    0 -0.37310527351E+02 -0.15859737676E+02 -0.21367772988E+03  0.21748972154E+03  0.00000000000E+00 0. -1.
         21    1    1    2  502  501 -0.42156671983E+02  0.11638837947E+02 -0.65956559913E+02  0.79138583112E+02  0.00000000000E+00 0.  1.
<scales pt_clust_5="13000.00000" pt_clust_6="13000.00000" pt_clust_7="13000.00000" pt_clust_8="13000.00000" pt_clust_9="43.73383"></scales>
<clustering>
<clus scale="   43.734">  1  9  2 -1</clus>
<clus scale="   96.518">  7  8 -1 -1</clus>
<clus scale="  103.198">  2  7  1 -1</clus>
<clus scale="  110.774">  5  6 -1 -1</clus>
<clus scale="  103.198">  2  5  1 -1</clus>
</clustering>
</event>
<event>
 9    1  0.1748361E-005  0.1121222E+03  0.7546771E-02  0.1258101E+00
          2   -1    0    0  502    0  0.00000000000E+00  0.00000000000E+00  0.33667962541E+03  0.33667962541E+03  0.00000000000E+00 0. -1.
         -2   -1    0    0    0  501 -0.00000000000E+00 -0.00000000000E+00 -0.66055460625E+02  0.66055460625E+02  0.00000000000E+00 0.  1.
         23    2    1    2    0    0  0.69559600042E+02 -0.95958616889E+01  0.13615800159E+03  0.18167904075E+03  0.97660913022E+02 0.  0.
         23    2    1    2    0    0 -0.43698888282E+02  0.90417544627E+01  0.15588151365E+03  0.18747479036E+03  0.94108472325E+02 0.  0.
        -11    1    3    3    0    0  0.35637778389E+02 -0.51821374266E+02  0.93734905365E+02  0.11287930972E+03  0.00000000000E+00 0.  1.
         11    1    3    3    0    0  0.33921821653E+02  0.42225512577E+02  0.42423096222E+02  0.68799731030E+02  0.00000000000E+00 0. -1.
        -11    1    4    4    0    0  0.18211352443E+02 -0.17453005053E+02  0.10630793029E+02  0.27372878979E+02  0.00000000000E+00 0.  1.
         11    1    4    4    0    0 -0.61910240724E+02  0.26494759516E+02  0.14525072062E+03  0.16010191138E+03  0.00000000000E+00 0. -1.
         21    1    1    2  502  501 -0.25860711760E+02  0.55410722620E+00 -0.21415350447E+02  0.33581254925E+02  0.00000000000E+00 0.  1.
<scales pt_clust_5="13000.00000" pt_clust_6="13000.00000" pt_clust_7="13000.00000" pt_clust_8="13000.00000" pt_clust_9="25.86665"></scales>
<clustering>
<clus scale="   25.867">  2  9  1 -1</clus>
<clus scale="   94.108">  7  8 -1 -1</clus>
<clus scale="   97.661">  5  6 -1 -1</clus>
<clus scale="  109.042">  1  7  2 -1</clus>
<clus scale="  109.042">  1  5  2 -1</clus>
</clustering>
</event>
<event>
 9    1  0.1748361E-005  0.1430302E+03  0.7546771E-02  0.1209780E+00
         -2   -1    0    0    0  501 -0.00000000000E+00  0.00000000000E+00  0.52316969543E+02  0.52316969543E+02  0.00000000000E+00 0.  1.
          2   -1    0    0  502    0  0.00000000000E+00 -0.00000000000E+00 -0.58910938315E+03  0.58910938315E+03  0.00000000000E+00 0. -1.
         23    2    1    2    0    0  0.14120514407E+03 -0.82439605865E+00 -0.27438176932E+03  0.32212024366E+03  0.92393309810E+02 0.  0.
         23    2    1    2    0    0 -0.85406196155E+02  0.41068994325E+01 -0.20063468673E+03  0.23599604752E+03  0.90159702550E+02 0.  0.
        -11    1    4    4    0    0 -0.41622455916E+02  0.18390007041E+02 -0.17976268621E+03  0.18543258762E+03  0.00000000000E+00 0.  1.
         11    1    4    4    0    0 -0.43783740238E+02 -0.14283107608E+02 -0.20872000512E+02  0.50563459905E+02  0.00000000000E+00 0. -1.
        -13    1    3    3    0    0  0.12257888178E+02 -0.33543459107E+02 -0.57426130146E+02  0.67625290351E+02  0.00000000000E+00 0.  1.
         13    1    3    3    0    0  0.12894725589E+03  0.32719063049E+02 -0.21695563918E+03  0.25449495331E+03  0.00000000000E+00 0. -1.
         21    1    1    2  502  501 -0.55798947915E+02 -0.32825033738E+01 -0.61775957559E+02  0.83310061512E+02  0.00000000000E+00 0.  1.
<scales pt_clust_5="13000.00000" pt_clust_6="13000.00000" pt_clust_7="13000.00000" pt_clust_8="13000.00000" pt_clust_9="55.89541"></scales>
<clustering>
<clus scale="   55.895">  1  9  2 -1</clus>
<clus scale="   90.160">  5  6 -1 -1</clus>
<clus scale="   92.393">  7  8 -1 -1</clus>
<clus scale="  141.598">  2  5  1 -1</clus>
<clus scale="  141.598">  2  5  1 -1</clus>
</clustering>
</event>
<event>
 9    1  0.1748361E-005  0.1170131E+03  0.7546771E-02  0.1251031E+00
         -2   -1    0    0    0  501 -0.00000000000E+00  0.00000000000E+00  0.82680583765E+02  0.82680583765E+02  0.00000000000E+00 0.  1.
          2   -1    0    0  502    0  0.00000000000E+00 -0.00000000000E+00 -0.50338758498E+03  0.50338758498E+03  0.00000000000E+00 0. -1.
         23    2    1    2    0    0 -0.44553834486E+02 -0.31186562236E+02 -0.38840465987E+02  0.10745013699E+03  0.84138601781E+02 0.  0.
         23    2    1    2    0    0  0.49453347853E+02  0.57680703493E+02 -0.41726369445E+03  0.43413316204E+03  0.92681791682E+02 0.  0.
        -11    1    3    3    0    0 -0.37740632831E+02  0.19652964073E+02 -0.36568696255E+02  0.56105827765E+02  0.00000000000E+00 0. -1.
         11    1    3    3    0    0 -0.68132016549E+01 -0.50839526309E+02 -0.22717697319E+01  0.51344309225E+02  0.00000000000E+00 0.  1.
        -13    1    4    4    0    0 -0.27431575853E+01 -0.20352254018E+02 -0.35656720175E+02  0.41147792781E+02  0.00000000000E+00 0.  1.
         13    1    4    4    0    0  0.52196505438E+02  0.78032957510E+02 -0.38160697428E+03  0.39298536926E+03  0.00000000000E+00 0. -1.
         21    1    1    2  502  501 -0.48995133670E+01 -0.26494141257E+02  0.35397159223E+02  0.44484869712E+02  0.00000000000E+00 0.  1.
<scales pt_clust_5="13000.00000" pt_clust_6="13000.00000" pt_clust_7="13000.00000" pt_clust_8="13000.00000" pt_clust_9="26.94336"></scales>
<clustering>
<clus scale="   26.943">  1  9  2 -1</clus>
<clus scale="   84.139">  5  6 -1 -1</clus>
<clus scale="   92.682">  7  8 -1 -1</clus>
<clus scale="  110.370">  1  5  2 -1</clus>
<clus scale="  117.013">  2  5  1 -1</clus>
</clustering>
</event>
<event>
 9    1  0.1748361E-005  0.1312127E+03  0.7546771E-02  0.1227728E+00
          2   -1    0    0  502    0  0.00000000000E+00  0.00000000000E+00  0.18278604053E+03  0.18278604053E+03  0.00000000000E+00 0. -1.
         -2   -1    0    0    0  501 -0.00000000000E+00 -0.00000000000E+00 -0.23260819460E+03  0.23260819460E+03  0.00000000000E+00 0.  1.
         23    2    1    2    0    0 -0.28087060204E+02 -0.92515145814E+02 -0.14895869642E+03  0.20187505342E+03  0.96004733216E+02 0.  0.
         23    2    1    2    0    0  0.46676538582E+02  0.75522165623E+02  0.12532692333E+03  0.17718371503E+03  0.88345539814E+02 0.  0.
        -11    1    3    3    0    0 -0.14874267720E+02 -0.58515286055E+02 -0.15366039342E+03  0.16509633263E+03  0.00000000000E+00 0.  1.
         11    1    3    3    0    0 -0.13212792483E+02 -0.33999859759E+02  0.47016969953E+01  0.36778720797E+02  0.00000000000E+00 0. -1.
        -13    1    4    4    0    0  0.71771600555E+02  0.64518527192E+02  0.10764419918E+03  0.14457204645E+03  0.00000000000E+00 0. -1.
         13    1    4    4    0    0 -0.25095061973E+02  0.11003638432E+02  0.17682724154E+02  0.32611668581E+02  0.00000000000E+00 0.  1.
         21    1    1    2  502  501 -0.18589478378E+02  0.16992980190E+02 -0.26190380989E+02  0.36335466675E+02  0.00000000000E+00 0. -1.
<scales pt_clust_5="13000.00000" pt_clust_6="13000.00000" pt_clust_7="13000.00000" pt_clust_8="13000.00000" pt_clust_9="25.18591"></scales>
<clustering>
<clus scale="   25.186">  2  9  1 -1</clus>
<clus scale="   88.346">  7  8 -1 -1</clus>
<clus scale="   96.005">  5  6 -1 -1</clus>
<clus scale="  125.717">  1  7  2 -1</clus>
<clus scale="  125.717">  1  5  2 -1</clus>
</clustering>
</event>
<event>
 9    1  0.1748361E-005  0.1101581E+03  0.7546771E-02  0.1260910E+00
          1   -1    0    0  502    0  0.00000000000E+00  0.00000000000E+00  0.16654906534E+03  0.16654906534E+03  0.00000000000E+00 0. -1.
         -1   -1    0    0    0  501 -0.00000000000E+00 -0.00000000000E+00 -0.98537946397E+02  0.98537946397E+02  0.00000000000E+00 0.  1.
         23    2    1    2    0    0  0.22880221035E+02 -0.56734583026E+02 -0.49406138671E+01  0.11017792593E+03  0.91501083444E+02 0.  0.
         23    2    1    2    0    0 -0.18029828749E+01  0.62684193585E+02  0.75190072625E+02  0.13289413636E+03  0.89859588157E+02 0.  0.
        -11    1    4    4    0    0  0.93061924015E+01  0.82137543330E+02  0.41655855614E+02  0.92565606724E+02  0.00000000000E+00 0. -1.
         11    1    4    4    0    0 -0.11109175276E+02 -0.19453349746E+02  0.33534217012E+02  0.40328529631E+02  0.00000000000E+00 0.  1.
        -11    1    3    3    0    0  0.24958169887E+02 -0.21763323790E+02  0.40809985473E+02  0.52554803975E+02  0.00000000000E+00 0. -1.
         11    1    3    3    0    0 -0.20779488524E+01 -0.34971259236E+02 -0.45750599340E+02  0.57623121956E+02  0.00000000000E+00 0.  1.
         21    1    1    2  502  501 -0.21077238160E+02 -0.59496105591E+01 -0.22383398134E+01  0.22014949452E+02  0.00000000000E+00 0.  1.
<scales pt_clust_5="13000.00000" pt_clust_6="13000.00000" pt_clust_7="13000.00000" pt_clust_8="13000.00000" pt_clust_9="21.90086"></scales>
<clustering>
<clus scale="   21.901">  2  9  1 -1</clus>
<clus scale="   89.860">  5  6 -1 -1</clus>
<clus scale="   91.501">  7  8 -1 -1</clus>
<clus scale="  108.798">  1  5  2 -1</clus>
<clus scale="  108.798">  1  5  2 -1</clus>
</clustering>
</event>
<event>
 9    1  0.1748361E-005  0.2151726E+03  0.7546771E-02  0.1137565E+00
         -1   -1    0    0    0  501 -0.00000000000E+00  0.00000000000E+00  0.20656047643E+03  0.20656047643E+03  0.00000000000E+00 0.  1.
          1   -1    0    0  502    0  0.00000000000E+00 -0.00000000000E+00 -0.78233434681E+03  0.78233434681E+03  0.00000000000E+00 0. -1.
         23    2    1    2    0    0  0.29141606564E+02  0.16909103936E+03 -0.11968605697E+03  0.22772536071E+03  0.89961518711E+02 0.  0.
         23    2    1    2    0    0  0.20959014040E+01 -0.20522142276E+03 -0.58349779036E+03  0.62510150623E+03  0.90343768926E+02 0.  0.
        -13    1    4    4    0    0  0.13022689922E+02 -0.49881830508E+02 -0.60874836182E+02  0.79771756580E+02  0.00000000000E+00 0.  1.
         13    1    4    4    0    0 -0.10926788518E+02 -0.15533959225E+03 -0.52262295417E+03  0.54532974965E+03  0.00000000000E+00 0. -1.
        -13    1    3    3    0    0 -0.31846406519E+02  0.53685725404E+02 -0.48488802301E+02  0.79041221328E+02  0.00000000000E+00 0.  1.
         13    1    3    3    0    0  0.60988013084E+02  0.11540531396E+03 -0.71197254673E+02  0.14868413938E+03  0.00000000000E+00 0. -1.
         21    1    1    2  502  501 -0.31237507968E+02  0.36130383393E+02  0.12740997694E+03  0.13606795630E+03  0.00000000000E+00 0.  1.
<scales pt_clust_5="13000.00000" pt_clust_6="13000.00000" pt_clust_7="13000.00000" pt_clust_8="13000.00000" pt_clust_9="47.76177"></scales>
<clustering>
<clus scale="   47.762">  1  9  2 -1</clus>
<clus scale="   89.962">  7  8 -1 -1</clus>
<clus scale="   90.344">  5  6 -1 -1</clus>
<clus scale="  215.012">  1  7  2 -1</clus>
<clus scale="  215.173">  2  5  1 -1</clus>
</clustering>
</event>
<event>
 9    1  0.1748361E-005  0.1234923E+03  0.7546771E-02  0.1238453E+00
          1   -1    0    0  502    0  0.00000000000E+00  0.00000000000E+00  0.36066527181E+03  0.36066527181E+03  0.00000000000E+00 0. -1.
         -1   -1    0    0    0  501 -0.00000000000E+00 -0.00000000000E+00 -0.88204546727E+02  0.88204546727E+02  0.00000000000E+00 0.  1.
         23    2    1    2    0    0 -0.70424280331E+02 -0.63047365913E+02  0.18395027875E+02  0.13400887532E+03  0.93195772459E+02 0.  0.
         23    2    1    2    0    0  0.60253049323E+02  0.41710295495E+02  0.26303364269E+03  0.28957955560E+03  0.96433620321E+02 0.  0.
        -11    1    4    4    0    0  0.31740225947E+02  0.72172726257E+02  0.18475748825E+03  0.20087726059E+03  0.00000000000E+00 0.  1.
         11    1    4    4    0    0  0.28512823376E+02 -0.30462430761E+02  0.78276154443E+02  0.88702295005E+02  0.00000000000E+00 0. -1.
        -11    1    3    3    0    0  0.20626489557E+02 -0.84725756633E+01 -0.95199747003E+01  0.24245959006E+02  0.00000000000E+00 0.  1.
         11    1    3    3    0    0 -0.91050769889E+02 -0.54574790249E+02  0.27915002575E+02  0.10976291631E+03  0.00000000000E+00 0. -1.
         21    1    1    2  502  501  0.10171231009E+02  0.21337070417E+02 -0.89679454815E+01  0.25281387628E+02  0.00000000000E+00 0. -1.
<scales pt_clust_5="13000.00000" pt_clust_6="13000.00000" pt_clust_7="13000.00000" pt_clust_8="13000.00000" pt_clust_9="23.63735"></scales>
<clustering>
<clus scale="   23.637">  2  9  1 -1</clus>
<clus scale="   93.196">  7  8 -1 -1</clus>
<clus scale="   96.434">  5  6 -1 -1</clus>
<clus scale="  120.981">  2  7  1 -1</clus>
<clus scale="  123.492">  1  5  2 -1</clus>
</clustering>
</event>
<event>
 9    1  0.1748361E-005  0.1926565E+03  0.7546771E-02  0.1173592E+00
         -2   -1    0    0    0  501 -0.00000000000E+00  0.00000000000E+00  0.36388932656E+03  0.36388932656E+03  0.00000000000E+00 0.  1.
          2   -1    0    0  502    0  0.00000000000E+00 -0.00000000000E+00 -0.18713389278E+03  0.18713389278E+03  0.00000000000E+00 0. -1.
         23    2    1    2    0    0  0.22502320614E+02  0.19629895815E+03  0.50500142874E+02  0.22350309152E+03  0.91453442173E+02 0.  0.
         23    2    1    2    0    0  0.65875428076E+02 -0.60157800049E+02  0.12311586947E+02  0.12920671662E+03  0.92651322251E+02 0.  0.
        -11    1    4    4    0    0  0.89172329095E+02 -0.46637606086E+02  0.28989759203E+01  0.10067360448E+03  0.00000000000E+00 0. -1.
         11    1    4    4    0    0 -0.23296901019E+02 -0.13520193964E+02  0.94126110266E+01  0.28533112137E+02  0.00000000000E+00 0.  1.
        -11    1    3    3    0    0 -0.31405997897E+02  0.11275224815E+03  0.39197417614E+02  0.12343355992E+03  0.00000000000E+00 0.  1.
         11    1    3    3    0    0  0.53908318512E+02  0.83546709998E+02  0.11302725259E+02  0.10006953160E+03  0.00000000000E+00 0. -1.
         21    1    1    2  502  501 -0.88377748690E+02 -0.13614115810E+03  0.11394370396E+03  0.19831341120E+03  0.00000000000E+00 0. -1.
<scales pt_clust_5="13000.00000" pt_clust_6="13000.00000" pt_clust_7="13000.00000" pt_clust_8="13000.00000" pt_clust_9="169.56652"></scales>
<clustering>
<clus scale="   91.453">  7  8 -1 -1</clus>
<clus scale="   92.651">  5  6 -1 -1</clus>
<clus scale="  128.619">  2  5  1 -1</clus>
<clus scale="  169.567">  1  9  2 -1</clus>
<clus scale="  128.619">  2  5  1 -1</clus>
</clustering>
</event>
<event>
 9    1  0.1748361E-005  0.1001124E+03  0.7546771E-02  0.1284244E+00
          1   -1    0    0  502    0  0.00000000000E+00  0.00000000000E+00  0.47990371156E+02  0.47990371156E+02  0.00000000000E+00 0. -1.
         -1   -1    0    0    0  501 -0.00000000000E+00 -0.00000000000E+00 -0.30558559506E+03  0.30558559506E+03  0.00000000000E+00 0.  1.
         23    2    1    2    0    0  0.11054024272E+01 -0.22789132419E+02 -0.12168059414E+03  0.15347056006E+03  0.90699941255E+02 0.  0.
         23    2    1    2    0    0 -0.31692833552E+02  0.47907107259E+02 -0.66887649754E+02  0.12053639478E+03  0.82192080831E+02 0.  0.
        -13    1    4    4    0    0 -0.16441606627E+02  0.20296272031E+02  0.16830551960E+02  0.31073019907E+02  0.00000000000E+00 0.  1.
         13    1    4    4    0    0 -0.15251226924E+02  0.27610835228E+02 -0.83718201714E+02  0.89463374869E+02  0.00000000000E+00 0. -1.
        -13    1    3    3    0    0  0.23239975697E+02 -0.51945392901E+02 -0.75251747203E+02  0.94346413663E+02  0.00000000000E+00 0.  1.
         13    1    3    3    0    0 -0.22134573269E+02  0.29156260482E+02 -0.46428846942E+02  0.59124146400E+02  0.00000000000E+00 0. -1.
         21    1    1    2  502  501  0.30587431124E+02 -0.25117974840E+02 -0.69026980002E+02  0.79569011374E+02  0.00000000000E+00 0.  1.
<scales pt_clust_5="13000.00000" pt_clust_6="13000.00000" pt_clust_7="13000.00000" pt_clust_8="13000.00000" pt_clust_9="39.57908"></scales>
<clustering>
<clus scale="   39.579">  2  9  1 -1</clus>
<clus scale="   82.192">  5  6 -1 -1</clus>
<clus scale="   90.700">  7  8 -1 -1</clus>
<clus scale="   92.475">  1  5  2 -1</clus>
<clus scale="   92.475">  1  5  2 -1</clus>
</clustering>
</event>
<event>
 9    1  0.1748361E-005  0.9303494E+02  0.7546771E-02  0.1295912E+00
          2   -1    0    0  502    0  0.00000000000E+00  0.00000000000E+00  0.10538080507E+03  0.10538080507E+03  0.00000000000E+00 0. -1.
         -2   -1    0    0    0  501 -0.00000000000E+00 -0.00000000000E+00 -0.32532446737E+03  0.32532446737E+03  0.00000000000E+00 0.  1.
         23    2    1    2    0    0  0.25685965922E+02  0.28510594128E+02 -0.13979391236E+03  0.17087420250E+03  0.90460114549E+02 0.  0.
         23    2    1    2    0    0  0.22715443814E+02  0.23517472827E+02  0.52592429031E+02  0.10926512992E+03  0.90021342519E+02 0.  0.
        -11    1    4    4    0    0  0.36070256483E+02 -0.39048130296E+01 -0.11686389898E+02  0.38116698131E+02  0.00000000000E+00 0.  1.
         11    1    4    4    0    0 -0.13354812669E+02  0.27422285856E+02  0.64278818929E+02  0.71148431788E+02  0.00000000000E+00 0. -1.
        -11    1    3    3    0    0 -0.33727564984E+02  0.16570708463E+02 -0.56955222796E+02  0.68235140672E+02  0.00000000000E+00 0.  1.
         11    1    3    3    0    0  0.59413530906E+02  0.11939885665E+02 -0.82838689567E+02  0.10263906183E+03  0.00000000000E+00 0. -1.
         21    1    1    2  502  501 -0.48401409736E+02 -0.52028066955E+02 -0.13274217897E+03  0.15056594001E+03  0.00000000000E+00 0.  1.
<scales pt_clust_5="13000.00000" pt_clust_6="13000.00000" pt_clust_7="13000.00000" pt_clust_8="13000.00000" pt_clust_9="71.06065"></scales>
<clustering>
<clus scale="   71.061">  2  9  1 -1</clus>
<clus scale="   90.021">  5  6 -1 -1</clus>
<clus scale="   90.460">  7  8 -1 -1</clus>
<clus scale="   92.608">  1  5  2 -1</clus>
<clus scale="   92.608">  1  5  2 -1</clus>
</clustering>
</event>
<event>
 9    1  0.1748361E-005  0.1381017E+03  0.7546771E-02  0.1216397E+00
         -1   -1    0    0    0  501 -0.00000000000E+00  0.00000000000E+00  0.74738387042E+02  0.74738387042E+02  0.00000000000E+00 0.  1.
          1   -1    0    0  502    0  0.00000000000E+00 -0.00000000000E+00 -0.63587705280E+03  0.63587705280E+03  0.00000000000E+00 0. -1.
         23    2    1    2    0    0  0.67084907096E+02  0.43560527895E+02 -0.20277625004E+02  0.12083346543E+03  0.88270266462E+02 0.  0.
         23    2    1    2    0    0 -0.86414941336E+02 -0.66084579944E+02 -0.54191656560E+03  0.56008185191E+03  0.90462163170E+02 0.  0.
        -11    1    4    4    0    0 -0.25869017655E+02  0.14952149677E+02 -0.53297360243E+02  0.61101403121E+02  0.00000000000E+00 0.  1.
         11    1    4    4    0    0 -0.60545923681E+02 -0.81036729621E+02 -0.48861920536E+03  0.49898044879E+03  0.00000000000E+00 0. -1.
        -13    1    3    3    0    0  0.37695499153E+02  0.41887390292E+02  0.29043327721E+02  0.63395733350E+02  0.00000000000E+00 0.  1.
         13    1    3    3    0    0  0.29389407943E+02  0.16731376023E+01 -0.49320952725E+02  0.57437732079E+02  0.00000000000E+00 0. -1.
         21    1    1    2  502  501  0.19330034240E+02  0.22524052049E+02  0.10555248471E+01  0.29700122511E+02  0.00000000000E+00 0. -1.
<scales pt_clust_5="13000.00000" pt_clust_6="13000.00000" pt_clust_7="13000.00000" pt_clust_8="13000.00000" pt_clust_9="29.68136"></scales>
<clustering>
<clus scale="   29.681">  1  9  2 -1</clus>
<clus scale="   88.270">  7  8 -1 -1</clus>
<clus scale="   90.462">  5  6 -1 -1</clus>
<clus scale="  136.676">  1  7  2 -1</clus>
<clus scale="  138.102">  2  5  1 -1</clus>
</clustering>
</event>
<event>
 9    1  0.1748361E-005  0.1155555E+03  0.7546771E-02  0.1250854E+00
         -2   -1    0    0    0  501 -0.00000000000E+00  0.00000000000E+00  0.10210159684E+03  0.10210159684E+03  0.00000000000E+00 0.  1.
          2   -1    0    0  502    0  0.00000000000E+00 -0.00000000000E+00 -0.19798878043E+03  0.19798878043E+03  0.00000000000E+00 0. -1.
         23    2    1    2    0    0  0.45785515499E+01  0.86607823924E+02 -0.28092284536E+01  0.12610547575E+03  0.91503119901E+02 0.  0.
         23    2    1    2    0    0 -0.30269668749E+01 -0.42744776861E+02 -0.75811500297E+02  0.12682024551E+03  0.92193886007E+02 0.  0.
        -11    1    3    3    0    0  0.93272762292E+01 -0.18124064386E+02  0.49612540869E+01  0.20978413521E+02  0.00000000000E+00 0. -1.
         11    1    3    3    0    0 -0.47487246793E+01  0.10473188831E+03 -0.77704825405E+01  0.10512706223E+03  0.00000000000E+00 0.  1.
        -11    1    4    4    0    0 -0.15125001627E+02  0.24028495335E+02 -0.51598379315E+01  0.28857549961E+02  0.00000000000E+00 0.  1.
         11    1    4    4    0    0  0.12098034753E+02 -0.66773272196E+02 -0.70651662366E+02  0.97962695551E+02  0.00000000000E+00 0. -1.
         21    1    1    2  502  501 -0.15515846750E+01 -0.43863047063E+02 -0.17266454839E+02  0.47164655997E+02  0.00000000000E+00 0. -1.
<scales pt_clust_5="13000.00000" pt_clust_6="13000.00000" pt_clust_7="13000.00000" pt_clust_8="13000.00000" pt_clust_9="43.89048"></scales>
<clustering>
<clus scale="   43.890">  2  9  1 -1</clus>
<clus scale="   91.503">  5  6 -1 -1</clus>
<clus scale="   92.194">  7  8 -1 -1</clus>
<clus scale="  115.005">  1  5  2 -1</clus>
<clus scale="   43.890">  2  5  1 -1</clus>
</clustering>
</event>
<event>
 9    1  0.1748361E-005  0.1253945E+03  0.7546771E-02  0.1236205E+00
         -1   -1    0    0    0  501 -0.00000000000E+00  0.00000000000E+00  0.50524163634E+02  0.50524163634E+02  0.00000000000E+00 0.  1.
          1   -1    0    0  502    0  0.00000000000E+00 -0.00000000000E+00 -0.54004532639E+03  0.54004532639E+03  0.00000000000E+00 0. -1.
         23    2    1    2    0    0 -0.92391141323E+02 -0.32772038087E+02 -0.22749197136E+03  0.26409413707E+03  0.91558651841E+02 0.  0.
         23    2    1    2    0    0  0.65060882540E+02  0.13890585063E+02 -0.26794912008E+03  0.29273371889E+03  0.97316146824E+02 0.  0.
        -11    1    4    4    0    0  0.65315713671E+02 -0.63743148790E+01 -0.26406600081E+03  0.27209856142E+03  0.00000000000E+00 0. -1.
         11    1    4    4    0    0 -0.25483113152E+00  0.20264899942E+02 -0.38831192713E+01  0.20635157471E+02  0.00000000000E+00 0.  1.
        -13    1    3    3    0    0 -0.85045156058E+02 -0.61116191731E+02 -0.18247062595E+03  0.21038868029E+03  0.00000000000E+00 0.  1.
         13    1    3    3    0    0 -0.73459852655E+01  0.28344153644E+02 -0.45021345414E+02  0.53705456782E+02  0.00000000000E+00 0. -1.
         21    1    1    2  502  501  0.27330258784E+02  0.18881453024E+02  0.59199286871E+01  0.33741634061E+02  0.00000000000E+00 0.  1.
<scales pt_clust_5="13000.00000" pt_clust_6="13000.00000" pt_clust_7="13000.00000" pt_clust_8="13000.00000" pt_clust_9="33.21825"></scales>
<clustering>
<clus scale="   33.218">  1  9  2 -1</clus>
<clus scale="   91.559">  7  8 -1 -1</clus>
<clus scale="   97.316">  5  6 -1 -1</clus>
<clus scale="  120.981">  1  7  2 -1</clus>
<clus scale="  125.394">  2  5  1 -1</clus>
</clustering>
</event>
<event>
 9    1  0.1748361E-005  0.1033764E+03  0.7546771E-02  0.1278163E+00
         -1   -1    0    0    0  501 -0.00000000000E+00  0.00000000000E+00  0.11782474774E+03  0.11782474774E+03  0.00000000000E+00 0.  1.
          1   -1    0    0  502    0  0.00000000000E+00 -0.00000000000E+00 -0.19371157577E+03  0.19371157577E+03  0.00000000000E+00 0. -1.
         23    2    1    2    0    0 -0.39843172905E+02 -0.22848396231E+01  0.62149238394E+02  0.12359618361E+03  0.99099898341E+02 0.  0.
         23    2    1    2    0    0  0.22417791561E+02  0.17974720257E+02 -0.13464943241E+03  0.16424867393E+03  0.89562878999E+02 0.  0.
        -11    1    4    4    0    0  0.29559686418E+02  0.51619598194E+02 -0.80344936981E+02  0.99968329371E+02  0.00000000000E+00 0.  1.
         11    1    4    4    0    0 -0.71418948566E+01 -0.33644877937E+02 -0.54304495426E+02  0.64280344562E+02  0.00000000000E+00 0. -1.
        -13    1    3    3    0    0 -0.12745107329E+02 -0.40967940280E+02 -0.31346926971E+01  0.43019021257E+02  0.00000000000E+00 0. -1.
         13    1    3    3    0    0 -0.27098065576E+02  0.38683100657E+02  0.65283931091E+02  0.80577162354E+02  0.00000000000E+00 0.  1.
         21    1    1    2  502  501  0.17425381344E+02 -0.15689880634E+02 -0.33866340206E+01  0.23691465959E+02  0.00000000000E+00 0.  1.
<scales pt_clust_5="13000.00000" pt_clust_6="13000.00000" pt_clust_7="13000.00000" pt_clust_8="13000.00000" pt_clust_9="23.44816"></scales>
<clustering>
<clus scale="   23.448">  1  9  2 -1</clus>
<clus scale="   89.563">  5  6 -1 -1</clus>
<clus scale="   94.273">  2  5  1 -1</clus>
<clus scale="   99.100">  7  8 -1 -1</clus>
<clus scale="   94.273">  2  5  1 -1</clus>
</clustering>
</event>
<event>
 9    1  0.1748361E-005  0.1032212E+03  0.7546771E-02  0.1276119E+00
         -2   -1    0    0    0  501 -0.00000000000E+00  0.00000000000E+00  0.23967165661E+03  0.23967165661E+03  0.00000000000E+00 0.  1.
          2   -1    0    0  502    0  0.00000000000E+00 -0.00000000000E+00 -0.74724058198E+02  0.74724058198E+02  0.00000000000E+00 0. -1.
         23    2    1    2    0    0 -0.38645317839E+02 -0.65011326434E+01  0.83914192470E+02  0.12929680765E+03  0.90223874087E+02 0.  0.
         23    2    1    2    0    0  0.30074068745E+02 -0.37779390246E+02  0.19290604349E+02  0.10863712214E+03  0.95384301398E+02 0.  0.
        -11    1    4    4    0    0  0.11611570659E+02  0.29488882684E+02 -0.96303576308E+01  0.33123504694E+02  0.00000000000E+00 0. -1.
         11    1    4    4    0    0  0.18462498085E+02 -0.67268272930E+02  0.28920961979E+02  0.75513617450E+02  0.00000000000E+00 0.  1.
        -13    1    3    3    0    0  0.27294587032E+02  0.10520622621E+02  0.17052963586E+02  0.33859733441E+02  0.00000000000E+00 0.  1.
         13    1    3    3    0    0 -0.65939904871E+02 -0.17021755264E+02  0.66861228884E+02  0.95437074214E+02  0.00000000000E+00 0. -1.
         21    1    1    2  502  501  0.85712490940E+01  0.44280522890E+02  0.61742801597E+02  0.76461785013E+02  0.00000000000E+00 0. -1.
<scales pt_clust_5="13000.00000" pt_clust_6="13000.00000" pt_clust_7="13000.00000" pt_clust_8="13000.00000" pt_clust_9="45.10245"></scales>
<clustering>
<clus scale="   45.102">  1  9  2 -1</clus>
<clus scale="   90.224">  7  8 -1 -1</clus>
<clus scale="   95.384">  5  6 -1 -1</clus>
<clus scale="   98.472">  1  7  2 -1</clus>
<clus scale="  103.221">  2  5  1 -1</clus>
</clustering>
</event>
<event>
 9    1  0.1748361E-005  0.1180018E+03  0.7546771E-02  0.1277950E+00
         -1   -1    0    0    0  501 -0.00000000000E+00  0.00000000000E+00  0.64267649448E+02  0.64267649448E+02  0.00000000000E+00 0.  1.
          1   -1    0    0  502    0  0.00000000000E+00 -0.00000000000E+00 -0.24021760912E+03  0.24021760912E+03  0.00000000000E+00 0. -1.
         23    2    1    2    0    0  0.17748259280E+02  0.26464056533E+01 -0.24648134098E+02  0.12137981469E+03  0.11748840253E+03 0.  0.
         23    2    1    2    0    0  0.77913525523E+01 -0.11069336560E+02 -0.13989465169E+03  0.15389344029E+03  0.62685261475E+02 0.  0.
        -11    1    4    4    0    0 -0.26021641460E+02 -0.12120306006E+02 -0.81497796797E+02  0.86405546840E+02  0.00000000000E+00 0.  1.
         11    1    4    4    0    0  0.33812994012E+02  0.10509694466E+01 -0.58396854897E+02  0.67487893453E+02  0.00000000000E+00 0. -1.
        -13    1    3    3    0    0  0.32014869606E+02  0.25315288274E+02 -0.62719681317E+02  0.74830302156E+02  0.00000000000E+00 0. -1.
         13    1    3    3    0    0 -0.14266610326E+02 -0.22668882621E+02  0.38071547219E+02  0.46549512533E+02  0.00000000000E+00 0.  1.
         21    1    1    2  502  501 -0.25539611832E+02  0.84229309063E+01 -0.11407173882E+02  0.29212003587E+02  0.00000000000E+00 0.  1.
<scales pt_clust_5="13000.00000" pt_clust_6="13000.00000" pt_clust_7="13000.00000" pt_clust_8="13000.00000" pt_clust_9="26.89270"></scales>
<clustering>
<clus scale="   26.893">  1  9  2 -1</clus>
<clus scale="   62.685">  5  6 -1 -1</clus>
<clus scale="   63.642">  2  5  1 -1</clus>
<clus scale="  117.488">  7  8 -1 -1</clus>
<clus scale="   63.642">  2  5  1 -1</clus>
</clustering>
</event>
<event>
 9    1  0.1748361E-005  0.9372215E+02  0.7546771E-02  0.1295651E+00
          1   -1    0    0  502    0  0.00000000000E+00  0.00000000000E+00  0.54505318077E+03  0.54505318077E+03  0.00000000000E+00 0. -1.
         -1   -1    0    0    0  501 -0.00000000000E+00 -0.00000000000E+00 -0.28754785745E+02  0.28754785745E+02  0.00000000000E+00 0.  1.
         23    2    1    2    0    0 -0.27051631026E+01 -0.17914047285E+01  0.94892394883E+02  0.13250823483E+03  0.92430182591E+02 0.  0.
         23    2    1    2    0    0 -0.99597313365E+01 -0.18098409819E+02  0.39633459643E+03  0.40688201012E+03  0.89694532380E+02 0.  0.
        -13    1    3    3    0    0  0.35210269081E+02 -0.16102308803E+02  0.12494886710E+02  0.40683775531E+02  0.00000000000E+00 0. -1.
         13    1    3    3    0    0 -0.37915432184E+02  0.14310904074E+02  0.82397508174E+02  0.91824459303E+02  0.00000000000E+00 0.  1.
        -13    1    4    4    0    0  0.36111738726E+02  0.72640788575E+01  0.21265944274E+03  0.21582600192E+03  0.00000000000E+00 0. -1.
         13    1    4    4    0    0 -0.46071470062E+02 -0.25362488676E+02  0.18367515369E+03  0.19105600820E+03  0.00000000000E+00 0.  1.
         21    1    1    2  502  501  0.12664894439E+02  0.19889814547E+02  0.25071403705E+02  0.34417721563E+02  0.00000000000E+00 0.  1.
<scales pt_clust_5="13000.00000" pt_clust_6="13000.00000" pt_clust_7="13000.00000" pt_clust_8="13000.00000" pt_clust_9="23.57974"></scales>
<clustering>
<clus scale="   23.580">  2  9  1 -1</clus>
<clus scale="   89.695">  7  8 -1 -1</clus>
<clus scale="   91.025">  1  7  2 -1</clus>
<clus scale="   92.430">  5  6 -1 -1</clus>
<clus scale="   91.025">  1  5  2 -1</clus>
</clustering>
</event>
<event>
 9    1  0.1748361E-005  0.9867470E+02  0.7546771E-02  0.1283893E+00
          1   -1    0    0  502    0  0.00000000000E+00  0.00000000000E+00  0.23159798801E+03  0.23159798801E+03  0.00000000000E+00 0. -1.
         -1   -1    0    0    0  501 -0.00000000000E+00 -0.00000000000E+00 -0.86979156061E+02  0.86979156061E+02  0.00000000000E+00 0.  1.
         23    2    1    2    0    0  0.44285711566E+02  0.51330248199E+02  0.53693211674E+02  0.12561262349E+03  0.91101874690E+02 0.  0.
         23    2    1    2    0    0  0.54725512295E+01 -0.20925677729E+02  0.95073726874E+02  0.13450488143E+03  0.92653746714E+02 0.  0.
        -13    1    3    3    0    0  0.90085609396E+01  0.71374051691E+02  0.42362315153E+02  0.83486377153E+02  0.00000000000E+00 0. -1.
         13    1    3    3    0    0  0.35277150627E+02 -0.20043803493E+02  0.11330896521E+02  0.42126246341E+02  0.00000000000E+00 0.  1.
        -13    1    4    4    0    0 -0.35369418895E+02 -0.36894263409E+02  0.47002675941E+02  0.69436546653E+02  0.00000000000E+00 0.  1.
         13    1    4    4    0    0  0.40841970124E+02  0.15968585680E+02  0.48071050933E+02  0.65068334772E+02  0.00000000000E+00 0. -1.
         21    1    1    2  502  501 -0.49758262796E+02 -0.30404570470E+02 -0.41481065947E+01  0.58459639156E+02  0.00000000000E+00 0.  1.
<scales pt_clust_5="13000.00000" pt_clust_6="13000.00000" pt_clust_7="13000.00000" pt_clust_8="13000.00000" pt_clust_9="58.31229"></scales>
<clustering>
<clus scale="   58.312">  2  9  1 -1</clus>
<clus scale="   91.102">  5  6 -1 -1</clus>
<clus scale="   92.654">  7  8 -1 -1</clus>
<clus scale="   97.219">  2  5  1 -1</clus>
<clus scale="   98.675">  1  5  2 -1</clus>
</clustering>
</event>
<event>
 9    1  0.1748361E-005  0.1237194E+03  0.7546771E-02  0.1237616E+00
         -4   -1    0    0    0  501 -0.00000000000E+00  0.00000000000E+00  0.34865437740E+03  0.34865437740E+03  0.00000000000E+00 0.  1.
          4   -1    0    0  502    0  0.00000000000E+00 -0.00000000000E+00 -0.70843404878E+02  0.70843404878E+02  0.00000000000E+00 0. -1.
         23    2    1    2    0    0 -0.67737901075E+02 -0.13367709162E+02  0.22800593185E+03  0.25438920883E+03  0.89219088312E+02 0.  0.
         23    2    1    2    0    0  0.82551397158E+02  0.32486164694E+02  0.23313785170E+02  0.12923739245E+03  0.91042226245E+02 0.  0.
        -11    1    4    4    0    0  0.81681018803E+02  0.11017530405E+02  0.48892874282E+02  0.95831560378E+02  0.00000000000E+00 0. -1.
         11    1    4    4    0    0  0.87037835504E+00  0.21468634289E+02 -0.25579089113E+02  0.33405832074E+02  0.00000000000E+00 0.  1.
        -13    1    3    3    0    0 -0.61294240332E+02  0.30508980442E+02  0.13827269678E+03  0.15429556202E+03  0.00000000000E+00 0.  1.
         13    1    3    3    0    0 -0.64436607431E+01 -0.43876689605E+02  0.89733235070E+02  0.10009364680E+03  0.00000000000E+00 0. -1.
         21    1    1    2  502  501 -0.14813496083E+02 -0.19118455532E+02  0.26491255505E+02  0.35871181001E+02  0.00000000000E+00 0. -1.
<scales pt_clust_5="13000.00000" pt_clust_6="13000.00000" pt_clust_7="13000.00000" pt_clust_8="13000.00000" pt_clust_9="24.18584"></scales>
<clustering>
<clus scale="   24.186">  1  9  2 -1</clus>
<clus scale="   89.219">  7  8 -1 -1</clus>
<clus scale="   91.042">  5  6 -1 -1</clus>
<clus scale="  122.384">  1  7  2 -1</clus>
<clus scale="  123.719">  2  5  1 -1</clus>
</clustering>
</event>
<event>
 9    1  0.1748361E-005  0.1602748E+03  0.7546771E-02  0.1189682E+00
         -1   -1    0    0    0  501 -0.00000000000E+00  0.00000000000E+00  0.11883865807E+03  0.11883865807E+03  0.00000000000E+00 0.  1.
          1   -1    0    0  502    0  0.00000000000E+00 -0.00000000000E+00 -0.34469302917E+03  0.34469302917E+03  0.00000000000E+00 0. -1.
         23    2    1    2    0    0 -0.11395946153E+03  0.26061939334E+02  0.19149598293E+02  0.14971912250E+03  0.91559406795E+02 0.  0.
         23    2    1    2    0    0  0.12007637184E+03 -0.47024710058E+02 -0.24229892376E+03  0.29180866464E+03  0.99064978026E+02 0.  0.
        -11    1    4    4    0    0  0.78558221035E+02  0.18774941757E+01 -0.60948648507E+02  0.99446753750E+02  0.00000000000E+00 0.  1.
         11    1    4    4    0    0  0.41518150802E+02 -0.48902204233E+02 -0.18135027525E+03  0.19236191089E+03  0.00000000000E+00 0. -1.
        -11    1    3    3    0    0 -0.11977945487E+02 -0.29260842180E+02  0.10748151747E+02  0.33394473033E+02  0.00000000000E+00 0. -1.
         11    1    3    3    0    0 -0.10198151605E+03  0.55322781514E+02  0.84014465462E+01  0.11632464947E+03  0.00000000000E+00 0.  1.
         21    1    1    2  502  501 -0.61169103047E+01  0.20962770724E+02 -0.27050456376E+01  0.22003900109E+02  0.00000000000E+00 0.  1.
<scales pt_clust_5="13000.00000" pt_clust_6="13000.00000" pt_clust_7="13000.00000" pt_clust_8="13000.00000" pt_clust_9="21.83699"></scales>
<clustering>
<clus scale="   21.837">  1  9  2 -1</clus>
<clus scale="   91.559">  7  8 -1 -1</clus>
<clus scale="   99.065">  5  6 -1 -1</clus>
<clus scale="  155.747">  1  7  2 -1</clus>
<clus scale="  160.275">  2  5  1 -1</clus>
</clustering>
</event>
<event>
 9    1  0.1748361E-005  0.9488995E+02  0.7546771E-02  0.1292754E+00
         -1   -1    0    0    0  501 -0.00000000000E+00  0.00000000000E+00  0.10291889932E+03  0.10291889932E+03  0.00000000000E+00 0.  1.
          1   -1    0    0  502    0  0.00000000000E+00 -0.00000000000E+00 -0.35054874354E+03  0.35054874354E+03  0.00000000000E+00 0. -1.
         23    2    1    2    0    0 -0.21432285165E+01  0.62187516460E+02 -0.81540054589E+01  0.10971012702E+03  0.89988574467E+02 0.  0.
         23    2    1    2    0    0 -0.72825650707E+01 -0.14396116326E+02 -0.27030449504E+03  0.28610970964E+03  0.92379445722E+02 0.  0.
        -11    1    3    3    0    0  0.51845287961E+01  0.38174047196E+02 -0.48654096332E+02  0.62059312823E+02  0.00000000000E+00 0. -1.
         11    1    3    3    0    0 -0.73277573126E+01  0.24013469264E+02  0.40500090873E+02  0.47650814201E+02  0.00000000000E+00 0.  1.
        -13    1    4    4    0    0 -0.46006121497E+02  0.11209047607E+02 -0.13550227948E+03  0.14353770831E+03  0.00000000000E+00 0. -1.
         13    1    4    4    0    0  0.38723556426E+02 -0.25605163933E+02 -0.13480221556E+03  0.14257200133E+03  0.00000000000E+00 0.  1.
         21    1    1    2  502  501  0.94257935872E+01 -0.47791400134E+02  0.30828656283E+02  0.57647806200E+02  0.00000000000E+00 0.  1.
<scales pt_clust_5="13000.00000" pt_clust_6="13000.00000" pt_clust_7="13000.00000" pt_clust_8="13000.00000" pt_clust_9="48.71205"></scales>
<clustering>
<clus scale="   48.712">  1  9  2 -1</clus>
<clus scale="   89.989">  5  6 -1 -1</clus>
<clus scale="   92.379">  7  8 -1 -1</clus>
<clus scale="   92.564">  1  5  2 -1</clus>
<clus scale="   94.890">  2  5  1 -1</clus>
</clustering>
</event>
<event>
 9    1  0.1748361E-005  0.1087320E+03  0.7546771E-02  0.1264399E+00
          1   -1    0    0  502    0  0.00000000000E+00  0.00000000000E+00  0.29054604816E+03  0.29054604816E+03  0.00000000000E+00 0. -1.
         -1   -1    0    0    0  501 -0.00000000000E+00 -0.00000000000E+00 -0.83559725348E+02  0.83559725348E+02  0.00000000000E+00 0.  1.
         23    2    1    2    0    0  0.36837759209E+02 -0.76830644344E+02  0.19054657628E+02  0.12919494435E+03  0.95227544615E+02 0.  0.
         23    2    1    2    0    0 -0.33821780695E+02  0.29511506109E+02  0.16021921348E+03  0.18999109729E+03  0.91714659888E+02 0.  0.
        -11    1    3    3    0    0 -0.31086122821E+01 -0.78091592673E+02 -0.11356209852E+02  0.78974197170E+02  0.00000000000E+00 0.  1.
         11    1    3    3    0    0  0.39946371491E+02  0.12609483289E+01  0.30410867480E+02  0.50220747176E+02  0.00000000000E+00 0. -1.
        -13    1    4    4    0    0 -0.25679961381E+02 -0.26035532582E+02  0.27094434269E+02  0.45512830517E+02  0.00000000000E+00 0.  1.
         13    1    4    4    0    0 -0.81418193138E+01  0.55547038690E+02  0.13312477921E+03  0.14447826677E+03  0.00000000000E+00 0. -1.
         21    1    1    2  502  501 -0.30159785146E+01  0.47319138235E+02  0.27712451706E+02  0.54919731876E+02  0.00000000000E+00 0. -1.
<scales pt_clust_5="13000.00000" pt_clust_6="13000.00000" pt_clust_7="13000.00000" pt_clust_8="13000.00000" pt_clust_9="47.41516"></scales>
<clustering>
<clus scale="   47.415">  2  9  1 -1</clus>
<clus scale="   91.715">  7  8 -1 -1</clus>
<clus scale="   95.228">  5  6 -1 -1</clus>
<clus scale="  105.669">  1  7  2 -1</clus>
<clus scale="  105.669">  1  5  2 -1</clus>
</clustering>
</event>
<event>
 9    1  0.1748361E-005  0.1366892E+03  0.7546771E-02  0.1217987E+00
          1   -1    0    0  502    0  0.00000000000E+00  0.00000000000E+00  0.16133427415E+03  0.16133427415E+03  0.00000000000E+00 0. -1.
         -1   -1    0    0    0  501 -0.00000000000E+00 -0.00000000000E+00 -0.18840893812E+03  0.18840893812E+03  0.00000000000E+00 0.  1.
         23    2    1    2    0    0 -0.75732704930E+02 -0.83826418427E+02 -0.91797295381E+00  0.14558866626E+03  0.91830855643E+02 0.  0.
         23    2    1    2    0    0  0.78510729683E+02  0.52494317134E+02  0.34531682836E+02  0.13579888265E+03  0.91265061230E+02 0.  0.
        -11    1    4    4    0    0  0.66797745266E+02  0.10307715828E+02 -0.15471669840E+02  0.69336572931E+02  0.00000000000E+00 0.  1.
         11    1    4    4    0    0  0.11712984418E+02  0.42186601306E+02  0.50003352676E+02  0.66462309714E+02  0.00000000000E+00 0. -1.
        -13    1    3    3    0    0  0.20243557113E+02 -0.38562866156E+01  0.12209067539E+01  0.20643719732E+02  0.00000000000E+00 0.  1.
         13    1    3    3    0    0 -0.95976262043E+02 -0.79970131812E+02 -0.21388797077E+01  0.12494494653E+03  0.00000000000E+00 0. -1.
         21    1    1    2  502  501 -0.27780247533E+01  0.31332101293E+02 -0.60688373848E+02  0.68355663359E+02  0.00000000000E+00 0.  1.
<scales pt_clust_5="13000.00000" pt_clust_6="13000.00000" pt_clust_7="13000.00000" pt_clust_8="13000.00000" pt_clust_9="31.45502"></scales>
<clustering>
<clus scale="   31.455">  2  9  1 -1</clus>
<clus scale="   91.265">  5  6 -1 -1</clus>
<clus scale="   91.831">  7  8 -1 -1</clus>
<clus scale="  136.310">  1  5  2 -1</clus>
<clus scale="  136.310">  1  5  2 -1</clus>
</clustering>
</event>
<event>
 9    1  0.1748361E-005  0.1047190E+03  0.7546771E-02  0.1274372E+00
         -1   -1    0    0    0  501 -0.00000000000E+00  0.00000000000E+00  0.46098814420E+02  0.46098814420E+02  0.00000000000E+00 0.  1.
          1   -1    0    0  502    0  0.00000000000E+00 -0.00000000000E+00 -0.37057201500E+03  0.37057201500E+03  0.00000000000E+00 0. -1.
         23    2    1    2    0    0 -0.24227647940E+02 -0.34394315011E+02 -0.98512914661E+02  0.14548436643E+03  0.98442667022E+02 0.  0.
         23    2    1    2    0    0  0.17136830991E+01  0.34841318131E+02 -0.22869512340E+03  0.24850259734E+03  0.90748152926E+02 0.  0.
        -11    1    3    3    0    0 -0.68426934936E+01 -0.59427575854E+02 -0.23064564119E+02  0.64112661341E+02  0.00000000000E+00 0.  1.
         11    1    3    3    0    0 -0.17384954447E+02  0.25033260843E+02 -0.75448350541E+02  0.81371705088E+02  0.00000000000E+00 0. -1.
        -13    1    4    4    0    0  0.42870351025E+02  0.30520121551E+02 -0.95659297912E+02  0.10917896360E+03  0.00000000000E+00 0.  1.
         13    1    4    4    0    0 -0.41156667926E+02  0.43211965799E+01 -0.13303582549E+03  0.13932363374E+03  0.00000000000E+00 0. -1.
         21    1    1    2  502  501  0.22513964841E+02 -0.44700312019E+00  0.27348374833E+01  0.22683865648E+02  0.00000000000E+00 0.  1.
<scales pt_clust_5="13000.00000" pt_clust_6="13000.00000" pt_clust_7="13000.00000" pt_clust_8="13000.00000" pt_clust_9="22.51840"></scales>
<clustering>
<clus scale="   22.518">  1  9  2 -1</clus>
<clus scale="   90.748">  7  8 -1 -1</clus>
<clus scale="   97.521">  2  7  1 -1</clus>
<clus scale="   98.443">  5  6 -1 -1</clus>
<clus scale="   97.521">  2  5  1 -1</clus>
</clustering>
</event>
<event>
 9    1  0.1748361E-005  0.1327822E+03  0.7546771E-02  0.1224881E+00
          1   -1    0    0  502    0  0.00000000000E+00  0.00000000000E+00  0.46460057572E+03  0.46460057572E+03  0.00000000000E+00 0. -1.
         -1   -1    0    0    0  501 -0.00000000000E+00 -0.00000000000E+00 -0.12656693328E+03  0.12656693328E+03  0.00000000000E+00 0.  1.
         23    2    1    2    0    0  0.44805922156E+02 -0.45335479438E+02 -0.74082185792E+02  0.13560543217E+03  0.94009502857E+02 0.  0.
         23    2    1    2    0    0 -0.71773692335E+02  0.64924659970E+02  0.39868159167E+03  0.41962497436E+03  0.88155732568E+02 0.  0.
        -11    1    4    4    0    0 -0.58730489667E+02  0.87113908666E+02  0.31314059299E+03  0.33029552597E+03  0.00000000000E+00 0. -1.
         11    1    4    4    0    0 -0.13043202668E+02 -0.22189248696E+02  0.85540998685E+02  0.89329448390E+02  0.00000000000E+00 0.  1.
        -13    1    3    3    0    0  0.40753584588E+02 -0.14995459670E+02 -0.90856785536E+02  0.10070091333E+03  0.00000000000E+00 0.  1.
         13    1    3    3    0    0  0.40523375687E+01 -0.30340019767E+02  0.16774599744E+02  0.34904518845E+02  0.00000000000E+00 0. -1.
         21    1    1    2  502  501  0.26967770178E+02 -0.19589180532E+02  0.13434236558E+02  0.35937102474E+02  0.00000000000E+00 0.  1.
<scales pt_clust_5="13000.00000" pt_clust_6="13000.00000" pt_clust_7="13000.00000" pt_clust_8="13000.00000" pt_clust_9="33.33162"></scales>
<clustering>
<clus scale="   33.332">  2  9  1 -1</clus>
<clus scale="   88.156">  5  6 -1 -1</clus>
<clus scale="   94.010">  7  8 -1 -1</clus>
<clus scale="  128.704">  1  5  2 -1</clus>
<clus scale="  128.704">  1  5  2 -1</clus>
</clustering>
</event>
<event>
 9    1  0.1748361E-005  0.1092911E+03  0.7546771E-02  0.1263061E+00
         -1   -1    0    0    0  501 -0.00000000000E+00  0.00000000000E+00  0.13335424669E+03  0.13335424669E+03  0.00000000000E+00 0.  1.
          1   -1    0    0  502    0  0.00000000000E+00 -0.00000000000E+00 -0.11740957513E+03  0.11740957513E+03  0.00000000000E+00 0. -1.
         23    2    1    2    0    0  0.44616243854E+02  0.55304790833E+02  0.17137878204E+02  0.11473356409E+03  0.88435596644E+02 0.  0.
         23    2    1    2    0    0 -0.17052122156E+02 -0.50652642814E+02 -0.10866967665E+02  0.10644977534E+03  0.91416620970E+02 0.  0.
        -11    1    4    4    0    0 -0.54744117902E+02 -0.30826484468E+02 -0.11429084317E+02  0.63857768188E+02  0.00000000000E+00 0.  1.
         11    1    4    4    0    0  0.37691995746E+02 -0.19826158346E+02  0.56211665250E+00  0.42592007152E+02  0.00000000000E+00 0. -1.
        -13    1    3    3    0    0  0.19174434290E+02 -0.13066926399E+02  0.32743170304E+02  0.40131268326E+02  0.00000000000E+00 0. -1.
         13    1    3    3    0    0  0.25441809564E+02  0.68371717232E+02 -0.15605292100E+02  0.74602295760E+02  0.00000000000E+00 0.  1.
         21    1    1    2  502  501 -0.27564121698E+02 -0.46521480189E+01  0.96737610228E+01  0.29580482391E+02  0.00000000000E+00 0. -1.
<scales pt_clust_5="13000.00000" pt_clust_6="13000.00000" pt_clust_7="13000.00000" pt_clust_8="13000.00000" pt_clust_9="27.95395"></scales>
<clustering>
<clus scale="   27.954">  1  9  2 -1</clus>
<clus scale="   88.436">  7  8 -1 -1</clus>
<clus scale="   91.417">  5  6 -1 -1</clus>
<clus scale="  106.810">  1  7  2 -1</clus>
<clus scale="  109.291">  2  5  1 -1</clus>
</clustering>
</event>
<event>
 9    1  0.1748361E-005  0.9279606E+02  0.7546771E-02  0.1302263E+00
         -1   -1    0    0    0  501 -0.00000000000E+00  0.00000000000E+00  0.56871639532E+02  0.56871639532E+02  0.00000000000E+00 0.  1.
          1   -1    0    0  502    0  0.00000000000E+00 -0.00000000000E+00 -0.28396428725E+03  0.28396428725E+03  0.00000000000E+00 0. -1.
         23    2    1    2    0    0  0.98045845539E+01  0.83378295287E+01 -0.51513977691E+02  0.97052393450E+02  0.81239324821E+02 0.  0.
         23    2    1    2    0    0  0.30373279925E+02 -0.23032267131E+01 -0.17880204012E+03  0.20302733945E+03  0.91225489996E+02 0.  0.
        -11    1    3    3    0    0 -0.22476349416E+02  0.14302715210E+02 -0.57785660331E+02  0.63631253998E+02  0.00000000000E+00 0. -1.
         11    1    3    3    0    0  0.32280933970E+02 -0.59648856814E+01  0.62716826397E+01  0.33421139452E+02  0.00000000000E+00 0.  1.
        -13    1    4    4    0    0 -0.26990807652E+02 -0.22171096929E+02 -0.75922147020E+02  0.83571727545E+02  0.00000000000E+00 0.  1.
         13    1    4    4    0    0  0.57364087577E+02  0.19867870216E+02 -0.10287989310E+03  0.11945561190E+03  0.00000000000E+00 0. -1.
         21    1    1    2  502  501 -0.40177864479E+02 -0.60346028156E+01  0.32233700941E+01  0.40756193885E+02  0.00000000000E+00 0.  1.
<scales pt_clust_5="13000.00000" pt_clust_6="13000.00000" pt_clust_7="13000.00000" pt_clust_8="13000.00000" pt_clust_9="40.62853"></scales>
<clustering>
<clus scale="   40.629">  1  9  2 -1</clus>
<clus scale="   81.239">  5  6 -1 -1</clus>
<clus scale="   82.999">  1  5  2 -1</clus>
<clus scale="   91.225">  7  8 -1 -1</clus>
<clus scale="   92.796">  2  5  1 -1</clus>
</clustering>
</event>
<event>
 9    1  0.1748361E-005  0.1129004E+03  0.7546771E-02  0.1257430E+00
          1   -1    0    0  502    0  0.00000000000E+00  0.00000000000E+00  0.39526684804E+03  0.39526684804E+03  0.00000000000E+00 0. -1.
         -1   -1    0    0    0  501 -0.00000000000E+00 -0.00000000000E+00 -0.66551395864E+02  0.66551395864E+02  0.00000000000E+00 0.  1.
         23    2    1    2    0    0 -0.56631998292E+02  0.20937395172E+02  0.14512599558E+02  0.11251372552E+03  0.93825183917E+02 0.  0.
         23    2    1    2    0    0  0.46519945759E+02 -0.44051901644E+02  0.30243156515E+03  0.32146395042E+03  0.88145019313E+02 0.  0.
        -11    1    4    4    0    0  0.28907882092E+01 -0.37072212993E+02  0.37273923279E+02  0.52650270553E+02  0.00000000000E+00 0.  1.
         11    1    4    4    0    0  0.43629157550E+02 -0.69796886508E+01  0.26515764187E+03  0.26881367987E+03  0.00000000000E+00 0. -1.
        -13    1    3    3    0    0 -0.10192691388E+02 -0.29979443516E+02 -0.17882445622E+02  0.36365366115E+02  0.00000000000E+00 0. -1.
         13    1    3    3    0    0 -0.46439306904E+02  0.50916838688E+02  0.32395045180E+02  0.76148359404E+02  0.00000000000E+00 0.  1.
         21    1    1    2  502  501  0.10112052533E+02  0.23114506471E+02  0.11771287467E+02  0.27840567962E+02  0.00000000000E+00 0. -1.
<scales pt_clust_5="13000.00000" pt_clust_6="13000.00000" pt_clust_7="13000.00000" pt_clust_8="13000.00000" pt_clust_9="25.22963"></scales>
<clustering>
<clus scale="   25.230">  2  9  1 -1</clus>
<clus scale="   88.145">  5  6 -1 -1</clus>
<clus scale="   93.825">  7  8 -1 -1</clus>
<clus scale="  108.226">  1  5  2 -1</clus>
<clus scale="  108.226">  1  5  2 -1</clus>
</clustering>
</event>
<event>
 9    1  0.1748361E-005  0.1051739E+03  0.7546771E-02  0.1270705E+00
          1   -1    0    0  502    0  0.00000000000E+00  0.00000000000E+00  0.42231751569E+02  0.42231751569E+02  0.00000000000E+00 0. -1.
         -1   -1    0    0    0  501 -0.00000000000E+00 -0.00000000000E+00 -0.34887062709E+03  0.34887062709E+03  0.00000000000E+00 0.  1.
         23    2    1    2    0    0  0.27442096416E+02  0.36007259857E+02 -0.11793124005E+03  0.15384775439E+03  0.87816642688E+02 0.  0.
         23    2    1    2    0    0 -0.50519594440E+02 -0.39929413408E+02 -0.11365530403E+03  0.15863651784E+03  0.90007939542E+02 0.  0.
        -11    1    4    4    0    0 -0.26159558008E+02 -0.55266754333E+02 -0.11453758211E+03  0.12983679881E+03  0.00000000000E+00 0.  1.
         11    1    4    4    0    0 -0.24360036432E+02  0.15337340925E+02  0.88227807944E+00  0.28799719030E+02  0.00000000000E+00 0. -1.
        -13    1    3    3    0    0 -0.17591267253E+02 -0.13356486171E+02 -0.50261625007E+01  0.22651947286E+02  0.00000000000E+00 0. -1.
         13    1    3    3    0    0  0.45033363668E+02  0.49363746028E+02 -0.11290507755E+03  0.13119580710E+03  0.00000000000E+00 0.  1.
         21    1    1    2  502  501  0.23077498024E+02  0.39221535504E+01 -0.75052331443E+02  0.78618106430E+02  0.00000000000E+00 0.  1.
<scales pt_clust_5="13000.00000" pt_clust_6="13000.00000" pt_clust_7="13000.00000" pt_clust_8="13000.00000" pt_clust_9="23.40842"></scales>
<clustering>
<clus scale="   23.408">  2  9  1 -1</clus>
<clus scale="   87.817">  7  8 -1 -1</clus>
<clus scale="   90.008">  5  6 -1 -1</clus>
<clus scale="  103.305">  2  7  1 -1</clus>
<clus scale="  105.174">  1  5  2 -1</clus>
</clustering>
</event>
<event>
 9    1  0.1748361E-005  0.9900673E+02  0.7546771E-02  0.1282435E+00
         -1   -1    0    0    0  501 -0.00000000000E+00  0.00000000000E+00  0.23581017180E+03  0.23581017180E+03  0.00000000000E+00 0.  1.
          1   -1    0    0  502    0  0.00000000000E+00 -0.00000000000E+00 -0.78117945248E+02  0.78117945248E+02  0.00000000000E+00 0. -1.
         23    2    1    2    0    0 -0.81835040273E+01 -0.33646363575E+02  0.88847301605E+02  0.13154955618E+03  0.90622266622E+02 0.  0.
         23    2    1    2    0    0  0.36922700870E+02  0.25730038115E+02 -0.65281023340E+01  0.10132485716E+03  0.90547169240E+02 0.  0.
        -13    1    4    4    0    0  0.54465204281E+01  0.49659492953E+02  0.19890743665E+02  0.53771474861E+02  0.00000000000E+00 0.  1.
         13    1    4    4    0    0  0.31476180442E+02 -0.23929454839E+02 -0.26418845999E+02  0.47553382299E+02  0.00000000000E+00 0. -1.
        -13    1    3    3    0    0 -0.45041152874E+02 -0.21466860684E+02  0.22617167125E+02  0.54782002598E+02  0.00000000000E+00 0.  1.
         13    1    3    3    0    0  0.36857648847E+02 -0.12179502891E+02  0.66230134480E+02  0.76767553578E+02  0.00000000000E+00 0. -1.
         21    1    1    2  502  501 -0.28739196843E+02  0.79163254602E+01  0.75373027278E+02  0.81053703710E+02  0.00000000000E+00 0.  1.
<scales pt_clust_5="13000.00000" pt_clust_6="13000.00000" pt_clust_7="13000.00000" pt_clust_8="13000.00000" pt_clust_9="29.80956"></scales>
<clustering>
<clus scale="   29.810">  1  9  2 -1</clus>
<clus scale="   90.547">  5  6 -1 -1</clus>
<clus scale="   90.622">  7  8 -1 -1</clus>
<clus scale="   98.938">  2  5  1 -1</clus>
<clus scale="   98.938">  2  5  1 -1</clus>
</clustering>
</event>
<event>
 9    1  0.1748361E-005  0.9659291E+02  0.7546771E-02  0.1288601E+00
         -1   -1    0    0    0  501 -0.00000000000E+00  0.00000000000E+00  0.91823147035E+02  0.91823147035E+02  0.00000000000E+00 0.  1.
          1   -1    0    0  502    0  0.00000000000E+00 -0.00000000000E+00 -0.21951024230E+03  0.21951024230E+03  0.00000000000E+00 0. -1.
         23    2    1    2    0    0 -0.16509055603E+02 -0.10903944405E+02 -0.45717538840E+02  0.10280618360E+03  0.89930935215E+02 0.  0.
         23    2    1    2    0    0  0.10997018789E+02 -0.65389439757E+02 -0.33913851673E+02  0.11819219715E+03  0.91774358499E+02 0.  0.
        -13    1    4    4    0    0 -0.38909044216E+02 -0.42121285871E+02 -0.24377369619E+02  0.62308687955E+02  0.00000000000E+00 0.  1.
         13    1    4    4    0    0  0.49906063005E+02 -0.23268153886E+02 -0.95364820541E+01  0.55883509194E+02  0.00000000000E+00 0. -1.
        -13    1    3    3    0    0 -0.56989188990E+01 -0.39666761019E+02  0.80531483262E+01  0.40875210144E+02  0.00000000000E+00 0.  1.
         13    1    3    3    0    0 -0.10810136704E+02  0.28762816613E+02 -0.53770687166E+02  0.61930973458E+02  0.00000000000E+00 0. -1.
         21    1    1    2  502  501  0.55120368142E+01  0.76293384162E+02 -0.48055704753E+02  0.90335008586E+02  0.00000000000E+00 0. -1.
<scales pt_clust_5="13000.00000" pt_clust_6="13000.00000" pt_clust_7="13000.00000" pt_clust_8="13000.00000" pt_clust_9="76.49224"></scales>
<clustering>
<clus scale="   76.492">  2  9  1 -1</clus>
<clus scale="   89.931">  7  8 -1 -1</clus>
<clus scale="   91.774">  5  6 -1 -1</clus>
<clus scale="   94.843">  1  7  2 -1</clus>
<clus scale="   76.492">  2  5  1 -1</clus>
</clustering>
</event>
<event>
 9    1  0.1748361E-005  0.9623231E+02  0.7546771E-02  0.1289544E+00
          2   -1    0    0  502    0  0.00000000000E+00  0.00000000000E+00  0.15101799477E+03  0.15101799477E+03  0.00000000000E+00 0. -1.
         -2   -1    0    0    0  501 -0.00000000000E+00 -0.00000000000E+00 -0.11284696527E+03  0.11284696527E+03  0.00000000000E+00 0.  1.
         23    2    1    2    0    0 -0.14583610896E+02  0.28761372277E+01 -0.56054201642E+01  0.94534360751E+02  0.93189971324E+02 0.  0.
         23    2    1    2    0    0  0.12518717260E+02  0.30934224316E+02  0.75476522750E+02  0.12293772304E+03  0.91122630254E+02 0.  0.
        -13    1    4    4    0    0 -0.19712309463E+02  0.53621558633E+02  0.38490313855E+02  0.68886507788E+02  0.00000000000E+00 0.  1.
         13    1    4    4    0    0  0.32231026723E+02 -0.22687334317E+02  0.36986208895E+02  0.54051215254E+02  0.00000000000E+00 0. -1.
        -13    1    3    3    0    0 -0.41365017583E+02 -0.30175769992E+02  0.23533532942E+01  0.51256024485E+02  0.00000000000E+00 0. -1.
         13    1    3    3    0    0  0.26781406688E+02  0.33051907220E+02 -0.79587734585E+01  0.43278336266E+02  0.00000000000E+00 0.  1.
         21    1    1    2  502  501  0.20648936357E+01 -0.33810361544E+02 -0.31700073076E+02  0.46392876247E+02  0.00000000000E+00 0.  1.
<scales pt_clust_5="13000.00000" pt_clust_6="13000.00000" pt_clust_7="13000.00000" pt_clust_8="13000.00000" pt_clust_9="33.87336"></scales>
<clustering>
<clus scale="   33.873">  2  9  1 -1</clus>
<clus scale="   91.123">  5  6 -1 -1</clus>
<clus scale="   93.190">  7  8 -1 -1</clus>
<clus scale="   94.232">  1  5  2 -1</clus>
<clus scale="   94.232">  1  5  2 -1</clus>
</clustering>
</event>
<event>
 9    1  0.1748361E-005  0.1153062E+03  0.7546771E-02  0.1251319E+00
         -3   -1    0    0    0  501 -0.00000000000E+00  0.00000000000E+00  0.13277435914E+03  0.13277435914E+03  0.00000000000E+00 0.  1.
          3   -1    0    0  502    0  0.00000000000E+00 -0.00000000000E+00 -0.13235007092E+03  0.13235007092E+03  0.00000000000E+00 0. -1.
         23    2    1    2    0    0 -0.61643613294E+02  0.10198226249E+02 -0.35355308329E+01  0.10976026571E+03  0.90171376123E+02 0.  0.
         23    2    1    2    0    0  0.74103424453E+02 -0.29643735224E+02 -0.19350774598E+02  0.12255016598E+03  0.90961652081E+02 0.  0.
        -11    1    4    4    0    0  0.93838764555E+02 -0.19348151020E+02 -0.47518585211E+01  0.95930416659E+02  0.00000000000E+00 0.  1.
         11    1    4    4    0    0 -0.19735340101E+02 -0.10295584204E+02 -0.14598916077E+02  0.26619749316E+02  0.00000000000E+00 0. -1.
        -13    1    3    3    0    0  0.97963871262E+01 -0.26349511677E+02 -0.84780024013E+01  0.29362263044E+02  0.00000000000E+00 0.  1.
         13    1    3    3    0    0 -0.71440000420E+02  0.36547737926E+02  0.49424715684E+01  0.80398002666E+02  0.00000000000E+00 0. -1.
         21    1    1    2  502  501 -0.12459811160E+02  0.19445508975E+02  0.23310593644E+02  0.32813998377E+02  0.00000000000E+00 0.  1.
<scales pt_clust_5="13000.00000" pt_clust_6="13000.00000" pt_clust_7="13000.00000" pt_clust_8="13000.00000" pt_clust_9="23.09491"></scales>
<clustering>
<clus scale="   23.095">  1  9  2 -1</clus>
<clus scale="   90.171">  7  8 -1 -1</clus>
<clus scale="   90.962">  5  6 -1 -1</clus>
<clus scale="  114.684">  1  7  2 -1</clus>
<clus scale="  115.306">  2  5  1 -1</clus>
</clustering>
</event>
<event>
 9    1  0.1748361E-005  0.1678540E+03  0.7546771E-02  0.1180367E+00
         -1   -1    0    0    0  501 -0.00000000000E+00  0.00000000000E+00  0.33029593431E+03  0.33029593431E+03  0.00000000000E+00 0.  1.
          1   -1    0    0  502    0  0.00000000000E+00 -0.00000000000E+00 -0.12113383039E+03  0.12113383039E+03  0.00000000000E+00 0. -1.
         23    2    1    2    0    0 -0.12609986065E+03 -0.97779243971E+02  0.18215917420E+03  0.25843546879E+03  0.90249495158E+02 0.  0.
         23    2    1    2    0    0  0.10375835444E+03  0.82871251424E+02  0.11522878713E+02  0.16199392299E+03  0.92064183726E+02 0.  0.
        -13    1    4    4    0    0  0.83506885660E+01  0.43603431475E+02 -0.26887759990E+02  0.51903226039E+02  0.00000000000E+00 0.  1.
         13    1    4    4    0    0  0.95407665872E+02  0.39267819949E+02  0.38410638703E+02  0.11009069696E+03  0.00000000000E+00 0. -1.
        -13    1    3    3    0    0 -0.33963020032E+02 -0.23592835608E+02  0.13808191589E+00  0.41353690142E+02  0.00000000000E+00 0. -1.
         13    1    3    3    0    0 -0.92136840617E+02 -0.74186408363E+02  0.18202109228E+03  0.21708177865E+03  0.00000000000E+00 0.  1.
         21    1    1    2  502  501  0.22341506212E+02  0.14907992547E+02  0.15480051002E+02  0.31000372911E+02  0.00000000000E+00 0. -1.
<scales pt_clust_5="13000.00000" pt_clust_6="13000.00000" pt_clust_7="13000.00000" pt_clust_8="13000.00000" pt_clust_9="26.85873"></scales>
<clustering>
<clus scale="   26.859">  1  9  2 -1</clus>
<clus scale="   90.249">  7  8 -1 -1</clus>
<clus scale="   92.064">  5  6 -1 -1</clus>
<clus scale="  166.866">  1  7  2 -1</clus>
<clus scale="  167.854">  2  5  1 -1</clus>
</clustering>
</event>
<event>
 9    1  0.1748361E-005  0.1441705E+03  0.7546771E-02  0.1208170E+00
          1   -1    0    0  502    0  0.00000000000E+00  0.00000000000E+00  0.39226124526E+03  0.39226124526E+03  0.00000000000E+00 0. -1.
         -1   -1    0    0    0  501 -0.00000000000E+00 -0.00000000000E+00 -0.14261926214E+03  0.14261926214E+03  0.00000000000E+00 0.  1.
         23    2    1    2    0    0 -0.95451359504E+02 -0.67587895986E+02  0.44081507300E+02  0.15411950685E+03  0.90169603469E+02 0.  0.
         23    2    1    2    0    0  0.10399279287E+03  0.36803143853E+02  0.27171257369E+03  0.30729837673E+03  0.91845507644E+02 0.  0.
        -11    1    3    3    0    0 -0.49345551469E+02 -0.70346804869E+02  0.60510854624E+02  0.10509624129E+03  0.00000000000E+00 0.  1.
         11    1    3    3    0    0 -0.46105808035E+02  0.27589088824E+01 -0.16429347324E+02  0.49023265561E+02  0.00000000000E+00 0. -1.
        -13    1    4    4    0    0  0.91719175441E+01 -0.27187815868E+02  0.45182590091E+02  0.53523526140E+02  0.00000000000E+00 0.  1.
         13    1    4    4    0    0  0.94820875324E+02  0.63990959721E+02  0.22652998360E+03  0.25377485059E+03  0.00000000000E+00 0. -1.
         21    1    1    2  502  501 -0.85414333641E+01  0.30784752133E+02 -0.66152097860E+02  0.73462623824E+02  0.00000000000E+00 0. -1.
<scales pt_clust_5="13000.00000" pt_clust_6="13000.00000" pt_clust_7="13000.00000" pt_clust_8="13000.00000" pt_clust_9="31.94772"></scales>
<clustering>
<clus scale="   31.948">  2  9  1 -1</clus>
<clus scale="   90.170">  5  6 -1 -1</clus>
<clus scale="   91.846">  7  8 -1 -1</clus>
<clus scale="  143.109">  2  5  1 -1</clus>
<clus scale="  144.170">  1  5  2 -1</clus>
</clustering>
</event>
<event>
 9    1  0.1748361E-005  0.1783332E+03  0.7546771E-02  0.1170794E+00
          2   -1    0    0  502    0  0.00000000000E+00  0.00000000000E+00  0.73451820367E+02  0.73451820367E+02  0.00000000000E+00 0. -1.
         -2   -1    0    0    0  501 -0.00000000000E+00 -0.00000000000E+00 -0.61349800171E+03  0.61349800171E+03  0.00000000000E+00 0.  1.
         23    2    1    2    0    0  0.13320825912E+03 -0.45314194333E+02 -0.31452565629E+03  0.35587092215E+03  0.88993866427E+02 0.  0.
         23    2    1    2    0    0 -0.14719402665E+03  0.65546886128E+02 -0.10340127565E+03  0.20650733582E+03  0.77401422317E+02 0.  0.
        -13    1    4    4    0    0 -0.61011750601E+02 -0.20318489037E+01 -0.85828027349E+01  0.61645978167E+02  0.00000000000E+00 0. -1.
         13    1    4    4    0    0 -0.86182276051E+02  0.67578735032E+02 -0.94818472920E+02  0.14486135765E+03  0.00000000000E+00 0.  1.
        -13    1    3    3    0    0  0.52397734218E+02  0.14930329522E+02 -0.17810928150E+03  0.18625615009E+03  0.00000000000E+00 0. -1.
         13    1    3    3    0    0  0.80810524900E+02 -0.60244523855E+02 -0.13641637479E+03  0.16961477206E+03  0.00000000000E+00 0.  1.
         21    1    1    2  502  501  0.13985767534E+02 -0.20232691795E+02 -0.12211924939E+03  0.12457156410E+03  0.00000000000E+00 0. -1.
<scales pt_clust_5="13000.00000" pt_clust_6="13000.00000" pt_clust_7="13000.00000" pt_clust_8="13000.00000" pt_clust_9="24.59601"></scales>
<clustering>
<clus scale="   24.596">  2  9  1 -1</clus>
<clus scale="   77.401">  5  6 -1 -1</clus>
<clus scale="   88.994">  7  8 -1 -1</clus>
<clus scale="  172.840">  1  5  2 -1</clus>
<clus scale="  172.840">  1  5  2 -1</clus>
</clustering>
</event>
<event>
 9    1  0.1748361E-005  0.2170719E+03  0.7546771E-02  0.1136130E+00
          1   -1    0    0  502    0  0.00000000000E+00  0.00000000000E+00  0.56013012670E+03  0.56013012670E+03  0.00000000000E+00 0. -1.
         -1   -1    0    0    0  501 -0.00000000000E+00 -0.00000000000E+00 -0.99088206526E+02  0.99088206526E+02  0.00000000000E+00 0.  1.
         23    2    1    2    0    0 -0.16354822319E+03  0.80789336993E+02  0.18211491558E+03  0.27342213401E+03  0.91207908681E+02 0.  0.
         23    2    1    2    0    0  0.19399200878E+03 -0.92790465062E+02  0.24479853438E+03  0.33851402885E+03  0.91773936490E+02 0.  0.
        -11    1    3    3    0    0 -0.58408941703E+02  0.24122736553E+02  0.12705735517E+03  0.14190518804E+03  0.00000000000E+00 0. -1.
         11    1    3    3    0    0 -0.10513928149E+03  0.56666600441E+02  0.55057560409E+02  0.13151694596E+03  0.00000000000E+00 0.  1.
        -13    1    4    4    0    0  0.45663954459E+02 -0.14097039467E+02  0.12041528369E+03  0.12955216635E+03  0.00000000000E+00 0.  1.
         13    1    4    4    0    0  0.14832805432E+03 -0.78693425595E+02  0.12438325069E+03  0.20896186250E+03  0.00000000000E+00 0. -1.
         21    1    1    2  502  501 -0.30443785587E+02  0.12001128069E+02  0.34128470212E+02  0.47282170369E+02  0.00000000000E+00 0.  1.
<scales pt_clust_5="13000.00000" pt_clust_6="13000.00000" pt_clust_7="13000.00000" pt_clust_8="13000.00000" pt_clust_9="32.72386"></scales>
<clustering>
<clus scale="   32.724">  1  9  2 -1</clus>
<clus scale="   91.208">  5  6 -1 -1</clus>
<clus scale="   91.774">  7  8 -1 -1</clus>
<clus scale="  216.833">  2  5  1 -1</clus>
<clus scale="   32.724">  1  5  2 -1</clus>
</clustering>
</event>
<event>
 9    1  0.1748361E-005  0.1514383E+03  0.7546771E-02  0.1198827E+00
          1   -1    0    0  502    0  0.00000000000E+00  0.00000000000E+00  0.13114415603E+03  0.13114415603E+03  0.00000000000E+00 0. -1.
         -1   -1    0    0    0  501 -0.00000000000E+00 -0.00000000000E+00 -0.56090498403E+03  0.56090498403E+03  0.00000000000E+00 0.  1.
         23    2    1    2    0    0  0.91149531613E+02  0.78034081593E+02 -0.23620959362E+03  0.27989051006E+03  0.90256138303E+02 0.  0.
         23    2    1    2    0    0  0.33012775850E+02 -0.13386634765E+03  0.12059757604E+02  0.16556300848E+03  0.90860495381E+02 0.  0.
        -13    1    4    4    0    0  0.63151358229E+02 -0.72871917921E+02  0.14350475909E+02  0.97490238621E+02  0.00000000000E+00 0. -1.
         13    1    4    4    0    0 -0.30138582379E+02 -0.60994429731E+02 -0.22907183051E+01  0.68072769859E+02  0.00000000000E+00 0.  1.
        -13    1    3    3    0    0  0.25528997399E+02  0.94307134754E+01 -0.21369521897E+01  0.27298985870E+02  0.00000000000E+00 0.  1.
         13    1    3    3    0    0  0.65620534214E+02  0.68603368118E+02 -0.23407264143E+03  0.25259152419E+03  0.00000000000E+00 0. -1.
         21    1    1    2  502  501 -0.12416230746E+03  0.55832266058E+02 -0.20561099198E+03  0.24659562152E+03  0.00000000000E+00 0.  1.
<scales pt_clust_5="13000.00000" pt_clust_6="13000.00000" pt_clust_7="13000.00000" pt_clust_8="13000.00000" pt_clust_9="136.13787"></scales>
<clustering>
<clus scale="   90.256">  7  8 -1 -1</clus>
<clus scale="   90.860">  5  6 -1 -1</clus>
<clus scale="  136.138">  2  9  1 -1</clus>
<clus scale="  151.076">  2  7  1 -1</clus>
<clus scale="  151.438">  1  5  2 -1</clus>
</clustering>
</event>
<event>
 9    1  0.1748361E-005  0.2058030E+03  0.7546771E-02  0.1145208E+00
          2   -1    0    0  502    0  0.00000000000E+00  0.00000000000E+00  0.12267465082E+03  0.12267465082E+03  0.00000000000E+00 0. -1.
         -2   -1    0    0    0  501 -0.00000000000E+00 -0.00000000000E+00 -0.54252743136E+03  0.54252743136E+03  0.00000000000E+00 0.  1.
         23    2    1    2    0    0  0.12834570031E+03 -0.12948160740E+03 -0.27040911185E+03  0.33883566177E+03  0.91926125102E+02 0.  0.
         23    2    1    2    0    0 -0.14846344882E+03  0.10774587000E+03 -0.36656063381E+02  0.20975505733E+03  0.94883870897E+02 0.  0.
        -11    1    4    4    0    0 -0.29175797859E+02  0.78309682257E+02 -0.17935495515E+02  0.85471138493E+02  0.00000000000E+00 0.  1.
         11    1    4    4    0    0 -0.11928765096E+03  0.29436187741E+02 -0.18720567866E+02  0.12428391884E+03  0.00000000000E+00 0. -1.
        -11    1    3    3    0    0  0.44245571598E+02 -0.77640745821E+02 -0.19516234718E+03  0.21464877772E+03  0.00000000000E+00 0.  1.
         11    1    3    3    0    0  0.84100128715E+02 -0.51840861574E+02 -0.75246764662E+02  0.12418688405E+03  0.00000000000E+00 0. -1.
         21    1    1    2  502  501  0.20117748510E+02  0.21735737397E+02 -0.11278760531E+03  0.11661136307E+03  0.00000000000E+00 0.  1.
<scales pt_clust_5="13000.00000" pt_clust_6="13000.00000" pt_clust_7="13000.00000" pt_clust_8="13000.00000" pt_clust_9="29.61699"></scales>
<clustering>
<clus scale="   29.617">  2  9  1 -1</clus>
<clus scale="   91.926">  7  8 -1 -1</clus>
<clus scale="   94.884">  5  6 -1 -1</clus>
<clus scale="  204.456">  2  7  1 -1</clus>
<clus scale="  205.803">  1  5  2 -1</clus>
</clustering>
</event>
<event>
 9    1  0.1748361E-005  0.1139408E+03  0.7546771E-02  0.1253565E+00
         -1   -1    0    0    0  501 -0.00000000000E+00  0.00000000000E+00  0.69582796822E+02  0.69582796822E+02  0.00000000000E+00 0.  1.
          1   -1    0    0  502    0  0.00000000000E+00 -0.00000000000E+00 -0.48374599974E+03  0.48374599974E+03  0.00000000000E+00 0. -1.
         23    2    1    2    0    0 -0.36686322985E+02 -0.16257578154E+02 -0.56789714224E+02  0.11509936367E+03  0.91720208976E+02 0.  0.
         23    2    1    2    0    0 -0.16573104381E+02  0.89910097674E+02 -0.30929034092E+03  0.33540312626E+03  0.92066544768E+02 0.  0.
        -11    1    3    3    0    0  0.29545204620E+02 -0.15353444920E+02 -0.24946494443E+02  0.41604987345E+02  0.00000000000E+00 0.  1.
         11    1    3    3    0    0 -0.66231527605E+02 -0.90413323399E+00 -0.31843219781E+02  0.73494376328E+02  0.00000000000E+00 0. -1.
        -13    1    4    4    0    0  0.20623420602E+01  0.68150633535E+02 -0.29612701700E+03  0.30387492872E+03  0.00000000000E+00 0.  1.
         13    1    4    4    0    0 -0.18635446442E+02  0.21759464139E+02 -0.13163323923E+02  0.31528197544E+02  0.00000000000E+00 0. -1.
         21    1    1    2  502  501  0.53259427366E+02 -0.73652519520E+02 -0.48083147769E+02  0.10282630663E+03  0.00000000000E+00 0.  1.
<scales pt_clust_5="13000.00000" pt_clust_6="13000.00000" pt_clust_7="13000.00000" pt_clust_8="13000.00000" pt_clust_9="90.89148"></scales>
<clustering>
<clus scale="   90.891">  1  9  2 -1</clus>
<clus scale="   91.720">  5  6 -1 -1</clus>
<clus scale="   92.067">  7  8 -1 -1</clus>
<clus scale="  113.661">  1  5  2 -1</clus>
<clus scale="  113.941">  2  5  1 -1</clus>
</clustering>
</event>
<event>
 9    1  0.1748361E-005  0.1037704E+03  0.7546771E-02  0.1273069E+00
          1   -1    0    0  502    0  0.00000000000E+00  0.00000000000E+00  0.10015738093E+03  0.10015738093E+03  0.00000000000E+00 0. -1.
         -1   -1    0    0    0  501 -0.00000000000E+00 -0.00000000000E+00 -0.32665423842E+03  0.32665423842E+03  0.00000000000E+00 0.  1.
         23    2    1    2    0    0 -0.99262324560E+02  0.52941871055E+02 -0.17668213151E+03  0.22792945932E+03  0.89885549676E+02 0.  0.
         23    2    1    2    0    0  0.30593807216E+02 -0.20372227142E+02  0.14598808590E+02  0.99256609022E+02  0.91037028420E+02 0.  0.
        -11    1    4    4    0    0 -0.14411476730E+02 -0.43700815898E+02 -0.15868468559E+01  0.46043132546E+02  0.00000000000E+00 0.  1.
         11    1    4    4    0    0  0.45005283946E+02  0.23328588756E+02  0.16185655446E+02  0.53213476476E+02  0.00000000000E+00 0. -1.
        -13    1    3    3    0    0 -0.75830083825E+02  0.16821591254E+02 -0.16644113648E+03  0.18367313211E+03  0.00000000000E+00 0.  1.
         13    1    3    3    0    0 -0.23432240736E+02  0.36120279801E+02 -0.10240995032E+02  0.44256327209E+02  0.00000000000E+00 0. -1.
         21    1    1    2  502  501  0.68668517344E+02 -0.32569643913E+02 -0.64413534560E+02  0.99625551007E+02  0.00000000000E+00 0. -1.
<scales pt_clust_5="13000.00000" pt_clust_6="13000.00000" pt_clust_7="13000.00000" pt_clust_8="13000.00000" pt_clust_9="76.00097"></scales>
<clustering>
<clus scale="   76.001">  2  9  1 -1</clus>
<clus scale="   89.886">  7  8 -1 -1</clus>
<clus scale="   91.037">  5  6 -1 -1</clus>
<clus scale="  102.762">  2  7  1 -1</clus>
<clus scale="  103.770">  1  5  2 -1</clus>
</clustering>
</event>
<event>
 9    1  0.1748361E-005  0.1074057E+03  0.7546771E-02  0.1266336E+00
          2   -1    0    0  502    0  0.00000000000E+00  0.00000000000E+00  0.28010028302E+03  0.28010028302E+03  0.00000000000E+00 0. -1.
         -2   -1    0    0    0  501 -0.00000000000E+00 -0.00000000000E+00 -0.10374362642E+03  0.10374362642E+03  0.00000000000E+00 0.  1.
         23    2    1    2    0    0 -0.10557652469E+02 -0.37780218920E+02  0.24174095904E+02  0.99627838828E+02  0.88331819802E+02 0.  0.
         23    2    1    2    0    0  0.10074576907E+02  0.64237153362E+02  0.20034784575E+03  0.22926065753E+03  0.90516743316E+02 0.  0.
        -13    1    3    3    0    0 -0.11441408554E+02  0.25264413193E+02 -0.79688826610E+01  0.28856532961E+02  0.00000000000E+00 0. -1.
         13    1    3    3    0    0  0.88375608565E+00 -0.63044632113E+02  0.32142978565E+02  0.70771305867E+02  0.00000000000E+00 0.  1.
        -13    1    4    4    0    0 -0.19466981465E+02  0.60641524091E+02  0.18524539604E+03  0.19588827061E+03  0.00000000000E+00 0. -1.
         13    1    4    4    0    0  0.29541558372E+02  0.35956292714E+01  0.15102449715E+02  0.33372386913E+02  0.00000000000E+00 0.  1.
         21    1    1    2  502  501  0.48307556212E+00 -0.26456934442E+02 -0.48165285056E+02  0.54955413078E+02  0.00000000000E+00 0. -1.
<scales pt_clust_5="13000.00000" pt_clust_6="13000.00000" pt_clust_7="13000.00000" pt_clust_8="13000.00000" pt_clust_9="26.46134"></scales>
<clustering>
<clus scale="   26.461">  2  9  1 -1</clus>
<clus scale="   88.332">  5  6 -1 -1</clus>
<clus scale="   90.517">  7  8 -1 -1</clus>
<clus scale="  105.571">  2  5  1 -1</clus>
<clus scale="  107.406">  1  5  2 -1</clus>
</clustering>
</event>
<event>
 9    1  0.1748361E-005  0.1159029E+03  0.7546771E-02  0.1254921E+00
         -2   -1    0    0    0  501 -0.00000000000E+00  0.00000000000E+00  0.29877208565E+03  0.29877208565E+03  0.00000000000E+00 0.  1.
          2   -1    0    0  502    0  0.00000000000E+00 -0.00000000000E+00 -0.72914285336E+02  0.72914285336E+02  0.00000000000E+00 0. -1.
         23    2    1    2    0    0  0.58997011743E+02 -0.27794486009E+02  0.16425631955E+03  0.20157112401E+03  0.96941212481E+02 0.  0.
         23    2    1    2    0    0 -0.64578185476E+02 -0.11454109601E+01  0.45032187217E+01  0.10585889581E+03  0.83750658724E+02 0.  0.
        -11    1    3    3    0    0  0.78537141217E+02  0.42214582349E+01  0.12102984610E+03  0.14434031629E+03  0.00000000000E+00 0.  1.
         11    1    3    3    0    0 -0.19540129474E+02 -0.32015944244E+02  0.43226473445E+02  0.57230807719E+02  0.00000000000E+00 0. -1.
        -13    1    4    4    0    0 -0.71876168106E+02 -0.21340618855E+02  0.22023364154E+02  0.78144955841E+02  0.00000000000E+00 0. -1.
         13    1    4    4    0    0  0.72979826305E+01  0.20195207895E+02 -0.17520145433E+02  0.27713939965E+02  0.00000000000E+00 0.  1.
         21    1    1    2  502  501  0.55811737333E+01  0.28939896969E+02  0.57098262042E+02  0.64256351165E+02  0.00000000000E+00 0. -1.
<scales pt_clust_5="13000.00000" pt_clust_6="13000.00000" pt_clust_7="13000.00000" pt_clust_8="13000.00000" pt_clust_9="29.47316"></scales>
<clustering>
<clus scale="   29.473">  1  9  2 -1</clus>
<clus scale="   83.751">  7  8 -1 -1</clus>
<clus scale="   96.941">  5  6 -1 -1</clus>
<clus scale="  105.119">  2  7  1 -1</clus>
<clus scale="  105.119">  2  5  1 -1</clus>
</clustering>
</event>
<event>
 9    1  0.2899515E-005  0.1298069E+03  0.7546771E-02  0.1228387E+00
          2   -1    0    0  502    0  0.00000000000E+00  0.00000000000E+00  0.24003525684E+03  0.24003525684E+03  0.00000000000E+00 0. -1.
         -2   -1    0    0    0  501 -0.00000000000E+00 -0.00000000000E+00 -0.34293394926E+03  0.34293394926E+03  0.00000000000E+00 0.  1.
         23    2    1    2    0    0  0.32186843034E+02  0.65720203129E+02 -0.26077465095E+03  0.28625292660E+03  0.92640063928E+02 0.  0.
         23    2    1    2    0    0 -0.21660845297E+02 -0.89665463947E+02  0.20534639807E+03  0.24251651221E+03  0.90211018470E+02 0.  0.
        -11    1    4    4    0    0 -0.37344388860E+02 -0.85254747397E+01  0.29943269618E+02  0.48619815860E+02  0.00000000000E+00 0.  1.
         11    1    4    4    0    0  0.15683543562E+02 -0.81139989207E+02  0.17540312845E+03  0.19389669635E+03  0.00000000000E+00 0. -1.
        -13    1    3    3    0    0  0.27586930742E+02  0.30270380220E+02 -0.24282102384E+03  0.24625065337E+03  0.00000000000E+00 0.  1.
         13    1    3    3    0    0  0.45999122917E+01  0.35449822909E+02 -0.17953627117E+02  0.40002273236E+02  0.00000000000E+00 0. -1.
         21    1    1    2  502  501 -0.10525997737E+02  0.23945260818E+02 -0.47470439532E+02  0.54199767282E+02  0.00000000000E+00 0.  1.
<scales pt_clust_5="13000.00000" pt_clust_6="13000.00000" pt_clust_7="13000.00000" pt_clust_8="13000.00000" pt_clust_9="26.15668"></scales>
<clustering>
<clus scale="   26.157">  2  9  1 -1</clus>
<clus scale="   90.211">  5  6 -1 -1</clus>
<clus scale="   92.640">  7  8 -1 -1</clus>
<clus scale="  128.085">  1  5  2 -1</clus>
<clus scale="  128.085">  1  5  2 -1</clus>
</clustering>
</event>
<event>
 9    1  0.1748361E-005  0.9813677E+02  0.7546771E-02  0.1284942E+00
         -2   -1    0    0    0  501 -0.00000000000E+00  0.00000000000E+00  0.13333415855E+03  0.13333415855E+03  0.00000000000E+00 0.  1.
          2   -1    0    0  502    0  0.00000000000E+00 -0.00000000000E+00 -0.19049298675E+03  0.19049298675E+03  0.00000000000E+00 0. -1.
         23    2    1    2    0    0  0.10588430687E+02 -0.15919776538E+02  0.85492070882E+02  0.12700730163E+03  0.91958720810E+02 0.  0.
         23    2    1    2    0    0 -0.34095883856E+02  0.14016854464E+02 -0.14296210684E+03  0.17323344257E+03  0.90623728276E+02 0.  0.
        -11    1    4    4    0    0 -0.52991496696E+02  0.33493942635E+02 -0.12730663276E+03  0.14190462170E+03  0.00000000000E+00 0. -1.
         11    1    4    4    0    0  0.18895612840E+02 -0.19477088171E+02 -0.15655474078E+02  0.31328820866E+02  0.00000000000E+00 0.  1.
        -13    1    3    3    0    0  0.47962960381E+02 -0.17438084693E+02  0.69744182471E+02  0.86422123063E+02  0.00000000000E+00 0.  1.
         13    1    3    3    0    0 -0.37374529694E+02  0.15183081559E+01  0.15747888411E+02  0.40585178562E+02  0.00000000000E+00 0. -1.
         21    1    1    2  502  501  0.23507453168E+02  0.19029220735E+01  0.31120776090E+00  0.23586401106E+02  0.00000000000E+00 0.  1.
<scales pt_clust_5="13000.00000" pt_clust_6="13000.00000" pt_clust_7="13000.00000" pt_clust_8="13000.00000" pt_clust_9="23.58435"></scales>
<clustering>
<clus scale="   23.584">  1  9  2 -1</clus>
<clus scale="   90.624">  5  6 -1 -1</clus>
<clus scale="   91.959">  7  8 -1 -1</clus>
<clus scale="   96.887">  2  5  1 -1</clus>
<clus scale="   96.887">  2  5  1 -1</clus>
</clustering>
</event>
<event>
 9    1  0.1748361E-005  0.9970783E+02  0.7546771E-02  0.1284955E+00
         -2   -1    0    0    0  501 -0.00000000000E+00  0.00000000000E+00  0.15059703323E+02  0.15059703323E+02  0.00000000000E+00 0.  1.
          2   -1    0    0  502    0  0.00000000000E+00 -0.00000000000E+00 -0.88821439088E+03  0.88821439088E+03  0.00000000000E+00 0. -1.
         23    2    1    2    0    0 -0.14169851714E+02  0.25146382256E+02 -0.30415307968E+03  0.31706630655E+03  0.84786918980E+02 0.  0.
         23    2    1    2    0    0 -0.88193112957E+01 -0.46101129968E+02 -0.49735172927E+03  0.50809691663E+03  0.92739633648E+02 0.  0.
        -13    1    3    3    0    0 -0.42144019951E+02  0.92699726690E+01 -0.25290757922E+03  0.25656245719E+03  0.00000000000E+00 0. -1.
         13    1    3    3    0    0  0.27974168237E+02  0.15876409587E+02 -0.51245500460E+02  0.60503849359E+02  0.00000000000E+00 0.  1.
        -13    1    4    4    0    0  0.40722983936E+02 -0.33627190094E+02 -0.25985218446E+03  0.26516467922E+03  0.00000000000E+00 0.  1.
         13    1    4    4    0    0 -0.49542295232E+02 -0.12473939875E+02 -0.23749954481E+03  0.24293223742E+03  0.00000000000E+00 0. -1.
         21    1    1    2  502  501  0.22989163010E+02  0.20954747712E+02 -0.71649878606E+02  0.78110871022E+02  0.00000000000E+00 0.  1.
<scales pt_clust_5="13000.00000" pt_clust_6="13000.00000" pt_clust_7="13000.00000" pt_clust_8="13000.00000" pt_clust_9="31.10632"></scales>
<clustering>
<clus scale="   31.106">  1  9  2 -1</clus>
<clus scale="   84.787">  5  6 -1 -1</clus>
<clus scale="   92.357">  1  5  2 -1</clus>
<clus scale="   92.740">  7  8 -1 -1</clus>
<clus scale="   99.708">  2  5  1 -1</clus>
</clustering>
</event>
<event>
 9    1  0.1748361E-005  0.2051896E+03  0.7546771E-02  0.1145465E+00
         -2   -1    0    0    0  501 -0.00000000000E+00  0.00000000000E+00  0.13828058404E+03  0.13828058404E+03  0.00000000000E+00 0.  1.
          2   -1    0    0  502    0  0.00000000000E+00 -0.00000000000E+00 -0.59682414241E+03  0.59682414241E+03  0.00000000000E+00 0. -1.
         23    2    1    2    0    0 -0.18832962321E+03 -0.59067168141E+02 -0.72121157414E+02  0.22905335205E+03  0.91142741938E+02 0.  0.
         23    2    1    2    0    0  0.16842946112E+03  0.62667715773E+02 -0.42053879184E+03  0.46639146365E+03  0.91500797559E+02 0.  0.
        -11    1    3    3    0    0 -0.13612650886E+03 -0.35818111523E+02 -0.92442848196E+02  0.16840143619E+03  0.00000000000E+00 0.  1.
         11    1    3    3    0    0 -0.52203114349E+02 -0.23249056618E+02  0.20321690782E+02  0.60651915861E+02  0.00000000000E+00 0. -1.
        -11    1    4    4    0    0  0.14231946585E+03  0.71995822685E+02 -0.40342543006E+03  0.43380906683E+03  0.00000000000E+00 0. -1.
         11    1    4    4    0    0  0.26109995266E+02 -0.93281069120E+01 -0.17113361778E+02  0.32582396822E+02  0.00000000000E+00 0.  1.
         21    1    1    2  502  501  0.19900162089E+02 -0.36005476318E+01  0.34116390875E+02  0.39659910750E+02  0.00000000000E+00 0.  1.
<scales pt_clust_5="13000.00000" pt_clust_6="13000.00000" pt_clust_7="13000.00000" pt_clust_8="13000.00000" pt_clust_9="20.22326"></scales>
<clustering>
<clus scale="   20.223">  1  9  2 -1</clus>
<clus scale="   91.143">  5  6 -1 -1</clus>
<clus scale="   91.501">  7  8 -1 -1</clus>
<clus scale="  205.030">  1  5  2 -1</clus>
<clus scale="  205.190">  2  5  1 -1</clus>
</clustering>
</event>
<event>
 9    1  0.1748361E-005  0.1152627E+03  0.7546771E-02  0.1251538E+00
          1   -1    0    0  502    0  0.00000000000E+00  0.00000000000E+00  0.10582705848E+03  0.10582705848E+03  0.00000000000E+00 0. -1.
         -1   -1    0    0    0  501 -0.00000000000E+00 -0.00000000000E+00 -0.16464127601E+03  0.16464127601E+03  0.00000000000E+00 0.  1.
         23    2    1    2    0    0 -0.53593203407E+02 -0.12251347174E+02 -0.45710090656E+02  0.11579663650E+03  0.91088537576E+02 0.  0.
         23    2    1    2    0    0  0.77324963707E+02  0.15560875184E+02  0.94552799741E+01  0.12176157402E+03  0.92277774891E+02 0.  0.
        -13    1    4    4    0    0  0.53050167010E+02 -0.11015783511E+02 -0.35044078641E+02  0.64527166015E+02  0.00000000000E+00 0.  1.
         13    1    4    4    0    0  0.24274796697E+02  0.26576658695E+02  0.44499358615E+02  0.57234408001E+02  0.00000000000E+00 0. -1.
        -13    1    3    3    0    0 -0.65115850162E+01  0.37398457420E+02 -0.15621007394E+02  0.41049497302E+02  0.00000000000E+00 0. -1.
         13    1    3    3    0    0 -0.47081618391E+02 -0.49649804594E+02 -0.30089083262E+02  0.74747139197E+02  0.00000000000E+00 0.  1.
         21    1    1    2  502  501 -0.23731760300E+02 -0.33095280098E+01 -0.22559406852E+02  0.32910123976E+02  0.00000000000E+00 0. -1.
<scales pt_clust_5="13000.00000" pt_clust_6="13000.00000" pt_clust_7="13000.00000" pt_clust_8="13000.00000" pt_clust_9="23.96142"></scales>
<clustering>
<clus scale="   23.961">  2  9  1 -1</clus>
<clus scale="   91.089">  7  8 -1 -1</clus>
<clus scale="   92.278">  5  6 -1 -1</clus>
<clus scale="  114.313">  2  7  1 -1</clus>
<clus scale="  115.263">  1  5  2 -1</clus>
</clustering>
</event>
<event>
 9    1  0.1748361E-005  0.9944850E+02  0.7546771E-02  0.1282089E+00
          1   -1    0    0  502    0  0.00000000000E+00  0.00000000000E+00  0.31467300970E+03  0.31467300970E+03  0.00000000000E+00 0. -1.
         -1   -1    0    0    0  501 -0.00000000000E+00 -0.00000000000E+00 -0.18213506616E+03  0.18213506616E+03  0.00000000000E+00 0.  1.
         23    2    1    2    0    0  0.41810094712E+02  0.23457725624E+01 -0.14282639727E+03  0.17492390874E+03  0.91898897830E+02 0.  0.
         23    2    1    2    0    0 -0.31389163073E+02 -0.21610246301E+02  0.28228604663E+03  0.29891406098E+03  0.90619652527E+02 0.  0.
        -11    1    4    4    0    0  0.39427590675E+01  0.32672749993E+02  0.11165242044E+03  0.11640153320E+03  0.00000000000E+00 0.  1.
         11    1    4    4    0    0 -0.35331922140E+02 -0.54282996295E+02  0.17063362619E+03  0.18251252778E+03  0.00000000000E+00 0. -1.
        -13    1    3    3    0    0  0.28759130596E+02 -0.19964395207E+02 -0.58068502421E+01  0.35487803234E+02  0.00000000000E+00 0. -1.
         13    1    3    3    0    0  0.13050964115E+02  0.22310167769E+02 -0.13701954703E+03  0.13943610551E+03  0.00000000000E+00 0.  1.
         21    1    1    2  502  501 -0.10420931639E+02  0.19264473739E+02 -0.69217058126E+01  0.22970106139E+02  0.00000000000E+00 0.  1.
<scales pt_clust_5="13000.00000" pt_clust_6="13000.00000" pt_clust_7="13000.00000" pt_clust_8="13000.00000" pt_clust_9="21.90241"></scales>
<clustering>
<clus scale="   21.902">  2  9  1 -1</clus>
<clus scale="   90.620">  5  6 -1 -1</clus>
<clus scale="   91.899">  7  8 -1 -1</clus>
<clus scale="   98.268">  1  5  2 -1</clus>
<clus scale="   98.268">  1  5  2 -1</clus>
</clustering>
</event>
<event>
 9    1  0.1748361E-005  0.2111213E+03  0.7546771E-02  0.1140839E+00
          1   -1    0    0  502    0  0.00000000000E+00  0.00000000000E+00  0.15891194300E+04  0.15891194300E+04  0.00000000000E+00 0. -1.
         -1   -1    0    0    0  501 -0.00000000000E+00 -0.00000000000E+00 -0.38961430318E+02  0.38961430318E+02  0.00000000000E+00 0.  1.
         23    2    1    2    0    0 -0.53756944865E+02  0.14382890378E+03  0.43076885984E+03  0.46656070633E+03  0.92414930609E+02 0.  0.
         23    2    1    2    0    0  0.93221309055E+02 -0.19971518681E+03  0.93376415749E+03  0.96368854188E+03  0.90574475709E+02 0.  0.
        -11    1    4    4    0    0  0.82501425077E+02 -0.78839626304E+02  0.52676414869E+03  0.53898296834E+03  0.00000000000E+00 0.  1.
         11    1    4    4    0    0  0.10719883978E+02 -0.12087556050E+03  0.40700000880E+03  0.42470557355E+03  0.00000000000E+00 0. -1.
        -11    1    3    3    0    0 -0.27032913571E+02  0.13696733200E+03  0.27544570136E+03  0.30880602787E+03  0.00000000000E+00 0.  1.
         11    1    3    3    0    0 -0.26724031294E+02  0.68615717819E+01  0.15532315848E+03  0.15775467846E+03  0.00000000000E+00 0. -1.
         21    1    1    2  502  501 -0.39464364190E+02  0.55886283027E+02  0.18562498231E+03  0.19783161205E+03  0.00000000000E+00 0. -1.
<scales pt_clust_5="13000.00000" pt_clust_6="13000.00000" pt_clust_7="13000.00000" pt_clust_8="13000.00000" pt_clust_9="68.41573"></scales>
<clustering>
<clus scale="   68.416">  2  9  1 -1</clus>
<clus scale="   90.574">  5  6 -1 -1</clus>
<clus scale="   92.415">  7  8 -1 -1</clus>
<clus scale="  210.322">  1  5  2 -1</clus>
<clus scale="  210.322">  1  5  2 -1</clus>
</clustering>
</event>
<event>
 9    1  0.1748361E-005  0.1003439E+03  0.7546771E-02  0.1281539E+00
          1   -1    0    0  502    0  0.00000000000E+00  0.00000000000E+00  0.18649326090E+03  0.18649326090E+03  0.00000000000E+00 0. -1.
         -1   -1    0    0    0  501 -0.00000000000E+00 -0.00000000000E+00 -0.10318596817E+03  0.10318596817E+03  0.00000000000E+00 0.  1.
         23    2    1    2    0    0 -0.11151599963E+02  0.27374476291E+02 -0.42025326702E+02  0.10348974176E+03  0.89834728426E+02 0.  0.
         23    2    1    2    0    0  0.33893381986E+02 -0.18464890795E+02  0.12601564687E+03  0.16175516944E+03  0.93782077446E+02 0.  0.
        -11    1    4    4    0    0 -0.89009803397E+01 -0.48358219770E+02  0.63456502951E+02  0.80277472787E+02  0.00000000000E+00 0. -1.
         11    1    4    4    0    0  0.42794362325E+02  0.29893328975E+02  0.62559143918E+02  0.81477696652E+02  0.00000000000E+00 0.  1.
        -13    1    3    3    0    0 -0.20786564305E+02 -0.26730943685E+02 -0.33937108397E+02  0.47941129860E+02  0.00000000000E+00 0.  1.
         13    1    3    3    0    0  0.96349643424E+01  0.54105419976E+02 -0.80882183050E+01  0.55548611900E+02  0.00000000000E+00 0. -1.
         21    1    1    2  502  501 -0.22741782023E+02 -0.89095854957E+01 -0.68302744173E+00  0.24434317870E+02  0.00000000000E+00 0.  1.
<scales pt_clust_5="13000.00000" pt_clust_6="13000.00000" pt_clust_7="13000.00000" pt_clust_8="13000.00000" pt_clust_9="24.42477"></scales>
<clustering>
<clus scale="   24.425">  2  9  1 -1</clus>
<clus scale="   89.835">  7  8 -1 -1</clus>
<clus scale="   93.782">  5  6 -1 -1</clus>
<clus scale="   96.665">  2  7  1 -1</clus>
<clus scale="  100.344">  1  5  2 -1</clus>
</clustering>
</event>
<event>
 9    1  0.1748361E-005  0.1219199E+03  0.7546771E-02  0.1241959E+00
         -3   -1    0    0    0  501 -0.00000000000E+00  0.00000000000E+00  0.14277276636E+03  0.14277276636E+03  0.00000000000E+00 0.  1.
          3   -1    0    0  502    0  0.00000000000E+00 -0.00000000000E+00 -0.17934132511E+03  0.17934132511E+03  0.00000000000E+00 0. -1.
         23    2    1    2    0    0  0.32154157044E+02  0.76876920323E+02 -0.22987645633E+02  0.12046594731E+03  0.83902693136E+02 0.  0.
         23    2    1    2    0    0 -0.51016529546E+02 -0.63927978001E+02 -0.70075115116E+02  0.14069685982E+03  0.90529619172E+02 0.  0.
        -11    1    3    3    0    0 -0.25153324583E+02  0.17106863214E+02 -0.22198122198E+02  0.37657550846E+02  0.00000000000E+00 0. -1.
         11    1    3    3    0    0  0.57307481628E+02  0.59770057109E+02 -0.78952343581E+00  0.82808396462E+02  0.00000000000E+00 0.  1.
        -11    1    4    4    0    0 -0.52072030547E+02 -0.32623539189E+02 -0.85891021867E+02  0.10560804568E+03  0.00000000000E+00 0. -1.
         11    1    4    4    0    0  0.10555010018E+01 -0.31304438812E+02  0.15815906752E+02  0.35088814145E+02  0.00000000000E+00 0.  1.
         21    1    1    2  502  501  0.18862372501E+02 -0.12948942321E+02  0.56494201996E+02  0.60951284341E+02  0.00000000000E+00 0. -1.
<scales pt_clust_5="13000.00000" pt_clust_6="13000.00000" pt_clust_7="13000.00000" pt_clust_8="13000.00000" pt_clust_9="22.87934"></scales>
<clustering>
<clus scale="   22.879">  1  9  2 -1</clus>
<clus scale="   83.903">  5  6 -1 -1</clus>
<clus scale="   90.530">  7  8 -1 -1</clus>
<clus scale="  117.083">  1  5  2 -1</clus>
<clus scale="  121.920">  2  5  1 -1</clus>
</clustering>
</event>
<event>
 9    1  0.1748361E-005  0.1127327E+03  0.7546771E-02  0.1258238E+00
          1   -1    0    0  502    0  0.00000000000E+00  0.00000000000E+00  0.47141680216E+03  0.47141680216E+03  0.00000000000E+00 0. -1.
         -1   -1    0    0    0  501 -0.00000000000E+00 -0.00000000000E+00 -0.18521056507E+03  0.18521056507E+03  0.00000000000E+00 0.  1.
         23    2    1    2    0    0  0.41501345907E+02 -0.54620045069E+02  0.19243836250E+02  0.11453434663E+03  0.89677646537E+02 0.  0.
         23    2    1    2    0    0 -0.15288421633E+02  0.55271756434E+02  0.39539536868E+03  0.41101072068E+03  0.96455233394E+02 0.  0.
        -13    1    4    4    0    0  0.31313604655E+02  0.90545342052E+01  0.51798772522E+02  0.61201627928E+02  0.00000000000E+00 0.  1.
         13    1    4    4    0    0 -0.46602026288E+02  0.46217222228E+02  0.34359659615E+03  0.34980909275E+03  0.00000000000E+00 0. -1.
        -13    1    3    3    0    0 -0.52472499221E+00  0.23785021996E+02  0.16091485403E+01  0.23845166527E+02  0.00000000000E+00 0. -1.
         13    1    3    3    0    0  0.42026070899E+02 -0.78405067065E+02  0.17634687710E+02  0.90689180101E+02  0.00000000000E+00 0.  1.
         21    1    1    2  502  501 -0.26212924274E+02 -0.65171136468E+00 -0.12843296783E+03  0.13108229992E+03  0.00000000000E+00 0.  1.
<scales pt_clust_5="13000.00000" pt_clust_6="13000.00000" pt_clust_7="13000.00000" pt_clust_8="13000.00000" pt_clust_9="26.22102"></scales>
<clustering>
<clus scale="   26.221">  2  9  1 -1</clus>
<clus scale="   89.678">  7  8 -1 -1</clus>
<clus scale="   96.455">  5  6 -1 -1</clus>
<clus scale="  106.991">  2  7  1 -1</clus>
<clus scale="  112.733">  1  5  2 -1</clus>
</clustering>
</event>
<event>
 9    1  0.1748361E-005  0.1220585E+03  0.7546771E-02  0.1241168E+00
         -2   -1    0    0    0  501 -0.00000000000E+00  0.00000000000E+00  0.29422561027E+02  0.29422561027E+02  0.00000000000E+00 0.  1.
          2   -1    0    0  502    0  0.00000000000E+00 -0.00000000000E+00 -0.81731677768E+03  0.81731677768E+03  0.00000000000E+00 0. -1.
         23    2    1    2    0    0  0.87874049761E+02 -0.68465017331E+02 -0.44305225929E+03  0.46595964732E+03  0.91726665962E+02 0.  0.
         23    2    1    2    0    0 -0.38734876973E+02  0.32855284596E+02 -0.21883443539E+03  0.24092045158E+03  0.87030416833E+02 0.  0.
        -11    1    3    3    0    0  0.59741773186E+02 -0.51478603957E+02 -0.41595848914E+03  0.42336815045E+03  0.00000000000E+00 0. -1.
         11    1    3    3    0    0  0.28132276575E+02 -0.16986413374E+02 -0.27093770152E+02  0.42591496871E+02  0.00000000000E+00 0.  1.
        -13    1    4    4    0    0 -0.31521865981E+02  0.62599850312E+02 -0.15647115003E+03  0.17145142194E+03  0.00000000000E+00 0.  1.
         13    1    4    4    0    0 -0.72130109926E+01 -0.29744565716E+02 -0.62363285366E+02  0.69469029638E+02  0.00000000000E+00 0. -1.
         21    1    1    2  502  501 -0.49139172788E+02  0.35609732735E+02 -0.12600752197E+03  0.13985923981E+03  0.00000000000E+00 0.  1.
<scales pt_clust_5="13000.00000" pt_clust_6="13000.00000" pt_clust_7="13000.00000" pt_clust_8="13000.00000" pt_clust_9="60.68535"></scales>
<clustering>
<clus scale="   60.685">  1  9  2 -1</clus>
<clus scale="   87.030">  7  8 -1 -1</clus>
<clus scale="   91.727">  5  6 -1 -1</clus>
<clus scale="  118.570">  2  7  1 -1</clus>
<clus scale="  118.570">  2  5  1 -1</clus>
</clustering>
</event>
<event>
 9    1  0.1748361E-005  0.9331741E+02  0.7546771E-02  0.1295297E+00
         -4   -1    0    0    0  501 -0.00000000000E+00  0.00000000000E+00  0.93007166135E+02  0.93007166135E+02  0.00000000000E+00 0.  1.
          4   -1    0    0  502    0  0.00000000000E+00 -0.00000000000E+00 -0.47445029444E+03  0.47445029444E+03  0.00000000000E+00 0. -1.
         23    2    1    2    0    0  0.59161143101E+02  0.28719178526E+01 -0.35290357887E+02  0.11425046520E+03  0.91101430682E+02 0.  0.
         23    2    1    2    0    0 -0.58739448255E+01  0.14845726905E+02 -0.37757612662E+03  0.38885742078E+03  0.91604931464E+02 0.  0.
        -11    1    3    3    0    0  0.44501191839E+02  0.40549206039E+02  0.57283328581E+00  0.60207327822E+02  0.00000000000E+00 0. -1.
         11    1    3    3    0    0  0.14659951262E+02 -0.37677288186E+02 -0.35863191172E+02  0.54043137373E+02  0.00000000000E+00 0.  1.
        -13    1    4    4    0    0 -0.30518898688E+02  0.44182837814E+02 -0.24735168000E+03  0.25311337368E+03  0.00000000000E+00 0.  1.
         13    1    4    4    0    0  0.24644953862E+02 -0.29337110910E+02 -0.13022444662E+03  0.13574404711E+03  0.00000000000E+00 0. -1.
         21    1    1    2  502  501 -0.53287198275E+02 -0.17717644757E+02  0.31423356203E+02  0.64349574597E+02  0.00000000000E+00 0.  1.
<scales pt_clust_5="13000.00000" pt_clust_6="13000.00000" pt_clust_7="13000.00000" pt_clust_8="13000.00000" pt_clust_9="56.15550"></scales>
<clustering>
<clus scale="   56.156">  1  9  2 -1</clus>
<clus scale="   91.101">  5  6 -1 -1</clus>
<clus scale="   91.605">  7  8 -1 -1</clus>
<clus scale="   92.823">  1  5  2 -1</clus>
<clus scale="   93.317">  2  5  1 -1</clus>
</clustering>
</event>
<event>
 9    1  0.1748361E-005  0.9713302E+02  0.7546771E-02  0.1286472E+00
          2   -1    0    0  502    0  0.00000000000E+00  0.00000000000E+00  0.80310492132E+02  0.80310492132E+02  0.00000000000E+00 0. -1.
         -2   -1    0    0    0  501 -0.00000000000E+00 -0.00000000000E+00 -0.17858257545E+03  0.17858257545E+03  0.00000000000E+00 0.  1.
         23    2    1    2    0    0 -0.17222518314E+02 -0.16158482919E+02 -0.40518538253E+02  0.10442953199E+03  0.93306288656E+02 0.  0.
         23    2    1    2    0    0  0.33197378218E+02 -0.20944798364E+01 -0.82653223476E+01  0.99350461042E+02  0.93250982780E+02 0.  0.
        -11    1    4    4    0    0 -0.14956589625E+02  0.23656723446E+02  0.23176384990E+02  0.36338477660E+02  0.00000000000E+00 0.  1.
         11    1    4    4    0    0  0.48153967843E+02 -0.25751203282E+02 -0.31441707338E+02  0.63011983383E+02  0.00000000000E+00 0. -1.
        -11    1    3    3    0    0  0.31030761860E+02 -0.13357384618E+02 -0.44568482571E+02  0.55925642992E+02  0.00000000000E+00 0.  1.
         11    1    3    3    0    0 -0.48253280174E+02 -0.28010983008E+01  0.40499443176E+01  0.48503889001E+02  0.00000000000E+00 0. -1.
         21    1    1    2  502  501 -0.15974859904E+02  0.18252962755E+02 -0.49488222715E+02  0.55113074545E+02  0.00000000000E+00 0.  1.
<scales pt_clust_5="13000.00000" pt_clust_6="13000.00000" pt_clust_7="13000.00000" pt_clust_8="13000.00000" pt_clust_9="24.25627"></scales>
<clustering>
<clus scale="   24.256">  2  9  1 -1</clus>
<clus scale="   93.251">  5  6 -1 -1</clus>
<clus scale="   93.306">  7  8 -1 -1</clus>
<clus scale="   97.080">  1  5  2 -1</clus>
<clus scale="   97.080">  1  5  2 -1</clus>
</clustering>
</event>
<event>
 9    1  0.1748361E-005  0.3331445E+03  0.7546771E-02  0.1069816E+00
         -1   -1    0    0    0  501 -0.00000000000E+00  0.00000000000E+00  0.97287591842E+02  0.97287591842E+02  0.00000000000E+00 0.  1.
          1   -1    0    0  502    0  0.00000000000E+00 -0.00000000000E+00 -0.14281803826E+04  0.14281803826E+04  0.00000000000E+00 0. -1.
         23    2    1    2    0    0  0.11871403375E+03 -0.28217807193E+03 -0.40946980549E+03  0.51887489110E+03  0.88589756265E+02 0.  0.
         23    2    1    2    0    0 -0.11141443384E+03  0.30936789118E+03 -0.91662772126E+03  0.97803498492E+03  0.90688390586E+02 0.  0.
        -11    1    3    3    0    0 -0.85268189045E+01 -0.75519474235E+02 -0.96390947205E+02  0.12274816631E+03  0.00000000000E+00 0. -1.
         11    1    3    3    0    0  0.12724085265E+03 -0.20665859770E+03 -0.31307885829E+03  0.39612672479E+03  0.00000000000E+00 0.  1.
        -13    1    4    4    0    0 -0.70781654993E+02  0.28446330732E+03 -0.77361549825E+03  0.82729097361E+03  0.00000000000E+00 0. -1.
         13    1    4    4    0    0 -0.40632778850E+02  0.24904583863E+02 -0.14301222301E+03  0.15074401131E+03  0.00000000000E+00 0.  1.
         21    1    1    2  502  501 -0.72995999038E+01 -0.27189819247E+02 -0.47952640255E+01  0.28558098440E+02  0.00000000000E+00 0.  1.
<scales pt_clust_5="13000.00000" pt_clust_6="13000.00000" pt_clust_7="13000.00000" pt_clust_8="13000.00000" pt_clust_9="28.15263"></scales>
<clustering>
<clus scale="   28.153">  1  9  2 -1</clus>
<clus scale="   88.590">  5  6 -1 -1</clus>
<clus scale="   90.688">  7  8 -1 -1</clus>
<clus scale="  332.579">  1  5  2 -1</clus>
<clus scale="  333.144">  2  5  1 -1</clus>
</clustering>
</event>
<event>
 9    1  0.1748361E-005  0.1685537E+03  0.7546771E-02  0.1179612E+00
          1   -1    0    0  502    0  0.00000000000E+00  0.00000000000E+00  0.53174720473E+03  0.53174720473E+03  0.00000000000E+00 0. -1.
         -1   -1    0    0    0  501 -0.00000000000E+00 -0.00000000000E+00 -0.12656818245E+03  0.12656818245E+03  0.00000000000E+00 0.  1.
         23    2    1    2    0    0 -0.71779952850E+02  0.87141994206E+02 -0.32093815910E+02  0.14887170859E+03  0.91578839336E+02 0.  0.
         23    2    1    2    0    0  0.11964771044E+03 -0.86127119047E+02  0.42685243880E+03  0.46044432235E+03  0.89847171493E+02 0.  0.
        -11    1    4    4    0    0  0.95719858618E+02 -0.27741342110E+02  0.18098648907E+03  0.20661070307E+03  0.00000000000E+00 0.  1.
         11    1    4    4    0    0  0.23927851821E+02 -0.58385776936E+02  0.24586594973E+03  0.25383361928E+03  0.00000000000E+00 0. -1.
        -13    1    3    3    0    0 -0.61793873001E+02  0.80070457599E+01 -0.29815912491E+02  0.69076654232E+02  0.00000000000E+00 0. -1.
         13    1    3    3    0    0 -0.99860798485E+01  0.79134948446E+02 -0.22779034191E+01  0.79795054360E+02  0.00000000000E+00 0.  1.
         21    1    1    2  502  501 -0.47867757589E+02 -0.10148751593E+01  0.10420399395E+02  0.48999356238E+02  0.00000000000E+00 0. -1.
<scales pt_clust_5="13000.00000" pt_clust_6="13000.00000" pt_clust_7="13000.00000" pt_clust_8="13000.00000" pt_clust_9="47.87851"></scales>
<clustering>
<clus scale="   47.879">  2  9  1 -1</clus>
<clus scale="   89.847">  5  6 -1 -1</clus>
<clus scale="   91.579">  7  8 -1 -1</clus>
<clus scale="  167.619">  1  5  2 -1</clus>
<clus scale="  167.619">  1  5  2 -1</clus>
</clustering>
</event>
<event>
 9    1  0.1748361E-005  0.1293042E+03  0.7546771E-02  0.1229773E+00
          1   -1    0    0  502    0  0.00000000000E+00  0.00000000000E+00  0.26262354617E+03  0.26262354617E+03  0.00000000000E+00 0. -1.
         -1   -1    0    0    0  501 -0.00000000000E+00 -0.00000000000E+00 -0.28916408337E+03  0.28916408337E+03  0.00000000000E+00 0.  1.
         23    2    1    2    0    0  0.58134975949E+02  0.36965239157E+02 -0.22538924678E+03  0.25274462100E+03  0.91287603450E+02 0.  0.
         23    2    1    2    0    0 -0.78373990460E+02 -0.40116316694E+02  0.22851263410E+03  0.26299449380E+03  0.95897229263E+02 0.  0.
        -11    1    4    4    0    0 -0.31252655162E+02 -0.31803915130E+02  0.20478939990E+03  0.20958748957E+03  0.00000000000E+00 0. -1.
         11    1    4    4    0    0 -0.47121335298E+02 -0.83124015645E+01  0.23723234198E+02  0.53407004230E+02  0.00000000000E+00 0.  1.
        -13    1    3    3    0    0  0.42790691782E+02 -0.25374857557E+02 -0.87817831548E+02  0.10093016515E+03  0.00000000000E+00 0.  1.
         13    1    3    3    0    0  0.15344284166E+02  0.62340096714E+02 -0.13757141524E+03  0.15181445585E+03  0.00000000000E+00 0. -1.
         21    1    1    2  502  501  0.20239014511E+02  0.31510775370E+01 -0.29663924516E+02  0.36048514750E+02  0.00000000000E+00 0.  1.
<scales pt_clust_5="13000.00000" pt_clust_6="13000.00000" pt_clust_7="13000.00000" pt_clust_8="13000.00000" pt_clust_9="20.48285"></scales>
<clustering>
<clus scale="   20.483">  2  9  1 -1</clus>
<clus scale="   91.288">  7  8 -1 -1</clus>
<clus scale="   95.897">  5  6 -1 -1</clus>
<clus scale="  125.923">  2  7  1 -1</clus>
<clus scale="  129.304">  1  5  2 -1</clus>
</clustering>
</event>
<event>
 9    1  0.1748361E-005  0.1708907E+03  0.7546771E-02  0.1177048E+00
          1   -1    0    0  502    0  0.00000000000E+00  0.00000000000E+00  0.49389567323E+03  0.49389567323E+03  0.00000000000E+00 0. -1.
         -1   -1    0    0    0  501 -0.00000000000E+00 -0.00000000000E+00 -0.69204047573E+02  0.69204047573E+02  0.00000000000E+00 0.  1.
         23    2    1    2    0    0  0.11257067236E+03 -0.10971296100E+03  0.19950490227E+03  0.27002644561E+03  0.91667798114E+02 0.  0.
         23    2    1    2    0    0 -0.98364021082E+02  0.91146266607E+02  0.21006433350E+03  0.26523018346E+03  0.90757387856E+02 0.  0.
        -11    1    3    3    0    0  0.39947556076E+02 -0.28957462753E+02  0.81628414540E+01  0.50009737713E+02  0.00000000000E+00 0.  1.
         11    1    3    3    0    0  0.72623116286E+02 -0.80755498248E+02  0.19134206081E+03  0.22001670789E+03  0.00000000000E+00 0. -1.
        -13    1    4    4    0    0  0.37288722778E+01  0.49710652947E+02  0.85127698648E+02  0.98649777405E+02  0.00000000000E+00 0. -1.
         13    1    4    4    0    0 -0.10209289336E+03  0.41435613660E+02  0.12493663485E+03  0.16658040606E+03  0.00000000000E+00 0.  1.
         21    1    1    2  502  501 -0.14206651280E+02  0.18566694393E+02  0.15122389887E+02  0.27843091732E+02  0.00000000000E+00 0.  1.
<scales pt_clust_5="13000.00000" pt_clust_6="13000.00000" pt_clust_7="13000.00000" pt_clust_8="13000.00000" pt_clust_9="23.37843"></scales>
<clustering>
<clus scale="   23.378">  2  9  1 -1</clus>
<clus scale="   90.757">  7  8 -1 -1</clus>
<clus scale="   91.668">  5  6 -1 -1</clus>
<clus scale="  170.404">  1  7  2 -1</clus>
<clus scale="  170.404">  1  5  2 -1</clus>
</clustering>
</event>
<event>
 9    1  0.1748361E-005  0.1327893E+03  0.7546771E-02  0.1225457E+00
         -1   -1    0    0    0  501 -0.00000000000E+00  0.00000000000E+00  0.75538756175E+02  0.75538756175E+02  0.00000000000E+00 0.  1.
          1   -1    0    0  502    0  0.00000000000E+00 -0.00000000000E+00 -0.40636201173E+03  0.40636201173E+03  0.00000000000E+00 0. -1.
         23    2    1    2    0    0  0.33963727935E+01  0.76630573623E+02 -0.29547556440E+01  0.11612865989E+03  0.87139858302E+02 0.  0.
         23    2    1    2    0    0  0.12944149572E+01 -0.96582345242E+02 -0.31081390502E+03  0.33910872700E+03  0.95182037429E+02 0.  0.
        -11    1    3    3    0    0  0.41776049779E+02  0.26244216633E+02 -0.15185919652E+02  0.51619854683E+02  0.00000000000E+00 0. -1.
         11    1    3    3    0    0 -0.38379676985E+02  0.50386356990E+02  0.12231164008E+02  0.64508805207E+02  0.00000000000E+00 0.  1.
        -13    1    4    4    0    0  0.17411059276E+02 -0.11123293568E+03 -0.24153040920E+03  0.26648236252E+03  0.00000000000E+00 0. -1.
         13    1    4    4    0    0 -0.16116644319E+02  0.14650590438E+02 -0.69283495824E+02  0.72626364482E+02  0.00000000000E+00 0.  1.
         21    1    1    2  502  501 -0.46907877507E+01  0.19951771619E+02 -0.17054594891E+02  0.26663381019E+02  0.00000000000E+00 0.  1.
<scales pt_clust_5="13000.00000" pt_clust_6="13000.00000" pt_clust_7="13000.00000" pt_clust_8="13000.00000" pt_clust_9="20.49577"></scales>
<clustering>
<clus scale="   20.496">  1  9  2 -1</clus>
<clus scale="   87.140">  5  6 -1 -1</clus>
<clus scale="   95.182">  7  8 -1 -1</clus>
<clus scale="  127.148">  1  5  2 -1</clus>
<clus scale="  132.789">  2  5  1 -1</clus>
</clustering>
</event>
<event>
 9    1  0.1748361E-005  0.9426372E+02  0.7546771E-02  0.1294806E+00
         -2   -1    0    0    0  501 -0.00000000000E+00  0.00000000000E+00  0.27064292649E+03  0.27064292649E+03  0.00000000000E+00 0.  1.
          2   -1    0    0  502    0  0.00000000000E+00 -0.00000000000E+00 -0.83360580351E+02  0.83360580351E+02  0.00000000000E+00 0. -1.
         23    2    1    2    0    0 -0.45253990325E+02  0.20063090062E+02  0.83310005001E+02  0.13285329422E+03  0.90878983427E+02 0.  0.
         23    2    1    2    0    0 -0.22116173399E+02  0.93727514065E+01  0.43961872557E+01  0.97373728000E+02  0.94262096558E+02 0.  0.
        -11    1    4    4    0    0  0.35170156394E+02 -0.98913025521E+01 -0.20514276127E+01  0.36592159300E+02  0.00000000000E+00 0.  1.
         11    1    4    4    0    0 -0.57286329793E+02  0.19264053959E+02  0.64476148683E+01  0.60781568700E+02  0.00000000000E+00 0. -1.
        -13    1    3    3    0    0 -0.25763753459E+02  0.41298360004E+02  0.44357874676E+01  0.48877415457E+02  0.00000000000E+00 0. -1.
         13    1    3    3    0    0 -0.19490236867E+02 -0.21235269942E+02  0.78874217533E+02  0.83975878763E+02  0.00000000000E+00 0.  1.
         21    1    1    2  502  501  0.67370163724E+02 -0.29435841468E+02  0.99576153888E+02  0.12377648463E+03  0.00000000000E+00 0.  1.
<scales pt_clust_5="13000.00000" pt_clust_6="13000.00000" pt_clust_7="13000.00000" pt_clust_8="13000.00000" pt_clust_9="73.52012"></scales>
<clustering>
<clus scale="   73.520">  1  9  2 -1</clus>
<clus scale="   90.879">  7  8 -1 -1</clus>
<clus scale="   90.881">  1  7  2 -1</clus>
<clus scale="   94.262">  5  6 -1 -1</clus>
<clus scale="   94.264">  2  5  1 -1</clus>
</clustering>
</event>
<event>
 9    1  0.1748361E-005  0.9478654E+02  0.7546771E-02  0.1293361E+00
         -1   -1    0    0    0  501 -0.00000000000E+00  0.00000000000E+00  0.70563899654E+02  0.70563899654E+02  0.00000000000E+00 0.  1.
          1   -1    0    0  502    0  0.00000000000E+00 -0.00000000000E+00 -0.17671654350E+03  0.17671654350E+03  0.00000000000E+00 0. -1.
         23    2    1    2    0    0 -0.61143901136E+01  0.31143700653E+01 -0.28666647180E+02  0.93643640940E+02  0.88883461682E+02 0.  0.
         23    2    1    2    0    0  0.36341990211E+02  0.74446742927E+01 -0.68065471445E+02  0.12026094986E+03  0.91943592650E+02 0.  0.
        -13    1    4    4    0    0  0.27365767266E+02 -0.36166214503E+02 -0.59673333441E+02  0.74951897998E+02  0.00000000000E+00 0. -1.
         13    1    4    4    0    0  0.89762229446E+01  0.43610888796E+02 -0.83921380035E+01  0.45309051857E+02  0.00000000000E+00 0.  1.
        -13    1    3    3    0    0  0.36662088972E+02  0.43858534445E+01 -0.34401278412E+02  0.50465755069E+02  0.00000000000E+00 0. -1.
         13    1    3    3    0    0 -0.42776479086E+02 -0.12714833792E+01  0.57346312324E+01  0.43177885871E+02  0.00000000000E+00 0.  1.
         21    1    1    2  502  501 -0.30227600097E+02 -0.10559044358E+02 -0.94205252238E+01  0.33375852362E+02  0.00000000000E+00 0. -1.
<scales pt_clust_5="13000.00000" pt_clust_6="13000.00000" pt_clust_7="13000.00000" pt_clust_8="13000.00000" pt_clust_9="32.01876"></scales>
<clustering>
<clus scale="   32.019">  1  9  2 -1</clus>
<clus scale="   88.883">  7  8 -1 -1</clus>
<clus scale="   91.821">  1  7  2 -1</clus>
<clus scale="   91.944">  5  6 -1 -1</clus>
<clus scale="   94.787">  2  5  1 -1</clus>
</clustering>
</event>
<event>
 9    1  0.1748361E-005  0.1194481E+03  0.7546771E-02  0.1244376E+00
         -1   -1    0    0    0  501 -0.00000000000E+00  0.00000000000E+00  0.52714897020E+03  0.52714897020E+03  0.00000000000E+00 0.  1.
          1   -1    0    0  502    0  0.00000000000E+00 -0.00000000000E+00 -0.38914831951E+02  0.38914831951E+02  0.00000000000E+00 0. -1.
         23    2    1    2    0    0 -0.85376963213E+02 -0.85214403348E+01  0.27388897935E+03  0.30066155751E+03  0.89556453484E+02 0.  0.
         23    2    1    2    0    0  0.73686849910E+02 -0.11279939540E+02  0.11843033548E+03  0.16676955866E+03  0.90715778377E+02 0.  0.
        -13    1    3    3    0    0 -0.98549301153E+02  0.80675116153E+01  0.24937850216E+03  0.26826607471E+03  0.00000000000E+00 0. -1.
         13    1    3    3    0    0  0.13172337939E+02 -0.16588951950E+02  0.24510477196E+02  0.32395482802E+02  0.00000000000E+00 0.  1.
        -13    1    4    4    0    0  0.22444939798E+02 -0.74073948512E+01  0.11259759251E+03  0.11505156522E+03  0.00000000000E+00 0.  1.
         13    1    4    4    0    0  0.51241910111E+02 -0.38725446889E+01  0.58327429707E+01  0.51717993434E+02  0.00000000000E+00 0. -1.
         21    1    1    2  502  501  0.11690113303E+02  0.19801379875E+02  0.95914823415E+02  0.98632685985E+02  0.00000000000E+00 0.  1.
<scales pt_clust_5="13000.00000" pt_clust_6="13000.00000" pt_clust_7="13000.00000" pt_clust_8="13000.00000" pt_clust_9="22.99464"></scales>
<clustering>
<clus scale="   22.995">  1  9  2 -1</clus>
<clus scale="   89.556">  5  6 -1 -1</clus>
<clus scale="   90.716">  7  8 -1 -1</clus>
<clus scale="  118.570">  1  5  2 -1</clus>
<clus scale="  119.448">  2  5  1 -1</clus>
</clustering>
</event>
<event>
 9    1  0.1748361E-005  0.1013004E+03  0.7546771E-02  0.1280905E+00
         -1   -1    0    0    0  501 -0.00000000000E+00  0.00000000000E+00  0.10157138339E+03  0.10157138339E+03  0.00000000000E+00 0.  1.
          1   -1    0    0  502    0  0.00000000000E+00 -0.00000000000E+00 -0.20002084093E+03  0.20002084093E+03  0.00000000000E+00 0. -1.
         23    2    1    2    0    0  0.18890967794E+02 -0.19439481420E+02 -0.59288235051E+01  0.97944659894E+02  0.93932120979E+02 0.  0.
         23    2    1    2    0    0 -0.42951214762E+01  0.43392939021E+02 -0.12642073634E+03  0.15964729402E+03  0.87198971816E+02 0.  0.
        -13    1    4    4    0    0  0.28509140811E+02 -0.13605339702E+02 -0.37072162976E+02  0.48705458071E+02  0.00000000000E+00 0.  1.
         13    1    4    4    0    0 -0.32804262287E+02  0.56998278722E+02 -0.89348573360E+02  0.11094183595E+03  0.00000000000E+00 0. -1.
        -13    1    3    3    0    0 -0.14772248258E+02  0.30113322115E+02  0.11659739309E+02  0.35510294397E+02  0.00000000000E+00 0. -1.
         13    1    3    3    0    0  0.33663216051E+02 -0.49552803535E+02 -0.17588562814E+02  0.62434365497E+02  0.00000000000E+00 0.  1.
         21    1    1    2  502  501 -0.14595846318E+02 -0.23953457601E+02  0.33900102302E+02  0.44000270418E+02  0.00000000000E+00 0. -1.
<scales pt_clust_5="13000.00000" pt_clust_6="13000.00000" pt_clust_7="13000.00000" pt_clust_8="13000.00000" pt_clust_9="28.05008"></scales>
<clustering>
<clus scale="   28.050">  1  9  2 -1</clus>
<clus scale="   87.199">  5  6 -1 -1</clus>
<clus scale="   93.932">  7  8 -1 -1</clus>
<clus scale="   95.090">  2  5  1 -1</clus>
<clus scale="   95.090">  2  5  1 -1</clus>
</clustering>
</event>
<event>
 9    1  0.1748361E-005  0.1201173E+03  0.7546771E-02  0.1243001E+00
          1   -1    0    0  502    0  0.00000000000E+00  0.00000000000E+00  0.57949302641E+03  0.57949302641E+03  0.00000000000E+00 0. -1.
         -1   -1    0    0    0  501 -0.00000000000E+00 -0.00000000000E+00 -0.31432924434E+03  0.31432924434E+03  0.00000000000E+00 0.  1.
         23    2    1    2    0    0 -0.56233500878E+02 -0.53373700256E+02 -0.89488755368E+02  0.14995560360E+03  0.92018950294E+02 0.  0.
         23    2    1    2    0    0  0.71770770977E+02  0.29154196698E+02  0.54158584058E+03  0.55473165998E+03  0.91711401250E+02 0.  0.
        -11    1    3    3    0    0 -0.47750867259E+02 -0.46906426630E+00 -0.83302729944E+02  0.96019321813E+02  0.00000000000E+00 0.  1.
         11    1    3    3    0    0 -0.84826336196E+01 -0.52904635990E+02 -0.61860254247E+01  0.53936281786E+02  0.00000000000E+00 0. -1.
        -11    1    4    4    0    0  0.17507864795E+02 -0.28922623532E+02  0.88714914328E+02  0.94938819805E+02  0.00000000000E+00 0.  1.
         11    1    4    4    0    0  0.54262906182E+02  0.58076820230E+02  0.45287092625E+03  0.45979284018E+03  0.00000000000E+00 0. -1.
         21    1    1    2  502  501 -0.15537270098E+02  0.24219503558E+02 -0.18693330314E+03  0.18913500717E+03  0.00000000000E+00 0.  1.
<scales pt_clust_5="13000.00000" pt_clust_6="13000.00000" pt_clust_7="13000.00000" pt_clust_8="13000.00000" pt_clust_9="28.77483"></scales>
<clustering>
<clus scale="   28.775">  2  9  1 -1</clus>
<clus scale="   91.711">  7  8 -1 -1</clus>
<clus scale="   92.019">  5  6 -1 -1</clus>
<clus scale="  119.882">  1  7  2 -1</clus>
<clus scale="  119.882">  1  5  2 -1</clus>
</clustering>
</event>
<event>
 9    1  0.1748361E-005  0.1013494E+03  0.7546771E-02  0.1279482E+00
         -1   -1    0    0    0  501 -0.00000000000E+00  0.00000000000E+00  0.99523654674E+02  0.99523654674E+02  0.00000000000E+00 0.  1.
          1   -1    0    0  502    0  0.00000000000E+00 -0.00000000000E+00 -0.17854507666E+03  0.17854507666E+03  0.00000000000E+00 0. -1.
         23    2    1    2    0    0  0.46343484386E+02 -0.26488663004E+02 -0.24140115373E+02  0.10524783216E+03  0.87435651717E+02 0.  0.
         23    2    1    2    0    0 -0.38185407179E+02  0.64824860893E+01 -0.88300048332E+02  0.13302625586E+03  0.91645721475E+02 0.  0.
        -13    1    3    3    0    0 -0.16869108827E+02 -0.30634803297E+02  0.53368973017E+01  0.35377118006E+02  0.00000000000E+00 0.  1.
         13    1    3    3    0    0  0.63212593213E+02  0.41461402925E+01 -0.29477012674E+02  0.69870714153E+02  0.00000000000E+00 0. -1.
        -13    1    4    4    0    0 -0.53607825990E+02  0.26384003335E+02 -0.24753153930E+02  0.64673280950E+02  0.00000000000E+00 0.  1.
         13    1    4    4    0    0  0.15422418810E+02 -0.19901517246E+02 -0.63546894402E+02  0.68352974908E+02  0.00000000000E+00 0. -1.
         21    1    1    2  502  501 -0.81580772064E+01  0.20006176915E+02  0.33418741720E+02  0.39794643316E+02  0.00000000000E+00 0. -1.
<scales pt_clust_5="13000.00000" pt_clust_6="13000.00000" pt_clust_7="13000.00000" pt_clust_8="13000.00000" pt_clust_9="21.60559"></scales>
<clustering>
<clus scale="   21.606">  1  9  2 -1</clus>
<clus scale="   87.436">  5  6 -1 -1</clus>
<clus scale="   91.646">  7  8 -1 -1</clus>
<clus scale="   97.559">  1  5  2 -1</clus>
<clus scale="  101.349">  2  5  1 -1</clus>
</clustering>
</event>
<event>
 9    1  0.1748361E-005  0.9121319E+02  0.7546771E-02  0.1300072E+00
         -1   -1    0    0    0  501 -0.00000000000E+00  0.00000000000E+00  0.35011714287E+02  0.35011714287E+02  0.00000000000E+00 0.  1.
          1   -1    0    0  502    0  0.00000000000E+00 -0.00000000000E+00 -0.51647804100E+03  0.51647804100E+03  0.00000000000E+00 0. -1.
         23    2    1    2    0    0 -0.19503840999E+02  0.16472784862E+02 -0.64682696342E+02  0.11436638230E+03  0.90796837724E+02 0.  0.
         23    2    1    2    0    0  0.51687569735E+00 -0.21006848795E+01 -0.39322080786E+03  0.40362309367E+03  0.91018228799E+02 0.  0.
        -13    1    4    4    0    0  0.19590576963E+02  0.38447319094E+02 -0.14108321703E+03  0.14753461010E+03  0.00000000000E+00 0. -1.
         13    1    4    4    0    0 -0.19073701266E+02 -0.40548003973E+02 -0.25213759083E+03  0.25608848356E+03  0.00000000000E+00 0.  1.
        -13    1    3    3    0    0 -0.28100429286E+02 -0.25397952486E+02 -0.12774504586E+01  0.37898838982E+02  0.00000000000E+00 0.  1.
         13    1    3    3    0    0  0.85965882866E+01  0.41870737348E+02 -0.63405245883E+02  0.76467543322E+02  0.00000000000E+00 0. -1.
         21    1    1    2  502  501  0.18986965302E+02 -0.14372099982E+02 -0.23562822516E+02  0.33500279315E+02  0.00000000000E+00 0. -1.
<scales pt_clust_5="13000.00000" pt_clust_6="13000.00000" pt_clust_7="13000.00000" pt_clust_8="13000.00000" pt_clust_9="23.81307"></scales>
<clustering>
<clus scale="   23.813">  1  9  2 -1</clus>
<clus scale="   90.797">  7  8 -1 -1</clus>
<clus scale="   90.992">  1  7  2 -1</clus>
<clus scale="   91.018">  5  6 -1 -1</clus>
<clus scale="   91.213">  2  5  1 -1</clus>
</clustering>
</event>
<event>
 9    1  0.1748361E-005  0.9465681E+02  0.7546771E-02  0.1292213E+00
          2   -1    0    0  502    0  0.00000000000E+00  0.00000000000E+00  0.51226414364E+03  0.51226414364E+03  0.00000000000E+00 0. -1.
         -2   -1    0    0    0  501 -0.00000000000E+00 -0.00000000000E+00 -0.32246268111E+02  0.32246268111E+02  0.00000000000E+00 0.  1.
         23    2    1    2    0    0 -0.37495845696E+02  0.18922305718E+02  0.17305916256E+03  0.20008092504E+03  0.91208062798E+02 0.  0.
         23    2    1    2    0    0  0.90388178409E+01 -0.16104814986E+02  0.30139618700E+03  0.31529733293E+03  0.90728613582E+02 0.  0.
        -11    1    4    4    0    0 -0.40621644559E+02 -0.80950948819E+01  0.15779525503E+03  0.16314101593E+03  0.00000000000E+00 0. -1.
         11    1    4    4    0    0  0.49660462400E+02 -0.80097201042E+01  0.14360093197E+03  0.15215631701E+03  0.00000000000E+00 0.  1.
        -13    1    3    3    0    0 -0.54839841308E+02  0.33315338927E+02  0.71585024661E+02  0.96133946961E+02  0.00000000000E+00 0. -1.
         13    1    3    3    0    0  0.17343995612E+02 -0.14393033209E+02  0.10147413790E+03  0.10394697808E+03  0.00000000000E+00 0.  1.
         21    1    1    2  502  501  0.28457027855E+02 -0.28174907318E+01  0.55625259590E+01  0.29132153773E+02  0.00000000000E+00 0.  1.
<scales pt_clust_5="13000.00000" pt_clust_6="13000.00000" pt_clust_7="13000.00000" pt_clust_8="13000.00000" pt_clust_9="28.59617"></scales>
<clustering>
<clus scale="   28.596">  2  9  1 -1</clus>
<clus scale="   90.729">  5  6 -1 -1</clus>
<clus scale="   91.208">  7  8 -1 -1</clus>
<clus scale="   94.195">  1  5  2 -1</clus>
<clus scale="   94.195">  1  5  2 -1</clus>
</clustering>
</event>
<event>
 9    1  0.1748361E-005  0.9508842E+02  0.7546771E-02  0.1292272E+00
          2   -1    0    0  502    0  0.00000000000E+00  0.00000000000E+00  0.48326316055E+03  0.48326316055E+03  0.00000000000E+00 0. -1.
         -2   -1    0    0    0  501 -0.00000000000E+00 -0.00000000000E+00 -0.42670733566E+02  0.42670733566E+02  0.00000000000E+00 0.  1.
         23    2    1    2    0    0  0.40771124146E+02  0.96179382902E+01  0.11983810817E+03  0.15633716655E+03  0.91243345919E+02 0.  0.
         23    2    1    2    0    0  0.15948657105E+02 -0.34357891555E+02  0.27819909007E+03  0.29449581967E+03  0.88871984975E+02 0.  0.
        -13    1    4    4    0    0 -0.30437961023E+02 -0.21780042131E+01  0.43723457053E+02  0.53319357369E+02  0.00000000000E+00 0.  1.
         13    1    4    4    0    0  0.46386618128E+02 -0.32179887342E+02  0.23447563301E+03  0.24117646230E+03  0.00000000000E+00 0. -1.
        -13    1    3    3    0    0 -0.11342539534E+01 -0.37332497871E+02  0.48339818446E+02  0.61087969165E+02  0.00000000000E+00 0.  1.
         13    1    3    3    0    0  0.41905378100E+02  0.46950436161E+02  0.71498289723E+02  0.95249197386E+02  0.00000000000E+00 0. -1.
         21    1    1    2  502  501 -0.56719781251E+02  0.24739953265E+02  0.42555228745E+02  0.75100907892E+02  0.00000000000E+00 0.  1.
<scales pt_clust_5="13000.00000" pt_clust_6="13000.00000" pt_clust_7="13000.00000" pt_clust_8="13000.00000" pt_clust_9="61.88052"></scales>
<clustering>
<clus scale="   61.881">  2  9  1 -1</clus>
<clus scale="   88.872">  5  6 -1 -1</clus>
<clus scale="   91.243">  7  8 -1 -1</clus>
<clus scale="   92.815">  1  5  2 -1</clus>
<clus scale="   92.815">  1  5  2 -1</clus>
</clustering>
</event>
<event>
 9    1  0.1748361E-005  0.1147693E+03  0.7546771E-02  0.1252542E+00
          2   -1    0    0  502    0  0.00000000000E+00  0.00000000000E+00  0.19422543153E+03  0.19422543153E+03  0.00000000000E+00 0. -1.
         -2   -1    0    0    0  501 -0.00000000000E+00 -0.00000000000E+00 -0.14117448377E+03  0.14117448377E+03  0.00000000000E+00 0.  1.
         23    2    1    2    0    0  0.73594994083E+02  0.42532849211E+02  0.78386238818E+01  0.12225222118E+03  0.87515113792E+02 0.  0.
         23    2    1    2    0    0 -0.70883539540E+02  0.42620393923E+02  0.13995473191E+02  0.12241226241E+03  0.89151077176E+02 0.  0.
        -11    1    3    3    0    0  0.38345579472E+02  0.54140549827E+02 -0.26737697027E+02  0.71529623534E+02  0.00000000000E+00 0.  1.
         11    1    3    3    0    0  0.35249414610E+02 -0.11607700616E+02  0.34576320909E+02  0.50722597642E+02  0.00000000000E+00 0. -1.
        -13    1    4    4    0    0 -0.12841323443E+02  0.45658839126E+02  0.36743371392E+02  0.59997537611E+02  0.00000000000E+00 0.  1.
         13    1    4    4    0    0 -0.58042216096E+02 -0.30384452033E+01 -0.22747898201E+02  0.62414724795E+02  0.00000000000E+00 0. -1.
         21    1    1    2  502  501 -0.27114545432E+01 -0.85153243134E+02  0.31216850692E+02  0.90735431718E+02  0.00000000000E+00 0. -1.
<scales pt_clust_5="13000.00000" pt_clust_6="13000.00000" pt_clust_7="13000.00000" pt_clust_8="13000.00000" pt_clust_9="85.19640"></scales>
<clustering>
<clus scale="   85.196">  1  9  2 -1</clus>
<clus scale="   87.515">  5  6 -1 -1</clus>
<clus scale="   89.151">  7  8 -1 -1</clus>
<clus scale="  113.503">  2  5  1 -1</clus>
<clus scale="   85.196">  1  5  2 -1</clus>
</clustering>
</event>
<event>
 9    1  0.1748361E-005  0.9714156E+02  0.7546771E-02  0.1304984E+00
         -2   -1    0    0    0  501 -0.00000000000E+00  0.00000000000E+00  0.89558767740E+02  0.89558767740E+02  0.00000000000E+00 0.  1.
          2   -1    0    0  502    0  0.00000000000E+00 -0.00000000000E+00 -0.11919149965E+03  0.11919149965E+03  0.00000000000E+00 0. -1.
         23    2    1    2    0    0 -0.15079611682E+02  0.16762698295E+02  0.25220935344E+02  0.68416435465E+02  0.59467052386E+02 0.  0.
         23    2    1    2    0    0  0.38210503636E+02 -0.19226091269E+02 -0.59460947597E+02  0.11662025987E+03  0.90746876247E+02 0.  0.
        -11    1    3    3    0    0  0.19409725535E+02  0.14681751094E+02 -0.20152957554E+01  0.24420333281E+02  0.00000000000E+00 0. -1.
         11    1    3    3    0    0 -0.34489337217E+02  0.20809472009E+01  0.27236231100E+02  0.43996102185E+02  0.00000000000E+00 0.  1.
        -11    1    4    4    0    0  0.22708452179E+02 -0.54905383121E+02 -0.47043508213E+02  0.75785002217E+02  0.00000000000E+00 0.  1.
         11    1    4    4    0    0  0.15502051456E+02  0.35679291853E+02 -0.12417439385E+02  0.40835257650E+02  0.00000000000E+00 0. -1.
         21    1    1    2  502  501 -0.23130891954E+02  0.24633929737E+01  0.46072803433E+01  0.23713572057E+02  0.00000000000E+00 0.  1.
<scales pt_clust_5="13000.00000" pt_clust_6="13000.00000" pt_clust_7="13000.00000" pt_clust_8="13000.00000" pt_clust_9="23.26170"></scales>
<clustering>
<clus scale="   23.262">  1  9  2 -1</clus>
<clus scale="   59.467">  5  6 -1 -1</clus>
<clus scale="   68.832">  1  5  2 -1</clus>
<clus scale="   90.747">  7  8 -1 -1</clus>
<clus scale="   97.142">  2  5  1 -1</clus>
</clustering>
</event>
<event>
 9    1  0.1748361E-005  0.9321063E+02  0.7546771E-02  0.1296965E+00
          2   -1    0    0  502    0  0.00000000000E+00  0.00000000000E+00  0.37904072961E+03  0.37904072961E+03  0.00000000000E+00 0. -1.
         -2   -1    0    0    0  501 -0.00000000000E+00 -0.00000000000E+00 -0.35194148310E+02  0.35194148310E+02  0.00000000000E+00 0.  1.
         23    2    1    2    0    0  0.12885974514E+02  0.89894167557E+01  0.72542194471E+02  0.11660182994E+03  0.89926407769E+02 0.  0.
         23    2    1    2    0    0  0.96995609228E+01 -0.69758627769E+01  0.24817733744E+03  0.26524445085E+03  0.92843329018E+02 0.  0.
        -13    1    4    4    0    0 -0.20389953529E+01 -0.47728457834E+02  0.95436889015E+02  0.10672564347E+03  0.00000000000E+00 0.  1.
         13    1    4    4    0    0  0.11738556276E+02  0.40752595057E+02  0.15274044843E+03  0.15851880738E+03  0.00000000000E+00 0. -1.
        -13    1    3    3    0    0  0.98175820857E+00 -0.24593650438E+02  0.76865424262E+02  0.80710005192E+02  0.00000000000E+00 0.  1.
         13    1    3    3    0    0  0.11904216305E+02  0.33583067194E+02 -0.43232297914E+01  0.35891824749E+02  0.00000000000E+00 0. -1.
         21    1    1    2  502  501 -0.22585535437E+02 -0.20135539788E+01  0.23127049385E+02  0.32388597127E+02  0.00000000000E+00 0. -1.
<scales pt_clust_5="13000.00000" pt_clust_6="13000.00000" pt_clust_7="13000.00000" pt_clust_8="13000.00000" pt_clust_9="22.67511"></scales>
<clustering>
<clus scale="   22.675">  2  9  1 -1</clus>
<clus scale="   89.926">  7  8 -1 -1</clus>
<clus scale="   90.306">  2  7  1 -1</clus>
<clus scale="   92.843">  5  6 -1 -1</clus>
<clus scale="   93.211">  1  5  2 -1</clus>
</clustering>
</event>
<event>
 9    1  0.1748361E-005  0.9703051E+02  0.7546771E-02  0.1287714E+00
          2   -1    0    0  502    0  0.00000000000E+00  0.00000000000E+00  0.80622105130E+02  0.80622105130E+02  0.00000000000E+00 0. -1.
         -2   -1    0    0    0  501 -0.00000000000E+00 -0.00000000000E+00 -0.22379067537E+03  0.22379067537E+03  0.00000000000E+00 0.  1.
         23    2    1    2    0    0  0.23023036100E+02 -0.10353926683E+02 -0.31352459369E+02  0.10044832764E+03  0.92030570072E+02 0.  0.
         23    2    1    2    0    0 -0.14464135679E+02  0.36528645313E+02 -0.10288957363E+02  0.98768761073E+02  0.90032507301E+02 0.  0.
        -11    1    3    3    0    0 -0.15679314011E+02  0.22748774083E+02  0.15127238503E+02  0.31498904026E+02  0.00000000000E+00 0. -1.
         11    1    3    3    0    0  0.38702350111E+02 -0.33102700766E+02 -0.46479697872E+02  0.68949423612E+02  0.00000000000E+00 0.  1.
        -11    1    4    4    0    0  0.33972619770E+02 -0.36644646270E+01  0.34564728400E+01  0.34344059160E+02  0.00000000000E+00 0.  1.
         11    1    4    4    0    0 -0.48436755450E+02  0.40193109940E+02 -0.13745430203E+02  0.64424701913E+02  0.00000000000E+00 0. -1.
         21    1    1    2  502  501 -0.85589004206E+01 -0.26174718630E+02 -0.10152715351E+03  0.10519569179E+03  0.00000000000E+00 0. -1.
<scales pt_clust_5="13000.00000" pt_clust_6="13000.00000" pt_clust_7="13000.00000" pt_clust_8="13000.00000" pt_clust_9="27.53853"></scales>
<clustering>
<clus scale="   27.539">  2  9  1 -1</clus>
<clus scale="   90.033">  7  8 -1 -1</clus>
<clus scale="   92.031">  5  6 -1 -1</clus>
<clus scale="   95.138">  1  7  2 -1</clus>
<clus scale="   95.138">  1  5  2 -1</clus>
</clustering>
</event>
<event>
 9    1  0.1748361E-005  0.1013589E+03  0.7546771E-02  0.1277651E+00
         -1   -1    0    0    0  501 -0.00000000000E+00  0.00000000000E+00  0.23995447475E+02  0.23995447475E+02  0.00000000000E+00 0.  1.
          1   -1    0    0  502    0  0.00000000000E+00 -0.00000000000E+00 -0.56113602114E+03  0.56113602114E+03  0.00000000000E+00 0. -1.
         23    2    1    2    0    0  0.26367914589E+02 -0.28731990083E+02 -0.20788360900E+03  0.23007002139E+03  0.90530799615E+02 0.  0.
         23    2    1    2    0    0 -0.12773008592E+02  0.52554752590E+02 -0.27101756980E+03  0.29068619890E+03  0.90126529511E+02 0.  0.
        -11    1    4    4    0    0 -0.45477983186E+02  0.36155520258E+01 -0.13425863469E+03  0.14179809646E+03  0.00000000000E+00 0. -1.
         11    1    4    4    0    0  0.32704974594E+02  0.48939200565E+02 -0.13675893511E+03  0.14888810243E+03  0.00000000000E+00 0.  1.
        -11    1    3    3    0    0  0.30779559814E+02 -0.55844980662E+02 -0.17985817962E+03  0.19082716773E+03  0.00000000000E+00 0. -1.
         11    1    3    3    0    0 -0.44116452251E+01  0.27112990579E+02 -0.28025429381E+02  0.39242853664E+02  0.00000000000E+00 0.  1.
         21    1    1    2  502  501 -0.13594905997E+02 -0.23822762508E+02 -0.58239394870E+02  0.64375248329E+02  0.00000000000E+00 0. -1.
<scales pt_clust_5="13000.00000" pt_clust_6="13000.00000" pt_clust_7="13000.00000" pt_clust_8="13000.00000" pt_clust_9="27.42892"></scales>
<clustering>
<clus scale="   27.429">  1  9  2 -1</clus>
<clus scale="   90.127">  5  6 -1 -1</clus>
<clus scale="   90.531">  7  8 -1 -1</clus>
<clus scale="  100.998">  2  5  1 -1</clus>
<clus scale="  100.998">  2  5  1 -1</clus>
</clustering>
</event>
<event>
 9    1  0.1748361E-005  0.1075997E+03  0.7546771E-02  0.1270143E+00
          4   -1    0    0  502    0  0.00000000000E+00  0.00000000000E+00  0.46979601834E+03  0.46979601834E+03  0.00000000000E+00 0. -1.
         -4   -1    0    0    0  501 -0.00000000000E+00 -0.00000000000E+00 -0.30653315325E+02  0.30653315325E+02  0.00000000000E+00 0.  1.
         23    2    1    2    0    0 -0.28072309716E+02 -0.40679582322E+02  0.15430816739E+03  0.18094464198E+03  0.80542348783E+02 0.  0.
         23    2    1    2    0    0  0.54512829946E+02  0.30608492812E+02  0.25512110545E+03  0.27847524023E+03  0.92483255322E+02 0.  0.
        -11    1    4    4    0    0  0.38440672385E+02  0.53255971800E+02  0.23546022623E+03  0.24444918073E+03  0.00000000000E+00 0.  1.
         11    1    4    4    0    0  0.16072157560E+02 -0.22647478987E+02  0.19660879219E+02  0.34026059496E+02  0.00000000000E+00 0. -1.
        -13    1    3    3    0    0  0.24787120643E+02  0.35606295390E+01  0.49971738844E+02  0.55895027646E+02  0.00000000000E+00 0.  1.
         13    1    3    3    0    0 -0.52859430359E+02 -0.44240211861E+02  0.10433642855E+03  0.12504961434E+03  0.00000000000E+00 0. -1.
         21    1    1    2  502  501 -0.26440520230E+02  0.10071089509E+02  0.29713430176E+02  0.41029451456E+02  0.00000000000E+00 0.  1.
<scales pt_clust_5="13000.00000" pt_clust_6="13000.00000" pt_clust_7="13000.00000" pt_clust_8="13000.00000" pt_clust_9="28.29360"></scales>
<clustering>
<clus scale="   28.294">  2  9  1 -1</clus>
<clus scale="   80.542">  7  8 -1 -1</clus>
<clus scale="   92.483">  5  6 -1 -1</clus>
<clus scale="   97.528">  2  7  1 -1</clus>
<clus scale="  107.600">  1  5  2 -1</clus>
</clustering>
</event>
<event>
 9    1  0.1748361E-005  0.9909321E+02  0.7546771E-02  0.1283673E+00
         -1   -1    0    0    0  501 -0.00000000000E+00  0.00000000000E+00  0.41139420210E+02  0.41139420210E+02  0.00000000000E+00 0.  1.
          1   -1    0    0  502    0  0.00000000000E+00 -0.00000000000E+00 -0.41559936270E+03  0.41559936270E+03  0.00000000000E+00 0. -1.
         23    2    1    2    0    0  0.47712039255E+02  0.21036016164E+02 -0.67902224795E+02  0.12542144975E+03  0.91656288701E+02 0.  0.
         23    2    1    2    0    0 -0.23005481293E+02 -0.25782489959E+02 -0.27462537185E+03  0.29066493187E+03  0.88730033226E+02 0.  0.
        -13    1    4    4    0    0  0.24484085675E+02 -0.27170185590E+02 -0.55636049701E+02  0.66581224551E+02  0.00000000000E+00 0.  1.
         13    1    4    4    0    0 -0.47489566968E+02  0.13876956311E+01 -0.21898932215E+03  0.22408370732E+03  0.00000000000E+00 0. -1.
        -13    1    3    3    0    0  0.18311044267E+02 -0.32851027679E+02 -0.57170795275E+01  0.38041679248E+02  0.00000000000E+00 0.  1.
         13    1    3    3    0    0  0.29400994988E+02  0.53887043843E+02 -0.62185145267E+02  0.87379770498E+02  0.00000000000E+00 0. -1.
         21    1    1    2  502  501 -0.24706557962E+02  0.47464737945E+01 -0.31932345839E+02  0.40652401289E+02  0.00000000000E+00 0. -1.
<scales pt_clust_5="13000.00000" pt_clust_6="13000.00000" pt_clust_7="13000.00000" pt_clust_8="13000.00000" pt_clust_9="25.15836"></scales>
<clustering>
<clus scale="   25.158">  1  9  2 -1</clus>
<clus scale="   88.730">  5  6 -1 -1</clus>
<clus scale="   91.656">  7  8 -1 -1</clus>
<clus scale="   96.393">  2  5  1 -1</clus>
<clus scale="   96.393">  2  5  1 -1</clus>
</clustering>
</event>
<event>
 9    1  0.1748361E-005  0.1231690E+03  0.7546771E-02  0.1239141E+00
          2   -1    0    0  502    0  0.00000000000E+00  0.00000000000E+00  0.78544651195E+03  0.78544651195E+03  0.00000000000E+00 0. -1.
         -2   -1    0    0    0  501 -0.00000000000E+00 -0.00000000000E+00 -0.87612893354E+02  0.87612893354E+02  0.00000000000E+00 0.  1.
         23    2    1    2    0    0  0.15676201831E+02  0.81035994531E+02  0.16435733523E+03  0.20541432272E+03  0.91482974474E+02 0.  0.
         23    2    1    2    0    0 -0.97265056914E+02 -0.17298938427E+02  0.54748701464E+03  0.56316803158E+03  0.87501177317E+02 0.  0.
        -11    1    3    3    0    0 -0.33374013332E+02  0.62356954533E+02  0.94805307683E+02  0.11828043333E+03  0.00000000000E+00 0. -1.
         11    1    3    3    0    0  0.49050215163E+02  0.18679039999E+02  0.69552027552E+02  0.87133889385E+02  0.00000000000E+00 0.  1.
        -11    1    4    4    0    0  0.77483766734E+01  0.18939049974E+02  0.70081804045E+02  0.73008110598E+02  0.00000000000E+00 0.  1.
         11    1    4    4    0    0 -0.10501343359E+03 -0.36237988402E+02  0.47740521059E+03  0.49015992098E+03  0.00000000000E+00 0. -1.
         21    1    1    2  502  501  0.81588855083E+02 -0.63737056104E+02 -0.14010731280E+02  0.10447705100E+03  0.00000000000E+00 0.  1.
<scales pt_clust_5="13000.00000" pt_clust_6="13000.00000" pt_clust_7="13000.00000" pt_clust_8="13000.00000" pt_clust_9="103.53335"></scales>
<clustering>
<clus scale="   87.501">  7  8 -1 -1</clus>
<clus scale="   91.483">  5  6 -1 -1</clus>
<clus scale="  103.533">  2  9  1 -1</clus>
<clus scale="  120.241">  1  7  2 -1</clus>
<clus scale="  120.241">  1  5  2 -1</clus>
</clustering>
</event>
<event>
 9    1  0.1748361E-005  0.1894341E+03  0.7546771E-02  0.1160406E+00
         -1   -1    0    0    0  501 -0.00000000000E+00  0.00000000000E+00  0.20768759903E+03  0.20768759903E+03  0.00000000000E+00 0.  1.
          1   -1    0    0  502    0  0.00000000000E+00 -0.00000000000E+00 -0.29457469239E+03  0.29457469239E+03  0.00000000000E+00 0. -1.
         23    2    1    2    0    0 -0.15728710455E+03 -0.69642084530E+02  0.94931666798E+02  0.21608412510E+03  0.89950400579E+02 0.  0.
         23    2    1    2    0    0  0.12674528223E+03  0.23717024224E+02 -0.12150909091E+03  0.20445197542E+03  0.10202591470E+03 0.  0.
        -11    1    3    3    0    0 -0.15476558827E+03 -0.43976944753E+02  0.10049964439E+03  0.18970117950E+03  0.00000000000E+00 0.  1.
         11    1    3    3    0    0 -0.25215162795E+01 -0.25665139777E+02 -0.55679775875E+01  0.26382945600E+02  0.00000000000E+00 0. -1.
        -13    1    4    4    0    0  0.77546609325E+02 -0.12637584224E+02 -0.11978586644E+03  0.14325445526E+03  0.00000000000E+00 0. -1.
         13    1    4    4    0    0  0.49198672907E+02  0.36354608448E+02 -0.17232244769E+01  0.61197520160E+02  0.00000000000E+00 0.  1.
         21    1    1    2  502  501  0.30541822317E+02  0.45925060306E+02 -0.60309669247E+02  0.81726190901E+02  0.00000000000E+00 0. -1.
<scales pt_clust_5="13000.00000" pt_clust_6="13000.00000" pt_clust_7="13000.00000" pt_clust_8="13000.00000" pt_clust_9="55.15355"></scales>
<clustering>
<clus scale="   55.154">  2  9  1 -1</clus>
<clus scale="   89.950">  5  6 -1 -1</clus>
<clus scale="  102.026">  7  8 -1 -1</clus>
<clus scale="  183.213">  1  5  2 -1</clus>
<clus scale="   55.154">  2  5  1 -1</clus>
</clustering>
</event>
<event>
 9    1  0.1748361E-005  0.9724514E+02  0.7546771E-02  0.1287762E+00
          4   -1    0    0  502    0  0.00000000000E+00  0.00000000000E+00  0.89700577088E+03  0.89700577088E+03  0.00000000000E+00 0. -1.
         -4   -1    0    0    0  501 -0.00000000000E+00 -0.00000000000E+00 -0.13587080473E+02  0.13587080473E+02  0.00000000000E+00 0.  1.
         23    2    1    2    0    0 -0.22888640914E+02  0.31142516119E+02  0.42416926426E+03  0.43535281119E+03  0.90104157897E+02 0.  0.
         23    2    1    2    0    0  0.48044932842E+01 -0.18561536945E+02  0.41589744110E+03  0.42661173524E+03  0.93055238025E+02 0.  0.
        -11    1    3    3    0    0 -0.51118449742E+02 -0.57367780281E+01  0.23530678646E+03  0.24086363420E+03  0.00000000000E+00 0. -1.
         11    1    3    3    0    0  0.28229808827E+02  0.36879294147E+02  0.18886247780E+03  0.19448917699E+03  0.00000000000E+00 0.  1.
        -13    1    4    4    0    0  0.43186793878E+02 -0.30303954474E+02  0.27929916828E+03  0.28423837570E+03  0.00000000000E+00 0.  1.
         13    1    4    4    0    0 -0.38382300594E+02  0.11742417529E+02  0.13659827282E+03  0.14237335954E+03  0.00000000000E+00 0. -1.
         21    1    1    2  502  501  0.18084147630E+02 -0.12580979174E+02  0.43351985047E+02  0.48628304926E+02  0.00000000000E+00 0.  1.
<scales pt_clust_5="13000.00000" pt_clust_6="13000.00000" pt_clust_7="13000.00000" pt_clust_8="13000.00000" pt_clust_9="22.02992"></scales>
<clustering>
<clus scale="   22.030">  2  9  1 -1</clus>
<clus scale="   90.104">  5  6 -1 -1</clus>
<clus scale="   93.055">  7  8 -1 -1</clus>
<clus scale="   94.425">  2  5  1 -1</clus>
<clus scale="   97.245">  1  5  2 -1</clus>
</clustering>
</event>
<event>
 9    1  0.1748361E-005  0.1035272E+03  0.7546771E-02  0.1275391E+00
         -3   -1    0    0    0  501 -0.00000000000E+00  0.00000000000E+00  0.13199923903E+03  0.13199923903E+03  0.00000000000E+00 0.  1.
          3   -1    0    0  502    0  0.00000000000E+00 -0.00000000000E+00 -0.42323434724E+03  0.42323434724E+03  0.00000000000E+00 0. -1.
         23    2    1    2    0    0 -0.83528175481E+02  0.32616122445E+02  0.74554758530E+02  0.14386079596E+03  0.84242204689E+02 0.  0.
         23    2    1    2    0    0  0.39453122197E+02 -0.30103222676E+02 -0.34971123440E+03  0.36438931018E+03  0.89548138121E+02 0.  0.
        -13    1    3    3    0    0 -0.55035695257E+02 -0.98728724326E+01  0.73937304403E+02  0.92699117282E+02  0.00000000000E+00 0.  1.
         13    1    3    3    0    0 -0.28492480225E+02  0.42488994878E+02  0.61745412712E+00  0.51161678673E+02  0.00000000000E+00 0. -1.
        -13    1    4    4    0    0  0.13168243998E+02 -0.55732806781E+02 -0.13627679075E+03  0.14782054017E+03  0.00000000000E+00 0. -1.
         13    1    4    4    0    0  0.26284878199E+02  0.25629584105E+02 -0.21343444366E+03  0.21656877001E+03  0.00000000000E+00 0.  1.
         21    1    1    2  502  501  0.44075053284E+02 -0.25128997693E+01 -0.16078632348E+02  0.46983480133E+02  0.00000000000E+00 0. -1.
<scales pt_clust_5="13000.00000" pt_clust_6="13000.00000" pt_clust_7="13000.00000" pt_clust_8="13000.00000" pt_clust_9="44.14663"></scales>
<clustering>
<clus scale="   44.147">  1  9  2 -1</clus>
<clus scale="   84.242">  5  6 -1 -1</clus>
<clus scale="   89.548">  7  8 -1 -1</clus>
<clus scale="   98.974">  1  5  2 -1</clus>
<clus scale="  103.527">  2  5  1 -1</clus>
</clustering>
</event>
<event>
 9    1  0.1748361E-005  0.1275407E+03  0.7546771E-02  0.1231371E+00
         -1   -1    0    0    0  501 -0.00000000000E+00  0.00000000000E+00  0.13111206664E+03  0.13111206664E+03  0.00000000000E+00 0.  1.
          1   -1    0    0  502    0  0.00000000000E+00 -0.00000000000E+00 -0.27980707099E+03  0.27980707099E+03  0.00000000000E+00 0. -1.
         23    2    1    2    0    0  0.88331049698E+02  0.52225972083E+02  0.49132034332E+02  0.14534938714E+03  0.90457509608E+02 0.  0.
         23    2    1    2    0    0 -0.27852082073E+02 -0.28759845787E+02 -0.16525499092E+03  0.19297978627E+03  0.91264005394E+02 0.  0.
        -11    1    4    4    0    0  0.33441335378E+02 -0.14622537413E+02 -0.54099899057E+02  0.65260559224E+02  0.00000000000E+00 0.  1.
         11    1    4    4    0    0 -0.61293417451E+02 -0.14137308374E+02 -0.11115509186E+03  0.12771922705E+03  0.00000000000E+00 0. -1.
        -13    1    3    3    0    0  0.81702116391E+02  0.21910750290E+02 -0.30427789504E+01  0.84643814333E+02  0.00000000000E+00 0. -1.
         13    1    3    3    0    0  0.66289333071E+01  0.30315221793E+02  0.52174813283E+02  0.60705572810E+02  0.00000000000E+00 0.  1.
         21    1    1    2  502  501 -0.60478967625E+02 -0.23466126296E+02 -0.32572047764E+02  0.72589964210E+02  0.00000000000E+00 0.  1.
<scales pt_clust_5="13000.00000" pt_clust_6="13000.00000" pt_clust_7="13000.00000" pt_clust_8="13000.00000" pt_clust_9="64.87191"></scales>
<clustering>
<clus scale="   64.872">  2  9  1 -1</clus>
<clus scale="   90.458">  7  8 -1 -1</clus>
<clus scale="   91.264">  5  6 -1 -1</clus>
<clus scale="  126.965">  1  7  2 -1</clus>
<clus scale="   64.872">  2  5  1 -1</clus>
</clustering>
</event>
<event>
 9    1  0.1748361E-005  0.9359451E+02  0.7546771E-02  0.1294945E+00
         -1   -1    0    0    0  501 -0.00000000000E+00  0.00000000000E+00  0.33445785401E+03  0.33445785401E+03  0.00000000000E+00 0.  1.
          1   -1    0    0  502    0  0.00000000000E+00 -0.00000000000E+00 -0.53074996757E+02  0.53074996757E+02  0.00000000000E+00 0. -1.
         23    2    1    2    0    0 -0.79141453894E+01 -0.53711484946E+02  0.14013830466E+03  0.17586405966E+03  0.91333814845E+02 0.  0.
         23    2    1    2    0    0 -0.64998663741E+01  0.54827498712E+01  0.41120868615E+02  0.99603958466E+02  0.90320063648E+02 0.  0.
        -11    1    4    4    0    0 -0.38740279280E+02  0.85603111904E+00  0.52368380253E+02  0.65145907610E+02  0.00000000000E+00 0.  1.
         11    1    4    4    0    0  0.32240412906E+02  0.46267187521E+01 -0.11247511639E+02  0.34458050856E+02  0.00000000000E+00 0. -1.
        -13    1    3    3    0    0 -0.46532099751E+02 -0.36928346932E+02  0.10659066240E+03  0.12202667096E+03  0.00000000000E+00 0.  1.
         13    1    3    3    0    0  0.38617954361E+02 -0.16783138015E+02  0.33547642254E+02  0.53837388695E+02  0.00000000000E+00 0. -1.
         21    1    1    2  502  501  0.14414011764E+02  0.48228735075E+02  0.10012368398E+03  0.11206483265E+03  0.00000000000E+00 0. -1.
<scales pt_clust_5="13000.00000" pt_clust_6="13000.00000" pt_clust_7="13000.00000" pt_clust_8="13000.00000" pt_clust_9="50.33661"></scales>
<clustering>
<clus scale="   50.337">  1  9  2 -1</clus>
<clus scale="   90.320">  5  6 -1 -1</clus>
<clus scale="   91.334">  7  8 -1 -1</clus>
<clus scale="   92.606">  2  5  1 -1</clus>
<clus scale="   92.606">  2  5  1 -1</clus>
</clustering>
</event>
<event>
 9    1  0.1748361E-005  0.9449419E+02  0.7546771E-02  0.1292490E+00
          2   -1    0    0  502    0  0.00000000000E+00  0.00000000000E+00  0.26697785873E+03  0.26697785873E+03  0.00000000000E+00 0. -1.
         -2   -1    0    0    0  501 -0.00000000000E+00 -0.00000000000E+00 -0.13199161478E+03  0.13199161478E+03  0.00000000000E+00 0.  1.
         23    2    1    2    0    0 -0.32355888332E+02 -0.55281188137E+02  0.57064545227E+02  0.12458813876E+03  0.90348927637E+02 0.  0.
         23    2    1    2    0    0  0.86280958551E+01  0.97228616985E+01  0.15601269317E+03  0.18091062994E+03  0.90662657788E+02 0.  0.
        -13    1    3    3    0    0 -0.51778790656E+02 -0.41032747802E+02  0.38533345515E+01  0.66178378200E+02  0.00000000000E+00 0. -1.
         13    1    3    3    0    0  0.19422902325E+02 -0.14248440335E+02  0.53211210675E+02  0.58409760556E+02  0.00000000000E+00 0.  1.
        -13    1    4    4    0    0 -0.31223277212E+02  0.31883464353E+02  0.92751496432E+02  0.10292855983E+03  0.00000000000E+00 0. -1.
         13    1    4    4    0    0  0.39851373067E+02 -0.22160602654E+02  0.63261196742E+02  0.77982070110E+02  0.00000000000E+00 0.  1.
         21    1    1    2  502  501  0.23727792477E+02  0.45558326438E+02 -0.78090994448E+02  0.93470704809E+02  0.00000000000E+00 0.  1.
<scales pt_clust_5="13000.00000" pt_clust_6="13000.00000" pt_clust_7="13000.00000" pt_clust_8="13000.00000" pt_clust_9="51.36701"></scales>
<clustering>
<clus scale="   51.367">  2  9  1 -1</clus>
<clus scale="   90.349">  5  6 -1 -1</clus>
<clus scale="   90.663">  7  8 -1 -1</clus>
<clus scale="   94.193">  2  5  1 -1</clus>
<clus scale="   94.494">  1  5  2 -1</clus>
</clustering>
</event>
<event>
 9    1  0.1748361E-005  0.3080670E+03  0.7546771E-02  0.1081315E+00
          1   -1    0    0  502    0  0.00000000000E+00  0.00000000000E+00  0.16545817882E+04  0.16545817882E+04  0.00000000000E+00 0. -1.
         -1   -1    0    0    0  501 -0.00000000000E+00 -0.00000000000E+00 -0.72665478620E+02  0.72665478620E+02  0.00000000000E+00 0.  1.
         23    2    1    2    0    0 -0.15698393761E+03 -0.25952600711E+03  0.79900231926E+03  0.85932144308E+03  0.89615463664E+02 0.  0.
         23    2    1    2    0    0  0.17165509674E+03  0.22977138331E+03  0.77832826333E+03  0.83443538571E+03  0.90703729811E+02 0.  0.
        -11    1    3    3    0    0 -0.78631823177E+02 -0.18856394772E+03  0.44074423813E+03  0.48579296973E+03  0.00000000000E+00 0.  1.
         11    1    3    3    0    0 -0.78352114435E+02 -0.70962059382E+02  0.35825808114E+03  0.37352847335E+03  0.00000000000E+00 0. -1.
        -13    1    4    4    0    0  0.98435358845E+02  0.59805096145E+02  0.27403892883E+03  0.29725999379E+03  0.00000000000E+00 0.  1.
         13    1    4    4    0    0  0.73219737892E+02  0.16996628716E+03  0.50428933450E+03  0.53717539192E+03  0.00000000000E+00 0. -1.
         21    1    1    2  502  501 -0.14671159125E+02  0.29754623800E+02  0.45857269947E+01  0.33490438033E+02  0.00000000000E+00 0. -1.
<scales pt_clust_5="13000.00000" pt_clust_6="13000.00000" pt_clust_7="13000.00000" pt_clust_8="13000.00000" pt_clust_9="33.17500"></scales>
<clustering>
<clus scale="   33.175">  2  9  1 -1</clus>
<clus scale="   89.615">  5  6 -1 -1</clus>
<clus scale="   90.704">  7  8 -1 -1</clus>
<clus scale="  307.748">  2  5  1 -1</clus>
<clus scale="  308.067">  1  5  2 -1</clus>
</clustering>
</event>
<event>
 9    1  0.1748361E-005  0.1681098E+03  0.7546771E-02  0.1194964E+00
         -1   -1    0    0    0  501 -0.00000000000E+00  0.00000000000E+00  0.68976325398E+03  0.68976325398E+03  0.00000000000E+00 0.  1.
          1   -1    0    0  502    0  0.00000000000E+00 -0.00000000000E+00 -0.20044971273E+03  0.20044971273E+03  0.00000000000E+00 0. -1.
         23    2    1    2    0    0 -0.91765198104E+01  0.11200806527E+03  0.26107224748E+03  0.29819158748E+03  0.90163680246E+02 0.  0.
         23    2    1    2    0    0 -0.58905067491E+02  0.52242630183E+02 -0.13916020085E+03  0.18385811321E+03  0.90769735650E+02 0.  0.
        -11    1    4    4    0    0 -0.61460614660E+02  0.16362711343E+02 -0.13291611059E+03  0.14734937371E+03  0.00000000000E+00 0. -1.
         11    1    4    4    0    0  0.25555471695E+01  0.35879918840E+02 -0.62440902562E+01  0.36508739507E+02  0.00000000000E+00 0.  1.
        -13    1    3    3    0    0  0.33927681656E+02  0.85070107735E+02  0.14534912249E+03  0.17179749189E+03  0.00000000000E+00 0.  1.
         13    1    3    3    0    0 -0.43104201466E+02  0.26937957536E+02  0.11572312500E+03  0.12639409559E+03  0.00000000000E+00 0. -1.
         21    1    1    2  502  501  0.68081587301E+02 -0.16425069545E+03  0.36740149461E+03  0.40816326602E+03  0.00000000000E+00 0. -1.
<scales pt_clust_5="13000.00000" pt_clust_6="13000.00000" pt_clust_7="13000.00000" pt_clust_8="13000.00000" pt_clust_9="141.88517"></scales>
<clustering>
<clus scale="   90.164">  7  8 -1 -1</clus>
<clus scale="   90.770">  5  6 -1 -1</clus>
<clus scale="  120.159">  2  5  1 -1</clus>
<clus scale="  141.885">  2  9  1 -1</clus>
<clus scale="  120.159">  2  5  1 -1</clus>
</clustering>
</event>
<event>
 9    1  0.1748361E-005  0.1205603E+03  0.7546771E-02  0.1247932E+00
          1   -1    0    0  502    0  0.00000000000E+00  0.00000000000E+00  0.61299105678E+03  0.61299105678E+03  0.00000000000E+00 0. -1.
         -1   -1    0    0    0  501 -0.00000000000E+00 -0.00000000000E+00 -0.37854881613E+02  0.37854881613E+02  0.00000000000E+00 0.  1.
         23    2    1    2    0    0  0.50796577506E+01  0.88196723691E+02  0.29134858496E+03  0.31839544817E+03  0.93205141831E+02 0.  0.
         23    2    1    2    0    0 -0.12847089910E+02 -0.67892248946E+02  0.29186833568E+03  0.30925775117E+03  0.75357986324E+02 0.  0.
        -11    1    4    4    0    0  0.18722710305E+02  0.75357397996E+01  0.48980945678E+02  0.52976035101E+02  0.00000000000E+00 0.  1.
         11    1    4    4    0    0 -0.31569800214E+02 -0.75427988745E+02  0.24288739000E+03  0.25628171607E+03  0.00000000000E+00 0. -1.
        -13    1    3    3    0    0 -0.18392712577E+02  0.18126892426E+02  0.10313397230E+02  0.27807234084E+02  0.00000000000E+00 0.  1.
         13    1    3    3    0    0  0.23472370328E+02  0.70069831265E+02  0.28103518773E+03  0.29058821409E+03  0.00000000000E+00 0. -1.
         21    1    1    2  502  501  0.77674321589E+01 -0.20304474746E+02 -0.80807454761E+01  0.23192739047E+02  0.00000000000E+00 0.  1.
<scales pt_clust_5="13000.00000" pt_clust_6="13000.00000" pt_clust_7="13000.00000" pt_clust_8="13000.00000" pt_clust_9="21.73947"></scales>
<clustering>
<clus scale="   21.739">  2  9  1 -1</clus>
<clus scale="   75.358">  5  6 -1 -1</clus>
<clus scale="   93.205">  7  8 -1 -1</clus>
<clus scale="  107.361">  1  5  2 -1</clus>
<clus scale="  107.361">  1  5  2 -1</clus>
</clustering>
</event>
<event>
 9    1  0.1748361E-005  0.2405131E+03  0.7546771E-02  0.1120418E+00
          2   -1    0    0  502    0  0.00000000000E+00  0.00000000000E+00  0.17162998202E+04  0.17162998202E+04  0.00000000000E+00 0. -1.
         -2   -1    0    0    0  501 -0.00000000000E+00 -0.00000000000E+00 -0.88814248102E+02  0.88814248102E+02  0.00000000000E+00 0.  1.
         23    2    1    2    0    0 -0.49011491152E+02  0.12244968520E+03  0.18961851359E+03  0.25316399137E+03  0.10363770626E+03 0.  0.
         23    2    1    2    0    0  0.84798326821E+02 -0.23578587617E+03  0.14031162199E+04  0.14281219276E+04  0.89506300539E+02 0.  0.
        -13    1    4    4    0    0  0.94350803545E+02 -0.14034945170E+03  0.95469268579E+03  0.96955565443E+03  0.00000000000E+00 0. -1.
         13    1    4    4    0    0 -0.95524767240E+01 -0.95436424478E+02  0.44842353413E+03  0.45856627317E+03  0.00000000000E+00 0.  1.
        -13    1    3    3    0    0 -0.14088665271E+02  0.43927778540E+02  0.12846549117E+01  0.46149653897E+02  0.00000000000E+00 0.  1.
         13    1    3    3    0    0 -0.34922825881E+02  0.78521906664E+02  0.18833385868E+03  0.20701433747E+03  0.00000000000E+00 0. -1.
         21    1    1    2  502  501 -0.35786835669E+02  0.11333619097E+03  0.34750838612E+02  0.12382814936E+03  0.00000000000E+00 0.  1.
<scales pt_clust_5="13000.00000" pt_clust_6="13000.00000" pt_clust_7="13000.00000" pt_clust_8="13000.00000" pt_clust_9="118.85197"></scales>
<clustering>
<clus scale="   89.506">  5  6 -1 -1</clus>
<clus scale="  103.638">  7  8 -1 -1</clus>
<clus scale="  118.852">  2  9  1 -1</clus>
<clus scale="  234.770">  1  5  2 -1</clus>
<clus scale="  234.770">  1  5  2 -1</clus>
</clustering>
</event>
<event>
 9    1  0.1748361E-005  0.1001744E+03  0.7546771E-02  0.1284679E+00
         -1   -1    0    0    0  501 -0.00000000000E+00  0.00000000000E+00  0.34303031793E+02  0.34303031793E+02  0.00000000000E+00 0.  1.
          1   -1    0    0  502    0  0.00000000000E+00 -0.00000000000E+00 -0.49197737716E+03  0.49197737716E+03  0.00000000000E+00 0. -1.
         23    2    1    2    0    0 -0.20446769588E+02  0.17144831311E+02 -0.75582754252E+02  0.12129997835E+03  0.91043486203E+02 0.  0.
         23    2    1    2    0    0  0.29957168748E+01 -0.34391173332E+01 -0.36033197854E+03  0.37390203657E+03  0.99713571514E+02 0.  0.
        -11    1    4    4    0    0  0.37383043768E+02  0.32419342302E+02 -0.15845385476E+03  0.16600039098E+03  0.00000000000E+00 0. -1.
         11    1    4    4    0    0 -0.34387326894E+02 -0.35858459635E+02 -0.20187812378E+03  0.20790164559E+03  0.00000000000E+00 0.  1.
        -11    1    3    3    0    0 -0.16878900811E+02  0.54584018011E+02 -0.48667586408E+02  0.75052290315E+02  0.00000000000E+00 0.  1.
         11    1    3    3    0    0 -0.35678687767E+01 -0.37439186700E+02 -0.26915167844E+02  0.46247688034E+02  0.00000000000E+00 0. -1.
         21    1    1    2  502  501  0.17451052713E+02 -0.13705713977E+02 -0.21759612575E+02  0.31078394036E+02  0.00000000000E+00 0.  1.
<scales pt_clust_5="13000.00000" pt_clust_6="13000.00000" pt_clust_7="13000.00000" pt_clust_8="13000.00000" pt_clust_9="22.18977"></scales>
<clustering>
<clus scale="   22.190">  1  9  2 -1</clus>
<clus scale="   91.043">  7  8 -1 -1</clus>
<clus scale="   91.548">  1  7  2 -1</clus>
<clus scale="   99.714">  5  6 -1 -1</clus>
<clus scale="  100.174">  2  5  1 -1</clus>
</clustering>
</event>
<event>
 9    1  0.1748361E-005  0.1507410E+03  0.7546771E-02  0.1201517E+00
         -3   -1    0    0    0  501 -0.00000000000E+00  0.00000000000E+00  0.80345591015E+02  0.80345591015E+02  0.00000000000E+00 0.  1.
          3   -1    0    0  502    0  0.00000000000E+00 -0.00000000000E+00 -0.38558487818E+03  0.38558487818E+03  0.00000000000E+00 0. -1.
         23    2    1    2    0    0 -0.72985730303E+02  0.10786789439E+03 -0.11769028114E+03  0.19328129460E+03  0.80896582752E+02 0.  0.
         23    2    1    2    0    0  0.54618241199E+02 -0.99317067353E+02 -0.20104441521E+03  0.24830564633E+03  0.91595878579E+02 0.  0.
        -11    1    3    3    0    0 -0.71807281315E+02  0.34029807819E+02 -0.62026767117E+02  0.10080492701E+03  0.00000000000E+00 0. -1.
         11    1    3    3    0    0 -0.11784489877E+01  0.73838086569E+02 -0.55663514026E+02  0.92476367596E+02  0.00000000000E+00 0.  1.
        -11    1    4    4    0    0  0.54728342289E+02 -0.13717637564E+02 -0.53643196971E+02  0.77852152259E+02  0.00000000000E+00 0.  1.
         11    1    4    4    0    0 -0.11010109044E+00 -0.85599429789E+02 -0.14740121824E+03  0.17045349407E+03  0.00000000000E+00 0. -1.
         21    1    1    2  502  501  0.18367489104E+02 -0.85508270350E+01  0.13495409190E+02  0.24343528261E+02  0.00000000000E+00 0.  1.
<scales pt_clust_5="13000.00000" pt_clust_6="13000.00000" pt_clust_7="13000.00000" pt_clust_8="13000.00000" pt_clust_9="20.26034"></scales>
<clustering>
<clus scale="   20.260">  1  9  2 -1</clus>
<clus scale="   80.897">  5  6 -1 -1</clus>
<clus scale="   91.596">  7  8 -1 -1</clus>
<clus scale="  144.490">  1  5  2 -1</clus>
<clus scale="  150.741">  2  5  1 -1</clus>
</clustering>
</event>
<event>
 9    1  0.1748361E-005  0.1104470E+03  0.7546771E-02  0.1260697E+00
         -2   -1    0    0    0  501 -0.00000000000E+00  0.00000000000E+00  0.44567409882E+03  0.44567409882E+03  0.00000000000E+00 0.  1.
          2   -1    0    0  502    0  0.00000000000E+00 -0.00000000000E+00 -0.67319185220E+02  0.67319185220E+02  0.00000000000E+00 0. -1.
         23    2    1    2    0    0  0.22689948884E+02 -0.51218129781E+02  0.12585783498E+03  0.16421092966E+03  0.89369481348E+02 0.  0.
         23    2    1    2    0    0  0.10829963274E+02  0.66182730925E+02  0.22565156466E+02  0.11593860285E+03  0.91842971247E+02 0.  0.
        -11    1    4    4    0    0 -0.17397255716E+02  0.76441736068E+02  0.39852221164E-01  0.78396461066E+02  0.00000000000E+00 0. -1.
         11    1    4    4    0    0  0.28227218990E+02 -0.10259005142E+02  0.22525304245E+02  0.37542141785E+02  0.00000000000E+00 0.  1.
        -13    1    3    3    0    0  0.16939866664E+02 -0.30437132924E+02  0.13599481430E+03  0.14038506922E+03  0.00000000000E+00 0.  1.
         13    1    3    3    0    0  0.57500822196E+01 -0.20780996857E+02 -0.10136979324E+02  0.23825860441E+02  0.00000000000E+00 0. -1.
         21    1    1    2  502  501 -0.33519912158E+02 -0.14964601144E+02  0.22993192216E+03  0.23284375153E+03  0.00000000000E+00 0.  1.
<scales pt_clust_5="13000.00000" pt_clust_6="13000.00000" pt_clust_7="13000.00000" pt_clust_8="13000.00000" pt_clust_9="36.70863"></scales>
<clustering>
<clus scale="   36.709">  1  9  2 -1</clus>
<clus scale="   89.369">  7  8 -1 -1</clus>
<clus scale="   91.843">  5  6 -1 -1</clus>
<clus scale="  108.399">  1  7  2 -1</clus>
<clus scale="  110.447">  2  5  1 -1</clus>
</clustering>
</event>
<event>
 9    1  0.1748361E-005  0.9314961E+02  0.7546771E-02  0.1295465E+00
         -1   -1    0    0    0  501 -0.00000000000E+00  0.00000000000E+00  0.68218116457E+02  0.68218116457E+02  0.00000000000E+00 0.  1.
          1   -1    0    0  502    0  0.00000000000E+00 -0.00000000000E+00 -0.32649094431E+03  0.32649094431E+03  0.00000000000E+00 0. -1.
         23    2    1    2    0    0 -0.28439419780E+02  0.23927018001E+01 -0.48363011776E+00  0.96197081811E+02  0.91864677823E+02 0.  0.
         23    2    1    2    0    0 -0.27139955474E+01 -0.17610310354E+02 -0.24384196487E+03  0.26114038277E+03  0.91749151934E+02 0.  0.
        -11    1    3    3    0    0  0.17500538033E+02  0.21769961558E+02 -0.27746441666E+02  0.39370865914E+02  0.00000000000E+00 0. -1.
         11    1    3    3    0    0 -0.45939957813E+02 -0.19377259758E+02  0.27262811549E+02  0.56826215896E+02  0.00000000000E+00 0.  1.
        -11    1    4    4    0    0 -0.17480002432E+02  0.29301269243E+02 -0.45970311434E+02  0.57248444499E+02  0.00000000000E+00 0. -1.
         11    1    4    4    0    0  0.14766006884E+02 -0.46911579596E+02 -0.19787165343E+03  0.20389193827E+03  0.00000000000E+00 0.  1.
         21    1    1    2  502  501  0.31153415327E+02  0.15217608554E+02 -0.13947232865E+02  0.37371596182E+02  0.00000000000E+00 0. -1.
<scales pt_clust_5="13000.00000" pt_clust_6="13000.00000" pt_clust_7="13000.00000" pt_clust_8="13000.00000" pt_clust_9="34.67147"></scales>
<clustering>
<clus scale="   34.671">  1  9  2 -1</clus>
<clus scale="   91.749">  7  8 -1 -1</clus>
<clus scale="   91.865">  5  6 -1 -1</clus>
<clus scale="   93.036">  2  7  1 -1</clus>
<clus scale="   93.036">  2  5  1 -1</clus>
</clustering>
</event>
<event>
 9    1  0.2576062E-005  0.1059853E+03  0.7546771E-02  0.1271225E+00
          1   -1    0    0  502    0  0.00000000000E+00  0.00000000000E+00  0.33553940031E+03  0.33553940031E+03  0.00000000000E+00 0. -1.
         -1   -1    0    0    0  501 -0.00000000000E+00 -0.00000000000E+00 -0.13324150760E+03  0.13324150760E+03  0.00000000000E+00 0.  1.
         23    2    1    2    0    0 -0.24494280803E+02 -0.10730826491E+02 -0.80993899804E+02  0.12558527749E+03  0.92176622245E+02 0.  0.
         23    2    1    2    0    0  0.43802058890E+02  0.32336759135E+02  0.29508199451E+03  0.31191279993E+03  0.85158234627E+02 0.  0.
        -11    1    4    4    0    0  0.69568529583E+02  0.22427706062E+02  0.22567657472E+03  0.23721867272E+03  0.00000000000E+00 0. -1.
         11    1    4    4    0    0 -0.25766470694E+02  0.99090530727E+01  0.69405419784E+02  0.74694127214E+02  0.00000000000E+00 0.  1.
        -13    1    3    3    0    0 -0.57841540931E+02 -0.20114094476E+02 -0.54406539574E+02  0.81916373225E+02  0.00000000000E+00 0.  1.
         13    1    3    3    0    0  0.33347260128E+02  0.93832679848E+01 -0.26587360230E+02  0.43668904269E+02  0.00000000000E+00 0. -1.
         21    1    1    2  502  501 -0.19307778086E+02 -0.21605932644E+02 -0.11790201990E+02  0.31282830483E+02  0.00000000000E+00 0.  1.
<scales pt_clust_5="13000.00000" pt_clust_6="13000.00000" pt_clust_7="13000.00000" pt_clust_8="13000.00000" pt_clust_9="28.97597"></scales>
<clustering>
<clus scale="   28.976">  2  9  1 -1</clus>
<clus scale="   85.158">  5  6 -1 -1</clus>
<clus scale="   92.177">  7  8 -1 -1</clus>
<clus scale="   99.941">  1  5  2 -1</clus>
<clus scale="   99.941">  1  5  2 -1</clus>
</clustering>
</event>
<event>
 9    1  0.1748361E-005  0.1016896E+03  0.7546771E-02  0.1277290E+00
          2   -1    0    0  502    0  0.00000000000E+00  0.00000000000E+00  0.49878786289E+03  0.49878786289E+03  0.00000000000E+00 0. -1.
         -2   -1    0    0    0  501 -0.00000000000E+00 -0.00000000000E+00 -0.36787481899E+02  0.36787481899E+02  0.00000000000E+00 0.  1.
         23    2    1    2    0    0 -0.32595022974E+02  0.24198556103E+01  0.20079442013E+03  0.22314472555E+03  0.91689029672E+02 0.  0.
         23    2    1    2    0    0  0.54074202613E+02 -0.62822326776E+00  0.26943635590E+03  0.28935889397E+03  0.90599147823E+02 0.  0.
        -13    1    3    3    0    0 -0.40138489912E+02 -0.21692427255E+02  0.19045915288E+03  0.19584776917E+03  0.00000000000E+00 0.  1.
         13    1    3    3    0    0  0.75434669383E+01  0.24112282865E+02  0.10335267244E+02  0.27296956377E+02  0.00000000000E+00 0. -1.
        -13    1    4    4    0    0  0.30294825247E+02 -0.45535137408E+02  0.13828028172E+03  0.14870326657E+03  0.00000000000E+00 0.  1.
         13    1    4    4    0    0  0.23779377366E+02  0.44906914140E+02  0.13115607418E+03  0.14065562740E+03  0.00000000000E+00 0. -1.
         21    1    1    2  502  501 -0.21479179639E+02 -0.17916323426E+01 -0.82303950376E+01  0.23071725269E+02  0.00000000000E+00 0.  1.
<scales pt_clust_5="13000.00000" pt_clust_6="13000.00000" pt_clust_7="13000.00000" pt_clust_8="13000.00000" pt_clust_9="21.55377"></scales>
<clustering>
<clus scale="   21.554">  2  9  1 -1</clus>
<clus scale="   90.599">  7  8 -1 -1</clus>
<clus scale="   91.689">  5  6 -1 -1</clus>
<clus scale="  100.708">  1  7  2 -1</clus>
<clus scale="  100.708">  1  5  2 -1</clus>
</clustering>
</event>
<event>
 9    1  0.1748361E-005  0.1569752E+03  0.7546771E-02  0.1192155E+00
          2   -1    0    0  502    0  0.00000000000E+00  0.00000000000E+00  0.25053854063E+03  0.25053854063E+03  0.00000000000E+00 0. -1.
         -2   -1    0    0    0  501 -0.00000000000E+00 -0.00000000000E+00 -0.12625155836E+03  0.12625155836E+03  0.00000000000E+00 0.  1.
         23    2    1    2    0    0  0.39729068129E+02  0.12187461816E+03  0.54900630159E+02  0.16733709035E+03  0.92497574065E+02 0.  0.
         23    2    1    2    0    0 -0.16122398439E+02 -0.12569422521E+03  0.87329600319E+02  0.17955611234E+03  0.92493072198E+02 0.  0.
        -11    1    4    4    0    0 -0.28709088209E+02 -0.19484455608E+02 -0.87518962633E+01  0.35783396210E+02  0.00000000000E+00 0.  1.
         11    1    4    4    0    0  0.12586689770E+02 -0.10620976960E+03  0.96081496582E+02  0.14377271613E+03  0.00000000000E+00 0. -1.
        -13    1    3    3    0    0  0.53788758494E+02  0.28776489415E+02  0.61526586250E+01  0.61312087646E+02  0.00000000000E+00 0. -1.
         13    1    3    3    0    0 -0.14059690365E+02  0.93098128746E+02  0.48747971534E+02  0.10602500270E+03  0.00000000000E+00 0.  1.
         21    1    1    2  502  501 -0.23606669691E+02  0.38196070457E+01 -0.17943248207E+02  0.29896896295E+02  0.00000000000E+00 0. -1.
<scales pt_clust_5="13000.00000" pt_clust_6="13000.00000" pt_clust_7="13000.00000" pt_clust_8="13000.00000" pt_clust_9="23.91368"></scales>
<clustering>
<clus scale="   23.914">  2  9  1 -1</clus>
<clus scale="   92.493">  5  6 -1 -1</clus>
<clus scale="   92.498">  7  8 -1 -1</clus>
<clus scale="  156.973">  1  5  2 -1</clus>
<clus scale="  156.973">  1  5  2 -1</clus>
</clustering>
</event>
<event>
 9    1  0.1748361E-005  0.1628457E+03  0.7546771E-02  0.1185876E+00
         -1   -1    0    0    0  501 -0.00000000000E+00  0.00000000000E+00  0.84476799434E+02  0.84476799434E+02  0.00000000000E+00 0.  1.
          1   -1    0    0  502    0  0.00000000000E+00 -0.00000000000E+00 -0.61434048915E+03  0.61434048915E+03  0.00000000000E+00 0. -1.
         23    2    1    2    0    0  0.83162746463E+02  0.91018793781E+02 -0.12479154521E+03  0.19752325466E+03  0.90785699056E+02 0.  0.
         23    2    1    2    0    0 -0.14008741707E+03 -0.39646830939E+02 -0.38505838832E+03  0.42204728556E+03  0.93046188593E+02 0.  0.
        -13    1    3    3    0    0  0.73808869903E+01  0.45801992625E+02 -0.92630718668E+02  0.10359898678E+03  0.00000000000E+00 0.  1.
         13    1    3    3    0    0  0.75781859473E+02  0.45216801156E+02 -0.32160826545E+02  0.93924267876E+02  0.00000000000E+00 0. -1.
        -13    1    4    4    0    0 -0.11225412630E+03 -0.58045860237E+02 -0.22055518459E+03  0.25419461090E+03  0.00000000000E+00 0. -1.
         13    1    4    4    0    0 -0.27833290773E+02  0.18399029298E+02 -0.16450320373E+03  0.16785267466E+03  0.00000000000E+00 0.  1.
         21    1    1    2  502  501  0.56924670605E+02 -0.51371962842E+02 -0.20013756185E+02  0.79246748364E+02  0.00000000000E+00 0.  1.
<scales pt_clust_5="13000.00000" pt_clust_6="13000.00000" pt_clust_7="13000.00000" pt_clust_8="13000.00000" pt_clust_9="76.67788"></scales>
<clustering>
<clus scale="   76.678">  1  9  2 -1</clus>
<clus scale="   90.786">  5  6 -1 -1</clus>
<clus scale="   93.046">  7  8 -1 -1</clus>
<clus scale="  161.565">  1  5  2 -1</clus>
<clus scale="  162.846">  2  5  1 -1</clus>
</clustering>
</event>
<event>
 9    1  0.1748361E-005  0.2730068E+03  0.7546771E-02  0.1099728E+00
         -1   -1    0    0    0  501 -0.00000000000E+00  0.00000000000E+00  0.82669813313E+02  0.82669813313E+02  0.00000000000E+00 0.  1.
          1   -1    0    0  502    0  0.00000000000E+00 -0.00000000000E+00 -0.10797273934E+04  0.10797273934E+04  0.00000000000E+00 0. -1.
         23    2    1    2    0    0 -0.23666142387E+03 -0.67683388722E+02 -0.39098605924E+03  0.47059706111E+03  0.89452919169E+02 0.  0.
         23    2    1    2    0    0  0.25882105726E+03  0.57857377739E+02 -0.60554396796E+03  0.66755394683E+03  0.92784475819E+02 0.  0.
        -11    1    4    4    0    0  0.97728473401E+02 -0.23154120166E+02 -0.22947047586E+03  0.25048686011E+03  0.00000000000E+00 0. -1.
         11    1    4    4    0    0  0.16109258386E+03  0.81011497905E+02 -0.37607349210E+03  0.41706708672E+03  0.00000000000E+00 0.  1.
        -11    1    3    3    0    0 -0.40895242373E+02  0.20460541974E+01 -0.20463173522E+02  0.45774978505E+02  0.00000000000E+00 0.  1.
         11    1    3    3    0    0 -0.19576618149E+03 -0.69729442919E+02 -0.37052288572E+03  0.42482208260E+03  0.00000000000E+00 0. -1.
         21    1    1    2  502  501 -0.22159633391E+02  0.98260109827E+01 -0.52755290122E+00  0.24246198793E+02  0.00000000000E+00 0.  1.
<scales pt_clust_5="13000.00000" pt_clust_6="13000.00000" pt_clust_7="13000.00000" pt_clust_8="13000.00000" pt_clust_9="24.24046"></scales>
<clustering>
<clus scale="   24.240">  1  9  2 -1</clus>
<clus scale="   89.453">  7  8 -1 -1</clus>
<clus scale="   92.784">  5  6 -1 -1</clus>
<clus scale="  271.893">  1  7  2 -1</clus>
<clus scale="  273.007">  2  5  1 -1</clus>
</clustering>
</event>
<event>
 9    1  0.1748361E-005  0.1089372E+03  0.7546771E-02  0.1262704E+00
          1   -1    0    0  502    0  0.00000000000E+00  0.00000000000E+00  0.72310829578E+03  0.72310829578E+03  0.00000000000E+00 0. -1.
         -1   -1    0    0    0  501 -0.00000000000E+00 -0.00000000000E+00 -0.37624363717E+02  0.37624363717E+02  0.00000000000E+00 0.  1.
         23    2    1    2    0    0 -0.56408550532E+02 -0.40912096926E+02  0.22890644504E+03  0.25596195463E+03  0.90899050544E+02 0.  0.
         23    2    1    2    0    0  0.53747717361E+02  0.15777250118E+02  0.46573191724E+03  0.47788866347E+03  0.91288647642E+02 0.  0.
        -13    1    4    4    0    0  0.11101532655E+02  0.49455353149E+02  0.17826552655E+03  0.18533125462E+03  0.00000000000E+00 0.  1.
         13    1    4    4    0    0  0.42646184706E+02 -0.33678103031E+02  0.28746639070E+03  0.29255740885E+03  0.00000000000E+00 0. -1.
        -13    1    3    3    0    0 -0.76725492755E+02 -0.11641567417E+02  0.17381740041E+03  0.19035444838E+03  0.00000000000E+00 0.  1.
         13    1    3    3    0    0  0.20316942223E+02 -0.29270529510E+02  0.55089044627E+02  0.65607506255E+02  0.00000000000E+00 0. -1.
         21    1    1    2  502  501  0.26608331710E+01  0.25134846808E+02 -0.91544302175E+01  0.26882041400E+02  0.00000000000E+00 0.  1.
<scales pt_clust_5="13000.00000" pt_clust_6="13000.00000" pt_clust_7="13000.00000" pt_clust_8="13000.00000" pt_clust_9="25.27530"></scales>
<clustering>
<clus scale="   25.275">  2  9  1 -1</clus>
<clus scale="   90.899">  7  8 -1 -1</clus>
<clus scale="   91.289">  5  6 -1 -1</clus>
<clus scale="  108.611">  2  7  1 -1</clus>
<clus scale="  108.937">  1  5  2 -1</clus>
</clustering>
</event>
<event>
 9    1  0.1748361E-005  0.1339379E+03  0.7546771E-02  0.1225865E+00
         -2   -1    0    0    0  501 -0.00000000000E+00  0.00000000000E+00  0.69166909658E+03  0.69166909658E+03  0.00000000000E+00 0.  1.
          2   -1    0    0  502    0  0.00000000000E+00 -0.00000000000E+00 -0.35755570638E+02  0.35755570638E+02  0.00000000000E+00 0. -1.
         23    2    1    2    0    0  0.85157580661E+01  0.10544606143E+03  0.41347571516E+03  0.43583505973E+03  0.88309921625E+02 0.  0.
         23    2    1    2    0    0 -0.14222154946E+01 -0.76332190719E+02  0.16851905213E+03  0.21182797075E+03  0.10316875605E+03 0.  0.
        -11    1    3    3    0    0  0.31455897361E+02  0.10669640729E+03  0.29773019088E+03  0.31783150154E+03  0.00000000000E+00 0. -1.
         11    1    3    3    0    0 -0.22940139295E+02 -0.12503458621E+01  0.11574552428E+03  0.11800355819E+03  0.00000000000E+00 0.  1.
        -13    1    4    4    0    0 -0.46257376590E+02 -0.25930558402E+02  0.11162647218E+03  0.12358239373E+03  0.00000000000E+00 0.  1.
         13    1    4    4    0    0  0.44835161095E+02 -0.50401632317E+02  0.56892579947E+02  0.88245577020E+02  0.00000000000E+00 0. -1.
         21    1    1    2  502  501 -0.70935425715E+01 -0.29113870712E+02  0.73918758655E+02  0.79761636738E+02  0.00000000000E+00 0.  1.
<scales pt_clust_5="13000.00000" pt_clust_6="13000.00000" pt_clust_7="13000.00000" pt_clust_8="13000.00000" pt_clust_9="29.96558"></scales>
<clustering>
<clus scale="   29.966">  1  9  2 -1</clus>
<clus scale="   88.310">  5  6 -1 -1</clus>
<clus scale="  103.169">  7  8 -1 -1</clus>
<clus scale="  122.858">  1  5  2 -1</clus>
<clus scale="  133.938">  2  5  1 -1</clus>
</clustering>
</event>
<event>
 9    1  0.1748361E-005  0.1074334E+03  0.7546771E-02  0.1265546E+00
          3   -1    0    0  502    0  0.00000000000E+00  0.00000000000E+00  0.40135413357E+03  0.40135413357E+03  0.00000000000E+00 0. -1.
         -3   -1    0    0    0  501 -0.00000000000E+00 -0.00000000000E+00 -0.60168942502E+02  0.60168942502E+02  0.00000000000E+00 0.  1.
         23    2    1    2    0    0  0.29538896602E+02 -0.72589018668E+02  0.46122476522E+02  0.12936339026E+03  0.92010281244E+02 0.  0.
         23    2    1    2    0    0 -0.26284933557E+02  0.42125667329E+02  0.27793247383E+03  0.29705912746E+03  0.92369884778E+02 0.  0.
        -11    1    3    3    0    0 -0.20092126354E+02  0.10909634759E+02  0.15080319512E+02  0.27388495917E+02  0.00000000000E+00 0.  1.
         11    1    3    3    0    0  0.49631022957E+02 -0.83498653426E+02  0.31042157011E+02  0.10197489434E+03  0.00000000000E+00 0. -1.
        -13    1    4    4    0    0 -0.33632248640E+02  0.68160695592E+02  0.17841034085E+03  0.19392590929E+03  0.00000000000E+00 0.  1.
         13    1    4    4    0    0  0.73473150829E+01 -0.26035028262E+02  0.99522132985E+02  0.10313321817E+03  0.00000000000E+00 0. -1.
         21    1    1    2  502  501 -0.32539630454E+01  0.30463351338E+02  0.17130240714E+02  0.35100558360E+02  0.00000000000E+00 0.  1.
<scales pt_clust_5="13000.00000" pt_clust_6="13000.00000" pt_clust_7="13000.00000" pt_clust_8="13000.00000" pt_clust_9="30.63665"></scales>
<clustering>
<clus scale="   30.637">  2  9  1 -1</clus>
<clus scale="   92.010">  5  6 -1 -1</clus>
<clus scale="   92.370">  7  8 -1 -1</clus>
<clus scale="  107.124">  2  5  1 -1</clus>
<clus scale="  107.433">  1  5  2 -1</clus>
</clustering>
</event>
<event>
 9    1  0.1748361E-005  0.9232010E+02  0.7546771E-02  0.1298654E+00
         -1   -1    0    0    0  501 -0.00000000000E+00  0.00000000000E+00  0.74201349196E+02  0.74201349196E+02  0.00000000000E+00 0.  1.
          1   -1    0    0  502    0  0.00000000000E+00 -0.00000000000E+00 -0.39127354854E+03  0.39127354854E+03  0.00000000000E+00 0. -1.
         23    2    1    2    0    0 -0.19274288197E+02  0.12624967709E+01  0.94581496334E+01  0.91865609144E+02  0.89312605299E+02 0.  0.
         23    2    1    2    0    0 -0.56547313234E+01 -0.12679142826E+02 -0.33283087339E+03  0.34547581335E+03  0.91566427656E+02 0.  0.
        -11    1    4    4    0    0  0.10029720292E+02 -0.48157872299E+02 -0.23776542166E+03  0.24280068305E+03  0.00000000000E+00 0. -1.
         11    1    4    4    0    0 -0.15684451616E+02  0.35478729472E+02 -0.95065451736E+02  0.10267513030E+03  0.00000000000E+00 0.  1.
        -13    1    3    3    0    0  0.24012336998E+02  0.91324271569E+01  0.33115565346E+02  0.41912220438E+02  0.00000000000E+00 0.  1.
         13    1    3    3    0    0 -0.43286625194E+02 -0.78699303861E+01 -0.23657415712E+02  0.49953388706E+02  0.00000000000E+00 0. -1.
         21    1    1    2  502  501  0.24929019520E+02  0.11416646055E+02  0.63005244188E+01  0.28133475244E+02  0.00000000000E+00 0. -1.
<scales pt_clust_5="13000.00000" pt_clust_6="13000.00000" pt_clust_7="13000.00000" pt_clust_8="13000.00000" pt_clust_9="27.41890"></scales>
<clustering>
<clus scale="   27.419">  1  9  2 -1</clus>
<clus scale="   89.313">  7  8 -1 -1</clus>
<clus scale="   90.085">  1  7  2 -1</clus>
<clus scale="   91.566">  5  6 -1 -1</clus>
<clus scale="   92.320">  2  5  1 -1</clus>
</clustering>
</event>
<event>
 9    1  0.1748361E-005  0.2551043E+03  0.7546771E-02  0.1110384E+00
         -1   -1    0    0    0  501 -0.00000000000E+00  0.00000000000E+00  0.18826449625E+03  0.18826449625E+03  0.00000000000E+00 0.  1.
          1   -1    0    0  502    0  0.00000000000E+00 -0.00000000000E+00 -0.81556034970E+03  0.81556034970E+03  0.00000000000E+00 0. -1.
         23    2    1    2    0    0  0.53513275757E+02 -0.28780729031E+03 -0.38767999784E+02  0.30940914146E+03  0.92381556441E+02 0.  0.
         23    2    1    2    0    0 -0.21770612060E+02  0.22682333366E+03 -0.57454999197E+03  0.62425859305E+03  0.87568907060E+02 0.  0.
        -11    1    4    4    0    0 -0.27579503260E+02  0.12742152576E+03 -0.21746153512E+03  0.25354761581E+03  0.00000000000E+00 0.  1.
         11    1    4    4    0    0  0.58088912000E+01  0.99401807900E+02 -0.35708845685E+03  0.37071097724E+03  0.00000000000E+00 0. -1.
        -13    1    3    3    0    0  0.78517613747E+02 -0.18425461594E+03 -0.29986617438E+02  0.20251907661E+03  0.00000000000E+00 0.  1.
         13    1    3    3    0    0 -0.25004337990E+02 -0.10355267437E+03 -0.87813823464E+01  0.10689006485E+03  0.00000000000E+00 0. -1.
         21    1    1    2  502  501 -0.31742663697E+02  0.60983956655E+02 -0.13977861697E+02  0.70157111439E+02  0.00000000000E+00 0. -1.
<scales pt_clust_5="13000.00000" pt_clust_6="13000.00000" pt_clust_7="13000.00000" pt_clust_8="13000.00000" pt_clust_9="68.75056"></scales>
<clustering>
<clus scale="   68.751">  1  9  2 -1</clus>
<clus scale="   87.569">  5  6 -1 -1</clus>
<clus scale="   92.382">  7  8 -1 -1</clus>
<clus scale="  253.401">  2  5  1 -1</clus>
<clus scale="  253.401">  2  5  1 -1</clus>
</clustering>
</event>
<event>
 9    1  0.1748361E-005  0.9762902E+02  0.7546771E-02  0.1285935E+00
         -3   -1    0    0    0  501 -0.00000000000E+00  0.00000000000E+00  0.10985347447E+03  0.10985347447E+03  0.00000000000E+00 0.  1.
          3   -1    0    0  502    0  0.00000000000E+00 -0.00000000000E+00 -0.20876807258E+03  0.20876807258E+03  0.00000000000E+00 0. -1.
         23    2    1    2    0    0  0.65025677404E+02 -0.28526472573E+02 -0.13825928227E+02  0.11516942668E+03  0.89614408391E+02 0.  0.
         23    2    1    2    0    0 -0.19697043962E+02  0.14889302439E+02 -0.11415606120E+03  0.14790420721E+03  0.90743502972E+02 0.  0.
        -11    1    4    4    0    0 -0.47082259984E+02  0.21503471105E+01 -0.24135064404E+02  0.52951530022E+02  0.00000000000E+00 0.  1.
         11    1    4    4    0    0  0.27385216022E+02  0.12738955328E+02 -0.90020996801E+02  0.94952677185E+02  0.00000000000E+00 0. -1.
        -13    1    3    3    0    0  0.60845306542E+02 -0.56644794039E+02 -0.21218967178E+02  0.85796436919E+02  0.00000000000E+00 0. -1.
         13    1    3    3    0    0  0.41803708622E+01  0.28118321466E+02  0.73930389503E+01  0.29372989762E+02  0.00000000000E+00 0.  1.
         21    1    1    2  502  501 -0.45328633443E+02  0.13637170134E+02  0.29067391322E+02  0.55547913168E+02  0.00000000000E+00 0.  1.
<scales pt_clust_5="13000.00000" pt_clust_6="13000.00000" pt_clust_7="13000.00000" pt_clust_8="13000.00000" pt_clust_9="47.33558"></scales>
<clustering>
<clus scale="   47.336">  1  9  2 -1</clus>
<clus scale="   89.614">  7  8 -1 -1</clus>
<clus scale="   90.744">  5  6 -1 -1</clus>
<clus scale="   96.580">  1  7  2 -1</clus>
<clus scale="   97.629">  2  5  1 -1</clus>
</clustering>
</event>
<event>
 9    1  0.1748361E-005  0.4275922E+03  0.7546771E-02  0.1034705E+00
          1   -1    0    0  502    0  0.00000000000E+00  0.00000000000E+00  0.10917558388E+04  0.10917558388E+04  0.00000000000E+00 0. -1.
         -1   -1    0    0    0  501 -0.00000000000E+00 -0.00000000000E+00 -0.25354209659E+03  0.25354209659E+03  0.00000000000E+00 0.  1.
         23    2    1    2    0    0 -0.40828102044E+03 -0.47840721705E+02  0.27052805840E+03  0.50063251776E+03  0.92007397247E+02 0.  0.
         23    2    1    2    0    0  0.41227381853E+03  0.80692818769E+02  0.63625052728E+03  0.76853171630E+03  0.96670745595E+02 0.  0.
        -11    1    4    4    0    0  0.32415453847E+03  0.94927205890E+02  0.54271509654E+03  0.63923940369E+03  0.00000000000E+00 0. -1.
         11    1    4    4    0    0  0.88119280060E+02 -0.14234387122E+02  0.93535430745E+02  0.12929231261E+03  0.00000000000E+00 0.  1.
        -11    1    3    3    0    0 -0.37193463611E+03 -0.17832408211E+02  0.25374829437E+03  0.45060133734E+03  0.00000000000E+00 0.  1.
         11    1    3    3    0    0 -0.36346384328E+02 -0.30008313494E+02  0.16779764038E+02  0.50031180414E+02  0.00000000000E+00 0. -1.
         21    1    1    2  502  501 -0.39927980900E+01 -0.32852097064E+02 -0.68564843472E+02  0.76133701332E+02  0.00000000000E+00 0.  1.
<scales pt_clust_5="13000.00000" pt_clust_6="13000.00000" pt_clust_7="13000.00000" pt_clust_8="13000.00000" pt_clust_9="33.09385"></scales>
<clustering>
<clus scale="   33.094">  2  9  1 -1</clus>
<clus scale="   92.007">  7  8 -1 -1</clus>
<clus scale="   96.671">  5  6 -1 -1</clus>
<clus scale="  426.562">  2  7  1 -1</clus>
<clus scale="  427.592">  1  5  2 -1</clus>
</clustering>
</event>
<event>
 9    1  0.1748361E-005  0.1395969E+03  0.7546771E-02  0.1214316E+00
         -2   -1    0    0    0  501 -0.00000000000E+00  0.00000000000E+00  0.11968292441E+03  0.11968292441E+03  0.00000000000E+00 0.  1.
          2   -1    0    0  502    0  0.00000000000E+00 -0.00000000000E+00 -0.24351310409E+03  0.24351310409E+03  0.00000000000E+00 0. -1.
         23    2    1    2    0    0 -0.65923372226E+02  0.66484148876E+02 -0.15796711844E+02  0.13034614084E+03  0.89300320660E+02 0.  0.
         23    2    1    2    0    0  0.72785809407E+02 -0.85425968653E+02 -0.13587568583E+03  0.19848312052E+03  0.91312523581E+02 0.  0.
        -11    1    4    4    0    0  0.86040281919E+02 -0.70106595029E+02 -0.13912059590E+03  0.17796742675E+03  0.00000000000E+00 0. -1.
         11    1    4    4    0    0 -0.13254472512E+02 -0.15319373625E+02  0.32449100725E+01  0.20515693778E+02  0.00000000000E+00 0.  1.
        -11    1    3    3    0    0 -0.54674339544E+02 -0.73335553932E+00 -0.27485675817E+02  0.61198722128E+02  0.00000000000E+00 0. -1.
         11    1    3    3    0    0 -0.11249032682E+02  0.67217504416E+02  0.11688963973E+02  0.69147418715E+02  0.00000000000E+00 0.  1.
         21    1    1    2  502  501 -0.68624371803E+01  0.18941819777E+02  0.27842217991E+02  0.34366767133E+02  0.00000000000E+00 0. -1.
<scales pt_clust_5="13000.00000" pt_clust_6="13000.00000" pt_clust_7="13000.00000" pt_clust_8="13000.00000" pt_clust_9="20.14660"></scales>
<clustering>
<clus scale="   20.147">  1  9  2 -1</clus>
<clus scale="   89.300">  7  8 -1 -1</clus>
<clus scale="   91.313">  5  6 -1 -1</clus>
<clus scale="  138.289">  1  7  2 -1</clus>
<clus scale="  139.597">  2  5  1 -1</clus>
</clustering>
</event>
<event>
 9    1  0.1748361E-005  0.1615266E+03  0.7546771E-02  0.1187017E+00
         -1   -1    0    0    0  501 -0.00000000000E+00  0.00000000000E+00  0.52717813843E+03  0.52717813843E+03  0.00000000000E+00 0.  1.
          1   -1    0    0  502    0  0.00000000000E+00 -0.00000000000E+00 -0.10182392438E+03  0.10182392438E+03  0.00000000000E+00 0. -1.
         23    2    1    2    0    0  0.60859569455E+02 -0.86359313168E+02  0.28152647642E+03  0.31475264192E+03  0.93006722910E+02 0.  0.
         23    2    1    2    0    0 -0.82042946508E+02  0.11287252249E+03  0.11412817915E+01  0.16758275660E+03  0.92797771420E+02 0.  0.
        -11    1    4    4    0    0 -0.27617640426E+02  0.35091799408E+02 -0.43800119928E+02  0.62550930881E+02  0.00000000000E+00 0.  1.
         11    1    4    4    0    0 -0.54425306082E+02  0.77780723080E+02  0.44941401720E+02  0.10503182572E+03  0.00000000000E+00 0. -1.
        -11    1    3    3    0    0  0.24877152943E+01 -0.80000316762E+02  0.18790841171E+03  0.20424448732E+03  0.00000000000E+00 0.  1.
         11    1    3    3    0    0  0.58371854160E+02 -0.63589964059E+01  0.93618064707E+02  0.11050815460E+03  0.00000000000E+00 0. -1.
         21    1    1    2  502  501  0.21183377053E+02 -0.26513209320E+02  0.14268645585E+03  0.14666666429E+03  0.00000000000E+00 0.  1.
<scales pt_clust_5="13000.00000" pt_clust_6="13000.00000" pt_clust_7="13000.00000" pt_clust_8="13000.00000" pt_clust_9="33.93650"></scales>
<clustering>
<clus scale="   33.936">  1  9  2 -1</clus>
<clus scale="   92.798">  5  6 -1 -1</clus>
<clus scale="   93.007">  7  8 -1 -1</clus>
<clus scale="  161.406">  2  5  1 -1</clus>
<clus scale="  161.406">  2  5  1 -1</clus>
</clustering>
</event>
<event>
 9    1  0.1748361E-005  0.1061946E+03  0.7546771E-02  0.1268115E+00
          1   -1    0    0  502    0  0.00000000000E+00  0.00000000000E+00  0.18247848663E+02  0.18247848663E+02  0.00000000000E+00 0. -1.
         -1   -1    0    0    0  501 -0.00000000000E+00 -0.00000000000E+00 -0.76390950655E+03  0.76390950655E+03  0.00000000000E+00 0.  1.
         23    2    1    2    0    0  0.57085285739E+02 -0.11606800370E+02 -0.33487425976E+03  0.35240652935E+03  0.93038402920E+02 0.  0.
         23    2    1    2    0    0 -0.45696199532E+02 -0.58009706227E+01 -0.30569296122E+03  0.32261734630E+03  0.92260347268E+02 0.  0.
        -11    1    3    3    0    0  0.58223995618E+02  0.21817730801E+02 -0.28913266723E+03  0.29574270287E+03  0.00000000000E+00 0.  1.
         11    1    3    3    0    0 -0.11387098792E+01 -0.33424531171E+02 -0.45741592532E+02  0.56663826482E+02  0.00000000000E+00 0. -1.
        -11    1    4    4    0    0 -0.61947922620E+02 -0.30122259263E+02 -0.16300490429E+03  0.17696184460E+03  0.00000000000E+00 0. -1.
         11    1    4    4    0    0  0.16251723088E+02  0.24321288640E+02 -0.14268805693E+03  0.14565550170E+03  0.00000000000E+00 0.  1.
         21    1    1    2  502  501 -0.11389086207E+02  0.17407770992E+02 -0.10509443690E+03  0.10713347956E+03  0.00000000000E+00 0. -1.
<scales pt_clust_5="13000.00000" pt_clust_6="13000.00000" pt_clust_7="13000.00000" pt_clust_8="13000.00000" pt_clust_9="20.80245"></scales>
<clustering>
<clus scale="   20.802">  2  9  1 -1</clus>
<clus scale="   92.260">  7  8 -1 -1</clus>
<clus scale="   93.038">  5  6 -1 -1</clus>
<clus scale="  105.514">  1  7  2 -1</clus>
<clus scale="  105.514">  1  5  2 -1</clus>
</clustering>
</event>
<event>
 9    1  0.1748361E-005  0.1094872E+03  0.7546771E-02  0.1266618E+00
         -2   -1    0    0    0  501 -0.00000000000E+00  0.00000000000E+00  0.58519132021E+02  0.58519132021E+02  0.00000000000E+00 0.  1.
          2   -1    0    0  502    0  0.00000000000E+00 -0.00000000000E+00 -0.37838934270E+03  0.37838934270E+03  0.00000000000E+00 0. -1.
         23    2    1    2    0    0 -0.12534144478E+02  0.46953761942E+01 -0.22192741759E+02  0.94288068351E+02  0.90656332990E+02 0.  0.
         23    2    1    2    0    0  0.40520624704E+02 -0.26031965481E+02 -0.28276928228E+03  0.30440068441E+03  0.10189075235E+03 0.  0.
        -11    1    3    3    0    0  0.21005928493E+02  0.63015034774E+01 -0.47448624501E+02  0.52271693534E+02  0.00000000000E+00 0.  1.
         11    1    3    3    0    0 -0.33540072970E+02 -0.16061272831E+01  0.25255882741E+02  0.42016374817E+02  0.00000000000E+00 0. -1.
        -13    1    4    4    0    0  0.70662091543E+02 -0.31926754829E+02 -0.15930436890E+03  0.17717316615E+03  0.00000000000E+00 0.  1.
         13    1    4    4    0    0 -0.30141466839E+02  0.58947893482E+01 -0.12346491338E+03  0.12722751825E+03  0.00000000000E+00 0. -1.
         21    1    1    2  502  501 -0.27986480227E+02  0.21336589287E+02 -0.14908186638E+02  0.38219721960E+02  0.00000000000E+00 0. -1.
<scales pt_clust_5="13000.00000" pt_clust_6="13000.00000" pt_clust_7="13000.00000" pt_clust_8="13000.00000" pt_clust_9="35.19223"></scales>
<clustering>
<clus scale="   35.192">  1  9  2 -1</clus>
<clus scale="   90.656">  5  6 -1 -1</clus>
<clus scale="   99.118">  1  5  2 -1</clus>
<clus scale="  101.891">  7  8 -1 -1</clus>
<clus scale="  109.487">  2  5  1 -1</clus>
</clustering>
</event>
<event>
 9    1  0.1748361E-005  0.1399033E+03  0.7546771E-02  0.1219472E+00
         -1   -1    0    0    0  501 -0.00000000000E+00  0.00000000000E+00  0.40558857442E+02  0.40558857442E+02  0.00000000000E+00 0.  1.
          1   -1    0    0  502    0  0.00000000000E+00 -0.00000000000E+00 -0.86507146743E+03  0.86507146743E+03  0.00000000000E+00 0. -1.
         23    2    1    2    0    0 -0.48006041776E+01  0.10752595098E+03 -0.26600286492E+03  0.31071989083E+03  0.11918242519E+03 0.  0.
         23    2    1    2    0    0  0.51057780942E+02 -0.45185976882E+02 -0.41084644125E+03  0.42808582535E+03  0.99065665472E+02 0.  0.
        -13    1    3    3    0    0 -0.37214931244E+02  0.14685034277E+02 -0.17880568157E+02  0.43821410941E+02  0.00000000000E+00 0.  1.
         13    1    3    3    0    0  0.32414327066E+02  0.92840916702E+02 -0.24812229676E+03  0.26689847989E+03  0.00000000000E+00 0. -1.
        -13    1    4    4    0    0  0.56010939051E+02  0.15810763899E+02 -0.17474136466E+03  0.18417858202E+03  0.00000000000E+00 0. -1.
         13    1    4    4    0    0 -0.49531581087E+01 -0.60996740780E+02 -0.23610507659E+03  0.24390724334E+03  0.00000000000E+00 0.  1.
         21    1    1    2  502  501 -0.46257176765E+02 -0.62339974098E+02 -0.14766330382E+03  0.16682460870E+03  0.00000000000E+00 0. -1.
<scales pt_clust_5="13000.00000" pt_clust_6="13000.00000" pt_clust_7="13000.00000" pt_clust_8="13000.00000" pt_clust_9="77.62731"></scales>
<clustering>
<clus scale="   77.627">  1  9  2 -1</clus>
<clus scale="   99.066">  7  8 -1 -1</clus>
<clus scale="  119.182">  5  6 -1 -1</clus>
<clus scale="  123.217">  2  7  1 -1</clus>
<clus scale="  123.217">  2  5  1 -1</clus>
</clustering>
</event>
<event>
 9    1  0.1748361E-005  0.1746574E+03  0.7546771E-02  0.1191629E+00
          2   -1    0    0  502    0  0.00000000000E+00  0.00000000000E+00  0.92711763909E+03  0.92711763909E+03  0.00000000000E+00 0. -1.
         -2   -1    0    0    0  501 -0.00000000000E+00 -0.00000000000E+00 -0.71073055413E+02  0.71073055413E+02  0.00000000000E+00 0.  1.
         23    2    1    2    0    0 -0.20185589141E+03 -0.10640166185E+02  0.45763787875E+03  0.50878383978E+03  0.92571882980E+02 0.  0.
         23    2    1    2    0    0  0.73388530744E+02 -0.30242751736E+02  0.30315361138E+03  0.32433587737E+03  0.83613089744E+02 0.  0.
        -11    1    4    4    0    0  0.42997615939E+02  0.20098777246E+02  0.20041861286E+03  0.20596207467E+03  0.00000000000E+00 0. -1.
         11    1    4    4    0    0  0.30390914806E+02 -0.50341528982E+02  0.10273499852E+03  0.11837380270E+03  0.00000000000E+00 0.  1.
        -11    1    3    3    0    0 -0.20860484799E+02 -0.22621147792E+02  0.24959629614E+02  0.39621449544E+02  0.00000000000E+00 0.  1.
         11    1    3    3    0    0 -0.18099540661E+03  0.11980981607E+02  0.43267824914E+03  0.46916239024E+03  0.00000000000E+00 0. -1.
         21    1    1    2  502  501  0.12846736067E+03  0.40882917921E+02  0.95253093540E+02  0.16507097735E+03  0.00000000000E+00 0.  1.
<scales pt_clust_5="13000.00000" pt_clust_6="13000.00000" pt_clust_7="13000.00000" pt_clust_8="13000.00000" pt_clust_9="148.10684"></scales>
<clustering>
<clus scale="   83.613">  5  6 -1 -1</clus>
<clus scale="   92.572">  7  8 -1 -1</clus>
<clus scale="  115.289">  1  5  2 -1</clus>
<clus scale="  148.107">  2  9  1 -1</clus>
<clus scale="  115.289">  1  5  2 -1</clus>
</clustering>
</event>
<event>
 9    1  0.1748361E-005  0.1453289E+03  0.7546771E-02  0.1215354E+00
         -1   -1    0    0    0  501 -0.00000000000E+00  0.00000000000E+00  0.15110243444E+03  0.15110243444E+03  0.00000000000E+00 0.  1.
          1   -1    0    0  502    0  0.00000000000E+00 -0.00000000000E+00 -0.15940200888E+03  0.15940200888E+03  0.00000000000E+00 0. -1.
         23    2    1    2    0    0  0.65719875069E+02 -0.17782836498E+02  0.84049979495E+01  0.13851788436E+03  0.12033797840E+03 0.  0.
         23    2    1    2    0    0 -0.81784742031E+02  0.53130822048E+02 -0.49763722896E+01  0.13142659458E+03  0.87957701197E+02 0.  0.
        -11    1    4    4    0    0  0.27871972674E+01  0.28927341287E+02  0.25161108001E+02  0.38440094932E+02  0.00000000000E+00 0. -1.
         11    1    4    4    0    0 -0.84571939298E+02  0.24203480761E+02 -0.30137480291E+02  0.92986499643E+02  0.00000000000E+00 0.  1.
        -13    1    3    3    0    0  0.24325818227E+02 -0.14120107347E+02 -0.55540085925E+02  0.62256116233E+02  0.00000000000E+00 0.  1.
         13    1    3    3    0    0  0.41394056841E+02 -0.36627291516E+01  0.63945083874E+02  0.76261768130E+02  0.00000000000E+00 0. -1.
         21    1    1    2  502  501  0.16064866962E+02 -0.35347985550E+02 -0.11728200097E+02  0.40559964380E+02  0.00000000000E+00 0. -1.
<scales pt_clust_5="13000.00000" pt_clust_6="13000.00000" pt_clust_7="13000.00000" pt_clust_8="13000.00000" pt_clust_9="38.82731"></scales>
<clustering>
<clus scale="   38.827">  2  9  1 -1</clus>
<clus scale="   87.958">  5  6 -1 -1</clus>
<clus scale="  119.899">  2  5  1 -1</clus>
<clus scale="  120.338">  7  8 -1 -1</clus>
<clus scale="   38.827">  2  5  1 -1</clus>
</clustering>
</event>
<event>
 9    1  0.1748361E-005  0.2016021E+03  0.7546771E-02  0.1148486E+00
         -1   -1    0    0    0  501 -0.00000000000E+00  0.00000000000E+00  0.37164891674E+03  0.37164891674E+03  0.00000000000E+00 0.  1.
          1   -1    0    0  502    0  0.00000000000E+00 -0.00000000000E+00 -0.80955673423E+03  0.80955673423E+03  0.00000000000E+00 0. -1.
         23    2    1    2    0    0  0.19508372946E+03  0.37299016193E+02  0.52922562375E+02  0.22423831694E+03  0.89627825285E+02 0.  0.
         23    2    1    2    0    0 -0.17818969116E+03 -0.89164101323E+01 -0.70880252455E+03  0.73650682348E+03  0.90610230242E+02 0.  0.
        -11    1    3    3    0    0  0.16008013361E+03  0.12770935441E+02  0.73724266305E+02  0.17670317884E+03  0.00000000000E+00 0.  1.
         11    1    3    3    0    0  0.35003595851E+02  0.24528080752E+02 -0.20801703931E+02  0.47535138101E+02  0.00000000000E+00 0. -1.
        -13    1    4    4    0    0 -0.17431105457E+03 -0.30952362457E+02 -0.60798189006E+03  0.63323326754E+03  0.00000000000E+00 0. -1.
         13    1    4    4    0    0 -0.38786365838E+01  0.22035952325E+02 -0.10082063449E+03  0.10327355594E+03  0.00000000000E+00 0.  1.
         21    1    1    2  502  501 -0.16894038304E+02 -0.28382606060E+02  0.21797214468E+03  0.22046051055E+03  0.00000000000E+00 0.  1.
<scales pt_clust_5="13000.00000" pt_clust_6="13000.00000" pt_clust_7="13000.00000" pt_clust_8="13000.00000" pt_clust_9="33.03000"></scales>
<clustering>
<clus scale="   33.030">  1  9  2 -1</clus>
<clus scale="   89.628">  5  6 -1 -1</clus>
<clus scale="   90.610">  7  8 -1 -1</clus>
<clus scale="  201.162">  1  5  2 -1</clus>
<clus scale="  201.602">  2  5  1 -1</clus>
</clustering>
</event>
<event>
 9    1  0.1748361E-005  0.1235815E+03  0.7546771E-02  0.1248831E+00
         -1   -1    0    0    0  501 -0.00000000000E+00  0.00000000000E+00  0.45133106798E+02  0.45133106798E+02  0.00000000000E+00 0.  1.
          1   -1    0    0  502    0  0.00000000000E+00 -0.00000000000E+00 -0.65291702155E+03  0.65291702155E+03  0.00000000000E+00 0. -1.
         23    2    1    2    0    0 -0.15635552111E+02 -0.33137048560E+02 -0.55665244251E+02  0.11180976788E+03  0.89779008117E+02 0.  0.
         23    2    1    2    0    0 -0.21628248287E+02  0.37347798493E+02 -0.52576162863E+03  0.54040353149E+03  0.11725206833E+03 0.  0.
        -11    1    4    4    0    0 -0.20507958295E+02  0.78227183543E+02 -0.40221675585E+03  0.41026623951E+03  0.00000000000E+00 0. -1.
         11    1    4    4    0    0 -0.11202899923E+01 -0.40879385050E+02 -0.12354487278E+03  0.13013729197E+03  0.00000000000E+00 0.  1.
        -13    1    3    3    0    0  0.17878963267E+02 -0.52193097432E+02 -0.46570552695E+02  0.72198290322E+02  0.00000000000E+00 0.  1.
         13    1    3    3    0    0 -0.33514515379E+02  0.19056048873E+02 -0.90946915561E+01  0.39611477557E+02  0.00000000000E+00 0. -1.
         21    1    1    2  502  501  0.37263800399E+02 -0.42107499332E+01 -0.26357041873E+02  0.45836828986E+02  0.00000000000E+00 0. -1.
<scales pt_clust_5="13000.00000" pt_clust_6="13000.00000" pt_clust_7="13000.00000" pt_clust_8="13000.00000" pt_clust_9="37.50095"></scales>
<clustering>
<clus scale="   37.501">  1  9  2 -1</clus>
<clus scale="   89.779">  7  8 -1 -1</clus>
<clus scale="   97.901">  1  7  2 -1</clus>
<clus scale="  117.252">  5  6 -1 -1</clus>
<clus scale="  123.581">  2  5  1 -1</clus>
</clustering>
</event>
<event>
 9    1  0.1748361E-005  0.9628030E+02  0.7546771E-02  0.1290066E+00
         -2   -1    0    0    0  501 -0.00000000000E+00  0.00000000000E+00  0.33193531969E+02  0.33193531969E+02  0.00000000000E+00 0.  1.
          2   -1    0    0  502    0  0.00000000000E+00 -0.00000000000E+00 -0.54953360723E+03  0.54953360723E+03  0.00000000000E+00 0. -1.
         23    2    1    2    0    0 -0.15580804802E+02 -0.24615942857E+02 -0.11968497441E+03  0.15217282073E+03  0.89349695854E+02 0.  0.
         23    2    1    2    0    0 -0.26952501186E+02  0.20893682970E+02 -0.36305525739E+03  0.37622304923E+03  0.92583365357E+02 0.  0.
        -11    1    4    4    0    0  0.32415856999E+02  0.71894168196E+01 -0.78776517650E+02  0.85488099945E+02  0.00000000000E+00 0. -1.
         11    1    4    4    0    0 -0.59368358184E+02  0.13704266151E+02 -0.28427873974E+03  0.29073494928E+03  0.00000000000E+00 0.  1.
        -11    1    3    3    0    0 -0.52333386543E+02 -0.80958704456E+01 -0.58473025251E+02  0.78888662984E+02  0.00000000000E+00 0.  1.
         11    1    3    3    0    0  0.36752581742E+02 -0.16520072412E+02 -0.61211949154E+02  0.73284157745E+02  0.00000000000E+00 0. -1.
         21    1    1    2  502  501  0.42533305987E+02  0.37222598870E+01 -0.33599843464E+02  0.54331269244E+02  0.00000000000E+00 0. -1.
<scales pt_clust_5="13000.00000" pt_clust_6="13000.00000" pt_clust_7="13000.00000" pt_clust_8="13000.00000" pt_clust_9="42.69587"></scales>
<clustering>
<clus scale="   42.696">  1  9  2 -1</clus>
<clus scale="   89.350">  7  8 -1 -1</clus>
<clus scale="   92.583">  5  6 -1 -1</clus>
<clus scale="   93.175">  1  7  2 -1</clus>
<clus scale="   96.280">  2  5  1 -1</clus>
</clustering>
</event>
<event>
 9    1  0.1748361E-005  0.1537432E+03  0.7546771E-02  0.1196223E+00
         -1   -1    0    0    0  501 -0.00000000000E+00  0.00000000000E+00  0.92812992602E+03  0.92812992602E+03  0.00000000000E+00 0.  1.
          1   -1    0    0  502    0  0.00000000000E+00 -0.00000000000E+00 -0.31686987790E+02  0.31686987790E+02  0.00000000000E+00 0. -1.
         23    2    1    2    0    0 -0.11692427936E+03  0.21807287169E+02  0.45905229278E+03  0.48277906090E+03  0.90552577340E+02 0.  0.
         23    2    1    2    0    0  0.13028637756E+03  0.45383504794E+01  0.38702641734E+03  0.41864955130E+03  0.92102455359E+02 0.  0.
        -11    1    4    4    0    0  0.10509649172E+03  0.40611187371E+02  0.23906366941E+03  0.26428389876E+03  0.00000000000E+00 0.  1.
         11    1    4    4    0    0  0.25189885841E+02 -0.36072836892E+02  0.14796274792E+03  0.15436565254E+03  0.00000000000E+00 0. -1.
        -13    1    3    3    0    0 -0.24444610914E+02 -0.29708850919E+02  0.18572186068E+03  0.18966487382E+03  0.00000000000E+00 0. -1.
         13    1    3    3    0    0 -0.92479668444E+02  0.51516138088E+02  0.27333043210E+03  0.29311418708E+03  0.00000000000E+00 0.  1.
         21    1    1    2  502  501 -0.13362098200E+02 -0.26345637648E+02  0.50364228116E+02  0.58388301612E+02  0.00000000000E+00 0.  1.
<scales pt_clust_5="13000.00000" pt_clust_6="13000.00000" pt_clust_7="13000.00000" pt_clust_8="13000.00000" pt_clust_9="29.54045"></scales>
<clustering>
<clus scale="   29.540">  2  9  1 -1</clus>
<clus scale="   90.553">  7  8 -1 -1</clus>
<clus scale="   92.102">  5  6 -1 -1</clus>
<clus scale="  152.820">  1  7  2 -1</clus>
<clus scale="   29.540">  2  5  1 -1</clus>
</clustering>
</event>
<event>
 9    1  0.1748361E-005  0.1334479E+03  0.7546771E-02  0.1222460E+00
          2   -1    0    0  502    0  0.00000000000E+00  0.00000000000E+00  0.31117909524E+03  0.31117909524E+03  0.00000000000E+00 0. -1.
         -2   -1    0    0    0  501 -0.00000000000E+00 -0.00000000000E+00 -0.86480635617E+02  0.86480635617E+02  0.00000000000E+00 0.  1.
         23    2    1    2    0    0 -0.61807699434E+02 -0.75561129143E+02  0.29282786646E+02  0.14182904046E+03  0.98632242071E+02 0.  0.
         23    2    1    2    0    0  0.39249112395E+02  0.78203707633E+02  0.19184599113E+03  0.23283904629E+03  0.98756389437E+02 0.  0.
        -11    1    4    4    0    0  0.37683503837E+02  0.11651217429E+02  0.12249944858E+02  0.41302039636E+02  0.00000000000E+00 0.  1.
         11    1    4    4    0    0  0.15656085573E+01  0.66552490203E+02  0.17959604627E+03  0.19153700666E+03  0.00000000000E+00 0. -1.
        -13    1    3    3    0    0 -0.30312791681E+02 -0.57980367402E+02 -0.30360487157E+02  0.72127300823E+02  0.00000000000E+00 0.  1.
         13    1    3    3    0    0 -0.31494907753E+02 -0.17580761741E+02  0.59643273804E+02  0.69701739632E+02  0.00000000000E+00 0. -1.
         21    1    1    2  502  501  0.22558587039E+02 -0.26425784891E+01  0.35696818450E+01  0.22991644107E+02  0.00000000000E+00 0.  1.
<scales pt_clust_5="13000.00000" pt_clust_6="13000.00000" pt_clust_7="13000.00000" pt_clust_8="13000.00000" pt_clust_9="22.71284"></scales>
<clustering>
<clus scale="   22.713">  2  9  1 -1</clus>
<clus scale="   98.632">  7  8 -1 -1</clus>
<clus scale="   98.756">  5  6 -1 -1</clus>
<clus scale="  133.356">  2  7  1 -1</clus>
<clus scale="  133.448">  1  5  2 -1</clus>
</clustering>
</event>
<event>
 9    1  0.1748361E-005  0.9938955E+02  0.7546771E-02  0.1289892E+00
          1   -1    0    0  502    0  0.00000000000E+00  0.00000000000E+00  0.52098320854E+03  0.52098320854E+03  0.00000000000E+00 0. -1.
         -1   -1    0    0    0  501 -0.00000000000E+00 -0.00000000000E+00 -0.39110024117E+02  0.39110024117E+02  0.00000000000E+00 0.  1.
         23    2    1    2    0    0 -0.64346858651E+01  0.36115277528E+02  0.28638782185E+02  0.86449586014E+02  0.72853501109E+02 0.  0.
         23    2    1    2    0    0  0.30474336379E+02 -0.34612956761E+02  0.42413330637E+03  0.43586752263E+03  0.89245132981E+02 0.  0.
        -11    1    4    4    0    0 -0.27244595879E+02 -0.76592708237E+01  0.61731413524E+02  0.67909497494E+02  0.00000000000E+00 0.  1.
         11    1    4    4    0    0  0.57718932257E+02 -0.26953685938E+02  0.36240189285E+03  0.36795802514E+03  0.00000000000E+00 0. -1.
        -13    1    3    3    0    0 -0.17519265919E+02  0.56057047510E+02  0.19725605692E+02  0.61954957620E+02  0.00000000000E+00 0.  1.
         13    1    3    3    0    0  0.11084580054E+02 -0.19941769981E+02  0.89131764928E+01  0.24494628394E+02  0.00000000000E+00 0. -1.
         21    1    1    2  502  501 -0.24039650514E+02 -0.15023207671E+01  0.29101095869E+02  0.37776124011E+02  0.00000000000E+00 0.  1.
<scales pt_clust_5="13000.00000" pt_clust_6="13000.00000" pt_clust_7="13000.00000" pt_clust_8="13000.00000" pt_clust_9="24.08655"></scales>
<clustering>
<clus scale="   24.087">  2  9  1 -1</clus>
<clus scale="   72.854">  7  8 -1 -1</clus>
<clus scale="   84.978">  2  7  1 -1</clus>
<clus scale="   89.245">  5  6 -1 -1</clus>
<clus scale="   99.390">  1  5  2 -1</clus>
</clustering>
</event>
<event>
 9    1  0.1748361E-005  0.1794961E+03  0.7546771E-02  0.1168355E+00
         -2   -1    0    0    0  501 -0.00000000000E+00  0.00000000000E+00  0.36162139457E+03  0.36162139457E+03  0.00000000000E+00 0. -1.
          2   -1    0    0  502    0  0.00000000000E+00 -0.00000000000E+00 -0.27409674073E+03  0.27409674073E+03  0.00000000000E+00 0.  1.
         23    2    1    2    0    0 -0.12165594303E+03  0.10998729452E+02  0.28122933115E+03  0.32067661887E+03  0.93927720422E+02 0.  0.
         23    2    1    2    0    0  0.15543506997E+03 -0.17855639191E+02 -0.20903819362E+03  0.27731667912E+03  0.93427454723E+02 0.  0.
        -11    1    4    4    0    0  0.10242980307E+03  0.32130533594E+02 -0.14430605145E+03  0.17985681035E+03  0.00000000000E+00 0.  1.
         11    1    4    4    0    0  0.53005266900E+02 -0.49986172785E+02 -0.64732142172E+02  0.97459868762E+02  0.00000000000E+00 0. -1.
        -13    1    3    3    0    0  0.32331180115E+01 -0.22442875321E+02  0.25502260970E+02  0.34124785996E+02  0.00000000000E+00 0.  1.
         13    1    3    3    0    0 -0.12488906104E+03  0.33441604772E+02  0.25572707018E+03  0.28655183287E+03  0.00000000000E+00 0. -1.
         21    1    1    2  502  501 -0.33779126942E+02  0.68569097392E+01  0.15333516304E+02  0.37724837314E+02  0.00000000000E+00 0.  1.
<scales pt_clust_5="13000.00000" pt_clust_6="13000.00000" pt_clust_7="13000.00000" pt_clust_8="13000.00000" pt_clust_9="34.46805"></scales>
<clustering>
<clus scale="   34.468">  1  9  2 -1</clus>
<clus scale="   93.427">  5  6 -1 -1</clus>
<clus scale="   93.928">  7  8 -1 -1</clus>
<clus scale="  179.235">  2  5  1 -1</clus>
<clus scale="  179.235">  2  5  1 -1</clus>
</clustering>
</event>
<event>
 9    1  0.1748361E-005  0.1149950E+03  0.7546771E-02  0.1251639E+00
          2   -1    0    0  502    0  0.00000000000E+00  0.00000000000E+00  0.20123295083E+03  0.20123295083E+03  0.00000000000E+00 0. -1.
         -2   -1    0    0    0  501 -0.00000000000E+00 -0.00000000000E+00 -0.12295396683E+03  0.12295396683E+03  0.00000000000E+00 0.  1.
         23    2    1    2    0    0 -0.47204480121E+02 -0.91444570630E+02  0.85910751955E+01  0.13793116721E+03  0.91437562701E+02 0.  0.
         23    2    1    2    0    0  0.33673256344E+02  0.45113528749E+02  0.83425149914E+02  0.13607237421E+03  0.91579564947E+02 0.  0.
        -11    1    3    3    0    0  0.12892936260E+02 -0.58956687557E+02 -0.20418337360E+02  0.63710496103E+02  0.00000000000E+00 0.  1.
         11    1    3    3    0    0 -0.60097416381E+02 -0.32487883073E+02  0.29009412555E+02  0.74220671104E+02  0.00000000000E+00 0. -1.
        -11    1    4    4    0    0 -0.18467970484E+02  0.41562589893E+02  0.67583961887E+02  0.81462302427E+02  0.00000000000E+00 0. -1.
         11    1    4    4    0    0  0.52141226828E+02  0.35509388554E+01  0.15841188027E+02  0.54610071782E+02  0.00000000000E+00 0.  1.
         21    1    1    2  502  501  0.13531223777E+02  0.46331041882E+02 -0.13737241110E+02  0.50183376252E+02  0.00000000000E+00 0.  1.
<scales pt_clust_5="13000.00000" pt_clust_6="13000.00000" pt_clust_7="13000.00000" pt_clust_8="13000.00000" pt_clust_9="48.26655"></scales>
<clustering>
<clus scale="   48.267">  2  9  1 -1</clus>
<clus scale="   91.438">  5  6 -1 -1</clus>
<clus scale="   91.580">  7  8 -1 -1</clus>
<clus scale="  114.882">  2  5  1 -1</clus>
<clus scale="  114.995">  1  5  2 -1</clus>
</clustering>
</event>
<event>
 9    1  0.1748361E-005  0.1958589E+03  0.7546771E-02  0.1153450E+00
          3   -1    0    0  502    0  0.00000000000E+00  0.00000000000E+00  0.93667384710E+03  0.93667384710E+03  0.00000000000E+00 0. -1.
         -3   -1    0    0    0  501 -0.00000000000E+00 -0.00000000000E+00 -0.93271288895E+02  0.93271288895E+02  0.00000000000E+00 0.  1.
         23    2    1    2    0    0  0.15621271637E+03  0.28584529739E+02  0.34826449286E+03  0.39377041093E+03  0.92452644339E+02 0.  0.
         23    2    1    2    0    0 -0.18582643228E+03  0.48030977090E+02  0.50974282477E+03  0.55274686968E+03  0.94089940168E+02 0.  0.
        -11    1    4    4    0    0 -0.36944969971E+02 -0.22303609807E+02  0.60787458649E+02  0.74548621353E+02  0.00000000000E+00 0. -1.
         11    1    4    4    0    0 -0.14888146231E+03  0.70334586897E+02  0.44895536612E+03  0.47819824832E+03  0.00000000000E+00 0.  1.
        -11    1    3    3    0    0  0.55782845856E+01  0.22731450361E+02  0.10505540079E+03  0.10763119125E+03  0.00000000000E+00 0.  1.
         11    1    3    3    0    0  0.15063443178E+03  0.58530793783E+01  0.24320909206E+03  0.28613921968E+03  0.00000000000E+00 0. -1.
         21    1    1    2  502  501  0.29613715914E+02 -0.76615506829E+02 -0.14604759416E+02  0.83427855387E+02  0.00000000000E+00 0. -1.
<scales pt_clust_5="13000.00000" pt_clust_6="13000.00000" pt_clust_7="13000.00000" pt_clust_8="13000.00000" pt_clust_9="82.13956"></scales>
<clustering>
<clus scale="   82.140">  2  9  1 -1</clus>
<clus scale="   92.453">  7  8 -1 -1</clus>
<clus scale="   94.090">  5  6 -1 -1</clus>
<clus scale="  195.078">  2  7  1 -1</clus>
<clus scale="  195.859">  1  5  2 -1</clus>
</clustering>
</event>
<event>
 9    1  0.1748361E-005  0.1034506E+03  0.7546771E-02  0.1273764E+00
          2   -1    0    0  502    0  0.00000000000E+00  0.00000000000E+00  0.38972770707E+03  0.38972770707E+03  0.00000000000E+00 0. -1.
         -2   -1    0    0    0  501 -0.00000000000E+00 -0.00000000000E+00 -0.75178548440E+02  0.75178548440E+02  0.00000000000E+00 0.  1.
         23    2    1    2    0    0  0.13974438197E+02 -0.50051479329E+02  0.93818583646E+02  0.14215624097E+03  0.93306134333E+02 0.  0.
         23    2    1    2    0    0  0.53223876191E+02  0.18663409712E+02  0.22285115063E+03  0.24855216273E+03  0.94522158270E+02 0.  0.
        -11    1    3    3    0    0 -0.24140763356E+02 -0.42350050641E+02  0.90918977097E+02  0.10316280163E+03  0.00000000000E+00 0.  1.
         11    1    3    3    0    0  0.38115201553E+02 -0.77014286881E+01  0.28996065484E+01  0.38993439337E+02  0.00000000000E+00 0. -1.
        -13    1    4    4    0    0  0.62591665031E+02  0.40739471556E+02  0.20633223726E+03  0.21943202412E+03  0.00000000000E+00 0. -1.
         13    1    4    4    0    0 -0.93677888398E+01 -0.22076061844E+02  0.16518913367E+02  0.29120138618E+02  0.00000000000E+00 0.  1.
         21    1    1    2  502  501 -0.67198314388E+02  0.31388069617E+02 -0.21205756479E+01  0.74197851801E+02  0.00000000000E+00 0.  1.
<scales pt_clust_5="13000.00000" pt_clust_6="13000.00000" pt_clust_7="13000.00000" pt_clust_8="13000.00000" pt_clust_9="74.16754"></scales>
<clustering>
<clus scale="   74.168">  2  9  1 -1</clus>
<clus scale="   93.306">  5  6 -1 -1</clus>
<clus scale="   94.522">  7  8 -1 -1</clus>
<clus scale="  102.341">  2  5  1 -1</clus>
<clus scale="  103.451">  1  5  2 -1</clus>
</clustering>
</event>
<event>
 9    1  0.1748361E-005  0.9685841E+02  0.7546771E-02  0.1287383E+00
          2   -1    0    0  502    0  0.00000000000E+00  0.00000000000E+00  0.33706664038E+03  0.33706664038E+03  0.00000000000E+00 0. -1.
         -2   -1    0    0    0  501 -0.00000000000E+00 -0.00000000000E+00 -0.37940462033E+02  0.37940462033E+02  0.00000000000E+00 0.  1.
         23    2    1    2    0    0 -0.34333632452E+02 -0.25750147523E+02  0.11258934496E+03  0.15084219484E+03  0.90747665151E+02 0.  0.
         23    2    1    2    0    0  0.25840642111E+02  0.55930662113E+01  0.17557449190E+03  0.19969836424E+03  0.91400291568E+02 0.  0.
        -13    1    4    4    0    0 -0.45058629753E+01  0.36854132755E+02  0.13552749448E+03  0.14052128544E+03  0.00000000000E+00 0. -1.
         13    1    4    4    0    0  0.30346505086E+02 -0.31261066543E+02  0.40046997420E+02  0.59177078795E+02  0.00000000000E+00 0.  1.
        -13    1    3    3    0    0 -0.25033931705E+02 -0.59643735839E+02  0.65208139897E+02  0.91848649801E+02  0.00000000000E+00 0.  1.
         13    1    3    3    0    0 -0.92997007466E+01  0.33893588316E+02  0.47381205061E+02  0.58993545036E+02  0.00000000000E+00 0. -1.
         21    1    1    2  502  501  0.84929903406E+01  0.20157081312E+02  0.10962341485E+02  0.24466543335E+02  0.00000000000E+00 0.  1.
<scales pt_clust_5="13000.00000" pt_clust_6="13000.00000" pt_clust_7="13000.00000" pt_clust_8="13000.00000" pt_clust_9="21.87324"></scales>
<clustering>
<clus scale="   21.873">  2  9  1 -1</clus>
<clus scale="   90.748">  7  8 -1 -1</clus>
<clus scale="   91.400">  5  6 -1 -1</clus>
<clus scale="   96.243">  2  7  1 -1</clus>
<clus scale="   96.858">  1  5  2 -1</clus>
</clustering>
</event>
<event>
 9    1  0.1748361E-005  0.1796698E+03  0.7546771E-02  0.1168453E+00
          1   -1    0    0  502    0  0.00000000000E+00  0.00000000000E+00  0.25862611649E+03  0.25862611649E+03  0.00000000000E+00 0. -1.
         -1   -1    0    0    0  501 -0.00000000000E+00 -0.00000000000E+00 -0.19457318997E+03  0.19457318997E+03  0.00000000000E+00 0.  1.
         23    2    1    2    0    0  0.15302465126E+03 -0.10536433009E+02 -0.82373795489E+02  0.19758197529E+03  0.93411104598E+02 0.  0.
         23    2    1    2    0    0 -0.15468542352E+03 -0.15915541817E+02  0.14067374193E+03  0.22849608642E+03  0.90777062739E+02 0.  0.
        -11    1    3    3    0    0  0.11282488824E+03 -0.32569179807E+02 -0.93849052586E+02  0.15032581797E+03  0.00000000000E+00 0.  1.
         11    1    3    3    0    0  0.40199763023E+02  0.22032746798E+02  0.11475257097E+02  0.47256157313E+02  0.00000000000E+00 0. -1.
        -13    1    4    4    0    0 -0.81551125844E+02  0.35084228709E+02  0.52704906995E+02  0.10324386883E+03  0.00000000000E+00 0. -1.
         13    1    4    4    0    0 -0.73134297680E+02 -0.50999770526E+02  0.87968834933E+02  0.12525221759E+03  0.00000000000E+00 0.  1.
         21    1    1    2  502  501  0.16607722659E+01  0.26451974826E+02  0.57529800811E+01  0.27121244745E+02  0.00000000000E+00 0. -1.
<scales pt_clust_5="13000.00000" pt_clust_6="13000.00000" pt_clust_7="13000.00000" pt_clust_8="13000.00000" pt_clust_9="26.50406"></scales>
<clustering>
<clus scale="   26.504">  1  9  2 -1</clus>
<clus scale="   90.777">  7  8 -1 -1</clus>
<clus scale="   93.411">  5  6 -1 -1</clus>
<clus scale="  178.315">  1  7  2 -1</clus>
<clus scale="   26.504">  1  5  2 -1</clus>
</clustering>
</event>
<event>
 9    1  0.1748361E-005  0.1572004E+03  0.7546771E-02  0.1192740E+00
          1   -1    0    0  502    0  0.00000000000E+00  0.00000000000E+00  0.49354341154E+03  0.49354341154E+03  0.00000000000E+00 0. -1.
         -1   -1    0    0    0  501 -0.00000000000E+00 -0.00000000000E+00 -0.21536439992E+03  0.21536439992E+03  0.00000000000E+00 0.  1.
         23    2    1    2    0    0 -0.59257472819E+01 -0.10111137516E+03  0.55643446502E+02  0.14724202745E+03  0.91243612604E+02 0.  0.
         23    2    1    2    0    0  0.12674574680E+02  0.13733806938E+03  0.37291865619E+03  0.40683363578E+03  0.86156212298E+02 0.  0.
        -11    1    3    3    0    0  0.22141532995E+02 -0.55682561190E+01 -0.13021019634E+02  0.26283072725E+02  0.00000000000E+00 0. -1.
         11    1    3    3    0    0 -0.28067280277E+02 -0.95543119038E+02  0.68664466136E+02  0.12095895472E+03  0.00000000000E+00 0.  1.
        -13    1    4    4    0    0  0.82578988252E+01  0.21273795531E+02  0.84981305499E+01  0.24351293439E+02  0.00000000000E+00 0.  1.
         13    1    4    4    0    0  0.44166758548E+01  0.11606427385E+03  0.36442052564E+03  0.38248234234E+03  0.00000000000E+00 0. -1.
         21    1    1    2  502  501 -0.67488273981E+01 -0.36226694225E+02 -0.15038309108E+03  0.15483214824E+03  0.00000000000E+00 0.  1.
<scales pt_clust_5="13000.00000" pt_clust_6="13000.00000" pt_clust_7="13000.00000" pt_clust_8="13000.00000" pt_clust_9="36.84997"></scales>
<clustering>
<clus scale="   36.850">  2  9  1 -1</clus>
<clus scale="   86.156">  7  8 -1 -1</clus>
<clus scale="   91.244">  5  6 -1 -1</clus>
<clus scale="  154.303">  1  7  2 -1</clus>
<clus scale="  154.303">  1  5  2 -1</clus>
</clustering>
</event>
<event>
 9    1  0.1748361E-005  0.9946107E+02  0.7546771E-02  0.1283373E+00
         -1   -1    0    0    0  501 -0.00000000000E+00  0.00000000000E+00  0.33900854056E+03  0.33900854056E+03  0.00000000000E+00 0.  1.
          1   -1    0    0  502    0  0.00000000000E+00 -0.00000000000E+00 -0.10999112311E+03  0.10999112311E+03  0.00000000000E+00 0. -1.
         23    2    1    2    0    0  0.33054021158E+02 -0.30248091433E+02  0.15903277227E+03  0.18937844381E+03  0.92548673533E+02 0.  0.
         23    2    1    2    0    0 -0.21919577365E+02 -0.14907789498E+02 -0.63458551896E+02  0.11830555807E+03  0.96262698915E+02 0.  0.
        -13    1    4    4    0    0 -0.49500423019E+02 -0.11926516965E+02 -0.72970355737E+02  0.88978685664E+02  0.00000000000E+00 0. -1.
         13    1    4    4    0    0  0.27580845655E+02 -0.29812725336E+01  0.95118038411E+01  0.29326872408E+02  0.00000000000E+00 0.  1.
        -13    1    3    3    0    0  0.20410906918E+02  0.28829838035E+02  0.94944291950E+02  0.10130243460E+03  0.00000000000E+00 0. -1.
         13    1    3    3    0    0  0.12643114240E+02 -0.59077929467E+02  0.64088480323E+02  0.88076009208E+02  0.00000000000E+00 0.  1.
         21    1    1    2  502  501 -0.11134443794E+02  0.45155880931E+02  0.13344319708E+03  0.14131566179E+03  0.00000000000E+00 0. -1.
<scales pt_clust_5="13000.00000" pt_clust_6="13000.00000" pt_clust_7="13000.00000" pt_clust_8="13000.00000" pt_clust_9="46.50838"></scales>
<clustering>
<clus scale="   46.508">  1  9  2 -1</clus>
<clus scale="   92.549">  7  8 -1 -1</clus>
<clus scale="   95.871">  1  7  2 -1</clus>
<clus scale="   96.263">  5  6 -1 -1</clus>
<clus scale="   99.461">  2  5  1 -1</clus>
</clustering>
</event>
<event>
 9    1  0.1748361E-005  0.1019937E+03  0.7546771E-02  0.1277974E+00
          1   -1    0    0  502    0  0.00000000000E+00  0.00000000000E+00  0.16409680512E+03  0.16409680512E+03  0.00000000000E+00 0. -1.
         -1   -1    0    0    0  501 -0.00000000000E+00 -0.00000000000E+00 -0.82610069577E+02  0.82610069577E+02  0.00000000000E+00 0.  1.
         23    2    1    2    0    0  0.28671240394E+02 -0.21637152236E+01  0.27045657652E+02  0.97192845960E+02  0.88815877064E+02 0.  0.
         23    2    1    2    0    0 -0.54286640182E+02  0.16175582689E+02  0.51418330857E+02  0.12016069612E+03  0.92660991609E+02 0.  0.
        -11    1    3    3    0    0 -0.30355006007E+02  0.26573621187E+00  0.22798702425E+02  0.37964165178E+02  0.00000000000E+00 0. -1.
         11    1    3    3    0    0  0.59026246401E+02 -0.24294514355E+01  0.42469552271E+01  0.59228680782E+02  0.00000000000E+00 0.  1.
        -13    1    4    4    0    0  0.22405232083E+02  0.15623220089E+02  0.29915484848E+02  0.40509451543E+02  0.00000000000E+00 0.  1.
         13    1    4    4    0    0 -0.76691872265E+02  0.55236260007E+00  0.21502846009E+02  0.79651244576E+02  0.00000000000E+00 0. -1.
         21    1    1    2  502  501  0.25615399788E+02 -0.14011867465E+02  0.30227470344E+01  0.29353332618E+02  0.00000000000E+00 0.  1.
<scales pt_clust_5="13000.00000" pt_clust_6="13000.00000" pt_clust_7="13000.00000" pt_clust_8="13000.00000" pt_clust_9="29.19728"></scales>
<clustering>
<clus scale="   29.197">  2  9  1 -1</clus>
<clus scale="   88.816">  5  6 -1 -1</clus>
<clus scale="   92.661">  7  8 -1 -1</clus>
<clus scale="   98.514">  2  5  1 -1</clus>
<clus scale="  101.994">  1  5  2 -1</clus>
</clustering>
</event>
<event>
 9    1  0.1748361E-005  0.1410654E+03  0.7546771E-02  0.1211961E+00
          1   -1    0    0  502    0  0.00000000000E+00  0.00000000000E+00  0.44281815065E+03  0.44281815065E+03  0.00000000000E+00 0. -1.
         -1   -1    0    0    0  501 -0.00000000000E+00 -0.00000000000E+00 -0.22942716497E+03  0.22942716497E+03  0.00000000000E+00 0.  1.
         23    2    1    2    0    0 -0.11371904869E+02 -0.83417629695E+02 -0.16837222468E+03  0.20913816464E+03  0.91113910580E+02 0.  0.
         23    2    1    2    0    0 -0.51718379501E+01  0.10917455715E+03  0.40201856976E+03  0.42640028073E+03  0.90842925615E+02 0.  0.
        -11    1    3    3    0    0  0.23407257741E+02  0.88742848898E+01 -0.41107035844E+02  0.48129419726E+02  0.00000000000E+00 0. -1.
         11    1    3    3    0    0 -0.34779162609E+02 -0.92291914585E+02 -0.12726518884E+03  0.16100874492E+03  0.00000000000E+00 0.  1.
        -11    1    4    4    0    0  0.38298238815E+02  0.58321700628E+02  0.26336737886E+03  0.27245284382E+03  0.00000000000E+00 0. -1.
         11    1    4    4    0    0 -0.43470076765E+02  0.50852856526E+02  0.13865119091E+03  0.15394743691E+03  0.00000000000E+00 0.  1.
         21    1    1    2  502  501  0.16543742819E+02 -0.25756927459E+02 -0.20255359400E+02  0.36706870242E+02  0.00000000000E+00 0.  1.
<scales pt_clust_5="13000.00000" pt_clust_6="13000.00000" pt_clust_7="13000.00000" pt_clust_8="13000.00000" pt_clust_9="30.61233"></scales>
<clustering>
<clus scale="   30.612">  2  9  1 -1</clus>
<clus scale="   90.843">  7  8 -1 -1</clus>
<clus scale="   91.114">  5  6 -1 -1</clus>
<clus scale="  140.891">  1  7  2 -1</clus>
<clus scale="  140.891">  1  5  2 -1</clus>
</clustering>
</event>
<event>
 9    1  0.1748361E-005  0.1958605E+03  0.7546771E-02  0.1153862E+00
         -1   -1    0    0    0  501 -0.00000000000E+00  0.00000000000E+00  0.84002183017E+02  0.84002183017E+02  0.00000000000E+00 0.  1.
          1   -1    0    0  502    0  0.00000000000E+00 -0.00000000000E+00 -0.59002651011E+03  0.59002651011E+03  0.00000000000E+00 0. -1.
         23    2    1    2    0    0  0.16654873647E+03 -0.87004055908E+02 -0.15269916230E+03  0.26043400400E+03  0.95920013073E+02 0.  0.
         23    2    1    2    0    0 -0.14501656017E+03  0.74465566345E+02 -0.33226964424E+03  0.38097286695E+03  0.90345368304E+02 0.  0.
        -11    1    4    4    0    0 -0.13139339925E+03  0.91066114330E+02 -0.31562506852E+03  0.35380283552E+03  0.00000000000E+00 0.  1.
         11    1    4    4    0    0 -0.13623160921E+02 -0.16600547985E+02 -0.16644575720E+02  0.27170031427E+02  0.00000000000E+00 0. -1.
        -13    1    3    3    0    0  0.60692680216E+02 -0.39413946362E+02 -0.49304242073E+01  0.72535299562E+02  0.00000000000E+00 0.  1.
         13    1    3    3    0    0  0.10585605625E+03 -0.47590109546E+02 -0.14776873809E+03  0.18789870443E+03  0.00000000000E+00 0. -1.
         21    1    1    2  502  501 -0.21532176296E+02  0.12538489563E+02 -0.21055520564E+02  0.32621822186E+02  0.00000000000E+00 0.  1.
<scales pt_clust_5="13000.00000" pt_clust_6="13000.00000" pt_clust_7="13000.00000" pt_clust_8="13000.00000" pt_clust_9="24.91683"></scales>
<clustering>
<clus scale="   24.917">  1  9  2 -1</clus>
<clus scale="   90.345">  5  6 -1 -1</clus>
<clus scale="   95.920">  7  8 -1 -1</clus>
<clus scale="  193.192">  2  5  1 -1</clus>
<clus scale="  193.192">  2  5  1 -1</clus>
</clustering>
</event>
<event>
 9    1  0.1748361E-005  0.2277276E+03  0.7546771E-02  0.1129246E+00
          1   -1    0    0  502    0  0.00000000000E+00  0.00000000000E+00  0.59869654255E+03  0.59869654255E+03  0.00000000000E+00 0. -1.
         -1   -1    0    0    0  501 -0.00000000000E+00 -0.00000000000E+00 -0.15619745180E+03  0.15619745180E+03  0.00000000000E+00 0.  1.
         23    2    1    2    0    0  0.23165867591E+03  0.19623755197E+02  0.15584919054E+03  0.29471213870E+03  0.92279145051E+02 0.  0.
         23    2    1    2    0    0 -0.19025746619E+03 -0.56922754556E+02  0.32769834224E+03  0.39097022286E+03  0.77675016741E+02 0.  0.
        -11    1    3    3    0    0  0.76486039619E+02  0.47279656782E+02  0.77435035322E+02  0.11866619105E+03  0.00000000000E+00 0.  1.
         11    1    3    3    0    0  0.15517263629E+03 -0.27655901585E+02  0.78414155218E+02  0.17604594765E+03  0.00000000000E+00 0. -1.
        -13    1    4    4    0    0 -0.13338248706E+03 -0.58199178350E+02  0.28442636223E+03  0.31949395573E+03  0.00000000000E+00 0.  1.
         13    1    4    4    0    0 -0.56874979128E+02  0.12764237940E+01  0.43271980011E+02  0.71476267128E+02  0.00000000000E+00 0. -1.
         21    1    1    2  502  501 -0.41401209720E+02  0.37298999359E+02 -0.41048442031E+02  0.69211632784E+02  0.00000000000E+00 0.  1.
<scales pt_clust_5="13000.00000" pt_clust_6="13000.00000" pt_clust_7="13000.00000" pt_clust_8="13000.00000" pt_clust_9="55.72500"></scales>
<clustering>
<clus scale="   55.725">  2  9  1 -1</clus>
<clus scale="   77.675">  7  8 -1 -1</clus>
<clus scale="   92.279">  5  6 -1 -1</clus>
<clus scale="  222.211">  1  7  2 -1</clus>
<clus scale="  222.211">  1  5  2 -1</clus>
</clustering>
</event>
<event>
 9    1  0.1748361E-005  0.1940653E+03  0.7546771E-02  0.1154936E+00
          1   -1    0    0  502    0  0.00000000000E+00  0.00000000000E+00  0.36485141943E+03  0.36485141943E+03  0.00000000000E+00 0. -1.
         -1   -1    0    0    0  501 -0.00000000000E+00 -0.00000000000E+00 -0.14452577949E+03  0.14452577949E+03  0.00000000000E+00 0.  1.
         23    2    1    2    0    0  0.95185903682E+02 -0.13101990827E+03  0.75572766225E+01  0.18515423785E+03  0.89433812071E+02 0.  0.
         23    2    1    2    0    0 -0.78466867430E+02  0.15840928687E+03  0.21426953187E+03  0.29209886202E+03  0.90331397926E+02 0.  0.
        -13    1    4    4    0    0 -0.28620261920E+02  0.91038177284E+02  0.50117104279E+02  0.10779050634E+03  0.00000000000E+00 0.  1.
         13    1    4    4    0    0 -0.49846605510E+02  0.67371109588E+02  0.16415242759E+03  0.18430835568E+03  0.00000000000E+00 0. -1.
        -13    1    3    3    0    0  0.52918821949E+02 -0.10860021471E+03 -0.29827945233E+02  0.12443518260E+03  0.00000000000E+00 0.  1.
         13    1    3    3    0    0  0.42267081733E+02 -0.22419693557E+02  0.37385221855E+02  0.60719055251E+02  0.00000000000E+00 0. -1.
         21    1    1    2  502  501 -0.16719036252E+02 -0.27389378604E+02 -0.15011685544E+01  0.32124099062E+02  0.00000000000E+00 0. -1.
<scales pt_clust_5="13000.00000" pt_clust_6="13000.00000" pt_clust_7="13000.00000" pt_clust_8="13000.00000" pt_clust_9="32.08900"></scales>
<clustering>
<clus scale="   32.089">  2  9  1 -1</clus>
<clus scale="   89.434">  7  8 -1 -1</clus>
<clus scale="   90.331">  5  6 -1 -1</clus>
<clus scale="  193.649">  2  7  1 -1</clus>
<clus scale="  194.065">  1  5  2 -1</clus>
</clustering>
</event>
<event>
 9    1  0.1748361E-005  0.1069675E+03  0.7546771E-02  0.1273922E+00
         -3   -1    0    0    0  501 -0.00000000000E+00  0.00000000000E+00  0.78105744089E+02  0.78105744089E+02  0.00000000000E+00 0.  1.
          3   -1    0    0  502    0  0.00000000000E+00 -0.00000000000E+00 -0.33619787425E+03  0.33619787425E+03  0.00000000000E+00 0. -1.
         23    2    1    2    0    0 -0.49235717112E+02 -0.70553876559E+01 -0.10889512485E+03  0.16029602878E+03  0.10659612701E+03 0.  0.
         23    2    1    2    0    0 -0.12646993843E+02  0.44219511421E+01 -0.16567750365E+03  0.18991381663E+03  0.91862519152E+02 0.  0.
        -13    1    3    3    0    0 -0.14096255893E+02  0.14259995979E+02  0.17978937236E+02  0.26931284776E+02  0.00000000000E+00 0.  1.
         13    1    3    3    0    0 -0.35139461220E+02 -0.21315383635E+02 -0.12687406208E+03  0.13336474401E+03  0.00000000000E+00 0. -1.
        -13    1    4    4    0    0 -0.14525448298E+02  0.46530562155E+02 -0.10785692725E+03  0.11836046053E+03  0.00000000000E+00 0.  1.
         13    1    4    4    0    0  0.18784544553E+01 -0.42108611013E+02 -0.57820576402E+02  0.71553356092E+02  0.00000000000E+00 0. -1.
         21    1    1    2  502  501  0.61882710955E+02  0.26334365138E+01  0.16480498336E+02  0.64093772930E+02  0.00000000000E+00 0. -1.
<scales pt_clust_5="13000.00000" pt_clust_6="13000.00000" pt_clust_7="13000.00000" pt_clust_8="13000.00000" pt_clust_9="61.93872"></scales>
<clustering>
<clus scale="   61.939">  1  9  2 -1</clus>
<clus scale="   91.863">  7  8 -1 -1</clus>
<clus scale="   92.293">  2  7  1 -1</clus>
<clus scale="  106.596">  5  6 -1 -1</clus>
<clus scale="   92.293">  2  5  1 -1</clus>
</clustering>
</event>
<event>
 9    1  0.1748361E-005  0.2357846E+03  0.7546771E-02  0.1122697E+00
          2   -1    0    0  502    0  0.00000000000E+00  0.00000000000E+00  0.84877977196E+03  0.84877977196E+03  0.00000000000E+00 0. -1.
         -2   -1    0    0    0  501 -0.00000000000E+00 -0.00000000000E+00 -0.12116558141E+03  0.12116558141E+03  0.00000000000E+00 0.  1.
         23    2    1    2    0    0 -0.90747077547E+02  0.19603295064E+03  0.23860091406E+03  0.33450538819E+03  0.91101639494E+02 0.  0.
         23    2    1    2    0    0  0.56392237740E+02 -0.21200149841E+03  0.52938008169E+03  0.58007997515E+03  0.90137599663E+02 0.  0.
        -11    1    3    3    0    0 -0.40769704882E+02  0.17511577598E+03  0.17420140651E+03  0.25034742632E+03  0.00000000000E+00 0.  1.
         11    1    3    3    0    0 -0.49977372665E+02  0.20917174661E+02  0.64399507545E+02  0.84157961872E+02  0.00000000000E+00 0. -1.
        -11    1    4    4    0    0  0.45611738939E+02 -0.18383892728E+03  0.51048819450E+03  0.54449552674E+03  0.00000000000E+00 0. -1.
         11    1    4    4    0    0  0.10780498801E+02 -0.28162571130E+02  0.18891887185E+02  0.35584448407E+02  0.00000000000E+00 0.  1.
         21    1    1    2  502  501  0.34354839807E+02  0.15968547768E+02 -0.40366805189E+02  0.55359990039E+02  0.00000000000E+00 0.  1.
<scales pt_clust_5="13000.00000" pt_clust_6="13000.00000" pt_clust_7="13000.00000" pt_clust_8="13000.00000" pt_clust_9="37.88469"></scales>
<clustering>
<clus scale="   37.885">  2  9  1 -1</clus>
<clus scale="   90.138">  7  8 -1 -1</clus>
<clus scale="   91.102">  5  6 -1 -1</clus>
<clus scale="  235.414">  1  7  2 -1</clus>
<clus scale="  235.414">  1  5  2 -1</clus>
</clustering>
</event>
<event>
 9    1  0.2030780E-005  0.9984779E+02  0.7546771E-02  0.1281388E+00
         -1   -1    0    0    0  501 -0.00000000000E+00  0.00000000000E+00  0.33239846477E+03  0.33239846477E+03  0.00000000000E+00 0.  1.
          1   -1    0    0  502    0  0.00000000000E+00 -0.00000000000E+00 -0.69298966215E+02  0.69298966215E+02  0.00000000000E+00 0. -1.
         23    2    1    2    0    0 -0.15600276807E+02 -0.94863676600E+01  0.25164258860E+03  0.26857215170E+03  0.92052422383E+02 0.  0.
         23    2    1    2    0    0  0.24810543973E+02  0.28428550036E+02 -0.11959827068E+02  0.10162958327E+03  0.93604429288E+02 0.  0.
        -11    1    3    3    0    0 -0.13656578965E+02  0.41028607196E+02  0.11158796771E+03  0.11967340262E+03  0.00000000000E+00 0. -1.
         11    1    3    3    0    0 -0.19436978416E+01 -0.50514974856E+02  0.14005462089E+03  0.14889874908E+03  0.00000000000E+00 0.  1.
        -13    1    4    4    0    0 -0.14991950693E+02 -0.18887217806E+02 -0.28784885307E+02  0.37550701780E+02  0.00000000000E+00 0.  1.
         13    1    4    4    0    0  0.39802494665E+02  0.47315767842E+02  0.16825058239E+02  0.64078881488E+02  0.00000000000E+00 0. -1.
         21    1    1    2  502  501 -0.92102671663E+01 -0.18942182376E+02  0.23416737027E+02  0.31495696015E+02  0.00000000000E+00 0.  1.
<scales pt_clust_5="13000.00000" pt_clust_6="13000.00000" pt_clust_7="13000.00000" pt_clust_8="13000.00000" pt_clust_9="21.06265"></scales>
<clustering>
<clus scale="   21.063">  1  9  2 -1</clus>
<clus scale="   92.052">  5  6 -1 -1</clus>
<clus scale="   93.604">  7  8 -1 -1</clus>
<clus scale="   98.394">  1  5  2 -1</clus>
<clus scale="   99.848">  2  5  1 -1</clus>
</clustering>
</event>
<event>
 9    1  0.1748361E-005  0.1953494E+03  0.7546771E-02  0.1154163E+00
          2   -1    0    0  502    0  0.00000000000E+00  0.00000000000E+00  0.44918636164E+03  0.44918636164E+03  0.00000000000E+00 0. -1.
         -2   -1    0    0    0  501 -0.00000000000E+00 -0.00000000000E+00 -0.59063720848E+03  0.59063720848E+03  0.00000000000E+00 0.  1.
         23    2    1    2    0    0 -0.12631606371E+03  0.51804095298E+02 -0.28989875297E+03  0.33460851179E+03  0.96343951293E+02 0.  0.
         23    2    1    2    0    0  0.15226858834E+03 -0.80819574160E+02  0.40288886164E+03  0.44781336564E+03  0.92194625941E+02 0.  0.
        -13    1    4    4    0    0  0.52514782358E+02 -0.78174312716E+02  0.22363644808E+03  0.24265672553E+03  0.00000000000E+00 0.  1.
         13    1    4    4    0    0  0.99753805977E+02 -0.26452614445E+01  0.17925241356E+03  0.20515664012E+03  0.00000000000E+00 0. -1.
        -13    1    3    3    0    0 -0.10704417928E+03  0.79369407311E+02 -0.23790524685E+03  0.27268455331E+03  0.00000000000E+00 0.  1.
         13    1    3    3    0    0 -0.19271884435E+02 -0.27565312013E+02 -0.51993506117E+02  0.61923958484E+02  0.00000000000E+00 0. -1.
         21    1    1    2  502  501 -0.25952524624E+02  0.29015478862E+02 -0.25444095552E+03  0.25740169268E+03  0.00000000000E+00 0.  1.
<scales pt_clust_5="13000.00000" pt_clust_6="13000.00000" pt_clust_7="13000.00000" pt_clust_8="13000.00000" pt_clust_9="38.92854"></scales>
<clustering>
<clus scale="   38.929">  2  9  1 -1</clus>
<clus scale="   92.195">  5  6 -1 -1</clus>
<clus scale="   96.344">  7  8 -1 -1</clus>
<clus scale="  193.337">  1  5  2 -1</clus>
<clus scale="  193.337">  1  5  2 -1</clus>
</clustering>
</event>
<event>
 9    1  0.1748361E-005  0.2652389E+03  0.7546771E-02  0.1104056E+00
         -1   -1    0    0    0  501 -0.00000000000E+00  0.00000000000E+00  0.32236271078E+03  0.32236271078E+03  0.00000000000E+00 0.  1.
          1   -1    0    0  502    0  0.00000000000E+00 -0.00000000000E+00 -0.35587880002E+03  0.35587880002E+03  0.00000000000E+00 0. -1.
         23    2    1    2    0    0 -0.46353287605E+02  0.25344653357E+03  0.39614779865E+02  0.27613438937E+03  0.91088405186E+02 0.  0.
         23    2    1    2    0    0  0.64027583524E+02 -0.23696015125E+03 -0.16350384581E+03  0.30855790198E+03  0.90690829460E+02 0.  0.
        -13    1    3    3    0    0 -0.23468893415E+02  0.24862065718E+03  0.38886143701E+02  0.25273534044E+03  0.00000000000E+00 0.  1.
         13    1    3    3    0    0 -0.22884394190E+02  0.48258763921E+01  0.72863616407E+00  0.23399048935E+02  0.00000000000E+00 0. -1.
        -13    1    4    4    0    0  0.82485408098E+02 -0.21511580939E+03 -0.13009892161E+03  0.26458341483E+03  0.00000000000E+00 0. -1.
         13    1    4    4    0    0 -0.18457824574E+02 -0.21844341853E+02 -0.33404924200E+02  0.43974487147E+02  0.00000000000E+00 0.  1.
         21    1    1    2  502  501 -0.17674295918E+02 -0.16486382323E+02  0.90372976715E+02  0.93549219445E+02  0.00000000000E+00 0. -1.
<scales pt_clust_5="13000.00000" pt_clust_6="13000.00000" pt_clust_7="13000.00000" pt_clust_8="13000.00000" pt_clust_9="24.16985"></scales>
<clustering>
<clus scale="   24.170">  1  9  2 -1</clus>
<clus scale="   90.691">  7  8 -1 -1</clus>
<clus scale="   91.088">  5  6 -1 -1</clus>
<clus scale="  265.103">  2  7  1 -1</clus>
<clus scale="  265.103">  2  5  1 -1</clus>
</clustering>
</event>
<event>
 9    1  0.1748361E-005  0.8946700E+02  0.7546771E-02  0.1305324E+00
          2   -1    0    0  502    0  0.00000000000E+00  0.00000000000E+00  0.14723667593E+03  0.14723667593E+03  0.00000000000E+00 0. -1.
         -2   -1    0    0    0  501 -0.00000000000E+00 -0.00000000000E+00 -0.14583608054E+03  0.14583608054E+03  0.00000000000E+00 0.  1.
         23    2    1    2    0    0 -0.26664058770E+02 -0.13302109080E+02 -0.79030835620E+02  0.12234665116E+03  0.88515037911E+02 0.  0.
         23    2    1    2    0    0  0.10868773570E+02 -0.11703268797E+01  0.10604062225E+03  0.13733788713E+03  0.86588577603E+02 0.  0.
        -11    1    4    4    0    0 -0.18418741023E+02  0.27087087067E+02  0.85892658636E+02  0.91926650728E+02  0.00000000000E+00 0.  1.
         11    1    4    4    0    0  0.29287514593E+02 -0.28257413947E+02  0.20147963611E+02  0.45411236403E+02  0.00000000000E+00 0. -1.
        -11    1    3    3    0    0  0.19344091618E+02  0.12118806817E+02  0.48695517111E+01  0.23340349035E+02  0.00000000000E+00 0. -1.
         11    1    3    3    0    0 -0.46008150387E+02 -0.25420915897E+02 -0.83900387332E+02  0.99006302130E+02  0.00000000000E+00 0.  1.
         21    1    1    2  502  501  0.15795285200E+02  0.14472435959E+02 -0.25609191230E+02  0.33388218171E+02  0.00000000000E+00 0. -1.
<scales pt_clust_5="13000.00000" pt_clust_6="13000.00000" pt_clust_7="13000.00000" pt_clust_8="13000.00000" pt_clust_9="21.42294"></scales>
<clustering>
<clus scale="   21.423">  2  9  1 -1</clus>
<clus scale="   86.589">  5  6 -1 -1</clus>
<clus scale="   87.561">  1  5  2 -1</clus>
<clus scale="   88.515">  7  8 -1 -1</clus>
<clus scale="   87.561">  1  5  2 -1</clus>
</clustering>
</event>
<event>
 9    1  0.1748361E-005  0.9752038E+02  0.7546771E-02  0.1286295E+00
         -1   -1    0    0    0  501 -0.00000000000E+00  0.00000000000E+00  0.56495509132E+02  0.56495509132E+02  0.00000000000E+00 0.  1.
          1   -1    0    0  502    0  0.00000000000E+00 -0.00000000000E+00 -0.48628467085E+03  0.48628467085E+03  0.00000000000E+00 0. -1.
         23    2    1    2    0    0  0.46417091810E+02 -0.15880509953E+02 -0.19485934401E+03  0.22036432592E+03  0.90462893952E+02 0.  0.
         23    2    1    2    0    0 -0.21740683913E+02  0.20399019738E+02 -0.26622039408E+03  0.28231046531E+03  0.89090534047E+02 0.  0.
        -13    1    3    3    0    0  0.22299936359E+01 -0.41687450151E+02 -0.13653244833E+03  0.14277228660E+03  0.00000000000E+00 0. -1.
         13    1    3    3    0    0  0.44187098174E+02  0.25806940198E+02 -0.58326895675E+02  0.77592039324E+02  0.00000000000E+00 0.  1.
        -13    1    4    4    0    0  0.20558451436E+02  0.41759000010E+02 -0.13440967430E+03  0.14224072748E+03  0.00000000000E+00 0.  1.
         13    1    4    4    0    0 -0.42299135349E+02 -0.21359980272E+02 -0.13181071977E+03  0.14006973783E+03  0.00000000000E+00 0. -1.
         21    1    1    2  502  501 -0.24676407897E+02 -0.45185097855E+01  0.31290576370E+02  0.40105388752E+02  0.00000000000E+00 0. -1.
<scales pt_clust_5="13000.00000" pt_clust_6="13000.00000" pt_clust_7="13000.00000" pt_clust_8="13000.00000" pt_clust_9="25.08669"></scales>
<clustering>
<clus scale="   25.087">  1  9  2 -1</clus>
<clus scale="   89.091">  7  8 -1 -1</clus>
<clus scale="   90.463">  5  6 -1 -1</clus>
<clus scale="   96.249">  2  7  1 -1</clus>
<clus scale="   96.249">  2  5  1 -1</clus>
</clustering>
</event>
<event>
 9    1  0.1748361E-005  0.1254566E+03  0.7546771E-02  0.1234595E+00
         -1   -1    0    0    0  501 -0.00000000000E+00  0.00000000000E+00  0.41595144537E+02  0.41595144537E+02  0.00000000000E+00 0.  1.
          1   -1    0    0  502    0  0.00000000000E+00 -0.00000000000E+00 -0.56315509492E+03  0.56315509492E+03  0.00000000000E+00 0. -1.
         23    2    1    2    0    0 -0.17925618071E+02  0.75760439423E+02 -0.16815555920E+03  0.20625791381E+03  0.90581802562E+02 0.  0.
         23    2    1    2    0    0 -0.14796144872E+01 -0.91783192681E+02 -0.34986295464E+03  0.37307907231E+03  0.91419710370E+02 0.  0.
        -11    1    3    3    0    0 -0.46014504972E+02  0.76872328863E+02 -0.14175410405E+03  0.16769292063E+03  0.00000000000E+00 0.  1.
         11    1    3    3    0    0  0.28088886901E+02 -0.11118894392E+01 -0.26401455147E+02  0.38564993185E+02  0.00000000000E+00 0. -1.
        -11    1    4    4    0    0 -0.41992054001E+02 -0.46762181377E+02 -0.23459890122E+03  0.24287173294E+03  0.00000000000E+00 0. -1.
         11    1    4    4    0    0  0.40512439513E+02 -0.45021011304E+02 -0.11526405342E+03  0.13020733937E+03  0.00000000000E+00 0.  1.
         21    1    1    2  502  501  0.19405232558E+02  0.16022753258E+02 -0.35414365436E+01  0.25413253341E+02  0.00000000000E+00 0.  1.
<scales pt_clust_5="13000.00000" pt_clust_6="13000.00000" pt_clust_7="13000.00000" pt_clust_8="13000.00000" pt_clust_9="25.16529"></scales>
<clustering>
<clus scale="   25.165">  1  9  2 -1</clus>
<clus scale="   90.582">  5  6 -1 -1</clus>
<clus scale="   91.420">  7  8 -1 -1</clus>
<clus scale="  124.847">  1  5  2 -1</clus>
<clus scale="  125.457">  2  5  1 -1</clus>
</clustering>
</event>
<event>
 9    1  0.1748361E-005  0.1086846E+03  0.7546771E-02  0.1265061E+00
         -1   -1    0    0    0  501 -0.00000000000E+00  0.00000000000E+00  0.10009576584E+03  0.10009576584E+03  0.00000000000E+00 0.  1.
          1   -1    0    0  502    0  0.00000000000E+00 -0.00000000000E+00 -0.54327765454E+03  0.54327765454E+03  0.00000000000E+00 0. -1.
         23    2    1    2    0    0 -0.44049588062E+00  0.36576759641E+02  0.58421916765E+02  0.11571671288E+03  0.92947210280E+02 0.  0.
         23    2    1    2    0    0 -0.87805022029E+01 -0.56947762221E+02 -0.49235602213E+03  0.50345906199E+03  0.87956976605E+02 0.  0.
        -11    1    3    3    0    0 -0.26051352941E+02  0.31220979848E+02  0.74594288230E+02  0.84957226939E+02  0.00000000000E+00 0.  1.
         11    1    3    3    0    0  0.25610857060E+02  0.53557797935E+01 -0.16172371465E+02  0.30759485941E+02  0.00000000000E+00 0. -1.
        -13    1    4    4    0    0  0.19872039418E+02  0.15421943953E+02 -0.81437712803E+02  0.85234003617E+02  0.00000000000E+00 0.  1.
         13    1    4    4    0    0 -0.28652541621E+02 -0.72369706174E+02 -0.41091830933E+03  0.41822505837E+03  0.00000000000E+00 0. -1.
         21    1    1    2  502  501  0.92209980835E+01  0.20371002580E+02 -0.92477833300E+01  0.24197645511E+02  0.00000000000E+00 0.  1.
<scales pt_clust_5="13000.00000" pt_clust_6="13000.00000" pt_clust_7="13000.00000" pt_clust_8="13000.00000" pt_clust_9="22.36078"></scales>
<clustering>
<clus scale="   22.361">  1  9  2 -1</clus>
<clus scale="   87.957">  7  8 -1 -1</clus>
<clus scale="   92.947">  5  6 -1 -1</clus>
<clus scale="  104.449">  2  7  1 -1</clus>
<clus scale="  104.449">  2  5  1 -1</clus>
</clustering>
</event>
<event>
 9    1  0.1748361E-005  0.1335007E+03  0.7546771E-02  0.1222502E+00
          1   -1    0    0  502    0  0.00000000000E+00  0.00000000000E+00  0.10760603035E+03  0.10760603035E+03  0.00000000000E+00 0. -1.
         -1   -1    0    0    0  501 -0.00000000000E+00 -0.00000000000E+00 -0.26185614284E+03  0.26185614284E+03  0.00000000000E+00 0.  1.
         23    2    1    2    0    0 -0.55769802570E+02 -0.70283041689E+02 -0.91453504898E+02  0.15758637451E+03  0.91759168721E+02 0.  0.
         23    2    1    2    0    0  0.81068925713E+02  0.60185827073E+02  0.69307855283E+01  0.13701653924E+03  0.92363367952E+02 0.  0.
        -11    1    3    3    0    0 -0.33184689602E+02 -0.91414859335E+02 -0.66036171682E+02  0.11755286514E+03  0.00000000000E+00 0. -1.
         11    1    3    3    0    0 -0.22585112968E+02  0.21131817646E+02 -0.25417333216E+02  0.40033509372E+02  0.00000000000E+00 0.  1.
        -13    1    4    4    0    0  0.95517160269E+02  0.29708248471E+02  0.17753704137E+02  0.10159380859E+03  0.00000000000E+00 0. -1.
         13    1    4    4    0    0 -0.14448234556E+02  0.30477578602E+02 -0.10822918609E+02  0.35422730646E+02  0.00000000000E+00 0.  1.
         21    1    1    2  502  501 -0.25299123143E+02  0.10097214616E+02 -0.69727393113E+02  0.74859259448E+02  0.00000000000E+00 0.  1.
<scales pt_clust_5="13000.00000" pt_clust_6="13000.00000" pt_clust_7="13000.00000" pt_clust_8="13000.00000" pt_clust_9="27.23967"></scales>
<clustering>
<clus scale="   27.240">  2  9  1 -1</clus>
<clus scale="   91.759">  5  6 -1 -1</clus>
<clus scale="   92.363">  7  8 -1 -1</clus>
<clus scale="  133.083">  2  5  1 -1</clus>
<clus scale="  133.501">  1  5  2 -1</clus>
</clustering>
</event>
<event>
 9    1  0.1748361E-005  0.1570286E+03  0.7546771E-02  0.1195578E+00
          1   -1    0    0  502    0  0.00000000000E+00  0.00000000000E+00  0.39413193335E+03  0.39413193335E+03  0.00000000000E+00 0. -1.
         -1   -1    0    0    0  501 -0.00000000000E+00 -0.00000000000E+00 -0.16867024032E+03  0.16867024032E+03  0.00000000000E+00 0.  1.
         23    2    1    2    0    0 -0.45843807977E+02 -0.13762982630E+03  0.27564465687E+02  0.17122617634E+03  0.86688983608E+02 0.  0.
         23    2    1    2    0    0 -0.12028018447E+02  0.11077307657E+03  0.26053311945E+03  0.30216856877E+03  0.10494279350E+03 0.  0.
        -11    1    3    3    0    0 -0.58977636207E+02 -0.55726723878E+02  0.34109951348E+02  0.88018850866E+02  0.00000000000E+00 0.  1.
         11    1    3    3    0    0  0.13133828230E+02 -0.81903102425E+02 -0.65454856604E+01  0.83207325479E+02  0.00000000000E+00 0. -1.
        -13    1    4    4    0    0 -0.49691407410E+02  0.48654427362E+02  0.71898950194E+02  0.10002973713E+03  0.00000000000E+00 0.  1.
         13    1    4    4    0    0  0.37663388963E+02  0.62118649203E+02  0.18863416925E+03  0.20213883164E+03  0.00000000000E+00 0. -1.
         21    1    1    2  502  501  0.57871826424E+02  0.26856749738E+02 -0.62635892103E+02  0.89407428548E+02  0.00000000000E+00 0. -1.
<scales pt_clust_5="13000.00000" pt_clust_6="13000.00000" pt_clust_7="13000.00000" pt_clust_8="13000.00000" pt_clust_9="63.79995"></scales>
<clustering>
<clus scale="   63.800">  2  9  1 -1</clus>
<clus scale="   86.689">  5  6 -1 -1</clus>
<clus scale="  104.943">  7  8 -1 -1</clus>
<clus scale="  145.465">  2  5  1 -1</clus>
<clus scale="  157.029">  1  5  2 -1</clus>
</clustering>
</event>
<event>
 9    1  0.1748361E-005  0.1112235E+03  0.7546771E-02  0.1259412E+00
         -2   -1    0    0    0  501 -0.00000000000E+00  0.00000000000E+00  0.16356160921E+03  0.16356160921E+03  0.00000000000E+00 0.  1.
          2   -1    0    0  502    0  0.00000000000E+00 -0.00000000000E+00 -0.19545862107E+03  0.19545862107E+03  0.00000000000E+00 0. -1.
         23    2    1    2    0    0 -0.64646047040E+02  0.80108004378E+01  0.11156999377E+03  0.15776476574E+03  0.90545974381E+02 0.  0.
         23    2    1    2    0    0  0.29232321467E+02 -0.11389307693E+02 -0.13025025342E+03  0.16330511792E+03  0.93376592750E+02 0.  0.
        -11    1    3    3    0    0 -0.70416741034E+02 -0.12637260000E+02  0.11560292468E+03  0.13594945367E+03  0.00000000000E+00 0.  1.
         11    1    3    3    0    0  0.57706939941E+01  0.20648060437E+02 -0.40329309080E+01  0.21815312070E+02  0.00000000000E+00 0. -1.
        -11    1    4    4    0    0  0.87569397462E+01  0.37690810698E+02 -0.85325545997E+02  0.93689540529E+02  0.00000000000E+00 0.  1.
         11    1    4    4    0    0  0.20475381721E+02 -0.49080118391E+02 -0.44924707422E+02  0.69615577386E+02  0.00000000000E+00 0. -1.
         21    1    1    2  502  501  0.35413725573E+02  0.33785072555E+01 -0.13216752206E+02  0.37950346627E+02  0.00000000000E+00 0. -1.
<scales pt_clust_5="13000.00000" pt_clust_6="13000.00000" pt_clust_7="13000.00000" pt_clust_8="13000.00000" pt_clust_9="35.57452"></scales>
<clustering>
<clus scale="   35.575">  2  9  1 -1</clus>
<clus scale="   90.546">  5  6 -1 -1</clus>
<clus scale="   93.377">  7  8 -1 -1</clus>
<clus scale="  108.858">  1  5  2 -1</clus>
<clus scale="   35.575">  2  5  1 -1</clus>
</clustering>
</event>
<event>
 9    1  0.1748361E-005  0.9904984E+02  0.7546771E-02  0.1282318E+00
         -1   -1    0    0    0  501 -0.00000000000E+00  0.00000000000E+00  0.60949564370E+03  0.60949564370E+03  0.00000000000E+00 0.  1.
          1   -1    0    0  502    0  0.00000000000E+00 -0.00000000000E+00 -0.10536551573E+03  0.10536551573E+03  0.00000000000E+00 0. -1.
         23    2    1    2    0    0 -0.64926900452E+02  0.24466294417E+01  0.30475612722E+03  0.32465339648E+03  0.91115544082E+02 0.  0.
         23    2    1    2    0    0 -0.74529856927E+01 -0.42102734061E+02 -0.60587060001E+02  0.11746024663E+03  0.91092977154E+02 0.  0.
        -11    1    3    3    0    0 -0.47256019314E+02 -0.42244811276E+02  0.18780003339E+03  0.19820849624E+03  0.00000000000E+00 0.  1.
         11    1    3    3    0    0 -0.17670881139E+02  0.44691440718E+02  0.11695609383E+03  0.12644490024E+03  0.00000000000E+00 0. -1.
        -13    1    4    4    0    0 -0.29563168306E+02 -0.30673227906E+00 -0.63542903766E+02  0.70084061126E+02  0.00000000000E+00 0.  1.
         13    1    4    4    0    0  0.22110182613E+02 -0.41796001781E+02  0.29558437646E+01  0.47376185499E+02  0.00000000000E+00 0. -1.
         21    1    1    2  502  501  0.72379886145E+02  0.39656104619E+02  0.25996106075E+03  0.27274751632E+03  0.00000000000E+00 0. -1.
<scales pt_clust_5="13000.00000" pt_clust_6="13000.00000" pt_clust_7="13000.00000" pt_clust_8="13000.00000" pt_clust_9="82.53154"></scales>
<clustering>
<clus scale="   82.532">  1  9  2 -1</clus>
<clus scale="   91.093">  7  8 -1 -1</clus>
<clus scale="   91.116">  5  6 -1 -1</clus>
<clus scale="   99.029">  2  7  1 -1</clus>
<clus scale="   99.029">  2  5  1 -1</clus>
</clustering>
</event>
<event>
 9    1  0.1748361E-005  0.9638855E+02  0.7546771E-02  0.1288086E+00
          1   -1    0    0  502    0  0.00000000000E+00  0.00000000000E+00  0.37260947550E+03  0.37260947550E+03  0.00000000000E+00 0. -1.
         -1   -1    0    0    0  501 -0.00000000000E+00 -0.00000000000E+00 -0.67080698952E+02  0.67080698952E+02  0.00000000000E+00 0.  1.
         23    2    1    2    0    0  0.20650038261E+02 -0.98254786238E+01  0.40214031125E+01  0.94174137307E+02  0.91266819514E+02 0.  0.
         23    2    1    2    0    0 -0.32175985869E+02 -0.75755054845E+01  0.30857018166E+03  0.32348140585E+03  0.91279683217E+02 0.  0.
        -11    1    4    4    0    0 -0.49106448733E+02  0.27691148936E+02  0.20990288672E+03  0.21734181579E+03  0.00000000000E+00 0.  1.
         11    1    4    4    0    0  0.16930462864E+02 -0.35266654421E+02  0.98667294941E+02  0.10613959006E+03  0.00000000000E+00 0. -1.
        -13    1    3    3    0    0 -0.12608111665E+02  0.25672345880E+02 -0.24608352152E+02  0.37730688019E+02  0.00000000000E+00 0.  1.
         13    1    3    3    0    0  0.33258149925E+02 -0.35497824504E+02  0.28629755265E+02  0.56443449288E+02  0.00000000000E+00 0. -1.
         21    1    1    2  502  501  0.11525947608E+02  0.17400984108E+02 -0.70628082297E+01  0.22034631295E+02  0.00000000000E+00 0.  1.
<scales pt_clust_5="13000.00000" pt_clust_6="13000.00000" pt_clust_7="13000.00000" pt_clust_8="13000.00000" pt_clust_9="20.87203"></scales>
<clustering>
<clus scale="   20.872">  2  9  1 -1</clus>
<clus scale="   91.267">  7  8 -1 -1</clus>
<clus scale="   91.280">  5  6 -1 -1</clus>
<clus scale="   96.376">  2  7  1 -1</clus>
<clus scale="   96.389">  1  5  2 -1</clus>
</clustering>
</event>
<event>
 9    1  0.1748361E-005  0.2001346E+03  0.7546771E-02  0.1150408E+00
          2   -1    0    0  502    0  0.00000000000E+00  0.00000000000E+00  0.14052680743E+03  0.14052680743E+03  0.00000000000E+00 0. -1.
         -2   -1    0    0    0  501 -0.00000000000E+00 -0.00000000000E+00 -0.32812487446E+03  0.32812487446E+03  0.00000000000E+00 0.  1.
         23    2    1    2    0    0  0.68177541103E+02 -0.14512325830E+03 -0.12724027142E+03  0.22428090845E+03  0.91667344305E+02 0.  0.
         23    2    1    2    0    0 -0.76497110838E+02  0.16654327322E+03 -0.37180539074E+02  0.21173310348E+03  0.99297758278E+02 0.  0.
        -11    1    4    4    0    0 -0.80621573624E+02  0.11900062625E+03 -0.63606203502E+02  0.15718376603E+03  0.00000000000E+00 0.  1.
         11    1    4    4    0    0  0.41244627856E+01  0.47542646977E+02  0.26425664428E+02  0.54549337442E+02  0.00000000000E+00 0. -1.
        -11    1    3    3    0    0  0.68135283480E+02 -0.39029205226E+02 -0.57346781647E+02  0.97233477161E+02  0.00000000000E+00 0.  1.
         11    1    3    3    0    0  0.42257622271E-01 -0.10609405308E+03 -0.69893489768E+02  0.12704743128E+03  0.00000000000E+00 0. -1.
         21    1    1    2  502  501  0.83195697358E+01 -0.21420014921E+02 -0.23177256549E+02  0.32637669968E+02  0.00000000000E+00 0. -1.
<scales pt_clust_5="13000.00000" pt_clust_6="13000.00000" pt_clust_7="13000.00000" pt_clust_8="13000.00000" pt_clust_9="22.97895"></scales>
<clustering>
<clus scale="   22.979">  2  9  1 -1</clus>
<clus scale="   91.667">  7  8 -1 -1</clus>
<clus scale="   99.298">  5  6 -1 -1</clus>
<clus scale="  196.460">  2  7  1 -1</clus>
<clus scale="  200.135">  1  5  2 -1</clus>
</clustering>
</event>
<event>
 9    1  0.1748361E-005  0.1356789E+03  0.7546771E-02  0.1222196E+00
         -2   -1    0    0    0  501 -0.00000000000E+00  0.00000000000E+00  0.18156582557E+03  0.18156582557E+03  0.00000000000E+00 0. -1.
          2   -1    0    0  502    0  0.00000000000E+00 -0.00000000000E+00 -0.84279040366E+03  0.84279040366E+03  0.00000000000E+00 0.  1.
         23    2    1    2    0    0  0.41380042230E+02 -0.32537590783E+02 -0.28424944865E+03  0.30937895259E+03  0.11021154449E+03 0.  0.
         23    2    1    2    0    0 -0.11349896017E+03 -0.39051503990E+02 -0.51805287736E+03  0.54111219166E+03  0.10008289714E+03 0.  0.
        -13    1    3    3    0    0 -0.26862685792E+02 -0.39192818358E+02 -0.16622846922E+03  0.17288604593E+03  0.00000000000E+00 0.  1.
         13    1    3    3    0    0  0.68242728022E+02  0.66552275750E+01 -0.11802097943E+03  0.13649290665E+03  0.00000000000E+00 0. -1.
        -13    1    4    4    0    0 -0.10483735209E+03  0.10673420269E+02 -0.33105420099E+03  0.34742146779E+03  0.00000000000E+00 0.  1.
         13    1    4    4    0    0 -0.86616080855E+01 -0.49724924259E+02 -0.18699867637E+03  0.19369072387E+03  0.00000000000E+00 0. -1.
         21    1    1    2  502  501  0.72118917944E+02  0.71589094773E+02  0.14107774792E+03  0.17386508498E+03  0.00000000000E+00 0. -1.
<scales pt_clust_5="13000.00000" pt_clust_6="13000.00000" pt_clust_7="13000.00000" pt_clust_8="13000.00000" pt_clust_9="101.61760"></scales>
<clustering>
<clus scale="  100.083">  7  8 -1 -1</clus>
<clus scale="  101.618">  1  9  2 -1</clus>
<clus scale="  110.212">  5  6 -1 -1</clus>
<clus scale="  127.588">  2  7  1 -1</clus>
<clus scale="  127.588">  2  5  1 -1</clus>
</clustering>
</event>
<event>
 9    1  0.1748361E-005  0.9300811E+02  0.7546771E-02  0.1295836E+00
          4   -1    0    0  502    0  0.00000000000E+00  0.00000000000E+00  0.49708559509E+03  0.49708559509E+03  0.00000000000E+00 0. -1.
         -4   -1    0    0    0  501 -0.00000000000E+00 -0.00000000000E+00 -0.55258492529E+02  0.55258492529E+02  0.00000000000E+00 0.  1.
         23    2    1    2    0    0  0.29775283816E+02  0.16399516763E+02  0.12899243152E+03  0.16131287601E+03  0.90704381920E+02 0.  0.
         23    2    1    2    0    0  0.35674389131E+02  0.33017782368E+02  0.28715296178E+03  0.30509356368E+03  0.90897872059E+02 0.  0.
        -13    1    3    3    0    0  0.17392666163E+02  0.48693975972E+02  0.38589213103E+02  0.64519264565E+02  0.00000000000E+00 0.  1.
         13    1    3    3    0    0  0.12382617653E+02 -0.32294459209E+02  0.90403218418E+02  0.96793611441E+02  0.00000000000E+00 0. -1.
        -13    1    4    4    0    0 -0.26853656802E+02  0.21839287288E+02  0.15005970565E+03  0.15399996303E+03  0.00000000000E+00 0.  1.
         13    1    4    4    0    0  0.62528045932E+02  0.11178495080E+02  0.13709325613E+03  0.15109360065E+03  0.00000000000E+00 0. -1.
         21    1    1    2  502  501 -0.65449672947E+02 -0.49417299131E+02  0.25681709260E+02  0.85937647936E+02  0.00000000000E+00 0.  1.
<scales pt_clust_5="13000.00000" pt_clust_6="13000.00000" pt_clust_7="13000.00000" pt_clust_8="13000.00000" pt_clust_9="82.01054"></scales>
<clustering>
<clus scale="   82.011">  2  9  1 -1</clus>
<clus scale="   90.704">  5  6 -1 -1</clus>
<clus scale="   90.898">  7  8 -1 -1</clus>
<clus scale="   92.819">  2  5  1 -1</clus>
<clus scale="   93.008">  1  5  2 -1</clus>
</clustering>
</event>
<event>
 9    1  0.1748361E-005  0.9693667E+02  0.7546771E-02  0.1288070E+00
         -1   -1    0    0    0  501 -0.00000000000E+00  0.00000000000E+00  0.61063356195E+02  0.61063356195E+02  0.00000000000E+00 0.  1.
          1   -1    0    0  502    0  0.00000000000E+00 -0.00000000000E+00 -0.28648629260E+03  0.28648629260E+03  0.00000000000E+00 0. -1.
         23    2    1    2    0    0  0.48660390963E+00 -0.44720499069E+02 -0.13339661540E+03  0.16725276252E+03  0.90435998085E+02 0.  0.
         23    2    1    2    0    0 -0.13388945213E+02  0.24037056424E+02 -0.11454239322E+03  0.14711181856E+03  0.88118575683E+02 0.  0.
        -11    1    4    4    0    0 -0.49594310079E+02  0.14991839894E+02 -0.84870381083E+02  0.99435066455E+02  0.00000000000E+00 0.  1.
         11    1    4    4    0    0  0.36205364867E+02  0.90452165298E+01 -0.29672012138E+02  0.47676752107E+02  0.00000000000E+00 0. -1.
        -13    1    3    3    0    0 -0.25083352918E+02 -0.51481830037E+02 -0.12804516418E+03  0.14026802019E+03  0.00000000000E+00 0. -1.
         13    1    3    3    0    0  0.25569956828E+02  0.67613309685E+01 -0.53514512232E+01  0.26984742334E+02  0.00000000000E+00 0.  1.
         21    1    1    2  502  501  0.12902341303E+02  0.20683442645E+02  0.22516072219E+02  0.33185067710E+02  0.00000000000E+00 0.  1.
<scales pt_clust_5="13000.00000" pt_clust_6="13000.00000" pt_clust_7="13000.00000" pt_clust_8="13000.00000" pt_clust_9="24.37776"></scales>
<clustering>
<clus scale="   24.378">  1  9  2 -1</clus>
<clus scale="   88.119">  5  6 -1 -1</clus>
<clus scale="   90.436">  7  8 -1 -1</clus>
<clus scale="   94.778">  2  5  1 -1</clus>
<clus scale="   94.778">  2  5  1 -1</clus>
</clustering>
</event>
<event>
 9    1  0.1748361E-005  0.1483206E+03  0.7546771E-02  0.1203016E+00
          1   -1    0    0  502    0  0.00000000000E+00  0.00000000000E+00  0.55938708813E+03  0.55938708813E+03  0.00000000000E+00 0. -1.
         -1   -1    0    0    0  501 -0.00000000000E+00 -0.00000000000E+00 -0.72799201776E+02  0.72799201776E+02  0.00000000000E+00 0.  1.
         23    2    1    2    0    0  0.17477003935E+02 -0.71038042158E+02  0.43942675327E+02  0.12751183161E+03  0.94744178634E+02 0.  0.
         23    2    1    2    0    0 -0.40540259896E+02  0.12207756128E+03  0.41073297911E+03  0.44021255611E+03  0.92407092756E+02 0.  0.
        -11    1    4    4    0    0 -0.50285594016E+02  0.99640651984E+02  0.39650455302E+03  0.41191353591E+03  0.00000000000E+00 0. -1.
         11    1    4    4    0    0  0.97453341201E+01  0.22436909293E+02  0.14228426082E+02  0.28299020204E+02  0.00000000000E+00 0.  1.
        -13    1    3    3    0    0  0.30638182510E+02 -0.55369935951E+02 -0.15071042015E+02  0.65051243971E+02  0.00000000000E+00 0.  1.
         13    1    3    3    0    0 -0.13161178574E+02 -0.15668106207E+02  0.59013717342E+02  0.62460587638E+02  0.00000000000E+00 0. -1.
         21    1    1    2  502  501  0.23063255961E+02 -0.51039519119E+02  0.31912231920E+02  0.64461902187E+02  0.00000000000E+00 0.  1.
<scales pt_clust_5="13000.00000" pt_clust_6="13000.00000" pt_clust_7="13000.00000" pt_clust_8="13000.00000" pt_clust_9="56.00845"></scales>
<clustering>
<clus scale="   56.008">  2  9  1 -1</clus>
<clus scale="   92.407">  5  6 -1 -1</clus>
<clus scale="   94.744">  7  8 -1 -1</clus>
<clus scale="  146.839">  1  5  2 -1</clus>
<clus scale="  146.839">  1  5  2 -1</clus>
</clustering>
</event>
<event>
 9    1  0.1748361E-005  0.1056674E+03  0.7546771E-02  0.1271177E+00
          1   -1    0    0  502    0  0.00000000000E+00  0.00000000000E+00  0.45110524758E+03  0.45110524758E+03  0.00000000000E+00 0. -1.
         -1   -1    0    0    0  501 -0.00000000000E+00 -0.00000000000E+00 -0.33413966716E+02  0.33413966716E+02  0.00000000000E+00 0.  1.
         23    2    1    2    0    0 -0.45195342349E+02 -0.67249112037E+01  0.12145399848E+03  0.15925342714E+03  0.92318670416E+02 0.  0.
         23    2    1    2    0    0  0.37368196394E+02 -0.15458424086E+02  0.27072860588E+03  0.29056626043E+03  0.97465012593E+02 0.  0.
        -11    1    4    4    0    0 -0.10639485983E+02 -0.42716725073E+02  0.17101592317E+03  0.17659094892E+03  0.00000000000E+00 0. -1.
         11    1    4    4    0    0  0.48007682377E+02  0.27258300987E+02  0.99712682718E+02  0.11397531151E+03  0.00000000000E+00 0.  1.
        -13    1    3    3    0    0 -0.20061690941E+02 -0.39888276542E+02  0.10572869954E+03  0.11476978677E+03  0.00000000000E+00 0. -1.
         13    1    3    3    0    0 -0.25133651409E+02  0.33163365338E+02  0.15725298944E+02  0.44483640370E+02  0.00000000000E+00 0.  1.
         21    1    1    2  502  501  0.78271459548E+01  0.22183335289E+02  0.25508676498E+02  0.34699526726E+02  0.00000000000E+00 0.  1.
<scales pt_clust_5="13000.00000" pt_clust_6="13000.00000" pt_clust_7="13000.00000" pt_clust_8="13000.00000" pt_clust_9="23.52370"></scales>
<clustering>
<clus scale="   23.524">  2  9  1 -1</clus>
<clus scale="   92.319">  7  8 -1 -1</clus>
<clus scale="   97.465">  5  6 -1 -1</clus>
<clus scale="  100.940">  2  7  1 -1</clus>
<clus scale="  105.667">  1  5  2 -1</clus>
</clustering>
</event>
<event>
 9    1  0.1748361E-005  0.1554118E+03  0.7546771E-02  0.1210157E+00
         -2   -1    0    0    0  501 -0.00000000000E+00  0.00000000000E+00  0.19950093283E+03  0.19950093283E+03  0.00000000000E+00 0.  1.
          2   -1    0    0  502    0  0.00000000000E+00 -0.00000000000E+00 -0.33620953611E+03  0.33620953611E+03  0.00000000000E+00 0. -1.
         23    2    1    2    0    0 -0.86978811424E+02  0.80185063652E+02  0.95901462718E+02  0.17750778058E+03  0.91197387829E+02 0.  0.
         23    2    1    2    0    0 -0.57471979571E+02 -0.48769210774E+01 -0.92781343438E+02  0.14351822453E+03  0.93071425727E+02 0.  0.
        -11    1    4    4    0    0 -0.63454828046E+02  0.29107962953E+02 -0.40006519816E+02  0.80463099228E+02  0.00000000000E+00 0.  1.
         11    1    4    4    0    0  0.59828484746E+01 -0.33984884030E+02 -0.52774823622E+02  0.63055125302E+02  0.00000000000E+00 0. -1.
        -13    1    3    3    0    0 -0.28792918643E+02  0.76664172830E+02  0.85321332121E+02  0.11826308500E+03  0.00000000000E+00 0.  1.
         13    1    3    3    0    0 -0.58185892781E+02  0.35208908221E+01  0.10580130597E+02  0.59244695580E+02  0.00000000000E+00 0. -1.
         21    1    1    2  502  501  0.14445079099E+03 -0.75308142575E+02 -0.13982872256E+03  0.21468446383E+03  0.00000000000E+00 0. -1.
<scales pt_clust_5="13000.00000" pt_clust_6="13000.00000" pt_clust_7="13000.00000" pt_clust_8="13000.00000" pt_clust_9="125.84058"></scales>
<clustering>
<clus scale="   91.197">  7  8 -1 -1</clus>
<clus scale="   93.071">  5  6 -1 -1</clus>
<clus scale="  109.495">  2  5  1 -1</clus>
<clus scale="  125.841">  2  9  1 -1</clus>
<clus scale="  109.495">  2  5  1 -1</clus>
</clustering>
</event>
<event>
 9    1  0.1748361E-005  0.1155014E+03  0.7546771E-02  0.1258644E+00
          1   -1    0    0  502    0  0.00000000000E+00  0.00000000000E+00  0.15416834433E+03  0.15416834433E+03  0.00000000000E+00 0. -1.
         -1   -1    0    0    0  501 -0.00000000000E+00 -0.00000000000E+00 -0.11506708866E+03  0.11506708866E+03  0.00000000000E+00 0.  1.
         23    2    1    2    0    0  0.14193269948E+02 -0.47974675225E+02 -0.78370489197E+01  0.10568428895E+03  0.92761690480E+02 0.  0.
         23    2    1    2    0    0  0.87247670589E+01  0.25066053163E+02  0.60142136213E+02  0.12855996579E+03  0.11048149019E+03 0.  0.
        -11    1    3    3    0    0  0.49147086010E+02 -0.12205955491E+02 -0.19611890865E+02  0.54305134896E+02  0.00000000000E+00 0.  1.
         11    1    3    3    0    0 -0.34953816062E+02 -0.35768719733E+02  0.11774841945E+02  0.51379154056E+02  0.00000000000E+00 0. -1.
        -13    1    4    4    0    0  0.49921575640E+02  0.14605846246E+02  0.67715316699E+02  0.85386524550E+02  0.00000000000E+00 0.  1.
         13    1    4    4    0    0 -0.41196808581E+02  0.10460206916E+02 -0.75731804862E+01  0.43173441242E+02  0.00000000000E+00 0. -1.
         21    1    1    2  502  501 -0.22918037007E+02  0.22908622062E+02 -0.13203831623E+02  0.34991178239E+02  0.00000000000E+00 0. -1.
<scales pt_clust_5="13000.00000" pt_clust_6="13000.00000" pt_clust_7="13000.00000" pt_clust_8="13000.00000" pt_clust_9="32.40434"></scales>
<clustering>
<clus scale="   32.404">  2  9  1 -1</clus>
<clus scale="   92.762">  5  6 -1 -1</clus>
<clus scale="   98.687">  2  5  1 -1</clus>
<clus scale="  110.481">  7  8 -1 -1</clus>
<clus scale="  115.501">  1  5  2 -1</clus>
</clustering>
</event>
<event>
 9    1  0.1748361E-005  0.1930286E+03  0.7546771E-02  0.1155885E+00
         -1   -1    0    0    0  501 -0.00000000000E+00  0.00000000000E+00  0.90884527472E+02  0.90884527472E+02  0.00000000000E+00 0.  1.
          1   -1    0    0  502    0  0.00000000000E+00 -0.00000000000E+00 -0.55843497451E+03  0.55843497451E+03  0.00000000000E+00 0. -1.
         23    2    1    2    0    0  0.10891284322E+03 -0.11682064546E+03 -0.11475480479E+03  0.21746065387E+03  0.92797630013E+02 0.  0.
         23    2    1    2    0    0 -0.94677032180E+02  0.14722174494E+03 -0.34474466573E+03  0.39733779094E+03  0.91599415661E+02 0.  0.
        -11    1    4    4    0    0 -0.34749559910E+02  0.73305491821E+02 -0.25090282768E+03  0.26369197178E+03  0.00000000000E+00 0. -1.
         11    1    4    4    0    0 -0.59927472270E+02  0.73916253120E+02 -0.93841838050E+02  0.13364581915E+03  0.00000000000E+00 0.  1.
        -13    1    3    3    0    0  0.49467699281E+02 -0.10558480553E+03 -0.44634962222E+02  0.12484984695E+03  0.00000000000E+00 0.  1.
         13    1    3    3    0    0  0.59445143939E+02 -0.11235839931E+02 -0.70119842566E+02  0.92610806920E+02  0.00000000000E+00 0. -1.
         21    1    1    2  502  501 -0.14235811039E+02 -0.30401099476E+02 -0.80509765150E+01  0.34521057170E+02  0.00000000000E+00 0. -1.
<scales pt_clust_5="13000.00000" pt_clust_6="13000.00000" pt_clust_7="13000.00000" pt_clust_8="13000.00000" pt_clust_9="33.56911"></scales>
<clustering>
<clus scale="   33.569">  1  9  2 -1</clus>
<clus scale="   91.599">  5  6 -1 -1</clus>
<clus scale="   92.798">  7  8 -1 -1</clus>
<clus scale="  192.455">  2  5  1 -1</clus>
<clus scale="  192.455">  2  5  1 -1</clus>
</clustering>
</event>
<event>
 9    1  0.1748361E-005  0.1265746E+03  0.7546771E-02  0.1240352E+00
          1   -1    0    0  502    0  0.00000000000E+00  0.00000000000E+00  0.11182568958E+04  0.11182568958E+04  0.00000000000E+00 0. -1.
         -1   -1    0    0    0  501 -0.00000000000E+00 -0.00000000000E+00 -0.52210416082E+02  0.52210416082E+02  0.00000000000E+00 0.  1.
         23    2    1    2    0    0 -0.19881194037E+02 -0.65039677713E+00  0.14955919382E+03  0.18934974800E+03  0.11441018190E+03 0.  0.
         23    2    1    2    0    0  0.17977750921E+02 -0.10128140686E+03  0.13773615560E+03  0.19572146086E+03  0.93565585437E+02 0.  0.
        -11    1    4    4    0    0  0.42874709736E+02 -0.25111944515E+02  0.88997951389E+02  0.10192882734E+03  0.00000000000E+00 0. -1.
         11    1    4    4    0    0 -0.24896958815E+02 -0.76169462347E+02  0.48738204211E+02  0.93792633518E+02  0.00000000000E+00 0.  1.
        -13    1    3    3    0    0  0.24486089031E+02 -0.45956687498E+02  0.57628680791E+02  0.77670139252E+02  0.00000000000E+00 0.  1.
         13    1    3    3    0    0 -0.44367283068E+02  0.45306290720E+02  0.91930513024E+02  0.11167960875E+03  0.00000000000E+00 0. -1.
         21    1    1    2  502  501  0.19034431160E+01  0.10193180364E+03  0.77875113026E+03  0.78539610298E+03  0.00000000000E+00 0.  1.
<scales pt_clust_5="13000.00000" pt_clust_6="13000.00000" pt_clust_7="13000.00000" pt_clust_8="13000.00000" pt_clust_9="101.94957"></scales>
<clustering>
<clus scale="   93.566">  5  6 -1 -1</clus>
<clus scale="  101.950">  1  9  2 -1</clus>
<clus scale="  108.102">  1  5  2 -1</clus>
<clus scale="  114.410">  7  8 -1 -1</clus>
<clus scale="  101.950">  1  5  2 -1</clus>
</clustering>
</event>
<event>
 9    1  0.1748361E-005  0.1016409E+03  0.7546771E-02  0.1278395E+00
         -2   -1    0    0    0  501 -0.00000000000E+00  0.00000000000E+00  0.43407323368E+03  0.43407323368E+03  0.00000000000E+00 0.  1.
          2   -1    0    0  502    0  0.00000000000E+00 -0.00000000000E+00 -0.38648256711E+02  0.38648256711E+02  0.00000000000E+00 0. -1.
         23    2    1    2    0    0  0.36841102806E+02 -0.92040817901E+01  0.17331297425E+03  0.19994476613E+03  0.92187528889E+02 0.  0.
         23    2    1    2    0    0 -0.87593738455E+01  0.42726874445E+02  0.10758600762E+03  0.15018567776E+03  0.95282088235E+02 0.  0.
        -11    1    4    4    0    0  0.38376541031E+00 -0.22076037881E+02 -0.23918570682E+01  0.22208550260E+02  0.00000000000E+00 0. -1.
         11    1    4    4    0    0 -0.91431392558E+01  0.64802912326E+02  0.10997786469E+03  0.12797712750E+03  0.00000000000E+00 0.  1.
        -13    1    3    3    0    0  0.13985661806E+02 -0.49374168779E+02  0.70282722705E+02  0.87023378409E+02  0.00000000000E+00 0. -1.
         13    1    3    3    0    0  0.22855441000E+02  0.40170086989E+02  0.10303025155E+03  0.11292138773E+03  0.00000000000E+00 0.  1.
         21    1    1    2  502  501 -0.28081728961E+02 -0.33522792655E+02  0.11452599509E+03  0.12259104650E+03  0.00000000000E+00 0.  1.
<scales pt_clust_5="13000.00000" pt_clust_6="13000.00000" pt_clust_7="13000.00000" pt_clust_8="13000.00000" pt_clust_9="43.73055"></scales>
<clustering>
<clus scale="   43.731">  1  9  2 -1</clus>
<clus scale="   92.188">  7  8 -1 -1</clus>
<clus scale="   95.282">  5  6 -1 -1</clus>
<clus scale="   98.746">  1  7  2 -1</clus>
<clus scale="  101.641">  2  5  1 -1</clus>
</clustering>
</event>
<event>
 9    1  0.1748361E-005  0.1134463E+03  0.7546771E-02  0.1255693E+00
          2   -1    0    0  502    0  0.00000000000E+00  0.00000000000E+00  0.61070508536E+03  0.61070508536E+03  0.00000000000E+00 0. -1.
         -2   -1    0    0    0  501 -0.00000000000E+00 -0.00000000000E+00 -0.42109170522E+02  0.42109170522E+02  0.00000000000E+00 0.  1.
         23    2    1    2    0    0  0.33000372230E+02 -0.74182575860E+02  0.18538077798E+03  0.22356031759E+03  0.94979490567E+02 0.  0.
         23    2    1    2    0    0  0.43936469350E+02  0.47744030950E+02  0.22579115515E+03  0.25205183823E+03  0.91315812329E+02 0.  0.
        -11    1    4    4    0    0  0.18316612705E+02 -0.27199740151E+02  0.63665267078E+02  0.71614177349E+02  0.00000000000E+00 0.  1.
         11    1    4    4    0    0  0.25619856645E+02  0.74943771101E+02  0.16212588808E+03  0.18043766088E+03  0.00000000000E+00 0. -1.
        -11    1    3    3    0    0 -0.19849489395E+02 -0.61427239008E+02  0.65689602352E+02  0.92100118233E+02  0.00000000000E+00 0.  1.
         11    1    3    3    0    0  0.52849861625E+02 -0.12755336852E+02  0.11969117563E+03  0.13146019936E+03  0.00000000000E+00 0. -1.
         21    1    1    2  502  501 -0.76936841581E+02  0.26438544909E+02  0.15742398171E+03  0.17720210006E+03  0.00000000000E+00 0.  1.
<scales pt_clust_5="13000.00000" pt_clust_6="13000.00000" pt_clust_7="13000.00000" pt_clust_8="13000.00000" pt_clust_9="81.35278"></scales>
<clustering>
<clus scale="   81.353">  1  9  2 -1</clus>
<clus scale="   91.316">  5  6 -1 -1</clus>
<clus scale="   94.979">  7  8 -1 -1</clus>
<clus scale="  110.397">  1  5  2 -1</clus>
<clus scale="   81.353">  1  5  2 -1</clus>
</clustering>
</event>
<event>
 9    1  0.1748361E-005  0.9689645E+02  0.7546771E-02  0.1287271E+00
          1   -1    0    0  502    0  0.00000000000E+00  0.00000000000E+00  0.52393690117E+03  0.52393690117E+03  0.00000000000E+00 0. -1.
         -1   -1    0    0    0  501 -0.00000000000E+00 -0.00000000000E+00 -0.28301875210E+02  0.28301875210E+02  0.00000000000E+00 0.  1.
         23    2    1    2    0    0  0.21839856150E+02  0.58193627680E+01  0.12853857349E+03  0.15906981808E+03  0.90940628147E+02 0.  0.
         23    2    1    2    0    0 -0.54641144855E+02  0.35187603434E+01  0.25549639146E+03  0.27647406252E+03  0.90340825847E+02 0.  0.
        -13    1    3    3    0    0 -0.94479438272E+00 -0.38704533939E+02  0.82317717111E+02  0.90967797238E+02  0.00000000000E+00 0. -1.
         13    1    3    3    0    0  0.22784650533E+02  0.44523896707E+02  0.46220856384E+02  0.68102020841E+02  0.00000000000E+00 0.  1.
        -13    1    4    4    0    0 -0.67311121955E+02 -0.25191940311E+02  0.20258676928E+03  0.21495771697E+03  0.00000000000E+00 0. -1.
         13    1    4    4    0    0  0.12669977100E+02  0.28710700655E+02  0.52909622175E+02  0.61516345555E+02  0.00000000000E+00 0.  1.
         21    1    1    2  502  501  0.32801288705E+02 -0.93381231114E+01  0.11160006101E+03  0.11669489578E+03  0.00000000000E+00 0. -1.
<scales pt_clust_5="13000.00000" pt_clust_6="13000.00000" pt_clust_7="13000.00000" pt_clust_8="13000.00000" pt_clust_9="34.10462"></scales>
<clustering>
<clus scale="   34.105">  1  9  2 -1</clus>
<clus scale="   90.341">  7  8 -1 -1</clus>
<clus scale="   90.941">  5  6 -1 -1</clus>
<clus scale="   96.334">  1  7  2 -1</clus>
<clus scale="   34.105">  1  5  2 -1</clus>
</clustering>
</event>
<event>
 9    1  0.1748361E-005  0.1626204E+03  0.7546771E-02  0.1208981E+00
          1   -1    0    0  502    0  0.00000000000E+00  0.00000000000E+00  0.13234510901E+03  0.13234510901E+03  0.00000000000E+00 0. -1.
         -1   -1    0    0    0  501 -0.00000000000E+00 -0.00000000000E+00 -0.86349908039E+03  0.86349908039E+03  0.00000000000E+00 0.  1.
         23    2    1    2    0    0 -0.36658292164E+02  0.10624033478E+03  0.15580740622E+02  0.14645168464E+03  0.92598581721E+02 0.  0.
         23    2    1    2    0    0  0.11536393499E+02  0.26792387801E+02 -0.79687357392E+01  0.98323944138E+02  0.93558413959E+02 0.  0.
        -11    1    4    4    0    0 -0.30387414905E+02  0.22327753838E+02 -0.32295664304E+02  0.49648096730E+02  0.00000000000E+00 0.  1.
         11    1    4    4    0    0  0.41923808404E+02  0.44646339622E+01  0.24326928565E+02  0.48675847408E+02  0.00000000000E+00 0. -1.
        -13    1    3    3    0    0 -0.58752460899E+02  0.64519453107E+02 -0.17247222941E+02  0.88949863351E+02  0.00000000000E+00 0. -1.
         13    1    3    3    0    0  0.22094168736E+02  0.41720881677E+02  0.32827963564E+02  0.57501821291E+02  0.00000000000E+00 0.  1.
         21    1    1    2  502  501  0.25121898664E+02 -0.13303272258E+03 -0.73876597626E+03  0.75106856062E+03  0.00000000000E+00 0.  1.
<scales pt_clust_5="13000.00000" pt_clust_6="13000.00000" pt_clust_7="13000.00000" pt_clust_8="13000.00000" pt_clust_9="133.68211"></scales>
<clustering>
<clus scale="   92.599">  7  8 -1 -1</clus>
<clus scale="   93.558">  5  6 -1 -1</clus>
<clus scale="   98.000">  1  5  2 -1</clus>
<clus scale="  133.682">  2  9  1 -1</clus>
<clus scale="   98.000">  1  5  2 -1</clus>
</clustering>
</event>
<event>
 9    1  0.1748361E-005  0.1006443E+03  0.7546771E-02  0.1279205E+00
          2   -1    0    0  502    0  0.00000000000E+00  0.00000000000E+00  0.83026398600E+02  0.83026398600E+02  0.00000000000E+00 0. -1.
         -2   -1    0    0    0  501 -0.00000000000E+00 -0.00000000000E+00 -0.21058446245E+03  0.21058446245E+03  0.00000000000E+00 0.  1.
         23    2    1    2    0    0  0.61743346353E+02  0.26805058800E+02 -0.96020589678E+02  0.14815448617E+03  0.90548584377E+02 0.  0.
         23    2    1    2    0    0 -0.31333067252E+02 -0.11442430026E+02  0.28462973784E+01  0.97051424890E+02  0.91094387073E+02 0.  0.
        -13    1    4    4    0    0 -0.58188288296E+02 -0.38915355090E+00 -0.18443607104E+02  0.61042566938E+02  0.00000000000E+00 0.  1.
         13    1    4    4    0    0  0.26855221044E+02 -0.11053276475E+02  0.21289904483E+02  0.36008857953E+02  0.00000000000E+00 0. -1.
        -13    1    3    3    0    0  0.53234332584E+02  0.51199053054E+02 -0.34682005227E+02  0.81597050717E+02  0.00000000000E+00 0. -1.
         13    1    3    3    0    0  0.85090137697E+01 -0.24393994253E+02 -0.61338584451E+02  0.66557435448E+02  0.00000000000E+00 0.  1.
         21    1    1    2  502  501 -0.30410279101E+02 -0.15362628774E+02 -0.34383771551E+02  0.48404949994E+02  0.00000000000E+00 0. -1.
<scales pt_clust_5="13000.00000" pt_clust_6="13000.00000" pt_clust_7="13000.00000" pt_clust_8="13000.00000" pt_clust_9="34.07045"></scales>
<clustering>
<clus scale="   34.070">  2  9  1 -1</clus>
<clus scale="   90.549">  7  8 -1 -1</clus>
<clus scale="   91.094">  5  6 -1 -1</clus>
<clus scale="  100.151">  2  7  1 -1</clus>
<clus scale="  100.644">  1  5  2 -1</clus>
</clustering>
</event>
<event>
 9    1  0.1748361E-005  0.1086880E+03  0.7546771E-02  0.1264163E+00
         -2   -1    0    0    0  501 -0.00000000000E+00  0.00000000000E+00  0.15296206725E+03  0.15296206725E+03  0.00000000000E+00 0.  1.
          2   -1    0    0  502    0  0.00000000000E+00 -0.00000000000E+00 -0.46328055397E+03  0.46328055397E+03  0.00000000000E+00 0. -1.
         23    2    1    2    0    0  0.80074450074E+01 -0.28607899124E+02 -0.74852258906E+02  0.12185462139E+03  0.91450298101E+02 0.  0.
         23    2    1    2    0    0 -0.10656880597E+01  0.69933533611E+02 -0.35247384524E+03  0.37010292997E+03  0.88580654640E+02 0.  0.
        -13    1    3    3    0    0 -0.17394522170E+02 -0.51252827191E+02 -0.68390659279E+02  0.87216420319E+02  0.00000000000E+00 0.  1.
         13    1    3    3    0    0  0.25401967177E+02  0.22644928068E+02 -0.64615996273E+01  0.34638201071E+02  0.00000000000E+00 0. -1.
        -13    1    4    4    0    0 -0.42690415113E+02  0.47301017183E+02 -0.16906977393E+03  0.18067774137E+03  0.00000000000E+00 0.  1.
         13    1    4    4    0    0  0.41624727053E+02  0.22632516428E+02 -0.18340407131E+03  0.18942518860E+03  0.00000000000E+00 0. -1.
         21    1    1    2  502  501 -0.69417569477E+01 -0.41325634487E+02  0.11700761743E+03  0.12428506987E+03  0.00000000000E+00 0.  1.
<scales pt_clust_5="13000.00000" pt_clust_6="13000.00000" pt_clust_7="13000.00000" pt_clust_8="13000.00000" pt_clust_9="41.90461"></scales>
<clustering>
<clus scale="   41.905">  1  9  2 -1</clus>
<clus scale="   88.581">  7  8 -1 -1</clus>
<clus scale="   91.450">  5  6 -1 -1</clus>
<clus scale="  106.285">  2  7  1 -1</clus>
<clus scale="  106.285">  2  5  1 -1</clus>
</clustering>
</event>
<event>
 9    1  0.1748361E-005  0.1186766E+03  0.7546771E-02  0.1246600E+00
         -1   -1    0    0    0  501 -0.00000000000E+00  0.00000000000E+00  0.34596098352E+03  0.34596098352E+03  0.00000000000E+00 0.  1.
          1   -1    0    0  502    0  0.00000000000E+00 -0.00000000000E+00 -0.80367836994E+02  0.80367836994E+02  0.00000000000E+00 0. -1.
         23    2    1    2    0    0  0.35304256093E+02 -0.15346666960E+02  0.21778610011E+03  0.24056591553E+03  0.94653386774E+02 0.  0.
         23    2    1    2    0    0 -0.71038982886E+02  0.37373328053E+02 -0.12714707163E+01  0.12118082278E+03  0.90773743083E+02 0.  0.
        -13    1    4    4    0    0  0.31803113322E+01  0.46283595419E+02 -0.17798214940E+01  0.46426860217E+02  0.00000000000E+00 0. -1.
         13    1    4    4    0    0 -0.74219294218E+02 -0.89102673661E+01  0.50835077771E+00  0.74753962566E+02  0.00000000000E+00 0.  1.
        -13    1    3    3    0    0  0.65742086236E+01  0.32110531679E+02  0.28887987809E+02  0.43690070993E+02  0.00000000000E+00 0. -1.
         13    1    3    3    0    0  0.28730047470E+02 -0.47457198639E+02  0.18889811230E+03  0.19687584454E+03  0.00000000000E+00 0.  1.
         21    1    1    2  502  501  0.35734726792E+02 -0.22026661093E+02  0.49078517133E+02  0.64582082204E+02  0.00000000000E+00 0.  1.
<scales pt_clust_5="13000.00000" pt_clust_6="13000.00000" pt_clust_7="13000.00000" pt_clust_8="13000.00000" pt_clust_9="41.97790"></scales>
<clustering>
<clus scale="   41.978">  1  9  2 -1</clus>
<clus scale="   90.774">  5  6 -1 -1</clus>
<clus scale="   94.653">  7  8 -1 -1</clus>
<clus scale="  115.606">  2  5  1 -1</clus>
<clus scale="  115.606">  2  5  1 -1</clus>
</clustering>
</event>
<event>
 9    1  0.1748361E-005  0.9382358E+02  0.7546771E-02  0.1294672E+00
          2   -1    0    0  502    0  0.00000000000E+00  0.00000000000E+00  0.17110948646E+03  0.17110948646E+03  0.00000000000E+00 0. -1.
         -2   -1    0    0    0  501 -0.00000000000E+00 -0.00000000000E+00 -0.79689864892E+02  0.79689864892E+02  0.00000000000E+00 0.  1.
         23    2    1    2    0    0 -0.28750218077E+01  0.34147054385E+02  0.58092144311E+02  0.11281544612E+03  0.90434178158E+02 0.  0.
         23    2    1    2    0    0 -0.85378869852E+01 -0.16160168608E+02  0.56147516551E+02  0.10676633420E+03  0.88952009201E+02 0.  0.
        -11    1    3    3    0    0 -0.71257046457E+01  0.64433793493E+02  0.47809349205E+02  0.80549508267E+02  0.00000000000E+00 0. -1.
         11    1    3    3    0    0  0.42506828379E+01 -0.30286739108E+02  0.10282795106E+02  0.32265937854E+02  0.00000000000E+00 0.  1.
        -11    1    4    4    0    0  0.82236937203E+01  0.18649372899E+02 -0.15338021673E+02  0.25508491857E+02  0.00000000000E+00 0.  1.
         11    1    4    4    0    0 -0.16761580705E+02 -0.34809541507E+02  0.71485538224E+02  0.81257842347E+02  0.00000000000E+00 0. -1.
         21    1    1    2  502  501  0.11412908793E+02 -0.17986885777E+02 -0.22820039298E+02  0.31217571024E+02  0.00000000000E+00 0.  1.
<scales pt_clust_5="13000.00000" pt_clust_6="13000.00000" pt_clust_7="13000.00000" pt_clust_8="13000.00000" pt_clust_9="21.30217"></scales>
<clustering>
<clus scale="   21.302">  2  9  1 -1</clus>
<clus scale="   88.952">  7  8 -1 -1</clus>
<clus scale="   90.434">  5  6 -1 -1</clus>
<clus scale="   92.396">  1  7  2 -1</clus>
<clus scale="   92.396">  1  5  2 -1</clus>
</clustering>
</event>
<event>
 9    1  0.1748361E-005  0.1028589E+03  0.7546771E-02  0.1277970E+00
         -1   -1    0    0    0  501 -0.00000000000E+00  0.00000000000E+00  0.37174171070E+02  0.37174171070E+02  0.00000000000E+00 0.  1.
          1   -1    0    0  502    0  0.00000000000E+00 -0.00000000000E+00 -0.41541859148E+03  0.41541859148E+03  0.00000000000E+00 0. -1.
         23    2    1    2    0    0  0.19516871228E+02 -0.18490489155E+02 -0.86373263139E+02  0.12780347395E+03  0.90280567764E+02 0.  0.
         23    2    1    2    0    0 -0.43707330960E+02  0.40682518750E+02 -0.25920561060E+03  0.27847835621E+03  0.82445425586E+02 0.  0.
        -11    1    4    4    0    0 -0.60853544600E+02  0.23794058867E+02 -0.23661190385E+03  0.24546792901E+03  0.00000000000E+00 0. -1.
         11    1    4    4    0    0  0.17146213640E+02  0.16888459883E+02 -0.22593706749E+02  0.33010427202E+02  0.00000000000E+00 0.  1.
        -11    1    3    3    0    0  0.32342624664E+02 -0.50356245986E+02 -0.54678676057E+02  0.81065125025E+02  0.00000000000E+00 0.  1.
         11    1    3    3    0    0 -0.12825753436E+02  0.31865756831E+02 -0.31694587082E+02  0.46738348922E+02  0.00000000000E+00 0. -1.
         21    1    1    2  502  501  0.24190459732E+02 -0.22192029595E+02 -0.32665546666E+02  0.46310932387E+02  0.00000000000E+00 0.  1.
<scales pt_clust_5="13000.00000" pt_clust_6="13000.00000" pt_clust_7="13000.00000" pt_clust_8="13000.00000" pt_clust_9="32.82780"></scales>
<clustering>
<clus scale="   32.828">  1  9  2 -1</clus>
<clus scale="   82.445">  5  6 -1 -1</clus>
<clus scale="   90.281">  7  8 -1 -1</clus>
<clus scale="   96.055">  2  5  1 -1</clus>
<clus scale="   96.055">  2  5  1 -1</clus>
</clustering>
</event>
<event>
 9    1  0.1748361E-005  0.2088200E+03  0.7546771E-02  0.1142687E+00
         -2   -1    0    0    0  501 -0.00000000000E+00  0.00000000000E+00  0.83629350884E+02  0.83629350884E+02  0.00000000000E+00 0.  1.
          2   -1    0    0  502    0  0.00000000000E+00 -0.00000000000E+00 -0.11605734824E+04  0.11605734824E+04  0.00000000000E+00 0. -1.
         23    2    1    2    0    0 -0.11941801866E+03 -0.13888168100E+03 -0.22053581871E+03  0.30019007890E+03  0.89046345436E+02 0.  0.
         23    2    1    2    0    0  0.99370667546E+02  0.16181749986E+03 -0.88039275457E+03  0.90524161156E+03  0.91167648721E+02 0.  0.
        -11    1    3    3    0    0 -0.12987015979E+03 -0.11643913818E+03 -0.16829034864E+03  0.24237568514E+03  0.00000000000E+00 0.  1.
         11    1    3    3    0    0  0.10452141125E+02 -0.22442542823E+02 -0.52245470068E+02  0.57814393754E+02  0.00000000000E+00 0. -1.
        -11    1    4    4    0    0  0.82041219188E+01  0.93073187239E+02 -0.32134431978E+03  0.33465220402E+03  0.00000000000E+00 0.  1.
         11    1    4    4    0    0  0.91166545627E+02  0.68744312618E+02 -0.55904843479E+03  0.57058940754E+03  0.00000000000E+00 0. -1.
         21    1    1    2  502  501  0.20047351116E+02 -0.22935818858E+02  0.23984441732E+02  0.38771142860E+02  0.00000000000E+00 0.  1.
<scales pt_clust_5="13000.00000" pt_clust_6="13000.00000" pt_clust_7="13000.00000" pt_clust_8="13000.00000" pt_clust_9="30.46224"></scales>
<clustering>
<clus scale="   30.462">  1  9  2 -1</clus>
<clus scale="   89.046">  5  6 -1 -1</clus>
<clus scale="   91.168">  7  8 -1 -1</clus>
<clus scale="  207.903">  1  5  2 -1</clus>
<clus scale="  208.820">  2  5  1 -1</clus>
</clustering>
</event>
<event>
 9    1  0.1748361E-005  0.1125382E+03  0.7546771E-02  0.1263675E+00
          1   -1    0    0  502    0  0.00000000000E+00  0.00000000000E+00  0.42480680525E+03  0.42480680525E+03  0.00000000000E+00 0. -1.
         -1   -1    0    0    0  501 -0.00000000000E+00 -0.00000000000E+00 -0.38062672191E+02  0.38062672191E+02  0.00000000000E+00 0.  1.
         23    2    1    2    0    0  0.44733975832E+02  0.76580572685E+01  0.12300953444E+03  0.15982111707E+03  0.91387468859E+02 0.  0.
         23    2    1    2    0    0 -0.23037761869E+02  0.70178093327E+01  0.25013863602E+03  0.27353638043E+03  0.10804085372E+03 0.  0.
        -11    1    4    4    0    0 -0.24324751187E+01 -0.39717020024E+02  0.19230118556E+03  0.19637490823E+03  0.00000000000E+00 0. -1.
         11    1    4    4    0    0 -0.20605286751E+02  0.46734829357E+02  0.57837450463E+02  0.77161472207E+02  0.00000000000E+00 0.  1.
        -11    1    3    3    0    0  0.38552795580E+02 -0.11986510796E+02  0.57662714911E+01  0.40782893167E+02  0.00000000000E+00 0.  1.
         11    1    3    3    0    0  0.61811802514E+01  0.19644568065E+02  0.11724326295E+03  0.11903822391E+03  0.00000000000E+00 0. -1.
         21    1    1    2  502  501 -0.21696213962E+02 -0.14675866601E+02  0.13595962603E+02  0.29511979939E+02  0.00000000000E+00 0. -1.
<scales pt_clust_5="13000.00000" pt_clust_6="13000.00000" pt_clust_7="13000.00000" pt_clust_8="13000.00000" pt_clust_9="26.19364"></scales>
<clustering>
<clus scale="   26.194">  2  9  1 -1</clus>
<clus scale="   91.387">  7  8 -1 -1</clus>
<clus scale="   96.663">  2  7  1 -1</clus>
<clus scale="  108.041">  5  6 -1 -1</clus>
<clus scale="  112.538">  1  5  2 -1</clus>
</clustering>
</event>
<event>
 9    1  0.1748361E-005  0.1213371E+03  0.7546771E-02  0.1243370E+00
         -1   -1    0    0    0  501 -0.00000000000E+00  0.00000000000E+00  0.45555282997E+02  0.45555282997E+02  0.00000000000E+00 0.  1.
          1   -1    0    0  502    0  0.00000000000E+00 -0.00000000000E+00 -0.74449623465E+03  0.74449623465E+03  0.00000000000E+00 0. -1.
         23    2    1    2    0    0 -0.22574582858E+02  0.63969776380E+02 -0.31898550958E+03  0.33910863854E+03  0.92957890116E+02 0.  0.
         23    2    1    2    0    0  0.44139687719E+02 -0.75926090499E+02 -0.40055682845E+03  0.41881151879E+03  0.85113055394E+02 0.  0.
        -11    1    3    3    0    0 -0.33315104727E+02 -0.14067230542E+02 -0.10833028697E+03  0.11420697988E+03  0.00000000000E+00 0. -1.
         11    1    3    3    0    0  0.10740521869E+02  0.78037006922E+02 -0.21065522261E+03  0.22490165867E+03  0.00000000000E+00 0.  1.
        -13    1    4    4    0    0 -0.20248754334E+02 -0.27491474531E+01 -0.35451663046E+02  0.40919314224E+02  0.00000000000E+00 0.  1.
         13    1    4    4    0    0  0.64388442053E+02 -0.73176943046E+02 -0.36510516540E+03  0.37789220456E+03  0.00000000000E+00 0. -1.
         21    1    1    2  502  501 -0.21565104861E+02  0.11956314119E+02  0.20601386377E+02  0.32131360314E+02  0.00000000000E+00 0.  1.
<scales pt_clust_5="13000.00000" pt_clust_6="13000.00000" pt_clust_7="13000.00000" pt_clust_8="13000.00000" pt_clust_9="24.65780"></scales>
<clustering>
<clus scale="   24.658">  1  9  2 -1</clus>
<clus scale="   85.113">  7  8 -1 -1</clus>
<clus scale="   92.958">  5  6 -1 -1</clus>
<clus scale="  115.437">  2  7  1 -1</clus>
<clus scale="  115.437">  2  5  1 -1</clus>
</clustering>
</event>
<event>
 9    1  0.1748361E-005  0.3973518E+03  0.7546771E-02  0.1044725E+00
          1   -1    0    0  502    0  0.00000000000E+00  0.00000000000E+00  0.92949153998E+03  0.92949153998E+03  0.00000000000E+00 0. -1.
         -1   -1    0    0    0  501 -0.00000000000E+00 -0.00000000000E+00 -0.25847164037E+03  0.25847164037E+03  0.00000000000E+00 0.  1.
         23    2    1    2    0    0  0.24847432447E+03 -0.31273807685E+03  0.14188692319E+03  0.43308533489E+03  0.88805482324E+02 0.  0.
         23    2    1    2    0    0 -0.25146649822E+03  0.28756913737E+03  0.57868320298E+03  0.69922127737E+03  0.90026311832E+02 0.  0.
        -13    1    4    4    0    0 -0.13685009854E+03  0.93489432297E+02  0.21695807451E+03  0.27301836846E+03  0.00000000000E+00 0.  1.
         13    1    4    4    0    0 -0.11461639968E+03  0.19407970507E+03  0.36172512847E+03  0.42620290891E+03  0.00000000000E+00 0. -1.
        -13    1    3    3    0    0  0.13380764372E+03 -0.13714015670E+03  0.11005599688E+03  0.22096205681E+03  0.00000000000E+00 0.  1.
         13    1    3    3    0    0  0.11466668075E+03 -0.17559792016E+03  0.31830926309E+02  0.21212327809E+03  0.00000000000E+00 0. -1.
         21    1    1    2  502  501  0.29921737544E+01  0.25168939485E+02 -0.49550226567E+02  0.55656568089E+02  0.00000000000E+00 0.  1.
<scales pt_clust_5="13000.00000" pt_clust_6="13000.00000" pt_clust_7="13000.00000" pt_clust_8="13000.00000" pt_clust_9="25.34618"></scales>
<clustering>
<clus scale="   25.346">  2  9  1 -1</clus>
<clus scale="   88.805">  7  8 -1 -1</clus>
<clus scale="   90.026">  5  6 -1 -1</clus>
<clus scale="  397.077">  2  7  1 -1</clus>
<clus scale="  397.352">  1  5  2 -1</clus>
</clustering>
</event>
<event>
 9    1  0.1748361E-005  0.9454000E+02  0.7546771E-02  0.1292957E+00
         -1   -1    0    0    0  501 -0.00000000000E+00  0.00000000000E+00  0.13077854543E+03  0.13077854543E+03  0.00000000000E+00 0.  1.
          1   -1    0    0  502    0  0.00000000000E+00 -0.00000000000E+00 -0.38183722501E+03  0.38183722501E+03  0.00000000000E+00 0. -1.
         23    2    1    2    0    0  0.32814235033E+01 -0.35221212987E+01 -0.10717671462E+03  0.13940217590E+03  0.89010928604E+02 0.  0.
         23    2    1    2    0    0 -0.41921256403E+02 -0.10774368137E+02 -0.24463602570E+03  0.26436136879E+03  0.90369627018E+02 0.  0.
        -11    1    3    3    0    0 -0.21289463415E+02 -0.27685563433E+02 -0.10048397207E+02  0.36341463393E+02  0.00000000000E+00 0.  1.
         11    1    3    3    0    0  0.24570886918E+02  0.24163442134E+02 -0.97128317408E+02  0.10306071251E+03  0.00000000000E+00 0. -1.
        -11    1    4    4    0    0  0.22179746373E+02  0.20654667072E+01 -0.18471471141E+02  0.28937908494E+02  0.00000000000E+00 0.  1.
         11    1    4    4    0    0 -0.64101002776E+02 -0.12839834844E+02 -0.22616455456E+03  0.23542346029E+03  0.00000000000E+00 0. -1.
         21    1    1    2  502  501  0.38639832900E+02  0.14296489435E+02  0.10075406074E+03  0.10885222575E+03  0.00000000000E+00 0.  1.
<scales pt_clust_5="13000.00000" pt_clust_6="13000.00000" pt_clust_7="13000.00000" pt_clust_8="13000.00000" pt_clust_9="41.19983"></scales>
<clustering>
<clus scale="   41.200">  1  9  2 -1</clus>
<clus scale="   89.011">  5  6 -1 -1</clus>
<clus scale="   90.370">  7  8 -1 -1</clus>
<clus scale="   93.242">  1  5  2 -1</clus>
<clus scale="   94.540">  2  5  1 -1</clus>
</clustering>
</event>
<event>
 9    1  0.1748361E-005  0.2883192E+03  0.7546771E-02  0.1091309E+00
          4   -1    0    0  502    0  0.00000000000E+00  0.00000000000E+00  0.11014274067E+03  0.11014274067E+03  0.00000000000E+00 0. -1.
         -4   -1    0    0    0  501 -0.00000000000E+00 -0.00000000000E+00 -0.12727017992E+04  0.12727017992E+04  0.00000000000E+00 0.  1.
         23    2    1    2    0    0  0.18351866359E+03  0.14406295298E+03 -0.41180333960E+03  0.48197156048E+03  0.91001979633E+02 0.  0.
         23    2    1    2    0    0 -0.27354223584E+03 -0.14256033804E+03 -0.29404175521E+03  0.43536879459E+03  0.89087758562E+02 0.  0.
        -13    1    3    3    0    0  0.13873056154E+03  0.57775895238E+02 -0.21309832363E+03  0.26075873582E+03  0.00000000000E+00 0.  1.
         13    1    3    3    0    0  0.44788102052E+02  0.86287057740E+02 -0.19870501597E+03  0.22121282465E+03  0.00000000000E+00 0. -1.
        -13    1    4    4    0    0 -0.51305135342E+02 -0.40899179412E+02 -0.11505564644E+03  0.13244909047E+03  0.00000000000E+00 0.  1.
         13    1    4    4    0    0 -0.22223710050E+03 -0.10166115863E+03 -0.17898610877E+03  0.30291970413E+03  0.00000000000E+00 0. -1.
         21    1    1    2  502  501  0.90023572249E+02 -0.15026149329E+01 -0.45671396374E+03  0.46550418482E+03  0.00000000000E+00 0.  1.
<scales pt_clust_5="13000.00000" pt_clust_6="13000.00000" pt_clust_7="13000.00000" pt_clust_8="13000.00000" pt_clust_9="90.03611"></scales>
<clustering>
<clus scale="   89.088">  7  8 -1 -1</clus>
<clus scale="   90.036">  2  9  1 -1</clus>
<clus scale="   91.002">  5  6 -1 -1</clus>
<clus scale="  287.721">  1  7  2 -1</clus>
<clus scale="  287.721">  1  5  2 -1</clus>
</clustering>
</event>
<event>
 9    1  0.1748361E-005  0.1040587E+03  0.7546771E-02  0.1273503E+00
         -2   -1    0    0    0  501 -0.00000000000E+00  0.00000000000E+00  0.58713038931E+02  0.58713038931E+02  0.00000000000E+00 0.  1.
          2   -1    0    0  502    0  0.00000000000E+00 -0.00000000000E+00 -0.32518542407E+03  0.32518542407E+03  0.00000000000E+00 0. -1.
         23    2    1    2    0    0  0.46195102964E+02  0.68056391733E+01 -0.57899539359E+02  0.11989600684E+03  0.94033991383E+02 0.  0.
         23    2    1    2    0    0 -0.37024682580E+02  0.45949399743E+02 -0.14362659308E+03  0.17982878759E+03  0.90706229939E+02 0.  0.
        -11    1    3    3    0    0  0.70294687591E+02  0.76608181780E+01 -0.63612780431E+02  0.95113706020E+02  0.00000000000E+00 0. -1.
         11    1    3    3    0    0 -0.24099584627E+02 -0.85517900462E+00  0.57132410719E+01  0.24782300819E+02  0.00000000000E+00 0.  1.
        -13    1    4    4    0    0  0.46882332655E+01  0.61151758612E+02 -0.63875793674E+02  0.88553001812E+02  0.00000000000E+00 0. -1.
         13    1    4    4    0    0 -0.41712915845E+02 -0.15202358869E+02 -0.79750799408E+02  0.91275785780E+02  0.00000000000E+00 0.  1.
         21    1    1    2  502  501 -0.91704203839E+01 -0.52755038916E+02 -0.64946252693E+02  0.84173668566E+02  0.00000000000E+00 0. -1.
<scales pt_clust_5="13000.00000" pt_clust_6="13000.00000" pt_clust_7="13000.00000" pt_clust_8="13000.00000" pt_clust_9="53.54616"></scales>
<clustering>
<clus scale="   53.546">  2  9  1 -1</clus>
<clus scale="   90.706">  7  8 -1 -1</clus>
<clus scale="   94.034">  5  6 -1 -1</clus>
<clus scale="  101.062">  2  7  1 -1</clus>
<clus scale="   53.546">  2  5  1 -1</clus>
</clustering>
</event>
<event>
 9    1  0.1748361E-005  0.1199153E+03  0.7546771E-02  0.1244088E+00
         -2   -1    0    0    0  501 -0.00000000000E+00  0.00000000000E+00  0.89794557342E+02  0.89794557342E+02  0.00000000000E+00 0.  1.
          2   -1    0    0  502    0  0.00000000000E+00 -0.00000000000E+00 -0.38253513034E+03  0.38253513034E+03  0.00000000000E+00 0. -1.
         23    2    1    2    0    0  0.78426576081E+02 -0.89187376744E+02 -0.11573380492E+03  0.18813673164E+03  0.88859440601E+02 0.  0.
         23    2    1    2    0    0 -0.24435396367E+02  0.56773313627E+02 -0.19010758953E+03  0.21987071651E+03  0.91552928126E+02 0.  0.
        -11    1    4    4    0    0  0.20598915201E+02  0.26015047737E+02 -0.14905083935E+02  0.36376634579E+02  0.00000000000E+00 0.  1.
         11    1    4    4    0    0 -0.45034311567E+02  0.30758265889E+02 -0.17520250559E+03  0.18349408194E+03  0.00000000000E+00 0. -1.
        -13    1    3    3    0    0  0.41350306011E+02 -0.78373649637E+01 -0.24356775871E+00  0.42087188336E+02  0.00000000000E+00 0. -1.
         13    1    3    3    0    0  0.37076270070E+02 -0.81350011780E+02 -0.11549023717E+03  0.14604954330E+03  0.00000000000E+00 0.  1.
         21    1    1    2  502  501 -0.53991179714E+02  0.32414063117E+02  0.13100821456E+02  0.64322239525E+02  0.00000000000E+00 0. -1.
<scales pt_clust_5="13000.00000" pt_clust_6="13000.00000" pt_clust_7="13000.00000" pt_clust_8="13000.00000" pt_clust_9="62.97395"></scales>
<clustering>
<clus scale="   62.974">  1  9  2 -1</clus>
<clus scale="   88.859">  7  8 -1 -1</clus>
<clus scale="   91.553">  5  6 -1 -1</clus>
<clus scale="  117.872">  1  7  2 -1</clus>
<clus scale="  119.915">  2  5  1 -1</clus>
</clustering>
</event>
<event>
 9    1  0.1748361E-005  0.1340636E+03  0.7546771E-02  0.1237952E+00
         -1   -1    0    0    0  501 -0.00000000000E+00  0.00000000000E+00  0.44115937717E+03  0.44115937717E+03  0.00000000000E+00 0.  1.
          1   -1    0    0  502    0  0.00000000000E+00 -0.00000000000E+00 -0.63716710591E+02  0.63716710591E+02  0.00000000000E+00 0. -1.
         23    2    1    2    0    0  0.60898460210E+02  0.64097193780E+02  0.12571004675E+03  0.17863488739E+03  0.91051273647E+02 0.  0.
         23    2    1    2    0    0  0.96060446577E+01  0.12000840078E+02  0.75578196805E+02  0.12180985073E+03  0.94282976442E+02 0.  0.
        -11    1    3    3    0    0  0.83714233753E+02  0.61564097948E+02  0.10475845636E+03  0.14755522786E+03  0.00000000000E+00 0.  1.
         11    1    3    3    0    0 -0.22815773543E+02  0.25330958317E+01  0.20951590393E+02  0.31079659535E+02  0.00000000000E+00 0. -1.
        -13    1    4    4    0    0 -0.32821459069E+02 -0.37776609799E+00 -0.16111327590E+01  0.32863150053E+02  0.00000000000E+00 0. -1.
         13    1    4    4    0    0  0.42427503727E+02  0.12378606176E+02  0.77189329564E+02  0.88946700680E+02  0.00000000000E+00 0.  1.
         21    1    1    2  502  501 -0.70504504868E+02 -0.76098033858E+02  0.17615442302E+03  0.20443134964E+03  0.00000000000E+00 0.  1.
<scales pt_clust_5="13000.00000" pt_clust_6="13000.00000" pt_clust_7="13000.00000" pt_clust_8="13000.00000" pt_clust_9="98.40083"></scales>
<clustering>
<clus scale="   91.051">  5  6 -1 -1</clus>
<clus scale="   94.283">  7  8 -1 -1</clus>
<clus scale="   95.528">  2  7  1 -1</clus>
<clus scale="   98.401">  1  9  2 -1</clus>
<clus scale="   95.528">  2  5  1 -1</clus>
</clustering>
</event>
<event>
 9    1  0.1748361E-005  0.1177355E+03  0.7546771E-02  0.1247518E+00
         -1   -1    0    0    0  501 -0.00000000000E+00  0.00000000000E+00  0.21419890505E+03  0.21419890505E+03  0.00000000000E+00 0.  1.
          1   -1    0    0  502    0  0.00000000000E+00 -0.00000000000E+00 -0.16064702165E+03  0.16064702165E+03  0.00000000000E+00 0. -1.
         23    2    1    2    0    0 -0.84826901097E+02 -0.13725274270E+02  0.24780024497E+02  0.12791728631E+03  0.91459259887E+02 0.  0.
         23    2    1    2    0    0  0.62483568639E+02  0.33011526333E+02 -0.76673320542E+02  0.13743037605E+03  0.89522918617E+02 0.  0.
        -11    1    3    3    0    0 -0.59862443698E+02  0.28064802969E+02  0.39557194674E+02  0.77044902373E+02  0.00000000000E+00 0.  1.
         11    1    3    3    0    0 -0.24964457398E+02 -0.41790077239E+02 -0.14777170176E+02  0.50872383936E+02  0.00000000000E+00 0. -1.
        -13    1    4    4    0    0  0.68629048505E+02 -0.63885064554E+01 -0.27719617391E+02  0.74290891108E+02  0.00000000000E+00 0. -1.
         13    1    4    4    0    0 -0.61454798658E+01  0.39400032788E+02 -0.48953703151E+02  0.63139484942E+02  0.00000000000E+00 0.  1.
         21    1    1    2  502  501  0.22343332458E+02 -0.19286252063E+02  0.10544517945E+03  0.10949826434E+03  0.00000000000E+00 0.  1.
<scales pt_clust_5="13000.00000" pt_clust_6="13000.00000" pt_clust_7="13000.00000" pt_clust_8="13000.00000" pt_clust_9="29.51583"></scales>
<clustering>
<clus scale="   29.516">  1  9  2 -1</clus>
<clus scale="   89.523">  7  8 -1 -1</clus>
<clus scale="   91.459">  5  6 -1 -1</clus>
<clus scale="  116.238">  2  7  1 -1</clus>
<clus scale="  116.238">  2  5  1 -1</clus>
</clustering>
</event>
<event>
 9    1  0.1748361E-005  0.9846542E+02  0.7546771E-02  0.1284407E+00
         -1   -1    0    0    0  501 -0.00000000000E+00  0.00000000000E+00  0.89694451471E+02  0.89694451471E+02  0.00000000000E+00 0.  1.
          1   -1    0    0  502    0  0.00000000000E+00 -0.00000000000E+00 -0.42063898720E+03  0.42063898720E+03  0.00000000000E+00 0. -1.
         23    2    1    2    0    0 -0.28080999094E+02  0.94209589405E+01 -0.17682893855E+03  0.20073577716E+03  0.90272264533E+02 0.  0.
         23    2    1    2    0    0  0.42744015661E+02 -0.23061518173E+02 -0.21928155068E+03  0.24142383658E+03  0.88556117248E+02 0.  0.
        -11    1    4    4    0    0 -0.25588145708E+02 -0.19731971588E+02 -0.78864743716E+02  0.85227646365E+02  0.00000000000E+00 0.  1.
         11    1    4    4    0    0  0.68332161369E+02 -0.33295465857E+01 -0.14041680696E+03  0.15619619021E+03  0.00000000000E+00 0. -1.
        -13    1    3    3    0    0  0.95987409846E+00 -0.38618011338E+02 -0.65121692285E+02  0.75717283126E+02  0.00000000000E+00 0.  1.
         13    1    3    3    0    0 -0.29040873192E+02  0.48038970278E+02 -0.11170724627E+03  0.12501849403E+03  0.00000000000E+00 0. -1.
         21    1    1    2  502  501 -0.14663016568E+02  0.13640559233E+02  0.65165953503E+02  0.68173824940E+02  0.00000000000E+00 0.  1.
<scales pt_clust_5="13000.00000" pt_clust_6="13000.00000" pt_clust_7="13000.00000" pt_clust_8="13000.00000" pt_clust_9="20.02670"></scales>
<clustering>
<clus scale="   20.027">  1  9  2 -1</clus>
<clus scale="   88.556">  5  6 -1 -1</clus>
<clus scale="   90.272">  7  8 -1 -1</clus>
<clus scale="   96.894">  2  5  1 -1</clus>
<clus scale="   96.894">  2  5  1 -1</clus>
</clustering>
</event>
<event>
 9    1  0.1748361E-005  0.1127924E+03  0.7546771E-02  0.1258615E+00
         -1   -1    0    0    0  501 -0.00000000000E+00  0.00000000000E+00  0.11824207885E+03  0.11824207885E+03  0.00000000000E+00 0.  1.
          1   -1    0    0  502    0  0.00000000000E+00 -0.00000000000E+00 -0.12812093501E+03  0.12812093501E+03  0.00000000000E+00 0. -1.
         23    2    1    2    0    0  0.24233497463E+01  0.69503549105E+02  0.24555709870E+02  0.12032701899E+03  0.95073616999E+02 0.  0.
         23    2    1    2    0    0 -0.49893829538E+01 -0.48034296637E+02 -0.30761341204E+02  0.10410414796E+03  0.86943808951E+02 0.  0.
        -11    1    4    4    0    0  0.32427875711E+02  0.67356161919E+01 -0.97720091203E+01  0.34531548051E+02  0.00000000000E+00 0. -1.
         11    1    4    4    0    0 -0.37417258664E+02 -0.54769912829E+02 -0.20989332083E+02  0.69572599913E+02  0.00000000000E+00 0.  1.
        -13    1    3    3    0    0 -0.18297004870E+02  0.88045394435E+02  0.20421217804E+02  0.92216039847E+02  0.00000000000E+00 0.  1.
         13    1    3    3    0    0  0.20720354617E+02 -0.18541845330E+02  0.41344920666E+01  0.28110979142E+02  0.00000000000E+00 0. -1.
         21    1    1    2  502  501  0.25660332075E+01 -0.21469252467E+02 -0.36732248237E+01  0.21931846902E+02  0.00000000000E+00 0. -1.
<scales pt_clust_5="13000.00000" pt_clust_6="13000.00000" pt_clust_7="13000.00000" pt_clust_8="13000.00000" pt_clust_9="21.62206"></scales>
<clustering>
<clus scale="   21.622">  2  9  1 -1</clus>
<clus scale="   86.944">  5  6 -1 -1</clus>
<clus scale="   95.074">  7  8 -1 -1</clus>
<clus scale="  106.030">  2  5  1 -1</clus>
<clus scale="   21.622">  2  5  1 -1</clus>
</clustering>
</event>
<event>
 9    1  0.1748361E-005  0.1010201E+03  0.7546771E-02  0.1279240E+00
          1   -1    0    0  502    0  0.00000000000E+00  0.00000000000E+00  0.69162723081E+02  0.69162723081E+02  0.00000000000E+00 0. -1.
         -1   -1    0    0    0  501 -0.00000000000E+00 -0.00000000000E+00 -0.39160563380E+03  0.39160563380E+03  0.00000000000E+00 0.  1.
         23    2    1    2    0    0  0.59370470131E+01 -0.53553648351E+02 -0.25409892028E+03  0.27552257253E+03  0.91886804851E+02 0.  0.
         23    2    1    2    0    0 -0.23805420913E+02  0.33335076276E+02  0.13132482981E+02  0.99417553778E+02  0.89629585042E+02 0.  0.
        -11    1    4    4    0    0  0.23089347429E+02  0.93857192961E+01 -0.24301949460E+02  0.34810837952E+02  0.00000000000E+00 0.  1.
         11    1    4    4    0    0 -0.46894768342E+02  0.23949356980E+02  0.37434432441E+02  0.64606715826E+02  0.00000000000E+00 0. -1.
        -11    1    3    3    0    0  0.42854357220E+02 -0.18264057802E+01 -0.10754701099E+03  0.11578510813E+03  0.00000000000E+00 0.  1.
         11    1    3    3    0    0 -0.36917310207E+02 -0.51727242571E+02 -0.14655190928E+03  0.15973746440E+03  0.00000000000E+00 0. -1.
         21    1    1    2  502  501  0.17868373900E+02  0.20218572075E+02 -0.81476473421E+02  0.85828230575E+02  0.00000000000E+00 0.  1.
<scales pt_clust_5="13000.00000" pt_clust_6="13000.00000" pt_clust_7="13000.00000" pt_clust_8="13000.00000" pt_clust_9="26.98276"></scales>
<clustering>
<clus scale="   26.983">  2  9  1 -1</clus>
<clus scale="   89.630">  5  6 -1 -1</clus>
<clus scale="   91.887">  7  8 -1 -1</clus>
<clus scale="   98.971">  1  5  2 -1</clus>
<clus scale="   98.971">  1  5  2 -1</clus>
</clustering>
</event>
<event>
 9    1  0.1748361E-005  0.1594062E+03  0.7546771E-02  0.1190176E+00
          2   -1    0    0  502    0  0.00000000000E+00  0.00000000000E+00  0.10826978953E+03  0.10826978953E+03  0.00000000000E+00 0. -1.
         -2   -1    0    0    0  501 -0.00000000000E+00 -0.00000000000E+00 -0.42891375100E+03  0.42891375100E+03  0.00000000000E+00 0.  1.
         23    2    1    2    0    0 -0.85292575733E+01  0.83087492478E+02 -0.13335216881E+03  0.17930973178E+03  0.85981971040E+02 0.  0.
         23    2    1    2    0    0 -0.14270621059E+02 -0.17852138417E+03 -0.91501556423E+02  0.22074893316E+03  0.91016599753E+02 0.  0.
        -13    1    3    3    0    0 -0.30184197714E+02  0.73727538945E+02 -0.13379143801E+03  0.15571443310E+03  0.00000000000E+00 0.  1.
         13    1    3    3    0    0  0.21654940141E+02  0.93599535326E+01  0.43926919497E+00  0.23595298686E+02  0.00000000000E+00 0. -1.
        -13    1    4    4    0    0  0.33181376410E+02 -0.34594940853E+02 -0.11138739476E+02  0.49212652745E+02  0.00000000000E+00 0.  1.
         13    1    4    4    0    0 -0.47451997470E+02 -0.14392644332E+03 -0.80362816947E+02  0.17153628041E+03  0.00000000000E+00 0. -1.
         21    1    1    2  502  501  0.22799878633E+02  0.95433891694E+02 -0.95790236233E+02  0.13712487560E+03  0.00000000000E+00 0.  1.
<scales pt_clust_5="13000.00000" pt_clust_6="13000.00000" pt_clust_7="13000.00000" pt_clust_8="13000.00000" pt_clust_9="98.11963"></scales>
<clustering>
<clus scale="   85.982">  5  6 -1 -1</clus>
<clus scale="   91.017">  7  8 -1 -1</clus>
<clus scale="   98.120">  2  9  1 -1</clus>
<clus scale="  156.586">  2  5  1 -1</clus>
<clus scale="  159.406">  1  5  2 -1</clus>
</clustering>
</event>
<event>
 9    1  0.1748361E-005  0.9285465E+02  0.7546771E-02  0.1296511E+00
          1   -1    0    0  502    0  0.00000000000E+00  0.00000000000E+00  0.12300061515E+03  0.12300061515E+03  0.00000000000E+00 0. -1.
         -1   -1    0    0    0  501 -0.00000000000E+00 -0.00000000000E+00 -0.13891644933E+03  0.13891644933E+03  0.00000000000E+00 0.  1.
         23    2    1    2    0    0 -0.12577737590E+02 -0.44307294275E+01 -0.34504162592E+02  0.99426600551E+02  0.92289115365E+02 0.  0.
         23    2    1    2    0    0 -0.13530285107E+02  0.92503359294E+01  0.61877070399E+02  0.11170884679E+03  0.91550299186E+02 0.  0.
        -11    1    4    4    0    0  0.17901306683E+01  0.39666605385E+02  0.66386211108E+02  0.77354852310E+02  0.00000000000E+00 0. -1.
         11    1    4    4    0    0 -0.15320415775E+02 -0.30416269455E+02 -0.45091407090E+01  0.34353994484E+02  0.00000000000E+00 0.  1.
        -13    1    3    3    0    0 -0.39686525250E+02  0.29493051816E+02 -0.22819750408E+02  0.54457335599E+02  0.00000000000E+00 0. -1.
         13    1    3    3    0    0  0.27108787660E+02 -0.33923781243E+02 -0.11684412184E+02  0.44969264952E+02  0.00000000000E+00 0.  1.
         21    1    1    2  502  501  0.26108022697E+02 -0.48196065020E+01 -0.43288741985E+02  0.50781617133E+02  0.00000000000E+00 0.  1.
<scales pt_clust_5="13000.00000" pt_clust_6="13000.00000" pt_clust_7="13000.00000" pt_clust_8="13000.00000" pt_clust_9="26.54915"></scales>
<clustering>
<clus scale="   26.549">  2  9  1 -1</clus>
<clus scale="   91.550">  5  6 -1 -1</clus>
<clus scale="   92.120">  1  5  2 -1</clus>
<clus scale="   92.289">  7  8 -1 -1</clus>
<clus scale="   92.120">  1  5  2 -1</clus>
</clustering>
</event>
<event>
 9    1  0.1748361E-005  0.1515432E+03  0.7546771E-02  0.1199283E+00
         -1   -1    0    0    0  501 -0.00000000000E+00  0.00000000000E+00  0.99271946868E+02  0.99271946868E+02  0.00000000000E+00 0.  1.
          1   -1    0    0  502    0  0.00000000000E+00 -0.00000000000E+00 -0.48696589920E+03  0.48696589920E+03  0.00000000000E+00 0. -1.
         23    2    1    2    0    0  0.87488453100E+02  0.79849631554E+02  0.80578605446E+01  0.15144538831E+03  0.94024376828E+02 0.  0.
         23    2    1    2    0    0 -0.10441308833E+03 -0.64580030643E+02 -0.37128987805E+03  0.40135609664E+03  0.90320924439E+02 0.  0.
        -11    1    3    3    0    0  0.63300486429E+02  0.95866467244E+02  0.25389921134E+02  0.11765194099E+03  0.00000000000E+00 0.  1.
         11    1    3    3    0    0  0.24187966672E+02 -0.16016835690E+02 -0.17332060590E+02  0.33793447316E+02  0.00000000000E+00 0. -1.
        -13    1    4    4    0    0 -0.79057732400E+02 -0.96504036914E+01 -0.12881953730E+03  0.15145206679E+03  0.00000000000E+00 0.  1.
         13    1    4    4    0    0 -0.25355355930E+02 -0.54929626952E+02 -0.24247034075E+03  0.24990402985E+03  0.00000000000E+00 0. -1.
         21    1    1    2  502  501  0.16924635230E+02 -0.15269600911E+02 -0.24461934818E+02  0.33436361116E+02  0.00000000000E+00 0.  1.
<scales pt_clust_5="13000.00000" pt_clust_6="13000.00000" pt_clust_7="13000.00000" pt_clust_8="13000.00000" pt_clust_9="22.79482"></scales>
<clustering>
<clus scale="   22.795">  2  9  1 -1</clus>
<clus scale="   90.321">  7  8 -1 -1</clus>
<clus scale="   94.024">  5  6 -1 -1</clus>
<clus scale="  149.274">  2  7  1 -1</clus>
<clus scale="   22.795">  2  5  1 -1</clus>
</clustering>
</event>
<event>
 9    1  0.1748361E-005  0.1107445E+03  0.7546771E-02  0.1267684E+00
         -1   -1    0    0    0  501 -0.00000000000E+00  0.00000000000E+00  0.39765881935E+02  0.39765881935E+02  0.00000000000E+00 0.  1.
          1   -1    0    0  502    0  0.00000000000E+00 -0.00000000000E+00 -0.45646804081E+03  0.45646804081E+03  0.00000000000E+00 0. -1.
         23    2    1    2    0    0  0.21205392030E+02  0.16551493220E+02 -0.56427547630E+02  0.11047922150E+03  0.91093192246E+02 0.  0.
         23    2    1    2    0    0 -0.22841742941E+02  0.69516821950E+01 -0.32399965522E+03  0.34250022941E+03  0.10844611315E+03 0.  0.
        -13    1    3    3    0    0  0.13643429580E+02  0.41435308083E+02  0.48679720428E+01  0.43894476628E+02  0.00000000000E+00 0.  1.
         13    1    3    3    0    0  0.75619624507E+01 -0.24883814863E+02 -0.61295519673E+02  0.66584744876E+02  0.00000000000E+00 0. -1.
        -13    1    4    4    0    0 -0.54694139780E+02 -0.29441120036E+02 -0.16483271728E+03  0.17614781622E+03  0.00000000000E+00 0. -1.
         13    1    4    4    0    0  0.31852396839E+02  0.36392802231E+02 -0.15916693794E+03  0.16635241319E+03  0.00000000000E+00 0.  1.
         21    1    1    2  502  501  0.16363509104E+01 -0.23503175415E+02 -0.36274956021E+02  0.43254471829E+02  0.00000000000E+00 0. -1.
<scales pt_clust_5="13000.00000" pt_clust_6="13000.00000" pt_clust_7="13000.00000" pt_clust_8="13000.00000" pt_clust_9="23.56007"></scales>
<clustering>
<clus scale="   23.560">  1  9  2 -1</clus>
<clus scale="   91.093">  5  6 -1 -1</clus>
<clus scale="   93.818">  1  5  2 -1</clus>
<clus scale="  108.446">  7  8 -1 -1</clus>
<clus scale="  110.744">  2  5  1 -1</clus>
</clustering>
</event>
<event>
 9    1  0.1748361E-005  0.1063996E+03  0.7546771E-02  0.1272720E+00
          2   -1    0    0  502    0  0.00000000000E+00  0.00000000000E+00  0.50569698664E+03  0.50569698664E+03  0.00000000000E+00 0. -1.
         -2   -1    0    0    0  501 -0.00000000000E+00 -0.00000000000E+00 -0.27120018508E+02  0.27120018508E+02  0.00000000000E+00 0.  1.
         23    2    1    2    0    0 -0.36850777149E+02  0.26244600378E+02  0.17067265956E+03  0.19863425051E+03  0.90992581721E+02 0.  0.
         23    2    1    2    0    0  0.16969101461E+02 -0.10661967484E+02  0.26090012276E+03  0.28082084912E+03  0.10193060038E+03 0.  0.
        -13    1    3    3    0    0  0.15641904445E+02  0.40561970220E+02  0.10301461777E+03  0.11181213743E+03  0.00000000000E+00 0. -1.
         13    1    3    3    0    0 -0.52492681594E+02 -0.14317369842E+02  0.67658041785E+02  0.86822113072E+02  0.00000000000E+00 0.  1.
        -13    1    4    4    0    0  0.57959909820E+00 -0.51618752402E+02  0.84777765612E+02  0.99257750714E+02  0.00000000000E+00 0.  1.
         13    1    4    4    0    0  0.16389502363E+02  0.40956784918E+02  0.17612235714E+03  0.18156309841E+03  0.00000000000E+00 0. -1.
         21    1    1    2  502  501  0.19881675688E+02 -0.15582632894E+02  0.47004185819E+02  0.53361905518E+02  0.00000000000E+00 0. -1.
<scales pt_clust_5="13000.00000" pt_clust_6="13000.00000" pt_clust_7="13000.00000" pt_clust_8="13000.00000" pt_clust_9="25.26063"></scales>
<clustering>
<clus scale="   25.261">  2  9  1 -1</clus>
<clus scale="   90.993">  5  6 -1 -1</clus>
<clus scale="   95.972">  2  5  1 -1</clus>
<clus scale="  101.931">  7  8 -1 -1</clus>
<clus scale="  106.400">  1  5  2 -1</clus>
</clustering>
</event>
<event>
 9    1  0.1748361E-005  0.1354821E+03  0.7546771E-02  0.1220235E+00
          1   -1    0    0  502    0  0.00000000000E+00  0.00000000000E+00  0.50108458818E+03  0.50108458818E+03  0.00000000000E+00 0. -1.
         -1   -1    0    0    0  501 -0.00000000000E+00 -0.00000000000E+00 -0.10618790071E+03  0.10618790071E+03  0.00000000000E+00 0.  1.
         23    2    1    2    0    0  0.99957969726E+02  0.45042387496E+01  0.50823101859E+02  0.14481706266E+03  0.91526553941E+02 0.  0.
         23    2    1    2    0    0 -0.90950819090E+02 -0.35270104725E+02  0.38629458580E+03  0.40944335092E+03  0.94362698201E+02 0.  0.
        -11    1    3    3    0    0  0.24013896476E+02 -0.14665164078E+02 -0.23635504058E+02  0.36747398731E+02  0.00000000000E+00 0. -1.
         11    1    3    3    0    0  0.75944073250E+02  0.19169402828E+02  0.74458605917E+02  0.10806966393E+03  0.00000000000E+00 0.  1.
        -11    1    4    4    0    0 -0.85586358843E+02  0.28905484623E+01  0.33197901803E+03  0.34284610031E+03  0.00000000000E+00 0. -1.
         11    1    4    4    0    0 -0.53644602473E+01 -0.38160653187E+02  0.54315567773E+02  0.66597250603E+02  0.00000000000E+00 0.  1.
         21    1    1    2  502  501 -0.90071506355E+01  0.30765865976E+02 -0.42221000188E+02  0.53012075310E+02  0.00000000000E+00 0.  1.
<scales pt_clust_5="13000.00000" pt_clust_6="13000.00000" pt_clust_7="13000.00000" pt_clust_8="13000.00000" pt_clust_9="32.05725"></scales>
<clustering>
<clus scale="   32.057">  2  9  1 -1</clus>
<clus scale="   91.527">  5  6 -1 -1</clus>
<clus scale="   94.363">  7  8 -1 -1</clus>
<clus scale="  133.522">  2  5  1 -1</clus>
<clus scale="  135.482">  1  5  2 -1</clus>
</clustering>
</event>
<event>
 9    1  0.1748361E-005  0.1569220E+03  0.7546771E-02  0.1192944E+00
          1   -1    0    0  502    0  0.00000000000E+00  0.00000000000E+00  0.17664985747E+03  0.17664985747E+03  0.00000000000E+00 0. -1.
         -1   -1    0    0    0  501 -0.00000000000E+00 -0.00000000000E+00 -0.20321780886E+03  0.20321780886E+03  0.00000000000E+00 0.  1.
         23    2    1    2    0    0 -0.19604284521E+01 -0.12939575073E+03 -0.43256884667E+02  0.17068156858E+03  0.10253748678E+03 0.  0.
         23    2    1    2    0    0 -0.21026894340E+02  0.11242320215E+03  0.55549738668E+02  0.16095077241E+03  0.98682678352E+02 0.  0.
        -13    1    3    3    0    0 -0.41164453100E+02 -0.26942178508E+02  0.75770633740E+01  0.49777555898E+02  0.00000000000E+00 0. -1.
         13    1    3    3    0    0  0.39204024648E+02 -0.10245357222E+03 -0.50833948041E+02  0.12090401268E+03  0.00000000000E+00 0.  1.
        -13    1    4    4    0    0 -0.42756838698E+02  0.12010762011E+03  0.42087041091E+02  0.13425835800E+03  0.00000000000E+00 0. -1.
         13    1    4    4    0    0  0.21729944358E+02 -0.76844179618E+01  0.13462697577E+02  0.26692414414E+02  0.00000000000E+00 0.  1.
         21    1    1    2  502  501  0.22987322793E+02  0.16972548574E+02 -0.38860805397E+02  0.48235325337E+02  0.00000000000E+00 0. -1.
<scales pt_clust_5="13000.00000" pt_clust_6="13000.00000" pt_clust_7="13000.00000" pt_clust_8="13000.00000" pt_clust_9="28.57419"></scales>
<clustering>
<clus scale="   28.574">  2  9  1 -1</clus>
<clus scale="   98.683">  7  8 -1 -1</clus>
<clus scale="  102.537">  5  6 -1 -1</clus>
<clus scale="  154.431">  1  7  2 -1</clus>
<clus scale="  154.431">  1  5  2 -1</clus>
</clustering>
</event>
<event>
 9    1  0.1748361E-005  0.2623420E+03  0.7546771E-02  0.1105873E+00
          3   -1    0    0  502    0  0.00000000000E+00  0.00000000000E+00  0.14984296278E+03  0.14984296278E+03  0.00000000000E+00 0. -1.
         -3   -1    0    0    0  501 -0.00000000000E+00 -0.00000000000E+00 -0.56456411035E+03  0.56456411035E+03  0.00000000000E+00 0.  1.
         23    2    1    2    0    0 -0.13388298463E+03 -0.23584546551E+03 -0.24476370344E+03  0.37630500206E+03  0.90268748079E+02 0.  0.
         23    2    1    2    0    0  0.12330166277E+03  0.19218539612E+03 -0.13380526001E+03  0.28043798825E+03  0.92752849658E+02 0.  0.
        -11    1    4    4    0    0  0.46373261220E+02  0.51280544108E+02 -0.91012321941E+02  0.11429530308E+03  0.00000000000E+00 0.  1.
         11    1    4    4    0    0  0.76928401550E+02  0.14090485202E+03 -0.42792938068E+02  0.16614268517E+03  0.00000000000E+00 0. -1.
        -13    1    3    3    0    0 -0.13404889577E+03 -0.15646755372E+03 -0.18557164076E+03  0.27728691942E+03  0.00000000000E+00 0.  1.
         13    1    3    3    0    0  0.16591114395E+00 -0.79377911784E+02 -0.59192062687E+02  0.99018082646E+02  0.00000000000E+00 0. -1.
         21    1    1    2  502  501  0.10581321861E+02  0.43660069384E+02 -0.36152184121E+02  0.57664082822E+02  0.00000000000E+00 0. -1.
<scales pt_clust_5="13000.00000" pt_clust_6="13000.00000" pt_clust_7="13000.00000" pt_clust_8="13000.00000" pt_clust_9="44.92400"></scales>
<clustering>
<clus scale="   44.924">  2  9  1 -1</clus>
<clus scale="   90.269">  7  8 -1 -1</clus>
<clus scale="   92.753">  5  6 -1 -1</clus>
<clus scale="  261.474">  2  7  1 -1</clus>
<clus scale="  262.342">  1  5  2 -1</clus>
</clustering>
</event>
<event>
 9    1  0.1748361E-005  0.9310103E+02  0.7546771E-02  0.1296704E+00
          1   -1    0    0  502    0  0.00000000000E+00  0.00000000000E+00  0.50132326905E+03  0.50132326905E+03  0.00000000000E+00 0. -1.
         -1   -1    0    0    0  501 -0.00000000000E+00 -0.00000000000E+00 -0.24404261403E+02  0.24404261403E+02  0.00000000000E+00 0.  1.
         23    2    1    2    0    0  0.23386571908E+01  0.54499919371E+01  0.19795593731E+03  0.21764762329E+03  0.90270499486E+02 0.  0.
         23    2    1    2    0    0 -0.19853069761E+02  0.65837848531E+01  0.26787702825E+03  0.28411187094E+03  0.92325307160E+02 0.  0.
        -11    1    4    4    0    0 -0.50377182478E+02 -0.83878231131E+01  0.94346359378E+02  0.10728211230E+03  0.00000000000E+00 0.  1.
         11    1    4    4    0    0  0.30524112716E+02  0.14971607966E+02  0.17353066887E+03  0.17682975864E+03  0.00000000000E+00 0. -1.
        -13    1    3    3    0    0  0.35444285986E+02 -0.21489396613E+02  0.13772374978E+03  0.14382601583E+03  0.00000000000E+00 0.  1.
         13    1    3    3    0    0 -0.33105628795E+02  0.26939388550E+02  0.60232187531E+02  0.73821607461E+02  0.00000000000E+00 0. -1.
         21    1    1    2  502  501  0.17514412571E+02 -0.12033776790E+02  0.11086042096E+02  0.23968036233E+02  0.00000000000E+00 0. -1.
<scales pt_clust_5="13000.00000" pt_clust_6="13000.00000" pt_clust_7="13000.00000" pt_clust_8="13000.00000" pt_clust_9="21.25009"></scales>
<clustering>
<clus scale="   21.250">  2  9  1 -1</clus>
<clus scale="   90.270">  7  8 -1 -1</clus>
<clus scale="   91.064">  2  7  1 -1</clus>
<clus scale="   92.325">  5  6 -1 -1</clus>
<clus scale="   93.101">  1  5  2 -1</clus>
</clustering>
</event>
<event>
 9    1  0.1748361E-005  0.1384058E+03  0.7546771E-02  0.1215530E+00
         -1   -1    0    0    0  501 -0.00000000000E+00  0.00000000000E+00  0.34764245321E+03  0.34764245321E+03  0.00000000000E+00 0.  1.
          1   -1    0    0  502    0  0.00000000000E+00 -0.00000000000E+00 -0.13048071188E+03  0.13048071188E+03  0.00000000000E+00 0. -1.
         23    2    1    2    0    0  0.58441815709E+02  0.65987620224E+02  0.12966228125E+03  0.18166662963E+03  0.91764074092E+02 0.  0.
         23    2    1    2    0    0 -0.93282209148E+02 -0.57064752775E+02 -0.52273836917E+02  0.15213035927E+03  0.91940935574E+02 0.  0.
        -11    1    4    4    0    0 -0.11112428807E+03 -0.41659952364E+02 -0.48736626060E+02  0.12829426235E+03  0.00000000000E+00 0.  1.
         11    1    4    4    0    0  0.17842078927E+02 -0.15404800411E+02 -0.35372108568E+01  0.23836096929E+02  0.00000000000E+00 0. -1.
        -13    1    3    3    0    0 -0.22764220846E+02  0.30829518216E+01  0.35706058559E+02  0.42457472375E+02  0.00000000000E+00 0.  1.
         13    1    3    3    0    0  0.81206036555E+02  0.62904668402E+02  0.93956222693E+02  0.13920915725E+03  0.00000000000E+00 0. -1.
         21    1    1    2  502  501  0.34840393438E+02 -0.89228674489E+01  0.13977329700E+03  0.14432617619E+03  0.00000000000E+00 0. -1.
<scales pt_clust_5="13000.00000" pt_clust_6="13000.00000" pt_clust_7="13000.00000" pt_clust_8="13000.00000" pt_clust_9="35.96485"></scales>
<clustering>
<clus scale="   35.965">  1  9  2 -1</clus>
<clus scale="   91.764">  7  8 -1 -1</clus>
<clus scale="   91.941">  5  6 -1 -1</clus>
<clus scale="  138.288">  1  7  2 -1</clus>
<clus scale="  138.406">  2  5  1 -1</clus>
</clustering>
</event>
<event>
 9    1  0.1748361E-005  0.1009322E+03  0.7546771E-02  0.1279300E+00
         -1   -1    0    0    0  501 -0.00000000000E+00  0.00000000000E+00  0.41144079477E+03  0.41144079477E+03  0.00000000000E+00 0.  1.
          1   -1    0    0  502    0  0.00000000000E+00 -0.00000000000E+00 -0.10998835481E+03  0.10998835481E+03  0.00000000000E+00 0. -1.
         23    2    1    2    0    0 -0.68187562246E+02  0.13914314508E+02  0.31624182857E+03  0.33617047777E+03  0.90324659944E+02 0.  0.
         23    2    1    2    0    0  0.38609274180E+02  0.10153208792E+01 -0.69122993679E+02  0.12161977037E+03  0.92312910039E+02 0.  0.
        -11    1    4    4    0    0  0.64251203448E+02 -0.10649223021E+02 -0.66893249443E+02  0.93361287034E+02  0.00000000000E+00 0. -1.
         11    1    4    4    0    0 -0.25641929268E+02  0.11664543900E+02 -0.22297442360E+01  0.28258483334E+02  0.00000000000E+00 0.  1.
        -13    1    3    3    0    0 -0.84900343625E+02  0.30303867980E+02  0.26265442276E+03  0.27769360554E+03  0.00000000000E+00 0.  1.
         13    1    3    3    0    0  0.16712781379E+02 -0.16389553473E+02  0.53587405805E+02  0.58476872227E+02  0.00000000000E+00 0. -1.
         21    1    1    2  502  501  0.29578288065E+02 -0.14929635387E+02  0.54333605064E+02  0.63638901443E+02  0.00000000000E+00 0. -1.
<scales pt_clust_5="13000.00000" pt_clust_6="13000.00000" pt_clust_7="13000.00000" pt_clust_8="13000.00000" pt_clust_9="33.13260"></scales>
<clustering>
<clus scale="   33.133">  1  9  2 -1</clus>
<clus scale="   90.325">  7  8 -1 -1</clus>
<clus scale="   92.313">  5  6 -1 -1</clus>
<clus scale="   99.117">  1  7  2 -1</clus>
<clus scale="  100.932">  2  5  1 -1</clus>
</clustering>
</event>
<event>
 9    1  0.1748361E-005  0.1036482E+03  0.7546771E-02  0.1274284E+00
         -3   -1    0    0    0  501 -0.00000000000E+00  0.00000000000E+00  0.43092833266E+03  0.43092833266E+03  0.00000000000E+00 0.  1.
          3   -1    0    0  502    0  0.00000000000E+00 -0.00000000000E+00 -0.32037346654E+02  0.32037346654E+02  0.00000000000E+00 0. -1.
         23    2    1    2    0    0 -0.28664933061E+02 -0.10142945043E+02  0.23836358372E+03  0.26081651318E+03  0.10140758247E+03 0.  0.
         23    2    1    2    0    0  0.54726639423E+01  0.63091065301E+01  0.12157649802E+03  0.15665463231E+03  0.98438173884E+02 0.  0.
        -11    1    4    4    0    0  0.30588629741E+02  0.39807649764E+02  0.37272621016E+02  0.62526486600E+02  0.00000000000E+00 0. -1.
         11    1    4    4    0    0 -0.25115965799E+02 -0.33498543234E+02  0.84303877009E+02  0.94128145714E+02  0.00000000000E+00 0.  1.
        -13    1    3    3    0    0 -0.60339232677E+02 -0.71239727567E+01  0.86817417500E+02  0.10596621145E+03  0.00000000000E+00 0.  1.
         13    1    3    3    0    0  0.31674299616E+02 -0.30189722861E+01  0.15154616622E+03  0.15485030173E+03  0.00000000000E+00 0. -1.
         21    1    1    2  502  501  0.23192269119E+02  0.38338385127E+01  0.38950904258E+02  0.45494533816E+02  0.00000000000E+00 0.  1.
<scales pt_clust_5="13000.00000" pt_clust_6="13000.00000" pt_clust_7="13000.00000" pt_clust_8="13000.00000" pt_clust_9="23.50701"></scales>
<clustering>
<clus scale="   23.507">  2  9  1 -1</clus>
<clus scale="   98.438">  5  6 -1 -1</clus>
<clus scale="  100.745">  2  5  1 -1</clus>
<clus scale="  101.408">  7  8 -1 -1</clus>
<clus scale="   23.507">  2  5  1 -1</clus>
</clustering>
</event>
<event>
 9    1  0.1748361E-005  0.1056486E+03  0.7546771E-02  0.1269051E+00
          1   -1    0    0  502    0  0.00000000000E+00  0.00000000000E+00  0.77179626784E+02  0.77179626784E+02  0.00000000000E+00 0. -1.
         -1   -1    0    0    0  501 -0.00000000000E+00 -0.00000000000E+00 -0.29317186928E+03  0.29317186928E+03  0.00000000000E+00 0.  1.
         23    2    1    2    0    0 -0.25964285383E+02 -0.69698227560E+02 -0.10111720899E+03  0.15580379573E+03  0.92293801355E+02 0.  0.
         23    2    1    2    0    0  0.27610159426E+02  0.32564087807E+02 -0.82075952729E+01  0.10158932032E+03  0.91816581644E+02 0.  0.
        -11    1    3    3    0    0  0.24094624458E+02 -0.40313761512E+02 -0.10396426848E+02  0.48102349071E+02  0.00000000000E+00 0. -1.
         11    1    3    3    0    0 -0.50058909840E+02 -0.29384466048E+02 -0.90720782142E+02  0.10770144666E+03  0.00000000000E+00 0.  1.
        -13    1    4    4    0    0 -0.27686084573E+02 -0.80873031063E+00 -0.22209324253E+02  0.35502498609E+02  0.00000000000E+00 0.  1.
         13    1    4    4    0    0  0.55296243999E+02  0.33372818117E+02  0.14001728980E+02  0.66086821712E+02  0.00000000000E+00 0. -1.
         21    1    1    2  502  501 -0.16458740437E+01  0.37134139753E+02 -0.10666743823E+03  0.11295838002E+03  0.00000000000E+00 0. -1.
<scales pt_clust_5="13000.00000" pt_clust_6="13000.00000" pt_clust_7="13000.00000" pt_clust_8="13000.00000" pt_clust_9="37.17060"></scales>
<clustering>
<clus scale="   37.171">  2  9  1 -1</clus>
<clus scale="   91.817">  7  8 -1 -1</clus>
<clus scale="   92.294">  5  6 -1 -1</clus>
<clus scale="  105.232">  1  7  2 -1</clus>
<clus scale="  105.232">  1  5  2 -1</clus>
</clustering>
</event>
<event>
 9    1  0.1748361E-005  0.1125192E+03  0.7546771E-02  0.1256856E+00
          1   -1    0    0  502    0  0.00000000000E+00  0.00000000000E+00  0.37262008628E+03  0.37262008628E+03  0.00000000000E+00 0. -1.
         -1   -1    0    0    0  501 -0.00000000000E+00 -0.00000000000E+00 -0.53028991212E+02  0.53028991212E+02  0.00000000000E+00 0.  1.
         23    2    1    2    0    0  0.69211270994E+02  0.18264081970E+02  0.57570274029E+02  0.12975876279E+03  0.91647276806E+02 0.  0.
         23    2    1    2    0    0 -0.59274775150E+02  0.31597698227E+01  0.23526307583E+03  0.26020148866E+03  0.93982002213E+02 0.  0.
        -11    1    4    4    0    0 -0.64893685760E+00  0.34601872233E+02  0.35181430147E+02  0.49350214876E+02  0.00000000000E+00 0.  1.
         11    1    4    4    0    0 -0.58625838292E+02 -0.31442102410E+02  0.20008164568E+03  0.21085127379E+03  0.00000000000E+00 0. -1.
        -13    1    3    3    0    0  0.22341920183E+02  0.35990589003E+02  0.66513273497E+02  0.78857462840E+02  0.00000000000E+00 0. -1.
         13    1    3    3    0    0  0.46869350811E+02 -0.17726507033E+02 -0.89429994680E+01  0.50901299949E+02  0.00000000000E+00 0.  1.
         21    1    1    2  502  501 -0.99364958441E+01 -0.21423851793E+02  0.26757745205E+02  0.35688826035E+02  0.00000000000E+00 0.  1.
<scales pt_clust_5="13000.00000" pt_clust_6="13000.00000" pt_clust_7="13000.00000" pt_clust_8="13000.00000" pt_clust_9="23.61600"></scales>
<clustering>
<clus scale="   23.616">  2  9  1 -1</clus>
<clus scale="   91.647">  7  8 -1 -1</clus>
<clus scale="   93.982">  5  6 -1 -1</clus>
<clus scale="  110.577">  2  7  1 -1</clus>
<clus scale="  112.519">  1  5  2 -1</clus>
</clustering>
</event>
<event>
 9    1  0.1748361E-005  0.2047528E+03  0.7546771E-02  0.1146039E+00
          1   -1    0    0  502    0  0.00000000000E+00  0.00000000000E+00  0.69600217657E+03  0.69600217657E+03  0.00000000000E+00 0. -1.
         -1   -1    0    0    0  501 -0.00000000000E+00 -0.00000000000E+00 -0.74572808606E+02  0.74572808606E+02  0.00000000000E+00 0.  1.
         23    2    1    2    0    0 -0.28418304101E+02  0.18878776072E+03  0.32854836530E+03  0.39136153084E+03  0.93655757327E+02 0.  0.
         23    2    1    2    0    0  0.54183448277E+02 -0.16595729492E+03  0.28038313697E+03  0.34259010836E+03  0.90970374545E+02 0.  0.
        -11    1    3    3    0    0 -0.58415616480E+02  0.15129248607E+03  0.27645123142E+03  0.32051066120E+03  0.00000000000E+00 0.  1.
         11    1    3    3    0    0  0.29997312379E+02  0.37495274654E+02  0.52097133874E+02  0.70850869643E+02  0.00000000000E+00 0. -1.
        -11    1    4    4    0    0  0.20470969103E+02 -0.81114113592E+02  0.21382687447E+03  0.22960943414E+03  0.00000000000E+00 0. -1.
         11    1    4    4    0    0  0.33712479174E+02 -0.84843181323E+02  0.66556262499E+02  0.11298067422E+03  0.00000000000E+00 0.  1.
         21    1    1    2  502  501 -0.25765144175E+02 -0.22830465803E+02  0.12497865696E+02  0.36623345971E+02  0.00000000000E+00 0. -1.
<scales pt_clust_5="13000.00000" pt_clust_6="13000.00000" pt_clust_7="13000.00000" pt_clust_8="13000.00000" pt_clust_9="34.42489"></scales>
<clustering>
<clus scale="   34.425">  2  9  1 -1</clus>
<clus scale="   90.970">  7  8 -1 -1</clus>
<clus scale="   93.656">  5  6 -1 -1</clus>
<clus scale="  203.538">  1  7  2 -1</clus>
<clus scale="  203.538">  1  5  2 -1</clus>
</clustering>
</event>
<event>
 9    1  0.1748361E-005  0.9664565E+02  0.7546771E-02  0.1287564E+00
          2   -1    0    0  502    0  0.00000000000E+00  0.00000000000E+00  0.14804684167E+03  0.14804684167E+03  0.00000000000E+00 0. -1.
         -2   -1    0    0    0  501 -0.00000000000E+00 -0.00000000000E+00 -0.86780537067E+02  0.86780537067E+02  0.00000000000E+00 0.  1.
         23    2    1    2    0    0  0.37249908562E+02 -0.18520072978E+02  0.13316204982E+02  0.10203544044E+03  0.92213670349E+02 0.  0.
         23    2    1    2    0    0 -0.10779906056E+02  0.20276387534E+02  0.47742254283E+02  0.10626291885E+03  0.92114856628E+02 0.  0.
        -11    1    4    4    0    0  0.23599725876E+02  0.26756939270E+02 -0.11480019424E+02  0.37478950179E+02  0.00000000000E+00 0.  1.
         11    1    4    4    0    0 -0.34379631932E+02 -0.64805517356E+01  0.59222273707E+02  0.68783968667E+02  0.00000000000E+00 0. -1.
        -13    1    3    3    0    0  0.58014614756E+02 -0.39175491482E+02  0.18229561703E+02  0.72337622148E+02  0.00000000000E+00 0. -1.
         13    1    3    3    0    0 -0.20764706194E+02  0.20655418505E+02 -0.49133567210E+01  0.29697818290E+02  0.00000000000E+00 0.  1.
         21    1    1    2  502  501 -0.26470002506E+02 -0.17563145565E+01  0.20784533833E+00  0.26529019454E+02  0.00000000000E+00 0. -1.
<scales pt_clust_5="13000.00000" pt_clust_6="13000.00000" pt_clust_7="13000.00000" pt_clust_8="13000.00000" pt_clust_9="26.52821"></scales>
<clustering>
<clus scale="   26.528">  2  9  1 -1</clus>
<clus scale="   92.115">  5  6 -1 -1</clus>
<clus scale="   92.214">  7  8 -1 -1</clus>
<clus scale="   96.551">  1  5  2 -1</clus>
<clus scale="   96.551">  1  5  2 -1</clus>
</clustering>
</event>
<event>
 9    1  0.1748361E-005  0.3250083E+03  0.7546771E-02  0.1114941E+00
          2   -1    0    0  502    0  0.00000000000E+00  0.00000000000E+00  0.18105047592E+04  0.18105047592E+04  0.00000000000E+00 0. -1.
         -2   -1    0    0    0  501 -0.00000000000E+00 -0.00000000000E+00 -0.82774680317E+02  0.82774680317E+02  0.00000000000E+00 0.  1.
         23    2    1    2    0    0  0.32675190028E+03  0.38006546739E+02  0.52437893465E+03  0.62563656634E+03  0.90755408141E+02 0.  0.
         23    2    1    2    0    0 -0.50900123676E+02  0.37623374748E+02  0.26321194409E+03  0.28495482333E+03  0.88951576191E+02 0.  0.
        -13    1    4    4    0    0 -0.30678001636E+02 -0.25667547525E+02  0.69803903853E+02  0.80452145860E+02  0.00000000000E+00 0.  1.
         13    1    4    4    0    0 -0.20222122040E+02  0.63290922274E+02  0.19340804024E+03  0.20450267747E+03  0.00000000000E+00 0. -1.
        -13    1    3    3    0    0  0.54083153789E+02  0.41797068390E+02  0.11380051573E+03  0.13274991461E+03  0.00000000000E+00 0.  1.
         13    1    3    3    0    0  0.27266874649E+03 -0.37905216519E+01  0.41057841892E+03  0.49288665173E+03  0.00000000000E+00 0. -1.
         21    1    1    2  502  501 -0.27585177660E+03 -0.75629921487E+02  0.94013920011E+03  0.98268804982E+03  0.00000000000E+00 0.  1.
<scales pt_clust_5="13000.00000" pt_clust_6="13000.00000" pt_clust_7="13000.00000" pt_clust_8="13000.00000" pt_clust_9="312.07992"></scales>
<clustering>
<clus scale="   88.952">  5  6 -1 -1</clus>
<clus scale="   90.755">  7  8 -1 -1</clus>
<clus scale="  109.173">  1  5  2 -1</clus>
<clus scale="  312.080">  1  9  2 -1</clus>
<clus scale="  109.173">  1  5  2 -1</clus>
</clustering>
</event>
<event>
 9    1  0.1748361E-005  0.9952146E+02  0.7546771E-02  0.1281817E+00
          2   -1    0    0  502    0  0.00000000000E+00  0.00000000000E+00  0.20806673077E+03  0.20806673077E+03  0.00000000000E+00 0. -1.
         -2   -1    0    0    0  501 -0.00000000000E+00 -0.00000000000E+00 -0.79552010820E+02  0.79552010820E+02  0.00000000000E+00 0.  1.
         23    2    1    2    0    0 -0.24175640747E+02  0.11490208818E+02  0.29751782105E+01  0.93642005444E+02  0.89685489316E+02 0.  0.
         23    2    1    2    0    0  0.49070190276E+02 -0.77451928422E+01  0.13333047790E+03  0.16762408112E+03  0.88616841791E+02 0.  0.
        -11    1    3    3    0    0 -0.26595541366E+02 -0.30570983155E+02 -0.20501627219E+02  0.45411722608E+02  0.00000000000E+00 0.  1.
         11    1    3    3    0    0  0.24199006189E+01  0.42061191974E+02  0.23476805429E+02  0.48230282836E+02  0.00000000000E+00 0. -1.
        -13    1    4    4    0    0  0.12723005348E+02  0.29550674079E+02  0.99079221077E+01  0.33664285587E+02  0.00000000000E+00 0.  1.
         13    1    4    4    0    0  0.36347184928E+02 -0.37295866921E+02  0.12342255579E+03  0.13395979553E+03  0.00000000000E+00 0. -1.
         21    1    1    2  502  501 -0.24894549529E+02 -0.37450159760E+01 -0.77909361541E+01  0.26352655029E+02  0.00000000000E+00 0.  1.
<scales pt_clust_5="13000.00000" pt_clust_6="13000.00000" pt_clust_7="13000.00000" pt_clust_8="13000.00000" pt_clust_9="25.17466"></scales>
<clustering>
<clus scale="   25.175">  2  9  1 -1</clus>
<clus scale="   88.617">  7  8 -1 -1</clus>
<clus scale="   89.685">  5  6 -1 -1</clus>
<clus scale="   98.560">  1  7  2 -1</clus>
<clus scale="   98.560">  1  5  2 -1</clus>
</clustering>
</event>
<event>
 9    1  0.1748361E-005  0.2383142E+03  0.7546771E-02  0.1120955E+00
         -1   -1    0    0    0  501 -0.00000000000E+00  0.00000000000E+00  0.14836350770E+03  0.14836350770E+03  0.00000000000E+00 0.  1.
          1   -1    0    0  502    0  0.00000000000E+00 -0.00000000000E+00 -0.70314702606E+03  0.70314702606E+03  0.00000000000E+00 0. -1.
         23    2    1    2    0    0 -0.17844595549E+03  0.13104139355E+03 -0.97565102898E+02  0.25836019486E+03  0.90643450576E+02 0.  0.
         23    2    1    2    0    0  0.12414234872E+03 -0.18607710931E+03 -0.45597999311E+03  0.51582411173E+03  0.90115186153E+02 0.  0.
        -13    1    3    3    0    0 -0.35493353832E+02  0.65442378294E+01  0.13641092924E+02  0.38583476142E+02  0.00000000000E+00 0.  1.
         13    1    3    3    0    0 -0.14295260166E+03  0.12449715572E+03 -0.11120619582E+03  0.21977671872E+03  0.00000000000E+00 0. -1.
        -13    1    4    4    0    0  0.58479922378E+02 -0.14774049122E+03 -0.35899635871E+03  0.39258825712E+03  0.00000000000E+00 0.  1.
         13    1    4    4    0    0  0.65662426340E+02 -0.38336618097E+02 -0.96983634403E+02  0.12323585461E+03  0.00000000000E+00 0. -1.
         21    1    1    2  502  501  0.54303606772E+02  0.55035715763E+02 -0.12384223554E+01  0.77326227167E+02  0.00000000000E+00 0.  1.
<scales pt_clust_5="13000.00000" pt_clust_6="13000.00000" pt_clust_7="13000.00000" pt_clust_8="13000.00000" pt_clust_9="77.31631"></scales>
<clustering>
<clus scale="   77.316">  1  9  2 -1</clus>
<clus scale="   90.115">  7  8 -1 -1</clus>
<clus scale="   90.643">  5  6 -1 -1</clus>
<clus scale="  238.114">  2  7  1 -1</clus>
<clus scale="  238.114">  2  5  1 -1</clus>
</clustering>
</event>
<event>
 9    1  0.1748361E-005  0.1014448E+03  0.7546771E-02  0.1279228E+00
         -2   -1    0    0    0  501 -0.00000000000E+00  0.00000000000E+00  0.38637555218E+02  0.38637555218E+02  0.00000000000E+00 0.  1.
          2   -1    0    0  502    0  0.00000000000E+00 -0.00000000000E+00 -0.38578266810E+03  0.38578266810E+03  0.00000000000E+00 0. -1.
         23    2    1    2    0    0  0.21627787162E+02 -0.17796234997E+02 -0.10081973344E+03  0.14117354655E+03  0.94767528393E+02 0.  0.
         23    2    1    2    0    0 -0.64006991930E+01  0.42989555316E+02 -0.22618792928E+03  0.24758038321E+03  0.90807466567E+02 0.  0.
        -11    1    4    4    0    0  0.35392639278E+02  0.46652711087E+02 -0.13861726519E+03  0.15047877118E+03  0.00000000000E+00 0. -1.
         11    1    4    4    0    0 -0.41793338471E+02 -0.36631557713E+01 -0.87570664090E+02  0.97101612035E+02  0.00000000000E+00 0.  1.
        -13    1    3    3    0    0 -0.34664677328E+02  0.70038984428E+01 -0.23906846178E+02  0.42687606419E+02  0.00000000000E+00 0.  1.
         13    1    3    3    0    0  0.56292464490E+02 -0.24800133440E+02 -0.76912887260E+02  0.98485940132E+02  0.00000000000E+00 0. -1.
         21    1    1    2  502  501 -0.15227087969E+02 -0.25193320318E+02 -0.20137450166E+02  0.35666293554E+02  0.00000000000E+00 0.  1.
<scales pt_clust_5="13000.00000" pt_clust_6="13000.00000" pt_clust_7="13000.00000" pt_clust_8="13000.00000" pt_clust_9="29.43752"></scales>
<clustering>
<clus scale="   29.438">  1  9  2 -1</clus>
<clus scale="   90.807">  5  6 -1 -1</clus>
<clus scale="   94.768">  7  8 -1 -1</clus>
<clus scale="   97.756">  2  5  1 -1</clus>
<clus scale="   97.756">  2  5  1 -1</clus>
</clustering>
</event>
<event>
 9    1  0.1748361E-005  0.1045498E+03  0.7546771E-02  0.1272002E+00
          1   -1    0    0  502    0  0.00000000000E+00  0.00000000000E+00  0.27390896368E+03  0.27390896368E+03  0.00000000000E+00 0. -1.
         -1   -1    0    0    0  501 -0.00000000000E+00 -0.00000000000E+00 -0.32111911900E+03  0.32111911900E+03  0.00000000000E+00 0.  1.
         23    2    1    2    0    0  0.96281742332E+01  0.59489650379E+02 -0.20343940805E+03  0.23143753393E+03  0.92433863517E+02 0.  0.
         23    2    1    2    0    0  0.14984407544E+02 -0.41398671350E+02  0.24682435495E+03  0.26798440223E+03  0.94630836326E+02 0.  0.
        -11    1    3    3    0    0 -0.33263861872E+02  0.52006600002E+02 -0.83525490995E+02  0.10386375016E+03  0.00000000000E+00 0.  1.
         11    1    3    3    0    0  0.42892036106E+02  0.74830503772E+01 -0.11991391705E+03  0.12757378378E+03  0.00000000000E+00 0. -1.
        -13    1    4    4    0    0  0.51128225890E+02 -0.38140959726E+02  0.19128107195E+03  0.20163649665E+03  0.00000000000E+00 0. -1.
         13    1    4    4    0    0 -0.36143818346E+02 -0.32577116243E+01  0.55543282995E+02  0.66347905585E+02  0.00000000000E+00 0.  1.
         21    1    1    2  502  501 -0.24612581777E+02 -0.18090979029E+02 -0.90595102226E+02  0.95606146514E+02  0.00000000000E+00 0.  1.
<scales pt_clust_5="13000.00000" pt_clust_6="13000.00000" pt_clust_7="13000.00000" pt_clust_8="13000.00000" pt_clust_9="30.54608"></scales>
<clustering>
<clus scale="   30.546">  2  9  1 -1</clus>
<clus scale="   92.434">  5  6 -1 -1</clus>
<clus scale="   94.631">  7  8 -1 -1</clus>
<clus scale="  102.566">  2  5  1 -1</clus>
<clus scale="  104.550">  1  5  2 -1</clus>
</clustering>
</event>
<event>
 9    1  0.1748361E-005  0.9511726E+02  0.7546771E-02  0.1297386E+00
          2   -1    0    0  502    0  0.00000000000E+00  0.00000000000E+00  0.49317182773E+03  0.49317182773E+03  0.00000000000E+00 0. -1.
         -2   -1    0    0    0  501 -0.00000000000E+00 -0.00000000000E+00 -0.24942492168E+02  0.24942492168E+02  0.00000000000E+00 0.  1.
         23    2    1    2    0    0  0.16633825469E+02 -0.47110661384E+02  0.22987345569E+03  0.25176539417E+03  0.89710141611E+02 0.  0.
         23    2    1    2    0    0  0.46364923158E+01  0.19602564217E+02  0.19296099772E+03  0.20916661068E+03  0.78172672944E+02 0.  0.
        -11    1    3    3    0    0  0.35466438760E+02 -0.91375660881E+01  0.29700084269E+02  0.47153561880E+02  0.00000000000E+00 0.  1.
         11    1    3    3    0    0 -0.18832613291E+02 -0.37973095296E+02  0.20017337142E+03  0.20461183229E+03  0.00000000000E+00 0. -1.
        -11    1    4    4    0    0 -0.26469763348E+02  0.48883944922E+01  0.21963266822E+02  0.34740896101E+02  0.00000000000E+00 0.  1.
         11    1    4    4    0    0  0.31106255664E+02  0.14714169724E+02  0.17099773090E+03  0.17442571458E+03  0.00000000000E+00 0. -1.
         21    1    1    2  502  501 -0.21270317785E+02  0.27508097167E+02  0.45394882150E+02  0.57182315045E+02  0.00000000000E+00 0.  1.
<scales pt_clust_5="13000.00000" pt_clust_6="13000.00000" pt_clust_7="13000.00000" pt_clust_8="13000.00000" pt_clust_9="34.77243"></scales>
<clustering>
<clus scale="   34.772">  2  9  1 -1</clus>
<clus scale="   78.173">  7  8 -1 -1</clus>
<clus scale="   84.323">  1  7  2 -1</clus>
<clus scale="   89.710">  5  6 -1 -1</clus>
<clus scale="   84.323">  1  5  2 -1</clus>
</clustering>
</event>
<event>
 9    1  0.1748361E-005  0.9407099E+02  0.7546771E-02  0.1301847E+00
          1   -1    0    0  502    0  0.00000000000E+00  0.00000000000E+00  0.50003639086E+02  0.50003639086E+02  0.00000000000E+00 0. -1.
         -1   -1    0    0    0  501 -0.00000000000E+00 -0.00000000000E+00 -0.36237108565E+03  0.36237108565E+03  0.00000000000E+00 0.  1.
         23    2    1    2    0    0  0.34213763468E+02  0.22335904929E+02 -0.17869589524E+03  0.19931335420E+03  0.78256730864E+02 0.  0.
         23    2    1    2    0    0  0.21094600152E+02  0.61832149734E+01 -0.11279286862E+03  0.14742392179E+03  0.92349159194E+02 0.  0.
        -11    1    3    3    0    0  0.36571300966E+02 -0.75164175064E+01 -0.30753663108E+02  0.48370904282E+02  0.00000000000E+00 0. -1.
         11    1    3    3    0    0 -0.23575374979E+01  0.29852322436E+02 -0.14794223213E+03  0.15094244991E+03  0.00000000000E+00 0.  1.
        -13    1    4    4    0    0  0.53660630071E+02  0.19966960560E+02 -0.84816668771E+02  0.10233283947E+03  0.00000000000E+00 0.  1.
         13    1    4    4    0    0 -0.32566029919E+02 -0.13783745586E+02 -0.27976199845E+02  0.45091082320E+02  0.00000000000E+00 0. -1.
         21    1    1    2  502  501 -0.55308363620E+02 -0.28519119903E+02 -0.20878682711E+02  0.65637448748E+02  0.00000000000E+00 0. -1.
<scales pt_clust_5="13000.00000" pt_clust_6="13000.00000" pt_clust_7="13000.00000" pt_clust_8="13000.00000" pt_clust_9="62.22825"></scales>
<clustering>
<clus scale="   62.228">  1  9  2 -1</clus>
<clus scale="   78.257">  5  6 -1 -1</clus>
<clus scale="   80.281">  2  5  1 -1</clus>
<clus scale="   92.349">  7  8 -1 -1</clus>
<clus scale="   62.228">  1  5  2 -1</clus>
</clustering>
</event>
<event>
 9    1  0.1748361E-005  0.9283872E+02  0.7546771E-02  0.1297619E+00
         -1   -1    0    0    0  501 -0.00000000000E+00  0.00000000000E+00  0.49646382527E+02  0.49646382527E+02  0.00000000000E+00 0.  1.
          1   -1    0    0  502    0  0.00000000000E+00 -0.00000000000E+00 -0.35375026327E+03  0.35375026327E+03  0.00000000000E+00 0. -1.
         23    2    1    2    0    0  0.18385100671E+02 -0.18181505253E+01 -0.15264436680E+03  0.17814876692E+03  0.89974234319E+02 0.  0.
         23    2    1    2    0    0  0.61411780516E+01 -0.11308993953E+02 -0.16847278942E+03  0.19263941659E+03  0.92527058943E+02 0.  0.
        -13    1    3    3    0    0  0.32691926941E+02 -0.21291898388E+02 -0.14861523704E+03  0.15365088904E+03  0.00000000000E+00 0. -1.
         13    1    3    3    0    0 -0.14306826270E+02  0.19473747863E+02 -0.40291297609E+01  0.24497877875E+02  0.00000000000E+00 0.  1.
        -13    1    4    4    0    0 -0.10137946366E+02  0.37158193437E+02 -0.46473152056E+02  0.60359449617E+02  0.00000000000E+00 0.  1.
         13    1    4    4    0    0  0.16279124418E+02 -0.48467187390E+02 -0.12199963737E+03  0.13227996697E+03  0.00000000000E+00 0. -1.
         21    1    1    2  502  501 -0.24526278723E+02  0.13127144478E+02  0.17013275479E+02  0.32608462286E+02  0.00000000000E+00 0.  1.
<scales pt_clust_5="13000.00000" pt_clust_6="13000.00000" pt_clust_7="13000.00000" pt_clust_8="13000.00000" pt_clust_9="27.81834"></scales>
<clustering>
<clus scale="   27.818">  1  9  2 -1</clus>
<clus scale="   89.974">  5  6 -1 -1</clus>
<clus scale="   90.295">  1  5  2 -1</clus>
<clus scale="   92.527">  7  8 -1 -1</clus>
<clus scale="   92.839">  2  5  1 -1</clus>
</clustering>
</event>
<event>
 9    1  0.1748361E-005  0.1267726E+03  0.7546771E-02  0.1232527E+00
         -1   -1    0    0    0  501 -0.00000000000E+00  0.00000000000E+00  0.29138849986E+03  0.29138849986E+03  0.00000000000E+00 0.  1.
          1   -1    0    0  502    0  0.00000000000E+00 -0.00000000000E+00 -0.28746729887E+03  0.28746729887E+03  0.00000000000E+00 0. -1.
         23    2    1    2    0    0 -0.26082979920E+02 -0.81505613130E+02  0.19936953953E+03  0.23526141125E+03  0.90973795766E+02 0.  0.
         23    2    1    2    0    0  0.65542695154E+02  0.59388252451E+02 -0.24521713065E+03  0.27633980074E+03  0.91702971008E+02 0.  0.
        -11    1    4    4    0    0  0.23666033464E+02  0.70625326421E+02 -0.20124274573E+03  0.21458485637E+03  0.00000000000E+00 0. -1.
         11    1    4    4    0    0  0.41876661690E+02 -0.11237073970E+02 -0.43974384916E+02  0.61754944372E+02  0.00000000000E+00 0.  1.
        -13    1    3    3    0    0  0.31785504854E+02 -0.39755394188E+02  0.59962593121E+02  0.78653177048E+02  0.00000000000E+00 0.  1.
         13    1    3    3    0    0 -0.57868484774E+02 -0.41750218942E+02  0.13940694641E+03  0.15660823420E+03  0.00000000000E+00 0. -1.
         21    1    1    2  502  501 -0.39459715234E+02  0.22117360678E+02  0.49768792111E+02  0.67254586743E+02  0.00000000000E+00 0.  1.
<scales pt_clust_5="13000.00000" pt_clust_6="13000.00000" pt_clust_7="13000.00000" pt_clust_8="13000.00000" pt_clust_9="45.23546"></scales>
<clustering>
<clus scale="   45.235">  1  9  2 -1</clus>
<clus scale="   90.974">  7  8 -1 -1</clus>
<clus scale="   91.703">  5  6 -1 -1</clus>
<clus scale="  126.246">  1  7  2 -1</clus>
<clus scale="  126.773">  2  5  1 -1</clus>
</clustering>
</event>
<event>
 9    1  0.1748361E-005  0.1125152E+03  0.7546771E-02  0.1257422E+00
          2   -1    0    0  502    0  0.00000000000E+00  0.00000000000E+00  0.42669599474E+03  0.42669599474E+03  0.00000000000E+00 0. -1.
         -2   -1    0    0    0  501 -0.00000000000E+00 -0.00000000000E+00 -0.13353699729E+03  0.13353699729E+03  0.00000000000E+00 0.  1.
         23    2    1    2    0    0  0.10917356310E+03 -0.53908356580E+02  0.60480132739E+02  0.16219017585E+03  0.88446757420E+02 0.  0.
         23    2    1    2    0    0 -0.55245692687E+02 -0.26832257928E+01  0.28455287218E+03  0.30422525358E+03  0.92322161958E+02 0.  0.
        -13    1    4    4    0    0  0.29461114921E+01 -0.37748972476E+02  0.76450761382E+02  0.85313442152E+02  0.00000000000E+00 0.  1.
         13    1    4    4    0    0 -0.58191804180E+02  0.35065746683E+02  0.20810211080E+03  0.21891181143E+03  0.00000000000E+00 0. -1.
        -13    1    3    3    0    0  0.81260559100E+02  0.71743134574E+01  0.45402373296E+02  0.93360188195E+02  0.00000000000E+00 0.  1.
         13    1    3    3    0    0  0.27913003997E+02 -0.61082670038E+02  0.15077759444E+02  0.68829987657E+02  0.00000000000E+00 0. -1.
         21    1    1    2  502  501 -0.53927870410E+02  0.56591582373E+02 -0.51874007458E+02  0.93817562600E+02  0.00000000000E+00 0. -1.
<scales pt_clust_5="13000.00000" pt_clust_6="13000.00000" pt_clust_7="13000.00000" pt_clust_8="13000.00000" pt_clust_9="78.17175"></scales>
<clustering>
<clus scale="   78.172">  2  9  1 -1</clus>
<clus scale="   88.447">  7  8 -1 -1</clus>
<clus scale="   92.322">  5  6 -1 -1</clus>
<clus scale="  109.358">  2  7  1 -1</clus>
<clus scale="  112.515">  1  5  2 -1</clus>
</clustering>
</event>
<event>
 9    1  0.1748361E-005  0.1887143E+03  0.7546771E-02  0.1160004E+00
         -1   -1    0    0    0  501 -0.00000000000E+00  0.00000000000E+00  0.11535350494E+03  0.11535350494E+03  0.00000000000E+00 0.  1.
          1   -1    0    0  502    0  0.00000000000E+00 -0.00000000000E+00 -0.40523434482E+03  0.40523434482E+03  0.00000000000E+00 0. -1.
         23    2    1    2    0    0  0.13578738892E+03 -0.10963932589E+03 -0.14152578356E+03  0.24161351135E+03  0.88817479615E+02 0.  0.
         23    2    1    2    0    0 -0.12870397004E+03  0.89886614205E+02 -0.16980093365E+03  0.24896983714E+03  0.92245907343E+02 0.  0.
        -11    1    4    4    0    0 -0.19096366519E+02 -0.13710257101E+02 -0.23703175189E+01  0.23627542596E+02  0.00000000000E+00 0.  1.
         11    1    4    4    0    0 -0.10960760352E+03  0.10359687131E+03 -0.16743061613E+03  0.22534229454E+03  0.00000000000E+00 0. -1.
        -13    1    3    3    0    0  0.39193348025E+02  0.10937389885E+02 -0.21843072910E+02  0.46182949896E+02  0.00000000000E+00 0. -1.
         13    1    3    3    0    0  0.96594040895E+02 -0.12057671577E+03 -0.11968271065E+03  0.19543056146E+03  0.00000000000E+00 0.  1.
         21    1    1    2  502  501 -0.70834188812E+01  0.19752711684E+02  0.21445877324E+02  0.30004501264E+02  0.00000000000E+00 0.  1.
<scales pt_clust_5="13000.00000" pt_clust_6="13000.00000" pt_clust_7="13000.00000" pt_clust_8="13000.00000" pt_clust_9="20.98439"></scales>
<clustering>
<clus scale="   20.984">  1  9  2 -1</clus>
<clus scale="   88.817">  7  8 -1 -1</clus>
<clus scale="   92.246">  5  6 -1 -1</clus>
<clus scale="  187.062">  1  7  2 -1</clus>
<clus scale="  188.714">  2  5  1 -1</clus>
</clustering>
</event>
<event>
 9    1  0.2278253E-005  0.1030673E+03  0.7546771E-02  0.1274905E+00
         -2   -1    0    0    0  501 -0.00000000000E+00  0.00000000000E+00  0.10727221398E+03  0.10727221398E+03  0.00000000000E+00 0.  1.
          2   -1    0    0  502    0  0.00000000000E+00 -0.00000000000E+00 -0.39475111679E+03  0.39475111679E+03  0.00000000000E+00 0. -1.
         23    2    1    2    0    0 -0.29052674615E+02 -0.22637936908E+02  0.52790065393E+02  0.10871473163E+03  0.87610317769E+02 0.  0.
         23    2    1    2    0    0  0.29163525594E+02  0.43272759614E+02 -0.35374993638E+03  0.36866017730E+03  0.89712127845E+02 0.  0.
        -11    1    3    3    0    0 -0.52322231864E+02 -0.12313735296E+02  0.42689574917E+01  0.53920942335E+02  0.00000000000E+00 0.  1.
         11    1    3    3    0    0  0.23269557249E+02 -0.10324201612E+02  0.48521107901E+02  0.54793789296E+02  0.00000000000E+00 0. -1.
        -13    1    4    4    0    0  0.40327044972E+01  0.54934688580E+02 -0.32132135348E+03  0.32600842768E+03  0.00000000000E+00 0. -1.
         13    1    4    4    0    0  0.25130821097E+02 -0.11661928967E+02 -0.32428582902E+02  0.42651749616E+02  0.00000000000E+00 0.  1.
         21    1    1    2  502  501 -0.11085097902E+00 -0.20634822705E+02  0.13480968179E+02  0.24648421837E+02  0.00000000000E+00 0.  1.
<scales pt_clust_5="13000.00000" pt_clust_6="13000.00000" pt_clust_7="13000.00000" pt_clust_8="13000.00000" pt_clust_9="20.63512"></scales>
<clustering>
<clus scale="   20.635">  1  9  2 -1</clus>
<clus scale="   87.610">  5  6 -1 -1</clus>
<clus scale="   89.712">  7  8 -1 -1</clus>
<clus scale="  101.243">  1  5  2 -1</clus>
<clus scale="  103.067">  2  5  1 -1</clus>
</clustering>
</event>
<event>
 9    1  0.1748361E-005  0.1118188E+03  0.7546771E-02  0.1258570E+00
          3   -1    0    0  502    0  0.00000000000E+00  0.00000000000E+00  0.55035151276E+02  0.55035151276E+02  0.00000000000E+00 0. -1.
         -3   -1    0    0    0  501 -0.00000000000E+00 -0.00000000000E+00 -0.32557926910E+03  0.32557926910E+03  0.00000000000E+00 0.  1.
         23    2    1    2    0    0 -0.42191107656E+02 -0.48539816029E+02 -0.19287852938E+03  0.22129677150E+03  0.87372367899E+02 0.  0.
         23    2    1    2    0    0  0.56491383829E+02  0.34515398319E+02 -0.45346335634E+02  0.12129507279E+03  0.90959416001E+02 0.  0.
        -13    1    3    3    0    0 -0.14719499084E+02 -0.69218938470E+02 -0.10212304099E+03  0.12424588765E+03  0.00000000000E+00 0.  1.
         13    1    3    3    0    0 -0.27471608572E+02  0.20679122441E+02 -0.90755488391E+02  0.97050883847E+02  0.00000000000E+00 0. -1.
        -13    1    4    4    0    0 -0.16917085393E+02 -0.16041979279E+02 -0.10910764901E+02  0.25740584067E+02  0.00000000000E+00 0.  1.
         13    1    4    4    0    0  0.73408469222E+02  0.50557377598E+02 -0.34435570733E+02  0.95554488721E+02  0.00000000000E+00 0. -1.
         21    1    1    2  502  501 -0.14300276173E+02  0.14024417710E+02 -0.32319252810E+02  0.38022576096E+02  0.00000000000E+00 0. -1.
<scales pt_clust_5="13000.00000" pt_clust_6="13000.00000" pt_clust_7="13000.00000" pt_clust_8="13000.00000" pt_clust_9="20.02953"></scales>
<clustering>
<clus scale="   20.030">  2  9  1 -1</clus>
<clus scale="   87.372">  5  6 -1 -1</clus>
<clus scale="   90.959">  7  8 -1 -1</clus>
<clus scale="  108.921">  2  5  1 -1</clus>
<clus scale="  111.819">  1  5  2 -1</clus>
</clustering>
</event>
<event>
 9    1  0.1748361E-005  0.1055464E+03  0.7546771E-02  0.1269200E+00
          2   -1    0    0  502    0  0.00000000000E+00  0.00000000000E+00  0.18821008582E+03  0.18821008582E+03  0.00000000000E+00 0. -1.
         -2   -1    0    0    0  501 -0.00000000000E+00 -0.00000000000E+00 -0.52065422181E+03  0.52065422181E+03  0.00000000000E+00 0.  1.
         23    2    1    2    0    0  0.39959472028E+02  0.26122472514E+02 -0.74619381907E+02  0.12608121160E+03  0.89717761830E+02 0.  0.
         23    2    1    2    0    0  0.10656868420E+02 -0.60243925643E+02  0.14165127122E+03  0.17867001498E+03  0.90083251461E+02 0.  0.
        -11    1    4    4    0    0  0.47474017776E+02 -0.20731761427E+02  0.90539145154E+02  0.10431167289E+03  0.00000000000E+00 0. -1.
         11    1    4    4    0    0 -0.36817149357E+02 -0.39512164216E+02  0.51112126069E+02  0.74358342095E+02  0.00000000000E+00 0.  1.
        -11    1    3    3    0    0 -0.15939067645E+02  0.28773398633E+02 -0.59705277493E+02  0.68166579104E+02  0.00000000000E+00 0.  1.
         11    1    3    3    0    0  0.55898539673E+02 -0.26509261192E+01 -0.14914104414E+02  0.57914632497E+02  0.00000000000E+00 0. -1.
         21    1    1    2  502  501 -0.50616340448E+02  0.34121453129E+02 -0.39947602530E+03  0.40411308105E+03  0.00000000000E+00 0.  1.
<scales pt_clust_5="13000.00000" pt_clust_6="13000.00000" pt_clust_7="13000.00000" pt_clust_8="13000.00000" pt_clust_9="61.04332"></scales>
<clustering>
<clus scale="   61.043">  2  9  1 -1</clus>
<clus scale="   89.718">  7  8 -1 -1</clus>
<clus scale="   90.083">  5  6 -1 -1</clus>
<clus scale="  105.235">  2  7  1 -1</clus>
<clus scale="  105.546">  1  5  2 -1</clus>
</clustering>
</event>
<event>
 9    1  0.1748361E-005  0.1528811E+03  0.7546771E-02  0.1197028E+00
         -2   -1    0    0    0  501 -0.00000000000E+00  0.00000000000E+00  0.16193670328E+03  0.16193670328E+03  0.00000000000E+00 0.  1.
          2   -1    0    0  502    0  0.00000000000E+00 -0.00000000000E+00 -0.27502038317E+03  0.27502038317E+03  0.00000000000E+00 0. -1.
         23    2    1    2    0    0 -0.65972244814E+02 -0.72167895685E+02 -0.20998669123E+02  0.13544364427E+03  0.91342730497E+02 0.  0.
         23    2    1    2    0    0  0.12745532557E+03  0.64100534472E+02 -0.14277080962E+03  0.22142410617E+03  0.91057081968E+02 0.  0.
        -11    1    3    3    0    0 -0.39725278715E+02 -0.90350926953E+02 -0.29002438178E+01  0.98741071416E+02  0.00000000000E+00 0.  1.
         11    1    3    3    0    0 -0.26246966099E+02  0.18183031268E+02 -0.18098425305E+02  0.36702572853E+02  0.00000000000E+00 0. -1.
        -13    1    4    4    0    0  0.27564211950E+02  0.33371089871E+02 -0.99130354496E+02  0.10816765969E+03  0.00000000000E+00 0. -1.
         13    1    4    4    0    0  0.99891113623E+02  0.30729444602E+02 -0.43640455124E+02  0.11325644648E+03  0.00000000000E+00 0.  1.
         21    1    1    2  502  501 -0.61483080759E+02  0.80673612123E+01  0.50685798852E+02  0.80089336006E+02  0.00000000000E+00 0.  1.
<scales pt_clust_5="13000.00000" pt_clust_6="13000.00000" pt_clust_7="13000.00000" pt_clust_8="13000.00000" pt_clust_9="62.01009"></scales>
<clustering>
<clus scale="   62.010">  1  9  2 -1</clus>
<clus scale="   91.057">  7  8 -1 -1</clus>
<clus scale="   91.343">  5  6 -1 -1</clus>
<clus scale="  152.711">  2  7  1 -1</clus>
<clus scale="  152.711">  2  5  1 -1</clus>
</clustering>
</event>
<event>
 9    1  0.1748361E-005  0.2079388E+03  0.7546771E-02  0.1143246E+00
         -3   -1    0    0    0  501 -0.00000000000E+00  0.00000000000E+00  0.16166199397E+04  0.16166199397E+04  0.00000000000E+00 0.  1.
          3   -1    0    0  502    0  0.00000000000E+00 -0.00000000000E+00 -0.35909775315E+02  0.35909775315E+02  0.00000000000E+00 0. -1.
         23    2    1    2    0    0 -0.68479926630E+02  0.16445713085E+03  0.97441723405E+03  0.99490751427E+03  0.92824391719E+02 0.  0.
         23    2    1    2    0    0  0.61481038630E+02 -0.19443191148E+03  0.53698066285E+03  0.58178248601E+03  0.92406398241E+02 0.  0.
        -11    1    3    3    0    0 -0.75554224829E+02  0.64599589449E+02  0.54339665433E+03  0.55241422120E+03  0.00000000000E+00 0.  1.
         11    1    3    3    0    0  0.70742981992E+01  0.99857541404E+02  0.43102057972E+03  0.44249329307E+03  0.00000000000E+00 0. -1.
        -13    1    4    4    0    0  0.22023609136E+02 -0.40806363323E+01  0.11521976863E+03  0.11737668438E+03  0.00000000000E+00 0. -1.
         13    1    4    4    0    0  0.39457429494E+02 -0.19035127515E+03  0.42176089421E+03  0.46440580162E+03  0.00000000000E+00 0.  1.
         21    1    1    2  502  501  0.69988879996E+01  0.29974780630E+02  0.69312267436E+02  0.75839714689E+02  0.00000000000E+00 0. -1.
<scales pt_clust_5="13000.00000" pt_clust_6="13000.00000" pt_clust_7="13000.00000" pt_clust_8="13000.00000" pt_clust_9="30.78103"></scales>
<clustering>
<clus scale="   30.781">  2  9  1 -1</clus>
<clus scale="   92.406">  7  8 -1 -1</clus>
<clus scale="   92.824">  5  6 -1 -1</clus>
<clus scale="  207.753">  2  7  1 -1</clus>
<clus scale="   30.781">  2  5  1 -1</clus>
</clustering>
</event>
<event>
 9    1  0.1748361E-005  0.1151366E+03  0.7546771E-02  0.1254248E+00
         -2   -1    0    0    0  501 -0.00000000000E+00  0.00000000000E+00  0.31444107869E+03  0.31444107869E+03  0.00000000000E+00 0.  1.
          2   -1    0    0  502    0  0.00000000000E+00 -0.00000000000E+00 -0.12271153099E+03  0.12271153099E+03  0.00000000000E+00 0. -1.
         23    2    1    2    0    0  0.22611603091E+02 -0.44659507775E+02  0.21335910742E+03  0.23823567059E+03  0.93425744799E+02 0.  0.
         23    2    1    2    0    0  0.12817170023E+02  0.56347031245E+02 -0.71619125501E+02  0.13654103945E+03  0.10087065251E+03 0.  0.
        -13    1    4    4    0    0  0.43251010588E+02  0.43645969183E+02 -0.43217041599E+01  0.61597870659E+02  0.00000000000E+00 0.  1.
         13    1    4    4    0    0 -0.30433840565E+02  0.12701062062E+02 -0.67297421341E+02  0.74943168789E+02  0.00000000000E+00 0. -1.
        -13    1    3    3    0    0  0.47593568531E+02 -0.27461946415E+01  0.56303927643E+02  0.73775481148E+02  0.00000000000E+00 0.  1.
         13    1    3    3    0    0 -0.24981965441E+02 -0.41913313134E+02  0.15705517978E+03  0.16446018944E+03  0.00000000000E+00 0. -1.
         21    1    1    2  502  501 -0.35428773114E+02 -0.11687523470E+02  0.49989565777E+02  0.62375899639E+02  0.00000000000E+00 0. -1.
<scales pt_clust_5="13000.00000" pt_clust_6="13000.00000" pt_clust_7="13000.00000" pt_clust_8="13000.00000" pt_clust_9="37.30678"></scales>
<clustering>
<clus scale="   37.307">  1  9  2 -1</clus>
<clus scale="   93.426">  7  8 -1 -1</clus>
<clus scale="  100.871">  5  6 -1 -1</clus>
<clus scale="  108.673">  1  7  2 -1</clus>
<clus scale="  115.137">  2  5  1 -1</clus>
</clustering>
</event>
<event>
 9    1  0.1748361E-005  0.1172248E+03  0.7546771E-02  0.1248268E+00
         -4   -1    0    0    0  501 -0.00000000000E+00  0.00000000000E+00  0.83077672098E+03  0.83077672098E+03  0.00000000000E+00 0.  1.
          4   -1    0    0  502    0  0.00000000000E+00 -0.00000000000E+00 -0.27071325198E+02  0.27071325198E+02  0.00000000000E+00 0. -1.
         23    2    1    2    0    0  0.83014627953E+02  0.16499694213E+02  0.42353771314E+03  0.44135963396E+03  0.90832063058E+02 0.  0.
         23    2    1    2    0    0 -0.55275964367E+02 -0.40901269207E+02  0.18546467032E+03  0.21831138699E+03  0.92381663181E+02 0.  0.
        -11    1    3    3    0    0  0.58413023180E+01 -0.31738292321E+02  0.89264517716E+02  0.94918881870E+02  0.00000000000E+00 0. -1.
         11    1    3    3    0    0  0.77173325635E+02  0.48237986534E+02  0.33427319542E+03  0.34644075209E+03  0.00000000000E+00 0.  1.
        -13    1    4    4    0    0  0.21227870019E+02  0.74860614385E+01  0.55856748074E+02  0.60221589873E+02  0.00000000000E+00 0.  1.
         13    1    4    4    0    0 -0.76503834386E+02 -0.48387330645E+02  0.12960792225E+03  0.15808979711E+03  0.00000000000E+00 0. -1.
         21    1    1    2  502  501 -0.27738663586E+02  0.24401574994E+02  0.19470301232E+03  0.19817702523E+03  0.00000000000E+00 0.  1.
<scales pt_clust_5="13000.00000" pt_clust_6="13000.00000" pt_clust_7="13000.00000" pt_clust_8="13000.00000" pt_clust_9="36.94415"></scales>
<clustering>
<clus scale="   36.944">  1  9  2 -1</clus>
<clus scale="   90.832">  5  6 -1 -1</clus>
<clus scale="   92.382">  7  8 -1 -1</clus>
<clus scale="  116.008">  1  5  2 -1</clus>
<clus scale="  117.225">  2  5  1 -1</clus>
</clustering>
</event>
<event>
 9    1  0.1748361E-005  0.9604075E+02  0.7546771E-02  0.1288928E+00
         -1   -1    0    0    0  501 -0.00000000000E+00  0.00000000000E+00  0.26849853143E+03  0.26849853143E+03  0.00000000000E+00 0.  1.
          1   -1    0    0  502    0  0.00000000000E+00 -0.00000000000E+00 -0.55289053991E+02  0.55289053991E+02  0.00000000000E+00 0. -1.
         23    2    1    2    0    0  0.37251747646E+01 -0.41557633676E+02  0.10222427305E+03  0.14326762061E+03  0.91295647598E+02 0.  0.
         23    2    1    2    0    0 -0.10054995461E+02  0.21071110293E+02  0.33538418364E+02  0.10015972006E+03  0.91444241997E+02 0.  0.
        -11    1    3    3    0    0 -0.24868353158E+02 -0.25155076385E+02  0.10440210439E+03  0.11023163002E+03  0.00000000000E+00 0.  1.
         11    1    3    3    0    0  0.28593527923E+02 -0.16402557291E+02 -0.21778313366E+01  0.33035990587E+02  0.00000000000E+00 0. -1.
        -13    1    4    4    0    0  0.33536399583E+02 -0.89610805917E+01  0.31984446693E+02  0.47201651376E+02  0.00000000000E+00 0.  1.
         13    1    4    4    0    0 -0.43591395044E+02  0.30032190885E+02  0.15539716712E+01  0.52958068688E+02  0.00000000000E+00 0. -1.
         21    1    1    2  502  501  0.63298206959E+01  0.20486523382E+02  0.77446786022E+02  0.80360244745E+02  0.00000000000E+00 0. -1.
<scales pt_clust_5="13000.00000" pt_clust_6="13000.00000" pt_clust_7="13000.00000" pt_clust_8="13000.00000" pt_clust_9="21.44211"></scales>
<clustering>
<clus scale="   21.442">  1  9  2 -1</clus>
<clus scale="   91.296">  5  6 -1 -1</clus>
<clus scale="   91.444">  7  8 -1 -1</clus>
<clus scale="   95.899">  1  5  2 -1</clus>
<clus scale="   96.041">  2  5  1 -1</clus>
</clustering>
</event>
<event>
 9    1  0.1748361E-005  0.1022483E+03  0.7546771E-02  0.1278822E+00
         -1   -1    0    0    0  501 -0.00000000000E+00  0.00000000000E+00  0.20752860996E+02  0.20752860996E+02  0.00000000000E+00 0.  1.
          1   -1    0    0  502    0  0.00000000000E+00 -0.00000000000E+00 -0.61821607835E+03  0.61821607835E+03  0.00000000000E+00 0. -1.
         23    2    1    2    0    0  0.32552471107E+01  0.28001153553E+02 -0.20812614309E+03  0.22890729728E+03  0.91035147467E+02 0.  0.
         23    2    1    2    0    0 -0.26272758536E+02 -0.25283709084E+02 -0.34005134776E+03  0.35559813894E+03  0.97394011697E+02 0.  0.
        -11    1    3    3    0    0 -0.42076268115E+02  0.23401677837E+02 -0.12764395866E+03  0.13642225275E+03  0.00000000000E+00 0.  1.
         11    1    3    3    0    0  0.45331515226E+02  0.45994757161E+01 -0.80482184434E+02  0.92485044525E+02  0.00000000000E+00 0. -1.
        -11    1    4    4    0    0 -0.58706675930E+02 -0.10653312303E+02 -0.13664751387E+03  0.14910570045E+03  0.00000000000E+00 0.  1.
         11    1    4    4    0    0  0.32433917394E+02 -0.14630396780E+02 -0.20340383390E+03  0.20649243849E+03  0.00000000000E+00 0. -1.
         21    1    1    2  502  501  0.23017511425E+02 -0.27174444697E+01 -0.49285726495E+02  0.54463503127E+02  0.00000000000E+00 0. -1.
<scales pt_clust_5="13000.00000" pt_clust_6="13000.00000" pt_clust_7="13000.00000" pt_clust_8="13000.00000" pt_clust_9="23.17737"></scales>
<clustering>
<clus scale="   23.177">  1  9  2 -1</clus>
<clus scale="   91.035">  5  6 -1 -1</clus>
<clus scale="   96.211">  1  5  2 -1</clus>
<clus scale="   97.394">  7  8 -1 -1</clus>
<clus scale="  102.248">  2  5  1 -1</clus>
</clustering>
</event>
<event>
 9    1  0.1748361E-005  0.9315454E+02  0.7546771E-02  0.1296037E+00
         -1   -1    0    0    0  501 -0.00000000000E+00  0.00000000000E+00  0.43620602415E+02  0.43620602415E+02  0.00000000000E+00 0.  1.
          1   -1    0    0  502    0  0.00000000000E+00 -0.00000000000E+00 -0.42923001090E+03  0.42923001090E+03  0.00000000000E+00 0. -1.
         23    2    1    2    0    0  0.16892319692E+02 -0.67002350103E+01 -0.57272649341E+02  0.10867363364E+03  0.90551414528E+02 0.  0.
         23    2    1    2    0    0  0.23027135118E+02 -0.13572805653E+02 -0.28970863714E+03  0.30504415579E+03  0.91686272396E+02 0.  0.
        -11    1    3    3    0    0  0.11181378253E+02 -0.48682015774E+02 -0.29414490032E+02  0.57967008749E+02  0.00000000000E+00 0.  1.
         11    1    3    3    0    0  0.57109414392E+01  0.41981780763E+02 -0.27858159309E+02  0.50706624895E+02  0.00000000000E+00 0. -1.
        -11    1    4    4    0    0  0.33078626334E+02 -0.48223289987E+02 -0.19931025586E+03  0.20771196236E+03  0.00000000000E+00 0.  1.
         11    1    4    4    0    0 -0.10051491216E+02  0.34650484335E+02 -0.90398381274E+02  0.97332193427E+02  0.00000000000E+00 0. -1.
         21    1    1    2  502  501 -0.39919454810E+02  0.20273040663E+02 -0.38628122008E+02  0.59132823879E+02  0.00000000000E+00 0. -1.
<scales pt_clust_5="13000.00000" pt_clust_6="13000.00000" pt_clust_7="13000.00000" pt_clust_8="13000.00000" pt_clust_9="44.77230"></scales>
<clustering>
<clus scale="   44.772">  1  9  2 -1</clus>
<clus scale="   90.551">  5  6 -1 -1</clus>
<clus scale="   91.686">  7  8 -1 -1</clus>
<clus scale="   92.038">  1  5  2 -1</clus>
<clus scale="   93.155">  2  5  1 -1</clus>
</clustering>
</event>
<event>
 9    1  0.1748361E-005  0.1089605E+03  0.7546771E-02  0.1263360E+00
         -3   -1    0    0    0  501 -0.00000000000E+00  0.00000000000E+00  0.25353209166E+03  0.25353209166E+03  0.00000000000E+00 0.  1.
          3   -1    0    0  502    0  0.00000000000E+00 -0.00000000000E+00 -0.73451921227E+02  0.73451921227E+02  0.00000000000E+00 0. -1.
         23    2    1    2    0    0  0.31226590855E+00 -0.46266583317E+02  0.69227493628E+02  0.12305362817E+03  0.90603837062E+02 0.  0.
         23    2    1    2    0    0  0.29406332832E+01  0.71191700684E+02  0.27463337904E+02  0.11683489304E+03  0.88426532960E+02 0.  0.
        -11    1    4    4    0    0  0.36169205999E+02  0.47996531392E+02  0.42503932016E+02  0.73610208022E+02  0.00000000000E+00 0.  1.
         11    1    4    4    0    0 -0.33228572716E+02  0.23195169293E+02 -0.15040594111E+02  0.43224685013E+02  0.00000000000E+00 0. -1.
        -11    1    3    3    0    0  0.22714193751E+02  0.98284753374E+00  0.66958799840E+02  0.70713375418E+02  0.00000000000E+00 0.  1.
         11    1    3    3    0    0 -0.22401927842E+02 -0.47249430851E+02  0.22686937881E+01  0.52340252753E+02  0.00000000000E+00 0. -1.
         21    1    1    2  502  501 -0.32528991917E+01 -0.24925117368E+02  0.83389338901E+02  0.87095491681E+02  0.00000000000E+00 0. -1.
<scales pt_clust_5="13000.00000" pt_clust_6="13000.00000" pt_clust_7="13000.00000" pt_clust_8="13000.00000" pt_clust_9="25.13648"></scales>
<clustering>
<clus scale="   25.136">  1  9  2 -1</clus>
<clus scale="   88.427">  5  6 -1 -1</clus>
<clus scale="   90.604">  7  8 -1 -1</clus>
<clus scale="  107.157">  2  5  1 -1</clus>
<clus scale="  107.157">  2  5  1 -1</clus>
</clustering>
</event>
<event>
 9    1  0.1748361E-005  0.9630765E+02  0.7546771E-02  0.1288987E+00
          1   -1    0    0  502    0  0.00000000000E+00  0.00000000000E+00  0.90712801527E+02  0.90712801527E+02  0.00000000000E+00 0. -1.
         -1   -1    0    0    0  501 -0.00000000000E+00 -0.00000000000E+00 -0.22204995757E+03  0.22204995757E+03  0.00000000000E+00 0.  1.
         23    2    1    2    0    0 -0.13277088542E+02 -0.47554820531E+02 -0.12617434658E+03  0.16221482684E+03  0.89196088904E+02 0.  0.
         23    2    1    2    0    0  0.51890977675E+01  0.28541565602E+02  0.38207992587E+02  0.10250684642E+03  0.90588383158E+02 0.  0.
        -11    1    4    4    0    0 -0.23598716840E+02 -0.14991254950E+02 -0.11688005910E+02  0.30302584768E+02  0.00000000000E+00 0.  1.
         11    1    4    4    0    0  0.28787814607E+02  0.43532820552E+02  0.49895998497E+02  0.72204261655E+02  0.00000000000E+00 0. -1.
        -13    1    3    3    0    0  0.40441384085E+01  0.23737365080E+02 -0.54805186003E+02  0.59861723741E+02  0.00000000000E+00 0. -1.
         13    1    3    3    0    0 -0.17321226950E+02 -0.71292185612E+02 -0.71369160577E+02  0.10235310310E+03  0.00000000000E+00 0.  1.
         21    1    1    2  502  501  0.80879907741E+01  0.19013254929E+02 -0.43370802050E+02  0.48041085836E+02  0.00000000000E+00 0. -1.
<scales pt_clust_5="13000.00000" pt_clust_6="13000.00000" pt_clust_7="13000.00000" pt_clust_8="13000.00000" pt_clust_9="20.66203"></scales>
<clustering>
<clus scale="   20.662">  2  9  1 -1</clus>
<clus scale="   89.196">  7  8 -1 -1</clus>
<clus scale="   90.588">  5  6 -1 -1</clus>
<clus scale="   94.999">  2  7  1 -1</clus>
<clus scale="   96.308">  1  5  2 -1</clus>
</clustering>
</event>
<event>
 9    1  0.1748361E-005  0.2965965E+03  0.7546771E-02  0.1087010E+00
          1   -1    0    0  502    0  0.00000000000E+00  0.00000000000E+00  0.10603510164E+04  0.10603510164E+04  0.00000000000E+00 0. -1.
         -1   -1    0    0    0  501 -0.00000000000E+00 -0.00000000000E+00 -0.13460785082E+03  0.13460785082E+03  0.00000000000E+00 0.  1.
         23    2    1    2    0    0 -0.26582859037E+03  0.62456356304E+02  0.43901697994E+03  0.52466769094E+03  0.89300847366E+02 0.  0.
         23    2    1    2    0    0  0.27801058816E+03 -0.87926052744E+02  0.53404464227E+03  0.61518997073E+03  0.90742174693E+02 0.  0.
        -13    1    4    4    0    0  0.15744906837E+03 -0.91598383551E+02  0.28110809636E+03  0.33496602043E+03  0.00000000000E+00 0.  1.
         13    1    4    4    0    0  0.12056151979E+03  0.36723308062E+01  0.25293654590E+03  0.28022395030E+03  0.00000000000E+00 0. -1.
        -13    1    3    3    0    0 -0.25464706394E+03  0.79548997041E+02  0.40429722288E+03  0.48438560521E+03  0.00000000000E+00 0. -1.
         13    1    3    3    0    0 -0.11181526427E+02 -0.17092640737E+02  0.34719757053E+02  0.40282085726E+02  0.00000000000E+00 0.  1.
         21    1    1    2  502  501 -0.12181997790E+02  0.25469696440E+02 -0.47318456668E+02  0.55101205508E+02  0.00000000000E+00 0.  1.
<scales pt_clust_5="13000.00000" pt_clust_6="13000.00000" pt_clust_7="13000.00000" pt_clust_8="13000.00000" pt_clust_9="28.23307"></scales>
<clustering>
<clus scale="   28.233">  2  9  1 -1</clus>
<clus scale="   89.301">  7  8 -1 -1</clus>
<clus scale="   90.742">  5  6 -1 -1</clus>
<clus scale="  296.159">  2  7  1 -1</clus>
<clus scale="  296.596">  1  5  2 -1</clus>
</clustering>
</event>
<event>
 9    1  0.1748361E-005  0.1140135E+03  0.7546771E-02  0.1254407E+00
         -2   -1    0    0    0  501 -0.00000000000E+00  0.00000000000E+00  0.43662998558E+02  0.43662998558E+02  0.00000000000E+00 0.  1.
          2   -1    0    0  502    0  0.00000000000E+00 -0.00000000000E+00 -0.48565917798E+03  0.48565917798E+03  0.00000000000E+00 0. -1.
         23    2    1    2    0    0  0.63201862929E+02 -0.27077619309E+02 -0.68307414575E+02  0.13327599622E+03  0.91481775991E+02 0.  0.
         23    2    1    2    0    0 -0.45622099943E+02  0.13082810058E+02 -0.33526097190E+03  0.35153103656E+03  0.94454298281E+02 0.  0.
        -11    1    3    3    0    0  0.81872161438E+02 -0.59864020758E+01 -0.33914525212E+02  0.88820509167E+02  0.00000000000E+00 0.  1.
         11    1    3    3    0    0 -0.18670298508E+02 -0.21091217234E+02 -0.34392889362E+02  0.44455487057E+02  0.00000000000E+00 0. -1.
        -11    1    4    4    0    0 -0.73059740007E+02  0.16452204722E+02 -0.20205616508E+03  0.21548803794E+03  0.00000000000E+00 0. -1.
         11    1    4    4    0    0  0.27437640063E+02 -0.33693946637E+01 -0.13320480682E+03  0.13604299862E+03  0.00000000000E+00 0.  1.
         21    1    1    2  502  501 -0.17579762986E+02  0.13994809251E+02 -0.38427792950E+02  0.44515143756E+02  0.00000000000E+00 0.  1.
<scales pt_clust_5="13000.00000" pt_clust_6="13000.00000" pt_clust_7="13000.00000" pt_clust_8="13000.00000" pt_clust_9="22.47004"></scales>
<clustering>
<clus scale="   22.470">  2  9  1 -1</clus>
<clus scale="   91.482">  5  6 -1 -1</clus>
<clus scale="   94.454">  7  8 -1 -1</clus>
<clus scale="  111.563">  1  5  2 -1</clus>
<clus scale="   22.470">  2  5  1 -1</clus>
</clustering>
</event>
<event>
 9    1  0.1748361E-005  0.9790542E+02  0.7546771E-02  0.1285541E+00
         -1   -1    0    0    0  501 -0.00000000000E+00  0.00000000000E+00  0.13044376178E+03  0.13044376178E+03  0.00000000000E+00 0.  1.
          1   -1    0    0  502    0  0.00000000000E+00 -0.00000000000E+00 -0.22935399147E+03  0.22935399147E+03  0.00000000000E+00 0. -1.
         23    2    1    2    0    0 -0.10531908044E+02 -0.43414520450E+02 -0.81705119452E+02  0.13171494627E+03  0.93152342174E+02 0.  0.
         23    2    1    2    0    0 -0.33104099739E+02  0.13363055367E+02 -0.93160193933E+02  0.13547413315E+03  0.91651330324E+02 0.  0.
        -11    1    3    3    0    0 -0.34013730425E+02 -0.62547795293E+02 -0.45433819496E+02  0.84459413373E+02  0.00000000000E+00 0. -1.
         11    1    3    3    0    0  0.23481822381E+02  0.19133274843E+02 -0.36271299956E+02  0.47255532893E+02  0.00000000000E+00 0.  1.
        -13    1    4    4    0    0 -0.55649344945E+01 -0.22311177955E+02 -0.87000340082E+02  0.89987867694E+02  0.00000000000E+00 0. -1.
         13    1    4    4    0    0 -0.27539165244E+02  0.35674233322E+02 -0.61598538517E+01  0.45486265454E+02  0.00000000000E+00 0.  1.
         21    1    1    2  502  501  0.43636007782E+02  0.30051465083E+02  0.75955083698E+02  0.92608673829E+02  0.00000000000E+00 0.  1.
<scales pt_clust_5="13000.00000" pt_clust_6="13000.00000" pt_clust_7="13000.00000" pt_clust_8="13000.00000" pt_clust_9="52.98294"></scales>
<clustering>
<clus scale="   52.983">  1  9  2 -1</clus>
<clus scale="   91.651">  7  8 -1 -1</clus>
<clus scale="   93.152">  5  6 -1 -1</clus>
<clus scale="   96.478">  2  7  1 -1</clus>
<clus scale="   96.478">  2  5  1 -1</clus>
</clustering>
</event>
<event>
 9    1  0.1748361E-005  0.9569685E+02  0.7546771E-02  0.1290047E+00
          1   -1    0    0  502    0  0.00000000000E+00  0.00000000000E+00  0.59572810139E+03  0.59572810139E+03  0.00000000000E+00 0. -1.
         -1   -1    0    0    0  501 -0.00000000000E+00 -0.00000000000E+00 -0.20571978366E+02  0.20571978366E+02  0.00000000000E+00 0.  1.
         23    2    1    2    0    0 -0.16959847677E+02  0.27243970508E+02  0.19711524952E+03  0.21963179200E+03  0.91399300336E+02 0.  0.
         23    2    1    2    0    0 -0.67849287035E+01 -0.21067194170E+02  0.28068672773E+03  0.29627009718E+03  0.92201244202E+02 0.  0.
        -11    1    3    3    0    0 -0.43945710774E+02  0.41766113934E+02  0.16228117723E+03  0.17323629600E+03  0.00000000000E+00 0. -1.
         11    1    3    3    0    0  0.26985863097E+02 -0.14522143427E+02  0.34834072286E+02  0.46395495997E+02  0.00000000000E+00 0.  1.
        -13    1    4    4    0    0 -0.15275555528E+02  0.31043796852E+02  0.17190658613E+03  0.17535374041E+03  0.00000000000E+00 0. -1.
         13    1    4    4    0    0  0.84906268248E+01 -0.52110991022E+02  0.10878014160E+03  0.12091635677E+03  0.00000000000E+00 0.  1.
         21    1    1    2  502  501  0.23744776380E+02 -0.61767763379E+01  0.97354145776E+02  0.10039819058E+03  0.00000000000E+00 0.  1.
<scales pt_clust_5="13000.00000" pt_clust_6="13000.00000" pt_clust_7="13000.00000" pt_clust_8="13000.00000" pt_clust_9="24.53502"></scales>
<clustering>
<clus scale="   24.535">  1  9  2 -1</clus>
<clus scale="   91.399">  5  6 -1 -1</clus>
<clus scale="   92.201">  7  8 -1 -1</clus>
<clus scale="   94.924">  2  5  1 -1</clus>
<clus scale="   24.535">  1  5  2 -1</clus>
</clustering>
</event>
<event>
 9    1  0.1748361E-005  0.9033337E+02  0.7546771E-02  0.1302160E+00
          1   -1    0    0  502    0  0.00000000000E+00  0.00000000000E+00  0.45836198969E+02  0.45836198969E+02  0.00000000000E+00 0. -1.
         -1   -1    0    0    0  501 -0.00000000000E+00 -0.00000000000E+00 -0.24874217861E+03  0.24874217861E+03  0.00000000000E+00 0.  1.
         23    2    1    2    0    0 -0.10238974046E+02 -0.10593445406E+01 -0.11341572186E+03  0.14504569382E+03  0.89828550751E+02 0.  0.
         23    2    1    2    0    0 -0.84785625515E+01 -0.18967759025E+02 -0.68765523422E+02  0.11516779372E+03  0.90018118135E+02 0.  0.
        -11    1    4    4    0    0  0.21364719138E+01 -0.47243956323E+02 -0.70524886278E+02  0.84913576687E+02  0.00000000000E+00 0. -1.
         11    1    4    4    0    0 -0.10615034465E+02  0.28276197298E+02  0.17593628559E+01  0.30254217029E+02  0.00000000000E+00 0.  1.
        -13    1    3    3    0    0 -0.40735317966E+02 -0.26836990968E+02 -0.48207478508E+02  0.68582440888E+02  0.00000000000E+00 0. -1.
         13    1    3    3    0    0  0.30496343920E+02  0.25777646427E+02 -0.65208243354E+02  0.76463252933E+02  0.00000000000E+00 0.  1.
         21    1    1    2  502  501  0.18717536597E+02  0.20027103566E+02 -0.20724734359E+02  0.34364890044E+02  0.00000000000E+00 0.  1.
<scales pt_clust_5="13000.00000" pt_clust_6="13000.00000" pt_clust_7="13000.00000" pt_clust_8="13000.00000" pt_clust_9="27.41224"></scales>
<clustering>
<clus scale="   27.412">  1  9  2 -1</clus>
<clus scale="   89.829">  7  8 -1 -1</clus>
<clus scale="   90.018">  5  6 -1 -1</clus>
<clus scale="   90.144">  2  7  1 -1</clus>
<clus scale="   27.412">  1  5  2 -1</clus>
</clustering>
</event>
<event>
 9    1  0.1748361E-005  0.1053614E+03  0.7546771E-02  0.1270750E+00
         -1   -1    0    0    0  501 -0.00000000000E+00  0.00000000000E+00  0.81509526069E+02  0.81509526069E+02  0.00000000000E+00 0.  1.
          1   -1    0    0  502    0  0.00000000000E+00 -0.00000000000E+00 -0.23742071865E+03  0.23742071865E+03  0.00000000000E+00 0. -1.
         23    2    1    2    0    0 -0.24895414936E+01 -0.48174513239E+02 -0.35304864559E+01  0.10509748933E+03  0.93306143344E+02 0.  0.
         23    2    1    2    0    0  0.41250236774E+02  0.34248916054E+02 -0.12954866198E+03  0.16674118507E+03  0.90250743450E+02 0.  0.
        -11    1    3    3    0    0  0.28274197713E+02  0.12651755155E+02  0.15062506382E+02  0.34443813136E+02  0.00000000000E+00 0. -1.
         11    1    3    3    0    0 -0.30763739207E+02 -0.60826268394E+02 -0.18592992838E+02  0.70653676191E+02  0.00000000000E+00 0.  1.
        -11    1    4    4    0    0  0.19120864535E+02  0.35534558374E+02 -0.13741716814E+03  0.14321937857E+03  0.00000000000E+00 0. -1.
         11    1    4    4    0    0  0.22129372239E+02 -0.12856423191E+01  0.78685061570E+01  0.23521806500E+02  0.00000000000E+00 0.  1.
         21    1    1    2  502  501 -0.38760695280E+02  0.13925597184E+02 -0.22832044147E+02  0.47091570323E+02  0.00000000000E+00 0. -1.
<scales pt_clust_5="13000.00000" pt_clust_6="13000.00000" pt_clust_7="13000.00000" pt_clust_8="13000.00000" pt_clust_9="41.18633"></scales>
<clustering>
<clus scale="   41.186">  1  9  2 -1</clus>
<clus scale="   90.251">  7  8 -1 -1</clus>
<clus scale="   93.306">  5  6 -1 -1</clus>
<clus scale="  102.665">  2  7  1 -1</clus>
<clus scale="  102.665">  2  5  1 -1</clus>
</clustering>
</event>
<event>
 9    1  0.1748361E-005  0.1061194E+03  0.7546771E-02  0.1270749E+00
          3   -1    0    0  502    0  0.00000000000E+00  0.00000000000E+00  0.68736934201E+02  0.68736934201E+02  0.00000000000E+00 0. -1.
         -3   -1    0    0    0  501 -0.00000000000E+00 -0.00000000000E+00 -0.36849811098E+03  0.36849811098E+03  0.00000000000E+00 0.  1.
         23    2    1    2    0    0 -0.17291854949E+01 -0.52955020907E+02 -0.15874602662E+03  0.19025653327E+03  0.90498746737E+02 0.  0.
         23    2    1    2    0    0 -0.22188750867E+02  0.36526574881E+02 -0.28281717826E+01  0.10577793645E+03  0.96718364061E+02 0.  0.
        -11    1    3    3    0    0  0.13418746070E+01  0.25523520555E+02 -0.49500585038E+02  0.55709592065E+02  0.00000000000E+00 0. -1.
         11    1    3    3    0    0 -0.30710601019E+01 -0.78478541461E+02 -0.10924544159E+03  0.13454694120E+03  0.00000000000E+00 0.  1.
        -13    1    4    4    0    0 -0.31470922032E+02  0.59706890903E+02 -0.25403748634E+02  0.72115755556E+02  0.00000000000E+00 0. -1.
         13    1    4    4    0    0  0.92821711649E+01 -0.23180316022E+02  0.22575576851E+02  0.33662180894E+02  0.00000000000E+00 0.  1.
         21    1    1    2  502  501  0.23917936362E+02  0.16428446026E+02 -0.13818697838E+03  0.14120057547E+03  0.00000000000E+00 0.  1.
<scales pt_clust_5="13000.00000" pt_clust_6="13000.00000" pt_clust_7="13000.00000" pt_clust_8="13000.00000" pt_clust_9="29.01657"></scales>
<clustering>
<clus scale="   29.017">  2  9  1 -1</clus>
<clus scale="   90.499">  5  6 -1 -1</clus>
<clus scale="   96.718">  7  8 -1 -1</clus>
<clus scale="  100.483">  2  5  1 -1</clus>
<clus scale="  106.119">  1  5  2 -1</clus>
</clustering>
</event>
<event>
 9    1  0.1748361E-005  0.9800326E+02  0.7546771E-02  0.1285112E+00
          1   -1    0    0  502    0  0.00000000000E+00  0.00000000000E+00  0.57593487094E+02  0.57593487094E+02  0.00000000000E+00 0. -1.
         -1   -1    0    0    0  501 -0.00000000000E+00 -0.00000000000E+00 -0.39408723540E+03  0.39408723540E+03  0.00000000000E+00 0.  1.
         23    2    1    2    0    0  0.30076698899E+02  0.68572788127E+01 -0.82805593275E+02  0.12727528843E+03  0.91600232962E+02 0.  0.
         23    2    1    2    0    0 -0.72246336374E+01 -0.41846863146E+02 -0.44776111575E+02  0.11135443125E+03  0.92690635474E+02 0.  0.
        -11    1    3    3    0    0  0.45642386989E+02  0.29455120039E+02 -0.83743970608E+02  0.99819257660E+02  0.00000000000E+00 0.  1.
         11    1    3    3    0    0 -0.15565688090E+02 -0.22597841226E+02  0.93837733309E+00  0.27456030773E+02  0.00000000000E+00 0. -1.
        -11    1    4    4    0    0 -0.43296221212E+02  0.31379530426E+01 -0.26532481246E+02  0.50876144524E+02  0.00000000000E+00 0.  1.
         11    1    4    4    0    0  0.36071587574E+02 -0.44984816189E+02 -0.18243630329E+02  0.60478286725E+02  0.00000000000E+00 0. -1.
         21    1    1    2  502  501 -0.22852065262E+02  0.34989584333E+02 -0.20891204346E+03  0.21305100281E+03  0.00000000000E+00 0.  1.
<scales pt_clust_5="13000.00000" pt_clust_6="13000.00000" pt_clust_7="13000.00000" pt_clust_8="13000.00000" pt_clust_9="41.79100"></scales>
<clustering>
<clus scale="   41.791">  2  9  1 -1</clus>
<clus scale="   91.600">  5  6 -1 -1</clus>
<clus scale="   92.691">  7  8 -1 -1</clus>
<clus scale="   96.973">  2  5  1 -1</clus>
<clus scale="   98.003">  1  5  2 -1</clus>
</clustering>
</event>
<event>
 9    1  0.1748361E-005  0.9615085E+02  0.7546771E-02  0.1289978E+00
         -4   -1    0    0    0  501 -0.00000000000E+00  0.00000000000E+00  0.98264052810E+02  0.98264052810E+02  0.00000000000E+00 0.  1.
          4   -1    0    0  502    0  0.00000000000E+00 -0.00000000000E+00 -0.29289926648E+03  0.29289926648E+03  0.00000000000E+00 0. -1.
         23    2    1    2    0    0  0.12431189218E+02 -0.22822274236E+01 -0.68157567456E+02  0.11535124850E+03  0.92199314000E+02 0.  0.
         23    2    1    2    0    0 -0.34221547588E+02 -0.66493687562E+01 -0.18731931738E+03  0.21057172991E+03  0.89647076624E+02 0.  0.
        -11    1    4    4    0    0 -0.48965478229E+02 -0.37660576221E+02 -0.12436273428E+03  0.13885973764E+03  0.00000000000E+00 0. -1.
         11    1    4    4    0    0  0.14743930641E+02  0.31011207465E+02 -0.62956583105E+02  0.71711992271E+02  0.00000000000E+00 0.  1.
        -13    1    3    3    0    0  0.27335179356E+01  0.32164826831E+02  0.61629134878E+01  0.32863805440E+02  0.00000000000E+00 0.  1.
         13    1    3    3    0    0  0.96976712823E+01 -0.34447054255E+02 -0.74320480943E+02  0.82487443061E+02  0.00000000000E+00 0. -1.
         21    1    1    2  502  501  0.21790358370E+02  0.89315961798E+01  0.60841671166E+02  0.65240340883E+02  0.00000000000E+00 0.  1.
<scales pt_clust_5="13000.00000" pt_clust_6="13000.00000" pt_clust_7="13000.00000" pt_clust_8="13000.00000" pt_clust_9="23.54980"></scales>
<clustering>
<clus scale="   23.550">  1  9  2 -1</clus>
<clus scale="   89.647">  5  6 -1 -1</clus>
<clus scale="   92.199">  7  8 -1 -1</clus>
<clus scale="   93.706">  2  5  1 -1</clus>
<clus scale="   93.706">  2  5  1 -1</clus>
</clustering>
</event>
<event>
 9    1  0.1748361E-005  0.1433494E+03  0.7546771E-02  0.1208969E+00
          2   -1    0    0  502    0  0.00000000000E+00  0.00000000000E+00  0.72994366686E+03  0.72994366686E+03  0.00000000000E+00 0. -1.
         -2   -1    0    0    0  501 -0.00000000000E+00 -0.00000000000E+00 -0.70664785634E+02  0.70664785634E+02  0.00000000000E+00 0.  1.
         23    2    1    2    0    0 -0.11707660716E+03 -0.99522573623E+02  0.98655452739E+02  0.20389101082E+03  0.90702653393E+02 0.  0.
         23    2    1    2    0    0  0.81332127082E+02  0.63295279470E+02  0.49453934643E+03  0.51330766648E+03  0.91073530717E+02 0.  0.
        -13    1    3    3    0    0 -0.81355765067E+02 -0.11368653864E+03  0.81384763662E+02  0.16176176722E+03  0.00000000000E+00 0.  1.
         13    1    3    3    0    0 -0.35720842092E+02  0.14163965019E+02  0.17270689077E+02  0.42129243597E+02  0.00000000000E+00 0. -1.
        -13    1    4    4    0    0  0.23968949706E+01 -0.20598682264E+02  0.51015629491E+02  0.55069458585E+02  0.00000000000E+00 0.  1.
         13    1    4    4    0    0  0.78935232112E+02  0.83893961735E+02  0.44352371694E+03  0.45823820790E+03  0.00000000000E+00 0. -1.
         21    1    1    2  502  501  0.35744480077E+02  0.36227294152E+02  0.66084082052E+02  0.83409775196E+02  0.00000000000E+00 0.  1.
<scales pt_clust_5="13000.00000" pt_clust_6="13000.00000" pt_clust_7="13000.00000" pt_clust_8="13000.00000" pt_clust_9="50.89287"></scales>
<clustering>
<clus scale="   50.893">  2  9  1 -1</clus>
<clus scale="   90.703">  5  6 -1 -1</clus>
<clus scale="   91.074">  7  8 -1 -1</clus>
<clus scale="  143.114">  2  5  1 -1</clus>
<clus scale="  143.349">  1  5  2 -1</clus>
</clustering>
</event>
<event>
 9    1  0.1748361E-005  0.1636662E+03  0.7546771E-02  0.1184731E+00
         -2   -1    0    0    0  501 -0.00000000000E+00  0.00000000000E+00  0.30998622038E+02  0.30998622038E+02  0.00000000000E+00 0.  1.
          2   -1    0    0  502    0  0.00000000000E+00 -0.00000000000E+00 -0.14437576989E+04  0.14437576989E+04  0.00000000000E+00 0. -1.
         23    2    1    2    0    0 -0.10861694146E+03  0.96931237448E+01 -0.35366374943E+03  0.38088164081E+03  0.90006555461E+02 0.  0.
         23    2    1    2    0    0  0.15073084965E+03  0.57293927714E+02 -0.85900536747E+03  0.87870767893E+03  0.90744589289E+02 0.  0.
        -11    1    3    3    0    0 -0.33329995569E+02  0.78207654838E+01 -0.21815561609E+02  0.40595217768E+02  0.00000000000E+00 0. -1.
         11    1    3    3    0    0 -0.75286945894E+02  0.18723582610E+01 -0.33184818782E+03  0.34028642304E+03  0.00000000000E+00 0.  1.
        -13    1    4    4    0    0  0.67773319105E+02  0.72554334655E+02 -0.41016486368E+03  0.42201015350E+03  0.00000000000E+00 0.  1.
         13    1    4    4    0    0  0.82957530544E+02 -0.15260406942E+02 -0.44884050379E+03  0.45669752544E+03  0.00000000000E+00 0. -1.
         21    1    1    2  502  501 -0.42113908187E+02 -0.66987051458E+02 -0.20008996000E+03  0.21516700123E+03  0.00000000000E+00 0.  1.
<scales pt_clust_5="13000.00000" pt_clust_6="13000.00000" pt_clust_7="13000.00000" pt_clust_8="13000.00000" pt_clust_9="79.12551"></scales>
<clustering>
<clus scale="   79.126">  1  9  2 -1</clus>
<clus scale="   90.007">  5  6 -1 -1</clus>
<clus scale="   90.745">  7  8 -1 -1</clus>
<clus scale="  163.258">  1  5  2 -1</clus>
<clus scale="  163.666">  2  5  1 -1</clus>
</clustering>
</event>
<event>
 9    1  0.1748361E-005  0.9919544E+02  0.7546771E-02  0.1282890E+00
          4   -1    0    0  502    0  0.00000000000E+00  0.00000000000E+00  0.55427889983E+02  0.55427889983E+02  0.00000000000E+00 0. -1.
         -4   -1    0    0    0  501 -0.00000000000E+00 -0.00000000000E+00 -0.24431418284E+03  0.24431418284E+03  0.00000000000E+00 0.  1.
         23    2    1    2    0    0 -0.20418261641E+02 -0.10746012911E+02 -0.67791684507E+02  0.11770491127E+03  0.93414942306E+02 0.  0.
         23    2    1    2    0    0  0.34793067785E+02  0.26130685411E+02 -0.61036948103E+02  0.11839562045E+03  0.91644113957E+02 0.  0.
        -11    1    3    3    0    0  0.17188851403E+02  0.24507954965E+02 -0.57951990780E+02  0.65226756048E+02  0.00000000000E+00 0.  1.
         11    1    3    3    0    0 -0.37607113043E+02 -0.35253967876E+02 -0.98396937261E+01  0.52478155218E+02  0.00000000000E+00 0. -1.
        -13    1    4    4    0    0  0.64236424992E+02  0.16312834561E+02 -0.24995743769E+02  0.70832295415E+02  0.00000000000E+00 0.  1.
         13    1    4    4    0    0 -0.29443357207E+02  0.98178508498E+01 -0.36041204334E+02  0.47563325039E+02  0.00000000000E+00 0. -1.
         21    1    1    2  502  501 -0.14374806145E+02 -0.15384672500E+02 -0.60057660252E+02  0.63641541108E+02  0.00000000000E+00 0.  1.
<scales pt_clust_5="13000.00000" pt_clust_6="13000.00000" pt_clust_7="13000.00000" pt_clust_8="13000.00000" pt_clust_9="21.05524"></scales>
<clustering>
<clus scale="   21.055">  2  9  1 -1</clus>
<clus scale="   91.644">  7  8 -1 -1</clus>
<clus scale="   93.415">  5  6 -1 -1</clus>
<clus scale="   97.530">  1  7  2 -1</clus>
<clus scale="   97.530">  1  5  2 -1</clus>
</clustering>
</event>
<event>
 9    1  0.1748361E-005  0.1257337E+03  0.7546771E-02  0.1241264E+00
          1   -1    0    0  502    0  0.00000000000E+00  0.00000000000E+00  0.10783410741E+03  0.10783410741E+03  0.00000000000E+00 0. -1.
         -1   -1    0    0    0  501 -0.00000000000E+00 -0.00000000000E+00 -0.15777560713E+03  0.15777560713E+03  0.00000000000E+00 0.  1.
         23    2    1    2    0    0 -0.48515182811E+02 -0.13347052599E+02 -0.40102249677E+02  0.11332964662E+03  0.93292827149E+02 0.  0.
         23    2    1    2    0    0  0.63974991340E+02 -0.19160415595E+01 -0.11672185020E+02  0.13047806403E+03  0.11310090432E+03 0.  0.
        -11    1    4    4    0    0 -0.31041369381E+02  0.61872501187E+01  0.89901384526E+01  0.32903970376E+02  0.00000000000E+00 0.  1.
         11    1    4    4    0    0  0.95016360722E+02 -0.81032916782E+01 -0.20662323473E+02  0.97574093652E+02  0.00000000000E+00 0. -1.
        -11    1    3    3    0    0 -0.13148590860E+02 -0.39030310427E+02  0.14251722886E+02  0.43581672511E+02  0.00000000000E+00 0. -1.
         11    1    3    3    0    0 -0.35366591950E+02  0.25683257828E+02 -0.54353972562E+02  0.69747974108E+02  0.00000000000E+00 0.  1.
         21    1    1    2  502  501 -0.15459808530E+02  0.15263094158E+02  0.18329349813E+01  0.21802003892E+02  0.00000000000E+00 0.  1.
<scales pt_clust_5="13000.00000" pt_clust_6="13000.00000" pt_clust_7="13000.00000" pt_clust_8="13000.00000" pt_clust_9="21.72482"></scales>
<clustering>
<clus scale="   21.725">  1  9  2 -1</clus>
<clus scale="   93.293">  7  8 -1 -1</clus>
<clus scale="  108.262">  2  7  1 -1</clus>
<clus scale="  113.101">  5  6 -1 -1</clus>
<clus scale="   21.725">  1  5  2 -1</clus>
</clustering>
</event>
<event>
 9    1  0.1748361E-005  0.1452278E+03  0.7546771E-02  0.1206680E+00
          2   -1    0    0  502    0  0.00000000000E+00  0.00000000000E+00  0.42075606972E+03  0.42075606972E+03  0.00000000000E+00 0. -1.
         -2   -1    0    0    0  501 -0.00000000000E+00 -0.00000000000E+00 -0.12267956733E+03  0.12267956733E+03  0.00000000000E+00 0.  1.
         23    2    1    2    0    0  0.10022751847E+03 -0.47770350568E+02  0.66606976669E+02  0.15873425466E+03  0.91828712337E+02 0.  0.
         23    2    1    2    0    0 -0.91229888024E+02  0.67756267590E+02  0.28878494853E+03  0.32333810408E+03  0.90757802909E+02 0.  0.
        -11    1    4    4    0    0 -0.19403524526E+02  0.65155127593E+02  0.18500184451E+03  0.19709736144E+03  0.00000000000E+00 0. -1.
         11    1    4    4    0    0 -0.71826363498E+02  0.26011399973E+01  0.10378310402E+03  0.12624074264E+03  0.00000000000E+00 0.  1.
        -13    1    3    3    0    0  0.10893213174E+03 -0.29727508394E+02  0.76501944715E+02  0.13639091475E+03  0.00000000000E+00 0. -1.
         13    1    3    3    0    0 -0.87046132670E+01 -0.18042842174E+02 -0.98949680462E+01  0.22343339913E+02  0.00000000000E+00 0.  1.
         21    1    1    2  502  501 -0.89976304511E+01 -0.19985917022E+02 -0.57315422808E+02  0.61363278307E+02  0.00000000000E+00 0.  1.
<scales pt_clust_5="13000.00000" pt_clust_6="13000.00000" pt_clust_7="13000.00000" pt_clust_8="13000.00000" pt_clust_9="21.91790"></scales>
<clustering>
<clus scale="   21.918">  2  9  1 -1</clus>
<clus scale="   90.758">  5  6 -1 -1</clus>
<clus scale="   91.829">  7  8 -1 -1</clus>
<clus scale="  144.553">  1  5  2 -1</clus>
<clus scale="  144.553">  1  5  2 -1</clus>
</clustering>
</event>
<event>
 9    1  0.1748361E-005  0.1841096E+03  0.7546771E-02  0.1164014E+00
          1   -1    0    0  502    0  0.00000000000E+00  0.00000000000E+00  0.20044053355E+03  0.20044053355E+03  0.00000000000E+00 0. -1.
         -1   -1    0    0    0  501 -0.00000000000E+00 -0.00000000000E+00 -0.39419237506E+03  0.39419237506E+03  0.00000000000E+00 0.  1.
         23    2    1    2    0    0  0.11606002055E+03  0.10308554545E+03 -0.68817627678E+02  0.19290961619E+03  0.91551603429E+02 0.  0.
         23    2    1    2    0    0 -0.98266155057E+02 -0.12869309104E+03  0.73752480260E+02  0.20060449556E+03  0.92653043029E+02 0.  0.
        -11    1    4    4    0    0  0.84919527904E+01 -0.30875259826E+02  0.41225458756E+02  0.52200894447E+02  0.00000000000E+00 0. -1.
         11    1    4    4    0    0 -0.10675810785E+03 -0.97817831211E+02  0.32527021504E+02  0.14840360111E+03  0.00000000000E+00 0.  1.
        -11    1    3    3    0    0  0.42894572674E+02  0.97836378513E+02 -0.38871930260E+02  0.11367905826E+03  0.00000000000E+00 0.  1.
         11    1    3    3    0    0  0.73165447874E+02  0.52491669369E+01 -0.29945697418E+02  0.79230557931E+02  0.00000000000E+00 0. -1.
         21    1    1    2  502  501 -0.17793865491E+02  0.25607545587E+02 -0.19868669409E+03  0.20111879686E+03  0.00000000000E+00 0.  1.
<scales pt_clust_5="13000.00000" pt_clust_6="13000.00000" pt_clust_7="13000.00000" pt_clust_8="13000.00000" pt_clust_9="31.18282"></scales>
<clustering>
<clus scale="   31.183">  2  9  1 -1</clus>
<clus scale="   91.552">  7  8 -1 -1</clus>
<clus scale="   92.653">  5  6 -1 -1</clus>
<clus scale="  183.558">  2  7  1 -1</clus>
<clus scale="  184.110">  1  5  2 -1</clus>
</clustering>
</event>
<event>
 9    1  0.1748361E-005  0.9293764E+02  0.7546771E-02  0.1295951E+00
          1   -1    0    0  502    0  0.00000000000E+00  0.00000000000E+00  0.43542180389E+02  0.43542180389E+02  0.00000000000E+00 0. -1.
         -1   -1    0    0    0  501 -0.00000000000E+00 -0.00000000000E+00 -0.38082822105E+03  0.38082822105E+03  0.00000000000E+00 0.  1.
         23    2    1    2    0    0 -0.88945065755E+01 -0.40042476284E+02 -0.22155387792E+03  0.24352184852E+03  0.92381046370E+02 0.  0.
         23    2    1    2    0    0  0.13409823287E+00 -0.75937307678E+00 -0.55862317549E+02  0.10786955575E+03  0.92274849799E+02 0.  0.
        -11    1    4    4    0    0  0.28906844145E+02 -0.30061759628E+02 -0.42625978718E+01  0.41922365999E+02  0.00000000000E+00 0.  1.
         11    1    4    4    0    0 -0.28772745912E+02  0.29302386551E+02 -0.51599719677E+02  0.65947189748E+02  0.00000000000E+00 0. -1.
        -13    1    3    3    0    0 -0.40928444405E+02 -0.35980522077E+02 -0.70776194766E+02  0.89325277922E+02  0.00000000000E+00 0. -1.
         13    1    3    3    0    0  0.32033937830E+02 -0.40619542062E+01 -0.15077768316E+03  0.15419657060E+03  0.00000000000E+00 0.  1.
         21    1    1    2  502  501  0.87604083426E+01  0.40801849360E+02 -0.59869845185E+02  0.72978997171E+02  0.00000000000E+00 0.  1.
<scales pt_clust_5="13000.00000" pt_clust_6="13000.00000" pt_clust_7="13000.00000" pt_clust_8="13000.00000" pt_clust_9="41.73171"></scales>
<clustering>
<clus scale="   41.732">  2  9  1 -1</clus>
<clus scale="   92.275">  5  6 -1 -1</clus>
<clus scale="   92.381">  7  8 -1 -1</clus>
<clus scale="   92.832">  1  5  2 -1</clus>
<clus scale="   92.832">  1  5  2 -1</clus>
</clustering>
</event>
<event>
 9    1  0.1748361E-005  0.3368073E+03  0.7546771E-02  0.1068187E+00
         -1   -1    0    0    0  501 -0.00000000000E+00  0.00000000000E+00  0.91396199914E+03  0.91396199914E+03  0.00000000000E+00 0.  1.
          1   -1    0    0  502    0  0.00000000000E+00 -0.00000000000E+00 -0.27722286344E+03  0.27722286344E+03  0.00000000000E+00 0. -1.
         23    2    1    2    0    0 -0.13723854173E+03  0.29474758753E+03  0.64405735483E+03  0.72716110114E+03  0.90790049127E+02 0.  0.
         23    2    1    2    0    0  0.15782415188E+03 -0.28304480062E+03 -0.11339266559E+03  0.35533838634E+03  0.91567735181E+02 0.  0.
        -13    1    4    4    0    0  0.62694565048E+02 -0.43689263393E+02 -0.72526617076E+01  0.76759112321E+02  0.00000000000E+00 0.  1.
         13    1    4    4    0    0  0.95129586833E+02 -0.23935553722E+03 -0.10614000389E+03  0.27857927402E+03  0.00000000000E+00 0. -1.
        -13    1    3    3    0    0  0.38801399535E+01  0.37523780658E+02  0.12899867575E+03  0.13440144324E+03  0.00000000000E+00 0. -1.
         13    1    3    3    0    0 -0.14111868168E+03  0.25722380687E+03  0.51505867908E+03  0.59275965790E+03  0.00000000000E+00 0.  1.
         21    1    1    2  502  501 -0.20585610154E+02 -0.11702786915E+02  0.10607444646E+03  0.10868537509E+03  0.00000000000E+00 0. -1.
<scales pt_clust_5="13000.00000" pt_clust_6="13000.00000" pt_clust_7="13000.00000" pt_clust_8="13000.00000" pt_clust_9="23.67958"></scales>
<clustering>
<clus scale="   23.680">  1  9  2 -1</clus>
<clus scale="   90.790">  7  8 -1 -1</clus>
<clus scale="   91.568">  5  6 -1 -1</clus>
<clus scale="  336.597">  1  7  2 -1</clus>
<clus scale="  336.807">  2  5  1 -1</clus>
</clustering>
</event>
<event>
 9    1  0.1748361E-005  0.1681772E+03  0.7546771E-02  0.1179932E+00
         -1   -1    0    0    0  501 -0.00000000000E+00  0.00000000000E+00  0.27119384224E+03  0.27119384224E+03  0.00000000000E+00 0.  1.
          1   -1    0    0  502    0  0.00000000000E+00 -0.00000000000E+00 -0.42866106946E+03  0.42866106946E+03  0.00000000000E+00 0. -1.
         23    2    1    2    0    0 -0.78896378064E+02 -0.12049134272E+03  0.16081713924E+03  0.23439767374E+03  0.91308899029E+02 0.  0.
         23    2    1    2    0    0  0.11694134818E+03  0.78964585711E+02 -0.35852639035E+03  0.39623793584E+03  0.92480508798E+02 0.  0.
        -11    1    4    4    0    0  0.90061170773E+02  0.23644893193E+02 -0.13217787938E+03  0.16168205606E+03  0.00000000000E+00 0.  1.
         11    1    4    4    0    0  0.26880177406E+02  0.55319692518E+02 -0.22634851098E+03  0.23455587978E+03  0.00000000000E+00 0. -1.
        -11    1    3    3    0    0 -0.39205722882E+02 -0.11854375283E+03  0.92596839336E+02  0.15544736954E+03  0.00000000000E+00 0.  1.
         11    1    3    3    0    0 -0.39690655182E+02 -0.19475898882E+01  0.68220299901E+02  0.78950304203E+02  0.00000000000E+00 0. -1.
         21    1    1    2  502  501 -0.38044970115E+02  0.41526757008E+02  0.40242023889E+02  0.69219302116E+02  0.00000000000E+00 0.  1.
<scales pt_clust_5="13000.00000" pt_clust_6="13000.00000" pt_clust_7="13000.00000" pt_clust_8="13000.00000" pt_clust_9="56.31955"></scales>
<clustering>
<clus scale="   56.320">  1  9  2 -1</clus>
<clus scale="   91.309">  7  8 -1 -1</clus>
<clus scale="   92.481">  5  6 -1 -1</clus>
<clus scale="  167.536">  1  7  2 -1</clus>
<clus scale="  168.177">  2  5  1 -1</clus>
</clustering>
</event>
<event>
 9    1  0.1748361E-005  0.1159794E+03  0.7546771E-02  0.1250085E+00
          1   -1    0    0  502    0  0.00000000000E+00  0.00000000000E+00  0.19484811031E+03  0.19484811031E+03  0.00000000000E+00 0. -1.
         -1   -1    0    0    0  501 -0.00000000000E+00 -0.00000000000E+00 -0.12373616547E+03  0.12373616547E+03  0.00000000000E+00 0.  1.
         23    2    1    2    0    0 -0.64635632897E+02 -0.90226668993E+00  0.22975378360E+02  0.11316745152E+03  0.90002360788E+02 0.  0.
         23    2    1    2    0    0  0.70281078024E+02  0.46188052940E+02  0.82846706587E+02  0.14808038460E+03  0.89394951473E+02 0.  0.
        -11    1    3    3    0    0 -0.33239457424E+02 -0.41051538498E+02 -0.81516944968E+01  0.53446613233E+02  0.00000000000E+00 0.  1.
         11    1    3    3    0    0 -0.31396175473E+02  0.40149271808E+02  0.31127072857E+02  0.59720838287E+02  0.00000000000E+00 0. -1.
        -13    1    4    4    0    0 -0.14551721911E+02  0.21025524007E+02 -0.17917969517E+01  0.25632709702E+02  0.00000000000E+00 0.  1.
         13    1    4    4    0    0  0.84832799935E+02  0.25162528933E+02  0.84638503539E+02  0.12244767490E+03  0.00000000000E+00 0. -1.
         21    1    1    2  502  501 -0.56454451268E+01 -0.45285786250E+02 -0.34710140107E+02  0.57336439662E+02  0.00000000000E+00 0.  1.
<scales pt_clust_5="13000.00000" pt_clust_6="13000.00000" pt_clust_7="13000.00000" pt_clust_8="13000.00000" pt_clust_9="45.63632"></scales>
<clustering>
<clus scale="   45.636">  2  9  1 -1</clus>
<clus scale="   89.395">  7  8 -1 -1</clus>
<clus scale="   90.002">  5  6 -1 -1</clus>
<clus scale="  115.509">  1  7  2 -1</clus>
<clus scale="  115.509">  1  5  2 -1</clus>
</clustering>
</event>
<event>
 9    1  0.1748361E-005  0.1161170E+03  0.7546771E-02  0.1250444E+00
         -1   -1    0    0    0  501 -0.00000000000E+00  0.00000000000E+00  0.30433467415E+03  0.30433467415E+03  0.00000000000E+00 0.  1.
          1   -1    0    0  502    0  0.00000000000E+00 -0.00000000000E+00 -0.30905695834E+03  0.30905695834E+03  0.00000000000E+00 0. -1.
         23    2    1    2    0    0  0.79253698575E+02  0.23073315781E+02  0.24558566104E+03  0.27478094974E+03  0.91535385480E+02 0.  0.
         23    2    1    2    0    0 -0.61827504707E+02 -0.35025868342E+02 -0.27990598240E+03  0.30224339594E+03  0.89186656058E+02 0.  0.
        -11    1    4    4    0    0 -0.62169307321E+01 -0.53630075122E+02 -0.15794165417E+03  0.16691435320E+03  0.00000000000E+00 0. -1.
         11    1    4    4    0    0 -0.55610573975E+02  0.18604206780E+02 -0.12196432823E+03  0.13532904274E+03  0.00000000000E+00 0.  1.
        -13    1    3    3    0    0  0.62135440104E+02  0.51307403351E+02  0.21564699274E+03  0.23021052980E+03  0.00000000000E+00 0.  1.
         13    1    3    3    0    0  0.17118258471E+02 -0.28234087571E+02  0.29938668305E+02  0.44570419943E+02  0.00000000000E+00 0. -1.
         21    1    1    2  502  501 -0.17426193867E+02  0.11952552561E+02  0.29598037166E+02  0.36367286804E+02  0.00000000000E+00 0.  1.
<scales pt_clust_5="13000.00000" pt_clust_6="13000.00000" pt_clust_7="13000.00000" pt_clust_8="13000.00000" pt_clust_9="21.13139"></scales>
<clustering>
<clus scale="   21.131">  1  9  2 -1</clus>
<clus scale="   89.187">  5  6 -1 -1</clus>
<clus scale="   91.535">  7  8 -1 -1</clus>
<clus scale="  114.275">  2  5  1 -1</clus>
<clus scale="  114.275">  2  5  1 -1</clus>
</clustering>
</event>
<event>
 9    1  0.1748361E-005  0.1377904E+03  0.7546771E-02  0.1223841E+00
         -1   -1    0    0    0  501 -0.00000000000E+00  0.00000000000E+00  0.41883884383E+02  0.41883884383E+02  0.00000000000E+00 0.  1.
          1   -1    0    0  502    0  0.00000000000E+00 -0.00000000000E+00 -0.51179958438E+03  0.51179958438E+03  0.00000000000E+00 0. -1.
         23    2    1    2    0    0  0.61304112730E+02  0.52244251516E+02 -0.25382905575E+03  0.29008451863E+03  0.11503122339E+03 0.  0.
         23    2    1    2    0    0 -0.41061858648E+02 -0.60684868782E+02 -0.21142086551E+03  0.24117658716E+03  0.89992412386E+02 0.  0.
        -11    1    4    4    0    0 -0.13898842010E+02 -0.21117326394E+02 -0.94536070472E+00  0.25298478020E+02  0.00000000000E+00 0.  1.
         11    1    4    4    0    0 -0.27163016638E+02 -0.39567542388E+02 -0.21047550480E+03  0.21587810914E+03  0.00000000000E+00 0. -1.
        -13    1    3    3    0    0  0.78942615469E+02 -0.62000487793E+01 -0.13573316843E+03  0.15714283360E+03  0.00000000000E+00 0. -1.
         13    1    3    3    0    0 -0.17638502739E+02  0.58444300296E+02 -0.11809588732E+03  0.13294168503E+03  0.00000000000E+00 0.  1.
         21    1    1    2  502  501 -0.20242254082E+02  0.84406172653E+01 -0.46657787467E+01  0.22422362976E+02  0.00000000000E+00 0.  1.
<scales pt_clust_5="13000.00000" pt_clust_6="13000.00000" pt_clust_7="13000.00000" pt_clust_8="13000.00000" pt_clust_9="21.93155"></scales>
<clustering>
<clus scale="   21.932">  1  9  2 -1</clus>
<clus scale="   89.992">  5  6 -1 -1</clus>
<clus scale="  115.031">  7  8 -1 -1</clus>
<clus scale="  117.697">  2  5  1 -1</clus>
<clus scale="  117.697">  2  5  1 -1</clus>
</clustering>
</event>
<event>
 9    1  0.1748361E-005  0.1041835E+03  0.7546771E-02  0.1274234E+00
          1   -1    0    0  502    0  0.00000000000E+00  0.00000000000E+00  0.52644749660E+03  0.52644749660E+03  0.00000000000E+00 0. -1.
         -1   -1    0    0    0  501 -0.00000000000E+00 -0.00000000000E+00 -0.59654164764E+02  0.59654164764E+02  0.00000000000E+00 0.  1.
         23    2    1    2    0    0 -0.11471626839E+02 -0.23338504056E+01  0.17383616898E+03  0.20085316408E+03  0.99929649232E+02 0.  0.
         23    2    1    2    0    0  0.35497004308E+02  0.18768896061E+02  0.32560986632E+03  0.34150460020E+03  0.94822455887E+02 0.  0.
        -11    1    3    3    0    0  0.19027081208E+02  0.28624015629E+02  0.17461365792E+02  0.38552086653E+02  0.00000000000E+00 0.  1.
         11    1    3    3    0    0 -0.30498708047E+02 -0.30957866034E+02  0.15637480319E+03  0.16230107743E+03  0.00000000000E+00 0. -1.
        -13    1    4    4    0    0  0.33404419868E+02 -0.35305567364E+02  0.14212155716E+03  0.15020278081E+03  0.00000000000E+00 0.  1.
         13    1    4    4    0    0  0.20925844396E+01  0.54074463425E+02  0.18348830916E+03  0.19130181939E+03  0.00000000000E+00 0. -1.
         21    1    1    2  502  501 -0.24025377469E+02 -0.16435045655E+02 -0.32652703464E+02  0.43743897080E+02  0.00000000000E+00 0.  1.
<scales pt_clust_5="13000.00000" pt_clust_6="13000.00000" pt_clust_7="13000.00000" pt_clust_8="13000.00000" pt_clust_9="29.10892"></scales>
<clustering>
<clus scale="   29.109">  2  9  1 -1</clus>
<clus scale="   94.822">  7  8 -1 -1</clus>
<clus scale="   99.295">  1  7  2 -1</clus>
<clus scale="   99.930">  5  6 -1 -1</clus>
<clus scale="   99.295">  1  5  2 -1</clus>
</clustering>
</event>
<event>
 9    1  0.1748361E-005  0.9549590E+02  0.7546771E-02  0.1291092E+00
         -2   -1    0    0    0  501 -0.00000000000E+00  0.00000000000E+00  0.75866598624E+02  0.75866598624E+02  0.00000000000E+00 0.  1.
          2   -1    0    0  502    0  0.00000000000E+00 -0.00000000000E+00 -0.17537946483E+03  0.17537946483E+03  0.00000000000E+00 0. -1.
         23    2    1    2    0    0  0.22411741866E+01 -0.17374727297E+02 -0.23218738260E+02  0.96167900912E+02  0.91663795193E+02 0.  0.
         23    2    1    2    0    0 -0.34507893082E+02  0.35692780141E+01 -0.59759118267E+02  0.11628205290E+03  0.93524484388E+02 0.  0.
        -11    1    4    4    0    0 -0.34909480950E+02 -0.22909299697E+02 -0.74918195329E+02  0.85768548222E+02  0.00000000000E+00 0. -1.
         11    1    4    4    0    0  0.40158786761E+00  0.26478577711E+02  0.15159077061E+02  0.30513504678E+02  0.00000000000E+00 0.  1.
        -13    1    3    3    0    0  0.20958435322E+02  0.12553603025E+02  0.25949732171E+02  0.35640392251E+02  0.00000000000E+00 0. -1.
         13    1    3    3    0    0 -0.18717261136E+02 -0.29928330322E+02 -0.49168470431E+02  0.60527508661E+02  0.00000000000E+00 0.  1.
         21    1    1    2  502  501  0.32266718896E+02  0.13805449283E+02 -0.16535009680E+02  0.38796109641E+02  0.00000000000E+00 0.  1.
<scales pt_clust_5="13000.00000" pt_clust_6="13000.00000" pt_clust_7="13000.00000" pt_clust_8="13000.00000" pt_clust_9="35.09603"></scales>
<clustering>
<clus scale="   35.096">  2  9  1 -1</clus>
<clus scale="   91.664">  7  8 -1 -1</clus>
<clus scale="   93.524">  5  6 -1 -1</clus>
<clus scale="   93.674">  1  7  2 -1</clus>
<clus scale="   35.096">  2  5  1 -1</clus>
</clustering>
</event>
<event>
 9    1  0.1748361E-005  0.1149975E+03  0.7546771E-02  0.1251627E+00
          1   -1    0    0  502    0  0.00000000000E+00  0.00000000000E+00  0.89348198233E+02  0.89348198233E+02  0.00000000000E+00 0. -1.
         -1   -1    0    0    0  501 -0.00000000000E+00 -0.00000000000E+00 -0.34631277035E+03  0.34631277035E+03  0.00000000000E+00 0.  1.
         23    2    1    2    0    0 -0.17456755435E+02  0.57356369019E+02 -0.12270952908E+03  0.16400991875E+03  0.90813729929E+02 0.  0.
         23    2    1    2    0    0 -0.34455733124E+02 -0.71692215049E+02  0.64557442307E+01  0.12098602867E+03  0.90933883978E+02 0.  0.
        -11    1    4    4    0    0  0.19377626324E+02  0.78780011325E+01  0.13108737998E+02  0.24685913305E+02  0.00000000000E+00 0.  1.
         11    1    4    4    0    0 -0.53833359449E+02 -0.79570216181E+02 -0.66529937670E+01  0.96300115362E+02  0.00000000000E+00 0. -1.
        -13    1    3    3    0    0  0.32730276668E+02  0.12036278401E+02 -0.70236283025E+02  0.78417335212E+02  0.00000000000E+00 0.  1.
         13    1    3    3    0    0 -0.50187032103E+02  0.45320090618E+02 -0.52473246053E+02  0.85592583536E+02  0.00000000000E+00 0. -1.
         21    1    1    2  502  501  0.51912488559E+02  0.14335846030E+02 -0.14071078727E+03  0.15066502117E+03  0.00000000000E+00 0.  1.
<scales pt_clust_5="13000.00000" pt_clust_6="13000.00000" pt_clust_7="13000.00000" pt_clust_8="13000.00000" pt_clust_9="53.85557"></scales>
<clustering>
<clus scale="   53.856">  2  9  1 -1</clus>
<clus scale="   90.814">  7  8 -1 -1</clus>
<clus scale="   90.934">  5  6 -1 -1</clus>
<clus scale="  114.903">  2  7  1 -1</clus>
<clus scale="  114.998">  1  5  2 -1</clus>
</clustering>
</event>
<event>
 9    1  0.1748361E-005  0.1082621E+03  0.7546771E-02  0.1269850E+00
         -2   -1    0    0    0  501 -0.00000000000E+00  0.00000000000E+00  0.16550022485E+03  0.16550022485E+03  0.00000000000E+00 0.  1.
          2   -1    0    0  502    0  0.00000000000E+00 -0.00000000000E+00 -0.13613309796E+03  0.13613309796E+03  0.00000000000E+00 0. -1.
         23    2    1    2    0    0 -0.10270608898E+02  0.36449860629E+02  0.54655309301E+02  0.11378924927E+03  0.92340200711E+02 0.  0.
         23    2    1    2    0    0 -0.28893387053E+02 -0.14250722403E+02 -0.65327780453E+02  0.12759633725E+03  0.10476256716E+03 0.  0.
        -11    1    4    4    0    0  0.84352706762E+01  0.41415503042E+02 -0.30015057136E+02  0.51839187286E+02  0.00000000000E+00 0. -1.
         11    1    4    4    0    0 -0.37328657729E+02 -0.55666225445E+02 -0.35312723318E+02  0.75757149968E+02  0.00000000000E+00 0.  1.
        -13    1    3    3    0    0  0.12920963291E+02 -0.27867619017E+02  0.10793762987E+02  0.32558574929E+02  0.00000000000E+00 0.  1.
         13    1    3    3    0    0 -0.23191572189E+02  0.64317479646E+02  0.43861546314E+02  0.81230674339E+02  0.00000000000E+00 0. -1.
         21    1    1    2  502  501  0.39163995951E+02 -0.22199138226E+02  0.40039598044E+02  0.60247736293E+02  0.00000000000E+00 0.  1.
<scales pt_clust_5="13000.00000" pt_clust_6="13000.00000" pt_clust_7="13000.00000" pt_clust_8="13000.00000" pt_clust_9="45.01800"></scales>
<clustering>
<clus scale="   45.018">  1  9  2 -1</clus>
<clus scale="   92.340">  7  8 -1 -1</clus>
<clus scale="   96.292">  1  7  2 -1</clus>
<clus scale="  104.763">  5  6 -1 -1</clus>
<clus scale="  108.262">  2  5  1 -1</clus>
</clustering>
</event>
<event>
 9    1  0.1748361E-005  0.1063520E+03  0.7546771E-02  0.1270032E+00
         -3   -1    0    0    0  501 -0.00000000000E+00  0.00000000000E+00  0.13269219667E+03  0.13269219667E+03  0.00000000000E+00 0.  1.
          3   -1    0    0  502    0  0.00000000000E+00 -0.00000000000E+00 -0.41378840182E+03  0.41378840182E+03  0.00000000000E+00 0. -1.
         23    2    1    2    0    0  0.10458535510E+02 -0.48068362662E+02  0.94778517560E+02  0.14094250068E+03  0.91988437598E+02 0.  0.
         23    2    1    2    0    0 -0.33481269249E+02  0.42240078512E+02 -0.36600970755E+03  0.37982168886E+03  0.86001102832E+02 0.  0.
        -11    1    4    4    0    0 -0.31886167459E-01 -0.23251379194E+02 -0.46890450738E+02  0.52338723920E+02  0.00000000000E+00 0.  1.
         11    1    4    4    0    0 -0.33449383082E+02  0.65491457706E+02 -0.31911925681E+03  0.32748296494E+03  0.00000000000E+00 0. -1.
        -13    1    3    3    0    0  0.37547738225E+02 -0.35925139587E+01  0.77299339529E+02  0.86011200980E+02  0.00000000000E+00 0.  1.
         13    1    3    3    0    0 -0.27089202715E+02 -0.44475848704E+02  0.17479178032E+02  0.54931299696E+02  0.00000000000E+00 0. -1.
         21    1    1    2  502  501  0.23022733739E+02  0.58282841505E+01 -0.98650151659E+01  0.25716408948E+02  0.00000000000E+00 0. -1.
<scales pt_clust_5="13000.00000" pt_clust_6="13000.00000" pt_clust_7="13000.00000" pt_clust_8="13000.00000" pt_clust_9="23.74900"></scales>
<clustering>
<clus scale="   23.749">  1  9  2 -1</clus>
<clus scale="   86.001">  5  6 -1 -1</clus>
<clus scale="   91.988">  7  8 -1 -1</clus>
<clus scale="  101.218">  2  5  1 -1</clus>
<clus scale="  101.218">  2  5  1 -1</clus>
</clustering>
</event>
<event>
 9    1  0.1748361E-005  0.1098536E+03  0.7546771E-02  0.1268612E+00
          2   -1    0    0  502    0  0.00000000000E+00  0.00000000000E+00  0.10195771547E+03  0.10195771547E+03  0.00000000000E+00 0. -1.
         -2   -1    0    0    0  501 -0.00000000000E+00 -0.00000000000E+00 -0.24700812640E+03  0.24700812640E+03  0.00000000000E+00 0.  1.
         23    2    1    2    0    0 -0.88544012356E+01 -0.27690516568E+02 -0.99753288929E+02  0.12641847985E+03  0.72012139714E+02 0.  0.
         23    2    1    2    0    0  0.13136711929E+02  0.71459474925E+02  0.42618904988E+02  0.12424533915E+03  0.91331831699E+02 0.  0.
        -11    1    4    4    0    0 -0.22551971864E+02  0.82601845525E+01 -0.17730752030E+02  0.29853000709E+02  0.00000000000E+00 0.  1.
         11    1    4    4    0    0  0.35688683792E+02  0.63199290372E+02  0.60349657018E+02  0.94392338442E+02  0.00000000000E+00 0. -1.
        -13    1    3    3    0    0 -0.23671520042E+02  0.16404373957E+02 -0.53837332085E+02  0.61056553064E+02  0.00000000000E+00 0. -1.
         13    1    3    3    0    0  0.14817118806E+02 -0.44094890525E+02 -0.45915956843E+02  0.65361926784E+02  0.00000000000E+00 0.  1.
         21    1    1    2  502  501 -0.42823106933E+01 -0.43768958357E+02 -0.87916026983E+02  0.98302022873E+02  0.00000000000E+00 0.  1.
<scales pt_clust_5="13000.00000" pt_clust_6="13000.00000" pt_clust_7="13000.00000" pt_clust_8="13000.00000" pt_clust_9="43.97795"></scales>
<clustering>
<clus scale="   43.978">  2  9  1 -1</clus>
<clus scale="   72.012">  7  8 -1 -1</clus>
<clus scale="   91.332">  5  6 -1 -1</clus>
<clus scale="   94.404">  2  7  1 -1</clus>
<clus scale="  109.854">  1  5  2 -1</clus>
</clustering>
</event>
<event>
 9    1  0.1748361E-005  0.2160374E+03  0.7546771E-02  0.1161615E+00
         -3   -1    0    0    0  501 -0.00000000000E+00  0.00000000000E+00  0.41258771150E+03  0.41258771150E+03  0.00000000000E+00 0.  1.
          3   -1    0    0  502    0  0.00000000000E+00 -0.00000000000E+00 -0.41569715973E+03  0.41569715973E+03  0.00000000000E+00 0. -1.
         23    2    1    2    0    0  0.67328863147E+02  0.37899764860E+02  0.29192219081E+03  0.31566274806E+03  0.91950187823E+02 0.  0.
         23    2    1    2    0    0  0.53227373142E+01 -0.21146863922E+03 -0.17805635634E+03  0.29106484849E+03  0.90925041046E+02 0.  0.
        -11    1    4    4    0    0  0.12906810557E+02 -0.17716255677E+03 -0.96249814915E+02  0.20203263141E+03  0.00000000000E+00 0.  1.
         11    1    4    4    0    0 -0.75840732425E+01 -0.34306082447E+02 -0.81806541425E+02  0.89032217089E+02  0.00000000000E+00 0. -1.
        -13    1    3    3    0    0 -0.19359188806E+02  0.24502539707E+02  0.58682852823E+02  0.66474279678E+02  0.00000000000E+00 0. -1.
         13    1    3    3    0    0  0.86688051953E+02  0.13397225153E+02  0.23323933798E+03  0.24918846838E+03  0.00000000000E+00 0.  1.
         21    1    1    2  502  501 -0.72651600461E+02  0.17356887436E+03 -0.11697528270E+03  0.22155727467E+03  0.00000000000E+00 0. -1.
<scales pt_clust_5="13000.00000" pt_clust_6="13000.00000" pt_clust_7="13000.00000" pt_clust_8="13000.00000" pt_clust_9="195.97143"></scales>
<clustering>
<clus scale="   90.925">  5  6 -1 -1</clus>
<clus scale="   91.950">  7  8 -1 -1</clus>
<clus scale="  120.102">  1  7  2 -1</clus>
<clus scale="  195.971">  1  9  2 -1</clus>
<clus scale="  216.037">  2  5  1 -1</clus>
</clustering>
</event>
<event>
 9    1  0.1748361E-005  0.9573658E+02  0.7546771E-02  0.1294344E+00
         -3   -1    0    0    0  501 -0.00000000000E+00  0.00000000000E+00  0.12483744944E+03  0.12483744944E+03  0.00000000000E+00 0.  1.
          3   -1    0    0  502    0  0.00000000000E+00 -0.00000000000E+00 -0.29510424616E+03  0.29510424616E+03  0.00000000000E+00 0. -1.
         23    2    1    2    0    0 -0.45136775134E+02 -0.20959819599E+02 -0.15320961948E+03  0.18549317476E+03  0.91966775935E+02 0.  0.
         23    2    1    2    0    0  0.39239155402E+01  0.51166440641E+01 -0.10608645278E+03  0.13507187412E+03  0.83357654451E+02 0.  0.
        -11    1    4    4    0    0  0.27333113914E+02 -0.14236328148E+02 -0.99269288901E+02  0.10394307997E+03  0.00000000000E+00 0.  1.
         11    1    4    4    0    0 -0.23409198374E+02  0.19352972212E+02 -0.68171638826E+01  0.31128794152E+02  0.00000000000E+00 0. -1.
        -13    1    3    3    0    0  0.24164249206E+02 -0.23576394200E+02 -0.65406014064E+02  0.73605054031E+02  0.00000000000E+00 0. -1.
         13    1    3    3    0    0 -0.69301024340E+02  0.26165746012E+01 -0.87803605413E+02  0.11188812073E+03  0.00000000000E+00 0.  1.
         21    1    1    2  502  501  0.41212859594E+02  0.15843175535E+02  0.89029275542E+02  0.99376646705E+02  0.00000000000E+00 0.  1.
<scales pt_clust_5="13000.00000" pt_clust_6="13000.00000" pt_clust_7="13000.00000" pt_clust_8="13000.00000" pt_clust_9="44.15321"></scales>
<clustering>
<clus scale="   44.153">  1  9  2 -1</clus>
<clus scale="   83.358">  5  6 -1 -1</clus>
<clus scale="   87.499">  2  5  1 -1</clus>
<clus scale="   91.967">  7  8 -1 -1</clus>
<clus scale="   87.499">  2  5  1 -1</clus>
</clustering>
</event>
<event>
 9    1  0.1748361E-005  0.1063251E+03  0.7546771E-02  0.1270581E+00
          3   -1    0    0  502    0  0.00000000000E+00  0.00000000000E+00  0.67187586179E+02  0.67187586179E+02  0.00000000000E+00 0. -1.
         -3   -1    0    0    0  501 -0.00000000000E+00 -0.00000000000E+00 -0.23080570186E+03  0.23080570186E+03  0.00000000000E+00 0.  1.
         23    2    1    2    0    0  0.30244580777E+02  0.56865512343E+02 -0.13739082839E+03  0.17643623894E+03  0.90028248493E+02 0.  0.
         23    2    1    2    0    0 -0.14071911272E+02 -0.38065170489E+02 -0.11904540093E+02  0.92918802291E+02  0.82735783390E+02 0.  0.
        -11    1    4    4    0    0 -0.43353125814E+02 -0.43988263216E+02 -0.12613153404E+02  0.63036120260E+02  0.00000000000E+00 0. -1.
         11    1    4    4    0    0  0.29281214542E+02  0.59230927267E+01  0.70861331111E+00  0.29882682031E+02  0.00000000000E+00 0.  1.
        -13    1    3    3    0    0  0.43028728967E+02  0.38314349536E+02 -0.26744533452E+02  0.63519532165E+02  0.00000000000E+00 0.  1.
         13    1    3    3    0    0 -0.12784148190E+02  0.18551162808E+02 -0.11064629494E+03  0.11291670678E+03  0.00000000000E+00 0. -1.
         21    1    1    2  502  501 -0.16172669505E+02 -0.18800341854E+02 -0.14322747201E+02  0.28638246806E+02  0.00000000000E+00 0. -1.
<scales pt_clust_5="13000.00000" pt_clust_6="13000.00000" pt_clust_7="13000.00000" pt_clust_8="13000.00000" pt_clust_9="24.79936"></scales>
<clustering>
<clus scale="   24.799">  1  9  2 -1</clus>
<clus scale="   82.736">  5  6 -1 -1</clus>
<clus scale="   90.028">  7  8 -1 -1</clus>
<clus scale="  100.226">  1  5  2 -1</clus>
<clus scale="   24.799">  1  5  2 -1</clus>
</clustering>
</event>
<event>
 9    1  0.1748361E-005  0.2031149E+03  0.7546771E-02  0.1147265E+00
         -2   -1    0    0    0  501 -0.00000000000E+00  0.00000000000E+00  0.10795434249E+04  0.10795434249E+04  0.00000000000E+00 0.  1.
          2   -1    0    0  502    0  0.00000000000E+00 -0.00000000000E+00 -0.22148227788E+03  0.22148227788E+03  0.00000000000E+00 0. -1.
         23    2    1    2    0    0 -0.25226772590E+03  0.65081806373E+01  0.78490807873E+03  0.82947176975E+03  0.90892039391E+02 0.  0.
         23    2    1    2    0    0  0.17526466173E+03  0.21094967583E+02 -0.13985353752E+03  0.24338027152E+03  0.92261830131E+02 0.  0.
        -13    1    3    3    0    0 -0.98349432689E+02  0.84434938255E+01  0.18004551669E+03  0.20532971431E+03  0.00000000000E+00 0. -1.
         13    1    3    3    0    0 -0.15391829321E+03 -0.19353131882E+01  0.60486256204E+03  0.62414205545E+03  0.00000000000E+00 0.  1.
        -13    1    4    4    0    0  0.63601364661E+02 -0.36406252854E+02 -0.45117144915E+02  0.86058733426E+02  0.00000000000E+00 0.  1.
         13    1    4    4    0    0  0.11166329707E+03  0.57501220437E+02 -0.94736392604E+02  0.15732153809E+03  0.00000000000E+00 0. -1.
         21    1    1    2  502  501  0.77003064167E+02 -0.27603148220E+02  0.21300660581E+03  0.22817366150E+03  0.00000000000E+00 0. -1.
<scales pt_clust_5="13000.00000" pt_clust_6="13000.00000" pt_clust_7="13000.00000" pt_clust_8="13000.00000" pt_clust_9="81.80101"></scales>
<clustering>
<clus scale="   81.801">  1  9  2 -1</clus>
<clus scale="   90.892">  5  6 -1 -1</clus>
<clus scale="   92.262">  7  8 -1 -1</clus>
<clus scale="  202.496">  1  5  2 -1</clus>
<clus scale="  203.115">  2  5  1 -1</clus>
</clustering>
</event>
<event>
 9    1  0.1748361E-005  0.1521241E+03  0.7546771E-02  0.1198257E+00
          2   -1    0    0  502    0  0.00000000000E+00  0.00000000000E+00  0.10259534955E+03  0.10259534955E+03  0.00000000000E+00 0. -1.
         -2   -1    0    0    0  501 -0.00000000000E+00 -0.00000000000E+00 -0.27210214495E+03  0.27210214495E+03  0.00000000000E+00 0.  1.
         23    2    1    2    0    0  0.13175983414E+03 -0.22791349729E+02 -0.84580858122E+02  0.18345900118E+03  0.92861100790E+02 0.  0.
         23    2    1    2    0    0 -0.10566648598E+03  0.30905435497E+02 -0.62208275256E+02  0.15570268920E+03  0.90845504632E+02 0.  0.
        -11    1    4    4    0    0 -0.10831913969E+03  0.52839969485E+02 -0.50211765317E+02  0.13056155550E+03  0.00000000000E+00 0.  1.
         11    1    4    4    0    0  0.26526537133E+01 -0.21934533988E+02 -0.11996509939E+02  0.25141133700E+02  0.00000000000E+00 0. -1.
        -13    1    3    3    0    0  0.25629771820E+02 -0.32516134830E+02 -0.61944164093E+02  0.74506802998E+02  0.00000000000E+00 0.  1.
         13    1    3    3    0    0  0.10613006232E+03  0.97247851013E+01 -0.22636694029E+02  0.10895219818E+03  0.00000000000E+00 0. -1.
         21    1    1    2  502  501 -0.26093348156E+02 -0.81140857682E+01 -0.22717662025E+02  0.35535804110E+02  0.00000000000E+00 0. -1.
<scales pt_clust_5="13000.00000" pt_clust_6="13000.00000" pt_clust_7="13000.00000" pt_clust_8="13000.00000" pt_clust_9="27.32583"></scales>
<clustering>
<clus scale="   27.326">  2  9  1 -1</clus>
<clus scale="   90.846">  5  6 -1 -1</clus>
<clus scale="   92.861">  7  8 -1 -1</clus>
<clus scale="  150.902">  1  5  2 -1</clus>
<clus scale="  150.902">  1  5  2 -1</clus>
</clustering>
</event>
<event>
 9    1  0.1748361E-005  0.1023834E+03  0.7546771E-02  0.1277040E+00
         -1   -1    0    0    0  501 -0.00000000000E+00  0.00000000000E+00  0.88159235580E+03  0.88159235580E+03  0.00000000000E+00 0.  1.
          1   -1    0    0  502    0  0.00000000000E+00 -0.00000000000E+00 -0.22842388870E+02  0.22842388870E+02  0.00000000000E+00 0. -1.
         23    2    1    2    0    0  0.26782809762E+02  0.70623297503E+02  0.42489804950E+03  0.44137629483E+03  0.92572739609E+02 0.  0.
         23    2    1    2    0    0  0.72010347971E+01 -0.32031744797E+02  0.17402409293E+03  0.19819110943E+03  0.88980016640E+02 0.  0.
        -11    1    3    3    0    0 -0.36886017237E+01  0.83410932428E+02  0.34403926248E+03  0.35402542785E+03  0.00000000000E+00 0.  1.
         11    1    3    3    0    0  0.30471411485E+02 -0.12787634925E+02  0.80858787016E+02  0.87350866983E+02  0.00000000000E+00 0. -1.
        -11    1    4    4    0    0 -0.35122079615E+02  0.34380955509E+01  0.98510491973E+02  0.10464080469E+03  0.00000000000E+00 0.  1.
         11    1    4    4    0    0  0.42323114412E+02 -0.35469840348E+02  0.75513600958E+02  0.93550304743E+02  0.00000000000E+00 0. -1.
         21    1    1    2  502  501 -0.33983844559E+02 -0.38591552706E+02  0.25982782450E+03  0.26486734041E+03  0.00000000000E+00 0.  1.
<scales pt_clust_5="13000.00000" pt_clust_6="13000.00000" pt_clust_7="13000.00000" pt_clust_8="13000.00000" pt_clust_9="51.42188"></scales>
<clustering>
<clus scale="   51.422">  1  9  2 -1</clus>
<clus scale="   88.980">  7  8 -1 -1</clus>
<clus scale="   92.573">  5  6 -1 -1</clus>
<clus scale="   99.147">  2  7  1 -1</clus>
<clus scale="   99.147">  2  5  1 -1</clus>
</clustering>
</event>
<event>
 9    1  0.1748361E-005  0.1345156E+03  0.7546771E-02  0.1221121E+00
         -3   -1    0    0    0  501 -0.00000000000E+00  0.00000000000E+00  0.13428642820E+03  0.13428642820E+03  0.00000000000E+00 0.  1.
          3   -1    0    0  502    0  0.00000000000E+00 -0.00000000000E+00 -0.26209397716E+03  0.26209397716E+03  0.00000000000E+00 0. -1.
         23    2    1    2    0    0 -0.58231358216E+02 -0.52390933658E+02  0.34316366053E+02  0.12586507733E+03  0.92350981059E+02 0.  0.
         23    2    1    2    0    0  0.78528960652E+02  0.65470572639E+02 -0.18909678380E+03  0.23431304534E+03  0.93229909521E+02 0.  0.
        -13    1    3    3    0    0 -0.22540749547E+02 -0.58480383017E+02  0.55672123087E+02  0.83829743391E+02  0.00000000000E+00 0.  1.
         13    1    3    3    0    0 -0.35690608669E+02  0.60894493596E+01 -0.21355757034E+02  0.42035333937E+02  0.00000000000E+00 0. -1.
        -13    1    4    4    0    0  0.41789708269E+02 -0.96146783329E+01 -0.23705890229E+02  0.48997867180E+02  0.00000000000E+00 0.  1.
         13    1    4    4    0    0  0.36739252383E+02  0.75085250972E+02 -0.16539089358E+03  0.18531517816E+03  0.00000000000E+00 0. -1.
         21    1    1    2  502  501 -0.20297602436E+02 -0.13079638982E+02  0.26972868792E+02  0.36202282682E+02  0.00000000000E+00 0.  1.
<scales pt_clust_5="13000.00000" pt_clust_6="13000.00000" pt_clust_7="13000.00000" pt_clust_8="13000.00000" pt_clust_9="24.14683"></scales>
<clustering>
<clus scale="   24.147">  1  9  2 -1</clus>
<clus scale="   92.351">  5  6 -1 -1</clus>
<clus scale="   93.230">  7  8 -1 -1</clus>
<clus scale="  133.908">  1  5  2 -1</clus>
<clus scale="  134.516">  2  5  1 -1</clus>
</clustering>
</event>
<event>
 9    1  0.1748361E-005  0.1013186E+03  0.7546771E-02  0.1277618E+00
          2   -1    0    0  502    0  0.00000000000E+00  0.00000000000E+00  0.38275494442E+03  0.38275494442E+03  0.00000000000E+00 0. -1.
         -2   -1    0    0    0  501 -0.00000000000E+00 -0.00000000000E+00 -0.58920627774E+02  0.58920627774E+02  0.00000000000E+00 0.  1.
         23    2    1    2    0    0 -0.10724996644E+02 -0.36735401847E+02  0.11538150483E+03  0.15312940298E+03  0.93119316461E+02 0.  0.
         23    2    1    2    0    0  0.31612858037E+02  0.29118935411E+02  0.23354711980E+03  0.25501949911E+03  0.92969901398E+02 0.  0.
        -11    1    4    4    0    0  0.62196066217E+02  0.59467342315E+01  0.12219572724E+03  0.13724252277E+03  0.00000000000E+00 0. -1.
         11    1    4    4    0    0 -0.30583208180E+02  0.23172201179E+02  0.11135139256E+03  0.11777697634E+03  0.00000000000E+00 0.  1.
        -13    1    3    3    0    0  0.30510237251E+02 -0.36045025907E+02  0.24219190009E+02  0.53072475300E+02  0.00000000000E+00 0.  1.
         13    1    3    3    0    0 -0.41235233894E+02 -0.69037593989E+00  0.91162314821E+02  0.10005692768E+03  0.00000000000E+00 0. -1.
         21    1    1    2  502  501 -0.20887861393E+02  0.76164664363E+01 -0.25094307990E+02  0.33526670101E+02  0.00000000000E+00 0.  1.
<scales pt_clust_5="13000.00000" pt_clust_6="13000.00000" pt_clust_7="13000.00000" pt_clust_8="13000.00000" pt_clust_9="22.23316"></scales>
<clustering>
<clus scale="   22.233">  2  9  1 -1</clus>
<clus scale="   92.970">  5  6 -1 -1</clus>
<clus scale="   93.119">  7  8 -1 -1</clus>
<clus scale="  101.181">  1  5  2 -1</clus>
<clus scale="  101.181">  1  5  2 -1</clus>
</clustering>
</event>
<event>
 9    1  0.1748361E-005  0.2234047E+03  0.7546771E-02  0.1131479E+00
         -2   -1    0    0    0  501 -0.00000000000E+00  0.00000000000E+00  0.19016390629E+03  0.19016390629E+03  0.00000000000E+00 0.  1.
          2   -1    0    0  502    0  0.00000000000E+00 -0.00000000000E+00 -0.59861278941E+03  0.59861278941E+03  0.00000000000E+00 0. -1.
         23    2    1    2    0    0 -0.12219231589E+03  0.16457172500E+03  0.72418946384E+02  0.23484514879E+03  0.88842137421E+02 0.  0.
         23    2    1    2    0    0  0.14749890973E+03 -0.14182569735E+03 -0.46579527186E+03  0.51671612727E+03  0.90331966097E+02 0.  0.
        -11    1    4    4    0    0  0.80381293865E+01 -0.53373496701E+02 -0.16450574442E+03  0.17313428783E+03  0.00000000000E+00 0.  1.
         11    1    4    4    0    0  0.13946078034E+03 -0.88452200651E+02 -0.30128952744E+03  0.34358183945E+03  0.00000000000E+00 0. -1.
        -11    1    3    3    0    0 -0.76456689485E+02  0.55740186053E+02  0.68351352892E+02  0.11672403844E+03  0.00000000000E+00 0.  1.
         11    1    3    3    0    0 -0.45735626403E+02  0.10883153895E+03  0.40675934918E+01  0.11812111034E+03  0.00000000000E+00 0. -1.
         21    1    1    2  502  501 -0.25306593843E+02 -0.22746027647E+02 -0.15072557645E+02  0.37215419649E+02  0.00000000000E+00 0.  1.
<scales pt_clust_5="13000.00000" pt_clust_6="13000.00000" pt_clust_7="13000.00000" pt_clust_8="13000.00000" pt_clust_9="34.02654"></scales>
<clustering>
<clus scale="   34.027">  1  9  2 -1</clus>
<clus scale="   88.842">  7  8 -1 -1</clus>
<clus scale="   90.332">  5  6 -1 -1</clus>
<clus scale="  222.806">  1  7  2 -1</clus>
<clus scale="  223.405">  2  5  1 -1</clus>
</clustering>
</event>
<event>
 9    1  0.1748361E-005  0.1116599E+03  0.7546771E-02  0.1259104E+00
          1   -1    0    0  502    0  0.00000000000E+00  0.00000000000E+00  0.17552418028E+03  0.17552418028E+03  0.00000000000E+00 0. -1.
         -1   -1    0    0    0  501 -0.00000000000E+00 -0.00000000000E+00 -0.10919087254E+03  0.10919087254E+03  0.00000000000E+00 0.  1.
         23    2    1    2    0    0 -0.91224216022E+01  0.40195074367E+02  0.33469964503E+02  0.10938611744E+03  0.95635880225E+02 0.  0.
         23    2    1    2    0    0  0.69699052303E+01 -0.72920668559E+02  0.60909018141E+02  0.13217620983E+03  0.91622259694E+02 0.  0.
        -11    1    3    3    0    0 -0.21403194754E+02  0.57995719246E+02 -0.82765471234E+01  0.62370677636E+02  0.00000000000E+00 0.  1.
         11    1    3    3    0    0  0.12280773151E+02 -0.17800644879E+02  0.41746511627E+02  0.47015439808E+02  0.00000000000E+00 0. -1.
        -11    1    4    4    0    0  0.26881389388E+02 -0.86497507235E+02  0.58787372943E+02  0.10798325366E+03  0.00000000000E+00 0. -1.
         11    1    4    4    0    0 -0.19911484158E+02  0.13576838676E+02  0.21216451975E+01  0.24192956168E+02  0.00000000000E+00 0.  1.
         21    1    1    2  502  501  0.21525163718E+01  0.32725594192E+02 -0.28045674897E+02  0.43152725550E+02  0.00000000000E+00 0.  1.
<scales pt_clust_5="13000.00000" pt_clust_6="13000.00000" pt_clust_7="13000.00000" pt_clust_8="13000.00000" pt_clust_9="32.79631"></scales>
<clustering>
<clus scale="   32.796">  2  9  1 -1</clus>
<clus scale="   91.622">  7  8 -1 -1</clus>
<clus scale="   95.636">  5  6 -1 -1</clus>
<clus scale="  108.242">  1  7  2 -1</clus>
<clus scale="  108.242">  1  5  2 -1</clus>
</clustering>
</event>
<event>
 9    1  0.1748361E-005  0.1399347E+03  0.7546771E-02  0.1213532E+00
         -2   -1    0    0    0  501 -0.00000000000E+00  0.00000000000E+00  0.77201646571E+02  0.77201646571E+02  0.00000000000E+00 0.  1.
          2   -1    0    0  502    0  0.00000000000E+00 -0.00000000000E+00 -0.36152037811E+03  0.36152037811E+03  0.00000000000E+00 0. -1.
         23    2    1    2    0    0  0.14251276578E+02  0.87400481561E+02 -0.33598964027E+02  0.13075698277E+03  0.90147407600E+02 0.  0.
         23    2    1    2    0    0 -0.20962075117E+02 -0.11227253844E+03 -0.23826555533E+03  0.27935103431E+03  0.90675211765E+02 0.  0.
        -11    1    4    4    0    0 -0.18650507207E+02 -0.43124828427E+02 -0.21237541662E+02  0.51561860147E+02  0.00000000000E+00 0.  1.
         11    1    4    4    0    0 -0.23115679102E+01 -0.69147710015E+02 -0.21702801367E+03  0.22778917416E+03  0.00000000000E+00 0. -1.
        -13    1    3    3    0    0 -0.50569367700E+01  0.46000454804E+02  0.27984130307E+02  0.54080735948E+02  0.00000000000E+00 0.  1.
         13    1    3    3    0    0  0.19308213348E+02  0.41400026758E+02 -0.61583094334E+02  0.76676246818E+02  0.00000000000E+00 0. -1.
         21    1    1    2  502  501  0.67107985390E+01  0.24872056880E+02 -0.12454212180E+02  0.28614007610E+02  0.00000000000E+00 0. -1.
<scales pt_clust_5="13000.00000" pt_clust_6="13000.00000" pt_clust_7="13000.00000" pt_clust_8="13000.00000" pt_clust_9="25.76148"></scales>
<clustering>
<clus scale="   25.761">  1  9  2 -1</clus>
<clus scale="   90.147">  7  8 -1 -1</clus>
<clus scale="   90.675">  5  6 -1 -1</clus>
<clus scale="  139.593">  1  7  2 -1</clus>
<clus scale="  139.935">  2  5  1 -1</clus>
</clustering>
</event>
<event>
 9    1  0.1748361E-005  0.1526166E+03  0.7546771E-02  0.1197619E+00
          1   -1    0    0  502    0  0.00000000000E+00  0.00000000000E+00  0.80759871347E+02  0.80759871347E+02  0.00000000000E+00 0. -1.
         -1   -1    0    0    0  501 -0.00000000000E+00 -0.00000000000E+00 -0.36709713632E+03  0.36709713632E+03  0.00000000000E+00 0.  1.
         23    2    1    2    0    0  0.10834998168E+03  0.67648264378E+02 -0.11691503483E+03  0.19505416199E+03  0.89783041468E+02 0.  0.
         23    2    1    2    0    0 -0.88683441306E+02 -0.77505959380E+02 -0.99080399747E+02  0.17910128488E+03  0.91588307819E+02 0.  0.
        -11    1    3    3    0    0  0.34875202354E+02  0.72863588294E+02 -0.75398200517E+02  0.11050009448E+03  0.00000000000E+00 0.  1.
         11    1    3    3    0    0  0.73474779329E+02 -0.52153239163E+01 -0.41516834310E+02  0.84554067508E+02  0.00000000000E+00 0. -1.
        -13    1    4    4    0    0 -0.10234725446E+03 -0.42801851807E+02 -0.82677843733E+02  0.13835673044E+03  0.00000000000E+00 0.  1.
         13    1    4    4    0    0  0.13663813155E+02 -0.34704107573E+02 -0.16402556014E+02  0.40744554436E+02  0.00000000000E+00 0. -1.
         21    1    1    2  502  501 -0.19666540377E+02  0.98576950016E+01 -0.70341830398E+02  0.73701560804E+02  0.00000000000E+00 0. -1.
<scales pt_clust_5="13000.00000" pt_clust_6="13000.00000" pt_clust_7="13000.00000" pt_clust_8="13000.00000" pt_clust_9="21.99879"></scales>
<clustering>
<clus scale="   21.999">  2  9  1 -1</clus>
<clus scale="   89.783">  5  6 -1 -1</clus>
<clus scale="   91.588">  7  8 -1 -1</clus>
<clus scale="  151.540">  2  5  1 -1</clus>
<clus scale="  152.617">  1  5  2 -1</clus>
</clustering>
</event>
<event>
 9    1  0.1748361E-005  0.1237780E+03  0.7546771E-02  0.1237386E+00
         -1   -1    0    0    0  501 -0.00000000000E+00  0.00000000000E+00  0.17820095541E+03  0.17820095541E+03  0.00000000000E+00 0.  1.
          1   -1    0    0  502    0  0.00000000000E+00 -0.00000000000E+00 -0.10638087140E+03  0.10638087140E+03  0.00000000000E+00 0. -1.
         23    2    1    2    0    0 -0.26117252391E+01  0.80274141743E+02  0.41349514087E+02  0.12746952426E+03  0.89932965911E+02 0.  0.
         23    2    1    2    0    0  0.24045359386E+02 -0.83989280511E+02  0.91979138852E+01  0.12668651048E+03  0.91282483368E+02 0.  0.
        -11    1    3    3    0    0  0.13645965579E+02  0.53854459876E+02 -0.19736601309E+02  0.58958024529E+02  0.00000000000E+00 0. -1.
         11    1    3    3    0    0 -0.16257690818E+02  0.26419681868E+02  0.61086115396E+02  0.68511499728E+02  0.00000000000E+00 0.  1.
        -13    1    4    4    0    0  0.32604440045E+02 -0.41809889537E+02 -0.36146125977E+02  0.64168986254E+02  0.00000000000E+00 0.  1.
         13    1    4    4    0    0 -0.85590806584E+01 -0.42179390973E+02  0.45344039862E+02  0.62517524228E+02  0.00000000000E+00 0. -1.
         21    1    1    2  502  501 -0.21433634147E+02  0.37151387671E+01  0.21272656038E+02  0.30425792080E+02  0.00000000000E+00 0. -1.
<scales pt_clust_5="13000.00000" pt_clust_6="13000.00000" pt_clust_7="13000.00000" pt_clust_8="13000.00000" pt_clust_9="21.75323"></scales>
<clustering>
<clus scale="   21.753">  1  9  2 -1</clus>
<clus scale="   89.933">  5  6 -1 -1</clus>
<clus scale="   91.282">  7  8 -1 -1</clus>
<clus scale="  122.786">  1  5  2 -1</clus>
<clus scale="  123.778">  2  5  1 -1</clus>
</clustering>
</event>
<event>
 9    1  0.1748361E-005  0.1056844E+03  0.7546771E-02  0.1270043E+00
         -1   -1    0    0    0  501 -0.00000000000E+00  0.00000000000E+00  0.14385511388E+03  0.14385511388E+03  0.00000000000E+00 0.  1.
          1   -1    0    0  502    0  0.00000000000E+00 -0.00000000000E+00 -0.43130054931E+03  0.43130054931E+03  0.00000000000E+00 0. -1.
         23    2    1    2    0    0  0.22293084907E+01 -0.47803653391E+02 -0.11662824532E+03  0.15411065943E+03  0.88644168722E+02 0.  0.
         23    2    1    2    0    0 -0.86538083578E+02 -0.58914135917E+01 -0.25878202776E+03  0.28789492888E+03  0.91606787526E+02 0.  0.
        -11    1    4    4    0    0 -0.86028254511E+02  0.24481635743E+02 -0.14713069108E+03  0.17218493349E+03  0.00000000000E+00 0.  1.
         11    1    4    4    0    0 -0.50982906660E+00 -0.30373049334E+02 -0.11165133668E+03  0.11570999539E+03  0.00000000000E+00 0. -1.
        -11    1    3    3    0    0 -0.20862661171E+02  0.12522269060E+02 -0.45547734652E+01  0.24754874568E+02  0.00000000000E+00 0.  1.
         11    1    3    3    0    0  0.23091969662E+02 -0.60325922451E+02 -0.11207347186E+03  0.12935578486E+03  0.00000000000E+00 0. -1.
         21    1    1    2  502  501  0.84308775087E+02  0.53695066983E+02  0.87964837652E+02  0.13315007487E+03  0.00000000000E+00 0.  1.
<scales pt_clust_5="13000.00000" pt_clust_6="13000.00000" pt_clust_7="13000.00000" pt_clust_8="13000.00000" pt_clust_9="99.95564"></scales>
<clustering>
<clus scale="   88.644">  7  8 -1 -1</clus>
<clus scale="   91.607">  5  6 -1 -1</clus>
<clus scale="   99.956">  1  9  2 -1</clus>
<clus scale="  103.127">  1  7  2 -1</clus>
<clus scale="  105.684">  2  5  1 -1</clus>
</clustering>
</event>
<event>
 9    1  0.1748361E-005  0.9071203E+02  0.7546771E-02  0.1303179E+00
         -4   -1    0    0    0  501 -0.00000000000E+00  0.00000000000E+00  0.19311786755E+03  0.19311786755E+03  0.00000000000E+00 0.  1.
          4   -1    0    0  502    0  0.00000000000E+00 -0.00000000000E+00 -0.16159988680E+03  0.16159988680E+03  0.00000000000E+00 0. -1.
         23    2    1    2    0    0  0.52050018585E+02  0.18512307332E+02 -0.17935439857E+02  0.10502890971E+03  0.87507039231E+02 0.  0.
         23    2    1    2    0    0 -0.62416054738E+01 -0.10632815429E+02 -0.77197670105E+02  0.11477777807E+03  0.84038346409E+02 0.  0.
        -13    1    4    4    0    0  0.20308761467E+02  0.42169766666E+01  0.95615879599E+01  0.22839716479E+02  0.00000000000E+00 0. -1.
         13    1    4    4    0    0 -0.26550366941E+02 -0.14849792095E+02 -0.86759258065E+02  0.91938061596E+02  0.00000000000E+00 0.  1.
        -13    1    3    3    0    0  0.18401192046E+02  0.14259873274E+02 -0.51991198388E+02  0.56965187302E+02  0.00000000000E+00 0. -1.
         13    1    3    3    0    0  0.33648826539E+02  0.42524340586E+01  0.34055758531E+02  0.48063722411E+02  0.00000000000E+00 0.  1.
         21    1    1    2  502  501 -0.45808413111E+02 -0.78794919032E+01  0.12665109071E+03  0.13491106657E+03  0.00000000000E+00 0.  1.
<scales pt_clust_5="13000.00000" pt_clust_6="13000.00000" pt_clust_7="13000.00000" pt_clust_8="13000.00000" pt_clust_9="46.48115"></scales>
<clustering>
<clus scale="   46.481">  1  9  2 -1</clus>
<clus scale="   84.038">  5  6 -1 -1</clus>
<clus scale="   87.371">  2  5  1 -1</clus>
<clus scale="   87.507">  7  8 -1 -1</clus>
<clus scale="   87.371">  2  5  1 -1</clus>
</clustering>
</event>
<event>
 9    1  0.1748361E-005  0.9411025E+02  0.7546771E-02  0.1293825E+00
         -2   -1    0    0    0  501 -0.00000000000E+00  0.00000000000E+00  0.54863640434E+02  0.54863640434E+02  0.00000000000E+00 0.  1.
          2   -1    0    0  502    0  0.00000000000E+00 -0.00000000000E+00 -0.35541369502E+03  0.35541369502E+03  0.00000000000E+00 0. -1.
         23    2    1    2    0    0 -0.14916809127E+02  0.15799963906E+02 -0.99441313077E+02  0.13632804442E+03  0.90689640503E+02 0.  0.
         23    2    1    2    0    0 -0.16869496624E+02 -0.22088480190E+02 -0.21744122236E+03  0.23766341774E+03  0.91819028944E+02 0.  0.
        -11    1    4    4    0    0 -0.50566465605E+02 -0.22736392818E+02 -0.17437546981E+03  0.18297736329E+03  0.00000000000E+00 0.  1.
         11    1    4    4    0    0  0.33696968981E+02  0.64791262799E+00 -0.43065752548E+02  0.54686054455E+02  0.00000000000E+00 0. -1.
        -11    1    3    3    0    0  0.35062522060E+02  0.22306749755E+02 -0.56355021397E+02  0.70020425409E+02  0.00000000000E+00 0.  1.
         11    1    3    3    0    0 -0.49979331187E+02 -0.65067858488E+01 -0.43086291680E+02  0.66307619009E+02  0.00000000000E+00 0. -1.
         21    1    1    2  502  501  0.31786305751E+02  0.62885162845E+01  0.16332480850E+02  0.36285873299E+02  0.00000000000E+00 0.  1.
<scales pt_clust_5="13000.00000" pt_clust_6="13000.00000" pt_clust_7="13000.00000" pt_clust_8="13000.00000" pt_clust_9="32.40239"></scales>
<clustering>
<clus scale="   32.402">  1  9  2 -1</clus>
<clus scale="   90.690">  7  8 -1 -1</clus>
<clus scale="   91.819">  5  6 -1 -1</clus>
<clus scale="   93.009">  1  7  2 -1</clus>
<clus scale="   94.110">  2  5  1 -1</clus>
</clustering>
</event>
<event>
 9    1  0.1748361E-005  0.1854113E+03  0.7546771E-02  0.1162813E+00
          1   -1    0    0  502    0  0.00000000000E+00  0.00000000000E+00  0.39857981648E+03  0.39857981648E+03  0.00000000000E+00 0. -1.
         -1   -1    0    0    0  501 -0.00000000000E+00 -0.00000000000E+00 -0.35521737322E+03  0.35521737322E+03  0.00000000000E+00 0.  1.
         23    2    1    2    0    0 -0.12794032517E+03  0.12797592295E+03 -0.21121931265E+03  0.29263480081E+03  0.90966834341E+02 0.  0.
         23    2    1    2    0    0  0.10604510532E+03 -0.11843219624E+03  0.33236383230E+03  0.37979572016E+03  0.92235148182E+02 0.  0.
        -11    1    4    4    0    0  0.67657004662E+02 -0.13679872771E+02  0.16271188182E+03  0.17674774591E+03  0.00000000000E+00 0. -1.
         11    1    4    4    0    0  0.38388100660E+02 -0.10475232347E+03  0.16965195048E+03  0.20304797425E+03  0.00000000000E+00 0.  1.
        -11    1    3    3    0    0 -0.10615303619E+03  0.13089040874E+03 -0.21177515273E+03  0.27064641418E+03  0.00000000000E+00 0.  1.
         11    1    3    3    0    0 -0.21787288982E+02 -0.29144857883E+01  0.55584008274E+00  0.21988386635E+02  0.00000000000E+00 0. -1.
         21    1    1    2  502  501  0.21895219848E+02 -0.95437267121E+01 -0.77782076394E+02  0.81366668728E+02  0.00000000000E+00 0.  1.
<scales pt_clust_5="13000.00000" pt_clust_6="13000.00000" pt_clust_7="13000.00000" pt_clust_8="13000.00000" pt_clust_9="23.88479"></scales>
<clustering>
<clus scale="   23.885">  2  9  1 -1</clus>
<clus scale="   90.967">  7  8 -1 -1</clus>
<clus scale="   92.235">  5  6 -1 -1</clus>
<clus scale="  184.784">  2  7  1 -1</clus>
<clus scale="  185.411">  1  5  2 -1</clus>
</clustering>
</event>
<event>
 9    1  0.4689991E-005  0.2709466E+03  0.7546771E-02  0.1100747E+00
          2   -1    0    0  502    0  0.00000000000E+00  0.00000000000E+00  0.74627680373E+03  0.74627680373E+03  0.00000000000E+00 0. -1.
         -2   -1    0    0    0  501 -0.00000000000E+00 -0.00000000000E+00 -0.20191226260E+03  0.20191226260E+03  0.00000000000E+00 0.  1.
         23    2    1    2    0    0  0.16440559276E+03 -0.16895888959E+03 -0.67300763331E+02  0.26145180239E+03  0.90836924916E+02 0.  0.
         23    2    1    2    0    0 -0.18397642019E+03  0.18193136951E+03  0.60163377931E+03  0.66120426531E+03  0.91002910172E+02 0.  0.
        -13    1    4    4    0    0 -0.51891205632E+02  0.12546793352E+02  0.18375168752E+03  0.19134994620E+03  0.00000000000E+00 0.  1.
         13    1    4    4    0    0 -0.13208521456E+03  0.16938457616E+03  0.41788209179E+03  0.46985431911E+03  0.00000000000E+00 0. -1.
        -13    1    3    3    0    0  0.16809033398E+03 -0.13830400973E+03 -0.73903008436E+02  0.22987825939E+03  0.00000000000E+00 0.  1.
         13    1    3    3    0    0 -0.36847412265E+01 -0.30654879857E+02  0.66022451053E+01  0.31573542997E+02  0.00000000000E+00 0. -1.
         21    1    1    2  502  501  0.19570827439E+02 -0.12972479917E+02  0.10031525154E+02  0.25532998625E+02  0.00000000000E+00 0. -1.
<scales pt_clust_5="13000.00000" pt_clust_6="13000.00000" pt_clust_7="13000.00000" pt_clust_8="13000.00000" pt_clust_9="23.47983"></scales>
<clustering>
<clus scale="   23.480">  2  9  1 -1</clus>
<clus scale="   90.837">  7  8 -1 -1</clus>
<clus scale="   91.003">  5  6 -1 -1</clus>
<clus scale="  270.891">  2  7  1 -1</clus>
<clus scale="  270.947">  1  5  2 -1</clus>
</clustering>
</event>
<event>
 9    1  0.1748361E-005  0.2692342E+03  0.7546771E-02  0.1101882E+00
         -2   -1    0    0    0  501 -0.00000000000E+00  0.00000000000E+00  0.42962597301E+02  0.42962597301E+02  0.00000000000E+00 0. -1.
          2   -1    0    0  502    0  0.00000000000E+00 -0.00000000000E+00 -0.19180266835E+04  0.19180266835E+04  0.00000000000E+00 0.  1.
         23    2    1    2    0    0  0.49300511509E+02 -0.24018242536E+03 -0.69046423044E+03  0.73804473065E+03  0.88606055308E+02 0.  0.
         23    2    1    2    0    0 -0.27645787323E+02  0.25758679564E+03 -0.11030434500E+04  0.11367860538E+04  0.91991480720E+02 0.  0.
        -13    1    4    4    0    0  0.20805025014E+02  0.14358345291E+03 -0.71050509332E+03  0.72516656338E+03  0.00000000000E+00 0.  1.
         13    1    4    4    0    0 -0.48450812336E+02  0.11400334273E+03 -0.39253835671E+03  0.41161949037E+03  0.00000000000E+00 0. -1.
        -13    1    3    3    0    0 -0.17601092259E+02 -0.54016909807E+02 -0.96242712798E+02  0.11175994256E+03  0.00000000000E+00 0.  1.
         13    1    3    3    0    0  0.66901603767E+02 -0.18616551555E+03 -0.59422151764E+03  0.62628478809E+03  0.00000000000E+00 0. -1.
         21    1    1    2  502  501 -0.21654724186E+02 -0.17404370278E+02 -0.81556405689E+02  0.86158496350E+02  0.00000000000E+00 0. -1.
<scales pt_clust_5="13000.00000" pt_clust_6="13000.00000" pt_clust_7="13000.00000" pt_clust_8="13000.00000" pt_clust_9="27.78199"></scales>
<clustering>
<clus scale="   27.782">  1  9  2 -1</clus>
<clus scale="   88.606">  7  8 -1 -1</clus>
<clus scale="   91.991">  5  6 -1 -1</clus>
<clus scale="  268.096">  1  7  2 -1</clus>
<clus scale="  269.234">  2  5  1 -1</clus>
</clustering>
</event>
<event>
 9    1  0.1748361E-005  0.1156596E+03  0.7546771E-02  0.1252647E+00
         -1   -1    0    0    0  501 -0.00000000000E+00  0.00000000000E+00  0.32313685685E+03  0.32313685685E+03  0.00000000000E+00 0.  1.
          1   -1    0    0  502    0  0.00000000000E+00 -0.00000000000E+00 -0.22359154653E+03  0.22359154653E+03  0.00000000000E+00 0. -1.
         23    2    1    2    0    0 -0.43227507436E+02  0.15688699432E+02  0.10584185896E+03  0.14547244655E+03  0.88571896827E+02 0.  0.
         23    2    1    2    0    0  0.34731306474E+02 -0.61450793494E+02 -0.18338992792E+03  0.21814828449E+03  0.94733017948E+02 0.  0.
        -11    1    4    4    0    0 -0.89553449056E+01  0.18746000276E+02 -0.12120827965E+02  0.24052550785E+02  0.00000000000E+00 0.  1.
         11    1    4    4    0    0  0.43686651380E+02 -0.80196793770E+02 -0.17126909996E+03  0.19409573370E+03  0.00000000000E+00 0. -1.
        -13    1    3    3    0    0 -0.25762588231E+02  0.50978638907E+02  0.80285465343E+02  0.98530647631E+02  0.00000000000E+00 0.  1.
         13    1    3    3    0    0 -0.17464919205E+02 -0.35289939474E+02  0.25556393619E+02  0.46941798919E+02  0.00000000000E+00 0. -1.
         21    1    1    2  502  501  0.84962009623E+01  0.45762094062E+02  0.17709337929E+03  0.18310767235E+03  0.00000000000E+00 0.  1.
<scales pt_clust_5="13000.00000" pt_clust_6="13000.00000" pt_clust_7="13000.00000" pt_clust_8="13000.00000" pt_clust_9="46.54412"></scales>
<clustering>
<clus scale="   46.544">  1  9  2 -1</clus>
<clus scale="   88.572">  7  8 -1 -1</clus>
<clus scale="   94.733">  5  6 -1 -1</clus>
<clus scale="  110.670">  1  7  2 -1</clus>
<clus scale="  115.660">  2  5  1 -1</clus>
</clustering>
</event>
<event>
 9    1  0.1748361E-005  0.1248156E+03  0.7546771E-02  0.1236903E+00
          2   -1    0    0  502    0  0.00000000000E+00  0.00000000000E+00  0.65519599635E+03  0.65519599635E+03  0.00000000000E+00 0. -1.
         -2   -1    0    0    0  501 -0.00000000000E+00 -0.00000000000E+00 -0.16432145208E+03  0.16432145208E+03  0.00000000000E+00 0.  1.
         23    2    1    2    0    0 -0.93346259604E+02 -0.30627929761E+02 -0.10178143970E+03  0.17129873332E+03  0.96603314155E+02 0.  0.
         23    2    1    2    0    0  0.72015752062E+02  0.30534942655E+02  0.60935008321E+03  0.62113196286E+03  0.91535458170E+02 0.  0.
        -11    1    3    3    0    0  0.14965961135E+02 -0.14850512030E+02 -0.40990502125E+02  0.46094890874E+02  0.00000000000E+00 0.  1.
         11    1    3    3    0    0 -0.10831222074E+03 -0.15777417731E+02 -0.60790937575E+02  0.12520384244E+03  0.00000000000E+00 0. -1.
        -13    1    4    4    0    0 -0.20616742867E+02  0.13024153712E+02  0.87483996067E+02  0.90819206307E+02  0.00000000000E+00 0.  1.
         13    1    4    4    0    0  0.92632494929E+02  0.17510788943E+02  0.52186608714E+03  0.53031275655E+03  0.00000000000E+00 0. -1.
         21    1    1    2  502  501  0.21330507542E+02  0.92987106125E-01 -0.16694099240E+02  0.27086752261E+02  0.00000000000E+00 0.  1.
<scales pt_clust_5="13000.00000" pt_clust_6="13000.00000" pt_clust_7="13000.00000" pt_clust_8="13000.00000" pt_clust_9="21.33071"></scales>
<clustering>
<clus scale="   21.331">  2  9  1 -1</clus>
<clus scale="   91.535">  7  8 -1 -1</clus>
<clus scale="   96.603">  5  6 -1 -1</clus>
<clus scale="  120.936">  1  7  2 -1</clus>
<clus scale="  120.936">  1  5  2 -1</clus>
</clustering>
</event>
<event>
 9    1  0.1748361E-005  0.1381174E+03  0.7546771E-02  0.1216196E+00
          2   -1    0    0  502    0  0.00000000000E+00  0.00000000000E+00  0.78240915037E+03  0.78240915037E+03  0.00000000000E+00 0. -1.
         -2   -1    0    0    0  501 -0.00000000000E+00 -0.00000000000E+00 -0.50993393352E+02  0.50993393352E+02  0.00000000000E+00 0.  1.
         23    2    1    2    0    0 -0.41913841704E+02 -0.87501087632E+02  0.85901364761E+02  0.15811276271E+03  0.90594651062E+02 0.  0.
         23    2    1    2    0    0  0.39846129776E+02  0.12506356759E+03  0.53933324388E+03  0.56264142726E+03  0.91958782684E+02 0.  0.
        -11    1    4    4    0    0  0.41463821350E+02  0.11782175439E+02  0.99193784593E+02  0.10815486601E+03  0.00000000000E+00 0.  1.
         11    1    4    4    0    0 -0.16176915739E+01  0.11328139215E+03  0.44013945929E+03  0.45448656125E+03  0.00000000000E+00 0. -1.
        -13    1    3    3    0    0 -0.57422460985E+02 -0.72961826354E+02  0.96878969870E+02  0.13418756251E+03  0.00000000000E+00 0.  1.
         13    1    3    3    0    0  0.15508619281E+02 -0.14539261279E+02 -0.10977605109E+02  0.23925200197E+02  0.00000000000E+00 0. -1.
         21    1    1    2  502  501  0.20677119282E+01 -0.37562479958E+02  0.10618114837E+03  0.11264835375E+03  0.00000000000E+00 0.  1.
<scales pt_clust_5="13000.00000" pt_clust_6="13000.00000" pt_clust_7="13000.00000" pt_clust_8="13000.00000" pt_clust_9="37.61935"></scales>
<clustering>
<clus scale="   37.619">  1  9  2 -1</clus>
<clus scale="   90.595">  7  8 -1 -1</clus>
<clus scale="   91.959">  5  6 -1 -1</clus>
<clus scale="  137.213">  2  7  1 -1</clus>
<clus scale="   37.619">  1  5  2 -1</clus>
</clustering>
</event>
<event>
 9    1  0.1748361E-005  0.1550204E+03  0.7546771E-02  0.1194571E+00
         -1   -1    0    0    0  501 -0.00000000000E+00  0.00000000000E+00  0.97989934498E+02  0.97989934498E+02  0.00000000000E+00 0.  1.
          1   -1    0    0  502    0  0.00000000000E+00 -0.00000000000E+00 -0.31523469884E+03  0.31523469884E+03  0.00000000000E+00 0. -1.
         23    2    1    2    0    0  0.10787999426E+03  0.54343458962E+02 -0.97656394115E+02  0.17967988609E+03  0.90314923800E+02 0.  0.
         23    2    1    2    0    0 -0.10332633932E+03 -0.80291936760E+02 -0.12949047869E+03  0.20540028019E+03  0.91095354034E+02 0.  0.
        -11    1    3    3    0    0  0.11269723234E+03  0.33678990710E+02 -0.50567745001E+02  0.12803139235E+03  0.00000000000E+00 0. -1.
         11    1    3    3    0    0 -0.48172380763E+01  0.20664468252E+02 -0.47088649114E+02  0.51648493746E+02  0.00000000000E+00 0.  1.
        -11    1    4    4    0    0 -0.37294559401E+02 -0.49973545405E+02 -0.66893929837E+01  0.62713534262E+02  0.00000000000E+00 0.  1.
         11    1    4    4    0    0 -0.66031779915E+02 -0.30318391355E+02 -0.12280108571E+03  0.14268674593E+03  0.00000000000E+00 0. -1.
         21    1    1    2  502  501 -0.45536549457E+01  0.25948477798E+02  0.99021084681E+01  0.28144467049E+02  0.00000000000E+00 0.  1.
<scales pt_clust_5="13000.00000" pt_clust_6="13000.00000" pt_clust_7="13000.00000" pt_clust_8="13000.00000" pt_clust_9="26.34500"></scales>
<clustering>
<clus scale="   26.345">  1  9  2 -1</clus>
<clus scale="   90.315">  5  6 -1 -1</clus>
<clus scale="   91.095">  7  8 -1 -1</clus>
<clus scale="  154.563">  1  5  2 -1</clus>
<clus scale="  155.020">  2  5  1 -1</clus>
</clustering>
</event>
<event>
 9    1  0.1748361E-005  0.1537588E+03  0.7546771E-02  0.1198758E+00
         -2   -1    0    0    0  501 -0.00000000000E+00  0.00000000000E+00  0.58085157647E+02  0.58085157647E+02  0.00000000000E+00 0.  1.
          2   -1    0    0  502    0  0.00000000000E+00 -0.00000000000E+00 -0.66807914744E+03  0.66807914744E+03  0.00000000000E+00 0. -1.
         23    2    1    2    0    0  0.12725422473E+03  0.59578524033E+02 -0.31616765415E+03  0.35739078277E+03  0.89570909570E+02 0.  0.
         23    2    1    2    0    0 -0.79723262136E+02 -0.47402332475E+02 -0.28734988444E+03  0.31928214462E+03  0.10377067089E+03 0.  0.
        -11    1    4    4    0    0 -0.45552547777E+02 -0.77866687202E+02 -0.22069183962E+03  0.23841800196E+03  0.00000000000E+00 0. -1.
         11    1    4    4    0    0 -0.34170714359E+02  0.30464354728E+02 -0.66658044819E+02  0.80864142658E+02  0.00000000000E+00 0.  1.
        -13    1    3    3    0    0  0.69355866825E+02  0.53072860862E+00 -0.21939232460E+03  0.23009456758E+03  0.00000000000E+00 0. -1.
         13    1    3    3    0    0  0.57898357905E+02  0.59047795425E+02 -0.96775329547E+02  0.12729621519E+03  0.00000000000E+00 0.  1.
         21    1    1    2  502  501 -0.47530962594E+02 -0.12176191559E+02 -0.64764512051E+01  0.49491377695E+02  0.00000000000E+00 0.  1.
<scales pt_clust_5="13000.00000" pt_clust_6="13000.00000" pt_clust_7="13000.00000" pt_clust_8="13000.00000" pt_clust_9="49.06579"></scales>
<clustering>
<clus scale="   49.066">  1  9  2 -1</clus>
<clus scale="   89.571">  7  8 -1 -1</clus>
<clus scale="  103.771">  5  6 -1 -1</clus>
<clus scale="  144.556">  1  7  2 -1</clus>
<clus scale="  153.759">  2  5  1 -1</clus>
</clustering>
</event>
<event>
 9    1  0.1748361E-005  0.2491658E+03  0.7546771E-02  0.1113919E+00
         -1   -1    0    0    0  501 -0.00000000000E+00  0.00000000000E+00  0.12017981440E+03  0.12017981440E+03  0.00000000000E+00 0.  1.
          1   -1    0    0  502    0  0.00000000000E+00 -0.00000000000E+00 -0.75098832251E+03  0.75098832251E+03  0.00000000000E+00 0. -1.
         23    2    1    2    0    0 -0.12379513262E+03  0.21008347543E+03 -0.30465241575E+03  0.40026684499E+03  0.89107526435E+02 0.  0.
         23    2    1    2    0    0  0.11199532968E+03 -0.19296619922E+03 -0.35884861120E+03  0.43215806951E+03  0.90605537202E+02 0.  0.
        -11    1    3    3    0    0 -0.12451111654E+03  0.18031523292E+03 -0.29776577244E+03  0.36970401215E+03  0.00000000000E+00 0. -1.
         11    1    3    3    0    0  0.71598392418E+00  0.29768242511E+02 -0.68866433163E+01  0.30562832842E+02  0.00000000000E+00 0.  1.
        -13    1    4    4    0    0  0.92270109912E+02 -0.69622298961E+02 -0.16159917728E+03  0.19868399984E+03  0.00000000000E+00 0.  1.
         13    1    4    4    0    0  0.19725219768E+02 -0.12334390025E+03 -0.19724943393E+03  0.23347406967E+03  0.00000000000E+00 0. -1.
         21    1    1    2  502  501  0.11799802936E+02 -0.17117276216E+02  0.32692518848E+02  0.38743222414E+02  0.00000000000E+00 0.  1.
<scales pt_clust_5="13000.00000" pt_clust_6="13000.00000" pt_clust_7="13000.00000" pt_clust_8="13000.00000" pt_clust_9="20.79030"></scales>
<clustering>
<clus scale="   20.790">  1  9  2 -1</clus>
<clus scale="   89.108">  5  6 -1 -1</clus>
<clus scale="   90.606">  7  8 -1 -1</clus>
<clus scale="  248.625">  1  5  2 -1</clus>
<clus scale="  249.166">  2  5  1 -1</clus>
</clustering>
</event>
<event>
 9    1  0.1748361E-005  0.1443709E+03  0.7546771E-02  0.1208447E+00
          2   -1    0    0  502    0  0.00000000000E+00  0.00000000000E+00  0.57089775516E+02  0.57089775516E+02  0.00000000000E+00 0. -1.
         -2   -1    0    0    0  501 -0.00000000000E+00 -0.00000000000E+00 -0.51158057693E+03  0.51158057693E+03  0.00000000000E+00 0.  1.
         23    2    1    2    0    0  0.95501537867E+02 -0.21118991235E+02 -0.22270652280E+03  0.26045589255E+03  0.93126371884E+02 0.  0.
         23    2    1    2    0    0 -0.10833544152E+03  0.49597796565E+02 -0.11675433863E+03  0.18901866078E+03  0.88881771014E+02 0.  0.
        -11    1    3    3    0    0  0.71818271732E+02  0.83406405710E+01 -0.20746013573E+03  0.21969783421E+03  0.00000000000E+00 0. -1.
         11    1    3    3    0    0  0.23683266135E+02 -0.29459631806E+02 -0.15246387073E+02  0.40758058341E+02  0.00000000000E+00 0.  1.
        -13    1    4    4    0    0 -0.93083849295E+02  0.64526807695E+02 -0.59550381152E+02  0.12796311893E+03  0.00000000000E+00 0. -1.
         13    1    4    4    0    0 -0.15251592225E+02 -0.14929011129E+02 -0.57203957482E+02  0.61055541848E+02  0.00000000000E+00 0.  1.
         21    1    1    2  502  501  0.12833903653E+02 -0.28478805331E+02 -0.11502993998E+03  0.11919579912E+03  0.00000000000E+00 0.  1.
<scales pt_clust_5="13000.00000" pt_clust_6="13000.00000" pt_clust_7="13000.00000" pt_clust_8="13000.00000" pt_clust_9="31.23702"></scales>
<clustering>
<clus scale="   31.237">  2  9  1 -1</clus>
<clus scale="   88.882">  7  8 -1 -1</clus>
<clus scale="   93.126">  5  6 -1 -1</clus>
<clus scale="  141.670">  1  7  2 -1</clus>
<clus scale="  141.670">  1  5  2 -1</clus>
</clustering>
</event>
<event>
 9    1  0.1748361E-005  0.9585020E+02  0.7546771E-02  0.1290744E+00
          1   -1    0    0  502    0  0.00000000000E+00  0.00000000000E+00  0.22214685596E+03  0.22214685596E+03  0.00000000000E+00 0. -1.
         -1   -1    0    0    0  501 -0.00000000000E+00 -0.00000000000E+00 -0.86962941537E+02  0.86962941537E+02  0.00000000000E+00 0.  1.
         23    2    1    2    0    0 -0.18988357517E+02 -0.20378541679E+02  0.65726067594E+01  0.96175981554E+02  0.91819265876E+02 0.  0.
         23    2    1    2    0    0  0.88317267531E+00  0.29002166461E+02  0.15419117563E+03  0.18043005819E+03  0.89096473566E+02 0.  0.
        -13    1    3    3    0    0 -0.46404369913E+02 -0.13251668354E+02 -0.24505747297E+02  0.54124891794E+02  0.00000000000E+00 0.  1.
         13    1    3    3    0    0  0.27416012396E+02 -0.71268733252E+01  0.31078354056E+02  0.42051089759E+02  0.00000000000E+00 0. -1.
        -13    1    4    4    0    0 -0.28551528779E+02  0.25984640197E+02  0.20911430800E+02  0.43905344321E+02  0.00000000000E+00 0.  1.
         13    1    4    4    0    0  0.29434701454E+02  0.30175262642E+01  0.13327974483E+03  0.13652471387E+03  0.00000000000E+00 0. -1.
         21    1    1    2  502  501  0.18105184842E+02 -0.86236247826E+01 -0.25579867972E+02  0.32503757752E+02  0.00000000000E+00 0.  1.
<scales pt_clust_5="13000.00000" pt_clust_6="13000.00000" pt_clust_7="13000.00000" pt_clust_8="13000.00000" pt_clust_9="20.05404"></scales>
<clustering>
<clus scale="   20.054">  2  9  1 -1</clus>
<clus scale="   89.096">  7  8 -1 -1</clus>
<clus scale="   91.819">  5  6 -1 -1</clus>
<clus scale="   93.245">  1  7  2 -1</clus>
<clus scale="   93.245">  1  5  2 -1</clus>
</clustering>
</event>
<event>
 9    1  0.1748361E-005  0.1000653E+03  0.7546771E-02  0.1280442E+00
         -2   -1    0    0    0  501 -0.00000000000E+00  0.00000000000E+00  0.39665978837E+02  0.39665978837E+02  0.00000000000E+00 0.  1.
          2   -1    0    0  502    0  0.00000000000E+00 -0.00000000000E+00 -0.34944554174E+03  0.34944554174E+03  0.00000000000E+00 0. -1.
         23    2    1    2    0    0 -0.36547775444E+02 -0.36144600485E+02 -0.12980038136E+03  0.16595277659E+03  0.89721864786E+02 0.  0.
         23    2    1    2    0    0  0.35634101219E+02  0.14790064269E+02 -0.17580830317E+03  0.20138152553E+03  0.90318459841E+02 0.  0.
        -11    1    3    3    0    0 -0.40473227329E+02 -0.57714621997E+02 -0.12500425032E+03  0.14351000774E+03  0.00000000000E+00 0. -1.
         11    1    3    3    0    0  0.39254518857E+01  0.21570021512E+02 -0.47961310405E+01  0.22442768847E+02  0.00000000000E+00 0.  1.
        -13    1    4    4    0    0  0.51797428779E+02  0.37276736678E+02 -0.84027087372E+02  0.10551341212E+03  0.00000000000E+00 0.  1.
         13    1    4    4    0    0 -0.16163327560E+02 -0.22486672409E+02 -0.91781215802E+02  0.95868113405E+02  0.00000000000E+00 0. -1.
         21    1    1    2  502  501  0.91367422506E+00  0.21354536216E+02 -0.41708783654E+01  0.21777218462E+02  0.00000000000E+00 0.  1.
<scales pt_clust_5="13000.00000" pt_clust_6="13000.00000" pt_clust_7="13000.00000" pt_clust_8="13000.00000" pt_clust_9="21.37407"></scales>
<clustering>
<clus scale="   21.374">  1  9  2 -1</clus>
<clus scale="   89.722">  5  6 -1 -1</clus>
<clus scale="   90.318">  7  8 -1 -1</clus>
<clus scale="   99.527">  1  5  2 -1</clus>
<clus scale="  100.065">  2  5  1 -1</clus>
</clustering>
</event>
<event>
 9    1  0.2818594E-005  0.1161477E+03  0.7546771E-02  0.1249848E+00
          1   -1    0    0  502    0  0.00000000000E+00  0.00000000000E+00  0.38343676370E+03  0.38343676370E+03  0.00000000000E+00 0. -1.
         -1   -1    0    0    0  501 -0.00000000000E+00 -0.00000000000E+00 -0.14987251076E+03  0.14987251076E+03  0.00000000000E+00 0.  1.
         23    2    1    2    0    0 -0.59588264520E+02  0.41803020611E+02 -0.79441748535E+02  0.14126328305E+03  0.91356827486E+02 0.  0.
         23    2    1    2    0    0  0.43415437771E+02 -0.55972296979E+02  0.33897087842E+03  0.35833392305E+03  0.92109422563E+02 0.  0.
        -11    1    4    4    0    0 -0.79390902200E+01 -0.43043980938E+02  0.59360536124E+02  0.73752875859E+02  0.00000000000E+00 0.  1.
         11    1    4    4    0    0  0.51354527991E+02 -0.12928316041E+02  0.27961034230E+03  0.28458104719E+03  0.00000000000E+00 0. -1.
        -11    1    3    3    0    0  0.18330602487E+02  0.12788395742E+02  0.48429923256E+01  0.22869381886E+02  0.00000000000E+00 0. -1.
         11    1    3    3    0    0 -0.77918867007E+02  0.29014624869E+02 -0.84284740861E+02  0.11839390117E+03  0.00000000000E+00 0.  1.
         21    1    1    2  502  501  0.16172826750E+02  0.14169276368E+02 -0.25964876946E+02  0.33712068354E+02  0.00000000000E+00 0.  1.
<scales pt_clust_5="13000.00000" pt_clust_6="13000.00000" pt_clust_7="13000.00000" pt_clust_8="13000.00000" pt_clust_9="21.50183"></scales>
<clustering>
<clus scale="   21.502">  2  9  1 -1</clus>
<clus scale="   91.357">  7  8 -1 -1</clus>
<clus scale="   92.109">  5  6 -1 -1</clus>
<clus scale="  115.552">  2  7  1 -1</clus>
<clus scale="  116.148">  1  5  2 -1</clus>
</clustering>
</event>
<event>
 9    1  0.1748361E-005  0.2080850E+03  0.7546771E-02  0.1143252E+00
          2   -1    0    0  502    0  0.00000000000E+00  0.00000000000E+00  0.13801469588E+03  0.13801469588E+03  0.00000000000E+00 0. -1.
         -2   -1    0    0    0  501 -0.00000000000E+00 -0.00000000000E+00 -0.40783619022E+03  0.40783619022E+03  0.00000000000E+00 0.  1.
         23    2    1    2    0    0  0.74813555911E+02 -0.18321707856E+03 -0.16797585217E+03  0.27519412115E+03  0.91380257057E+02 0.  0.
         23    2    1    2    0    0 -0.80770136225E+02  0.16200665297E+03 -0.41180726079E+02  0.20611534378E+03  0.89541678721E+02 0.  0.
        -11    1    4    4    0    0 -0.13879520231E+02  0.11804073522E+03 -0.69489046761E+01  0.11905689199E+03  0.00000000000E+00 0. -1.
         11    1    4    4    0    0 -0.66890615995E+02  0.43965917746E+02 -0.34231821403E+02  0.87058451789E+02  0.00000000000E+00 0.  1.
        -13    1    3    3    0    0  0.20920393852E+02 -0.72701687910E+02 -0.12273923988E+03  0.14418085626E+03  0.00000000000E+00 0. -1.
         13    1    3    3    0    0  0.53893162059E+02 -0.11051539065E+03 -0.45236612290E+02  0.13101326490E+03  0.00000000000E+00 0.  1.
         21    1    1    2  502  501  0.59565803140E+01  0.21210425594E+02 -0.60664916082E+02  0.64541421166E+02  0.00000000000E+00 0. -1.
<scales pt_clust_5="13000.00000" pt_clust_6="13000.00000" pt_clust_7="13000.00000" pt_clust_8="13000.00000" pt_clust_9="22.03096"></scales>
<clustering>
<clus scale="   22.031">  2  9  1 -1</clus>
<clus scale="   89.542">  5  6 -1 -1</clus>
<clus scale="   91.380">  7  8 -1 -1</clus>
<clus scale="  207.284">  1  5  2 -1</clus>
<clus scale="  207.284">  1  5  2 -1</clus>
</clustering>
</event>
<event>
 9    1  0.1748361E-005  0.1744610E+03  0.7546771E-02  0.1173441E+00
          1   -1    0    0  502    0  0.00000000000E+00  0.00000000000E+00  0.74513336882E+03  0.74513336882E+03  0.00000000000E+00 0. -1.
         -1   -1    0    0    0  501 -0.00000000000E+00 -0.00000000000E+00 -0.63856599732E+02  0.63856599732E+02  0.00000000000E+00 0.  1.
         23    2    1    2    0    0 -0.53234279945E+00 -0.16460080020E+03  0.14587290675E+03  0.23785274602E+03  0.90561123293E+02 0.  0.
         23    2    1    2    0    0  0.56610617862E-01  0.14346664653E+03  0.51204516613E+03  0.53963313611E+03  0.91820409305E+02 0.  0.
        -11    1    3    3    0    0 -0.23465252732E+02 -0.16095420375E+03  0.11491604566E+03  0.19915464177E+03  0.00000000000E+00 0. -1.
         11    1    3    3    0    0  0.22932909932E+02 -0.36465964466E+01  0.30956861095E+02  0.38698104249E+02  0.00000000000E+00 0.  1.
        -13    1    4    4    0    0  0.37856461475E+02  0.10058867503E+03  0.26301202024E+03  0.28412412078E+03  0.00000000000E+00 0.  1.
         13    1    4    4    0    0 -0.37799850857E+02  0.42877971506E+02  0.24903314589E+03  0.25550901534E+03  0.00000000000E+00 0. -1.
         21    1    1    2  502  501  0.47573218159E+00  0.21134153665E+02  0.23358696205E+02  0.31504086412E+02  0.00000000000E+00 0. -1.
<scales pt_clust_5="13000.00000" pt_clust_6="13000.00000" pt_clust_7="13000.00000" pt_clust_8="13000.00000" pt_clust_9="21.13951"></scales>
<clustering>
<clus scale="   21.140">  2  9  1 -1</clus>
<clus scale="   90.561">  5  6 -1 -1</clus>
<clus scale="   91.820">  7  8 -1 -1</clus>
<clus scale="  173.802">  2  5  1 -1</clus>
<clus scale="  174.461">  1  5  2 -1</clus>
</clustering>
</event>
<event>
 9    1  0.1748361E-005  0.1860043E+03  0.7546771E-02  0.1162276E+00
          1   -1    0    0  502    0  0.00000000000E+00  0.00000000000E+00  0.27469377611E+03  0.27469377611E+03  0.00000000000E+00 0. -1.
         -1   -1    0    0    0  501 -0.00000000000E+00 -0.00000000000E+00 -0.18867105014E+03  0.18867105014E+03  0.00000000000E+00 0.  1.
         23    2    1    2    0    0  0.10907894822E+03  0.10197430049E+03  0.28988631374E+02  0.17775129970E+03  0.91968521200E+02 0.  0.
         23    2    1    2    0    0 -0.13611525052E+03 -0.10396923631E+03  0.11238201915E+03  0.22398289971E+03  0.90563003551E+02 0.  0.
        -13    1    3    3    0    0  0.10855381515E+03  0.69193258779E+02 -0.71849375100E+01  0.12893122651E+03  0.00000000000E+00 0.  1.
         13    1    3    3    0    0  0.52513307540E+00  0.32781041711E+02  0.36173568884E+02  0.48820073190E+02  0.00000000000E+00 0. -1.
        -13    1    4    4    0    0 -0.10558559596E+03 -0.81523906595E+02  0.35139549183E+02  0.13794655971E+03  0.00000000000E+00 0. -1.
         13    1    4    4    0    0 -0.30529654567E+02 -0.22445329710E+02  0.77242469966E+02  0.86036339998E+02  0.00000000000E+00 0.  1.
         21    1    1    2  502  501  0.27036302301E+02  0.19949358147E+01 -0.55347924557E+02  0.61630626833E+02  0.00000000000E+00 0. -1.
<scales pt_clust_5="13000.00000" pt_clust_6="13000.00000" pt_clust_7="13000.00000" pt_clust_8="13000.00000" pt_clust_9="27.10980"></scales>
<clustering>
<clus scale="   27.110">  2  9  1 -1</clus>
<clus scale="   90.563">  7  8 -1 -1</clus>
<clus scale="   91.969">  5  6 -1 -1</clus>
<clus scale="  185.313">  1  7  2 -1</clus>
<clus scale="  185.313">  1  5  2 -1</clus>
</clustering>
</event>
<event>
 9    1  0.1748361E-005  0.1162823E+03  0.7546771E-02  0.1249784E+00
          1   -1    0    0  502    0  0.00000000000E+00  0.00000000000E+00  0.24345972267E+03  0.24345972267E+03  0.00000000000E+00 0. -1.
         -1   -1    0    0    0  501 -0.00000000000E+00 -0.00000000000E+00 -0.86630545178E+02  0.86630545178E+02  0.00000000000E+00 0.  1.
         23    2    1    2    0    0  0.76874216992E+02 -0.30901829054E+02  0.11437229264E+02  0.12416405662E+03  0.91767829145E+02 0.  0.
         23    2    1    2    0    0 -0.66544804442E+02  0.13257591093E+02  0.14691721326E+03  0.18542395940E+03  0.90517415164E+02 0.  0.
        -13    1    4    4    0    0 -0.71866624947E+02 -0.17094181300E+02  0.13182432478E+03  0.15111146687E+03  0.00000000000E+00 0.  1.
         13    1    4    4    0    0  0.53218205055E+01  0.30351772392E+02  0.15092888472E+02  0.34312492525E+02  0.00000000000E+00 0. -1.
        -13    1    3    3    0    0  0.87226896254E+02 -0.50953721699E+02  0.10718275021E+02  0.10158589767E+03  0.00000000000E+00 0. -1.
         13    1    3    3    0    0 -0.10352679262E+02  0.20051892645E+02  0.71895424261E+00  0.22578158954E+02  0.00000000000E+00 0.  1.
         21    1    1    2  502  501 -0.10329412550E+02  0.17644237961E+02 -0.15252650265E+01  0.20502251834E+02  0.00000000000E+00 0.  1.
<scales pt_clust_5="13000.00000" pt_clust_6="13000.00000" pt_clust_7="13000.00000" pt_clust_8="13000.00000" pt_clust_9="20.44544"></scales>
<clustering>
<clus scale="   20.445">  2  9  1 -1</clus>
<clus scale="   90.517">  5  6 -1 -1</clus>
<clus scale="   91.768">  7  8 -1 -1</clus>
<clus scale="  115.298">  1  5  2 -1</clus>
<clus scale="  115.298">  1  5  2 -1</clus>
</clustering>
</event>
<event>
 9    1  0.1748361E-005  0.1479904E+03  0.7546771E-02  0.1204643E+00
          2   -1    0    0  502    0  0.00000000000E+00  0.00000000000E+00  0.12439773857E+04  0.12439773857E+04  0.00000000000E+00 0. -1.
         -2   -1    0    0    0  501 -0.00000000000E+00 -0.00000000000E+00 -0.41255601387E+02  0.41255601387E+02  0.00000000000E+00 0.  1.
         23    2    1    2    0    0  0.62804064357E+02  0.30421675413E+02  0.30845346061E+03  0.32887291065E+03  0.90244252775E+02 0.  0.
         23    2    1    2    0    0 -0.14719392758E+03 -0.29995954389E+02  0.83284950010E+03  0.85198526078E+03  0.98360485840E+02 0.  0.
        -11    1    3    3    0    0  0.85956419531E+02  0.21928236921E+02  0.25541327839E+03  0.27037991126E+03  0.00000000000E+00 0.  1.
         11    1    3    3    0    0 -0.23152355174E+02  0.84934384921E+01  0.53040182219E+02  0.58492999388E+02  0.00000000000E+00 0. -1.
        -11    1    4    4    0    0 -0.24620253280E+02 -0.47491079991E+02  0.19355732810E+03  0.20081334321E+03  0.00000000000E+00 0.  1.
         11    1    4    4    0    0 -0.12257367430E+03  0.17495125602E+02  0.63929217200E+03  0.65117191757E+03  0.00000000000E+00 0. -1.
         21    1    1    2  502  501  0.84389863225E+02 -0.42572102374E+00  0.61418823627E+02  0.10437481568E+03  0.00000000000E+00 0.  1.
<scales pt_clust_5="13000.00000" pt_clust_6="13000.00000" pt_clust_7="13000.00000" pt_clust_8="13000.00000" pt_clust_9="84.39094"></scales>
<clustering>
<clus scale="   84.391">  2  9  1 -1</clus>
<clus scale="   90.244">  5  6 -1 -1</clus>
<clus scale="   98.360">  7  8 -1 -1</clus>
<clus scale="  142.725">  2  5  1 -1</clus>
<clus scale="  147.990">  1  5  2 -1</clus>
</clustering>
</event>
<event>
 9    1  0.1748361E-005  0.1098641E+03  0.7546771E-02  0.1261018E+00
         -2   -1    0    0    0  501 -0.00000000000E+00  0.00000000000E+00  0.76707296878E+02  0.76707296878E+02  0.00000000000E+00 0.  1.
          2   -1    0    0  502    0  0.00000000000E+00 -0.00000000000E+00 -0.37186299078E+03  0.37186299078E+03  0.00000000000E+00 0. -1.
         23    2    1    2    0    0  0.10777504400E+02 -0.12089657315E+02 -0.95127037961E+00  0.92192172394E+02  0.90753387376E+02 0.  0.
         23    2    1    2    0    0 -0.63534611074E+02  0.36831932562E+02 -0.26800770164E+03  0.29248945644E+03  0.91261798863E+02 0.  0.
        -11    1    4    4    0    0 -0.84985383724E+02  0.37503766507E+02 -0.23890625657E+03  0.25633034814E+03  0.00000000000E+00 0. -1.
         11    1    4    4    0    0  0.21450772650E+02 -0.67183394499E+00 -0.29101445063E+02  0.36159108298E+02  0.00000000000E+00 0.  1.
        -11    1    3    3    0    0  0.41848074496E+02  0.20309051345E+02  0.55067963982E+01  0.46840620321E+02  0.00000000000E+00 0.  1.
         11    1    3    3    0    0 -0.31070570096E+02 -0.32398708660E+02 -0.64580667778E+01  0.45351552073E+02  0.00000000000E+00 0. -1.
         21    1    1    2  502  501  0.52757106674E+02 -0.24742275247E+02 -0.26196721889E+02  0.63888658827E+02  0.00000000000E+00 0.  1.
<scales pt_clust_5="13000.00000" pt_clust_6="13000.00000" pt_clust_7="13000.00000" pt_clust_8="13000.00000" pt_clust_9="58.27085"></scales>
<clustering>
<clus scale="   58.271">  1  9  2 -1</clus>
<clus scale="   90.753">  7  8 -1 -1</clus>
<clus scale="   91.262">  5  6 -1 -1</clus>
<clus scale="  109.442">  1  7  2 -1</clus>
<clus scale="  109.864">  2  5  1 -1</clus>
</clustering>
</event>
<event>
 9    1  0.1748361E-005  0.9364266E+02  0.7546771E-02  0.1294998E+00
          3   -1    0    0  502    0  0.00000000000E+00  0.00000000000E+00  0.73260008697E+02  0.73260008697E+02  0.00000000000E+00 0. -1.
         -3   -1    0    0    0  501 -0.00000000000E+00 -0.00000000000E+00 -0.19503235414E+03  0.19503235414E+03  0.00000000000E+00 0.  1.
         23    2    1    2    0    0 -0.28297111200E+02  0.31858013823E+02 -0.73568886857E+02  0.12262150879E+03  0.88362852819E+02 0.  0.
         23    2    1    2    0    0 -0.12834414874E+02 -0.23733744097E+02 -0.21937533428E+02  0.96196567589E+02  0.89691200399E+02 0.  0.
        -11    1    3    3    0    0  0.13867939957E+02  0.47517605586E+02 -0.54903956010E+02  0.73923521188E+02  0.00000000000E+00 0.  1.
         11    1    3    3    0    0 -0.42165051157E+02 -0.15659591763E+02 -0.18664930847E+02  0.48697987605E+02  0.00000000000E+00 0. -1.
        -13    1    4    4    0    0  0.30747413969E+02 -0.17818067161E+02 -0.35440643364E+02  0.50188905001E+02  0.00000000000E+00 0.  1.
         13    1    4    4    0    0 -0.43581828843E+02 -0.59156769362E+01  0.13503109936E+02  0.46007662588E+02  0.00000000000E+00 0. -1.
         21    1    1    2  502  501  0.41131526073E+02 -0.81242697257E+01 -0.26265925157E+02  0.49474286453E+02  0.00000000000E+00 0.  1.
<scales pt_clust_5="13000.00000" pt_clust_6="13000.00000" pt_clust_7="13000.00000" pt_clust_8="13000.00000" pt_clust_9="41.92620"></scales>
<clustering>
<clus scale="   41.926">  2  9  1 -1</clus>
<clus scale="   88.363">  5  6 -1 -1</clus>
<clus scale="   89.691">  7  8 -1 -1</clus>
<clus scale="   92.371">  2  5  1 -1</clus>
<clus scale="   93.643">  1  5  2 -1</clus>
</clustering>
</event>
<event>
 9    1  0.1748361E-005  0.1190720E+03  0.7546771E-02  0.1249547E+00
          1   -1    0    0  502    0  0.00000000000E+00  0.00000000000E+00  0.18177020124E+03  0.18177020124E+03  0.00000000000E+00 0. -1.
         -1   -1    0    0    0  501 -0.00000000000E+00 -0.00000000000E+00 -0.20738345285E+03  0.20738345285E+03  0.00000000000E+00 0.  1.
         23    2    1    2    0    0 -0.36217861810E+02  0.42906384107E+02 -0.85186729512E+02  0.13669269788E+03  0.90969354501E+02 0.  0.
         23    2    1    2    0    0 -0.13876624154E+02 -0.61231457796E+02  0.12076454399E+03  0.17128452849E+03  0.10398299137E+03 0.  0.
        -11    1    3    3    0    0 -0.24129504227E+02 -0.23413824660E+02 -0.86823549471E+01  0.34724968638E+02  0.00000000000E+00 0.  1.
         11    1    3    3    0    0 -0.12088357583E+02  0.66320208767E+02 -0.76504374565E+02  0.10196772925E+03  0.00000000000E+00 0. -1.
        -13    1    4    4    0    0 -0.10967128938E+02 -0.88056930018E+02  0.11204489464E+03  0.14292781135E+03  0.00000000000E+00 0.  1.
         13    1    4    4    0    0 -0.29094952158E+01  0.26825472222E+02  0.87196493429E+01  0.28356717140E+02  0.00000000000E+00 0. -1.
         21    1    1    2  502  501  0.50094485964E+02  0.18325073689E+02 -0.61191066081E+02  0.81176427723E+02  0.00000000000E+00 0.  1.
<scales pt_clust_5="13000.00000" pt_clust_6="13000.00000" pt_clust_7="13000.00000" pt_clust_8="13000.00000" pt_clust_9="53.34103"></scales>
<clustering>
<clus scale="   53.341">  2  9  1 -1</clus>
<clus scale="   90.969">  5  6 -1 -1</clus>
<clus scale="  103.983">  7  8 -1 -1</clus>
<clus scale="  107.894">  2  5  1 -1</clus>
<clus scale="  119.072">  1  5  2 -1</clus>
</clustering>
</event>
<event>
 9    1  0.1748361E-005  0.1135323E+03  0.7546771E-02  0.1255711E+00
          1   -1    0    0  502    0  0.00000000000E+00  0.00000000000E+00  0.88012059578E+03  0.88012059578E+03  0.00000000000E+00 0. -1.
         -1   -1    0    0    0  501 -0.00000000000E+00 -0.00000000000E+00 -0.26083297550E+02  0.26083297550E+02  0.00000000000E+00 0.  1.
         23    2    1    2    0    0 -0.62104887578E+02  0.12084138954E+02  0.16240956583E+03  0.19735168749E+03  0.92562292568E+02 0.  0.
         23    2    1    2    0    0  0.63250520335E+02 -0.47922697336E+02  0.55828767052E+03  0.57077510114E+03  0.88328250197E+02 0.  0.
        -11    1    4    4    0    0  0.71688985065E+02 -0.66813418481E+02  0.45432066860E+03  0.46476941959E+03  0.00000000000E+00 0. -1.
         11    1    4    4    0    0 -0.84384647303E+01  0.18890721146E+02  0.10396700192E+03  0.10600568155E+03  0.00000000000E+00 0.  1.
        -13    1    3    3    0    0 -0.75687251135E+02 -0.40043372485E+01  0.15883955197E+03  0.17599601692E+03  0.00000000000E+00 0. -1.
         13    1    3    3    0    0  0.13582363557E+02  0.16088476203E+02  0.35700138554E+01  0.21355670564E+02  0.00000000000E+00 0.  1.
         21    1    1    2  502  501 -0.11456327569E+01  0.35838558381E+02  0.13334006188E+03  0.13807710470E+03  0.00000000000E+00 0. -1.
<scales pt_clust_5="13000.00000" pt_clust_6="13000.00000" pt_clust_7="13000.00000" pt_clust_8="13000.00000" pt_clust_9="35.85686"></scales>
<clustering>
<clus scale="   35.857">  1  9  2 -1</clus>
<clus scale="   88.328">  5  6 -1 -1</clus>
<clus scale="   92.562">  7  8 -1 -1</clus>
<clus scale="  110.108">  1  5  2 -1</clus>
<clus scale="   35.857">  1  5  2 -1</clus>
</clustering>
</event>
<event>
 9    1  0.1748361E-005  0.1286975E+03  0.7546771E-02  0.1230009E+00
         -1   -1    0    0    0  501 -0.00000000000E+00  0.00000000000E+00  0.18708684774E+03  0.18708684774E+03  0.00000000000E+00 0.  1.
          1   -1    0    0  502    0  0.00000000000E+00 -0.00000000000E+00 -0.58787926461E+03  0.58787926461E+03  0.00000000000E+00 0. -1.
         23    2    1    2    0    0  0.77318974718E+02 -0.68325211506E+02  0.39644321789E+02  0.14188124924E+03  0.88949751310E+02 0.  0.
         23    2    1    2    0    0 -0.83799572069E+02  0.33355471040E+02 -0.52547548187E+03  0.54090857149E+03  0.91228531360E+02 0.  0.
        -11    1    4    4    0    0 -0.68495839129E+02 -0.16614973090E+02 -0.22059437832E+03  0.23158069232E+03  0.00000000000E+00 0. -1.
         11    1    4    4    0    0 -0.15303732941E+02  0.49970444130E+02 -0.30488110354E+03  0.30932787916E+03  0.00000000000E+00 0.  1.
        -13    1    3    3    0    0  0.54054435965E+02 -0.45334737799E+02  0.68449325991E+02  0.98297663896E+02  0.00000000000E+00 0.  1.
         13    1    3    3    0    0  0.23264538753E+02 -0.22990473707E+02 -0.28805004202E+02  0.43583585347E+02  0.00000000000E+00 0. -1.
         21    1    1    2  502  501  0.64805973517E+01  0.34969740466E+02  0.85038743214E+02  0.92176291625E+02  0.00000000000E+00 0.  1.
<scales pt_clust_5="13000.00000" pt_clust_6="13000.00000" pt_clust_7="13000.00000" pt_clust_8="13000.00000" pt_clust_9="35.56516"></scales>
<clustering>
<clus scale="   35.565">  1  9  2 -1</clus>
<clus scale="   88.950">  7  8 -1 -1</clus>
<clus scale="   91.229">  5  6 -1 -1</clus>
<clus scale="  127.092">  1  7  2 -1</clus>
<clus scale="  128.698">  2  5  1 -1</clus>
</clustering>
</event>
<event>
 9    1  0.1748361E-005  0.1117161E+03  0.7546771E-02  0.1258180E+00
         -1   -1    0    0    0  501 -0.00000000000E+00  0.00000000000E+00  0.52665585860E+03  0.52665585860E+03  0.00000000000E+00 0.  1.
          1   -1    0    0  502    0  0.00000000000E+00 -0.00000000000E+00 -0.94295832022E+02  0.94295832022E+02  0.00000000000E+00 0. -1.
         23    2    1    2    0    0 -0.28419369689E+02  0.16256355339E+02  0.31973114244E+03  0.33426411398E+03  0.91828997515E+02 0.  0.
         23    2    1    2    0    0  0.40273836406E+02 -0.54092702085E+02 -0.47336908975E+02  0.12188110686E+03  0.89812131366E+02 0.  0.
        -11    1    4    4    0    0  0.26941975024E+02  0.11472511776E+02  0.12764306180E+02  0.31943951804E+02  0.00000000000E+00 0.  1.
         11    1    4    4    0    0  0.13331861383E+02 -0.65565213861E+02 -0.60101215155E+02  0.89937155056E+02  0.00000000000E+00 0. -1.
        -11    1    3    3    0    0 -0.19215458517E+02  0.46832379552E+02  0.27307549392E+03  0.27772780019E+03  0.00000000000E+00 0.  1.
         11    1    3    3    0    0 -0.92039111726E+01 -0.30576024214E+02  0.46655648526E+02  0.56536313790E+02  0.00000000000E+00 0. -1.
         21    1    1    2  502  501 -0.11854466717E+02  0.37836346746E+02  0.15996579311E+03  0.16480646978E+03  0.00000000000E+00 0.  1.
<scales pt_clust_5="13000.00000" pt_clust_6="13000.00000" pt_clust_7="13000.00000" pt_clust_8="13000.00000" pt_clust_9="39.64994"></scales>
<clustering>
<clus scale="   39.650">  1  9  2 -1</clus>
<clus scale="   89.812">  5  6 -1 -1</clus>
<clus scale="   91.829">  7  8 -1 -1</clus>
<clus scale="  110.064">  2  5  1 -1</clus>
<clus scale="  110.064">  2  5  1 -1</clus>
</clustering>
</event>
<event>
 9    1  0.1748361E-005  0.1031765E+03  0.7546771E-02  0.1275325E+00
         -1   -1    0    0    0  501 -0.00000000000E+00  0.00000000000E+00  0.14561997283E+03  0.14561997283E+03  0.00000000000E+00 0.  1.
          1   -1    0    0  502    0  0.00000000000E+00 -0.00000000000E+00 -0.22879408969E+03  0.22879408969E+03  0.00000000000E+00 0. -1.
         23    2    1    2    0    0 -0.32583909383E+02  0.43310332799E+02  0.71253050362E+02  0.12717514421E+03  0.90327316140E+02 0.  0.
         23    2    1    2    0    0 -0.44782449095E+02 -0.15415913597E+02 -0.11599674031E+03  0.15646144445E+03  0.93711374439E+02 0.  0.
        -11    1    4    4    0    0 -0.57865094031E+02 -0.30924193509E+02 -0.37895302052E+02  0.75767597091E+02  0.00000000000E+00 0.  1.
         11    1    4    4    0    0  0.13082644936E+02  0.15508279911E+02 -0.78101438256E+02  0.80693847361E+02  0.00000000000E+00 0. -1.
        -11    1    3    3    0    0 -0.97906242619E+00  0.22911996141E+02 -0.18753459309E+02  0.29624489303E+02  0.00000000000E+00 0. -1.
         11    1    3    3    0    0 -0.31604846957E+02  0.20398336658E+02  0.90006509671E+02  0.97550654907E+02  0.00000000000E+00 0.  1.
         21    1    1    2  502  501  0.77366358478E+02 -0.27894419202E+02 -0.38430426919E+02  0.90777473857E+02  0.00000000000E+00 0. -1.
<scales pt_clust_5="13000.00000" pt_clust_6="13000.00000" pt_clust_7="13000.00000" pt_clust_8="13000.00000" pt_clust_9="82.24143"></scales>
<clustering>
<clus scale="   82.241">  2  9  1 -1</clus>
<clus scale="   90.327">  7  8 -1 -1</clus>
<clus scale="   93.711">  5  6 -1 -1</clus>
<clus scale="  100.113">  1  7  2 -1</clus>
<clus scale="   82.241">  2  5  1 -1</clus>
</clustering>
</event>
<event>
 9    1  0.1748361E-005  0.1138984E+03  0.7546771E-02  0.1253749E+00
         -2   -1    0    0    0  501 -0.00000000000E+00  0.00000000000E+00  0.23805361823E+03  0.23805361823E+03  0.00000000000E+00 0.  1.
          2   -1    0    0  502    0  0.00000000000E+00 -0.00000000000E+00 -0.32800145965E+03  0.32800145965E+03  0.00000000000E+00 0. -1.
         23    2    1    2    0    0  0.10972299867E+03  0.52796195066E+02  0.13645494746E+02  0.15283923121E+03  0.91362226446E+02 0.  0.
         23    2    1    2    0    0 -0.59825450999E+02 -0.54627057646E+01 -0.23805032613E+03  0.26218966806E+03  0.92013795308E+02 0.  0.
        -11    1    3    3    0    0  0.11953239239E+03  0.27283954667E+02  0.21325837146E+02  0.12444757267E+03  0.00000000000E+00 0.  1.
         11    1    3    3    0    0 -0.98093937266E+01  0.25512240399E+02 -0.76803423994E+01  0.28391658543E+02  0.00000000000E+00 0. -1.
        -11    1    4    4    0    0 -0.48464229350E+01 -0.32773066705E+02 -0.15731780627E+03  0.16076832364E+03  0.00000000000E+00 0. -1.
         11    1    4    4    0    0 -0.54979028064E+02  0.27310360940E+02 -0.80732519858E+02  0.10142134442E+03  0.00000000000E+00 0.  1.
         21    1    1    2  502  501 -0.49897547668E+02 -0.47333489301E+02  0.13445698996E+03  0.15102617860E+03  0.00000000000E+00 0.  1.
<scales pt_clust_5="13000.00000" pt_clust_6="13000.00000" pt_clust_7="13000.00000" pt_clust_8="13000.00000" pt_clust_9="68.77663"></scales>
<clustering>
<clus scale="   68.777">  1  9  2 -1</clus>
<clus scale="   91.362">  5  6 -1 -1</clus>
<clus scale="   92.014">  7  8 -1 -1</clus>
<clus scale="  113.373">  1  5  2 -1</clus>
<clus scale="  113.898">  2  5  1 -1</clus>
</clustering>
</event>
<event>
 9    1  0.1748361E-005  0.1298694E+03  0.7546771E-02  0.1227850E+00
          1   -1    0    0  502    0  0.00000000000E+00  0.00000000000E+00  0.48593021896E+02  0.48593021896E+02  0.00000000000E+00 0. -1.
         -1   -1    0    0    0  501 -0.00000000000E+00 -0.00000000000E+00 -0.63486393170E+03  0.63486393170E+03  0.00000000000E+00 0.  1.
         23    2    1    2    0    0 -0.86443076165E+01  0.88022569143E+02 -0.22674237795E+03  0.25991490149E+03  0.91219259614E+02 0.  0.
         23    2    1    2    0    0 -0.36895453233E+02 -0.91809921694E+02 -0.12072380150E+03  0.18040440982E+03  0.90449868125E+02 0.  0.
        -13    1    4    4    0    0  0.43971108290E+01 -0.37392439855E+02  0.43413592911E+01  0.37899558605E+02  0.00000000000E+00 0. -1.
         13    1    4    4    0    0 -0.41292564062E+02 -0.54417481839E+02 -0.12506516079E+03  0.14250485122E+03  0.00000000000E+00 0.  1.
        -13    1    3    3    0    0  0.38755156508E+02  0.58296375244E+02 -0.14279910974E+03  0.15903463543E+03  0.00000000000E+00 0.  1.
         13    1    3    3    0    0 -0.47399464124E+02  0.29726193899E+02 -0.83943268207E+02  0.10088026606E+03  0.00000000000E+00 0. -1.
         21    1    1    2  502  501  0.45539760849E+02  0.37873525508E+01 -0.23880473035E+03  0.24313764228E+03  0.00000000000E+00 0. -1.
<scales pt_clust_5="13000.00000" pt_clust_6="13000.00000" pt_clust_7="13000.00000" pt_clust_8="13000.00000" pt_clust_9="45.69698"></scales>
<clustering>
<clus scale="   45.697">  2  9  1 -1</clus>
<clus scale="   90.450">  5  6 -1 -1</clus>
<clus scale="   91.219">  7  8 -1 -1</clus>
<clus scale="  129.330">  1  5  2 -1</clus>
<clus scale="  129.330">  1  5  2 -1</clus>
</clustering>
</event>
<event>
 9    1  0.1748361E-005  0.1073112E+03  0.7546771E-02  0.1266523E+00
          1   -1    0    0  502    0  0.00000000000E+00  0.00000000000E+00  0.18125440997E+03  0.18125440997E+03  0.00000000000E+00 0. -1.
         -1   -1    0    0    0  501 -0.00000000000E+00 -0.00000000000E+00 -0.15181960435E+03  0.15181960435E+03  0.00000000000E+00 0.  1.
         23    2    1    2    0    0 -0.19014528515E+02 -0.86241273616E+01 -0.71167713972E+02  0.11719649132E+03  0.90742747363E+02 0.  0.
         23    2    1    2    0    0  0.48424102313E+02  0.37469944725E+02  0.12552776829E+03  0.16772908343E+03  0.92881291838E+02 0.  0.
        -13    1    4    4    0    0  0.37788350527E+02 -0.13973472875E+02  0.10294719917E+03  0.11055018407E+03  0.00000000000E+00 0.  1.
         13    1    4    4    0    0  0.10635751787E+02  0.51443417600E+02  0.22580569115E+02  0.57178899360E+02  0.00000000000E+00 0. -1.
        -13    1    3    3    0    0 -0.92081308177E+01 -0.44970333977E+02 -0.64182149554E+02  0.78907977623E+02  0.00000000000E+00 0.  1.
         13    1    3    3    0    0 -0.98063976972E+01  0.36346206615E+02 -0.69855644174E+01  0.38288513700E+02  0.00000000000E+00 0. -1.
         21    1    1    2  502  501 -0.29409573798E+02 -0.28845817363E+02 -0.24925248692E+02  0.48148439567E+02  0.00000000000E+00 0. -1.
<scales pt_clust_5="13000.00000" pt_clust_6="13000.00000" pt_clust_7="13000.00000" pt_clust_8="13000.00000" pt_clust_9="41.19471"></scales>
<clustering>
<clus scale="   41.195">  2  9  1 -1</clus>
<clus scale="   90.743">  7  8 -1 -1</clus>
<clus scale="   92.881">  5  6 -1 -1</clus>
<clus scale="  105.466">  2  7  1 -1</clus>
<clus scale="  107.311">  1  5  2 -1</clus>
</clustering>
</event>
<event>
 9    1  0.1748361E-005  0.1160181E+03  0.7546771E-02  0.1252217E+00
         -2   -1    0    0    0  501 -0.00000000000E+00  0.00000000000E+00  0.55366177769E+02  0.55366177769E+02  0.00000000000E+00 0.  1.
          2   -1    0    0  502    0  0.00000000000E+00 -0.00000000000E+00 -0.38517559935E+03  0.38517559935E+03  0.00000000000E+00 0. -1.
         23    2    1    2    0    0 -0.44176174141E+02 -0.52166224771E+02 -0.93303816671E+02  0.14356128516E+03  0.85037585949E+02 0.  0.
         23    2    1    2    0    0  0.60660369011E+02  0.40390202335E+02 -0.24751215635E+03  0.27392517675E+03  0.91987423627E+02 0.  0.
        -11    1    4    4    0    0 -0.17396660542E+02 -0.13800080648E+02 -0.52069541237E+02  0.56606741194E+02  0.00000000000E+00 0. -1.
         11    1    4    4    0    0  0.78057029553E+02  0.54190282983E+02 -0.19544261511E+03  0.21731843556E+03  0.00000000000E+00 0.  1.
        -11    1    3    3    0    0 -0.25814739697E+02  0.10957190488E+02  0.16260352962E+01  0.28091009235E+02  0.00000000000E+00 0.  1.
         11    1    3    3    0    0 -0.18361434444E+02 -0.63123415259E+02 -0.94929851967E+02  0.11547027593E+03  0.00000000000E+00 0. -1.
         21    1    1    2  502  501 -0.16484194870E+02  0.11776022437E+02  0.11006551431E+02  0.23055315208E+02  0.00000000000E+00 0. -1.
<scales pt_clust_5="13000.00000" pt_clust_6="13000.00000" pt_clust_7="13000.00000" pt_clust_8="13000.00000" pt_clust_9="20.25842"></scales>
<clustering>
<clus scale="   20.258">  1  9  2 -1</clus>
<clus scale="   85.038">  7  8 -1 -1</clus>
<clus scale="   91.987">  5  6 -1 -1</clus>
<clus scale="  110.589">  1  7  2 -1</clus>
<clus scale="  116.018">  2  5  1 -1</clus>
</clustering>
</event>
<event>
 9    1  0.1748361E-005  0.1618311E+03  0.7546771E-02  0.1186757E+00
         -2   -1    0    0    0  501 -0.00000000000E+00  0.00000000000E+00  0.48064404957E+02  0.48064404957E+02  0.00000000000E+00 0.  1.
          2   -1    0    0  502    0  0.00000000000E+00 -0.00000000000E+00 -0.11014363465E+04  0.11014363465E+04  0.00000000000E+00 0. -1.
         23    2    1    2    0    0  0.11081005287E+03 -0.11482458378E+02 -0.13919711153E+03  0.20029647393E+03  0.91280485001E+02 0.  0.
         23    2    1    2    0    0 -0.13629077398E+03 -0.33988940375E+02 -0.85049921405E+03  0.86691515724E+03  0.91992138815E+02 0.  0.
        -11    1    4    4    0    0 -0.20609345500E+02  0.22410747713E+02 -0.77328459833E+02  0.83106422346E+02  0.00000000000E+00 0.  1.
         11    1    4    4    0    0 -0.11568142848E+03 -0.56399688087E+02 -0.77317075422E+03  0.78380873489E+03  0.00000000000E+00 0. -1.
        -13    1    3    3    0    0  0.93176503100E+02  0.26260474882E+02 -0.12067373170E+03  0.15470495400E+03  0.00000000000E+00 0.  1.
         13    1    3    3    0    0  0.17633549766E+02 -0.37742933260E+02 -0.18523379830E+02  0.45591519921E+02  0.00000000000E+00 0. -1.
         21    1    1    2  502  501  0.25480721110E+02  0.45471398753E+02 -0.63675616008E+02  0.82289120343E+02  0.00000000000E+00 0. -1.
<scales pt_clust_5="13000.00000" pt_clust_6="13000.00000" pt_clust_7="13000.00000" pt_clust_8="13000.00000" pt_clust_9="52.12404"></scales>
<clustering>
<clus scale="   52.124">  1  9  2 -1</clus>
<clus scale="   91.280">  7  8 -1 -1</clus>
<clus scale="   91.992">  5  6 -1 -1</clus>
<clus scale="  161.428">  1  7  2 -1</clus>
<clus scale="  161.831">  2  5  1 -1</clus>
</clustering>
</event>
<event>
 9    1  0.2119772E-005  0.1510799E+03  0.7546771E-02  0.1199282E+00
          1   -1    0    0  502    0  0.00000000000E+00  0.00000000000E+00  0.54800181469E+03  0.54800181469E+03  0.00000000000E+00 0. -1.
         -1   -1    0    0    0  501 -0.00000000000E+00 -0.00000000000E+00 -0.10281991376E+03  0.10281991376E+03  0.00000000000E+00 0.  1.
         23    2    1    2    0    0 -0.98837744809E+02  0.61464399315E+02 -0.10962769890E+02  0.14888660298E+03  0.92196887380E+02 0.  0.
         23    2    1    2    0    0  0.11121804053E+03 -0.44554780678E+02  0.45645838568E+03  0.48097551331E+03  0.92890287591E+02 0.  0.
        -11    1    3    3    0    0 -0.31822884934E+02 -0.22197014552E+02 -0.15050184385E+02  0.41616240947E+02  0.00000000000E+00 0. -1.
         11    1    3    3    0    0 -0.67014859875E+02  0.83661413867E+02  0.40874144948E+01  0.10727036204E+03  0.00000000000E+00 0.  1.
        -13    1    4    4    0    0  0.10367871899E+03 -0.65697576278E+02  0.42472989219E+03  0.44210963529E+03  0.00000000000E+00 0. -1.
         13    1    4    4    0    0  0.75393215351E+01  0.21142795600E+02  0.31728493492E+02  0.38865878020E+02  0.00000000000E+00 0.  1.
         21    1    1    2  502  501 -0.12380295716E+02 -0.16909618637E+02 -0.31371486293E+00  0.20959612150E+02  0.00000000000E+00 0.  1.
<scales pt_clust_5="13000.00000" pt_clust_6="13000.00000" pt_clust_7="13000.00000" pt_clust_8="13000.00000" pt_clust_9="20.95726"></scales>
<clustering>
<clus scale="   20.957">  2  9  1 -1</clus>
<clus scale="   92.197">  5  6 -1 -1</clus>
<clus scale="   92.890">  7  8 -1 -1</clus>
<clus scale="  150.655">  2  5  1 -1</clus>
<clus scale="  151.080">  1  5  2 -1</clus>
</clustering>
</event>
<event>
 9    1  0.1748361E-005  0.1677439E+03  0.7546771E-02  0.1180463E+00
          3   -1    0    0  502    0  0.00000000000E+00  0.00000000000E+00  0.92245250290E+03  0.92245250290E+03  0.00000000000E+00 0. -1.
         -3   -1    0    0    0  501 -0.00000000000E+00 -0.00000000000E+00 -0.99965696846E+02  0.99965696846E+02  0.00000000000E+00 0.  1.
         23    2    1    2    0    0  0.16457426840E+03  0.67856822676E+01  0.40250316453E+02  0.19294242849E+03  0.92064963111E+02 0.  0.
         23    2    1    2    0    0 -0.13549807237E+03  0.15734392709E+02  0.77438366322E+03  0.79186931124E+03  0.93699783871E+02 0.  0.
        -13    1    3    3    0    0  0.45729315549E+02 -0.22240872987E+02 -0.22317485596E+02  0.55532845192E+02  0.00000000000E+00 0.  1.
         13    1    3    3    0    0  0.11884495285E+03  0.29026555255E+02  0.62567802049E+02  0.13740958330E+03  0.00000000000E+00 0. -1.
        -13    1    4    4    0    0 -0.11915694196E+03 -0.17195799953E+02  0.68007424728E+03  0.69064828543E+03  0.00000000000E+00 0. -1.
         13    1    4    4    0    0 -0.16341130412E+02  0.32930192662E+02  0.94309415935E+02  0.10122102581E+03  0.00000000000E+00 0.  1.
         21    1    1    2  502  501 -0.29076196029E+02 -0.22520074976E+02  0.78528263793E+01  0.37606460011E+02  0.00000000000E+00 0.  1.
<scales pt_clust_5="13000.00000" pt_clust_6="13000.00000" pt_clust_7="13000.00000" pt_clust_8="13000.00000" pt_clust_9="36.77742"></scales>
<clustering>
<clus scale="   36.777">  2  9  1 -1</clus>
<clus scale="   92.065">  5  6 -1 -1</clus>
<clus scale="   93.700">  7  8 -1 -1</clus>
<clus scale="  166.836">  2  5  1 -1</clus>
<clus scale="  167.744">  1  5  2 -1</clus>
</clustering>
</event>
<event>
 9    1  0.1748361E-005  0.9541970E+02  0.7546771E-02  0.1290418E+00
          1   -1    0    0  502    0  0.00000000000E+00  0.00000000000E+00  0.14699678133E+03  0.14699678133E+03  0.00000000000E+00 0. -1.
         -1   -1    0    0    0  501 -0.00000000000E+00 -0.00000000000E+00 -0.26613001466E+03  0.26613001466E+03  0.00000000000E+00 0.  1.
         23    2    1    2    0    0 -0.71051827427E+01  0.10267921121E+01 -0.19911379327E+03  0.21875158883E+03  0.90301810719E+02 0.  0.
         23    2    1    2    0    0 -0.20142548321E+02  0.25938286156E+02  0.10957030158E+03  0.14594890125E+03  0.90647194356E+02 0.  0.
        -11    1    4    4    0    0 -0.31816683830E+02  0.13829190356E+01 -0.12210168238E+01  0.31870122639E+02  0.00000000000E+00 0.  1.
         11    1    4    4    0    0  0.11674135509E+02  0.24555367121E+02  0.11079131841E+03  0.11407877861E+03  0.00000000000E+00 0. -1.
        -13    1    3    3    0    0 -0.19551780554E+02 -0.41653362492E+02 -0.95758884149E+02  0.10624047545E+03  0.00000000000E+00 0.  1.
         13    1    3    3    0    0  0.12446597811E+02  0.42680154604E+02 -0.10335490912E+03  0.11251111338E+03  0.00000000000E+00 0. -1.
         21    1    1    2  502  501  0.27247731063E+02 -0.26965078268E+02 -0.29589741647E+02  0.48426305918E+02  0.00000000000E+00 0. -1.
<scales pt_clust_5="13000.00000" pt_clust_6="13000.00000" pt_clust_7="13000.00000" pt_clust_8="13000.00000" pt_clust_9="38.33477"></scales>
<clustering>
<clus scale="   38.335">  2  9  1 -1</clus>
<clus scale="   90.302">  7  8 -1 -1</clus>
<clus scale="   90.647">  5  6 -1 -1</clus>
<clus scale="   95.092">  2  7  1 -1</clus>
<clus scale="   95.420">  1  5  2 -1</clus>
</clustering>
</event>
<event>
 9    1  0.1748361E-005  0.1617223E+03  0.7546771E-02  0.1203687E+00
         -1   -1    0    0    0  501 -0.00000000000E+00  0.00000000000E+00  0.95597762074E+03  0.95597762074E+03  0.00000000000E+00 0.  1.
          1   -1    0    0  502    0  0.00000000000E+00 -0.00000000000E+00 -0.50053642403E+02  0.50053642403E+02  0.00000000000E+00 0. -1.
         23    2    1    2    0    0  0.45538915292E+02 -0.15702727776E+03  0.46970839431E+03  0.50518278158E+03  0.88613251540E+02 0.  0.
         23    2    1    2    0    0  0.45205034118E+02  0.72257937219E+02  0.13595211287E+03  0.17592009321E+03  0.72112395604E+02 0.  0.
        -11    1    3    3    0    0  0.52655784129E+02 -0.60281844572E+02  0.29142058671E+03  0.30221265815E+03  0.00000000000E+00 0.  1.
         11    1    3    3    0    0 -0.71168688374E+01 -0.96745433191E+02  0.17828780761E+03  0.20297012343E+03  0.00000000000E+00 0. -1.
        -13    1    4    4    0    0  0.24406952065E+02  0.67563273284E+02  0.50405647047E+02  0.87756620606E+02  0.00000000000E+00 0. -1.
         13    1    4    4    0    0  0.20798082052E+02  0.46946639355E+01  0.85546465821E+02  0.88163472601E+02  0.00000000000E+00 0.  1.
         21    1    1    2  502  501 -0.90743949409E+02  0.84769340544E+02  0.30026347116E+03  0.32492838836E+03  0.00000000000E+00 0. -1.
<scales pt_clust_5="13000.00000" pt_clust_6="13000.00000" pt_clust_7="13000.00000" pt_clust_8="13000.00000" pt_clust_9="135.28416"></scales>
<clustering>
<clus scale="   72.112">  7  8 -1 -1</clus>
<clus scale="   88.613">  5  6 -1 -1</clus>
<clus scale="  111.646">  2  7  1 -1</clus>
<clus scale="  135.284">  1  9  2 -1</clus>
<clus scale="  111.646">  2  5  1 -1</clus>
</clustering>
</event>
<event>
 9    1  0.1748361E-005  0.1003458E+03  0.7546771E-02  0.1280931E+00
          2   -1    0    0  502    0  0.00000000000E+00  0.00000000000E+00  0.71477811130E+02  0.71477811130E+02  0.00000000000E+00 0. -1.
         -2   -1    0    0    0  501 -0.00000000000E+00 -0.00000000000E+00 -0.27440680481E+03  0.27440680481E+03  0.00000000000E+00 0.  1.
         23    2    1    2    0    0 -0.42612811997E+02 -0.19709976328E+02 -0.17464656625E+03  0.20352695447E+03  0.93367356054E+02 0.  0.
         23    2    1    2    0    0 -0.17320209588E+01  0.16244263547E+02 -0.51251617552E+01  0.92210534653E+02  0.90607060559E+02 0.  0.
        -11    1    3    3    0    0 -0.25662991321E+02  0.17753688426E+02 -0.15471625472E+03  0.15783187907E+03  0.00000000000E+00 0. -1.
         11    1    3    3    0    0 -0.16949820676E+02 -0.37463664754E+02 -0.19930311538E+02  0.45695075399E+02  0.00000000000E+00 0.  1.
        -13    1    4    4    0    0  0.39148066945E+02  0.18422841262E+02 -0.21260129632E+02  0.48207523662E+02  0.00000000000E+00 0.  1.
         13    1    4    4    0    0 -0.40880087903E+02 -0.21785777154E+01  0.16134967877E+02  0.44003010991E+02  0.00000000000E+00 0. -1.
         21    1    1    2  502  501  0.44344832956E+02  0.34657127810E+01 -0.23157265669E+02  0.50147126819E+02  0.00000000000E+00 0.  1.
<scales pt_clust_5="13000.00000" pt_clust_6="13000.00000" pt_clust_7="13000.00000" pt_clust_8="13000.00000" pt_clust_9="44.48006"></scales>
<clustering>
<clus scale="   44.480">  1  9  2 -1</clus>
<clus scale="   90.607">  7  8 -1 -1</clus>
<clus scale="   93.367">  5  6 -1 -1</clus>
<clus scale="   97.783">  1  7  2 -1</clus>
<clus scale="   44.480">  1  5  2 -1</clus>
</clustering>
</event>
<event>
 9    1  0.1748361E-005  0.1150730E+03  0.7546771E-02  0.1251863E+00
          1   -1    0    0  502    0  0.00000000000E+00  0.00000000000E+00  0.89340921271E+02  0.89340921271E+02  0.00000000000E+00 0. -1.
         -1   -1    0    0    0  501 -0.00000000000E+00 -0.00000000000E+00 -0.45326450365E+03  0.45326450365E+03  0.00000000000E+00 0.  1.
         23    2    1    2    0    0 -0.18719677129E+02  0.49813537645E+02 -0.31988137342E+03  0.33664147115E+03  0.90396748795E+02 0.  0.
         23    2    1    2    0    0 -0.40640738701E+01 -0.72321668836E+02  0.33997527256E+02  0.12160806656E+03  0.91573738116E+02 0.  0.
        -13    1    3    3    0    0 -0.20810057000E+02  0.72784399510E+02 -0.28454955352E+03  0.29444706772E+03  0.00000000000E+00 0.  1.
         13    1    3    3    0    0  0.20903798718E+01 -0.22970861865E+02 -0.35331819901E+02  0.42194403425E+02  0.00000000000E+00 0. -1.
        -13    1    4    4    0    0 -0.22882483639E+02 -0.88570627008E+02  0.30881757052E+02  0.96550748027E+02  0.00000000000E+00 0. -1.
         13    1    4    4    0    0  0.18818409769E+02  0.16248958172E+02  0.31157702037E+01  0.25057318529E+02  0.00000000000E+00 0.  1.
         21    1    1    2  502  501  0.22783750999E+02  0.22508131191E+02 -0.78039736218E+02  0.84355887217E+02  0.00000000000E+00 0.  1.
<scales pt_clust_5="13000.00000" pt_clust_6="13000.00000" pt_clust_7="13000.00000" pt_clust_8="13000.00000" pt_clust_9="32.02679"></scales>
<clustering>
<clus scale="   32.027">  2  9  1 -1</clus>
<clus scale="   90.397">  5  6 -1 -1</clus>
<clus scale="   91.574">  7  8 -1 -1</clus>
<clus scale="  114.139">  2  5  1 -1</clus>
<clus scale="  115.073">  1  5  2 -1</clus>
</clustering>
</event>
<event>
 9    1  0.1748361E-005  0.1021031E+03  0.7546771E-02  0.1276337E+00
          1   -1    0    0  502    0  0.00000000000E+00  0.00000000000E+00  0.77206621249E+03  0.77206621249E+03  0.00000000000E+00 0. -1.
         -1   -1    0    0    0  501 -0.00000000000E+00 -0.00000000000E+00 -0.24182189627E+02  0.24182189627E+02  0.00000000000E+00 0.  1.
         23    2    1    2    0    0 -0.39237204030E+02  0.77584540947E+01  0.24293609663E+03  0.26231650875E+03  0.90511059692E+02 0.  0.
         23    2    1    2    0    0  0.38349088751E+02 -0.33194513906E+02  0.49609336308E+03  0.50698407015E+03  0.91387603835E+02 0.  0.
        -11    1    4    4    0    0  0.45612394541E+02  0.20006966341E+02  0.27415654358E+03  0.27864418104E+03  0.00000000000E+00 0. -1.
         11    1    4    4    0    0 -0.72633057899E+01 -0.53201480248E+02  0.22193681950E+03  0.22833988911E+03  0.00000000000E+00 0.  1.
        -13    1    3    3    0    0 -0.63376483102E+02  0.96688596586E+01  0.21929841681E+03  0.22847726599E+03  0.00000000000E+00 0.  1.
         13    1    3    3    0    0  0.24139279072E+02 -0.19104055640E+01  0.23637679822E+02  0.33839242765E+02  0.00000000000E+00 0. -1.
         21    1    1    2  502  501  0.88811527928E+00  0.25436059811E+02  0.88545631550E+01  0.26947823217E+02  0.00000000000E+00 0. -1.
<scales pt_clust_5="13000.00000" pt_clust_6="13000.00000" pt_clust_7="13000.00000" pt_clust_8="13000.00000" pt_clust_9="25.45156"></scales>
<clustering>
<clus scale="   25.452">  2  9  1 -1</clus>
<clus scale="   90.511">  7  8 -1 -1</clus>
<clus scale="   91.388">  5  6 -1 -1</clus>
<clus scale="  101.319">  2  7  1 -1</clus>
<clus scale="  102.103">  1  5  2 -1</clus>
</clustering>
</event>
<event>
 9    1  0.1748361E-005  0.9785957E+02  0.7546771E-02  0.1286423E+00
         -1   -1    0    0    0  501 -0.00000000000E+00  0.00000000000E+00  0.10810245667E+03  0.10810245667E+03  0.00000000000E+00 0.  1.
          1   -1    0    0  502    0  0.00000000000E+00 -0.00000000000E+00 -0.22765581104E+03  0.22765581104E+03  0.00000000000E+00 0. -1.
         23    2    1    2    0    0  0.32626622168E+02 -0.38917510683E+02  0.18952899710E+02  0.10673513566E+03  0.91946221591E+02 0.  0.
         23    2    1    2    0    0  0.27059092904E+02  0.13855501541E+02 -0.12992043321E+03  0.16372224993E+03  0.94876165211E+02 0.  0.
        -13    1    3    3    0    0 -0.26073783818E+02  0.60305007641E+01  0.18967943532E+02  0.32802317355E+02  0.00000000000E+00 0. -1.
         13    1    3    3    0    0  0.58700405986E+02 -0.44948011447E+02 -0.15043821241E-01  0.73932818303E+02  0.00000000000E+00 0.  1.
        -13    1    4    4    0    0  0.49142384992E+02  0.10499766194E+02 -0.24397363925E+02  0.55860992287E+02  0.00000000000E+00 0.  1.
         13    1    4    4    0    0 -0.22083292088E+02  0.33557353473E+01 -0.10552306928E+03  0.10786125764E+03  0.00000000000E+00 0. -1.
         21    1    1    2  502  501 -0.59685715072E+02  0.25062009142E+02 -0.85858208642E+01  0.65300882121E+02  0.00000000000E+00 0.  1.
<scales pt_clust_5="13000.00000" pt_clust_6="13000.00000" pt_clust_7="13000.00000" pt_clust_8="13000.00000" pt_clust_9="64.73399"></scales>
<clustering>
<clus scale="   64.734">  1  9  2 -1</clus>
<clus scale="   91.946">  5  6 -1 -1</clus>
<clus scale="   94.876">  7  8 -1 -1</clus>
<clus scale="   95.022">  1  5  2 -1</clus>
<clus scale="   97.860">  2  5  1 -1</clus>
</clustering>
</event>
<event>
 9    1  0.1748361E-005  0.1675999E+03  0.7546771E-02  0.1207264E+00
         -3   -1    0    0    0  501 -0.00000000000E+00  0.00000000000E+00  0.68862188464E+02  0.68862188464E+02  0.00000000000E+00 0.  1.
          3   -1    0    0  502    0  0.00000000000E+00 -0.00000000000E+00 -0.66061166460E+03  0.66061166460E+03  0.00000000000E+00 0. -1.
         23    2    1    2    0    0  0.57778745279E+02  0.11557184100E+03 -0.18185777134E+03  0.24159454391E+03  0.92738561628E+02 0.  0.
         23    2    1    2    0    0  0.35439579660E+01  0.19503604986E+02 -0.26381447320E+03  0.27968611130E+03  0.90737502392E+02 0.  0.
        -11    1    3    3    0    0 -0.74432855640E+01  0.23832113583E+02  0.30167209980E+01  0.25149010784E+02  0.00000000000E+00 0.  1.
         11    1    3    3    0    0  0.65222030843E+02  0.91739727414E+02 -0.18487449233E+03  0.21644553312E+03  0.00000000000E+00 0. -1.
        -11    1    4    4    0    0 -0.31754840850E+02 -0.30353438057E+01 -0.36195330252E+02  0.48246089598E+02  0.00000000000E+00 0.  1.
         11    1    4    4    0    0  0.35298798816E+02  0.22538948792E+02 -0.22761914295E+03  0.23144002170E+03  0.00000000000E+00 0. -1.
         21    1    1    2  502  501 -0.61322703245E+02 -0.13507544598E+03 -0.14607723160E+03  0.20819319785E+03  0.00000000000E+00 0.  1.
<scales pt_clust_5="13000.00000" pt_clust_6="13000.00000" pt_clust_7="13000.00000" pt_clust_8="13000.00000" pt_clust_9="139.60402"></scales>
<clustering>
<clus scale="   90.738">  7  8 -1 -1</clus>
<clus scale="   92.739">  5  6 -1 -1</clus>
<clus scale="   92.878">  2  7  1 -1</clus>
<clus scale="  139.604">  2  9  1 -1</clus>
<clus scale="   92.878">  2  5  1 -1</clus>
</clustering>
</event>
<event>
 9    1  0.1748361E-005  0.9413734E+02  0.7546771E-02  0.1293689E+00
          1   -1    0    0  502    0  0.00000000000E+00  0.00000000000E+00  0.20772621761E+03  0.20772621761E+03  0.00000000000E+00 0. -1.
         -1   -1    0    0    0  501 -0.00000000000E+00 -0.00000000000E+00 -0.72012275430E+02  0.72012275430E+02  0.00000000000E+00 0.  1.
         23    2    1    2    0    0  0.14068561048E+02  0.98982027208E+01  0.13616342145E+02  0.93931919001E+02  0.91334012321E+02 0.  0.
         23    2    1    2    0    0  0.21741081656E+02 -0.24970179751E+02  0.10759908927E+03  0.14433728641E+03  0.90329971375E+02 0.  0.
        -11    1    4    4    0    0 -0.23559491276E+02 -0.32874742398E+02  0.19371174655E+02  0.44844628714E+02  0.00000000000E+00 0.  1.
         11    1    4    4    0    0  0.45300572931E+02  0.79045626479E+01  0.88227914616E+02  0.99492657699E+02  0.00000000000E+00 0. -1.
        -11    1    3    3    0    0  0.43477182933E+02 -0.21021224814E+02 -0.24034574059E+01  0.48352186466E+02  0.00000000000E+00 0. -1.
         11    1    3    3    0    0 -0.29408621886E+02  0.30919427535E+02  0.16019799551E+02  0.45579732535E+02  0.00000000000E+00 0.  1.
         21    1    1    2  502  501 -0.35809642703E+02  0.15071977030E+02  0.14498510769E+02  0.41469287631E+02  0.00000000000E+00 0. -1.
<scales pt_clust_5="13000.00000" pt_clust_6="13000.00000" pt_clust_7="13000.00000" pt_clust_8="13000.00000" pt_clust_9="38.85222"></scales>
<clustering>
<clus scale="   38.852">  2  9  1 -1</clus>
<clus scale="   90.330">  5  6 -1 -1</clus>
<clus scale="   91.334">  7  8 -1 -1</clus>
<clus scale="   93.164">  1  5  2 -1</clus>
<clus scale="   93.164">  1  5  2 -1</clus>
</clustering>
</event>
<event>
 9    1  0.1748361E-005  0.9738318E+02  0.7546771E-02  0.1286600E+00
         -2   -1    0    0    0  501 -0.00000000000E+00  0.00000000000E+00  0.21876869985E+03  0.21876869985E+03  0.00000000000E+00 0.  1.
          2   -1    0    0  502    0  0.00000000000E+00 -0.00000000000E+00 -0.69580350850E+02  0.69580350850E+02  0.00000000000E+00 0. -1.
         23    2    1    2    0    0  0.26665176104E+02 -0.25816142431E+01  0.79451382347E+02  0.12459368607E+03  0.92159471043E+02 0.  0.
         23    2    1    2    0    0 -0.22204714096E+02 -0.34214964565E+02  0.19682885084E+02  0.10147137780E+03  0.90803697170E+02 0.  0.
        -11    1    3    3    0    0  0.43879037761E+02 -0.36585438756E+02  0.55061343877E+02  0.79344917124E+02  0.00000000000E+00 0.  1.
         11    1    3    3    0    0 -0.17213861656E+02  0.34003824513E+02  0.24390038470E+02  0.45248768946E+02  0.00000000000E+00 0. -1.
        -13    1    4    4    0    0  0.18767361605E+02 -0.18897562983E+02  0.43994074655E+02  0.51427719695E+02  0.00000000000E+00 0.  1.
         13    1    4    4    0    0 -0.40972075701E+02 -0.15317401582E+02 -0.24311189571E+02  0.50043658108E+02  0.00000000000E+00 0. -1.
         21    1    1    2  502  501 -0.44604620086E+01  0.36796578808E+02  0.50054081568E+02  0.62283986826E+02  0.00000000000E+00 0.  1.
<scales pt_clust_5="13000.00000" pt_clust_6="13000.00000" pt_clust_7="13000.00000" pt_clust_8="13000.00000" pt_clust_9="37.06594"></scales>
<clustering>
<clus scale="   37.066">  1  9  2 -1</clus>
<clus scale="   90.804">  7  8 -1 -1</clus>
<clus scale="   92.159">  5  6 -1 -1</clus>
<clus scale="   96.101">  2  7  1 -1</clus>
<clus scale="   96.101">  2  5  1 -1</clus>
</clustering>
</event>
<event>
 9    1  0.1748361E-005  0.1372848E+03  0.7546771E-02  0.1217361E+00
          1   -1    0    0  502    0  0.00000000000E+00  0.00000000000E+00  0.57459864268E+03  0.57459864268E+03  0.00000000000E+00 0. -1.
         -1   -1    0    0    0  501 -0.00000000000E+00 -0.00000000000E+00 -0.62383348670E+02  0.62383348670E+02  0.00000000000E+00 0.  1.
         23    2    1    2    0    0  0.14403083816E+03 -0.25711489986E+02  0.20114920971E+03  0.26424149237E+03  0.89199768290E+02 0.  0.
         23    2    1    2    0    0 -0.83286660158E+02 -0.16942524160E+02  0.23853096368E+03  0.26895917211E+03  0.90654832982E+02 0.  0.
        -11    1    4    4    0    0 -0.60976472749E+02  0.14066934868E+02  0.61090724201E+02  0.87453333092E+02  0.00000000000E+00 0.  1.
         11    1    4    4    0    0 -0.22310187409E+02 -0.31009459028E+02  0.17744023948E+03  0.18150583902E+03  0.00000000000E+00 0. -1.
        -13    1    3    3    0    0  0.12018270075E+03 -0.39885144131E+02  0.19969802150E+03  0.23646142618E+03  0.00000000000E+00 0.  1.
         13    1    3    3    0    0  0.23848137417E+02  0.14173654145E+02  0.14511882086E+01  0.27780066185E+02  0.00000000000E+00 0. -1.
         21    1    1    2  502  501 -0.60744178004E+02  0.42654014146E+02  0.72535120627E+02  0.10378132688E+03  0.00000000000E+00 0. -1.
<scales pt_clust_5="13000.00000" pt_clust_6="13000.00000" pt_clust_7="13000.00000" pt_clust_8="13000.00000" pt_clust_9="74.22412"></scales>
<clustering>
<clus scale="   74.224">  2  9  1 -1</clus>
<clus scale="   89.200">  7  8 -1 -1</clus>
<clus scale="   90.655">  5  6 -1 -1</clus>
<clus scale="  136.328">  2  7  1 -1</clus>
<clus scale="  137.285">  1  5  2 -1</clus>
</clustering>
</event>
<event>
 9    1  0.1748361E-005  0.9525292E+02  0.7546771E-02  0.1291291E+00
          1   -1    0    0  502    0  0.00000000000E+00  0.00000000000E+00  0.20895586823E+03  0.20895586823E+03  0.00000000000E+00 0. -1.
         -1   -1    0    0    0  501 -0.00000000000E+00 -0.00000000000E+00 -0.92577647712E+02  0.92577647712E+02  0.00000000000E+00 0.  1.
         23    2    1    2    0    0  0.10556917091E+02 -0.21335621314E+02 -0.77460670274E+01  0.96330454726E+02  0.93020953112E+02 0.  0.
         23    2    1    2    0    0 -0.22809034605E+02 -0.11321069238E+02  0.13798837074E+03  0.16766925479E+03  0.91781097584E+02 0.  0.
        -13    1    4    4    0    0 -0.32452541782E+02 -0.46683646398E+02  0.67777367813E+02  0.88466388514E+02  0.00000000000E+00 0. -1.
         13    1    4    4    0    0  0.96435071772E+01  0.35362577160E+02  0.70211002930E+02  0.79202866277E+02  0.00000000000E+00 0.  1.
        -13    1    3    3    0    0  0.16041939815E+02  0.19162325325E+02 -0.38001225039E+02  0.45482212450E+02  0.00000000000E+00 0.  1.
         13    1    3    3    0    0 -0.54850227242E+01 -0.40497946639E+02  0.30255158011E+02  0.50848242276E+02  0.00000000000E+00 0. -1.
         21    1    1    2  502  501  0.12252117514E+02  0.32656690552E+02 -0.13864083202E+02  0.37533806420E+02  0.00000000000E+00 0.  1.
<scales pt_clust_5="13000.00000" pt_clust_6="13000.00000" pt_clust_7="13000.00000" pt_clust_8="13000.00000" pt_clust_9="34.87942"></scales>
<clustering>
<clus scale="   34.879">  2  9  1 -1</clus>
<clus scale="   91.781">  5  6 -1 -1</clus>
<clus scale="   93.021">  7  8 -1 -1</clus>
<clus scale="   94.042">  1  5  2 -1</clus>
<clus scale="   94.042">  1  5  2 -1</clus>
</clustering>
</event>
<event>
 9    1  0.1748361E-005  0.9066544E+02  0.7546771E-02  0.1304305E+00
         -4   -1    0    0    0  501 -0.00000000000E+00  0.00000000000E+00  0.16982864376E+03  0.16982864376E+03  0.00000000000E+00 0.  1.
          4   -1    0    0  502    0  0.00000000000E+00 -0.00000000000E+00 -0.16697067440E+03  0.16697067440E+03  0.00000000000E+00 0. -1.
         23    2    1    2    0    0 -0.19684404372E+02  0.22539413655E+02  0.87218948058E+02  0.12574916822E+03  0.85499751249E+02 0.  0.
         23    2    1    2    0    0  0.32690670600E+01 -0.63009635490E+00 -0.12965374510E+03  0.15812646741E+03  0.90458842886E+02 0.  0.
        -13    1    4    4    0    0  0.27491248401E+02 -0.37128819230E+02 -0.58100476437E+02  0.74229261873E+02  0.00000000000E+00 0.  1.
         13    1    4    4    0    0 -0.24222181341E+02  0.36498722876E+02 -0.71553268667E+02  0.83897205539E+02  0.00000000000E+00 0. -1.
        -13    1    3    3    0    0 -0.27914554245E+02 -0.16473989867E+02  0.78508942193E+02  0.84936851161E+02  0.00000000000E+00 0.  1.
         13    1    3    3    0    0  0.82301498734E+01  0.39013403523E+02  0.87100058651E+01  0.40812317057E+02  0.00000000000E+00 0. -1.
         21    1    1    2  502  501  0.16415337312E+02 -0.21909317300E+02  0.45292766406E+02  0.52923682528E+02  0.00000000000E+00 0.  1.
<scales pt_clust_5="13000.00000" pt_clust_6="13000.00000" pt_clust_7="13000.00000" pt_clust_8="13000.00000" pt_clust_9="27.37666"></scales>
<clustering>
<clus scale="   27.377">  1  9  2 -1</clus>
<clus scale="   85.500">  7  8 -1 -1</clus>
<clus scale="   85.718">  1  7  2 -1</clus>
<clus scale="   90.459">  5  6 -1 -1</clus>
<clus scale="   90.665">  2  5  1 -1</clus>
</clustering>
</event>
<event>
 9    1  0.1748361E-005  0.1284454E+03  0.7546771E-02  0.1231865E+00
          1   -1    0    0  502    0  0.00000000000E+00  0.00000000000E+00  0.26757561137E+03  0.26757561137E+03  0.00000000000E+00 0. -1.
         -1   -1    0    0    0  501 -0.00000000000E+00 -0.00000000000E+00 -0.15866260138E+03  0.15866260138E+03  0.00000000000E+00 0.  1.
         23    2    1    2    0    0 -0.43424855237E+02  0.64388934911E+02 -0.86267912984E+02  0.15191371778E+03  0.97999856370E+02 0.  0.
         23    2    1    2    0    0  0.20605293077E+02 -0.81830316207E+02  0.20857680831E+03  0.24263247796E+03  0.90804491314E+02 0.  0.
        -11    1    3    3    0    0 -0.63054882835E+02  0.75951532844E+02 -0.82853718415E+02  0.12887704313E+03  0.00000000000E+00 0.  1.
         11    1    3    3    0    0  0.19630027599E+02 -0.11562597933E+02 -0.34141945689E+01  0.23036674652E+02  0.00000000000E+00 0. -1.
        -13    1    4    4    0    0 -0.44367597208E+01 -0.28854414351E+02  0.35642608830E+01  0.29410304657E+02  0.00000000000E+00 0.  1.
         13    1    4    4    0    0  0.25042052798E+02 -0.52975901856E+02  0.20501254742E+03  0.21322217330E+03  0.00000000000E+00 0. -1.
         21    1    1    2  502  501  0.22819562159E+02  0.17441381296E+02 -0.13395885332E+02  0.31692017015E+02  0.00000000000E+00 0. -1.
<scales pt_clust_5="13000.00000" pt_clust_6="13000.00000" pt_clust_7="13000.00000" pt_clust_8="13000.00000" pt_clust_9="28.72167"></scales>
<clustering>
<clus scale="   28.722">  2  9  1 -1</clus>
<clus scale="   90.804">  7  8 -1 -1</clus>
<clus scale="   98.000">  5  6 -1 -1</clus>
<clus scale="  123.044">  1  7  2 -1</clus>
<clus scale="  123.044">  1  5  2 -1</clus>
</clustering>
</event>
<event>
 9    1  0.1748361E-005  0.1165480E+03  0.7546771E-02  0.1250417E+00
         -1   -1    0    0    0  501 -0.00000000000E+00  0.00000000000E+00  0.15945426667E+02  0.15945426667E+02  0.00000000000E+00 0.  1.
          1   -1    0    0  502    0  0.00000000000E+00 -0.00000000000E+00 -0.11057347514E+04  0.11057347514E+04  0.00000000000E+00 0. -1.
         23    2    1    2    0    0 -0.92455921130E+01 -0.55351631833E+02 -0.38817460140E+03  0.40251387160E+03  0.90490947313E+02 0.  0.
         23    2    1    2    0    0  0.10483411126E+01  0.84040209340E+02 -0.52650974683E+03  0.54153753008E+03  0.94797295142E+02 0.  0.
        -13    1    4    4    0    0 -0.38991709760E+02  0.73893974439E+01 -0.18932538220E+03  0.19344006041E+03  0.00000000000E+00 0. -1.
         13    1    4    4    0    0  0.40040050873E+02  0.76650811896E+02 -0.33718436463E+03  0.34809746966E+03  0.00000000000E+00 0.  1.
        -13    1    3    3    0    0 -0.25661152692E+02  0.90595075684E+01 -0.42212385577E+02  0.50224047338E+02  0.00000000000E+00 0.  1.
         13    1    3    3    0    0  0.16415560579E+02 -0.64411139401E+02 -0.34596221582E+03  0.35228982427E+03  0.00000000000E+00 0. -1.
         21    1    1    2  502  501  0.81972510004E+01 -0.28688577507E+02 -0.17510497649E+03  0.17762877637E+03  0.00000000000E+00 0. -1.
<scales pt_clust_5="13000.00000" pt_clust_6="13000.00000" pt_clust_7="13000.00000" pt_clust_8="13000.00000" pt_clust_9="29.83671"></scales>
<clustering>
<clus scale="   29.837">  2  9  1 -1</clus>
<clus scale="   90.491">  7  8 -1 -1</clus>
<clus scale="   94.797">  5  6 -1 -1</clus>
<clus scale="  113.073">  1  7  2 -1</clus>
<clus scale="   29.837">  2  5  1 -1</clus>
</clustering>
</event>
<event>
 9    1  0.1748361E-005  0.9626524E+02  0.7546771E-02  0.1290150E+00
         -1   -1    0    0    0  501 -0.00000000000E+00  0.00000000000E+00  0.18137091177E+02  0.18137091177E+02  0.00000000000E+00 0.  1.
          1   -1    0    0  502    0  0.00000000000E+00 -0.00000000000E+00 -0.90972620039E+03  0.90972620039E+03  0.00000000000E+00 0. -1.
         23    2    1    2    0    0 -0.10723111870E+02  0.55877057033E+02 -0.25681973220E+03  0.27873413419E+03  0.92190629049E+02 0.  0.
         23    2    1    2    0    0  0.64075110712E+01 -0.16113539478E+02 -0.51393490138E+03  0.52184706028E+03  0.88851387824E+02 0.  0.
        -11    1    3    3    0    0  0.23718181473E+02 -0.12257621239E+02 -0.11067686312E+03  0.11385152367E+03  0.00000000000E+00 0.  1.
         11    1    3    3    0    0 -0.34441293343E+02  0.68134678273E+02 -0.14614286908E+03  0.16488261053E+03  0.00000000000E+00 0. -1.
        -11    1    4    4    0    0  0.68098261132E+01 -0.53076636257E+02 -0.31249685546E+03  0.31704540325E+03  0.00000000000E+00 0.  1.
         11    1    4    4    0    0 -0.40231504202E+00  0.36963096779E+02 -0.20143804591E+03  0.20480165703E+03  0.00000000000E+00 0. -1.
         21    1    1    2  502  501  0.43156007990E+01 -0.39763517556E+02 -0.12083447564E+03  0.12728209709E+03  0.00000000000E+00 0.  1.
<scales pt_clust_5="13000.00000" pt_clust_6="13000.00000" pt_clust_7="13000.00000" pt_clust_8="13000.00000" pt_clust_9="39.99702"></scales>
<clustering>
<clus scale="   39.997">  1  9  2 -1</clus>
<clus scale="   88.851">  7  8 -1 -1</clus>
<clus scale="   92.191">  5  6 -1 -1</clus>
<clus scale="   93.072">  2  7  1 -1</clus>
<clus scale="   93.072">  2  5  1 -1</clus>
</clustering>
</event>
<event>
 9    1  0.1748361E-005  0.9546939E+02  0.7546771E-02  0.1300223E+00
         -1   -1    0    0    0  501 -0.00000000000E+00  0.00000000000E+00  0.32184062880E+02  0.32184062880E+02  0.00000000000E+00 0.  1.
          1   -1    0    0  502    0  0.00000000000E+00 -0.00000000000E+00 -0.30996847327E+03  0.30996847327E+03  0.00000000000E+00 0. -1.
         23    2    1    2    0    0  0.29695231438E+02 -0.12916170845E+02 -0.14592927408E+03  0.17614259927E+03  0.93178473929E+02 0.  0.
         23    2    1    2    0    0 -0.12531143827E+02 -0.60885265760E+00 -0.11404672378E+03  0.13782001455E+03  0.76356407313E+02 0.  0.
        -11    1    3    3    0    0  0.13467224109E+02  0.40065581337E+02 -0.75520296120E+02  0.86544393574E+02  0.00000000000E+00 0.  1.
         11    1    3    3    0    0  0.16228007329E+02 -0.52981752182E+02 -0.70408977962E+02  0.89598205695E+02  0.00000000000E+00 0. -1.
        -13    1    4    4    0    0  0.27671749448E+02  0.10531315206E+01 -0.16341931668E+02  0.32154214873E+02  0.00000000000E+00 0.  1.
         13    1    4    4    0    0 -0.40202893274E+02 -0.16619841782E+01 -0.97704792116E+02  0.10566579968E+03  0.00000000000E+00 0. -1.
         21    1    1    2  502  501 -0.17164087612E+02  0.13525023503E+02 -0.17808412524E+02  0.28189922329E+02  0.00000000000E+00 0.  1.
<scales pt_clust_5="13000.00000" pt_clust_6="13000.00000" pt_clust_7="13000.00000" pt_clust_8="13000.00000" pt_clust_9="21.85251"></scales>
<clustering>
<clus scale="   21.853">  1  9  2 -1</clus>
<clus scale="   76.356">  7  8 -1 -1</clus>
<clus scale="   79.136">  2  7  1 -1</clus>
<clus scale="   93.178">  5  6 -1 -1</clus>
<clus scale="   79.136">  2  5  1 -1</clus>
</clustering>
</event>
<event>
 9    1  0.1748361E-005  0.9614610E+02  0.7546771E-02  0.1289943E+00
         -3   -1    0    0    0  501 -0.00000000000E+00  0.00000000000E+00  0.41886067942E+03  0.41886067942E+03  0.00000000000E+00 0.  1.
          3   -1    0    0  502    0  0.00000000000E+00 -0.00000000000E+00 -0.33244351704E+02  0.33244351704E+02  0.00000000000E+00 0. -1.
         23    2    1    2    0    0  0.49722955761E+01 -0.21816843460E+02  0.25866802834E+03  0.27534272899E+03  0.91672084839E+02 0.  0.
         23    2    1    2    0    0 -0.10121016055E+02  0.44143516087E+02  0.10113811567E+03  0.14224918556E+03  0.89189838951E+02 0.  0.
        -13    1    3    3    0    0  0.35708029860E+02 -0.11889693004E+02  0.22703552132E+03  0.23013377878E+03  0.00000000000E+00 0.  1.
         13    1    3    3    0    0 -0.30735734284E+02 -0.99271504560E+01  0.31632507022E+02  0.45208950205E+02  0.00000000000E+00 0. -1.
        -13    1    4    4    0    0 -0.37175007561E+02 -0.17157363545E+01  0.73207380443E+02  0.82123355325E+02  0.00000000000E+00 0. -1.
         13    1    4    4    0    0  0.27053991506E+02  0.45859252441E+02  0.27930735225E+02  0.60125830232E+02  0.00000000000E+00 0.  1.
         21    1    1    2  502  501  0.51487204793E+01 -0.22326672627E+02  0.25810183711E+02  0.34513116584E+02  0.00000000000E+00 0. -1.
<scales pt_clust_5="13000.00000" pt_clust_6="13000.00000" pt_clust_7="13000.00000" pt_clust_8="13000.00000" pt_clust_9="22.91265"></scales>
<clustering>
<clus scale="   22.913">  2  9  1 -1</clus>
<clus scale="   89.190">  7  8 -1 -1</clus>
<clus scale="   91.672">  5  6 -1 -1</clus>
<clus scale="   93.782">  2  7  1 -1</clus>
<clus scale="   22.913">  2  5  1 -1</clus>
</clustering>
</event>
<event>
 9    1  0.1748361E-005  0.1120982E+03  0.7546771E-02  0.1257129E+00
          1   -1    0    0  502    0  0.00000000000E+00  0.00000000000E+00  0.19016292392E+03  0.19016292392E+03  0.00000000000E+00 0. -1.
         -1   -1    0    0    0  501 -0.00000000000E+00 -0.00000000000E+00 -0.99002192338E+02  0.99002192338E+02  0.00000000000E+00 0.  1.
         23    2    1    2    0    0 -0.48912722678E+02 -0.31690955114E+02  0.20677199950E+02  0.11024663413E+03  0.91268848269E+02 0.  0.
         23    2    1    2    0    0  0.33701755404E+02  0.64889293854E+02  0.80219375516E+02  0.14112575959E+03  0.90193697328E+02 0.  0.
        -11    1    3    3    0    0 -0.53396970104E+02 -0.31425373532E+01 -0.22714575658E+02  0.58112510741E+02  0.00000000000E+00 0.  1.
         11    1    3    3    0    0  0.44842474253E+01 -0.28548417760E+02  0.43391775608E+02  0.52134123393E+02  0.00000000000E+00 0. -1.
        -13    1    4    4    0    0  0.61783966340E+02  0.23986193084E+02  0.50124099416E+02  0.83096457792E+02  0.00000000000E+00 0. -1.
         13    1    4    4    0    0 -0.28082210936E+02  0.40903100770E+02  0.30095276100E+02  0.58029301798E+02  0.00000000000E+00 0.  1.
         21    1    1    2  502  501  0.15210967274E+02 -0.33198338740E+02 -0.97358438817E+01  0.37792722535E+02  0.00000000000E+00 0. -1.
<scales pt_clust_5="13000.00000" pt_clust_6="13000.00000" pt_clust_7="13000.00000" pt_clust_8="13000.00000" pt_clust_9="36.51716"></scales>
<clustering>
<clus scale="   36.517">  2  9  1 -1</clus>
<clus scale="   90.194">  7  8 -1 -1</clus>
<clus scale="   91.269">  5  6 -1 -1</clus>
<clus scale="  111.225">  1  7  2 -1</clus>
<clus scale="  111.225">  1  5  2 -1</clus>
</clustering>
</event>
<event>
 9    1  0.7355597E-005  0.1704008E+03  0.7546771E-02  0.1183497E+00
          1   -1    0    0  502    0  0.00000000000E+00  0.00000000000E+00  0.54870523776E+03  0.54870523776E+03  0.00000000000E+00 0. -1.
         -1   -1    0    0    0  501 -0.00000000000E+00 -0.00000000000E+00 -0.30575784833E+03  0.30575784833E+03  0.00000000000E+00 0.  1.
         23    2    1    2    0    0 -0.36039714124E+02 -0.10874185058E+03 -0.20296743413E+03  0.25015553865E+03  0.90875536523E+02 0.  0.
         23    2    1    2    0    0  0.51597303465E+01  0.11802837662E+03  0.50714492800E+03  0.53510538956E+03  0.12322531980E+03 0.  0.
        -13    1    3    3    0    0 -0.62315907013E+02 -0.83183793133E+02 -0.17690640641E+03  0.20517965868E+03  0.00000000000E+00 0.  1.
         13    1    3    3    0    0  0.26276192889E+02 -0.25558057445E+02 -0.26061027713E+02  0.44975879964E+02  0.00000000000E+00 0. -1.
        -13    1    4    4    0    0 -0.53806232338E+02  0.53648024323E+02  0.31536457466E+03  0.32438871143E+03  0.00000000000E+00 0. -1.
         13    1    4    4    0    0  0.58965962684E+02  0.64380352300E+02  0.19178035333E+03  0.21071667813E+03  0.00000000000E+00 0.  1.
         21    1    1    2  502  501  0.30879983778E+02 -0.92865260443E+01 -0.61230104450E+02  0.69202157878E+02  0.00000000000E+00 0.  1.
<scales pt_clust_5="13000.00000" pt_clust_6="13000.00000" pt_clust_7="13000.00000" pt_clust_8="13000.00000" pt_clust_9="32.24613"></scales>
<clustering>
<clus scale="   32.246">  2  9  1 -1</clus>
<clus scale="   90.876">  5  6 -1 -1</clus>
<clus scale="  123.225">  7  8 -1 -1</clus>
<clus scale="  148.695">  2  5  1 -1</clus>
<clus scale="  170.401">  1  5  2 -1</clus>
</clustering>
</event>
<event>
 9    1  0.1748361E-005  0.1092867E+03  0.7546771E-02  0.1263177E+00
         -1   -1    0    0    0  501 -0.00000000000E+00  0.00000000000E+00  0.29645059509E+03  0.29645059509E+03  0.00000000000E+00 0.  1.
          1   -1    0    0  502    0  0.00000000000E+00 -0.00000000000E+00 -0.11951964640E+03  0.11951964640E+03  0.00000000000E+00 0. -1.
         23    2    1    2    0    0  0.71135815244E+01  0.67074994858E+02  0.85438490783E+02  0.14274749969E+03  0.92344220081E+02 0.  0.
         23    2    1    2    0    0  0.64285266043E+02 -0.14707747496E+02 -0.32845725643E+02  0.12057901309E+03  0.95454405018E+02 0.  0.
        -11    1    3    3    0    0  0.27906918106E+02  0.82308907132E+02  0.75486855300E+02  0.11511653919E+03  0.00000000000E+00 0. -1.
         11    1    3    3    0    0 -0.20793336581E+02 -0.15233912274E+02  0.99516354837E+01  0.27630960500E+02  0.00000000000E+00 0.  1.
        -11    1    4    4    0    0  0.33977957346E+02  0.30843679150E+02 -0.45283648422E+02  0.64470481178E+02  0.00000000000E+00 0. -1.
         11    1    4    4    0    0  0.30307308697E+02 -0.45551426646E+02  0.12437922778E+02  0.56108531909E+02  0.00000000000E+00 0.  1.
         21    1    1    2  502  501 -0.71398847567E+02 -0.52367247361E+02  0.12433818355E+03  0.15264372872E+03  0.00000000000E+00 0.  1.
<scales pt_clust_5="13000.00000" pt_clust_6="13000.00000" pt_clust_7="13000.00000" pt_clust_8="13000.00000" pt_clust_9="88.54447"></scales>
<clustering>
<clus scale="   88.544">  1  9  2 -1</clus>
<clus scale="   92.344">  5  6 -1 -1</clus>
<clus scale="   95.454">  7  8 -1 -1</clus>
<clus scale="  106.581">  1  5  2 -1</clus>
<clus scale="  109.287">  2  5  1 -1</clus>
</clustering>
</event>
<event>
 9    1  0.1748361E-005  0.1219505E+03  0.7546771E-02  0.1240995E+00
          2   -1    0    0  502    0  0.00000000000E+00  0.00000000000E+00  0.95905137251E+02  0.95905137251E+02  0.00000000000E+00 0. -1.
         -2   -1    0    0    0  501 -0.00000000000E+00 -0.00000000000E+00 -0.36737421750E+03  0.36737421750E+03  0.00000000000E+00 0.  1.
         23    2    1    2    0    0 -0.53906825515E+02  0.66296428410E+02 -0.14002071124E+03  0.18737011610E+03  0.90557156398E+02 0.  0.
         23    2    1    2    0    0  0.84516469696E+02  0.29000176726E+01 -0.25928793449E+01  0.12648087560E+03  0.94017259672E+02 0.  0.
        -11    1    3    3    0    0 -0.22024399954E+02  0.60872442944E+02 -0.14085563133E+03  0.15501882911E+03  0.00000000000E+00 0.  1.
         11    1    3    3    0    0 -0.31882425561E+02  0.54239854657E+01  0.83492009137E+00  0.32351286985E+02  0.00000000000E+00 0. -1.
        -11    1    4    4    0    0  0.12596921291E+02  0.32508380746E+02 -0.27941062173E+02  0.44678632478E+02  0.00000000000E+00 0.  1.
         11    1    4    4    0    0  0.71919548405E+02 -0.29608363073E+02  0.25348182828E+02  0.81802243120E+02  0.00000000000E+00 0. -1.
         21    1    1    2  502  501 -0.30609644181E+02 -0.69196446083E+02 -0.12885548967E+03  0.14942836305E+03  0.00000000000E+00 0.  1.
<scales pt_clust_5="13000.00000" pt_clust_6="13000.00000" pt_clust_7="13000.00000" pt_clust_8="13000.00000" pt_clust_9="75.66438"></scales>
<clustering>
<clus scale="   75.664">  2  9  1 -1</clus>
<clus scale="   90.557">  5  6 -1 -1</clus>
<clus scale="   94.017">  7  8 -1 -1</clus>
<clus scale="  119.303">  2  5  1 -1</clus>
<clus scale="  121.950">  1  5  2 -1</clus>
</clustering>
</event>
<event>
 9    1  0.1748361E-005  0.1011430E+03  0.7546771E-02  0.1278783E+00
          1   -1    0    0  502    0  0.00000000000E+00  0.00000000000E+00  0.38502411060E+03  0.38502411060E+03  0.00000000000E+00 0. -1.
         -1   -1    0    0    0  501 -0.00000000000E+00 -0.00000000000E+00 -0.67676709455E+02  0.67676709455E+02  0.00000000000E+00 0.  1.
         23    2    1    2    0    0  0.37570616062E+02  0.12687600395E+02  0.39980111051E+02  0.10671994163E+03  0.90654344994E+02 0.  0.
         23    2    1    2    0    0 -0.15511734115E+02  0.50665019126E+02  0.25312629762E+03  0.27465224190E+03  0.92484449372E+02 0.  0.
        -11    1    4    4    0    0 -0.44382824932E+02  0.11253649149E+02  0.60187525480E+02  0.75624189196E+02  0.00000000000E+00 0.  1.
         11    1    4    4    0    0  0.28871090817E+02  0.39411369977E+02  0.19293877214E+03  0.19902805270E+03  0.00000000000E+00 0. -1.
        -11    1    3    3    0    0  0.46764826873E+02  0.42179916436E+02  0.42103426721E+02  0.75754821132E+02  0.00000000000E+00 0. -1.
         11    1    3    3    0    0 -0.91942108104E+01 -0.29492316041E+02 -0.21233156703E+01  0.30965120496E+02  0.00000000000E+00 0.  1.
         21    1    1    2  502  501 -0.22058881948E+02 -0.63352619522E+02  0.24240992478E+02  0.71328636531E+02  0.00000000000E+00 0.  1.
<scales pt_clust_5="13000.00000" pt_clust_6="13000.00000" pt_clust_7="13000.00000" pt_clust_8="13000.00000" pt_clust_9="67.08315"></scales>
<clustering>
<clus scale="   67.083">  2  9  1 -1</clus>
<clus scale="   90.654">  7  8 -1 -1</clus>
<clus scale="   92.484">  5  6 -1 -1</clus>
<clus scale="   99.472">  2  7  1 -1</clus>
<clus scale="  101.143">  1  5  2 -1</clus>
</clustering>
</event>
<event>
 9    1  0.1748361E-005  0.1029047E+03  0.7546771E-02  0.1278674E+00
         -1   -1    0    0    0  501 -0.00000000000E+00  0.00000000000E+00  0.71133061123E+02  0.71133061123E+02  0.00000000000E+00 0.  1.
          1   -1    0    0  502    0  0.00000000000E+00 -0.00000000000E+00 -0.38321529230E+03  0.38321529230E+03  0.00000000000E+00 0. -1.
         23    2    1    2    0    0 -0.28858538177E+02 -0.36208394041E+02 -0.14953587825E+03  0.18536443201E+03  0.99273011158E+02 0.  0.
         23    2    1    2    0    0  0.25571920186E+02 -0.31247643997E+02 -0.17415284633E+03  0.20045779782E+03  0.90685039917E+02 0.  0.
        -11    1    4    4    0    0  0.36060088145E+02  0.14821173578E+02 -0.13025552863E+03  0.13596506861E+03  0.00000000000E+00 0. -1.
         11    1    4    4    0    0 -0.10488167959E+02 -0.46068817576E+02 -0.43897317703E+02  0.64492729214E+02  0.00000000000E+00 0.  1.
        -13    1    3    3    0    0  0.87591863786E+01  0.30521951349E+02 -0.32093045779E+02  0.45147275085E+02  0.00000000000E+00 0.  1.
         13    1    3    3    0    0 -0.37617724555E+02 -0.66730345390E+02 -0.11744283247E+03  0.14021715692E+03  0.00000000000E+00 0. -1.
         21    1    1    2  502  501  0.32866179910E+01  0.67456038038E+02  0.11606493405E+02  0.68526123594E+02  0.00000000000E+00 0.  1.
<scales pt_clust_5="13000.00000" pt_clust_6="13000.00000" pt_clust_7="13000.00000" pt_clust_8="13000.00000" pt_clust_9="67.53606"></scales>
<clustering>
<clus scale="   67.536">  1  9  2 -1</clus>
<clus scale="   90.685">  5  6 -1 -1</clus>
<clus scale="   94.647">  2  5  1 -1</clus>
<clus scale="   99.273">  7  8 -1 -1</clus>
<clus scale="   94.647">  2  5  1 -1</clus>
</clustering>
</event>
<event>
 9    1  0.1748361E-005  0.1634113E+03  0.7546771E-02  0.1184988E+00
          1   -1    0    0  502    0  0.00000000000E+00  0.00000000000E+00  0.10482014647E+04  0.10482014647E+04  0.00000000000E+00 0. -1.
         -1   -1    0    0    0  501 -0.00000000000E+00 -0.00000000000E+00 -0.11235590603E+03  0.11235590603E+03  0.00000000000E+00 0.  1.
         23    2    1    2    0    0 -0.11301924829E+03 -0.44065507583E+02  0.19285191657E+03  0.24517590574E+03  0.90577279647E+02 0.  0.
         23    2    1    2    0    0  0.13328111627E+03  0.43781210080E+02  0.81941413044E+03  0.83632000062E+03  0.91164554312E+02 0.  0.
        -11    1    4    4    0    0  0.27779353300E+02 -0.20089368583E+02  0.85520673214E+02  0.92136099042E+02  0.00000000000E+00 0.  1.
         11    1    4    4    0    0  0.10550176297E+03  0.63870578662E+02  0.73389345723E+03  0.74418390158E+03  0.00000000000E+00 0. -1.
        -13    1    3    3    0    0 -0.50423063326E+01 -0.36669334879E+02  0.22395455729E+02  0.43262240013E+02  0.00000000000E+00 0. -1.
         13    1    3    3    0    0 -0.10797694195E+03 -0.73961727038E+01  0.17045646084E+03  0.20191366572E+03  0.00000000000E+00 0.  1.
         21    1    1    2  502  501 -0.20261867979E+02  0.28429750360E+00 -0.76420488310E+02  0.79061464397E+02  0.00000000000E+00 0.  1.
<scales pt_clust_5="13000.00000" pt_clust_6="13000.00000" pt_clust_7="13000.00000" pt_clust_8="13000.00000" pt_clust_9="20.26386"></scales>
<clustering>
<clus scale="   20.264">  2  9  1 -1</clus>
<clus scale="   90.577">  7  8 -1 -1</clus>
<clus scale="   91.165">  5  6 -1 -1</clus>
<clus scale="  163.084">  2  7  1 -1</clus>
<clus scale="  163.411">  1  5  2 -1</clus>
</clustering>
</event>
<event>
 9    1  0.1748361E-005  0.1108935E+03  0.7546771E-02  0.1262189E+00
         -3   -1    0    0    0  501 -0.00000000000E+00  0.00000000000E+00  0.15470092507E+03  0.15470092507E+03  0.00000000000E+00 0.  1.
          3   -1    0    0  502    0  0.00000000000E+00 -0.00000000000E+00 -0.21317410980E+03  0.21317410980E+03  0.00000000000E+00 0. -1.
         23    2    1    2    0    0  0.70228857097E+02  0.27708414503E+02  0.77314386716E+02  0.14068260043E+03  0.90079026782E+02 0.  0.
         23    2    1    2    0    0 -0.35006779662E+02 -0.54649920660E+02 -0.14820858338E+03  0.18114114750E+03  0.81450860516E+02 0.  0.
        -11    1    4    4    0    0 -0.56730807151E+02 -0.19404792824E+02 -0.66479478600E+02  0.89523469211E+02  0.00000000000E+00 0. -1.
         11    1    4    4    0    0  0.21724027490E+02 -0.35245127836E+02 -0.81729104778E+02  0.91617678285E+02  0.00000000000E+00 0.  1.
        -13    1    3    3    0    0  0.43584211809E+02 -0.12813769773E+01  0.89424010120E+02  0.99488084874E+02  0.00000000000E+00 0.  1.
         13    1    3    3    0    0  0.26644645288E+02  0.28989791480E+02 -0.12109623404E+02  0.41194515552E+02  0.00000000000E+00 0. -1.
         21    1    1    2  502  501 -0.35222077435E+02  0.26941506157E+02  0.12421011933E+02  0.46051286956E+02  0.00000000000E+00 0. -1.
<scales pt_clust_5="13000.00000" pt_clust_6="13000.00000" pt_clust_7="13000.00000" pt_clust_8="13000.00000" pt_clust_9="44.34455"></scales>
<clustering>
<clus scale="   44.345">  1  9  2 -1</clus>
<clus scale="   81.451">  5  6 -1 -1</clus>
<clus scale="   90.079">  7  8 -1 -1</clus>
<clus scale="  104.007">  2  5  1 -1</clus>
<clus scale="  104.007">  2  5  1 -1</clus>
</clustering>
</event>
<event>
 9    1  0.1748361E-005  0.1155883E+03  0.7546771E-02  0.1251846E+00
          2   -1    0    0  502    0  0.00000000000E+00  0.00000000000E+00  0.17711131021E+03  0.17711131021E+03  0.00000000000E+00 0. -1.
         -2   -1    0    0    0  501 -0.00000000000E+00 -0.00000000000E+00 -0.88867870056E+02  0.88867870056E+02  0.00000000000E+00 0.  1.
         23    2    1    2    0    0  0.24748145146E+02  0.48209665393E+02  0.29087976547E+02  0.11175062138E+03  0.93302992844E+02 0.  0.
         23    2    1    2    0    0 -0.42320079386E+02 -0.57761316792E+02  0.59287804625E+02  0.13422794810E+03  0.96823238109E+02 0.  0.
        -11    1    4    4    0    0  0.29190195295E+01  0.24070242162E+02  0.14677600476E+01  0.24290976767E+02  0.00000000000E+00 0.  1.
         11    1    4    4    0    0 -0.45239098915E+02 -0.81831558954E+02  0.57820044577E+02  0.10993697134E+03  0.00000000000E+00 0. -1.
        -11    1    3    3    0    0 -0.25269448019E+02 -0.10454568033E+02  0.20507947701E+02  0.34182143216E+02  0.00000000000E+00 0. -1.
         11    1    3    3    0    0  0.50017593165E+02  0.58664233426E+02  0.85800288461E+01  0.77568478163E+02  0.00000000000E+00 0.  1.
         21    1    1    2  502  501  0.17571934240E+02  0.95516513990E+01 -0.13234102191E+00  0.20000610779E+02  0.00000000000E+00 0.  1.
<scales pt_clust_5="13000.00000" pt_clust_6="13000.00000" pt_clust_7="13000.00000" pt_clust_8="13000.00000" pt_clust_9="20.00017"></scales>
<clustering>
<clus scale="   20.000">  2  9  1 -1</clus>
<clus scale="   93.303">  7  8 -1 -1</clus>
<clus scale="   96.823">  5  6 -1 -1</clus>
<clus scale="  112.656">  2  7  1 -1</clus>
<clus scale="  115.588">  1  5  2 -1</clus>
</clustering>
</event>
<event>
 9    1  0.1748361E-005  0.1021751E+03  0.7546771E-02  0.1279027E+00
         -1   -1    0    0    0  501 -0.00000000000E+00  0.00000000000E+00  0.10632488640E+03  0.10632488640E+03  0.00000000000E+00 0.  1.
          1   -1    0    0  502    0  0.00000000000E+00 -0.00000000000E+00 -0.50534698781E+03  0.50534698781E+03  0.00000000000E+00 0. -1.
         23    2    1    2    0    0  0.19561583094E+01 -0.30649200952E+02  0.52292788762E+02  0.11367924701E+03  0.96152146983E+02 0.  0.
         23    2    1    2    0    0 -0.44837408985E+02  0.79504534721E+02 -0.38254291250E+03  0.40336054908E+03  0.89606296462E+02 0.  0.
        -11    1    4    4    0    0 -0.16267276071E+02  0.93954452671E+02 -0.26949855409E+03  0.28586978522E+03  0.00000000000E+00 0.  1.
         11    1    4    4    0    0 -0.28570132914E+02 -0.14449917949E+02 -0.11304435841E+03  0.11749076386E+03  0.00000000000E+00 0. -1.
        -13    1    3    3    0    0  0.88032403560E+01  0.33430947076E+02  0.80098812742E+01  0.35486384166E+02  0.00000000000E+00 0.  1.
         13    1    3    3    0    0 -0.68470820466E+01 -0.64080148028E+02  0.44282907488E+02  0.78192862842E+02  0.00000000000E+00 0. -1.
         21    1    1    2  502  501  0.42881250676E+02 -0.48855333770E+02 -0.68771977675E+02  0.94632078127E+02  0.00000000000E+00 0. -1.
<scales pt_clust_5="13000.00000" pt_clust_6="13000.00000" pt_clust_7="13000.00000" pt_clust_8="13000.00000" pt_clust_9="65.00496"></scales>
<clustering>
<clus scale="   65.005">  2  9  1 -1</clus>
<clus scale="   89.606">  5  6 -1 -1</clus>
<clus scale="   96.041">  2  5  1 -1</clus>
<clus scale="   96.152">  7  8 -1 -1</clus>
<clus scale="   65.005">  2  5  1 -1</clus>
</clustering>
</event>
<event>
 9    1  0.1748361E-005  0.1332837E+03  0.7546771E-02  0.1223074E+00
          1   -1    0    0  502    0  0.00000000000E+00  0.00000000000E+00  0.38855796879E+03  0.38855796879E+03  0.00000000000E+00 0. -1.
         -1   -1    0    0    0  501 -0.00000000000E+00 -0.00000000000E+00 -0.11770177177E+03  0.11770177177E+03  0.00000000000E+00 0.  1.
         23    2    1    2    0    0  0.36912648192E+02 -0.19750535984E+02 -0.39195866097E+02  0.10915935218E+03  0.92880681423E+02 0.  0.
         23    2    1    2    0    0 -0.81030956549E+02  0.67258746283E+02  0.29973366039E+03  0.33145037229E+03  0.94495117573E+02 0.  0.
        -13    1    3    3    0    0  0.43367287246E+01 -0.41426267724E+02  0.13264583728E+02  0.43713751327E+02  0.00000000000E+00 0.  1.
         13    1    3    3    0    0  0.32575919467E+02  0.21675731740E+02 -0.52460449825E+02  0.65445600856E+02  0.00000000000E+00 0. -1.
        -13    1    4    4    0    0  0.47989181197E+01  0.47431236484E+02  0.15351016634E+03  0.16074241189E+03  0.00000000000E+00 0.  1.
         13    1    4    4    0    0 -0.85829874668E+02  0.19827509798E+02  0.14622349405E+03  0.17070796040E+03  0.00000000000E+00 0. -1.
         21    1    1    2  502  501  0.44118308357E+02 -0.47508210299E+02  0.10318402728E+02  0.65650016092E+02  0.00000000000E+00 0.  1.
<scales pt_clust_5="13000.00000" pt_clust_6="13000.00000" pt_clust_7="13000.00000" pt_clust_8="13000.00000" pt_clust_9="64.83406"></scales>
<clustering>
<clus scale="   64.834">  2  9  1 -1</clus>
<clus scale="   92.881">  5  6 -1 -1</clus>
<clus scale="   94.495">  7  8 -1 -1</clus>
<clus scale="  132.144">  2  5  1 -1</clus>
<clus scale="  133.284">  1  5  2 -1</clus>
</clustering>
</event>
<event>
 9    1  0.1748361E-005  0.1867239E+03  0.7546771E-02  0.1161900E+00
          2   -1    0    0  502    0  0.00000000000E+00  0.00000000000E+00  0.27861607800E+03  0.27861607800E+03  0.00000000000E+00 0. -1.
         -2   -1    0    0    0  501 -0.00000000000E+00 -0.00000000000E+00 -0.34498329351E+03  0.34498329351E+03  0.00000000000E+00 0.  1.
         23    2    1    2    0    0 -0.14377013458E+03 -0.46478594258E+01 -0.14424690592E+03  0.22400660724E+03  0.93168320924E+02 0.  0.
         23    2    1    2    0    0  0.16395564638E+03  0.23327085279E+02  0.19991301435E+03  0.27449879752E+03  0.89211936671E+02 0.  0.
        -11    1    3    3    0    0 -0.13210017353E+03 -0.27711125473E+02 -0.14506373426E+03  0.19814603029E+03  0.00000000000E+00 0.  1.
         11    1    3    3    0    0 -0.11669961048E+02  0.23063266047E+02  0.81682833651E+00  0.25860576949E+02  0.00000000000E+00 0. -1.
        -13    1    4    4    0    0  0.13139164829E+02 -0.24019710637E+02  0.14961609398E+02  0.31199902360E+02  0.00000000000E+00 0.  1.
         13    1    4    4    0    0  0.15081648155E+03  0.47346795916E+02  0.18495140495E+03  0.24329889516E+03  0.00000000000E+00 0. -1.
         21    1    1    2  502  501 -0.20185511803E+02 -0.18679225853E+02 -0.12203332395E+03  0.12509396676E+03  0.00000000000E+00 0.  1.
<scales pt_clust_5="13000.00000" pt_clust_6="13000.00000" pt_clust_7="13000.00000" pt_clust_8="13000.00000" pt_clust_9="27.50215"></scales>
<clustering>
<clus scale="   27.502">  2  9  1 -1</clus>
<clus scale="   89.212">  7  8 -1 -1</clus>
<clus scale="   93.168">  5  6 -1 -1</clus>
<clus scale="  184.782">  1  7  2 -1</clus>
<clus scale="  184.782">  1  5  2 -1</clus>
</clustering>
</event>
<event>
 9    1  0.1748361E-005  0.9739371E+02  0.7546771E-02  0.1290354E+00
          2   -1    0    0  502    0  0.00000000000E+00  0.00000000000E+00  0.69322162707E+03  0.69322162707E+03  0.00000000000E+00 0. -1.
         -2   -1    0    0    0  501 -0.00000000000E+00 -0.00000000000E+00 -0.30365098959E+02  0.30365098959E+02  0.00000000000E+00 0.  1.
         23    2    1    2    0    0  0.21618487261E+02 -0.30052042747E+02  0.22701366423E+03  0.24624071281E+03  0.87913597537E+02 0.  0.
         23    2    1    2    0    0 -0.12913878268E+02 -0.86884914111E+01  0.42530868616E+03  0.43626599247E+03  0.95907661488E+02 0.  0.
        -11    1    3    3    0    0  0.22582083439E+02 -0.55959200089E+02  0.10154663099E+03  0.11812324425E+03  0.00000000000E+00 0. -1.
         11    1    3    3    0    0 -0.96359617799E+00  0.25907157342E+02  0.12546703324E+03  0.12811746856E+03  0.00000000000E+00 0.  1.
        -13    1    4    4    0    0  0.40446049601E+02 -0.42385534571E+00  0.23456506790E+03  0.23802695995E+03  0.00000000000E+00 0. -1.
         13    1    4    4    0    0 -0.53359927869E+02 -0.82646360654E+01  0.19074361826E+03  0.19823903253E+03  0.00000000000E+00 0.  1.
         21    1    1    2  502  501 -0.87046089938E+01  0.38740534158E+02  0.10534177724E+02  0.41080020751E+02  0.00000000000E+00 0.  1.
<scales pt_clust_5="13000.00000" pt_clust_6="13000.00000" pt_clust_7="13000.00000" pt_clust_8="13000.00000" pt_clust_9="39.70641"></scales>
<clustering>
<clus scale="   39.706">  2  9  1 -1</clus>
<clus scale="   87.914">  5  6 -1 -1</clus>
<clus scale="   89.532">  2  5  1 -1</clus>
<clus scale="   95.908">  7  8 -1 -1</clus>
<clus scale="   97.394">  1  5  2 -1</clus>
</clustering>
</event>
<event>
 9    1  0.1748361E-005  0.1257669E+03  0.7546771E-02  0.1235347E+00
         -2   -1    0    0    0  501 -0.00000000000E+00  0.00000000000E+00  0.60185508254E+03  0.60185508254E+03  0.00000000000E+00 0.  1.
          2   -1    0    0  502    0  0.00000000000E+00 -0.00000000000E+00 -0.55407203051E+02  0.55407203051E+02  0.00000000000E+00 0. -1.
         23    2    1    2    0    0  0.82283875562E+02  0.43772098187E+02  0.26041740312E+03  0.29248119595E+03  0.95086241801E+02 0.  0.
         23    2    1    2    0    0 -0.51376308905E+02 -0.61664084320E+02  0.57822673700E+02  0.13379580430E+03  0.90088130420E+02 0.  0.
        -11    1    4    4    0    0 -0.19821337218E+02  0.16751565115E+02 -0.74504239156E+01  0.27000169619E+02  0.00000000000E+00 0. -1.
         11    1    4    4    0    0 -0.31554971688E+02 -0.78415649435E+02  0.65273097616E+02  0.10679563468E+03  0.00000000000E+00 0.  1.
        -13    1    3    3    0    0  0.10614283984E+02 -0.20841502721E+02  0.11901240344E+03  0.12128884298E+03  0.00000000000E+00 0.  1.
         13    1    3    3    0    0  0.71669591578E+02  0.64613600908E+02  0.14140499968E+03  0.17119235296E+03  0.00000000000E+00 0. -1.
         21    1    1    2  502  501 -0.30907566656E+02  0.17891986133E+02  0.22820780267E+03  0.23098528534E+03  0.00000000000E+00 0. -1.
<scales pt_clust_5="13000.00000" pt_clust_6="13000.00000" pt_clust_7="13000.00000" pt_clust_8="13000.00000" pt_clust_9="35.71275"></scales>
<clustering>
<clus scale="   35.713">  1  9  2 -1</clus>
<clus scale="   90.088">  5  6 -1 -1</clus>
<clus scale="   95.086">  7  8 -1 -1</clus>
<clus scale="  122.032">  2  5  1 -1</clus>
<clus scale="  122.032">  2  5  1 -1</clus>
</clustering>
</event>
<event>
 9    1  0.1748361E-005  0.9807660E+02  0.7546771E-02  0.1285802E+00
         -1   -1    0    0    0  501 -0.00000000000E+00  0.00000000000E+00  0.53464030080E+02  0.53464030080E+02  0.00000000000E+00 0.  1.
          1   -1    0    0  502    0  0.00000000000E+00 -0.00000000000E+00 -0.38833755985E+03  0.38833755985E+03  0.00000000000E+00 0. -1.
         23    2    1    2    0    0  0.27419764456E+02  0.48785527408E+02 -0.36702927681E+02  0.11345584075E+03  0.91614691685E+02 0.  0.
         23    2    1    2    0    0 -0.28236302598E+02 -0.14930359405E+02 -0.26338626727E+03  0.27979897706E+03  0.88853460017E+02 0.  0.
        -11    1    4    4    0    0 -0.50373754933E+02 -0.30793664547E+01 -0.24077950623E+03  0.24601172392E+03  0.00000000000E+00 0. -1.
         11    1    4    4    0    0  0.22137452335E+02 -0.11850992950E+02 -0.22606761039E+02  0.33787253135E+02  0.00000000000E+00 0.  1.
        -13    1    3    3    0    0 -0.11389926525E+02  0.31545579677E+02  0.22653266864E+02  0.40472515650E+02  0.00000000000E+00 0. -1.
         13    1    3    3    0    0  0.38809690981E+02  0.17239947731E+02 -0.59356194544E+02  0.72983325100E+02  0.00000000000E+00 0.  1.
         21    1    1    2  502  501  0.81653814152E+00 -0.33855168003E+02 -0.34784334815E+02  0.48546772123E+02  0.00000000000E+00 0.  1.
<scales pt_clust_5="13000.00000" pt_clust_6="13000.00000" pt_clust_7="13000.00000" pt_clust_8="13000.00000" pt_clust_9="33.86501"></scales>
<clustering>
<clus scale="   33.865">  1  9  2 -1</clus>
<clus scale="   88.853">  5  6 -1 -1</clus>
<clus scale="   91.615">  7  8 -1 -1</clus>
<clus scale="   95.502">  2  5  1 -1</clus>
<clus scale="   95.502">  2  5  1 -1</clus>
</clustering>
</event>
<event>
 9    1  0.1748361E-005  0.3380872E+03  0.7546771E-02  0.1067649E+00
         -2   -1    0    0    0  501 -0.00000000000E+00  0.00000000000E+00  0.16193539376E+03  0.16193539376E+03  0.00000000000E+00 0.  1.
          2   -1    0    0  502    0  0.00000000000E+00 -0.00000000000E+00 -0.11025151421E+04  0.11025151421E+04  0.00000000000E+00 0. -1.
         23    2    1    2    0    0 -0.20783224762E+03 -0.20898851456E+03 -0.95753347076E+02  0.32289944009E+03  0.90691248551E+02 0.  0.
         23    2    1    2    0    0  0.24013676558E+03  0.23326277242E+03 -0.82789578093E+03  0.89773936929E+03  0.91909541924E+02 0.  0.
        -11    1    3    3    0    0 -0.78733019468E+02 -0.23558311816E+02 -0.31310150776E+02  0.87944345764E+02  0.00000000000E+00 0. -1.
         11    1    3    3    0    0 -0.12909922815E+03 -0.18543020275E+03 -0.64443196300E+02  0.23495509432E+03  0.00000000000E+00 0.  1.
        -11    1    4    4    0    0  0.25601178813E+02 -0.61131030303E-01 -0.31535939017E+02  0.40619447846E+02  0.00000000000E+00 0.  1.
         11    1    4    4    0    0  0.21453558677E+03  0.23332390345E+03 -0.79635984192E+03  0.85711992144E+03  0.00000000000E+00 0. -1.
         21    1    1    2  502  501 -0.32304517964E+02 -0.24274257862E+02 -0.16930620380E+02  0.43811726536E+02  0.00000000000E+00 0.  1.
<scales pt_clust_5="13000.00000" pt_clust_6="13000.00000" pt_clust_7="13000.00000" pt_clust_8="13000.00000" pt_clust_9="40.40819"></scales>
<clustering>
<clus scale="   40.408">  1  9  2 -1</clus>
<clus scale="   90.691">  5  6 -1 -1</clus>
<clus scale="   91.910">  7  8 -1 -1</clus>
<clus scale="  337.758">  1  5  2 -1</clus>
<clus scale="  338.087">  2  5  1 -1</clus>
</clustering>
</event>
<event>
 9    1  0.1748361E-005  0.1044621E+03  0.7546771E-02  0.1271372E+00
         -2   -1    0    0    0  501 -0.00000000000E+00  0.00000000000E+00  0.21925318878E+02  0.21925318878E+02  0.00000000000E+00 0.  1.
          2   -1    0    0  502    0  0.00000000000E+00 -0.00000000000E+00 -0.88903104738E+03  0.88903104738E+03  0.00000000000E+00 0. -1.
         23    2    1    2    0    0  0.35886986496E+02  0.40226121964E+02 -0.38727082013E+03  0.40144168814E+03  0.90943521813E+02 0.  0.
         23    2    1    2    0    0 -0.56966141128E+02 -0.34834898632E+01 -0.43445273178E+03  0.44743494128E+03  0.90507317912E+02 0.  0.
        -13    1    4    4    0    0  0.72722354224E+01 -0.34781195789E+02 -0.14158458350E+03  0.14597537899E+03  0.00000000000E+00 0.  1.
         13    1    4    4    0    0 -0.64238376550E+02  0.31297705926E+02 -0.29286814828E+03  0.30145956229E+03  0.00000000000E+00 0. -1.
        -13    1    3    3    0    0  0.33302986902E+02 -0.13821773332E+02 -0.62177916071E+02  0.71876446779E+02  0.00000000000E+00 0.  1.
         13    1    3    3    0    0  0.25839995941E+01  0.54047895296E+02 -0.32509290406E+03  0.32956524136E+03  0.00000000000E+00 0. -1.
         21    1    1    2  502  501  0.21079154631E+02 -0.36742632101E+02 -0.45382176591E+02  0.62079736838E+02  0.00000000000E+00 0.  1.
<scales pt_clust_5="13000.00000" pt_clust_6="13000.00000" pt_clust_7="13000.00000" pt_clust_8="13000.00000" pt_clust_9="42.35979"></scales>
<clustering>
<clus scale="   42.360">  1  9  2 -1</clus>
<clus scale="   90.507">  5  6 -1 -1</clus>
<clus scale="   90.944">  7  8 -1 -1</clus>
<clus scale="  104.083">  2  5  1 -1</clus>
<clus scale="  104.083">  2  5  1 -1</clus>
</clustering>
</event>
<event>
 9    1  0.1748361E-005  0.9181042E+02  0.7546771E-02  0.1302085E+00
          2   -1    0    0  502    0  0.00000000000E+00  0.00000000000E+00  0.37474134242E+03  0.37474134242E+03  0.00000000000E+00 0. -1.
         -2   -1    0    0    0  501 -0.00000000000E+00 -0.00000000000E+00 -0.40378644475E+02  0.40378644475E+02  0.00000000000E+00 0.  1.
         23    2    1    2    0    0  0.26027865659E+01  0.18941873291E+02  0.70456280159E+02  0.11086760482E+03  0.83438416347E+02 0.  0.
         23    2    1    2    0    0  0.29889517856E+02  0.44309201696E+00  0.24381186332E+03  0.26141177230E+03  0.89433273433E+02 0.  0.
        -13    1    3    3    0    0  0.33014899083E+02  0.37326262369E+02  0.45115792032E+02  0.67221039226E+02  0.00000000000E+00 0. -1.
         13    1    3    3    0    0 -0.30412112517E+02 -0.18384389078E+02  0.25340488127E+02  0.43646565592E+02  0.00000000000E+00 0.  1.
        -13    1    4    4    0    0  0.21933745469E+02  0.43482079937E+02  0.15373418294E+03  0.16126369545E+03  0.00000000000E+00 0.  1.
         13    1    4    4    0    0  0.79557723866E+01 -0.43038987920E+02  0.90077680372E+02  0.10014807685E+03  0.00000000000E+00 0. -1.
         21    1    1    2  502  501 -0.32492304421E+02 -0.19384965308E+02  0.20094554474E+02  0.42840609778E+02  0.00000000000E+00 0. -1.
<scales pt_clust_5="13000.00000" pt_clust_6="13000.00000" pt_clust_7="13000.00000" pt_clust_8="13000.00000" pt_clust_9="37.83552"></scales>
<clustering>
<clus scale="   37.836">  2  9  1 -1</clus>
<clus scale="   83.438">  5  6 -1 -1</clus>
<clus scale="   85.981">  2  5  1 -1</clus>
<clus scale="   89.433">  7  8 -1 -1</clus>
<clus scale="   91.810">  1  5  2 -1</clus>
</clustering>
</event>
<event>
 9    1  0.1748361E-005  0.1354319E+03  0.7546771E-02  0.1219851E+00
          2   -1    0    0  502    0  0.00000000000E+00  0.00000000000E+00  0.11251135969E+03  0.11251135969E+03  0.00000000000E+00 0. -1.
         -2   -1    0    0    0  501 -0.00000000000E+00 -0.00000000000E+00 -0.28355521616E+03  0.28355521616E+03  0.00000000000E+00 0.  1.
         23    2    1    2    0    0  0.44346411464E+02 -0.78865526121E+02 -0.10726577181E+03  0.16866169130E+03  0.93565190588E+02 0.  0.
         23    2    1    2    0    0 -0.66570512474E+02  0.76821826554E+02  0.21583391733E+02  0.13917411312E+03  0.92576264766E+02 0.  0.
        -11    1    4    4    0    0 -0.67005917741E+02  0.51568264798E+02  0.52289680309E+02  0.99414735394E+02  0.00000000000E+00 0. -1.
         11    1    4    4    0    0  0.43540526710E+00  0.25253561756E+02 -0.30706288576E+02  0.39759377727E+02  0.00000000000E+00 0.  1.
        -11    1    3    3    0    0 -0.18790097947E+02 -0.58584498366E+02 -0.67531249695E+02  0.91354698374E+02  0.00000000000E+00 0. -1.
         11    1    3    3    0    0  0.63136509411E+02 -0.20281027754E+02 -0.39734522117E+02  0.77306992926E+02  0.00000000000E+00 0.  1.
         21    1    1    2  502  501  0.22224101010E+02  0.20436995664E+01 -0.85361476401E+02  0.88230771429E+02  0.00000000000E+00 0. -1.
<scales pt_clust_5="13000.00000" pt_clust_6="13000.00000" pt_clust_7="13000.00000" pt_clust_8="13000.00000" pt_clust_9="22.31787"></scales>
<clustering>
<clus scale="   22.318">  2  9  1 -1</clus>
<clus scale="   92.576">  5  6 -1 -1</clus>
<clus scale="   93.565">  7  8 -1 -1</clus>
<clus scale="  134.751">  1  5  2 -1</clus>
<clus scale="  134.751">  1  5  2 -1</clus>
</clustering>
</event>
<event>
 9    1  0.1748361E-005  0.1111532E+03  0.7546771E-02  0.1258837E+00
         -2   -1    0    0    0  501 -0.00000000000E+00  0.00000000000E+00  0.22440707031E+03  0.22440707031E+03  0.00000000000E+00 0.  1.
          2   -1    0    0  502    0  0.00000000000E+00 -0.00000000000E+00 -0.15385775126E+03  0.15385775126E+03  0.00000000000E+00 0. -1.
         23    2    1    2    0    0  0.39213717627E+02  0.70626934959E+01  0.21936778286E+02  0.10270197442E+03  0.92080812430E+02 0.  0.
         23    2    1    2    0    0 -0.62305956850E+02 -0.41648668153E+02 -0.78600407249E+02  0.14172497771E+03  0.91056583895E+02 0.  0.
        -11    1    4    4    0    0 -0.18008281146E+02  0.24394939833E+02 -0.59181717038E+00  0.30327570408E+02  0.00000000000E+00 0.  1.
         11    1    4    4    0    0 -0.44297675704E+02 -0.66043607986E+02 -0.78008590079E+02  0.11139740731E+03  0.00000000000E+00 0. -1.
        -13    1    3    3    0    0  0.57511832002E+02 -0.11652455588E+02  0.39896683803E+02  0.70958691645E+02  0.00000000000E+00 0.  1.
         13    1    3    3    0    0 -0.18298114375E+02  0.18715149084E+02 -0.17959905517E+02  0.31743282771E+02  0.00000000000E+00 0. -1.
         21    1    1    2  502  501  0.23092239223E+02  0.34585974657E+02  0.12721294801E+03  0.13383786944E+03  0.00000000000E+00 0.  1.
<scales pt_clust_5="13000.00000" pt_clust_6="13000.00000" pt_clust_7="13000.00000" pt_clust_8="13000.00000" pt_clust_9="41.58655"></scales>
<clustering>
<clus scale="   41.587">  1  9  2 -1</clus>
<clus scale="   91.057">  5  6 -1 -1</clus>
<clus scale="   92.081">  7  8 -1 -1</clus>
<clus scale="  110.306">  2  5  1 -1</clus>
<clus scale="  110.306">  2  5  1 -1</clus>
</clustering>
</event>
<event>
 9    1  0.1748361E-005  0.1172494E+03  0.7546771E-02  0.1249052E+00
          1   -1    0    0  502    0  0.00000000000E+00  0.00000000000E+00  0.18345663002E+03  0.18345663002E+03  0.00000000000E+00 0. -1.
         -1   -1    0    0    0  501 -0.00000000000E+00 -0.00000000000E+00 -0.18241915338E+03  0.18241915338E+03  0.00000000000E+00 0.  1.
         23    2    1    2    0    0  0.64489101896E+02 -0.53228631348E+02  0.61160695412E+02  0.13864120086E+03  0.92133709657E+02 0.  0.
         23    2    1    2    0    0 -0.44307376456E+02  0.44108046228E+02  0.47011651475E+02  0.11783454810E+03  0.88126170916E+02 0.  0.
        -11    1    3    3    0    0  0.83874262432E+02 -0.22267831457E+02  0.51283621400E+02  0.10080058552E+03  0.00000000000E+00 0. -1.
         11    1    3    3    0    0 -0.19385160537E+02 -0.30960799891E+02  0.98770740120E+01  0.37840615348E+02  0.00000000000E+00 0.  1.
        -11    1    4    4    0    0  0.13761084162E+02 -0.17374380447E+02  0.26091000669E+01  0.22316898001E+02  0.00000000000E+00 0. -1.
         11    1    4    4    0    0 -0.58068460618E+02  0.61482426675E+02  0.44402551408E+02  0.95517650096E+02  0.00000000000E+00 0.  1.
         21    1    1    2  502  501 -0.20181725440E+02  0.91205851200E+01 -0.10713487024E+03  0.10940003444E+03  0.00000000000E+00 0.  1.
<scales pt_clust_5="13000.00000" pt_clust_6="13000.00000" pt_clust_7="13000.00000" pt_clust_8="13000.00000" pt_clust_9="22.14694"></scales>
<clustering>
<clus scale="   22.147">  2  9  1 -1</clus>
<clus scale="   88.126">  7  8 -1 -1</clus>
<clus scale="   92.134">  5  6 -1 -1</clus>
<clus scale="  114.127">  1  7  2 -1</clus>
<clus scale="  114.127">  1  5  2 -1</clus>
</clustering>
</event>
<event>
 9    1  0.1748361E-005  0.1441884E+03  0.7546771E-02  0.1208697E+00
         -1   -1    0    0    0  501 -0.00000000000E+00  0.00000000000E+00  0.21876963312E+03  0.21876963312E+03  0.00000000000E+00 0.  1.
          1   -1    0    0  502    0  0.00000000000E+00 -0.00000000000E+00 -0.12693037117E+03  0.12693037117E+03  0.00000000000E+00 0. -1.
         23    2    1    2    0    0 -0.71400594363E+02  0.60529595154E+02  0.57791392188E+02  0.14033533861E+03  0.87133721873E+02 0.  0.
         23    2    1    2    0    0  0.10162288208E+03 -0.73050897065E+02 -0.41199171559E+01  0.15509589173E+03  0.91510208126E+02 0.  0.
        -11    1    4    4    0    0  0.12160855861E+02 -0.21293589698E+02  0.36561051403E+02  0.44022878793E+02  0.00000000000E+00 0.  1.
         11    1    4    4    0    0  0.89462026216E+02 -0.51757307367E+02 -0.40680968559E+02  0.11107301294E+03  0.00000000000E+00 0. -1.
        -11    1    3    3    0    0 -0.54613778580E+02 -0.77189589251E+01  0.39100075691E+02  0.67609637307E+02  0.00000000000E+00 0.  1.
         11    1    3    3    0    0 -0.16786815783E+02  0.68248554079E+02  0.18691316497E+02  0.72725701306E+02  0.00000000000E+00 0. -1.
         21    1    1    2  502  501 -0.30222287714E+02  0.12521301911E+02  0.38167786919E+02  0.50268773951E+02  0.00000000000E+00 0. -1.
<scales pt_clust_5="13000.00000" pt_clust_6="13000.00000" pt_clust_7="13000.00000" pt_clust_8="13000.00000" pt_clust_9="32.71345"></scales>
<clustering>
<clus scale="   32.713">  1  9  2 -1</clus>
<clus scale="   87.134">  7  8 -1 -1</clus>
<clus scale="   91.510">  5  6 -1 -1</clus>
<clus scale="  141.451">  1  7  2 -1</clus>
<clus scale="  144.188">  2  5  1 -1</clus>
</clustering>
</event>
<event>
 9    1  0.1748361E-005  0.9518595E+02  0.7546771E-02  0.1290877E+00
         -3   -1    0    0    0  501 -0.00000000000E+00  0.00000000000E+00  0.18275978097E+02  0.18275978097E+02  0.00000000000E+00 0.  1.
          3   -1    0    0  502    0  0.00000000000E+00 -0.00000000000E+00 -0.65869923963E+03  0.65869923963E+03  0.00000000000E+00 0. -1.
         23    2    1    2    0    0  0.29217726462E+02 -0.12005862051E+02 -0.23741317456E+03  0.25688435603E+03  0.92880249021E+02 0.  0.
         23    2    1    2    0    0 -0.15419275396E+02 -0.30153092931E+01 -0.36553617935E+03  0.37742557612E+03  0.92663482304E+02 0.  0.
        -13    1    4    4    0    0 -0.52586422354E+02 -0.50789932382E+00 -0.15659273499E+03  0.16518739186E+03  0.00000000000E+00 0.  1.
         13    1    4    4    0    0  0.37167146957E+02 -0.25074099693E+01 -0.20894344436E+03  0.21223818426E+03  0.00000000000E+00 0. -1.
        -13    1    3    3    0    0  0.54722216407E+02 -0.17919895765E+02 -0.21449425443E+03  0.22208878589E+03  0.00000000000E+00 0.  1.
         13    1    3    3    0    0 -0.25504489945E+02  0.59140337139E+01 -0.22918920129E+02  0.34795570149E+02  0.00000000000E+00 0. -1.
         21    1    1    2  502  501 -0.13798451065E+02  0.15021171344E+02 -0.37473907633E+02  0.42665285580E+02  0.00000000000E+00 0. -1.
<scales pt_clust_5="13000.00000" pt_clust_6="13000.00000" pt_clust_7="13000.00000" pt_clust_8="13000.00000" pt_clust_9="20.39688"></scales>
<clustering>
<clus scale="   20.397">  1  9  2 -1</clus>
<clus scale="   92.663">  5  6 -1 -1</clus>
<clus scale="   92.880">  7  8 -1 -1</clus>
<clus scale="   94.974">  2  5  1 -1</clus>
<clus scale="   94.974">  2  5  1 -1</clus>
</clustering>
</event>
<event>
 9    1  0.1748361E-005  0.2694958E+03  0.7546771E-02  0.1101610E+00
         -1   -1    0    0    0  501 -0.00000000000E+00  0.00000000000E+00  0.48640660087E+02  0.48640660087E+02  0.00000000000E+00 0.  1.
          1   -1    0    0  502    0  0.00000000000E+00 -0.00000000000E+00 -0.16279268728E+04  0.16279268728E+04  0.00000000000E+00 0. -1.
         23    2    1    2    0    0  0.23013458188E+03 -0.12691858837E+03 -0.71006420064E+03  0.76263159572E+03  0.91353860931E+02 0.  0.
         23    2    1    2    0    0 -0.20806625299E+03  0.12651364366E+03 -0.78491547082E+03  0.82678797094E+03  0.90491905109E+02 0.  0.
        -11    1    3    3    0    0  0.59517420015E+01 -0.34539150018E+02 -0.10929384528E+03  0.11477595886E+03  0.00000000000E+00 0. -1.
         11    1    3    3    0    0  0.22418283988E+03 -0.92379438349E+02 -0.60077035536E+03  0.64785563685E+03  0.00000000000E+00 0.  1.
        -13    1    4    4    0    0 -0.39880889039E+02  0.25639334357E+02 -0.63848797366E+02  0.79526911809E+02  0.00000000000E+00 0.  1.
         13    1    4    4    0    0 -0.16818536395E+03  0.10087430930E+03 -0.72106667345E+03  0.74726105913E+03  0.00000000000E+00 0. -1.
         21    1    1    2  502  501 -0.22068328893E+02  0.40494471070E+00 -0.84306541294E+02  0.87147966272E+02  0.00000000000E+00 0.  1.
<scales pt_clust_5="13000.00000" pt_clust_6="13000.00000" pt_clust_7="13000.00000" pt_clust_8="13000.00000" pt_clust_9="22.07204"></scales>
<clustering>
<clus scale="   22.072">  2  9  1 -1</clus>
<clus scale="   90.492">  7  8 -1 -1</clus>
<clus scale="   91.354">  5  6 -1 -1</clus>
<clus scale="  269.205">  2  7  1 -1</clus>
<clus scale="   22.072">  2  5  1 -1</clus>
</clustering>
</event>
<event>
 9    1  0.1748361E-005  0.1093034E+03  0.7546771E-02  0.1265046E+00
          2   -1    0    0  502    0  0.00000000000E+00  0.00000000000E+00  0.87040611560E+03  0.87040611560E+03  0.00000000000E+00 0. -1.
         -2   -1    0    0    0  501 -0.00000000000E+00 -0.00000000000E+00 -0.22189344208E+02  0.22189344208E+02  0.00000000000E+00 0.  1.
         23    2    1    2    0    0 -0.33826990679E+02  0.19347708542E+01  0.27389456214E+03  0.29342895103E+03  0.99671006301E+02 0.  0.
         23    2    1    2    0    0  0.47373242293E+02  0.21389022858E+02  0.55725063897E+03  0.56724568802E+03  0.92399575523E+02 0.  0.
        -13    1    4    4    0    0  0.40923920988E+02 -0.32151877865E+02  0.28191150160E+03  0.28667508663E+03  0.00000000000E+00 0.  1.
         13    1    4    4    0    0  0.64493213052E+01  0.53540900723E+02  0.27533913737E+03  0.28057060139E+03  0.00000000000E+00 0. -1.
        -13    1    3    3    0    0  0.22871149327E+02 -0.31895454983E+02  0.10164466583E+03  0.10895892626E+03  0.00000000000E+00 0.  1.
         13    1    3    3    0    0 -0.56698140006E+02  0.33830225837E+02  0.17224989631E+03  0.18447002477E+03  0.00000000000E+00 0. -1.
         21    1    1    2  502  501 -0.13546251614E+02 -0.23323793713E+02  0.17071570278E+02  0.31920820755E+02  0.00000000000E+00 0.  1.
<scales pt_clust_5="13000.00000" pt_clust_6="13000.00000" pt_clust_7="13000.00000" pt_clust_8="13000.00000" pt_clust_9="26.97221"></scales>
<clustering>
<clus scale="   26.972">  2  9  1 -1</clus>
<clus scale="   92.400">  5  6 -1 -1</clus>
<clus scale="   99.671">  7  8 -1 -1</clus>
<clus scale="  102.716">  1  5  2 -1</clus>
<clus scale="  102.716">  1  5  2 -1</clus>
</clustering>
</event>
<event>
 9    1  0.3151394E-005  0.1030853E+03  0.7546771E-02  0.1278533E+00
          1   -1    0    0  502    0  0.00000000000E+00  0.00000000000E+00  0.97423386144E+02  0.97423386144E+02  0.00000000000E+00 0. -1.
         -1   -1    0    0    0  501 -0.00000000000E+00 -0.00000000000E+00 -0.41977868424E+03  0.41977868424E+03  0.00000000000E+00 0.  1.
         23    2    1    2    0    0 -0.29132758046E+02  0.27848964486E+02 -0.35749283718E+03  0.37098848567E+03  0.90592745027E+02 0.  0.
         23    2    1    2    0    0  0.24917420279E+02 -0.65791163242E+01  0.55125173193E+02  0.11672322984E+03  0.99606049309E+02 0.  0.
        -11    1    3    3    0    0  0.28013944922E+02  0.30411048225E+02 -0.17047258151E+03  0.17541526162E+03  0.00000000000E+00 0. -1.
         11    1    3    3    0    0 -0.57146702968E+02 -0.25620837388E+01 -0.18702025568E+03  0.19557322405E+03  0.00000000000E+00 0.  1.
        -13    1    4    4    0    0  0.31811728286E+02 -0.45204029775E+02  0.87279155303E+01  0.55960404519E+02  0.00000000000E+00 0. -1.
         13    1    4    4    0    0 -0.68943080070E+01  0.38624913451E+02  0.46397257662E+02  0.60762825317E+02  0.00000000000E+00 0.  1.
         21    1    1    2  502  501  0.42153377667E+01 -0.21269848162E+02 -0.19987634104E+02  0.29490354871E+02  0.00000000000E+00 0.  1.
<scales pt_clust_5="13000.00000" pt_clust_6="13000.00000" pt_clust_7="13000.00000" pt_clust_8="13000.00000" pt_clust_9="21.68353"></scales>
<clustering>
<clus scale="   21.684">  2  9  1 -1</clus>
<clus scale="   90.593">  5  6 -1 -1</clus>
<clus scale="   94.405">  2  5  1 -1</clus>
<clus scale="   99.606">  7  8 -1 -1</clus>
<clus scale="  103.085">  1  5  2 -1</clus>
</clustering>
</event>
<event>
 9    1  0.1748361E-005  0.1119490E+03  0.7546771E-02  0.1265023E+00
          1   -1    0    0  502    0  0.00000000000E+00  0.00000000000E+00  0.27820433005E+03  0.27820433005E+03  0.00000000000E+00 0. -1.
         -1   -1    0    0    0  501 -0.00000000000E+00 -0.00000000000E+00 -0.56672059001E+02  0.56672059001E+02  0.00000000000E+00 0.  1.
         23    2    1    2    0    0  0.26120382421E+02 -0.12552904714E+02  0.74478753201E+02  0.12103175609E+03  0.90894177537E+02 0.  0.
         23    2    1    2    0    0 -0.32727547876E+02 -0.10691375773E+02  0.15160989826E+03  0.18925374414E+03  0.10791672953E+03 0.  0.
        -11    1    4    4    0    0 -0.58499975554E+02  0.29415333201E+02  0.83349559656E+02  0.10599366991E+03  0.00000000000E+00 0.  1.
         11    1    4    4    0    0  0.25772427678E+02 -0.40106708974E+02  0.68260338605E+02  0.83260074223E+02  0.00000000000E+00 0. -1.
        -13    1    3    3    0    0 -0.46730656400E+01 -0.35014311828E+02 -0.22096167519E+01  0.35393812756E+02  0.00000000000E+00 0.  1.
         13    1    3    3    0    0  0.30793448060E+02  0.22461407113E+02  0.76688369953E+02  0.85637943337E+02  0.00000000000E+00 0. -1.
         21    1    1    2  502  501  0.66071654551E+01  0.23244280487E+02 -0.45563804093E+01  0.24590888824E+02  0.00000000000E+00 0.  1.
<scales pt_clust_5="13000.00000" pt_clust_6="13000.00000" pt_clust_7="13000.00000" pt_clust_8="13000.00000" pt_clust_9="24.16508"></scales>
<clustering>
<clus scale="   24.165">  2  9  1 -1</clus>
<clus scale="   90.894">  7  8 -1 -1</clus>
<clus scale="   95.647">  2  7  1 -1</clus>
<clus scale="  107.917">  5  6 -1 -1</clus>
<clus scale="  111.949">  1  5  2 -1</clus>
</clustering>
</event>
<event>
 9    1  0.1748361E-005  0.9638264E+02  0.7546771E-02  0.1288479E+00
         -1   -1    0    0    0  501 -0.00000000000E+00  0.00000000000E+00  0.73725458425E+02  0.73725458425E+02  0.00000000000E+00 0.  1.
          1   -1    0    0  502    0  0.00000000000E+00 -0.00000000000E+00 -0.22651614286E+03  0.22651614286E+03  0.00000000000E+00 0. -1.
         23    2    1    2    0    0 -0.39719849966E+02 -0.31147121410E+01 -0.22495178867E+02  0.10558635116E+03  0.95158166045E+02 0.  0.
         23    2    1    2    0    0  0.43336611139E+01 -0.91987878292E+01 -0.12471418110E+03  0.15677443935E+03  0.94452101872E+02 0.  0.
        -11    1    4    4    0    0 -0.36577755159E+02 -0.70376933901E+01 -0.15894113467E+02  0.40497952338E+02  0.00000000000E+00 0.  1.
         11    1    4    4    0    0  0.40911416273E+02 -0.21610944391E+01 -0.10882006764E+03  0.11627648701E+03  0.00000000000E+00 0. -1.
        -13    1    3    3    0    0  0.20134590015E+02  0.90488543386E+01 -0.36747215089E+02  0.42867718586E+02  0.00000000000E+00 0. -1.
         13    1    3    3    0    0 -0.59854439981E+02 -0.12163566480E+02  0.14252036222E+02  0.62718632570E+02  0.00000000000E+00 0.  1.
         21    1    1    2  502  501  0.35386188852E+02  0.12313499970E+02 -0.55813244679E+01  0.37880810786E+02  0.00000000000E+00 0. -1.
<scales pt_clust_5="13000.00000" pt_clust_6="13000.00000" pt_clust_7="13000.00000" pt_clust_8="13000.00000" pt_clust_9="37.46738"></scales>
<clustering>
<clus scale="   37.467">  1  9  2 -1</clus>
<clus scale="   94.452">  5  6 -1 -1</clus>
<clus scale="   95.158">  7  8 -1 -1</clus>
<clus scale="   95.686">  2  5  1 -1</clus>
<clus scale="   95.686">  2  5  1 -1</clus>
</clustering>
</event>
<event>
 9    1  0.1748361E-005  0.1175093E+03  0.7546771E-02  0.1247282E+00
         -2   -1    0    0    0  501 -0.00000000000E+00  0.00000000000E+00  0.14570649553E+03  0.14570649553E+03  0.00000000000E+00 0.  1.
          2   -1    0    0  502    0  0.00000000000E+00 -0.00000000000E+00 -0.28393495699E+03  0.28393495699E+03  0.00000000000E+00 0. -1.
         23    2    1    2    0    0 -0.67012961689E+02 -0.34186241720E+02  0.54757065147E+02  0.13094974933E+03  0.92141546053E+02 0.  0.
         23    2    1    2    0    0  0.73527284279E+02 -0.13564019091E+02 -0.21512245072E+03  0.24565806090E+03  0.92086752207E+02 0.  0.
        -11    1    4    4    0    0  0.44558912469E+02  0.19221169214E+02 -0.33816115037E+02  0.59147947239E+02  0.00000000000E+00 0.  1.
         11    1    4    4    0    0  0.28968371810E+02 -0.32785188305E+02 -0.18130633568E+03  0.18651011366E+03  0.00000000000E+00 0. -1.
        -13    1    3    3    0    0 -0.26613110786E+02 -0.61734172400E+02  0.17475998839E+02  0.69460609291E+02  0.00000000000E+00 0.  1.
         13    1    3    3    0    0 -0.40399850903E+02  0.27547930680E+02  0.37281066308E+02  0.61489140040E+02  0.00000000000E+00 0. -1.
         21    1    1    2  502  501 -0.65143225907E+01  0.47750260810E+02  0.22136924116E+02  0.53033642300E+02  0.00000000000E+00 0.  1.
<scales pt_clust_5="13000.00000" pt_clust_6="13000.00000" pt_clust_7="13000.00000" pt_clust_8="13000.00000" pt_clust_9="48.19257"></scales>
<clustering>
<clus scale="   48.193">  1  9  2 -1</clus>
<clus scale="   92.087">  5  6 -1 -1</clus>
<clus scale="   92.142">  7  8 -1 -1</clus>
<clus scale="  117.466">  2  5  1 -1</clus>
<clus scale="  117.466">  2  5  1 -1</clus>
</clustering>
</event>
<event>
 9    1  0.1748361E-005  0.2740303E+03  0.7546771E-02  0.1099909E+00
         -2   -1    0    0    0  501 -0.00000000000E+00  0.00000000000E+00  0.18187229879E+03  0.18187229879E+03  0.00000000000E+00 0.  1.
          2   -1    0    0  502    0  0.00000000000E+00 -0.00000000000E+00 -0.64921561804E+03  0.64921561804E+03  0.00000000000E+00 0. -1.
         23    2    1    2    0    0 -0.89484851967E+02  0.24946392786E+03 -0.24251531580E+02  0.27900685869E+03  0.83766940852E+02 0.  0.
         23    2    1    2    0    0  0.10550779750E+03 -0.22793007707E+03 -0.44901686108E+03  0.52459382458E+03  0.10246230475E+03 0.  0.
        -13    1    4    4    0    0 -0.98942157436E+00 -0.33895102926E+02 -0.14358370221E+02  0.36824173485E+02  0.00000000000E+00 0.  1.
         13    1    4    4    0    0  0.10649721907E+03 -0.19403497414E+03 -0.43465849085E+03  0.48776965110E+03  0.00000000000E+00 0. -1.
        -13    1    3    3    0    0 -0.50535632050E+02  0.19976858052E+03  0.11619225730E+02  0.20638881335E+03  0.00000000000E+00 0.  1.
         13    1    3    3    0    0 -0.38949219917E+02  0.49695347334E+02 -0.35870757310E+02  0.72618045339E+02  0.00000000000E+00 0. -1.
         21    1    1    2  502  501 -0.16022945531E+02 -0.21533850790E+02  0.59250734036E+01  0.27487233549E+02  0.00000000000E+00 0.  1.
<scales pt_clust_5="13000.00000" pt_clust_6="13000.00000" pt_clust_7="13000.00000" pt_clust_8="13000.00000" pt_clust_9="26.84104"></scales>
<clustering>
<clus scale="   26.841">  1  9  2 -1</clus>
<clus scale="   83.767">  7  8 -1 -1</clus>
<clus scale="  102.462">  5  6 -1 -1</clus>
<clus scale="  267.602">  1  7  2 -1</clus>
<clus scale="  274.030">  2  5  1 -1</clus>
</clustering>
</event>
<event>
 9    1  0.1748361E-005  0.9597346E+02  0.7546771E-02  0.1290795E+00
          1   -1    0    0  502    0  0.00000000000E+00  0.00000000000E+00  0.81037353647E+02  0.81037353647E+02  0.00000000000E+00 0. -1.
         -1   -1    0    0    0  501 -0.00000000000E+00 -0.00000000000E+00 -0.27327729907E+03  0.27327729907E+03  0.00000000000E+00 0.  1.
         23    2    1    2    0    0 -0.55288642802E+01  0.19045664227E+02 -0.19964259393E+02  0.97092517181E+02  0.92925128858E+02 0.  0.
         23    2    1    2    0    0 -0.24959853327E+02 -0.24501925548E+02 -0.15557570546E+02  0.97472642862E+02  0.89641170628E+02 0.  0.
        -13    1    4    4    0    0  0.19168715910E+02 -0.31449010341E+02 -0.33062305970E+02  0.49493393470E+02  0.00000000000E+00 0.  1.
         13    1    4    4    0    0 -0.44128569237E+02  0.69470847933E+01  0.17504735424E+02  0.47979249392E+02  0.00000000000E+00 0. -1.
        -13    1    3    3    0    0 -0.27575728534E+02  0.31263004914E+02  0.22753857088E+02  0.47492465643E+02  0.00000000000E+00 0. -1.
         13    1    3    3    0    0  0.22046864254E+02 -0.12217340687E+02 -0.42718116481E+02  0.49600051538E+02  0.00000000000E+00 0.  1.
         21    1    1    2  502  501  0.30488717607E+02  0.54562613208E+01 -0.15671811548E+03  0.15974949267E+03  0.00000000000E+00 0.  1.
<scales pt_clust_5="13000.00000" pt_clust_6="13000.00000" pt_clust_7="13000.00000" pt_clust_8="13000.00000" pt_clust_9="30.97310"></scales>
<clustering>
<clus scale="   30.973">  2  9  1 -1</clus>
<clus scale="   89.641">  5  6 -1 -1</clus>
<clus scale="   92.797">  1  5  2 -1</clus>
<clus scale="   92.925">  7  8 -1 -1</clus>
<clus scale="   92.797">  1  5  2 -1</clus>
</clustering>
</event>
<event>
 9    1  0.1748361E-005  0.9030038E+02  0.7546771E-02  0.1303327E+00
         -1   -1    0    0    0  501 -0.00000000000E+00  0.00000000000E+00  0.23266889222E+03  0.23266889222E+03  0.00000000000E+00 0.  1.
          1   -1    0    0  502    0  0.00000000000E+00 -0.00000000000E+00 -0.64284286962E+02  0.64284286962E+02  0.00000000000E+00 0. -1.
         23    2    1    2    0    0  0.22324109808E+02  0.87107707281E+01  0.97126047170E+02  0.13464515923E+03  0.90119955951E+02 0.  0.
         23    2    1    2    0    0  0.16964777227E+02  0.89216696780E+01  0.14978118519E+02  0.91441896328E+02  0.88146903028E+02 0.  0.
        -11    1    3    3    0    0  0.54415707212E+02  0.17009681551E+01  0.36049622889E+02  0.65295771643E+02  0.00000000000E+00 0.  1.
         11    1    3    3    0    0 -0.32091597404E+02  0.70098025730E+01  0.61076424281E+02  0.69349387590E+02  0.00000000000E+00 0. -1.
        -11    1    4    4    0    0  0.29628907865E+02 -0.33406732304E+02 -0.41523110225E+00  0.44654835812E+02  0.00000000000E+00 0.  1.
         11    1    4    4    0    0 -0.12664130637E+02  0.42328401982E+02  0.15393349622E+02  0.46787060516E+02  0.00000000000E+00 0. -1.
         21    1    1    2  502  501 -0.39288887036E+02 -0.17632440406E+02  0.56280439573E+02  0.70866123626E+02  0.00000000000E+00 0. -1.
<scales pt_clust_5="13000.00000" pt_clust_6="13000.00000" pt_clust_7="13000.00000" pt_clust_8="13000.00000" pt_clust_9="43.06413"></scales>
<clustering>
<clus scale="   43.064">  1  9  2 -1</clus>
<clus scale="   88.147">  7  8 -1 -1</clus>
<clus scale="   88.331">  2  7  1 -1</clus>
<clus scale="   90.120">  5  6 -1 -1</clus>
<clus scale="   88.331">  2  5  1 -1</clus>
</clustering>
</event>
<event>
 9    1  0.1748361E-005  0.1591299E+03  0.7546771E-02  0.1190170E+00
         -1   -1    0    0    0  501 -0.00000000000E+00  0.00000000000E+00  0.10386627812E+03  0.10386627812E+03  0.00000000000E+00 0.  1.
          1   -1    0    0  502    0  0.00000000000E+00 -0.00000000000E+00 -0.54660308462E+03  0.54660308462E+03  0.00000000000E+00 0. -1.
         23    2    1    2    0    0  0.17144448106E+03  0.88755767361E+02 -0.26953346453E+03  0.34320278278E+03  0.88707752089E+02 0.  0.
         23    2    1    2    0    0 -0.77352046218E+02 -0.47353098324E+02 -0.15702634263E+03  0.20320283697E+03  0.91697686433E+02 0.  0.
        -13    1    4    4    0    0 -0.32315145559E+02 -0.13858365991E+02  0.13376759114E+01  0.35186820221E+02  0.00000000000E+00 0.  1.
         13    1    4    4    0    0 -0.45036900660E+02 -0.33494732333E+02 -0.15836401854E+03  0.16801601675E+03  0.00000000000E+00 0. -1.
        -13    1    3    3    0    0  0.12683012271E+03  0.17569228929E+02 -0.17304681636E+03  0.21526671476E+03  0.00000000000E+00 0. -1.
         13    1    3    3    0    0  0.44614358347E+02  0.71186538432E+02 -0.96486648168E+02  0.12793606802E+03  0.00000000000E+00 0.  1.
         21    1    1    2  502  501 -0.94092434840E+02 -0.41402669037E+02 -0.16176999346E+02  0.10406374299E+03  0.00000000000E+00 0. -1.
<scales pt_clust_5="13000.00000" pt_clust_6="13000.00000" pt_clust_7="13000.00000" pt_clust_8="13000.00000" pt_clust_9="102.79867"></scales>
<clustering>
<clus scale="   88.708">  7  8 -1 -1</clus>
<clus scale="   91.698">  5  6 -1 -1</clus>
<clus scale="  102.799">  1  9  2 -1</clus>
<clus scale="  157.426">  1  7  2 -1</clus>
<clus scale="  159.130">  2  5  1 -1</clus>
</clustering>
</event>
<event>
 9    1  0.1748361E-005  0.1265292E+03  0.7546771E-02  0.1243258E+00
         -2   -1    0    0    0  501 -0.00000000000E+00  0.00000000000E+00  0.67430474381E+02  0.67430474381E+02  0.00000000000E+00 0.  1.
          2   -1    0    0  502    0  0.00000000000E+00 -0.00000000000E+00 -0.34829497164E+03  0.34829497164E+03  0.00000000000E+00 0. -1.
         23    2    1    2    0    0  0.48746609194E+02 -0.71825530631E+01 -0.22872233251E+02  0.10141311712E+03  0.85636792876E+02 0.  0.
         23    2    1    2    0    0 -0.54651964015E+02 -0.26003669225E+02 -0.24748318953E+03  0.27900455055E+03  0.11372151135E+03 0.  0.
        -11    1    3    3    0    0  0.46692910773E+02 -0.39545237727E+02 -0.30097314885E+02  0.68190190693E+02  0.00000000000E+00 0.  1.
         11    1    3    3    0    0  0.20536984205E+01  0.32362684664E+02  0.72250816346E+01  0.33222926429E+02  0.00000000000E+00 0. -1.
        -13    1    4    4    0    0 -0.14293964145E+02 -0.54329280202E+02 -0.49180465937E+02  0.74663956016E+02  0.00000000000E+00 0.  1.
         13    1    4    4    0    0 -0.40357999870E+02  0.28325610976E+02 -0.19830272359E+03  0.20434059453E+03  0.00000000000E+00 0. -1.
         21    1    1    2  502  501  0.59053548208E+01  0.33186222289E+02 -0.10509074475E+02  0.35307778345E+02  0.00000000000E+00 0. -1.
<scales pt_clust_5="13000.00000" pt_clust_6="13000.00000" pt_clust_7="13000.00000" pt_clust_8="13000.00000" pt_clust_9="33.70754"></scales>
<clustering>
<clus scale="   33.708">  1  9  2 -1</clus>
<clus scale="   85.637">  5  6 -1 -1</clus>
<clus scale="  102.033">  1  5  2 -1</clus>
<clus scale="  113.722">  7  8 -1 -1</clus>
<clus scale="  126.529">  2  5  1 -1</clus>
</clustering>
</event>
<event>
 9    1  0.1748361E-005  0.1159834E+03  0.7546771E-02  0.1250050E+00
         -2   -1    0    0    0  501 -0.00000000000E+00  0.00000000000E+00  0.12921996574E+03  0.12921996574E+03  0.00000000000E+00 0.  1.
          2   -1    0    0  502    0  0.00000000000E+00 -0.00000000000E+00 -0.13403328445E+03  0.13403328445E+03  0.00000000000E+00 0. -1.
         23    2    1    2    0    0  0.42346475085E+02  0.72744481129E+02  0.11263116005E+02  0.12486554957E+03  0.91539959589E+02 0.  0.
         23    2    1    2    0    0 -0.34140275083E+02 -0.51487078264E+02 -0.25456332272E+02  0.11374624423E+03  0.92052732777E+02 0.  0.
        -11    1    4    4    0    0  0.23834912199E+02 -0.20238431562E+02 -0.35296842198E+02  0.47154683974E+02  0.00000000000E+00 0. -1.
         11    1    4    4    0    0 -0.57975187282E+02 -0.31248646702E+02  0.98405099257E+01  0.66591560251E+02  0.00000000000E+00 0.  1.
        -13    1    3    3    0    0  0.33333009604E+02 -0.14705011765E+02  0.25356941688E+01  0.36520633143E+02  0.00000000000E+00 0. -1.
         13    1    3    3    0    0  0.90134654809E+01  0.87449492894E+02  0.87274218364E+01  0.88344916431E+02  0.00000000000E+00 0.  1.
         21    1    1    2  502  501 -0.82062000019E+01 -0.21257402865E+02  0.93798975476E+01  0.24641456390E+02  0.00000000000E+00 0.  1.
<scales pt_clust_5="13000.00000" pt_clust_6="13000.00000" pt_clust_7="13000.00000" pt_clust_8="13000.00000" pt_clust_9="22.78638"></scales>
<clustering>
<clus scale="   22.786">  1  9  2 -1</clus>
<clus scale="   91.540">  7  8 -1 -1</clus>
<clus scale="   92.053">  5  6 -1 -1</clus>
<clus scale="  115.577">  1  7  2 -1</clus>
<clus scale="  115.983">  2  5  1 -1</clus>
</clustering>
</event>
<event>
 9    1  0.1748361E-005  0.1142165E+03  0.7546771E-02  0.1260099E+00
         -1   -1    0    0    0  501 -0.00000000000E+00  0.00000000000E+00  0.85622145909E+03  0.85622145909E+03  0.00000000000E+00 0.  1.
          1   -1    0    0  502    0  0.00000000000E+00 -0.00000000000E+00 -0.25360245679E+02  0.25360245679E+02  0.00000000000E+00 0. -1.
         23    2    1    2    0    0 -0.64083003652E+02  0.46963802479E+02  0.25802565969E+03  0.27945655461E+03  0.72156044487E+02 0.  0.
         23    2    1    2    0    0  0.72731965339E+01 -0.68526160004E+02  0.27193360019E+03  0.29514913304E+03  0.91740905977E+02 0.  0.
        -11    1    4    4    0    0 -0.28478499724E+02  0.65315480733E+01  0.99815501411E+02  0.10400394410E+03  0.00000000000E+00 0.  1.
         11    1    4    4    0    0  0.35751696258E+02 -0.75057708077E+02  0.17211809878E+03  0.19114518894E+03  0.00000000000E+00 0. -1.
        -11    1    3    3    0    0 -0.17646409511E+02 -0.19159772526E+02  0.74808822191E+02  0.79213966758E+02  0.00000000000E+00 0. -1.
         11    1    3    3    0    0 -0.46436594141E+02  0.66123575005E+02  0.18321683750E+03  0.20024258785E+03  0.00000000000E+00 0.  1.
         21    1    1    2  502  501  0.56809807118E+02  0.21562357525E+02  0.30090195353E+03  0.30697601712E+03  0.00000000000E+00 0. -1.
<scales pt_clust_5="13000.00000" pt_clust_6="13000.00000" pt_clust_7="13000.00000" pt_clust_8="13000.00000" pt_clust_9="60.76421"></scales>
<clustering>
<clus scale="   60.764">  1  9  2 -1</clus>
<clus scale="   72.156">  7  8 -1 -1</clus>
<clus scale="   91.741">  5  6 -1 -1</clus>
<clus scale="   99.174">  1  7  2 -1</clus>
<clus scale="  114.217">  2  5  1 -1</clus>
</clustering>
</event>
<event>
 9    1  0.1748361E-005  0.1216937E+03  0.7546771E-02  0.1240573E+00
         -1   -1    0    0    0  501 -0.00000000000E+00  0.00000000000E+00  0.32085519715E+02  0.32085519715E+02  0.00000000000E+00 0.  1.
          1   -1    0    0  502    0  0.00000000000E+00 -0.00000000000E+00 -0.76583549893E+03  0.76583549893E+03  0.00000000000E+00 0. -1.
         23    2    1    2    0    0 -0.67575363673E+01  0.78090197164E+02 -0.20910160329E+03  0.24122653588E+03  0.91230575583E+02 0.  0.
         23    2    1    2    0    0 -0.45285319134E+02 -0.73324233556E+02 -0.43523322805E+03  0.45312691117E+03  0.92026254251E+02 0.  0.
        -13    1    3    3    0    0  0.16262042656E+02  0.79137272019E+02 -0.20128491240E+03  0.21689347111E+03  0.00000000000E+00 0. -1.
         13    1    3    3    0    0 -0.23019579024E+02 -0.10470748554E+01 -0.78166908968E+01  0.24333064763E+02  0.00000000000E+00 0.  1.
        -13    1    4    4    0    0 -0.65718530127E+02 -0.30237186758E+02 -0.19011555096E+03  0.20341370500E+03  0.00000000000E+00 0.  1.
         13    1    4    4    0    0  0.20433210993E+02 -0.43087046798E+02 -0.24511767709E+03  0.24971320617E+03  0.00000000000E+00 0. -1.
         21    1    1    2  502  501  0.52042855501E+02 -0.47659636081E+01 -0.89415147880E+02  0.10356757161E+03  0.00000000000E+00 0. -1.
<scales pt_clust_5="13000.00000" pt_clust_6="13000.00000" pt_clust_7="13000.00000" pt_clust_8="13000.00000" pt_clust_9="52.26063"></scales>
<clustering>
<clus scale="   52.261">  1  9  2 -1</clus>
<clus scale="   91.231">  5  6 -1 -1</clus>
<clus scale="   92.026">  7  8 -1 -1</clus>
<clus scale="  121.093">  1  5  2 -1</clus>
<clus scale="  121.694">  2  5  1 -1</clus>
</clustering>
</event>
<event>
 9    1  0.1748361E-005  0.4499101E+03  0.7546771E-02  0.1027786E+00
          1   -1    0    0  502    0  0.00000000000E+00  0.00000000000E+00  0.58885364385E+03  0.58885364385E+03  0.00000000000E+00 0. -1.
         -1   -1    0    0    0  501 -0.00000000000E+00 -0.00000000000E+00 -0.51619078836E+03  0.51619078836E+03  0.00000000000E+00 0.  1.
         23    2    1    2    0    0 -0.65642277142E+02  0.47792239299E+03  0.51901035145E+02  0.49374564454E+03  0.91500392230E+02 0.  0.
         23    2    1    2    0    0  0.39465434705E+02 -0.41033883132E+03  0.16182750521E+03  0.45270404521E+03  0.93900660736E+02 0.  0.
        -11    1    3    3    0    0 -0.86866999478E+02  0.41513392711E+03  0.36441322519E+02  0.42568770598E+03  0.00000000000E+00 0. -1.
         11    1    3    3    0    0  0.21224722336E+02  0.62788465884E+02  0.15459712626E+02  0.68057938558E+02  0.00000000000E+00 0.  1.
        -13    1    4    4    0    0 -0.30207457963E+02 -0.89181147456E+02  0.36972674164E+02  0.10115703739E+03  0.00000000000E+00 0. -1.
         13    1    4    4    0    0  0.69672892668E+02 -0.32115768386E+03  0.12485483105E+03  0.35154700782E+03  0.00000000000E+00 0.  1.
         21    1    1    2  502  501  0.26176842437E+02 -0.67583561676E+02 -0.14106568487E+03  0.15859474246E+03  0.00000000000E+00 0.  1.
<scales pt_clust_5="13000.00000" pt_clust_6="13000.00000" pt_clust_7="13000.00000" pt_clust_8="13000.00000" pt_clust_9="72.47596"></scales>
<clustering>
<clus scale="   72.476">  2  9  1 -1</clus>
<clus scale="   91.500">  5  6 -1 -1</clus>
<clus scale="   93.901">  7  8 -1 -1</clus>
<clus scale="  449.415">  2  5  1 -1</clus>
<clus scale="  449.910">  1  5  2 -1</clus>
</clustering>
</event>
<event>
 9    1  0.1748361E-005  0.1253194E+03  0.7546771E-02  0.1244524E+00
         -2   -1    0    0    0  501 -0.00000000000E+00  0.00000000000E+00  0.57583580710E+02  0.57583580710E+02  0.00000000000E+00 0.  1.
          2   -1    0    0  502    0  0.00000000000E+00 -0.00000000000E+00 -0.28811778272E+03  0.28811778272E+03  0.00000000000E+00 0. -1.
         23    2    1    2    0    0 -0.33211002220E+02 -0.18934472595E+02 -0.91377944152E+02  0.15223783742E+03  0.11560685769E+03 0.  0.
         23    2    1    2    0    0  0.55316076507E+02  0.80750150009E+01 -0.12840680697E+03  0.16659136899E+03  0.90218079990E+02 0.  0.
        -11    1    4    4    0    0  0.30112085329E+02 -0.23668879993E+02 -0.74431162591E+01  0.39017349252E+02  0.00000000000E+00 0.  1.
         11    1    4    4    0    0  0.25203991177E+02  0.31743894994E+02 -0.12096369071E+03  0.12757401974E+03  0.00000000000E+00 0. -1.
        -13    1    3    3    0    0  0.77389787264E+01  0.43927436220E+02 -0.20728770917E+02  0.49185296464E+02  0.00000000000E+00 0. -1.
         13    1    3    3    0    0 -0.40949980946E+02 -0.62861908814E+02 -0.70649173235E+02  0.10305254096E+03  0.00000000000E+00 0.  1.
         21    1    1    2  502  501 -0.22105074287E+02  0.10859457594E+02 -0.10749450884E+02  0.26872157017E+02  0.00000000000E+00 0. -1.
<scales pt_clust_5="13000.00000" pt_clust_6="13000.00000" pt_clust_7="13000.00000" pt_clust_8="13000.00000" pt_clust_9="24.62848"></scales>
<clustering>
<clus scale="   24.628">  1  9  2 -1</clus>
<clus scale="   90.218">  5  6 -1 -1</clus>
<clus scale="  102.369">  2  5  1 -1</clus>
<clus scale="  115.607">  7  8 -1 -1</clus>
<clus scale="  102.369">  2  5  1 -1</clus>
</clustering>
</event>
<event>
 9    1  0.1748361E-005  0.1130020E+03  0.7546771E-02  0.1258033E+00
         -2   -1    0    0    0  501 -0.00000000000E+00  0.00000000000E+00  0.43685345863E+02  0.43685345863E+02  0.00000000000E+00 0.  1.
          2   -1    0    0  502    0  0.00000000000E+00 -0.00000000000E+00 -0.50049807578E+03  0.50049807578E+03  0.00000000000E+00 0. -1.
         23    2    1    2    0    0 -0.53203242088E+02  0.25641036501E+02 -0.78104623521E+02  0.13239416987E+03  0.89105758955E+02 0.  0.
         23    2    1    2    0    0  0.39967823544E+02 -0.44102408071E+02 -0.37074004358E+03  0.38771668296E+03  0.96610542980E+02 0.  0.
        -11    1    4    4    0    0  0.69049928865E+02 -0.12074284448E+02 -0.22074789430E+03  0.23161026285E+03  0.00000000000E+00 0. -1.
         11    1    4    4    0    0 -0.29082105321E+02 -0.32028123624E+02 -0.14999214928E+03  0.15610642010E+03  0.00000000000E+00 0.  1.
        -13    1    3    3    0    0 -0.76421189949E+02  0.28279598502E+02 -0.49053424475E+02  0.95111368497E+02  0.00000000000E+00 0.  1.
         13    1    3    3    0    0  0.23217947861E+02 -0.26385620014E+01 -0.29051199046E+02  0.37282801374E+02  0.00000000000E+00 0. -1.
         21    1    1    2  502  501  0.13235418544E+02  0.18461371571E+02 -0.79680628193E+01  0.24072568816E+02  0.00000000000E+00 0. -1.
<scales pt_clust_5="13000.00000" pt_clust_6="13000.00000" pt_clust_7="13000.00000" pt_clust_8="13000.00000" pt_clust_9="22.71560"></scales>
<clustering>
<clus scale="   22.716">  1  9  2 -1</clus>
<clus scale="   89.106">  7  8 -1 -1</clus>
<clus scale="   96.611">  5  6 -1 -1</clus>
<clus scale="  106.657">  1  7  2 -1</clus>
<clus scale="  113.002">  2  5  1 -1</clus>
</clustering>
</event>
<event>
 9    1  0.1748361E-005  0.1924932E+03  0.7546771E-02  0.1182350E+00
         -2   -1    0    0    0  501 -0.00000000000E+00  0.00000000000E+00  0.49164305623E+02  0.49164305623E+02  0.00000000000E+00 0.  1.
          2   -1    0    0  502    0  0.00000000000E+00 -0.00000000000E+00 -0.15173843016E+04  0.15173843016E+04  0.00000000000E+00 0. -1.
         23    2    1    2    0    0 -0.34298250910E+02 -0.17219814899E+03 -0.25759021261E+03  0.32489693616E+03  0.91524471926E+02 0.  0.
         23    2    1    2    0    0  0.49348854946E+02  0.17931206170E+02 -0.30463365680E+03  0.32249238580E+03  0.91884908486E+02 0.  0.
        -11    1    3    3    0    0  0.24673632548E+02 -0.77242368762E+02 -0.14567249253E+03  0.16672026498E+03  0.00000000000E+00 0. -1.
         11    1    3    3    0    0 -0.58971883457E+02 -0.94955780227E+02 -0.11191772008E+03  0.15817667118E+03  0.00000000000E+00 0.  1.
        -13    1    4    4    0    0  0.54547566962E+02 -0.13872796190E+02 -0.26735564119E+03  0.27321590439E+03  0.00000000000E+00 0.  1.
         13    1    4    4    0    0 -0.51987120154E+01  0.31804002360E+02 -0.37278015607E+02  0.49276481411E+02  0.00000000000E+00 0. -1.
         21    1    1    2  502  501 -0.15050604036E+02  0.15426694282E+03 -0.90599612660E+03  0.91915928529E+03  0.00000000000E+00 0. -1.
<scales pt_clust_5="13000.00000" pt_clust_6="13000.00000" pt_clust_7="13000.00000" pt_clust_8="13000.00000" pt_clust_9="169.34259"></scales>
<clustering>
<clus scale="   91.524">  5  6 -1 -1</clus>
<clus scale="   91.885">  7  8 -1 -1</clus>
<clus scale="  105.829">  2  7  1 -1</clus>
<clus scale="  169.343">  2  9  1 -1</clus>
<clus scale="  105.829">  2  5  1 -1</clus>
</clustering>
</event>
<event>
 9    1  0.1748361E-005  0.9488255E+02  0.7546771E-02  0.1292634E+00
          2   -1    0    0  502    0  0.00000000000E+00  0.00000000000E+00  0.27910160816E+03  0.27910160816E+03  0.00000000000E+00 0. -1.
         -2   -1    0    0    0  501 -0.00000000000E+00 -0.00000000000E+00 -0.62612137026E+02  0.62612137026E+02  0.00000000000E+00 0.  1.
         23    2    1    2    0    0 -0.48945857294E+01 -0.43176669091E+02  0.51284001606E+02  0.11266114147E+03  0.90411847965E+02 0.  0.
         23    2    1    2    0    0 -0.37836272184E+02  0.34518192197E+01  0.12732334181E+03  0.15948935541E+03  0.88216339586E+02 0.  0.
        -13    1    4    4    0    0 -0.71641114838E+01  0.29053566640E+02  0.11323997318E+03  0.11712696424E+03  0.00000000000E+00 0. -1.
         13    1    4    4    0    0 -0.30672160700E+02 -0.25601747420E+02  0.14083368632E+02  0.42362391162E+02  0.00000000000E+00 0.  1.
        -13    1    3    3    0    0 -0.35857698065E+02 -0.30955002388E+02 -0.46215876722E+01  0.47595648498E+02  0.00000000000E+00 0.  1.
         13    1    3    3    0    0  0.30963112336E+02 -0.12221666703E+02  0.55905589278E+02  0.65065492967E+02  0.00000000000E+00 0. -1.
         21    1    1    2  502  501  0.42730857913E+02  0.39724849872E+02  0.37882127715E+02  0.69563248311E+02  0.00000000000E+00 0. -1.
<scales pt_clust_5="13000.00000" pt_clust_6="13000.00000" pt_clust_7="13000.00000" pt_clust_8="13000.00000" pt_clust_9="58.34372"></scales>
<clustering>
<clus scale="   58.344">  2  9  1 -1</clus>
<clus scale="   88.216">  5  6 -1 -1</clus>
<clus scale="   90.412">  7  8 -1 -1</clus>
<clus scale="   92.793">  1  5  2 -1</clus>
<clus scale="   92.793">  1  5  2 -1</clus>
</clustering>
</event>
<event>
 9    1  0.1748361E-005  0.9348748E+02  0.7546771E-02  0.1296414E+00
          2   -1    0    0  502    0  0.00000000000E+00  0.00000000000E+00  0.23879062340E+03  0.23879062340E+03  0.00000000000E+00 0. -1.
         -2   -1    0    0    0  501 -0.00000000000E+00 -0.00000000000E+00 -0.49862226584E+02  0.49862226584E+02  0.00000000000E+00 0.  1.
         23    2    1    2    0    0 -0.26818603972E+02 -0.64762762455E+01  0.55052977992E+02  0.11059567547E+03  0.91866170993E+02 0.  0.
         23    2    1    2    0    0  0.37836529684E+01  0.15891498352E+02  0.11796225935E+03  0.14851933405E+03  0.88747068725E+02 0.  0.
        -11    1    3    3    0    0 -0.69203334180E+01  0.39925996326E+02  0.74423140758E+01  0.41199080524E+02  0.00000000000E+00 0.  1.
         11    1    3    3    0    0 -0.19898270554E+02 -0.46402272572E+02  0.47610663916E+02  0.69396594941E+02  0.00000000000E+00 0. -1.
        -13    1    4    4    0    0  0.23386750097E+02  0.89732697485E+01 -0.34986762601E+01  0.25292298940E+02  0.00000000000E+00 0.  1.
         13    1    4    4    0    0 -0.19603097129E+02  0.69182286040E+01  0.12146093561E+03  0.12322703511E+03  0.00000000000E+00 0. -1.
         21    1    1    2  502  501  0.23034951004E+02 -0.94152221070E+01  0.15913159484E+02  0.29537840474E+02  0.00000000000E+00 0.  1.
<scales pt_clust_5="13000.00000" pt_clust_6="13000.00000" pt_clust_7="13000.00000" pt_clust_8="13000.00000" pt_clust_9="24.88484"></scales>
<clustering>
<clus scale="   24.885">  2  9  1 -1</clus>
<clus scale="   88.747">  7  8 -1 -1</clus>
<clus scale="   90.424">  1  7  2 -1</clus>
<clus scale="   91.866">  5  6 -1 -1</clus>
<clus scale="   90.424">  1  5  2 -1</clus>
</clustering>
</event>
<event>
 9    1  0.1748361E-005  0.1525757E+03  0.7546771E-02  0.1197868E+00
          1   -1    0    0  502    0  0.00000000000E+00  0.00000000000E+00  0.11339445389E+03  0.11339445389E+03  0.00000000000E+00 0. -1.
         -1   -1    0    0    0  501 -0.00000000000E+00 -0.00000000000E+00 -0.34850363039E+03  0.34850363039E+03  0.00000000000E+00 0.  1.
         23    2    1    2    0    0  0.72253672297E+02 -0.44433427928E+02 -0.12699973588E+03  0.17908616998E+03  0.93530747269E+02 0.  0.
         23    2    1    2    0    0 -0.14709241275E+03  0.24412495104E+02 -0.38595798081E+02  0.17872627013E+03  0.90671363711E+02 0.  0.
        -11    1    4    4    0    0 -0.11513857065E+03 -0.97821892985E+00 -0.62921440876E+02  0.13121339522E+03  0.00000000000E+00 0.  1.
         11    1    4    4    0    0 -0.31953842100E+02  0.25390714034E+02  0.24325642796E+02  0.47512874903E+02  0.00000000000E+00 0. -1.
        -11    1    3    3    0    0 -0.20690451058E+02 -0.22613407359E+02 -0.27274382160E+02  0.41028683620E+02  0.00000000000E+00 0.  1.
         11    1    3    3    0    0  0.92944123356E+02 -0.21820020569E+02 -0.99725353725E+02  0.13805748636E+03  0.00000000000E+00 0. -1.
         21    1    1    2  502  501  0.74838740456E+02  0.20020932824E+02 -0.69513642536E+02  0.10408564417E+03  0.00000000000E+00 0.  1.
<scales pt_clust_5="13000.00000" pt_clust_6="13000.00000" pt_clust_7="13000.00000" pt_clust_8="13000.00000" pt_clust_9="77.47048"></scales>
<clustering>
<clus scale="   77.470">  2  9  1 -1</clus>
<clus scale="   90.671">  5  6 -1 -1</clus>
<clus scale="   93.531">  7  8 -1 -1</clus>
<clus scale="  150.840">  1  5  2 -1</clus>
<clus scale="  150.840">  1  5  2 -1</clus>
</clustering>
</event>
<event>
 9    1  0.1748361E-005  0.1233901E+03  0.7546771E-02  0.1238420E+00
         -2   -1    0    0    0  501 -0.00000000000E+00  0.00000000000E+00  0.93976256948E+03  0.93976256948E+03  0.00000000000E+00 0.  1.
          2   -1    0    0  502    0  0.00000000000E+00 -0.00000000000E+00 -0.51621603095E+02  0.51621603095E+02  0.00000000000E+00 0. -1.
         23    2    1    2    0    0  0.10614888357E+03  0.66289521189E+02  0.56546006882E+03  0.58600135048E+03  0.89390196519E+02 0.  0.
         23    2    1    2    0    0 -0.77097450826E+02 -0.15548796747E+01  0.61952294469E+02  0.13517186001E+03  0.92124428762E+02 0.  0.
        -13    1    3    3    0    0  0.44642432746E+02  0.62847712153E+02  0.43437866616E+03  0.44116619016E+03  0.00000000000E+00 0.  1.
         13    1    3    3    0    0  0.61506450823E+02  0.34418090355E+01  0.13108140266E+03  0.14483516032E+03  0.00000000000E+00 0. -1.
        -13    1    4    4    0    0 -0.44007776283E+02  0.44905948954E+02  0.28353889275E+02  0.68972252840E+02  0.00000000000E+00 0.  1.
         13    1    4    4    0    0 -0.33089674543E+02 -0.46460828629E+02  0.33598405194E+02  0.66199607172E+02  0.00000000000E+00 0. -1.
         21    1    1    2  502  501 -0.29051432742E+02 -0.64734641514E+02  0.26072860309E+03  0.27021096208E+03  0.00000000000E+00 0. -1.
<scales pt_clust_5="13000.00000" pt_clust_6="13000.00000" pt_clust_7="13000.00000" pt_clust_8="13000.00000" pt_clust_9="70.95463"></scales>
<clustering>
<clus scale="   70.955">  1  9  2 -1</clus>
<clus scale="   89.390">  5  6 -1 -1</clus>
<clus scale="   92.124">  7  8 -1 -1</clus>
<clus scale="  121.362">  1  5  2 -1</clus>
<clus scale="  123.390">  2  5  1 -1</clus>
</clustering>
</event>
<event>
 9    1  0.1748361E-005  0.1061987E+03  0.7546771E-02  0.1268974E+00
          1   -1    0    0  502    0  0.00000000000E+00  0.00000000000E+00  0.37250414351E+02  0.37250414351E+02  0.00000000000E+00 0. -1.
         -1   -1    0    0    0  501 -0.00000000000E+00 -0.00000000000E+00 -0.57156781452E+03  0.57156781452E+03  0.00000000000E+00 0.  1.
         23    2    1    2    0    0 -0.49771326092E+02 -0.27087348795E+02 -0.27568056146E+03  0.29684868292E+03  0.94384634435E+02 0.  0.
         23    2    1    2    0    0  0.47768909844E+02 -0.19079638302E+02 -0.94065908427E+02  0.14103391052E+03  0.91631148862E+02 0.  0.
        -13    1    3    3    0    0 -0.12216542005E+02  0.29987477545E+02 -0.15335690458E+03  0.15673810287E+03  0.00000000000E+00 0.  1.
         13    1    3    3    0    0 -0.37554784087E+02 -0.57074826340E+02 -0.12232365688E+03  0.14011058005E+03  0.00000000000E+00 0. -1.
        -13    1    4    4    0    0  0.28289451173E+00 -0.44329091902E+02 -0.68235541819E+02  0.81370987370E+02  0.00000000000E+00 0.  1.
         13    1    4    4    0    0  0.47486015333E+02  0.25249453600E+02 -0.25830366608E+02  0.59662923147E+02  0.00000000000E+00 0. -1.
         21    1    1    2  502  501  0.20024162476E+01  0.46166987097E+02 -0.16457093028E+03  0.17093563544E+03  0.00000000000E+00 0.  1.
<scales pt_clust_5="13000.00000" pt_clust_6="13000.00000" pt_clust_7="13000.00000" pt_clust_8="13000.00000" pt_clust_9="46.21039"></scales>
<clustering>
<clus scale="   46.210">  2  9  1 -1</clus>
<clus scale="   91.631">  7  8 -1 -1</clus>
<clus scale="   94.385">  5  6 -1 -1</clus>
<clus scale="  103.759">  1  7  2 -1</clus>
<clus scale="  103.759">  1  5  2 -1</clus>
</clustering>
</event>
<event>
 9    1  0.1748361E-005  0.1336366E+03  0.7546771E-02  0.1223528E+00
         -2   -1    0    0    0  501 -0.00000000000E+00  0.00000000000E+00  0.13455903114E+03  0.13455903114E+03  0.00000000000E+00 0.  1.
          2   -1    0    0  502    0  0.00000000000E+00 -0.00000000000E+00 -0.18781656343E+03  0.18781656343E+03  0.00000000000E+00 0. -1.
         23    2    1    2    0    0 -0.10505072934E+02  0.92590553606E+02 -0.16624366739E+02  0.13323932740E+03  0.93770899656E+02 0.  0.
         23    2    1    2    0    0  0.53882677183E+02 -0.85596837729E+02 -0.49893714075E+02  0.14324105218E+03  0.88308860228E+02 0.  0.
        -11    1    3    3    0    0 -0.49602306525E+02  0.32647163765E+02 -0.16651625765E+02  0.61672544581E+02  0.00000000000E+00 0.  1.
         11    1    3    3    0    0  0.39097233591E+02  0.59943389841E+02  0.27259026242E-01  0.71566782820E+02  0.00000000000E+00 0. -1.
        -13    1    4    4    0    0  0.37335772309E+02 -0.30411916885E+01  0.11332265206E+02  0.39136031678E+02  0.00000000000E+00 0.  1.
         13    1    4    4    0    0  0.16546904873E+02 -0.82555646040E+02 -0.61225979281E+02  0.10410502050E+03  0.00000000000E+00 0. -1.
         21    1    1    2  502  501 -0.43377604249E+02 -0.69937158774E+01  0.13260548523E+02  0.45895214993E+02  0.00000000000E+00 0. -1.
<scales pt_clust_5="13000.00000" pt_clust_6="13000.00000" pt_clust_7="13000.00000" pt_clust_8="13000.00000" pt_clust_9="43.93778"></scales>
<clustering>
<clus scale="   43.938">  1  9  2 -1</clus>
<clus scale="   88.309">  7  8 -1 -1</clus>
<clus scale="   93.771">  5  6 -1 -1</clus>
<clus scale="  129.862">  2  7  1 -1</clus>
<clus scale="  129.862">  2  5  1 -1</clus>
</clustering>
</event>
<event>
 9    1  0.1748361E-005  0.1572247E+03  0.7546771E-02  0.1192345E+00
          2   -1    0    0  502    0  0.00000000000E+00  0.00000000000E+00  0.39340823373E+03  0.39340823373E+03  0.00000000000E+00 0. -1.
         -2   -1    0    0    0  501 -0.00000000000E+00 -0.00000000000E+00 -0.19337827890E+03  0.19337827890E+03  0.00000000000E+00 0.  1.
         23    2    1    2    0    0 -0.38153340552E+02 -0.17577787512E+03 -0.13975692993E+02  0.20148936521E+03  0.89716807365E+02 0.  0.
         23    2    1    2    0    0  0.80433855908E+00  0.11788663769E+03  0.26164925373E+03  0.30153404990E+03  0.92544826773E+02 0.  0.
        -13    1    3    3    0    0  0.15655556171E+02 -0.48196296991E+02  0.26559323620E+02  0.57213435082E+02  0.00000000000E+00 0. -1.
         13    1    3    3    0    0 -0.53808896724E+02 -0.12758157813E+03 -0.40535016613E+02  0.14427593013E+03  0.00000000000E+00 0.  1.
        -13    1    4    4    0    0  0.13823802361E+02  0.59083158535E+02  0.22023623455E+03  0.22844236942E+03  0.00000000000E+00 0. -1.
         13    1    4    4    0    0 -0.13019463802E+02  0.58803479151E+02  0.41413019181E+02  0.73091680481E+02  0.00000000000E+00 0.  1.
         21    1    1    2  502  501  0.37349001993E+02  0.57891237430E+02 -0.47643605918E+02  0.83763097519E+02  0.00000000000E+00 0. -1.
<scales pt_clust_5="13000.00000" pt_clust_6="13000.00000" pt_clust_7="13000.00000" pt_clust_8="13000.00000" pt_clust_9="68.89371"></scales>
<clustering>
<clus scale="   68.894">  2  9  1 -1</clus>
<clus scale="   89.717">  5  6 -1 -1</clus>
<clus scale="   92.545">  7  8 -1 -1</clus>
<clus scale="  155.577">  2  5  1 -1</clus>
<clus scale="  157.225">  1  5  2 -1</clus>
</clustering>
</event>
<event>
 9    1  0.1748361E-005  0.9705679E+02  0.7546771E-02  0.1287436E+00
          1   -1    0    0  502    0  0.00000000000E+00  0.00000000000E+00  0.63762155834E+02  0.63762155834E+02  0.00000000000E+00 0. -1.
         -1   -1    0    0    0  501 -0.00000000000E+00 -0.00000000000E+00 -0.32303373156E+03  0.32303373156E+03  0.00000000000E+00 0.  1.
         23    2    1    2    0    0  0.14228791457E+02  0.17746937824E+02 -0.13136795740E+03  0.16144875070E+03  0.91053536787E+02 0.  0.
         23    2    1    2    0    0 -0.36198490863E+02 -0.12468170284E+02 -0.18889114714E+01  0.97322766274E+02  0.89455949146E+02 0.  0.
        -11    1    4    4    0    0  0.14667654645E+02  0.28390230465E+02  0.15031062203E+01  0.31990695630E+02  0.00000000000E+00 0. -1.
         11    1    4    4    0    0 -0.50866145508E+02 -0.40858400748E+02 -0.33920176918E+01  0.65332070643E+02  0.00000000000E+00 0.  1.
        -13    1    3    3    0    0 -0.36312852927E+02 -0.78473663437E+01 -0.49517078948E+02  0.61904325808E+02  0.00000000000E+00 0.  1.
         13    1    3    3    0    0  0.50541644384E+02  0.25594304168E+02 -0.81850878455E+02  0.99544424890E+02  0.00000000000E+00 0. -1.
         21    1    1    2  502  501  0.21969699406E+02 -0.52787675404E+01 -0.12601470685E+03  0.12802437042E+03  0.00000000000E+00 0.  1.
<scales pt_clust_5="13000.00000" pt_clust_6="13000.00000" pt_clust_7="13000.00000" pt_clust_8="13000.00000" pt_clust_9="22.59498"></scales>
<clustering>
<clus scale="   22.595">  2  9  1 -1</clus>
<clus scale="   89.456">  5  6 -1 -1</clus>
<clus scale="   91.054">  7  8 -1 -1</clus>
<clus scale="   95.560">  1  5  2 -1</clus>
<clus scale="   95.560">  1  5  2 -1</clus>
</clustering>
</event>
<event>
 9    1  0.1748361E-005  0.1008937E+03  0.7546771E-02  0.1279745E+00
         -1   -1    0    0    0  501 -0.00000000000E+00  0.00000000000E+00  0.22795362020E+03  0.22795362020E+03  0.00000000000E+00 0.  1.
          1   -1    0    0  502    0  0.00000000000E+00 -0.00000000000E+00 -0.31983428750E+03  0.31983428750E+03  0.00000000000E+00 0. -1.
         23    2    1    2    0    0 -0.34188193008E+02  0.23939833305E+02 -0.18653886235E+02  0.10114956225E+03  0.90229254190E+02 0.  0.
         23    2    1    2    0    0  0.40445492743E+02  0.71246894374E+01 -0.24852569061E+03  0.26849832732E+03  0.92950168357E+02 0.  0.
        -11    1    4    4    0    0  0.30226962274E+02  0.48762339032E+02 -0.16353093780E+03  0.17330263291E+03  0.00000000000E+00 0. -1.
         11    1    4    4    0    0  0.10218530469E+02 -0.41637649595E+02 -0.84994752812E+02  0.95195694411E+02  0.00000000000E+00 0.  1.
        -11    1    3    3    0    0  0.27239020871E+02 -0.10203809445E+02 -0.69014096758E+01  0.29895006953E+02  0.00000000000E+00 0. -1.
         11    1    3    3    0    0 -0.61427213879E+02  0.34143642750E+02 -0.11752476559E+02  0.71254555296E+02  0.00000000000E+00 0.  1.
         21    1    1    2  502  501 -0.62572997342E+01 -0.31064522742E+02  0.17529890954E+03  0.17814001813E+03  0.00000000000E+00 0.  1.
<scales pt_clust_5="13000.00000" pt_clust_6="13000.00000" pt_clust_7="13000.00000" pt_clust_8="13000.00000" pt_clust_9="31.68846"></scales>
<clustering>
<clus scale="   31.688">  1  9  2 -1</clus>
<clus scale="   90.229">  7  8 -1 -1</clus>
<clus scale="   92.950">  5  6 -1 -1</clus>
<clus scale="   98.393">  1  7  2 -1</clus>
<clus scale="  100.894">  2  5  1 -1</clus>
</clustering>
</event>
<event>
 9    1  0.1748361E-005  0.1441092E+03  0.7546771E-02  0.1209474E+00
         -3   -1    0    0    0  501 -0.00000000000E+00  0.00000000000E+00  0.36218983605E+03  0.36218983605E+03  0.00000000000E+00 0.  1.
          3   -1    0    0  502    0  0.00000000000E+00 -0.00000000000E+00 -0.11340071046E+03  0.11340071046E+03  0.00000000000E+00 0. -1.
         23    2    1    2    0    0 -0.19129952481E+02  0.13214431882E+03  0.13240137012E+03  0.21195087406E+03  0.97800685709E+02 0.  0.
         23    2    1    2    0    0  0.13205748570E+02 -0.95049430990E+02 -0.94259579630E+01  0.13233766416E+03  0.90640071406E+02 0.  0.
        -11    1    4    4    0    0 -0.38180846285E+02 -0.50761381854E+02 -0.11092898839E+02  0.64479045553E+02  0.00000000000E+00 0.  1.
         11    1    4    4    0    0  0.51386594855E+02 -0.44288049136E+02  0.16669408758E+01  0.67858618605E+02  0.00000000000E+00 0. -1.
        -13    1    3    3    0    0 -0.39070275903E+02  0.82100094594E+01  0.34345783574E+02  0.52664253187E+02  0.00000000000E+00 0.  1.
         13    1    3    3    0    0  0.19940323423E+02  0.12393430936E+03  0.98055586548E+02  0.15928662087E+03  0.00000000000E+00 0. -1.
         21    1    1    2  502  501  0.59242039109E+01 -0.37094887828E+02  0.12581371343E+03  0.13130200829E+03  0.00000000000E+00 0.  1.
<scales pt_clust_5="13000.00000" pt_clust_6="13000.00000" pt_clust_7="13000.00000" pt_clust_8="13000.00000" pt_clust_9="37.56497"></scales>
<clustering>
<clus scale="   37.565">  1  9  2 -1</clus>
<clus scale="   90.640">  5  6 -1 -1</clus>
<clus scale="   97.801">  7  8 -1 -1</clus>
<clus scale="  139.349">  2  5  1 -1</clus>
<clus scale="  139.349">  2  5  1 -1</clus>
</clustering>
</event>
<event>
 9    1  0.1748361E-005  0.2265621E+03  0.7546771E-02  0.1129110E+00
          1   -1    0    0  502    0  0.00000000000E+00  0.00000000000E+00  0.23110588466E+03  0.23110588466E+03  0.00000000000E+00 0. -1.
         -1   -1    0    0    0  501 -0.00000000000E+00 -0.00000000000E+00 -0.26442752903E+03  0.26442752903E+03  0.00000000000E+00 0.  1.
         23    2    1    2    0    0  0.55675309986E+02 -0.21183650793E+03 -0.18184537716E+02  0.23783921919E+03  0.90897582689E+02 0.  0.
         23    2    1    2    0    0 -0.51927168442E+02  0.19158255385E+03  0.17758030731E+02  0.21888232410E+03  0.90519712697E+02 0.  0.
        -11    1    3    3    0    0  0.47403327712E+02 -0.54920231371E+02  0.21695759957E+02  0.75723267839E+02  0.00000000000E+00 0.  1.
         11    1    3    3    0    0  0.82719822732E+01 -0.15691627656E+03 -0.39880297674E+02  0.16211595135E+03  0.00000000000E+00 0. -1.
        -13    1    4    4    0    0  0.52107053808E+01  0.63679959260E+02  0.42351775934E+02  0.76654821026E+02  0.00000000000E+00 0. -1.
         13    1    4    4    0    0 -0.57137873823E+02  0.12790259459E+03 -0.24593745203E+02  0.14222750308E+03  0.00000000000E+00 0.  1.
         21    1    1    2  502  501 -0.37481415436E+01  0.20253954075E+02 -0.32895137380E+02  0.38811870400E+02  0.00000000000E+00 0. -1.
<scales pt_clust_5="13000.00000" pt_clust_6="13000.00000" pt_clust_7="13000.00000" pt_clust_8="13000.00000" pt_clust_9="20.59785"></scales>
<clustering>
<clus scale="   20.598">  2  9  1 -1</clus>
<clus scale="   90.520">  7  8 -1 -1</clus>
<clus scale="   90.898">  5  6 -1 -1</clus>
<clus scale="  226.411">  1  7  2 -1</clus>
<clus scale="  226.411">  1  5  2 -1</clus>
</clustering>
</event>
<event>
 9    1  0.1748361E-005  0.1033725E+03  0.7546771E-02  0.1274234E+00
          1   -1    0    0  502    0  0.00000000000E+00  0.00000000000E+00  0.48889516205E+02  0.48889516205E+02  0.00000000000E+00 0. -1.
         -1   -1    0    0    0  501 -0.00000000000E+00 -0.00000000000E+00 -0.27680977884E+03  0.27680977884E+03  0.00000000000E+00 0.  1.
         23    2    1    2    0    0 -0.13831302181E+02  0.57906361258E+02 -0.11654926568E+03  0.15982607107E+03  0.91739795454E+02 0.  0.
         23    2    1    2    0    0  0.12937485747E+02 -0.37157330163E+02 -0.72956505691E+02  0.12220407767E+03  0.89794984021E+02 0.  0.
        -11    1    4    4    0    0 -0.24069759585E+02 -0.43450232573E+02 -0.12797178832E+02  0.51293701593E+02  0.00000000000E+00 0.  1.
         11    1    4    4    0    0  0.37007245331E+02  0.62929024097E+01 -0.60159326859E+02  0.70910376081E+02  0.00000000000E+00 0. -1.
        -11    1    3    3    0    0  0.68608501576E+01  0.59437793674E+02 -0.23158079042E+02  0.64157768093E+02  0.00000000000E+00 0. -1.
         11    1    3    3    0    0 -0.20692152338E+02 -0.15314324156E+01 -0.93391186635E+02  0.95668302978E+02  0.00000000000E+00 0.  1.
         21    1    1    2  502  501  0.89381643415E+00 -0.20749031095E+02 -0.38414491264E+02  0.43669146297E+02  0.00000000000E+00 0.  1.
<scales pt_clust_5="13000.00000" pt_clust_6="13000.00000" pt_clust_7="13000.00000" pt_clust_8="13000.00000" pt_clust_9="20.76827"></scales>
<clustering>
<clus scale="   20.768">  2  9  1 -1</clus>
<clus scale="   89.795">  5  6 -1 -1</clus>
<clus scale="   91.740">  7  8 -1 -1</clus>
<clus scale="  101.651">  1  5  2 -1</clus>
<clus scale="  101.651">  1  5  2 -1</clus>
</clustering>
</event>
<event>
 9    1  0.1748361E-005  0.9356494E+02  0.7546771E-02  0.1295387E+00
         -2   -1    0    0    0  501 -0.00000000000E+00  0.00000000000E+00  0.32750241640E+02  0.32750241640E+02  0.00000000000E+00 0.  1.
          2   -1    0    0  502    0  0.00000000000E+00 -0.00000000000E+00 -0.40730067133E+03  0.40730067133E+03  0.00000000000E+00 0. -1.
         23    2    1    2    0    0 -0.51579712256E+00 -0.31428650115E+02 -0.15775606290E+03  0.18579581556E+03  0.92978941723E+02 0.  0.
         23    2    1    2    0    0  0.87158875360E+00 -0.61147461425E+01 -0.17860942595E+03  0.20070397326E+03  0.91337878551E+02 0.  0.
        -11    1    3    3    0    0 -0.16228944956E+02 -0.47172101423E+02 -0.34752773508E+02  0.60797541674E+02  0.00000000000E+00 0.  1.
         11    1    3    3    0    0  0.15713147834E+02  0.15743451308E+02 -0.12300328939E+03  0.12499827389E+03  0.00000000000E+00 0. -1.
        -13    1    4    4    0    0 -0.43362789963E+02  0.46431928956E+01 -0.11036666865E+03  0.11867052010E+03  0.00000000000E+00 0.  1.
         13    1    4    4    0    0  0.44234378717E+02 -0.10757939038E+02 -0.68242757300E+02  0.82033453156E+02  0.00000000000E+00 0. -1.
         21    1    1    2  502  501 -0.35579163104E+00  0.37543396258E+02 -0.38184940842E+02  0.53551124147E+02  0.00000000000E+00 0.  1.
<scales pt_clust_5="13000.00000" pt_clust_6="13000.00000" pt_clust_7="13000.00000" pt_clust_8="13000.00000" pt_clust_9="37.54508"></scales>
<clustering>
<clus scale="   37.545">  1  9  2 -1</clus>
<clus scale="   91.338">  7  8 -1 -1</clus>
<clus scale="   91.934">  2  7  1 -1</clus>
<clus scale="   92.979">  5  6 -1 -1</clus>
<clus scale="   91.934">  2  5  1 -1</clus>
</clustering>
</event>
<event>
 9    1  0.1748361E-005  0.1028249E+03  0.7546771E-02  0.1274703E+00
          1   -1    0    0  502    0  0.00000000000E+00  0.00000000000E+00  0.20436577791E+03  0.20436577791E+03  0.00000000000E+00 0. -1.
         -1   -1    0    0    0  501 -0.00000000000E+00 -0.00000000000E+00 -0.11541680246E+03  0.11541680246E+03  0.00000000000E+00 0.  1.
         23    2    1    2    0    0 -0.54615671705E+01 -0.38846789172E+02 -0.52792819739E+02  0.11244919361E+03  0.91207661862E+02 0.  0.
         23    2    1    2    0    0 -0.14204908221E+02  0.46350157422E+02  0.15190663822E+03  0.18395829695E+03  0.91732828207E+02 0.  0.
        -11    1    4    4    0    0 -0.25048739579E+02  0.19411983023E+02  0.25363260941E+01  0.31791467243E+02  0.00000000000E+00 0.  1.
         11    1    4    4    0    0  0.10843831358E+02  0.26938174399E+02  0.14937031213E+03  0.15216682971E+03  0.00000000000E+00 0. -1.
        -13    1    3    3    0    0  0.26301203515E+02 -0.56496692172E+02 -0.27155843358E+02  0.67978447770E+02  0.00000000000E+00 0.  1.
         13    1    3    3    0    0 -0.31762770686E+02  0.17649903000E+02 -0.25636976381E+02  0.44470745839E+02  0.00000000000E+00 0. -1.
         21    1    1    2  502  501  0.19666475392E+02 -0.75033682501E+01 -0.10164843035E+02  0.23375089804E+02  0.00000000000E+00 0.  1.
<scales pt_clust_5="13000.00000" pt_clust_6="13000.00000" pt_clust_7="13000.00000" pt_clust_8="13000.00000" pt_clust_9="21.04925"></scales>
<clustering>
<clus scale="   21.049">  2  9  1 -1</clus>
<clus scale="   91.208">  7  8 -1 -1</clus>
<clus scale="   91.733">  5  6 -1 -1</clus>
<clus scale="  102.357">  2  7  1 -1</clus>
<clus scale="  102.825">  1  5  2 -1</clus>
</clustering>
</event>
<event>
 9    1  0.1748361E-005  0.9078213E+02  0.7546771E-02  0.1301566E+00
         -1   -1    0    0    0  501 -0.00000000000E+00  0.00000000000E+00  0.41245953341E+02  0.41245953341E+02  0.00000000000E+00 0.  1.
          1   -1    0    0  502    0  0.00000000000E+00 -0.00000000000E+00 -0.38747023398E+03  0.38747023398E+03  0.00000000000E+00 0. -1.
         23    2    1    2    0    0 -0.77446138262E+01  0.31957935120E+01 -0.14984239317E+03  0.17474701823E+03  0.89518631855E+02 0.  0.
         23    2    1    2    0    0 -0.95640923461E+01  0.14457566239E+02 -0.20736072745E+03  0.22691797047E+03  0.90514092556E+02 0.  0.
        -11    1    4    4    0    0 -0.26644869869E+02 -0.27157589557E+02 -0.14574247802E+03  0.15062653704E+03  0.00000000000E+00 0. -1.
         11    1    4    4    0    0  0.17080777523E+02  0.41615155796E+02 -0.61618249430E+02  0.76291433434E+02  0.00000000000E+00 0.  1.
        -13    1    3    3    0    0  0.29800305990E+02 -0.22466648476E+02 -0.34743338640E+02  0.50989294079E+02  0.00000000000E+00 0. -1.
         13    1    3    3    0    0 -0.37544919816E+02  0.25662441988E+02 -0.11509905453E+03  0.12375772415E+03  0.00000000000E+00 0.  1.
         21    1    1    2  502  501  0.17308706172E+02 -0.17653359751E+02  0.10978839975E+02  0.27051198625E+02  0.00000000000E+00 0.  1.
<scales pt_clust_5="13000.00000" pt_clust_6="13000.00000" pt_clust_7="13000.00000" pt_clust_8="13000.00000" pt_clust_9="24.72312"></scales>
<clustering>
<clus scale="   24.723">  1  9  2 -1</clus>
<clus scale="   89.519">  7  8 -1 -1</clus>
<clus scale="   89.790">  1  7  2 -1</clus>
<clus scale="   90.514">  5  6 -1 -1</clus>
<clus scale="   90.782">  2  5  1 -1</clus>
</clustering>
</event>
<event>
 9    1  0.1748361E-005  0.1001484E+03  0.7546771E-02  0.1280297E+00
         -1   -1    0    0    0  501 -0.00000000000E+00  0.00000000000E+00  0.57601203486E+02  0.57601203486E+02  0.00000000000E+00 0.  1.
          1   -1    0    0  502    0  0.00000000000E+00 -0.00000000000E+00 -0.42504455496E+03  0.42504455496E+03  0.00000000000E+00 0. -1.
         23    2    1    2    0    0 -0.40493878361E+01 -0.44992290311E+02 -0.46785814967E+02  0.11114176699E+03  0.90127000165E+02 0.  0.
         23    2    1    2    0    0 -0.25121817908E+02  0.35730644666E+02 -0.32530450760E+03  0.34054705904E+03  0.90782663822E+02 0.  0.
        -11    1    4    4    0    0 -0.14781990949E+02 -0.30114014095E+02 -0.92777815046E+02  0.98656393944E+02  0.00000000000E+00 0. -1.
         11    1    4    4    0    0 -0.10339826959E+02  0.65844658762E+02 -0.23252669255E+03  0.24189066509E+03  0.00000000000E+00 0.  1.
        -13    1    3    3    0    0  0.33048162352E+02 -0.99398310183E+01  0.88647095148E+01  0.35630946526E+02  0.00000000000E+00 0.  1.
         13    1    3    3    0    0 -0.37097550188E+02 -0.35052459293E+02 -0.55650524482E+02  0.75510820467E+02  0.00000000000E+00 0. -1.
         21    1    1    2  502  501  0.29171205744E+02  0.92616456450E+01  0.46469710892E+01  0.30956932421E+02  0.00000000000E+00 0.  1.
<scales pt_clust_5="13000.00000" pt_clust_6="13000.00000" pt_clust_7="13000.00000" pt_clust_8="13000.00000" pt_clust_9="30.60616"></scales>
<clustering>
<clus scale="   30.606">  1  9  2 -1</clus>
<clus scale="   90.127">  7  8 -1 -1</clus>
<clus scale="   90.783">  5  6 -1 -1</clus>
<clus scale="   99.554">  1  7  2 -1</clus>
<clus scale="  100.148">  2  5  1 -1</clus>
</clustering>
</event>
<event>
 9    1  0.1748361E-005  0.1521955E+03  0.7546771E-02  0.1199769E+00
          1   -1    0    0  502    0  0.00000000000E+00  0.00000000000E+00  0.21796152127E+03  0.21796152127E+03  0.00000000000E+00 0. -1.
         -1   -1    0    0    0  501 -0.00000000000E+00 -0.00000000000E+00 -0.30537922714E+03  0.30537922714E+03  0.00000000000E+00 0.  1.
         23    2    1    2    0    0 -0.12000734084E+03 -0.50148375669E+02 -0.12880547982E+03  0.20903279478E+03  0.10093183949E+03 0.  0.
         23    2    1    2    0    0  0.82432984238E+02  0.76113741700E+02  0.14276596969E+03  0.20311635739E+03  0.91025457819E+02 0.  0.
        -13    1    3    3    0    0 -0.79001713629E+02  0.20734678804E+02 -0.76193329514E+02  0.11169879643E+03  0.00000000000E+00 0.  1.
         13    1    3    3    0    0 -0.41005627208E+02 -0.70883054472E+02 -0.52612150310E+02  0.97333998348E+02  0.00000000000E+00 0. -1.
        -13    1    4    4    0    0  0.41448473035E+02  0.38970978392E+02  0.80132266703E+01  0.57453675908E+02  0.00000000000E+00 0.  1.
         13    1    4    4    0    0  0.40984511203E+02  0.37142763308E+02  0.13475274302E+03  0.14566268148E+03  0.00000000000E+00 0. -1.
         21    1    1    2  502  501  0.37574356600E+02 -0.25965366031E+02 -0.10137819573E+03  0.11119159625E+03  0.00000000000E+00 0.  1.
<scales pt_clust_5="13000.00000" pt_clust_6="13000.00000" pt_clust_7="13000.00000" pt_clust_8="13000.00000" pt_clust_9="45.67310"></scales>
<clustering>
<clus scale="   45.673">  2  9  1 -1</clus>
<clus scale="   91.025">  7  8 -1 -1</clus>
<clus scale="  100.932">  5  6 -1 -1</clus>
<clus scale="  145.814">  1  7  2 -1</clus>
<clus scale="  145.814">  1  5  2 -1</clus>
</clustering>
</event>
<event>
 9    1  0.1748361E-005  0.9401338E+02  0.7546771E-02  0.1293863E+00
         -2   -1    0    0    0  501 -0.00000000000E+00  0.00000000000E+00  0.38653040720E+03  0.38653040720E+03  0.00000000000E+00 0.  1.
          2   -1    0    0  502    0  0.00000000000E+00 -0.00000000000E+00 -0.75293585861E+02  0.75293585861E+02  0.00000000000E+00 0. -1.
         23    2    1    2    0    0  0.44462061981E+02  0.21609766499E+02  0.16815103229E+03  0.19768455177E+03  0.91436072659E+02 0.  0.
         23    2    1    2    0    0 -0.17023635055E+02 -0.77536250738E-01 -0.22498902396E+02  0.94921255946E+02  0.90631308382E+02 0.  0.
        -13    1    3    3    0    0 -0.71253698411E+01  0.44389035454E+02  0.53245433763E+02  0.69686681514E+02  0.00000000000E+00 0.  1.
         13    1    3    3    0    0  0.51587431822E+02 -0.22779268956E+02  0.11490559853E+03  0.12799787025E+03  0.00000000000E+00 0. -1.
        -13    1    4    4    0    0  0.17833890801E+02  0.12973085161E+02 -0.45922703914E+02  0.50943530840E+02  0.00000000000E+00 0. -1.
         13    1    4    4    0    0 -0.34857525855E+02 -0.13050621411E+02  0.23423801518E+02  0.43977725106E+02  0.00000000000E+00 0.  1.
         21    1    1    2  502  501 -0.27438426927E+02 -0.21532230248E+02  0.16558469144E+03  0.16921818534E+03  0.00000000000E+00 0.  1.
<scales pt_clust_5="13000.00000" pt_clust_6="13000.00000" pt_clust_7="13000.00000" pt_clust_8="13000.00000" pt_clust_9="34.87842"></scales>
<clustering>
<clus scale="   34.878">  1  9  2 -1</clus>
<clus scale="   90.631">  7  8 -1 -1</clus>
<clus scale="   91.436">  5  6 -1 -1</clus>
<clus scale="   93.231">  2  7  1 -1</clus>
<clus scale="   93.231">  2  5  1 -1</clus>
</clustering>
</event>
<event>
 9    1  0.1748361E-005  0.9385166E+02  0.7546771E-02  0.1294043E+00
          1   -1    0    0  502    0  0.00000000000E+00  0.00000000000E+00  0.36007884544E+02  0.36007884544E+02  0.00000000000E+00 0. -1.
         -1   -1    0    0    0  501 -0.00000000000E+00 -0.00000000000E+00 -0.34758220534E+03  0.34758220534E+03  0.00000000000E+00 0.  1.
         23    2    1    2    0    0  0.37969362296E+01  0.15019581422E+01 -0.13570361230E+03  0.16346495723E+03  0.91042019133E+02 0.  0.
         23    2    1    2    0    0 -0.33689723073E+02 -0.11032150811E+02 -0.11162358825E+03  0.14862621142E+03  0.91505297527E+02 0.  0.
        -11    1    3    3    0    0 -0.24335947244E+02 -0.68792476719E+01 -0.13138189867E+03  0.13379374303E+03  0.00000000000E+00 0.  1.
         11    1    3    3    0    0  0.28132883474E+02  0.83812058141E+01 -0.43217136362E+01  0.29671214201E+02  0.00000000000E+00 0. -1.
        -13    1    4    4    0    0 -0.41255237300E+02  0.12048288163E+02 -0.99815718010E+01  0.44122416389E+02  0.00000000000E+00 0.  1.
         13    1    4    4    0    0  0.75655142266E+01 -0.23080438974E+02 -0.10164201644E+03  0.10450379503E+03  0.00000000000E+00 0. -1.
         21    1    1    2  502  501  0.29892786844E+02  0.95301926690E+01 -0.64247120248E+02  0.71498921235E+02  0.00000000000E+00 0. -1.
<scales pt_clust_5="13000.00000" pt_clust_6="13000.00000" pt_clust_7="13000.00000" pt_clust_8="13000.00000" pt_clust_9="31.37520"></scales>
<clustering>
<clus scale="   31.375">  2  9  1 -1</clus>
<clus scale="   91.042">  5  6 -1 -1</clus>
<clus scale="   91.505">  7  8 -1 -1</clus>
<clus scale="   93.400">  2  5  1 -1</clus>
<clus scale="   93.852">  1  5  2 -1</clus>
</clustering>
</event>
<event>
 9    1  0.1748361E-005  0.1105818E+03  0.7546771E-02  0.1259734E+00
         -1   -1    0    0    0  501 -0.00000000000E+00  0.00000000000E+00  0.24559463318E+03  0.24559463318E+03  0.00000000000E+00 0.  1.
          1   -1    0    0  502    0  0.00000000000E+00 -0.00000000000E+00 -0.19833743499E+03  0.19833743499E+03  0.00000000000E+00 0. -1.
         23    2    1    2    0    0  0.62476400459E+01  0.80825189425E+02  0.17103681675E+03  0.21007138757E+03  0.91129857564E+02 0.  0.
         23    2    1    2    0    0 -0.37536067826E+02  0.45919955856E+01 -0.28532668288E+02  0.10215250795E+03  0.90504027032E+02 0.  0.
        -11    1    4    4    0    0 -0.31360901359E+02  0.42644826987E+02 -0.34439565780E+02  0.63151968251E+02  0.00000000000E+00 0.  1.
         11    1    4    4    0    0 -0.61751664666E+01 -0.38052831402E+02  0.59068974924E+01  0.39000539696E+02  0.00000000000E+00 0. -1.
        -13    1    3    3    0    0  0.44234216101E+02  0.39934881225E+02  0.54054560765E+02  0.80457169674E+02  0.00000000000E+00 0. -1.
         13    1    3    3    0    0 -0.37986576055E+02  0.40890308201E+02  0.11698225599E+03  0.12961421790E+03  0.00000000000E+00 0.  1.
         21    1    1    2  502  501  0.31288427780E+02 -0.85417185011E+02 -0.95246950277E+02  0.13170817266E+03  0.00000000000E+00 0. -1.
<scales pt_clust_5="13000.00000" pt_clust_6="13000.00000" pt_clust_7="13000.00000" pt_clust_8="13000.00000" pt_clust_9="90.96736"></scales>
<clustering>
<clus scale="   90.504">  5  6 -1 -1</clus>
<clus scale="   90.967">  2  9  1 -1</clus>
<clus scale="   91.130">  7  8 -1 -1</clus>
<clus scale="  110.067">  2  5  1 -1</clus>
<clus scale="   90.967">  2  5  1 -1</clus>
</clustering>
</event>
<event>
 9    1  0.1748361E-005  0.2095299E+03  0.7546771E-02  0.1142066E+00
          2   -1    0    0  502    0  0.00000000000E+00  0.00000000000E+00  0.36846990815E+03  0.36846990815E+03  0.00000000000E+00 0. -1.
         -2   -1    0    0    0  501 -0.00000000000E+00 -0.00000000000E+00 -0.21948127983E+03  0.21948127983E+03  0.00000000000E+00 0.  1.
         23    2    1    2    0    0 -0.50295429821E+01 -0.18504223705E+03 -0.62106361204E+02  0.21576222377E+03  0.91816182175E+02 0.  0.
         23    2    1    2    0    0  0.58010745878E+02  0.18099481238E+03  0.23290771011E+03  0.31475043806E+03  0.93260217033E+02 0.  0.
        -13    1    4    4    0    0  0.83359902575E+02  0.14919763432E+03  0.18352103831E+03  0.25077635244E+03  0.00000000000E+00 0. -1.
         13    1    4    4    0    0 -0.25349156697E+02  0.31797178060E+02  0.49386671806E+02  0.63974085612E+02  0.00000000000E+00 0.  1.
        -13    1    3    3    0    0  0.20409671142E+02 -0.15565511064E+03 -0.76089034817E+02  0.17445517867E+03  0.00000000000E+00 0.  1.
         13    1    3    3    0    0 -0.25439214124E+02 -0.29387126416E+02  0.13982673612E+02  0.41307045108E+02  0.00000000000E+00 0. -1.
         21    1    1    2  502  501 -0.52981202896E+02  0.40474246751E+01 -0.21812720589E+02  0.57438526150E+02  0.00000000000E+00 0.  1.
<scales pt_clust_5="13000.00000" pt_clust_6="13000.00000" pt_clust_7="13000.00000" pt_clust_8="13000.00000" pt_clust_9="53.13558"></scales>
<clustering>
<clus scale="   53.136">  2  9  1 -1</clus>
<clus scale="   91.816">  7  8 -1 -1</clus>
<clus scale="   93.260">  5  6 -1 -1</clus>
<clus scale="  208.891">  2  7  1 -1</clus>
<clus scale="  209.530">  1  5  2 -1</clus>
</clustering>
</event>
<event>
 9    1  0.1748361E-005  0.1121207E+03  0.7546771E-02  0.1257620E+00
         -1   -1    0    0    0  501 -0.00000000000E+00  0.00000000000E+00  0.20530011750E+03  0.20530011750E+03  0.00000000000E+00 0.  1.
          1   -1    0    0  502    0  0.00000000000E+00 -0.00000000000E+00 -0.14911218719E+03  0.14911218719E+03  0.00000000000E+00 0. -1.
         23    2    1    2    0    0 -0.75043209163E+02 -0.11507763317E+02 -0.22385196143E+02  0.11898442512E+03  0.88838530813E+02 0.  0.
         23    2    1    2    0    0  0.42969039181E+02  0.45455041196E+02 -0.32128134377E+02  0.11527822620E+03  0.91347431922E+02 0.  0.
        -11    1    4    4    0    0  0.25912030887E+02  0.69412895577E+02 -0.40844619720E+02  0.84604174703E+02  0.00000000000E+00 0.  1.
         11    1    4    4    0    0  0.17057008293E+02 -0.23957854381E+02  0.87164853434E+01  0.30674051496E+02  0.00000000000E+00 0. -1.
        -13    1    3    3    0    0 -0.52954178657E+02 -0.13995823668E+02  0.29734041990E+02  0.62322879991E+02  0.00000000000E+00 0.  1.
         13    1    3    3    0    0 -0.22089030507E+02  0.24880603503E+01 -0.52119238133E+02  0.56661545130E+02  0.00000000000E+00 0. -1.
         21    1    1    2  502  501  0.32074169983E+02 -0.33947277879E+02  0.11070126083E+03  0.12014965337E+03  0.00000000000E+00 0. -1.
<scales pt_clust_5="13000.00000" pt_clust_6="13000.00000" pt_clust_7="13000.00000" pt_clust_8="13000.00000" pt_clust_9="46.70300"></scales>
<clustering>
<clus scale="   46.703">  1  9  2 -1</clus>
<clus scale="   88.839">  7  8 -1 -1</clus>
<clus scale="   91.347">  5  6 -1 -1</clus>
<clus scale="  110.086">  1  7  2 -1</clus>
<clus scale="  112.121">  2  5  1 -1</clus>
</clustering>
</event>
<event>
 9    1  0.1748361E-005  0.1287025E+03  0.7546771E-02  0.1229713E+00
          1   -1    0    0  502    0  0.00000000000E+00  0.00000000000E+00  0.34818098001E+03  0.34818098001E+03  0.00000000000E+00 0. -1.
         -1   -1    0    0    0  501 -0.00000000000E+00 -0.00000000000E+00 -0.55281902781E+03  0.55281902781E+03  0.00000000000E+00 0.  1.
         23    2    1    2    0    0  0.52633105980E+02 -0.90015838215E+02 -0.35668551846E+03  0.38280317139E+03  0.91872814109E+02 0.  0.
         23    2    1    2    0    0  0.21538537931E+02  0.88018798604E+02  0.31448754521E+03  0.33961296609E+03  0.90682595437E+02 0.  0.
        -11    1    4    4    0    0  0.54922818498E+02  0.64538982602E+02  0.17782769776E+03  0.19698854372E+03  0.00000000000E+00 0. -1.
         11    1    4    4    0    0 -0.33384280568E+02  0.23479816002E+02  0.13665984745E+03  0.14262442236E+03  0.00000000000E+00 0.  1.
        -13    1    3    3    0    0 -0.55559498594E+01 -0.43960902266E+02 -0.48011555429E+02  0.65334056674E+02  0.00000000000E+00 0. -1.
         13    1    3    3    0    0  0.58189055839E+02 -0.46054935949E+02 -0.30867396303E+03  0.31746911471E+03  0.00000000000E+00 0.  1.
         21    1    1    2  502  501 -0.74171643911E+02  0.19970396112E+01 -0.16244007455E+03  0.17858387035E+03  0.00000000000E+00 0. -1.
<scales pt_clust_5="13000.00000" pt_clust_6="13000.00000" pt_clust_7="13000.00000" pt_clust_8="13000.00000" pt_clust_9="74.19852"></scales>
<clustering>
<clus scale="   74.199">  2  9  1 -1</clus>
<clus scale="   90.683">  5  6 -1 -1</clus>
<clus scale="   91.873">  7  8 -1 -1</clus>
<clus scale="  127.856">  1  5  2 -1</clus>
<clus scale="  127.856">  1  5  2 -1</clus>
</clustering>
</event>
<event>
 9    1  0.1748361E-005  0.3751641E+03  0.7546771E-02  0.1052889E+00
         -2   -1    0    0    0  501 -0.00000000000E+00  0.00000000000E+00  0.92802100536E+02  0.92802100536E+02  0.00000000000E+00 0.  1.
          2   -1    0    0  502    0  0.00000000000E+00 -0.00000000000E+00 -0.26003456287E+04  0.26003456287E+04  0.00000000000E+00 0. -1.
         23    2    1    2    0    0 -0.35345835119E+03 -0.15698806502E+03 -0.56004200051E+03  0.68671123425E+03  0.91363112506E+02 0.  0.
         23    2    1    2    0    0  0.31242329943E+03  0.16993134051E+03 -0.19205836857E+04  0.19556824403E+04  0.97811731735E+02 0.  0.
        -11    1    3    3    0    0 -0.81231506301E+02  0.36060063774E+01 -0.11181112412E+03  0.13825081691E+03  0.00000000000E+00 0. -1.
         11    1    3    3    0    0 -0.27222684489E+03 -0.16059407140E+03 -0.44823087639E+03  0.54846041735E+03  0.00000000000E+00 0.  1.
        -13    1    4    4    0    0  0.25817440145E+03  0.10914212183E+03 -0.16285811454E+04  0.16525261182E+04  0.00000000000E+00 0. -1.
         13    1    4    4    0    0  0.54248897985E+02  0.60789218687E+02 -0.29200254034E+03  0.30315632207E+03  0.00000000000E+00 0.  1.
         21    1    1    2  502  501  0.41035051758E+02 -0.12943275493E+02 -0.26917841917E+02  0.50754054683E+02  0.00000000000E+00 0. -1.
<scales pt_clust_5="13000.00000" pt_clust_6="13000.00000" pt_clust_7="13000.00000" pt_clust_8="13000.00000" pt_clust_9="43.02794"></scales>
<clustering>
<clus scale="   43.028">  1  9  2 -1</clus>
<clus scale="   91.363">  5  6 -1 -1</clus>
<clus scale="   97.812">  7  8 -1 -1</clus>
<clus scale="  373.535">  1  5  2 -1</clus>
<clus scale="  375.164">  2  5  1 -1</clus>
</clustering>
</event>
<event>
 9    1  0.1748361E-005  0.2685870E+03  0.7546771E-02  0.1102635E+00
          2   -1    0    0  502    0  0.00000000000E+00  0.00000000000E+00  0.14627547462E+04  0.14627547462E+04  0.00000000000E+00 0. -1.
         -2   -1    0    0    0  501 -0.00000000000E+00 -0.00000000000E+00 -0.54882806646E+02  0.54882806646E+02  0.00000000000E+00 0.  1.
         23    2    1    2    0    0  0.74353804475E+02 -0.24814135495E+03  0.52569779374E+03  0.59219474735E+03  0.85051914535E+02 0.  0.
         23    2    1    2    0    0 -0.68281938080E+02  0.22899650984E+03  0.78357861125E+03  0.82482236974E+03  0.96097226956E+02 0.  0.
        -11    1    4    4    0    0 -0.89591909720E+02  0.21098054087E+03  0.68248407420E+03  0.71994722754E+03  0.00000000000E+00 0. -1.
         11    1    4    4    0    0  0.21309971640E+02  0.18015968974E+02  0.10109453705E+03  0.10487514220E+03  0.00000000000E+00 0.  1.
        -13    1    3    3    0    0  0.42647602495E+02 -0.22264977456E+03  0.48105885563E+03  0.53179823494E+03  0.00000000000E+00 0.  1.
         13    1    3    3    0    0  0.31706201981E+02 -0.25491580395E+02  0.44638938110E+02  0.60396512405E+02  0.00000000000E+00 0. -1.
         21    1    1    2  502  501 -0.60718663953E+01  0.19144845114E+02  0.98595534576E+02  0.10062043577E+03  0.00000000000E+00 0.  1.
<scales pt_clust_5="13000.00000" pt_clust_6="13000.00000" pt_clust_7="13000.00000" pt_clust_8="13000.00000" pt_clust_9="20.08464"></scales>
<clustering>
<clus scale="   20.085">  1  9  2 -1</clus>
<clus scale="   85.052">  7  8 -1 -1</clus>
<clus scale="   96.097">  5  6 -1 -1</clus>
<clus scale="  264.836">  2  7  1 -1</clus>
<clus scale="   20.085">  1  5  2 -1</clus>
</clustering>
</event>
<event>
 9    1  0.1748361E-005  0.1102276E+03  0.7546771E-02  0.1261106E+00
          2   -1    0    0  502    0  0.00000000000E+00  0.00000000000E+00  0.46153636666E+03  0.46153636666E+03  0.00000000000E+00 0. -1.
         -2   -1    0    0    0  501 -0.00000000000E+00 -0.00000000000E+00 -0.63077530407E+02  0.63077530407E+02  0.00000000000E+00 0.  1.
         23    2    1    2    0    0 -0.76287222825E+02  0.31485148141E+01  0.20262868535E+02  0.12035547598E+03  0.90803101520E+02 0.  0.
         23    2    1    2    0    0  0.55931563420E+02 -0.26973360573E+01  0.36274505416E+03  0.37869893827E+03  0.93237847037E+02 0.  0.
        -13    1    3    3    0    0 -0.33570752111E+02 -0.43580087204E+02  0.13800326953E+02  0.56715680566E+02  0.00000000000E+00 0. -1.
         13    1    3    3    0    0 -0.42716470714E+02  0.46728602019E+02  0.64625415814E+01  0.63639795416E+02  0.00000000000E+00 0.  1.
        -13    1    4    4    0    0 -0.23168486034E+02  0.13943621478E+02  0.71409839923E+02  0.76358159766E+02  0.00000000000E+00 0.  1.
         13    1    4    4    0    0  0.79100049454E+02 -0.16640957535E+02  0.29133521424E+03  0.30234077850E+03  0.00000000000E+00 0. -1.
         21    1    1    2  502  501  0.20355659405E+02 -0.45117875678E+00  0.15450913563E+02  0.25559482820E+02  0.00000000000E+00 0. -1.
<scales pt_clust_5="13000.00000" pt_clust_6="13000.00000" pt_clust_7="13000.00000" pt_clust_8="13000.00000" pt_clust_9="20.36066"></scales>
<clustering>
<clus scale="   20.361">  2  9  1 -1</clus>
<clus scale="   90.803">  5  6 -1 -1</clus>
<clus scale="   93.238">  7  8 -1 -1</clus>
<clus scale="  108.176">  2  5  1 -1</clus>
<clus scale="  110.228">  1  5  2 -1</clus>
</clustering>
</event>
<event>
 9    1  0.1748361E-005  0.9324969E+02  0.7546771E-02  0.1295885E+00
         -1   -1    0    0    0  501 -0.00000000000E+00  0.00000000000E+00  0.21980376215E+02  0.21980376215E+02  0.00000000000E+00 0.  1.
          1   -1    0    0  502    0  0.00000000000E+00 -0.00000000000E+00 -0.50924002162E+03  0.50924002162E+03  0.00000000000E+00 0. -1.
         23    2    1    2    0    0 -0.21619256306E+02  0.13902226804E+02 -0.19870975386E+03  0.22005174731E+03  0.90975497044E+02 0.  0.
         23    2    1    2    0    0 -0.32755164582E+00 -0.71915017978E+01 -0.24611777177E+03  0.26292778612E+03  0.92223848040E+02 0.  0.
        -11    1    3    3    0    0 -0.15724736412E+01  0.45818259905E+02 -0.55606603033E+02  0.72068577861E+02  0.00000000000E+00 0.  1.
         11    1    3    3    0    0 -0.20046782665E+02 -0.31916033100E+02 -0.14310315082E+03  0.14798316945E+03  0.00000000000E+00 0. -1.
        -13    1    4    4    0    0  0.22364676329E+02  0.32611484939E+02 -0.16589924442E+03  0.17054690556E+03  0.00000000000E+00 0.  1.
         13    1    4    4    0    0 -0.22692227975E+02 -0.39802986736E+02 -0.80218527349E+02  0.92380880564E+02  0.00000000000E+00 0. -1.
         21    1    1    2  502  501  0.21946807952E+02 -0.67107250066E+01 -0.42432119777E+02  0.48240864401E+02  0.00000000000E+00 0.  1.
<scales pt_clust_5="13000.00000" pt_clust_6="13000.00000" pt_clust_7="13000.00000" pt_clust_8="13000.00000" pt_clust_9="22.94986"></scales>
<clustering>
<clus scale="   22.950">  1  9  2 -1</clus>
<clus scale="   90.975">  5  6 -1 -1</clus>
<clus scale="   92.015">  1  5  2 -1</clus>
<clus scale="   92.224">  7  8 -1 -1</clus>
<clus scale="   93.250">  2  5  1 -1</clus>
</clustering>
</event>
<event>
 9    1  0.1748361E-005  0.9453782E+02  0.7546771E-02  0.1292525E+00
         -1   -1    0    0    0  501 -0.00000000000E+00  0.00000000000E+00  0.64365812138E+02  0.64365812138E+02  0.00000000000E+00 0.  1.
          1   -1    0    0  502    0  0.00000000000E+00 -0.00000000000E+00 -0.25354573529E+03  0.25354573529E+03  0.00000000000E+00 0. -1.
         23    2    1    2    0    0 -0.90478131627E+01 -0.41248780893E+01 -0.46791042389E+02  0.10072772247E+03  0.88644203899E+02 0.  0.
         23    2    1    2    0    0  0.61448560464E+02  0.89530341369E+01 -0.76783259868E+02  0.13308122748E+03  0.89212452652E+02 0.  0.
        -11    1    3    3    0    0  0.37104594340E+02 -0.16772541207E+01 -0.33397716849E+01  0.37292334030E+02  0.00000000000E+00 0. -1.
         11    1    3    3    0    0 -0.46152407502E+02 -0.24476239686E+01 -0.43451270704E+02  0.63435388445E+02  0.00000000000E+00 0.  1.
        -13    1    4    4    0    0  0.21692645535E+02  0.45316819877E+02 -0.18065873203E+02  0.53390643456E+02  0.00000000000E+00 0.  1.
         13    1    4    4    0    0  0.39755914930E+02 -0.36363785740E+02 -0.58717386666E+02  0.79690584024E+02  0.00000000000E+00 0. -1.
         21    1    1    2  502  501 -0.52400747302E+02 -0.48281560476E+01 -0.65605620891E+02  0.84102597469E+02  0.00000000000E+00 0.  1.
<scales pt_clust_5="13000.00000" pt_clust_6="13000.00000" pt_clust_7="13000.00000" pt_clust_8="13000.00000" pt_clust_9="52.62271"></scales>
<clustering>
<clus scale="   52.623">  2  9  1 -1</clus>
<clus scale="   88.644">  5  6 -1 -1</clus>
<clus scale="   89.212">  7  8 -1 -1</clus>
<clus scale="   94.002">  1  5  2 -1</clus>
<clus scale="   52.623">  2  5  1 -1</clus>
</clustering>
</event>
<event>
 9    1  0.1748361E-005  0.1382150E+03  0.7546771E-02  0.1234711E+00
          1   -1    0    0  502    0  0.00000000000E+00  0.00000000000E+00  0.16874710347E+03  0.16874710347E+03  0.00000000000E+00 0. -1.
         -1   -1    0    0    0  501 -0.00000000000E+00 -0.00000000000E+00 -0.20140594673E+03  0.20140594673E+03  0.00000000000E+00 0.  1.
         23    2    1    2    0    0  0.11965476807E+02  0.13111560230E+02 -0.64438050199E+02  0.11326267372E+03  0.91438970348E+02 0.  0.
         23    2    1    2    0    0 -0.70385246711E+02 -0.85966395476E+02  0.64972606326E+02  0.15778185870E+03  0.91265389152E+02 0.  0.
        -11    1    4    4    0    0 -0.13033486520E+02 -0.17873611947E+02  0.65098739670E+02  0.68754517535E+02  0.00000000000E+00 0. -1.
         11    1    4    4    0    0 -0.57351760191E+02 -0.68092783529E+02 -0.12613334344E+00  0.89027341167E+02  0.00000000000E+00 0.  1.
        -13    1    3    3    0    0 -0.30008516390E+02 -0.21706185865E+02 -0.36452913875E+02  0.51966186032E+02  0.00000000000E+00 0.  1.
         13    1    3    3    0    0  0.41973993197E+02  0.34817746095E+02 -0.27985136325E+02  0.61296487691E+02  0.00000000000E+00 0. -1.
         21    1    1    2  502  501  0.58419769903E+02  0.72854835245E+02 -0.33193399383E+02  0.99108517781E+02  0.00000000000E+00 0. -1.
<scales pt_clust_5="13000.00000" pt_clust_6="13000.00000" pt_clust_7="13000.00000" pt_clust_8="13000.00000" pt_clust_9="103.79793"></scales>
<clustering>
<clus scale="   91.265">  5  6 -1 -1</clus>
<clus scale="   91.439">  7  8 -1 -1</clus>
<clus scale="   93.146">  2  7  1 -1</clus>
<clus scale="  103.798">  2  9  1 -1</clus>
<clus scale="  138.215">  1  5  2 -1</clus>
</clustering>
</event>
<event>
 9    1  0.1748361E-005  0.1818318E+03  0.7546771E-02  0.1167015E+00
         -3   -1    0    0    0  501 -0.00000000000E+00  0.00000000000E+00  0.13208109987E+03  0.13208109987E+03  0.00000000000E+00 0.  1.
          3   -1    0    0  502    0  0.00000000000E+00 -0.00000000000E+00 -0.39085779518E+03  0.39085779518E+03  0.00000000000E+00 0. -1.
         23    2    1    2    0    0 -0.84857165669E+02 -0.10813318624E+03 -0.53431354803E+02  0.17513210766E+03  0.94460684552E+02 0.  0.
         23    2    1    2    0    0  0.10503193099E+03  0.12694883058E+03 -0.23989287419E+03  0.30359613583E+03  0.86454094690E+02 0.  0.
        -11    1    4    4    0    0  0.56125592793E+02  0.87273578475E+02 -0.77772747436E+02  0.12967405257E+03  0.00000000000E+00 0.  1.
         11    1    4    4    0    0  0.48906338200E+02  0.39675252105E+02 -0.16212012676E+03  0.17392208326E+03  0.00000000000E+00 0. -1.
        -13    1    3    3    0    0 -0.21494975234E+02 -0.98714377592E+02 -0.20429688885E+02  0.10307247204E+03  0.00000000000E+00 0. -1.
         13    1    3    3    0    0 -0.63362190435E+02 -0.94188086472E+01 -0.33001665918E+02  0.72059635625E+02  0.00000000000E+00 0.  1.
         21    1    1    2  502  501 -0.20174765324E+02 -0.18815644341E+02  0.34547533686E+02  0.44210651563E+02  0.00000000000E+00 0.  1.
<scales pt_clust_5="13000.00000" pt_clust_6="13000.00000" pt_clust_7="13000.00000" pt_clust_8="13000.00000" pt_clust_9="27.58713"></scales>
<clustering>
<clus scale="   27.587">  1  9  2 -1</clus>
<clus scale="   86.454">  5  6 -1 -1</clus>
<clus scale="   94.461">  7  8 -1 -1</clus>
<clus scale="  177.804">  2  5  1 -1</clus>
<clus scale="  177.804">  2  5  1 -1</clus>
</clustering>
</event>
<event>
 9    1  0.1748361E-005  0.1559175E+03  0.7546771E-02  0.1193597E+00
          1   -1    0    0  502    0  0.00000000000E+00  0.00000000000E+00  0.88083636949E+03  0.88083636949E+03  0.00000000000E+00 0. -1.
         -1   -1    0    0    0  501 -0.00000000000E+00 -0.00000000000E+00 -0.57589513644E+02  0.57589513644E+02  0.00000000000E+00 0.  1.
         23    2    1    2    0    0  0.14114218722E+03 -0.20355222805E+02  0.19451144105E+03  0.25758511831E+03  0.90443022768E+02 0.  0.
         23    2    1    2    0    0 -0.11699769491E+03  0.33424068116E+02  0.63471400797E+03  0.65274281467E+03  0.91682502393E+02 0.  0.
        -11    1    3    3    0    0  0.11089035007E+03  0.11918710869E+02  0.87387819001E+02  0.14168753056E+03  0.00000000000E+00 0.  1.
         11    1    3    3    0    0  0.30251837158E+02 -0.32273933674E+02  0.10712362205E+03  0.11589758775E+03  0.00000000000E+00 0. -1.
        -13    1    4    4    0    0 -0.87337662155E+02 -0.13547271118E+02  0.48643928247E+03  0.49440324768E+03  0.00000000000E+00 0.  1.
         13    1    4    4    0    0 -0.29660032753E+02  0.46971339234E+02  0.14827472549E+03  0.15833956698E+03  0.00000000000E+00 0. -1.
         21    1    1    2  502  501 -0.24144492317E+02 -0.13068845312E+02 -0.59785931629E+01  0.28097950161E+02  0.00000000000E+00 0.  1.
<scales pt_clust_5="13000.00000" pt_clust_6="13000.00000" pt_clust_7="13000.00000" pt_clust_8="13000.00000" pt_clust_9="27.45453"></scales>
<clustering>
<clus scale="   27.455">  2  9  1 -1</clus>
<clus scale="   90.443">  5  6 -1 -1</clus>
<clus scale="   91.683">  7  8 -1 -1</clus>
<clus scale="  155.192">  2  5  1 -1</clus>
<clus scale="  155.917">  1  5  2 -1</clus>
</clustering>
</event>
<event>
 9    1  0.1748361E-005  0.1747531E+03  0.7546771E-02  0.1173471E+00
         -2   -1    0    0    0  501 -0.00000000000E+00  0.00000000000E+00  0.75118943009E+02  0.75118943009E+02  0.00000000000E+00 0.  1.
          2   -1    0    0  502    0  0.00000000000E+00 -0.00000000000E+00 -0.48937653248E+03  0.48937653248E+03  0.00000000000E+00 0. -1.
         23    2    1    2    0    0  0.58094458836E+02  0.15147543949E+03 -0.16984520182E+03  0.25168252132E+03  0.90426345946E+02 0.  0.
         23    2    1    2    0    0 -0.35590327255E+02 -0.12627317011E+03 -0.20251852318E+03  0.25899208274E+03  0.94082739171E+02 0.  0.
        -13    1    4    4    0    0  0.29402949480E+02 -0.59168261845E+02 -0.10408980890E+03  0.12328870575E+03  0.00000000000E+00 0. -1.
         13    1    4    4    0    0 -0.64993276734E+02 -0.67104908263E+02 -0.98428714278E+02  0.13570337700E+03  0.00000000000E+00 0.  1.
        -13    1    3    3    0    0  0.50391657468E+02  0.96991379145E+02 -0.16296955715E+03  0.19622875256E+03  0.00000000000E+00 0. -1.
         13    1    3    3    0    0  0.77028013682E+01  0.54484060347E+02 -0.68756446663E+01  0.55453768767E+02  0.00000000000E+00 0.  1.
         21    1    1    2  502  501 -0.22504131582E+02 -0.25202269383E+02 -0.41893864469E+02  0.53820871420E+02  0.00000000000E+00 0.  1.
<scales pt_clust_5="13000.00000" pt_clust_6="13000.00000" pt_clust_7="13000.00000" pt_clust_8="13000.00000" pt_clust_9="33.78743"></scales>
<clustering>
<clus scale="   33.787">  2  9  1 -1</clus>
<clus scale="   90.426">  7  8 -1 -1</clus>
<clus scale="   94.083">  5  6 -1 -1</clus>
<clus scale="  172.812">  1  7  2 -1</clus>
<clus scale="   33.787">  2  5  1 -1</clus>
</clustering>
</event>
<event>
 9    1  0.1748361E-005  0.1324796E+03  0.7546771E-02  0.1225273E+00
          1   -1    0    0  502    0  0.00000000000E+00  0.00000000000E+00  0.82715400727E+02  0.82715400727E+02  0.00000000000E+00 0. -1.
         -1   -1    0    0    0  501 -0.00000000000E+00 -0.00000000000E+00 -0.34635700694E+03  0.34635700694E+03  0.00000000000E+00 0.  1.
         23    2    1    2    0    0  0.48668391621E+02  0.23213743059E+02 -0.16609993856E+03  0.20058624401E+03  0.98682123437E+02 0.  0.
         23    2    1    2    0    0 -0.85138633873E+02 -0.62152043833E+02 -0.32724840224E+02  0.14453682802E+03  0.93319429677E+02 0.  0.
        -13    1    4    4    0    0 -0.15240538007E+02  0.18823654729E+02 -0.28612084088E+02  0.37486735414E+02  0.00000000000E+00 0.  1.
         13    1    4    4    0    0 -0.69898095866E+02 -0.80975698562E+02 -0.41127561363E+01  0.10705009260E+03  0.00000000000E+00 0. -1.
        -13    1    3    3    0    0 -0.43055970414E-01 -0.28535595256E+02 -0.12131931822E+02  0.31007512319E+02  0.00000000000E+00 0. -1.
         13    1    3    3    0    0  0.48711447591E+02  0.51749338316E+02 -0.15396800674E+03  0.16957873169E+03  0.00000000000E+00 0.  1.
         21    1    1    2  502  501  0.36470242252E+02  0.38938300773E+02 -0.64816827430E+02  0.83949335644E+02  0.00000000000E+00 0.  1.
<scales pt_clust_5="13000.00000" pt_clust_6="13000.00000" pt_clust_7="13000.00000" pt_clust_8="13000.00000" pt_clust_9="53.35044"></scales>
<clustering>
<clus scale="   53.350">  2  9  1 -1</clus>
<clus scale="   93.319">  5  6 -1 -1</clus>
<clus scale="   98.682">  7  8 -1 -1</clus>
<clus scale="  128.535">  1  5  2 -1</clus>
<clus scale="  128.535">  1  5  2 -1</clus>
</clustering>
</event>
<event>
 9    1  0.1748361E-005  0.9376223E+02  0.7546771E-02  0.1298861E+00
          2   -1    0    0  502    0  0.00000000000E+00  0.00000000000E+00  0.63994525039E+02  0.63994525039E+02  0.00000000000E+00 0. -1.
         -2   -1    0    0    0  501 -0.00000000000E+00 -0.00000000000E+00 -0.20596374022E+03  0.20596374022E+03  0.00000000000E+00 0.  1.
         23    2    1    2    0    0  0.13852408466E+02  0.13834112941E+02 -0.89604973865E+02  0.12535688055E+03  0.85451882705E+02 0.  0.
         23    2    1    2    0    0  0.27321024517E+01  0.15313942907E+02 -0.17927313241E+02  0.96533129311E+02  0.93569627890E+02 0.  0.
        -13    1    4    4    0    0 -0.20121513377E+02  0.43864714931E+02 -0.31381881462E+02  0.57565710285E+02  0.00000000000E+00 0. -1.
         13    1    4    4    0    0  0.22853615829E+02 -0.28550772023E+02  0.13454568221E+02  0.38967419026E+02  0.00000000000E+00 0.  1.
        -13    1    3    3    0    0  0.59058173229E+01 -0.33646444700E+02 -0.16783011628E+02  0.38060890669E+02  0.00000000000E+00 0.  1.
         13    1    3    3    0    0  0.79465911436E+01  0.47480557641E+02 -0.72821962237E+02  0.87295989878E+02  0.00000000000E+00 0. -1.
         21    1    1    2  502  501 -0.16584510918E+02 -0.29148055848E+02 -0.34436928074E+02  0.48068255401E+02  0.00000000000E+00 0. -1.
<scales pt_clust_5="13000.00000" pt_clust_6="13000.00000" pt_clust_7="13000.00000" pt_clust_8="13000.00000" pt_clust_9="33.53588"></scales>
<clustering>
<clus scale="   33.536">  2  9  1 -1</clus>
<clus scale="   85.452">  7  8 -1 -1</clus>
<clus scale="   85.663">  2  7  1 -1</clus>
<clus scale="   93.570">  5  6 -1 -1</clus>
<clus scale="   93.762">  1  5  2 -1</clus>
</clustering>
</event>
<event>
 9    1  0.1748361E-005  0.1032104E+03  0.7546771E-02  0.1276436E+00
          1   -1    0    0  502    0  0.00000000000E+00  0.00000000000E+00  0.55902184975E+02  0.55902184975E+02  0.00000000000E+00 0. -1.
         -1   -1    0    0    0  501 -0.00000000000E+00 -0.00000000000E+00 -0.27999683805E+03  0.27999683805E+03  0.00000000000E+00 0.  1.
         23    2    1    2    0    0 -0.51690369813E+02 -0.22207493565E+02 -0.16262060653E+03  0.19599900734E+03  0.93835398999E+02 0.  0.
         23    2    1    2    0    0  0.29173714945E+02  0.25626392830E+02 -0.29380160038E+02  0.10054641141E+03  0.87969138857E+02 0.  0.
        -11    1    3    3    0    0 -0.14308633926E+02 -0.55455045585E+02 -0.10569665740E+03  0.12021556668E+03  0.00000000000E+00 0.  1.
         11    1    3    3    0    0 -0.37381735887E+02  0.33247552020E+02 -0.56923949134E+02  0.75783440660E+02  0.00000000000E+00 0. -1.
        -13    1    4    4    0    0  0.52030919667E+02 -0.32855280810E+01 -0.35654217954E+02  0.63160387539E+02  0.00000000000E+00 0.  1.
         13    1    4    4    0    0 -0.22857204722E+02  0.28911920911E+02  0.62740579160E+01  0.37386023875E+02  0.00000000000E+00 0. -1.
         21    1    1    2  502  501  0.22516654868E+02 -0.34188992651E+01 -0.32093886503E+02  0.39353604276E+02  0.00000000000E+00 0.  1.
<scales pt_clust_5="13000.00000" pt_clust_6="13000.00000" pt_clust_7="13000.00000" pt_clust_8="13000.00000" pt_clust_9="22.77474"></scales>
<clustering>
<clus scale="   22.775">  2  9  1 -1</clus>
<clus scale="   87.969">  7  8 -1 -1</clus>
<clus scale="   93.835">  5  6 -1 -1</clus>
<clus scale="   97.907">  1  7  2 -1</clus>
<clus scale="   97.907">  1  5  2 -1</clus>
</clustering>
</event>
<event>
 9    1  0.1748361E-005  0.1134285E+03  0.7546771E-02  0.1254589E+00
          1   -1    0    0  502    0  0.00000000000E+00  0.00000000000E+00  0.11842748254E+03  0.11842748254E+03  0.00000000000E+00 0. -1.
         -1   -1    0    0    0  501 -0.00000000000E+00 -0.00000000000E+00 -0.20361736842E+03  0.20361736842E+03  0.00000000000E+00 0.  1.
         23    2    1    2    0    0  0.15658172117E+02 -0.58205987780E+02 -0.56158333686E+02  0.12215740900E+03  0.90197332355E+02 0.  0.
         23    2    1    2    0    0  0.61304001933E+01  0.72300000159E+02  0.42490207777E+02  0.12380363804E+03  0.90868317946E+02 0.  0.
        -11    1    4    4    0    0 -0.28338331332E+02  0.84124100119E+01  0.41813818422E+02  0.51207666183E+02  0.00000000000E+00 0.  1.
         11    1    4    4    0    0  0.34468731526E+02  0.63887590147E+02  0.67638935460E+00  0.72595971860E+02  0.00000000000E+00 0. -1.
        -13    1    3    3    0    0  0.32303975235E+02 -0.16623090864E+02  0.13988439366E+02  0.38930070662E+02  0.00000000000E+00 0. -1.
         13    1    3    3    0    0 -0.16645803119E+02 -0.41582896916E+02 -0.70146773052E+02  0.83227338339E+02  0.00000000000E+00 0.  1.
         21    1    1    2  502  501 -0.21788572310E+02 -0.14094012379E+02 -0.71521759975E+02  0.76083803915E+02  0.00000000000E+00 0.  1.
<scales pt_clust_5="13000.00000" pt_clust_6="13000.00000" pt_clust_7="13000.00000" pt_clust_8="13000.00000" pt_clust_9="25.94963"></scales>
<clustering>
<clus scale="   25.950">  2  9  1 -1</clus>
<clus scale="   90.197">  7  8 -1 -1</clus>
<clus scale="   90.868">  5  6 -1 -1</clus>
<clus scale="  112.892">  2  7  1 -1</clus>
<clus scale="  113.429">  1  5  2 -1</clus>
</clustering>
</event>
<event>
 9    1  0.1748361E-005  0.9213672E+02  0.7546771E-02  0.1301583E+00
         -1   -1    0    0    0  501 -0.00000000000E+00  0.00000000000E+00  0.24291068048E+03  0.24291068048E+03  0.00000000000E+00 0.  1.
          1   -1    0    0  502    0  0.00000000000E+00 -0.00000000000E+00 -0.32204636312E+03  0.32204636312E+03  0.00000000000E+00 0. -1.
         23    2    1    2    0    0  0.19833309436E+02 -0.35421958418E+02  0.20399075287E+03  0.22437486852E+03  0.84165189157E+02 0.  0.
         23    2    1    2    0    0 -0.10805172496E+02  0.12127895673E+02 -0.29774593544E+03  0.31163652957E+03  0.90558527427E+02 0.  0.
        -11    1    3    3    0    0  0.22955590193E+02 -0.60738167096E+02  0.16922970676E+03  0.18125886933E+03  0.00000000000E+00 0.  1.
         11    1    3    3    0    0 -0.31222807570E+01  0.25316208678E+02  0.34761046115E+02  0.43115999188E+02  0.00000000000E+00 0. -1.
        -13    1    4    4    0    0 -0.20563833965E+02 -0.28504628989E+02 -0.54663091224E+02  0.64987988762E+02  0.00000000000E+00 0.  1.
         13    1    4    4    0    0  0.97586614698E+01  0.40632524662E+02 -0.24308284421E+03  0.24664854081E+03  0.00000000000E+00 0. -1.
         21    1    1    2  502  501 -0.90281369405E+01  0.23294062745E+02  0.14619499922E+02  0.28945645506E+02  0.00000000000E+00 0.  1.
<scales pt_clust_5="13000.00000" pt_clust_6="13000.00000" pt_clust_7="13000.00000" pt_clust_8="13000.00000" pt_clust_9="24.98241"></scales>
<clustering>
<clus scale="   24.982">  1  9  2 -1</clus>
<clus scale="   84.165">  5  6 -1 -1</clus>
<clus scale="   85.861">  1  5  2 -1</clus>
<clus scale="   90.559">  7  8 -1 -1</clus>
<clus scale="   92.137">  2  5  1 -1</clus>
</clustering>
</event>
<event>
 9    1  0.1748361E-005  0.1127192E+03  0.7546771E-02  0.1256414E+00
          2   -1    0    0  502    0  0.00000000000E+00  0.00000000000E+00  0.88613742197E+02  0.88613742197E+02  0.00000000000E+00 0. -1.
         -2   -1    0    0    0  501 -0.00000000000E+00 -0.00000000000E+00 -0.38206128094E+03  0.38206128094E+03  0.00000000000E+00 0.  1.
         23    2    1    2    0    0 -0.39420034549E+02  0.78259890955E+01 -0.28458397850E+03  0.30261413419E+03  0.94721107292E+02 0.  0.
         23    2    1    2    0    0  0.56406590661E+02 -0.31004671241E+02  0.32793750901E+02  0.11745332067E+03  0.92611334781E+02 0.  0.
        -11    1    4    4    0    0  0.72048187428E+02 -0.49535384720E+02  0.32266962820E+02  0.93197921332E+02  0.00000000000E+00 0. -1.
         11    1    4    4    0    0 -0.15641596767E+02  0.18530713479E+02  0.52678808166E+00  0.24255399340E+02  0.00000000000E+00 0.  1.
        -11    1    3    3    0    0 -0.60359835984E+02  0.33613045955E+02 -0.20675610970E+03  0.21799365944E+03  0.00000000000E+00 0.  1.
         11    1    3    3    0    0  0.20939801435E+02 -0.25787056859E+02 -0.77827868800E+02  0.84620474754E+02  0.00000000000E+00 0. -1.
         21    1    1    2  502  501 -0.16986556112E+02  0.23178682145E+02 -0.41657311150E+02  0.50607568276E+02  0.00000000000E+00 0. -1.
<scales pt_clust_5="13000.00000" pt_clust_6="13000.00000" pt_clust_7="13000.00000" pt_clust_8="13000.00000" pt_clust_9="28.73664"></scales>
<clustering>
<clus scale="   28.737">  2  9  1 -1</clus>
<clus scale="   92.611">  5  6 -1 -1</clus>
<clus scale="   94.721">  7  8 -1 -1</clus>
<clus scale="  110.952">  1  5  2 -1</clus>
<clus scale="  110.952">  1  5  2 -1</clus>
</clustering>
</event>
<event>
 9    1  0.1748361E-005  0.1397936E+03  0.7546771E-02  0.1213878E+00
          1   -1    0    0  502    0  0.00000000000E+00  0.00000000000E+00  0.82860367471E+03  0.82860367471E+03  0.00000000000E+00 0. -1.
         -1   -1    0    0    0  501 -0.00000000000E+00 -0.00000000000E+00 -0.31991885108E+02  0.31991885108E+02  0.00000000000E+00 0.  1.
         23    2    1    2    0    0 -0.10916152797E+03 -0.37281089267E+02  0.40968168908E+03  0.43577050961E+03  0.93545346606E+02 0.  0.
         23    2    1    2    0    0  0.76764398530E+02  0.56337383599E+02  0.33822270860E+03  0.36330166947E+03  0.92340829309E+02 0.  0.
        -11    1    4    4    0    0  0.18095138090E+02  0.50008761172E+02  0.66018511141E+02  0.84774725182E+02  0.00000000000E+00 0.  1.
         11    1    4    4    0    0  0.58669260440E+02  0.63286224271E+01  0.27220419745E+03  0.27852694429E+03  0.00000000000E+00 0. -1.
        -11    1    3    3    0    0 -0.11830745595E+03 -0.10900170497E+02  0.35533150930E+03  0.37466778531E+03  0.00000000000E+00 0.  1.
         11    1    3    3    0    0  0.91459279894E+01 -0.26380918770E+02  0.54350179788E+02  0.61102724300E+02  0.00000000000E+00 0. -1.
         21    1    1    2  502  501  0.32397129435E+02 -0.19056294332E+02  0.48707391922E+02  0.61523380736E+02  0.00000000000E+00 0.  1.
<scales pt_clust_5="13000.00000" pt_clust_6="13000.00000" pt_clust_7="13000.00000" pt_clust_8="13000.00000" pt_clust_9="37.58612"></scales>
<clustering>
<clus scale="   37.586">  2  9  1 -1</clus>
<clus scale="   92.341">  5  6 -1 -1</clus>
<clus scale="   93.545">  7  8 -1 -1</clus>
<clus scale="  138.990">  1  5  2 -1</clus>
<clus scale="  138.990">  1  5  2 -1</clus>
</clustering>
</event>
<event>
 9    1  0.1748361E-005  0.1500082E+03  0.7546771E-02  0.1200780E+00
         -1   -1    0    0    0  501 -0.00000000000E+00  0.00000000000E+00  0.71901906436E+02  0.71901906436E+02  0.00000000000E+00 0.  1.
          1   -1    0    0  502    0  0.00000000000E+00 -0.00000000000E+00 -0.71662483788E+03  0.71662483788E+03  0.00000000000E+00 0. -1.
         23    2    1    2    0    0  0.13637226715E+01 -0.71940646843E+02 -0.86640247964E+02  0.14489778155E+03  0.91167527794E+02 0.  0.
         23    2    1    2    0    0 -0.17731935620E+02  0.13774999874E+03 -0.55124711344E+03  0.57547095362E+03  0.89464823737E+02 0.  0.
        -11    1    4    4    0    0 -0.42663166915E+02  0.12174867897E+03 -0.49903099346E+03  0.51543653254E+03  0.00000000000E+00 0.  1.
         11    1    4    4    0    0  0.24931231295E+02  0.16001319778E+02 -0.52216119981E+02  0.60034421080E+02  0.00000000000E+00 0. -1.
        -13    1    3    3    0    0 -0.38818613016E+02 -0.93308520135E+01 -0.18457233252E+02  0.43984303736E+02  0.00000000000E+00 0.  1.
         13    1    3    3    0    0  0.40182335688E+02 -0.62609794829E+02 -0.68183014712E+02  0.10091347782E+03  0.00000000000E+00 0. -1.
         21    1    1    2  502  501  0.16368212949E+02 -0.65809351901E+02 -0.68355700391E+01  0.68158009144E+02  0.00000000000E+00 0.  1.
<scales pt_clust_5="13000.00000" pt_clust_6="13000.00000" pt_clust_7="13000.00000" pt_clust_8="13000.00000" pt_clust_9="67.81437"></scales>
<clustering>
<clus scale="   67.814">  1  9  2 -1</clus>
<clus scale="   89.465">  5  6 -1 -1</clus>
<clus scale="   91.168">  7  8 -1 -1</clus>
<clus scale="  148.980">  2  5  1 -1</clus>
<clus scale="  148.980">  2  5  1 -1</clus>
</clustering>
</event>
<event>
 9    1  0.1748361E-005  0.1170431E+03  0.7546771E-02  0.1251623E+00
         -2   -1    0    0    0  501 -0.00000000000E+00  0.00000000000E+00  0.46117103396E+02  0.46117103396E+02  0.00000000000E+00 0.  1.
          2   -1    0    0  502    0  0.00000000000E+00 -0.00000000000E+00 -0.36761845356E+03  0.36761845356E+03  0.00000000000E+00 0. -1.
         23    2    1    2    0    0  0.42030244751E+02 -0.39064927791E+02 -0.10631582798E+03  0.14790127582E+03  0.85317771022E+02 0.  0.
         23    2    1    2    0    0 -0.71148515063E+02  0.33091307275E+02 -0.19125986498E+03  0.22767678016E+03  0.95389907546E+02 0.  0.
        -11    1    4    4    0    0  0.14076096063E+01  0.44296090603E+02 -0.40702791884E+02  0.60173434958E+02  0.00000000000E+00 0.  1.
         11    1    4    4    0    0 -0.72556124669E+02 -0.11204783328E+02 -0.15055707309E+03  0.16750334520E+03  0.00000000000E+00 0. -1.
        -13    1    3    3    0    0  0.64646734763E+02 -0.21127266153E+02 -0.49318876625E+02  0.84011387813E+02  0.00000000000E+00 0.  1.
         13    1    3    3    0    0 -0.22616490012E+02 -0.17937661638E+02 -0.56996951355E+02  0.63889888005E+02  0.00000000000E+00 0. -1.
         21    1    1    2  502  501  0.29118270312E+02  0.59736205154E+01 -0.23925657213E+02  0.38157500980E+02  0.00000000000E+00 0.  1.
<scales pt_clust_5="13000.00000" pt_clust_6="13000.00000" pt_clust_7="13000.00000" pt_clust_8="13000.00000" pt_clust_9="29.72470"></scales>
<clustering>
<clus scale="   29.725">  1  9  2 -1</clus>
<clus scale="   85.318">  7  8 -1 -1</clus>
<clus scale="   95.390">  5  6 -1 -1</clus>
<clus scale="  108.991">  1  7  2 -1</clus>
<clus scale="  117.043">  2  5  1 -1</clus>
</clustering>
</event>
<event>
 9    1  0.1748361E-005  0.9531338E+02  0.7546771E-02  0.1291647E+00
         -1   -1    0    0    0  501 -0.00000000000E+00  0.00000000000E+00  0.26947764847E+03  0.26947764847E+03  0.00000000000E+00 0.  1.
          1   -1    0    0  502    0  0.00000000000E+00 -0.00000000000E+00 -0.80369153174E+02  0.80369153174E+02  0.00000000000E+00 0. -1.
         23    2    1    2    0    0 -0.16881930811E+02  0.11072377800E+02  0.20125973481E+03  0.22304252401E+03  0.93994093009E+02 0.  0.
         23    2    1    2    0    0 -0.61622224316E+01  0.59442972828E+01 -0.24686257199E+02  0.95535652822E+02  0.91893100993E+02 0.  0.
        -11    1    3    3    0    0  0.27498063367E+02 -0.22651039482E+02  0.11455572628E+03  0.11996761022E+03  0.00000000000E+00 0.  1.
         11    1    3    3    0    0 -0.44379994177E+02  0.33723417282E+02  0.86704008530E+02  0.10307491378E+03  0.00000000000E+00 0. -1.
        -11    1    4    4    0    0 -0.21707118375E+01  0.48847282609E+02 -0.17004719729E+02  0.51768035516E+02  0.00000000000E+00 0. -1.
         11    1    4    4    0    0 -0.39915105941E+01 -0.42902985326E+02 -0.76815374702E+01  0.43767617306E+02  0.00000000000E+00 0.  1.
         21    1    1    2  502  501  0.23044153242E+02 -0.17016675083E+02  0.12535017682E+02  0.31268624815E+02  0.00000000000E+00 0.  1.
<scales pt_clust_5="13000.00000" pt_clust_6="13000.00000" pt_clust_7="13000.00000" pt_clust_8="13000.00000" pt_clust_9="28.64612"></scales>
<clustering>
<clus scale="   28.646">  2  9  1 -1</clus>
<clus scale="   91.893">  7  8 -1 -1</clus>
<clus scale="   93.242">  2  7  1 -1</clus>
<clus scale="   93.994">  5  6 -1 -1</clus>
<clus scale="   28.646">  2  5  1 -1</clus>
</clustering>
</event>
<event>
 9    1  0.1748361E-005  0.1707607E+03  0.7546771E-02  0.1178685E+00
          2   -1    0    0  502    0  0.00000000000E+00  0.00000000000E+00  0.13212280118E+04  0.13212280118E+04  0.00000000000E+00 0.  1.
         -2   -1    0    0    0  501 -0.00000000000E+00 -0.00000000000E+00 -0.25490636916E+02  0.25490636916E+02  0.00000000000E+00 0. -1.
         23    2    1    2    0    0 -0.14338734105E+03  0.28848617042E+02  0.65366584578E+03  0.67610671470E+03  0.91918874246E+02 0.  0.
         23    2    1    2    0    0  0.12349271189E+03 -0.31403826583E+02  0.61801092107E+03  0.63928721177E+03  0.10253775089E+03 0.  0.
        -13    1    3    3    0    0 -0.13369554881E+03 -0.57841674231E+01  0.56017191049E+03  0.57593448036E+03  0.00000000000E+00 0.  1.
         13    1    3    3    0    0 -0.96917922428E+01  0.34632784466E+02  0.93493935291E+02  0.10017223434E+03  0.00000000000E+00 0. -1.
        -13    1    4    4    0    0  0.35692062319E+02  0.34837842781E+02  0.26083194373E+03  0.26555771778E+03  0.00000000000E+00 0.  1.
         13    1    4    4    0    0  0.87800649567E+02 -0.66241669364E+02  0.35717897733E+03  0.37372949399E+03  0.00000000000E+00 0. -1.
         21    1    1    2  502  501  0.19894629165E+02  0.25552095408E+01  0.24060608074E+02  0.31324722286E+02  0.00000000000E+00 0. -1.
<scales pt_clust_5="13000.00000" pt_clust_6="13000.00000" pt_clust_7="13000.00000" pt_clust_8="13000.00000" pt_clust_9="20.05805"></scales>
<clustering>
<clus scale="   20.058">  2  9  1 -1</clus>
<clus scale="   91.919">  5  6 -1 -1</clus>
<clus scale="  102.538">  7  8 -1 -1</clus>
<clus scale="  164.603">  2  5  1 -1</clus>
<clus scale="  170.761">  1  5  2 -1</clus>
</clustering>
</event>
<event>
 9    1  0.1748361E-005  0.4485427E+03  0.7546771E-02  0.1028224E+00
         -2   -1    0    0    0  501 -0.00000000000E+00  0.00000000000E+00  0.28310324015E+03  0.28310324015E+03  0.00000000000E+00 0.  1.
          2   -1    0    0  502    0  0.00000000000E+00 -0.00000000000E+00 -0.96072298674E+03  0.96072298674E+03  0.00000000000E+00 0. -1.
         23    2    1    2    0    0  0.46020242343E+03 -0.84737874423E+02 -0.17984895078E+03  0.50972917014E+03  0.92257270185E+02 0.  0.
         23    2    1    2    0    0 -0.40854442652E+03  0.11954673625E+03 -0.51055566786E+03  0.67050728982E+03  0.87823488440E+02 0.  0.
        -11    1    3    3    0    0  0.43956156597E+03 -0.96567128100E+02 -0.15672513718E+03  0.47655256702E+03  0.00000000000E+00 0.  1.
         11    1    3    3    0    0  0.20640857454E+02  0.11829253678E+02 -0.23123813595E+02  0.33176603114E+02  0.00000000000E+00 0. -1.
        -13    1    4    4    0    0 -0.60146814478E+02 -0.64955388020E+01 -0.44351173970E+02  0.75012385302E+02  0.00000000000E+00 0.  1.
         13    1    4    4    0    0 -0.34839761204E+03  0.12604227505E+03 -0.46620449389E+03  0.59549490452E+03  0.00000000000E+00 0. -1.
         21    1    1    2  502  501 -0.51657996905E+02 -0.34808861830E+02  0.12784872052E+02  0.63589766940E+02  0.00000000000E+00 0.  1.
<scales pt_clust_5="13000.00000" pt_clust_6="13000.00000" pt_clust_7="13000.00000" pt_clust_8="13000.00000" pt_clust_9="62.29130"></scales>
<clustering>
<clus scale="   62.291">  1  9  2 -1</clus>
<clus scale="   87.823">  7  8 -1 -1</clus>
<clus scale="   92.257">  5  6 -1 -1</clus>
<clus scale="  447.652">  2  7  1 -1</clus>
<clus scale="  447.652">  2  5  1 -1</clus>
</clustering>
</event>
<event>
 9    1  0.1748361E-005  0.9365834E+02  0.7546771E-02  0.1294649E+00
         -1   -1    0    0    0  501 -0.00000000000E+00  0.00000000000E+00  0.31346076383E+02  0.31346076383E+02  0.00000000000E+00 0.  1.
          1   -1    0    0  502    0  0.00000000000E+00 -0.00000000000E+00 -0.57082408662E+03  0.57082408662E+03  0.00000000000E+00 0. -1.
         23    2    1    2    0    0  0.14025848664E+02  0.21505337017E+02 -0.87803857609E+02  0.12848738342E+03  0.90223535381E+02 0.  0.
         23    2    1    2    0    0  0.26501602644E+02 -0.35005362980E+02 -0.33062268785E+03  0.34531540781E+03  0.89463169908E+02 0.  0.
        -11    1    3    3    0    0 -0.25344394013E+02  0.33140994827E+02 -0.13952868130E+02  0.43992571817E+02  0.00000000000E+00 0.  1.
         11    1    3    3    0    0  0.39370242677E+02 -0.11635657810E+02 -0.73850989480E+02  0.84494811605E+02  0.00000000000E+00 0. -1.
        -13    1    4    4    0    0  0.20327998522E+02 -0.55511465871E+02 -0.30999460429E+03  0.31558105941E+03  0.00000000000E+00 0. -1.
         13    1    4    4    0    0  0.61736041215E+01  0.20506102891E+02 -0.20628083560E+02  0.29734348404E+02  0.00000000000E+00 0.  1.
         21    1    1    2  502  501 -0.40527451308E+02  0.13500025963E+02 -0.12105146477E+03  0.12836737177E+03  0.00000000000E+00 0.  1.
<scales pt_clust_5="13000.00000" pt_clust_6="13000.00000" pt_clust_7="13000.00000" pt_clust_8="13000.00000" pt_clust_9="42.71680"></scales>
<clustering>
<clus scale="   42.717">  2  9  1 -1</clus>
<clus scale="   89.463">  7  8 -1 -1</clus>
<clus scale="   90.224">  5  6 -1 -1</clus>
<clus scale="   92.926">  2  7  1 -1</clus>
<clus scale="   42.717">  2  5  1 -1</clus>
</clustering>
</event>
<event>
 9    1  0.1748361E-005  0.1037732E+03  0.7546771E-02  0.1275707E+00
         -1   -1    0    0    0  501 -0.00000000000E+00  0.00000000000E+00  0.24948622829E+03  0.24948622829E+03  0.00000000000E+00 0.  1.
          1   -1    0    0  502    0  0.00000000000E+00 -0.00000000000E+00 -0.79429703477E+02  0.79429703477E+02  0.00000000000E+00 0. -1.
         23    2    1    2    0    0 -0.13646246510E+02 -0.46472082180E+02  0.48468941828E+02  0.11963830023E+03  0.98072473677E+02 0.  0.
         23    2    1    2    0    0 -0.41886558788E+01  0.25707495933E+02  0.11598280778E+02  0.95933472515E+02  0.91598530810E+02 0.  0.
        -13    1    4    4    0    0 -0.32525832272E+02  0.37491017446E+02 -0.18479584580E+02  0.52962262040E+02  0.00000000000E+00 0.  1.
         13    1    4    4    0    0  0.28337176393E+02 -0.11783521513E+02  0.30077865357E+02  0.42971210475E+02  0.00000000000E+00 0. -1.
        -13    1    3    3    0    0  0.28406837082E+02 -0.19227421743E+02  0.59176708708E+02  0.68399744104E+02  0.00000000000E+00 0.  1.
         13    1    3    3    0    0 -0.42053083592E+02 -0.27244660437E+02 -0.10707766880E+02  0.51238556122E+02  0.00000000000E+00 0. -1.
         21    1    1    2  502  501  0.17834902389E+02  0.20764586247E+02  0.10998930221E+03  0.11334415902E+03  0.00000000000E+00 0.  1.
<scales pt_clust_5="13000.00000" pt_clust_6="13000.00000" pt_clust_7="13000.00000" pt_clust_8="13000.00000" pt_clust_9="27.37246"></scales>
<clustering>
<clus scale="   27.372">  1  9  2 -1</clus>
<clus scale="   91.599">  5  6 -1 -1</clus>
<clus scale="   97.678">  2  5  1 -1</clus>
<clus scale="   98.072">  7  8 -1 -1</clus>
<clus scale="   97.678">  2  5  1 -1</clus>
</clustering>
</event>
<event>
 9    1  0.1748361E-005  0.2873825E+03  0.7546771E-02  0.1091839E+00
          1   -1    0    0  502    0  0.00000000000E+00  0.00000000000E+00  0.65441499306E+03  0.65441499306E+03  0.00000000000E+00 0. -1.
         -1   -1    0    0    0  501 -0.00000000000E+00 -0.00000000000E+00 -0.35343655506E+03  0.35343655506E+03  0.00000000000E+00 0.  1.
         23    2    1    2    0    0  0.10478262505E+03  0.23969118248E+03  0.13385093674E+03  0.30703554153E+03  0.89013982199E+02 0.  0.
         23    2    1    2    0    0 -0.85295633283E+02 -0.26566117429E+03  0.38291738033E+03  0.48259718238E+03  0.91777533740E+02 0.  0.
        -11    1    4    4    0    0 -0.11954369317E+02 -0.39354752400E+02  0.13653730355E+02  0.43337372265E+02  0.00000000000E+00 0.  1.
         11    1    4    4    0    0 -0.73341263966E+02 -0.22630642189E+03  0.36926364998E+03  0.43925981012E+03  0.00000000000E+00 0. -1.
        -13    1    3    3    0    0  0.37883071945E+02  0.18793241208E+03  0.94834362672E+02  0.21388612623E+03  0.00000000000E+00 0.  1.
         13    1    3    3    0    0  0.66899553105E+02  0.51758770396E+02  0.39016574071E+02  0.93149415301E+02  0.00000000000E+00 0. -1.
         21    1    1    2  502  501 -0.19486991767E+02  0.25969991813E+02 -0.21578987907E+03  0.21821882420E+03  0.00000000000E+00 0.  1.
<scales pt_clust_5="13000.00000" pt_clust_6="13000.00000" pt_clust_7="13000.00000" pt_clust_8="13000.00000" pt_clust_9="32.46819"></scales>
<clustering>
<clus scale="   32.468">  2  9  1 -1</clus>
<clus scale="   89.014">  7  8 -1 -1</clus>
<clus scale="   91.778">  5  6 -1 -1</clus>
<clus scale="  286.512">  2  7  1 -1</clus>
<clus scale="  287.383">  1  5  2 -1</clus>
</clustering>
</event>
<event>
 9    1  0.1748361E-005  0.1124513E+03  0.7546771E-02  0.1257697E+00
          3   -1    0    0  502    0  0.00000000000E+00  0.00000000000E+00  0.22726009768E+03  0.22726009768E+03  0.00000000000E+00 0. -1.
         -3   -1    0    0    0  501 -0.00000000000E+00 -0.00000000000E+00 -0.10959831030E+03  0.10959831030E+03  0.00000000000E+00 0.  1.
         23    2    1    2    0    0  0.32936248515E+02  0.69698284489E+02 -0.31346281954E+02  0.12328934395E+03  0.90967167770E+02 0.  0.
         23    2    1    2    0    0  0.75587481948E-01 -0.64908146104E+02  0.14353498914E+03  0.17976549397E+03  0.86604079424E+02 0.  0.
        -11    1    4    4    0    0 -0.37471087266E+02 -0.44898637988E+02  0.49741929384E+02  0.76773886270E+02  0.00000000000E+00 0.  1.
         11    1    4    4    0    0  0.37546674748E+02 -0.20009508116E+02  0.93793059754E+02  0.10299160770E+03  0.00000000000E+00 0. -1.
        -13    1    3    3    0    0 -0.14735705484E+02  0.63407582451E+02 -0.36992212219E+02  0.74873802449E+02  0.00000000000E+00 0.  1.
         13    1    3    3    0    0  0.47671953999E+02  0.62907020388E+01  0.56459302647E+01  0.48415541500E+02  0.00000000000E+00 0. -1.
         21    1    1    2  502  501 -0.33011835997E+02 -0.47901383854E+01  0.54730801903E+01  0.33803570054E+02  0.00000000000E+00 0. -1.
<scales pt_clust_5="13000.00000" pt_clust_6="13000.00000" pt_clust_7="13000.00000" pt_clust_8="13000.00000" pt_clust_9="33.35756"></scales>
<clustering>
<clus scale="   33.358">  2  9  1 -1</clus>
<clus scale="   86.604">  5  6 -1 -1</clus>
<clus scale="   90.967">  7  8 -1 -1</clus>
<clus scale="  108.952">  1  5  2 -1</clus>
<clus scale="  108.952">  1  5  2 -1</clus>
</clustering>
</event>
<event>
 9    1  0.1748361E-005  0.1046619E+03  0.7546771E-02  0.1281086E+00
          1   -1    0    0  502    0  0.00000000000E+00  0.00000000000E+00  0.17464813760E+03  0.17464813760E+03  0.00000000000E+00 0. -1.
         -1   -1    0    0    0  501 -0.00000000000E+00 -0.00000000000E+00 -0.16817277497E+03  0.16817277497E+03  0.00000000000E+00 0.  1.
         23    2    1    2    0    0 -0.61993261239E+02  0.11036757699E+02  0.25739473256E+02  0.11529787463E+03  0.93091916680E+02 0.  0.
         23    2    1    2    0    0  0.37594836761E+02 -0.20737310631E+02  0.85590245933E+02  0.11943131794E+03  0.71377459350E+02 0.  0.
        -11    1    4    4    0    0  0.41783203362E+02 -0.42247703620E+02  0.50107708458E+02  0.77727002974E+02  0.00000000000E+00 0.  1.
         11    1    4    4    0    0 -0.41883666017E+01  0.21510392989E+02  0.35482537475E+02  0.41704314969E+02  0.00000000000E+00 0. -1.
        -13    1    3    3    0    0 -0.38563429749E+02 -0.39147740600E+02  0.18554288404E+01  0.54982963946E+02  0.00000000000E+00 0.  1.
         13    1    3    3    0    0 -0.23429831490E+02  0.50184498299E+02  0.23884044416E+02  0.60314910684E+02  0.00000000000E+00 0. -1.
         21    1    1    2  502  501  0.24398424478E+02  0.97005529323E+01 -0.10485435656E+03  0.10809172001E+03  0.00000000000E+00 0. -1.
<scales pt_clust_5="13000.00000" pt_clust_6="13000.00000" pt_clust_7="13000.00000" pt_clust_8="13000.00000" pt_clust_9="26.25612"></scales>
<clustering>
<clus scale="   26.256">  2  9  1 -1</clus>
<clus scale="   71.377">  5  6 -1 -1</clus>
<clus scale="   85.923">  1  5  2 -1</clus>
<clus scale="   93.092">  7  8 -1 -1</clus>
<clus scale="   85.923">  1  5  2 -1</clus>
</clustering>
</event>
<event>
 9    1  0.1748361E-005  0.1901353E+03  0.7546771E-02  0.1158680E+00
          2   -1    0    0  502    0  0.00000000000E+00  0.00000000000E+00  0.59062754416E+03  0.59062754416E+03  0.00000000000E+00 0. -1.
         -2   -1    0    0    0  501 -0.00000000000E+00 -0.00000000000E+00 -0.91397576373E+02  0.91397576373E+02  0.00000000000E+00 0.  1.
         23    2    1    2    0    0  0.15000252237E+03  0.15130816286E+02  0.16774047256E+03  0.24265582911E+03  0.89528134959E+02 0.  0.
         23    2    1    2    0    0 -0.17632384836E+03 -0.12501713401E+02  0.35284154348E+03  0.40537466907E+03  0.92655680762E+02 0.  0.
        -11    1    4    4    0    0 -0.30021984837E+02 -0.56738928427E+00  0.16121876530E+03  0.16399125522E+03  0.00000000000E+00 0.  1.
         11    1    4    4    0    0 -0.14630186353E+03 -0.11934324117E+02  0.19162277819E+03  0.24138341385E+03  0.00000000000E+00 0. -1.
        -13    1    3    3    0    0  0.11473473680E+03 -0.71816164475E+01  0.65695154371E+02  0.13240652836E+03  0.00000000000E+00 0.  1.
         13    1    3    3    0    0  0.35267785570E+02  0.22312432733E+02  0.10204531818E+03  0.11024930075E+03  0.00000000000E+00 0. -1.
         21    1    1    2  502  501  0.26321325993E+02 -0.26291028851E+01 -0.21352048253E+02  0.33994622348E+02  0.00000000000E+00 0.  1.
<scales pt_clust_5="13000.00000" pt_clust_6="13000.00000" pt_clust_7="13000.00000" pt_clust_8="13000.00000" pt_clust_9="26.45230"></scales>
<clustering>
<clus scale="   26.452">  2  9  1 -1</clus>
<clus scale="   89.528">  7  8 -1 -1</clus>
<clus scale="   92.656">  5  6 -1 -1</clus>
<clus scale="  188.631">  2  7  1 -1</clus>
<clus scale="  190.135">  1  5  2 -1</clus>
</clustering>
</event>
<event>
 9    1  0.1748361E-005  0.9820280E+02  0.7546771E-02  0.1284960E+00
          3   -1    0    0  502    0  0.00000000000E+00  0.00000000000E+00  0.12154894868E+03  0.12154894868E+03  0.00000000000E+00 0. -1.
         -3   -1    0    0    0  501 -0.00000000000E+00 -0.00000000000E+00 -0.12280802443E+03  0.12280802443E+03  0.00000000000E+00 0.  1.
         23    2    1    2    0    0  0.24806139587E+02  0.36446862163E+02 -0.40616847566E+02  0.10708405591E+03  0.88733017542E+02 0.  0.
         23    2    1    2    0    0 -0.33042404156E+02 -0.17634954905E+02  0.54261216174E+02  0.11189898248E+03  0.90411894091E+02 0.  0.
        -11    1    4    4    0    0 -0.55524248259E+02 -0.36830269397E+02  0.46762274227E+02  0.81400990040E+02  0.00000000000E+00 0. -1.
         11    1    4    4    0    0  0.22481844103E+02  0.19195314492E+02  0.74989419471E+01  0.30497992443E+02  0.00000000000E+00 0.  1.
        -13    1    3    3    0    0 -0.30386130214E+01  0.61383509859E+02 -0.28880098793E+02  0.67906027405E+02  0.00000000000E+00 0.  1.
         13    1    3    3    0    0  0.27844752609E+02 -0.24936647695E+02 -0.11736748772E+02  0.39178028509E+02  0.00000000000E+00 0. -1.
         21    1    1    2  502  501  0.82362645683E+01 -0.18811907259E+02 -0.14903444356E+02  0.25373934705E+02  0.00000000000E+00 0.  1.
<scales pt_clust_5="13000.00000" pt_clust_6="13000.00000" pt_clust_7="13000.00000" pt_clust_8="13000.00000" pt_clust_9="20.53592"></scales>
<clustering>
<clus scale="   20.536">  2  9  1 -1</clus>
<clus scale="   88.733">  7  8 -1 -1</clus>
<clus scale="   90.412">  5  6 -1 -1</clus>
<clus scale="   96.659">  2  7  1 -1</clus>
<clus scale="   98.203">  1  5  2 -1</clus>
</clustering>
</event>
<event>
 9    1  0.1748361E-005  0.1924886E+03  0.7546771E-02  0.1182886E+00
         -2   -1    0    0    0  501 -0.00000000000E+00  0.00000000000E+00  0.21203955269E+03  0.21203955269E+03  0.00000000000E+00 0.  1.
          2   -1    0    0  502    0  0.00000000000E+00 -0.00000000000E+00 -0.29473912173E+03  0.29473912173E+03  0.00000000000E+00 0. -1.
         23    2    1    2    0    0 -0.85258820671E+02 -0.15508478471E+03 -0.12605115214E+02  0.19929107810E+03  0.90761709596E+02 0.  0.
         23    2    1    2    0    0  0.38845125947E+02 -0.47930536902E+01 -0.92366181259E+02  0.13952574318E+03  0.96974246047E+02 0.  0.
        -11    1    4    4    0    0  0.60015814532E+02 -0.10087770913E+01 -0.10006142772E+03  0.11668421034E+03  0.00000000000E+00 0. -1.
         11    1    4    4    0    0 -0.21170688584E+02 -0.37842765989E+01  0.76952464602E+01  0.22841532843E+02  0.00000000000E+00 0.  1.
        -13    1    3    3    0    0 -0.37188175707E+01 -0.58251314476E+02  0.30120882671E+02  0.65683428771E+02  0.00000000000E+00 0.  1.
         13    1    3    3    0    0 -0.81540003100E+02 -0.96833470234E+02 -0.42725997884E+02  0.13360764933E+03  0.00000000000E+00 0. -1.
         21    1    1    2  502  501  0.46413694724E+02  0.15987783840E+03  0.22271727428E+02  0.16796185315E+03  0.00000000000E+00 0. -1.
<scales pt_clust_5="13000.00000" pt_clust_6="13000.00000" pt_clust_7="13000.00000" pt_clust_8="13000.00000" pt_clust_9="169.74734"></scales>
<clustering>
<clus scale="   90.762">  7  8 -1 -1</clus>
<clus scale="   96.974">  5  6 -1 -1</clus>
<clus scale="  104.575">  2  5  1 -1</clus>
<clus scale="  169.747">  1  9  2 -1</clus>
<clus scale="  104.575">  2  5  1 -1</clus>
</clustering>
</event>
<event>
 9    1  0.1748361E-005  0.1318826E+03  0.7546771E-02  0.1227139E+00
         -1   -1    0    0    0  501 -0.00000000000E+00  0.00000000000E+00  0.37359181770E+03  0.37359181770E+03  0.00000000000E+00 0.  1.
          1   -1    0    0  502    0  0.00000000000E+00 -0.00000000000E+00 -0.57151198035E+02  0.57151198035E+02  0.00000000000E+00 0. -1.
         23    2    1    2    0    0 -0.68426023176E+02  0.42570195162E+02  0.16062902474E+03  0.20092216361E+03  0.89853714876E+02 0.  0.
         23    2    1    2    0    0  0.86858402249E+02 -0.33047348389E+02  0.95062060818E+02  0.16562627990E+03  0.98786435858E+02 0.  0.
        -11    1    4    4    0    0  0.46083031762E+02 -0.66452016002E+02  0.43216293077E+02  0.91690589672E+02  0.00000000000E+00 0.  1.
         11    1    4    4    0    0  0.40775370487E+02  0.33404667613E+02  0.51845767741E+02  0.73935690227E+02  0.00000000000E+00 0. -1.
        -13    1    3    3    0    0 -0.53290062195E+02  0.91803932046E+01  0.23470711527E+02  0.58949000396E+02  0.00000000000E+00 0. -1.
         13    1    3    3    0    0 -0.15135960981E+02  0.33389801957E+02  0.13715831321E+03  0.14197316321E+03  0.00000000000E+00 0.  1.
         21    1    1    2  502  501 -0.18432379073E+02 -0.95228467724E+01  0.60749534112E+02  0.64194572230E+02  0.00000000000E+00 0. -1.
<scales pt_clust_5="13000.00000" pt_clust_6="13000.00000" pt_clust_7="13000.00000" pt_clust_8="13000.00000" pt_clust_9="20.74698"></scales>
<clustering>
<clus scale="   20.747">  1  9  2 -1</clus>
<clus scale="   89.854">  7  8 -1 -1</clus>
<clus scale="   98.786">  5  6 -1 -1</clus>
<clus scale="  125.331">  1  7  2 -1</clus>
<clus scale="  131.883">  2  5  1 -1</clus>
</clustering>
</event>
<event>
 9    1  0.1748361E-005  0.1052628E+03  0.7546771E-02  0.1271290E+00
         -1   -1    0    0    0  501 -0.00000000000E+00  0.00000000000E+00  0.49023635335E+03  0.49023635335E+03  0.00000000000E+00 0.  1.
          1   -1    0    0  502    0  0.00000000000E+00 -0.00000000000E+00 -0.49529390386E+02  0.49529390386E+02  0.00000000000E+00 0. -1.
         23    2    1    2    0    0 -0.17299500681E+02 -0.15809883975E+02  0.28496615734E+03  0.29947769463E+03  0.89061515799E+02 0.  0.
         23    2    1    2    0    0  0.56549394051E+02  0.87231701228E+01  0.37300253517E+02  0.11531229135E+03  0.92906877895E+02 0.  0.
        -13    1    3    3    0    0 -0.16316514641E+02  0.34792410933E+02  0.16215844095E+03  0.16664963390E+03  0.00000000000E+00 0.  1.
         13    1    3    3    0    0 -0.98298604023E+00 -0.50602294908E+02  0.12280771639E+03  0.13282806073E+03  0.00000000000E+00 0. -1.
        -13    1    4    4    0    0  0.49041156519E+02 -0.37635446337E+02  0.16727846574E+02  0.64041257832E+02  0.00000000000E+00 0. -1.
         13    1    4    4    0    0  0.75082375313E+01  0.46358616460E+02  0.20572406943E+02  0.51271033521E+02  0.00000000000E+00 0.  1.
         21    1    1    2  502  501 -0.39249893370E+02  0.70867138524E+01  0.11844055211E+03  0.12497575775E+03  0.00000000000E+00 0. -1.
<scales pt_clust_5="13000.00000" pt_clust_6="13000.00000" pt_clust_7="13000.00000" pt_clust_8="13000.00000" pt_clust_9="39.88453"></scales>
<clustering>
<clus scale="   39.885">  1  9  2 -1</clus>
<clus scale="   89.062">  5  6 -1 -1</clus>
<clus scale="   92.907">  7  8 -1 -1</clus>
<clus scale="  101.885">  1  5  2 -1</clus>
<clus scale="  105.263">  2  5  1 -1</clus>
</clustering>
</event>
<event>
 9    1  0.1748361E-005  0.9942414E+02  0.7546771E-02  0.1281685E+00
         -2   -1    0    0    0  501 -0.00000000000E+00  0.00000000000E+00  0.13557202878E+03  0.13557202878E+03  0.00000000000E+00 0.  1.
          2   -1    0    0  502    0  0.00000000000E+00 -0.00000000000E+00 -0.11306140725E+03  0.11306140725E+03  0.00000000000E+00 0. -1.
         23    2    1    2    0    0 -0.19331779392E+02  0.46720392298E+02 -0.65500789256E+01  0.10467344263E+03  0.91417248416E+02 0.  0.
         23    2    1    2    0    0  0.15199456387E+02 -0.23405834223E+02 -0.11892404705E+02  0.96654586367E+02  0.91770492131E+02 0.  0.
        -11    1    3    3    0    0 -0.25376177325E+02  0.17154451558E+02  0.39273280887E+02  0.49805784559E+02  0.00000000000E+00 0.  1.
         11    1    3    3    0    0  0.60443979334E+01  0.29565940740E+02 -0.45823359812E+02  0.54867658075E+02  0.00000000000E+00 0. -1.
        -13    1    4    4    0    0 -0.29640601851E+02 -0.73347466819E+01 -0.32642727606E+02  0.44698002780E+02  0.00000000000E+00 0.  1.
         13    1    4    4    0    0  0.44840058237E+02 -0.16071087541E+02  0.20750322902E+02  0.51956583587E+02  0.00000000000E+00 0. -1.
         21    1    1    2  502  501  0.41323230049E+01 -0.23314558075E+02  0.40953105165E+02  0.47305407030E+02  0.00000000000E+00 0. -1.
<scales pt_clust_5="13000.00000" pt_clust_6="13000.00000" pt_clust_7="13000.00000" pt_clust_8="13000.00000" pt_clust_9="23.67794"></scales>
<clustering>
<clus scale="   23.678">  1  9  2 -1</clus>
<clus scale="   91.417">  5  6 -1 -1</clus>
<clus scale="   91.770">  7  8 -1 -1</clus>
<clus scale="   99.098">  1  5  2 -1</clus>
<clus scale="   99.424">  2  5  1 -1</clus>
</clustering>
</event>
<event>
 9    1  0.1748361E-005  0.1007206E+03  0.7546771E-02  0.1280416E+00
          1   -1    0    0  502    0  0.00000000000E+00  0.00000000000E+00  0.71678577445E+03  0.71678577445E+03  0.00000000000E+00 0. -1.
         -1   -1    0    0    0  501 -0.00000000000E+00 -0.00000000000E+00 -0.34039850738E+02  0.34039850738E+02  0.00000000000E+00 0.  1.
         23    2    1    2    0    0 -0.47154245029E+01 -0.24037815359E+02  0.58264897109E+02  0.11074412563E+03  0.90936303701E+02 0.  0.
         23    2    1    2    0    0  0.17086259444E+02  0.43035894004E+02  0.59343950796E+03  0.60164271148E+03  0.87518422244E+02 0.  0.
        -13    1    4    4    0    0  0.51725404287E+02  0.13419658107E+02  0.31911431779E+03  0.32355764941E+03  0.00000000000E+00 0. -1.
         13    1    4    4    0    0 -0.34639144843E+02  0.29616235897E+02  0.27432519017E+03  0.27808506207E+03  0.00000000000E+00 0.  1.
        -13    1    3    3    0    0 -0.41350388433E+02  0.73326881201E+00  0.52236934964E+01  0.41685480452E+02  0.00000000000E+00 0.  1.
         13    1    3    3    0    0  0.36634963930E+02 -0.24771084171E+02  0.53041203612E+02  0.69058645178E+02  0.00000000000E+00 0. -1.
         21    1    1    2  502  501 -0.12370834941E+02 -0.18998078645E+02  0.31041518642E+02  0.38438788078E+02  0.00000000000E+00 0.  1.
<scales pt_clust_5="13000.00000" pt_clust_6="13000.00000" pt_clust_7="13000.00000" pt_clust_8="13000.00000" pt_clust_9="22.67079"></scales>
<clustering>
<clus scale="   22.671">  2  9  1 -1</clus>
<clus scale="   87.518">  5  6 -1 -1</clus>
<clus scale="   90.936">  7  8 -1 -1</clus>
<clus scale="   97.646">  1  5  2 -1</clus>
<clus scale="   97.646">  1  5  2 -1</clus>
</clustering>
</event>
<event>
 9    1  0.1748361E-005  0.9814761E+02  0.7546771E-02  0.1285880E+00
          1   -1    0    0  502    0  0.00000000000E+00  0.00000000000E+00  0.20750770526E+03  0.20750770526E+03  0.00000000000E+00 0. -1.
         -1   -1    0    0    0  501 -0.00000000000E+00 -0.00000000000E+00 -0.77739928618E+02  0.77739928618E+02  0.00000000000E+00 0.  1.
         23    2    1    2    0    0  0.97460971519E+01  0.58765505809E+02  0.44950836293E+02  0.11930991715E+03  0.93090856499E+02 0.  0.
         23    2    1    2    0    0  0.13745859291E+01 -0.15440462822E+02  0.79246293290E+02  0.12086265654E+03  0.89930580826E+02 0.  0.
        -11    1    3    3    0    0 -0.24713966303E+02 -0.12905468487E+02 -0.16014115849E+00  0.27881120718E+02  0.00000000000E+00 0.  1.
         11    1    3    3    0    0  0.34460063455E+02  0.71670974296E+02  0.45110977452E+02  0.91428796430E+02  0.00000000000E+00 0. -1.
        -11    1    4    4    0    0 -0.30166546970E+02 -0.36951843701E+02  0.23189430612E+02  0.53039692694E+02  0.00000000000E+00 0.  1.
         11    1    4    4    0    0  0.31541132899E+02  0.21511380879E+02  0.56056862678E+02  0.67822963849E+02  0.00000000000E+00 0. -1.
         21    1    1    2  502  501 -0.11120683081E+02 -0.43325042987E+02  0.55706470561E+01  0.45075060185E+02  0.00000000000E+00 0.  1.
<scales pt_clust_5="13000.00000" pt_clust_6="13000.00000" pt_clust_7="13000.00000" pt_clust_8="13000.00000" pt_clust_9="44.72951"></scales>
<clustering>
<clus scale="   44.730">  2  9  1 -1</clus>
<clus scale="   89.931">  7  8 -1 -1</clus>
<clus scale="   93.091">  5  6 -1 -1</clus>
<clus scale="   95.155">  1  7  2 -1</clus>
<clus scale="   95.155">  1  5  2 -1</clus>
</clustering>
</event>
<event>
 9    1  0.1748361E-005  0.9619399E+02  0.7546771E-02  0.1291039E+00
         -1   -1    0    0    0  501 -0.00000000000E+00  0.00000000000E+00  0.68612230514E+02  0.68612230514E+02  0.00000000000E+00 0.  1.
          1   -1    0    0  502    0  0.00000000000E+00 -0.00000000000E+00 -0.56672924129E+03  0.56672924129E+03  0.00000000000E+00 0. -1.
         23    2    1    2    0    0  0.24085276391E+02 -0.76182433923E+01 -0.95549464320E+01  0.93100065877E+02  0.89096504386E+02 0.  0.
         23    2    1    2    0    0 -0.91968490377E+02  0.68132218635E+02 -0.33271530809E+03  0.36180226556E+03  0.84268622219E+02 0.  0.
        -11    1    3    3    0    0  0.21378195999E+02 -0.47476603486E+02 -0.10601764430E+02  0.53136169902E+02  0.00000000000E+00 0.  1.
         11    1    3    3    0    0  0.27070803921E+01  0.39858360094E+02  0.10468179979E+01  0.39963895976E+02  0.00000000000E+00 0. -1.
        -11    1    4    4    0    0 -0.20036810510E+02 -0.96280643666E+01 -0.14805678733E+02  0.26709202938E+02  0.00000000000E+00 0.  1.
         11    1    4    4    0    0 -0.71931679867E+02  0.77760283002E+02 -0.31790962935E+03  0.33509306262E+03  0.00000000000E+00 0. -1.
         21    1    1    2  502  501  0.67883213986E+02 -0.60513975243E+02 -0.15584675626E+03  0.18043914037E+03  0.00000000000E+00 0.  1.
<scales pt_clust_5="13000.00000" pt_clust_6="13000.00000" pt_clust_7="13000.00000" pt_clust_8="13000.00000" pt_clust_9="90.93994"></scales>
<clustering>
<clus scale="   84.269">  7  8 -1 -1</clus>
<clus scale="   89.097">  5  6 -1 -1</clus>
<clus scale="   90.940">  2  9  1 -1</clus>
<clus scale="   91.740">  2  7  1 -1</clus>
<clus scale="   90.940">  2  5  1 -1</clus>
</clustering>
</event>
<event>
 9    1  0.1748361E-005  0.1579508E+03  0.7546771E-02  0.1191154E+00
         -3   -1    0    0    0  501 -0.00000000000E+00  0.00000000000E+00  0.16246424351E+03  0.16246424351E+03  0.00000000000E+00 0.  1.
          3   -1    0    0  502    0  0.00000000000E+00 -0.00000000000E+00 -0.43211392194E+03  0.43211392194E+03  0.00000000000E+00 0. -1.
         23    2    1    2    0    0  0.76428952426E+02 -0.92234849974E+02 -0.65784559474E+02  0.16343530309E+03  0.89637256268E+02 0.  0.
         23    2    1    2    0    0 -0.37800337105E+02  0.13263805937E+03 -0.28721953832E+03  0.33078077551E+03  0.88877094765E+02 0.  0.
        -13    1    4    4    0    0  0.52749685298E+00  0.31195500727E+02 -0.16268210082E+03  0.16564692404E+03  0.00000000000E+00 0.  1.
         13    1    4    4    0    0 -0.38327833958E+02  0.10144255864E+03 -0.12453743750E+03  0.16513385146E+03  0.00000000000E+00 0. -1.
        -13    1    3    3    0    0  0.49364759215E+02  0.14374769231E+00 -0.50666067802E+01  0.49624294655E+02  0.00000000000E+00 0. -1.
         13    1    3    3    0    0  0.27064193211E+02 -0.92378597667E+02 -0.60717952693E+02  0.11381100843E+03  0.00000000000E+00 0.  1.
         21    1    1    2  502  501 -0.38628615321E+02 -0.40403209393E+02  0.83354419363E+02  0.10036208686E+03  0.00000000000E+00 0. -1.
<scales pt_clust_5="13000.00000" pt_clust_6="13000.00000" pt_clust_7="13000.00000" pt_clust_8="13000.00000" pt_clust_9="55.89803"></scales>
<clustering>
<clus scale="   55.898">  1  9  2 -1</clus>
<clus scale="   88.877">  5  6 -1 -1</clus>
<clus scale="   89.637">  7  8 -1 -1</clus>
<clus scale="  157.521">  2  5  1 -1</clus>
<clus scale="  157.521">  2  5  1 -1</clus>
</clustering>
</event>
<event>
 9    1  0.1748361E-005  0.1583803E+03  0.7546771E-02  0.1190782E+00
          1   -1    0    0  502    0  0.00000000000E+00  0.00000000000E+00  0.83541400299E+02  0.83541400299E+02  0.00000000000E+00 0. -1.
         -1   -1    0    0    0  501 -0.00000000000E+00 -0.00000000000E+00 -0.51432278119E+03  0.51432278119E+03  0.00000000000E+00 0.  1.
         23    2    1    2    0    0 -0.14676625756E+02 -0.99804139412E+02 -0.30664771673E+03  0.33580899365E+03  0.92512639440E+02 0.  0.
         23    2    1    2    0    0  0.13491463196E+02  0.13554335362E+03 -0.39422083146E+02  0.17010548419E+03  0.93956132433E+02 0.  0.
        -11    1    3    3    0    0  0.10770952565E+02 -0.96900042692E+02 -0.16329749607E+03  0.19018860091E+03  0.00000000000E+00 0.  1.
         11    1    3    3    0    0 -0.25447578321E+02 -0.29040967202E+01 -0.14335022066E+03  0.14562039274E+03  0.00000000000E+00 0. -1.
        -13    1    4    4    0    0  0.36292929695E+02  0.23325481301E+02 -0.34924004194E+02  0.55506223909E+02  0.00000000000E+00 0.  1.
         13    1    4    4    0    0 -0.22801466499E+02  0.11221787232E+03 -0.44980789525E+01  0.11459926028E+03  0.00000000000E+00 0. -1.
         21    1    1    2  502  501  0.11851625598E+01 -0.35739214208E+02 -0.84711581024E+02  0.91949703654E+02  0.00000000000E+00 0.  1.
<scales pt_clust_5="13000.00000" pt_clust_6="13000.00000" pt_clust_7="13000.00000" pt_clust_8="13000.00000" pt_clust_9="35.75886"></scales>
<clustering>
<clus scale="   35.759">  2  9  1 -1</clus>
<clus scale="   92.513">  5  6 -1 -1</clus>
<clus scale="   93.956">  7  8 -1 -1</clus>
<clus scale="  157.528">  2  5  1 -1</clus>
<clus scale="  158.380">  1  5  2 -1</clus>
</clustering>
</event>
<event>
 9    1  0.1748361E-005  0.1703229E+03  0.7546771E-02  0.1177625E+00
         -1   -1    0    0    0  501 -0.00000000000E+00  0.00000000000E+00  0.66875585426E+03  0.66875585426E+03  0.00000000000E+00 0.  1.
          1   -1    0    0  502    0  0.00000000000E+00 -0.00000000000E+00 -0.24076699163E+03  0.24076699163E+03  0.00000000000E+00 0. -1.
         23    2    1    2    0    0  0.44183720432E+02 -0.12167062418E+03  0.56777031240E+03  0.58939173344E+03  0.90904047604E+02 0.  0.
         23    2    1    2    0    0  0.42373325884E+01  0.14479095605E+03 -0.18334475557E+03  0.25101592068E+03  0.91713232968E+02 0.  0.
        -13    1    3    3    0    0  0.13262181073E+02 -0.10861602080E+03  0.51752868441E+03  0.52897000351E+03  0.00000000000E+00 0.  1.
         13    1    3    3    0    0  0.30921539359E+02 -0.13054603384E+02  0.50241627986E+02  0.60421729937E+02  0.00000000000E+00 0. -1.
        -13    1    4    4    0    0 -0.43326641961E+02  0.72442237434E+02 -0.81402326689E+02  0.11726642511E+03  0.00000000000E+00 0.  1.
         13    1    4    4    0    0  0.47563974549E+02  0.72348718615E+02 -0.10194242888E+03  0.13374949557E+03  0.00000000000E+00 0. -1.
         21    1    1    2  502  501 -0.48421053020E+02 -0.23120331865E+02  0.43563305800E+02  0.69115191770E+02  0.00000000000E+00 0.  1.
<scales pt_clust_5="13000.00000" pt_clust_6="13000.00000" pt_clust_7="13000.00000" pt_clust_8="13000.00000" pt_clust_9="53.65769"></scales>
<clustering>
<clus scale="   53.658">  1  9  2 -1</clus>
<clus scale="   90.904">  5  6 -1 -1</clus>
<clus scale="   91.713">  7  8 -1 -1</clus>
<clus scale="  169.889">  1  5  2 -1</clus>
<clus scale="  170.323">  2  5  1 -1</clus>
</clustering>
</event>
<event>
 9    1  0.1748361E-005  0.9319835E+02  0.7546771E-02  0.1296088E+00
         -1   -1    0    0    0  501 -0.00000000000E+00  0.00000000000E+00  0.11706667191E+03  0.11706667191E+03  0.00000000000E+00 0.  1.
          1   -1    0    0  502    0  0.00000000000E+00 -0.00000000000E+00 -0.11093585113E+03  0.11093585113E+03  0.00000000000E+00 0. -1.
         23    2    1    2    0    0 -0.13527034678E+02 -0.75741613633E+01  0.86892587863E+01  0.93410287813E+02  0.91704035154E+02 0.  0.
         23    2    1    2    0    0 -0.18380969138E+02 -0.10039309401E+02 -0.13912188748E+02  0.96418124690E+02  0.93081996183E+02 0.  0.
        -11    1    4    4    0    0  0.13022397041E+01 -0.47465960492E+02  0.89904531732E+01  0.48327440258E+02  0.00000000000E+00 0. -1.
         11    1    4    4    0    0 -0.19683208842E+02  0.37426651091E+02 -0.22902641921E+02  0.48090684432E+02  0.00000000000E+00 0.  1.
        -13    1    3    3    0    0 -0.26233679788E+02  0.21165040753E+02  0.37750489928E+02  0.50608935922E+02  0.00000000000E+00 0.  1.
         13    1    3    3    0    0  0.12706645110E+02 -0.28739202116E+02 -0.29061231142E+02  0.42801351892E+02  0.00000000000E+00 0. -1.
         21    1    1    2  502  501  0.31908003815E+02  0.17613470765E+02  0.11353750739E+02  0.38174110542E+02  0.00000000000E+00 0. -1.
<scales pt_clust_5="13000.00000" pt_clust_6="13000.00000" pt_clust_7="13000.00000" pt_clust_8="13000.00000" pt_clust_9="36.44661"></scales>
<clustering>
<clus scale="   36.447">  1  9  2 -1</clus>
<clus scale="   91.704">  7  8 -1 -1</clus>
<clus scale="   91.822">  1  7  2 -1</clus>
<clus scale="   93.082">  5  6 -1 -1</clus>
<clus scale="   93.198">  2  5  1 -1</clus>
</clustering>
</event>
<event>
 9    1  0.1748361E-005  0.1166550E+03  0.7546771E-02  0.1251199E+00
         -2   -1    0    0    0  501 -0.00000000000E+00  0.00000000000E+00  0.11306011226E+03  0.11306011226E+03  0.00000000000E+00 0.  1.
          2   -1    0    0  502    0  0.00000000000E+00 -0.00000000000E+00 -0.69247942007E+03  0.69247942007E+03  0.00000000000E+00 0. -1.
         23    2    1    2    0    0  0.18203626074E+02 -0.49635387242E+01 -0.14469629760E+02  0.10119687167E+03  0.98363753134E+02 0.  0.
         23    2    1    2    0    0 -0.61662061124E+02  0.28685766490E+02 -0.61993774378E+03  0.63034896472E+03  0.91607467925E+02 0.  0.
        -11    1    3    3    0    0 -0.14166994822E+02  0.33770114981E+02  0.18375199467E+02  0.40972824696E+02  0.00000000000E+00 0.  1.
         11    1    3    3    0    0  0.32370620896E+02 -0.38733653705E+02 -0.32844829226E+02  0.60224046970E+02  0.00000000000E+00 0. -1.
        -13    1    4    4    0    0 -0.31690395429E+02  0.61692474986E+02 -0.36129981767E+03  0.36789645402E+03  0.00000000000E+00 0. -1.
         13    1    4    4    0    0 -0.29971665696E+02 -0.33006708495E+02 -0.25863792611E+03  0.26245251070E+03  0.00000000000E+00 0.  1.
         21    1    1    2  502  501  0.43458435050E+02 -0.23722227766E+02  0.54988065731E+02  0.73993695948E+02  0.00000000000E+00 0. -1.
<scales pt_clust_5="13000.00000" pt_clust_6="13000.00000" pt_clust_7="13000.00000" pt_clust_8="13000.00000" pt_clust_9="49.51141"></scales>
<clustering>
<clus scale="   49.511">  1  9  2 -1</clus>
<clus scale="   91.607">  7  8 -1 -1</clus>
<clus scale="   98.364">  5  6 -1 -1</clus>
<clus scale="  111.017">  2  7  1 -1</clus>
<clus scale="  111.017">  2  5  1 -1</clus>
</clustering>
</event>
<event>
 9    1  0.1748361E-005  0.1044179E+03  0.7546771E-02  0.1275945E+00
         -2   -1    0    0    0  501 -0.00000000000E+00  0.00000000000E+00  0.49359915274E+02  0.49359915274E+02  0.00000000000E+00 0.  1.
          2   -1    0    0  502    0  0.00000000000E+00 -0.00000000000E+00 -0.31080942525E+03  0.31080942525E+03  0.00000000000E+00 0. -1.
         23    2    1    2    0    0  0.37150305877E+02  0.11130671216E+01 -0.52806192998E+02  0.11226594938E+03  0.91835533566E+02 0.  0.
         23    2    1    2    0    0 -0.15531904273E+02 -0.18755920404E+02 -0.18012834299E+03  0.20800690883E+03  0.10113174364E+03 0.  0.
        -13    1    3    3    0    0  0.57491400129E+02 -0.27469671767E+02 -0.37998051661E+02  0.74186898343E+02  0.00000000000E+00 0.  1.
         13    1    3    3    0    0 -0.20341094252E+02  0.28582738889E+02 -0.14808141337E+02  0.38079051033E+02  0.00000000000E+00 0. -1.
        -13    1    4    4    0    0 -0.49211564963E+02 -0.13996079111E+02 -0.43338380500E+02  0.67051350329E+02  0.00000000000E+00 0. -1.
         13    1    4    4    0    0  0.33679660691E+02 -0.47598412933E+01 -0.13678996249E+03  0.14095555850E+03  0.00000000000E+00 0.  1.
         21    1    1    2  502  501 -0.21618401605E+02  0.17642853282E+02 -0.28514973980E+02  0.39896482313E+02  0.00000000000E+00 0. -1.
<scales pt_clust_5="13000.00000" pt_clust_6="13000.00000" pt_clust_7="13000.00000" pt_clust_8="13000.00000" pt_clust_9="27.90386"></scales>
<clustering>
<clus scale="   27.904">  1  9  2 -1</clus>
<clus scale="   91.836">  5  6 -1 -1</clus>
<clus scale="   95.442">  1  5  2 -1</clus>
<clus scale="  101.132">  7  8 -1 -1</clus>
<clus scale="  104.418">  2  5  1 -1</clus>
</clustering>
</event>
<event>
 9    1  0.1748361E-005  0.1119622E+03  0.7546771E-02  0.1257245E+00
         -2   -1    0    0    0  501 -0.00000000000E+00  0.00000000000E+00  0.69080909438E+02  0.69080909438E+02  0.00000000000E+00 0.  1.
          2   -1    0    0  502    0  0.00000000000E+00 -0.00000000000E+00 -0.61367221870E+03  0.61367221870E+03  0.00000000000E+00 0. -1.
         23    2    1    2    0    0  0.44895517105E+02 -0.84447940758E+02 -0.25670256549E+03  0.28792638199E+03  0.88647234358E+02 0.  0.
         23    2    1    2    0    0  0.21680598621E+02  0.57054917524E+02 -0.30257632723E+03  0.32135238317E+03  0.89384609408E+02 0.  0.
        -11    1    4    4    0    0  0.22091600255E+02  0.79984244238E+02 -0.26096742045E+03  0.27384213091E+03  0.00000000000E+00 0. -1.
         11    1    4    4    0    0 -0.41100163395E+00 -0.22929326714E+02 -0.41608906784E+02  0.47510252258E+02  0.00000000000E+00 0.  1.
        -11    1    3    3    0    0 -0.23800452559E+02 -0.74207378531E+01 -0.31279455572E+02  0.39999165406E+02  0.00000000000E+00 0.  1.
         11    1    3    3    0    0  0.68695969664E+02 -0.77027202905E+02 -0.22542310992E+03  0.24792721658E+03  0.00000000000E+00 0. -1.
         21    1    1    2  502  501 -0.66576115727E+02  0.27393023234E+02  0.14687583463E+02  0.73474362979E+02  0.00000000000E+00 0.  1.
<scales pt_clust_5="13000.00000" pt_clust_6="13000.00000" pt_clust_7="13000.00000" pt_clust_8="13000.00000" pt_clust_9="71.99137"></scales>
<clustering>
<clus scale="   71.991">  1  9  2 -1</clus>
<clus scale="   88.647">  7  8 -1 -1</clus>
<clus scale="   89.385">  5  6 -1 -1</clus>
<clus scale="  111.374">  1  7  2 -1</clus>
<clus scale="  111.962">  2  5  1 -1</clus>
</clustering>
</event>
<event>
 9    1  0.1748361E-005  0.1225352E+03  0.7546771E-02  0.1239165E+00
         -2   -1    0    0    0  501 -0.00000000000E+00  0.00000000000E+00  0.16072150896E+03  0.16072150896E+03  0.00000000000E+00 0.  1.
          2   -1    0    0  502    0  0.00000000000E+00 -0.00000000000E+00 -0.23044947713E+03  0.23044947713E+03  0.00000000000E+00 0. -1.
         23    2    1    2    0    0 -0.51157943269E+02 -0.24724277737E+02  0.83362884953E+02  0.13666655008E+03  0.92195174792E+02 0.  0.
         23    2    1    2    0    0  0.46073095108E+02  0.72728200062E+02 -0.16180568196E+03  0.20545160243E+03  0.92828665015E+02 0.  0.
        -13    1    3    3    0    0 -0.16661344743E+02  0.18048594568E+02 -0.11434515740E+02  0.27094285832E+02  0.00000000000E+00 0. -1.
         13    1    3    3    0    0 -0.34496598526E+02 -0.42772872305E+02  0.94797400693E+02  0.10957226425E+03  0.00000000000E+00 0.  1.
        -13    1    4    4    0    0  0.33688625423E+02 -0.14103299705E+02 -0.66919483341E+02  0.76236761448E+02  0.00000000000E+00 0.  1.
         13    1    4    4    0    0  0.12384469685E+02  0.86831499766E+02 -0.94886198623E+02  0.12921484098E+03  0.00000000000E+00 0. -1.
         21    1    1    2  502  501  0.50848481608E+01 -0.48003922325E+02  0.87148288412E+01  0.49052833569E+02  0.00000000000E+00 0. -1.
<scales pt_clust_5="13000.00000" pt_clust_6="13000.00000" pt_clust_7="13000.00000" pt_clust_8="13000.00000" pt_clust_9="48.27248"></scales>
<clustering>
<clus scale="   48.272">  1  9  2 -1</clus>
<clus scale="   92.195">  5  6 -1 -1</clus>
<clus scale="   92.829">  7  8 -1 -1</clus>
<clus scale="  122.056">  1  5  2 -1</clus>
<clus scale="  122.535">  2  5  1 -1</clus>
</clustering>
</event>
<event>
 9    1  0.1748361E-005  0.1052856E+03  0.7546771E-02  0.1272870E+00
          3   -1    0    0  502    0  0.00000000000E+00  0.00000000000E+00  0.33156793859E+03  0.33156793859E+03  0.00000000000E+00 0. -1.
         -3   -1    0    0    0  501 -0.00000000000E+00 -0.00000000000E+00 -0.50589423647E+02  0.50589423647E+02  0.00000000000E+00 0.  1.
         23    2    1    2    0    0 -0.10321725774E+02 -0.35777154608E+02  0.74076358481E+02  0.12710030506E+03  0.96336067216E+02 0.  0.
         23    2    1    2    0    0  0.18992792628E+02  0.40408466083E+01  0.19240150427E+03  0.21910362118E+03  0.10300972457E+03 0.  0.
        -11    1    4    4    0    0 -0.66556021094E+00 -0.41059064266E+02  0.14530760723E+03  0.15099864386E+03  0.00000000000E+00 0.  1.
         11    1    4    4    0    0  0.19658352839E+02  0.45099910875E+02  0.47093897041E+02  0.68104977320E+02  0.00000000000E+00 0. -1.
        -11    1    3    3    0    0 -0.18308264304E+02 -0.87278285785E+01  0.91651417625E+02  0.93868790800E+02  0.00000000000E+00 0. -1.
         11    1    3    3    0    0  0.79865385303E+01 -0.27049326029E+02 -0.17575059144E+02  0.33231514264E+02  0.00000000000E+00 0.  1.
         21    1    1    2  502  501 -0.86710668536E+01  0.31736308000E+02  0.14500652192E+02  0.35953435995E+02  0.00000000000E+00 0. -1.
<scales pt_clust_5="13000.00000" pt_clust_6="13000.00000" pt_clust_7="13000.00000" pt_clust_8="13000.00000" pt_clust_9="32.89955"></scales>
<clustering>
<clus scale="   32.900">  2  9  1 -1</clus>
<clus scale="   96.336">  7  8 -1 -1</clus>
<clus scale="   98.766">  2  7  1 -1</clus>
<clus scale="  103.010">  5  6 -1 -1</clus>
<clus scale="  105.286">  1  5  2 -1</clus>
</clustering>
</event>
<event>
 9    1  0.1748361E-005  0.9831645E+02  0.7546771E-02  0.1284337E+00
         -1   -1    0    0    0  501 -0.00000000000E+00  0.00000000000E+00  0.43761316581E+03  0.43761316581E+03  0.00000000000E+00 0.  1.
          1   -1    0    0  502    0  0.00000000000E+00 -0.00000000000E+00 -0.65290422167E+02  0.65290422167E+02  0.00000000000E+00 0. -1.
         23    2    1    2    0    0  0.30198976029E+02 -0.71023363731E+02  0.18211439623E+03  0.22005109053E+03  0.96439269895E+02 0.  0.
         23    2    1    2    0    0  0.14941608323E+02  0.19858118674E+01  0.27750455049E+02  0.10065364259E+03  0.95571297483E+02 0.  0.
        -13    1    4    4    0    0  0.30468961648E+02  0.23066728000E+02 -0.22244243275E+02  0.44218072361E+02  0.00000000000E+00 0. -1.
         13    1    4    4    0    0 -0.15527353325E+02 -0.21080916132E+02  0.49994698324E+02  0.56435570226E+02  0.00000000000E+00 0.  1.
        -13    1    3    3    0    0  0.20740454397E+02 -0.41719435664E+02  0.13300555617E+02  0.48451857967E+02  0.00000000000E+00 0. -1.
         13    1    3    3    0    0  0.94585216313E+01 -0.29303928067E+02  0.16881384061E+03  0.17159923256E+03  0.00000000000E+00 0.  1.
         21    1    1    2  502  501 -0.45140584351E+02  0.69037551864E+02  0.16245789237E+03  0.18219885487E+03  0.00000000000E+00 0. -1.
<scales pt_clust_5="13000.00000" pt_clust_6="13000.00000" pt_clust_7="13000.00000" pt_clust_8="13000.00000" pt_clust_9="82.48549"></scales>
<clustering>
<clus scale="   82.485">  1  9  2 -1</clus>
<clus scale="   95.571">  5  6 -1 -1</clus>
<clus scale="   96.439">  7  8 -1 -1</clus>
<clus scale="   97.465">  2  5  1 -1</clus>
<clus scale="   97.465">  2  5  1 -1</clus>
</clustering>
</event>
<event>
 9    1  0.1748361E-005  0.9376242E+02  0.7546771E-02  0.1294006E+00
         -1   -1    0    0    0  501 -0.00000000000E+00  0.00000000000E+00  0.69574134776E+02  0.69574134776E+02  0.00000000000E+00 0.  1.
          1   -1    0    0  502    0  0.00000000000E+00 -0.00000000000E+00 -0.25264383707E+03  0.25264383707E+03  0.00000000000E+00 0. -1.
         23    2    1    2    0    0  0.24356397938E+02 -0.13140083641E+02  0.52694908624E+00  0.93790639051E+02  0.89613114998E+02 0.  0.
         23    2    1    2    0    0 -0.35895728122E+02 -0.18076832125E+02 -0.15965490646E+03  0.18742905087E+03  0.89580605017E+02 0.  0.
        -11    1    3    3    0    0  0.16050110755E+02 -0.43749426663E+02 -0.25176477019E+02  0.52966719586E+02  0.00000000000E+00 0. -1.
         11    1    3    3    0    0  0.83062871833E+01  0.30609343021E+02  0.25703426106E+02  0.40823919466E+02  0.00000000000E+00 0.  1.
        -13    1    4    4    0    0 -0.16722937191E+02  0.36578474784E+02 -0.68162499520E+02  0.79143968732E+02  0.00000000000E+00 0.  1.
         13    1    4    4    0    0 -0.19172790931E+02 -0.54655306909E+02 -0.91492406942E+02  0.10828508214E+03  0.00000000000E+00 0. -1.
         21    1    1    2  502  501  0.11539330184E+02  0.31216915766E+02 -0.23941744918E+02  0.40998281924E+02  0.00000000000E+00 0.  1.
<scales pt_clust_5="13000.00000" pt_clust_6="13000.00000" pt_clust_7="13000.00000" pt_clust_8="13000.00000" pt_clust_9="33.28141"></scales>
<clustering>
<clus scale="   33.281">  2  9  1 -1</clus>
<clus scale="   89.581">  7  8 -1 -1</clus>
<clus scale="   89.613">  5  6 -1 -1</clus>
<clus scale="   93.731">  2  7  1 -1</clus>
<clus scale="   33.281">  2  5  1 -1</clus>
</clustering>
</event>
<event>
 9    1  0.1748361E-005  0.9700697E+02  0.7546771E-02  0.1287715E+00
          4   -1    0    0  502    0  0.00000000000E+00  0.00000000000E+00  0.30857268300E+03  0.30857268300E+03  0.00000000000E+00 0. -1.
         -4   -1    0    0    0  501 -0.00000000000E+00 -0.00000000000E+00 -0.44417401537E+02  0.44417401537E+02  0.00000000000E+00 0.  1.
         23    2    1    2    0    0 -0.34254174331E+02 -0.14224408599E+02  0.12546866968E+03  0.16045941734E+03  0.92893246699E+02 0.  0.
         23    2    1    2    0    0  0.22332516171E+02 -0.40127134722E+01  0.14231343052E+03  0.17044283414E+03  0.91009911855E+02 0.  0.
        -13    1    4    4    0    0  0.39607609851E+02 -0.21207536385E+02  0.26646322483E+02  0.52235513394E+02  0.00000000000E+00 0.  1.
         13    1    4    4    0    0 -0.17275093680E+02  0.17194822913E+02  0.11566710804E+03  0.11820732075E+03  0.00000000000E+00 0. -1.
        -13    1    3    3    0    0  0.24740231727E+02  0.18054710589E+02  0.24868165274E+02  0.39452215203E+02  0.00000000000E+00 0.  1.
         13    1    3    3    0    0 -0.58994406058E+02 -0.32279119188E+02  0.10060050441E+03  0.12100720214E+03  0.00000000000E+00 0. -1.
         21    1    1    2  502  501  0.11921658160E+02  0.18237122072E+02 -0.36268187434E+01  0.22087833052E+02  0.00000000000E+00 0. -1.
<scales pt_clust_5="13000.00000" pt_clust_6="13000.00000" pt_clust_7="13000.00000" pt_clust_8="13000.00000" pt_clust_9="21.78804"></scales>
<clustering>
<clus scale="   21.788">  2  9  1 -1</clus>
<clus scale="   91.010">  5  6 -1 -1</clus>
<clus scale="   92.893">  7  8 -1 -1</clus>
<clus scale="   95.205">  1  5  2 -1</clus>
<clus scale="   95.205">  1  5  2 -1</clus>
</clustering>
</event>
<event>
 9    1  0.1748361E-005  0.1244377E+03  0.7546771E-02  0.1245312E+00
         -2   -1    0    0    0  501 -0.00000000000E+00  0.00000000000E+00  0.44434862573E+02  0.44434862573E+02  0.00000000000E+00 0. -1.
          2   -1    0    0  502    0  0.00000000000E+00 -0.00000000000E+00 -0.44473561916E+03  0.44473561916E+03  0.00000000000E+00 0.  1.
         23    2    1    2    0    0  0.67491953920E+02  0.20497545716E+02 -0.14459223935E+03  0.19691998518E+03  0.11355726158E+03 0.  0.
         23    2    1    2    0    0 -0.30164540776E+02 -0.33152979549E+02 -0.20417771248E+03  0.22737430973E+03  0.89451209496E+02 0.  0.
        -13    1    3    3    0    0 -0.14837516466E+02 -0.32342372788E+02 -0.33166557552E+02  0.48643617385E+02  0.00000000000E+00 0. -1.
         13    1    3    3    0    0  0.82329470386E+02  0.52839918504E+02 -0.11142568180E+03  0.14827636779E+03  0.00000000000E+00 0.  1.
        -13    1    4    4    0    0 -0.53094438115E+02 -0.15950595781E+01 -0.71442754102E+02  0.89026011297E+02  0.00000000000E+00 0. -1.
         13    1    4    4    0    0  0.22929897339E+02 -0.31557919971E+02 -0.13273495838E+03  0.13834829844E+03  0.00000000000E+00 0.  1.
         21    1    1    2  502  501 -0.37327413144E+02  0.12655433833E+02 -0.51530804758E+02  0.64876186821E+02  0.00000000000E+00 0. -1.
<scales pt_clust_5="13000.00000" pt_clust_6="13000.00000" pt_clust_7="13000.00000" pt_clust_8="13000.00000" pt_clust_9="39.41441"></scales>
<clustering>
<clus scale="   39.414">  1  9  2 -1</clus>
<clus scale="   89.451">  7  8 -1 -1</clus>
<clus scale="  102.913">  2  7  1 -1</clus>
<clus scale="  113.557">  5  6 -1 -1</clus>
<clus scale="  102.913">  2  5  1 -1</clus>
</clustering>
</event>
<event>
 9    1  0.1748361E-005  0.1552740E+03  0.7546771E-02  0.1194813E+00
         -1   -1    0    0    0  501 -0.00000000000E+00  0.00000000000E+00  0.58069410762E+02  0.58069410762E+02  0.00000000000E+00 0.  1.
          1   -1    0    0  502    0  0.00000000000E+00 -0.00000000000E+00 -0.67755864770E+03  0.67755864770E+03  0.00000000000E+00 0. -1.
         23    2    1    2    0    0  0.11110889281E+03  0.17842859566E+02 -0.12090806079E+03  0.19049637873E+03  0.94902884297E+02 0.  0.
         23    2    1    2    0    0 -0.11266711585E+03 -0.62219396755E+02 -0.46009730485E+03  0.48637188512E+03  0.91120515683E+02 0.  0.
        -11    1    4    4    0    0 -0.82368344021E+02  0.64351550156E+01 -0.23607330160E+03  0.25011309251E+03  0.00000000000E+00 0.  1.
         11    1    4    4    0    0 -0.30298771832E+02 -0.68654551771E+02 -0.22402400325E+03  0.23625879261E+03  0.00000000000E+00 0. -1.
        -13    1    3    3    0    0  0.11938525809E+02 -0.33216861195E+02 -0.34973759727E+02  0.49689557612E+02  0.00000000000E+00 0. -1.
         13    1    3    3    0    0  0.99170367003E+02  0.51059720762E+02 -0.85934301059E+02  0.14080682112E+03  0.00000000000E+00 0.  1.
         21    1    1    2  502  501  0.15582230413E+01  0.44376537189E+02 -0.38483871297E+02  0.58759794604E+02  0.00000000000E+00 0.  1.
<scales pt_clust_5="13000.00000" pt_clust_6="13000.00000" pt_clust_7="13000.00000" pt_clust_8="13000.00000" pt_clust_9="44.40389"></scales>
<clustering>
<clus scale="   44.404">  1  9  2 -1</clus>
<clus scale="   91.121">  5  6 -1 -1</clus>
<clus scale="   94.903">  7  8 -1 -1</clus>
<clus scale="  152.992">  2  5  1 -1</clus>
<clus scale="  152.992">  2  5  1 -1</clus>
</clustering>
</event>
<event>
 9    1  0.1748361E-005  0.9296334E+02  0.7546771E-02  0.1298555E+00
          1   -1    0    0  502    0  0.00000000000E+00  0.00000000000E+00  0.81178168440E+02  0.81178168440E+02  0.00000000000E+00 0. -1.
         -1   -1    0    0    0  501 -0.00000000000E+00 -0.00000000000E+00 -0.15227752879E+03  0.15227752879E+03  0.00000000000E+00 0.  1.
         23    2    1    2    0    0  0.53669354772E+00  0.72601479307E+01 -0.34178993778E+02  0.98028094587E+02  0.91587695269E+02 0.  0.
         23    2    1    2    0    0 -0.22651796768E+02 -0.83613490919E+01  0.24411207024E+01  0.90265482288E+02  0.86941832089E+02 0.  0.
        -13    1    3    3    0    0  0.43454162531E+02 -0.39252955775E+01 -0.31079633260E+02  0.53568794930E+02  0.00000000000E+00 0.  1.
         13    1    3    3    0    0 -0.42917468983E+02  0.11185443508E+02 -0.30993605184E+01  0.44459299657E+02  0.00000000000E+00 0. -1.
        -13    1    4    4    0    0  0.26497270201E+02  0.18796577451E+01  0.23837789652E+02  0.35691436744E+02  0.00000000000E+00 0.  1.
         13    1    4    4    0    0 -0.49149066969E+02 -0.10241006837E+02 -0.21396668950E+02  0.54574045545E+02  0.00000000000E+00 0. -1.
         21    1    1    2  502  501  0.22115103220E+02  0.11012011612E+01 -0.39361487272E+02  0.45162120352E+02  0.00000000000E+00 0.  1.
<scales pt_clust_5="13000.00000" pt_clust_6="13000.00000" pt_clust_7="13000.00000" pt_clust_8="13000.00000" pt_clust_9="22.14250"></scales>
<clustering>
<clus scale="   22.143">  2  9  1 -1</clus>
<clus scale="   86.942">  7  8 -1 -1</clus>
<clus scale="   88.390">  1  7  2 -1</clus>
<clus scale="   91.588">  5  6 -1 -1</clus>
<clus scale="   88.390">  1  5  2 -1</clus>
</clustering>
</event>
<event>
 9    1  0.1748361E-005  0.1862664E+03  0.7546771E-02  0.1162273E+00
          1   -1    0    0  502    0  0.00000000000E+00  0.00000000000E+00  0.83807006105E+03  0.83807006105E+03  0.00000000000E+00 0. -1.
         -1   -1    0    0    0  501 -0.00000000000E+00 -0.00000000000E+00 -0.58847881173E+02  0.58847881173E+02  0.00000000000E+00 0.  1.
         23    2    1    2    0    0 -0.34279591438E+02  0.14551373137E+03  0.26271217394E+03  0.31556999673E+03  0.90649876416E+02 0.  0.
         23    2    1    2    0    0  0.21374595284E+01 -0.17335698314E+03  0.49895214788E+03  0.53534097110E+03  0.87060307476E+02 0.  0.
        -11    1    4    4    0    0 -0.20660401312E+02 -0.17705531962E+02  0.29035168306E+02  0.39791695654E+02  0.00000000000E+00 0.  1.
         11    1    4    4    0    0  0.22797860841E+02 -0.15565145117E+03  0.46991697957E+03  0.49554927545E+03  0.00000000000E+00 0. -1.
        -13    1    3    3    0    0  0.97731373731E+01  0.95865386328E+02  0.95511789047E+02  0.13567677899E+03  0.00000000000E+00 0.  1.
         13    1    3    3    0    0 -0.44052728811E+02  0.49648345043E+02  0.16720038490E+03  0.17989321774E+03  0.00000000000E+00 0. -1.
         21    1    1    2  502  501  0.32142131910E+02  0.27843251765E+02  0.17557858060E+02  0.46006974386E+02  0.00000000000E+00 0. -1.
<scales pt_clust_5="13000.00000" pt_clust_6="13000.00000" pt_clust_7="13000.00000" pt_clust_8="13000.00000" pt_clust_9="42.52486"></scales>
<clustering>
<clus scale="   42.525">  2  9  1 -1</clus>
<clus scale="   87.060">  5  6 -1 -1</clus>
<clus scale="   90.650">  7  8 -1 -1</clus>
<clus scale="  184.546">  1  5  2 -1</clus>
<clus scale="  184.546">  1  5  2 -1</clus>
</clustering>
</event>
<event>
 9    1  0.1748361E-005  0.1488404E+03  0.7546771E-02  0.1202245E+00
         -1   -1    0    0    0  501 -0.00000000000E+00  0.00000000000E+00  0.37499837073E+03  0.37499837073E+03  0.00000000000E+00 0.  1.
          1   -1    0    0  502    0  0.00000000000E+00 -0.00000000000E+00 -0.80729294237E+02  0.80729294237E+02  0.00000000000E+00 0. -1.
         23    2    1    2    0    0  0.10448140662E+03  0.32613804752E+02  0.18339759402E+03  0.23186637712E+03  0.90262477010E+02 0.  0.
         23    2    1    2    0    0 -0.10393871835E+03 -0.64554699500E+02  0.61371339726E+02  0.16494796677E+03  0.92037079507E+02 0.  0.
        -11    1    3    3    0    0  0.59966433462E+02  0.45355385304E+02  0.16630175838E+03  0.18250851749E+03  0.00000000000E+00 0.  1.
         11    1    3    3    0    0  0.44514973162E+02 -0.12741580553E+02  0.17095835642E+02  0.49357859626E+02  0.00000000000E+00 0. -1.
        -11    1    4    4    0    0 -0.11214249660E+03 -0.43760755213E+02  0.71924174247E+02  0.14022849241E+03  0.00000000000E+00 0. -1.
         11    1    4    4    0    0  0.82037782556E+01 -0.20793944287E+02 -0.10552834521E+02  0.24719474369E+02  0.00000000000E+00 0.  1.
         21    1    1    2  502  501 -0.54268827720E+00  0.31940894748E+02  0.49500142747E+02  0.58913321073E+02  0.00000000000E+00 0.  1.
<scales pt_clust_5="13000.00000" pt_clust_6="13000.00000" pt_clust_7="13000.00000" pt_clust_8="13000.00000" pt_clust_9="31.94550"></scales>
<clustering>
<clus scale="   31.946">  1  9  2 -1</clus>
<clus scale="   90.262">  5  6 -1 -1</clus>
<clus scale="   92.037">  7  8 -1 -1</clus>
<clus scale="  147.750">  1  5  2 -1</clus>
<clus scale="  148.840">  2  5  1 -1</clus>
</clustering>
</event>
<event>
 9    1  0.1748361E-005  0.9730828E+02  0.7546771E-02  0.1286772E+00
          1   -1    0    0  502    0  0.00000000000E+00  0.00000000000E+00  0.59823213837E+02  0.59823213837E+02  0.00000000000E+00 0. -1.
         -1   -1    0    0    0  501 -0.00000000000E+00 -0.00000000000E+00 -0.25245434303E+03  0.25245434303E+03  0.00000000000E+00 0.  1.
         23    2    1    2    0    0  0.26468231958E+02 -0.53882389560E+01 -0.12320269945E+03  0.15469711130E+03  0.89569473989E+02 0.  0.
         23    2    1    2    0    0 -0.33195238234E+02 -0.24489099613E+02 -0.23871775767E+02  0.10268676018E+03  0.90956413724E+02 0.  0.
        -11    1    4    4    0    0 -0.39588145968E+02  0.26633406947E+02 -0.17280429327E+02  0.50746161476E+02  0.00000000000E+00 0. -1.
         11    1    4    4    0    0  0.63929077346E+01 -0.51122506560E+02 -0.65913464404E+01  0.51940598709E+02  0.00000000000E+00 0.  1.
        -13    1    3    3    0    0  0.40891779259E+02  0.14744397921E+02 -0.18735700584E+02  0.47334568313E+02  0.00000000000E+00 0. -1.
         13    1    3    3    0    0 -0.14423547301E+02 -0.20132636877E+02 -0.10446699887E+03  0.10736254299E+03  0.00000000000E+00 0.  1.
         21    1    1    2  502  501  0.67270062759E+01  0.29877338569E+02 -0.45556653967E+02  0.54893685375E+02  0.00000000000E+00 0. -1.
<scales pt_clust_5="13000.00000" pt_clust_6="13000.00000" pt_clust_7="13000.00000" pt_clust_8="13000.00000" pt_clust_9="30.62528"></scales>
<clustering>
<clus scale="   30.625">  2  9  1 -1</clus>
<clus scale="   89.569">  7  8 -1 -1</clus>
<clus scale="   90.956">  5  6 -1 -1</clus>
<clus scale="   96.013">  2  7  1 -1</clus>
<clus scale="   97.308">  1  5  2 -1</clus>
</clustering>
</event>
<event>
 9    1  0.1748361E-005  0.1784086E+03  0.7546771E-02  0.1169775E+00
          2   -1    0    0  502    0  0.00000000000E+00  0.00000000000E+00  0.96575634798E+02  0.96575634798E+02  0.00000000000E+00 0. -1.
         -2   -1    0    0    0  501 -0.00000000000E+00 -0.00000000000E+00 -0.48769679980E+03  0.48769679980E+03  0.00000000000E+00 0.  1.
         23    2    1    2    0    0  0.14175172634E+03 -0.47439307373E+02 -0.27052590447E+03  0.32125519020E+03  0.87616165395E+02 0.  0.
         23    2    1    2    0    0 -0.15266964600E+03  0.28927706575E+02 -0.46677113482E+02  0.18603820311E+03  0.91030912751E+02 0.  0.
        -11    1    4    4    0    0 -0.56423401443E+02  0.46529222669E+02 -0.49234360873E+02  0.88162299670E+02  0.00000000000E+00 0.  1.
         11    1    4    4    0    0 -0.96246244558E+02 -0.17601516094E+02  0.25572473903E+01  0.97875903442E+02  0.00000000000E+00 0. -1.
        -13    1    3    3    0    0  0.13164547910E+03 -0.24530677319E+02 -0.26296771494E+03  0.29510050051E+03  0.00000000000E+00 0.  1.
         13    1    3    3    0    0  0.10106247236E+02 -0.22908630054E+02 -0.75581895300E+01  0.26154689697E+02  0.00000000000E+00 0. -1.
         21    1    1    2  502  501  0.10917919663E+02  0.18511600798E+02 -0.73918147050E+02  0.76979041285E+02  0.00000000000E+00 0. -1.
<scales pt_clust_5="13000.00000" pt_clust_6="13000.00000" pt_clust_7="13000.00000" pt_clust_8="13000.00000" pt_clust_9="21.49140"></scales>
<clustering>
<clus scale="   21.491">  2  9  1 -1</clus>
<clus scale="   87.616">  7  8 -1 -1</clus>
<clus scale="   91.031">  5  6 -1 -1</clus>
<clus scale="  176.691">  2  7  1 -1</clus>
<clus scale="  178.409">  1  5  2 -1</clus>
</clustering>
</event>
<event>
 9    1  0.1748361E-005  0.1073764E+03  0.7546771E-02  0.1267647E+00
         -1   -1    0    0    0  501 -0.00000000000E+00  0.00000000000E+00  0.78530398952E+02  0.78530398952E+02  0.00000000000E+00 0.  1.
          1   -1    0    0  502    0  0.00000000000E+00 -0.00000000000E+00 -0.30153960714E+03  0.30153960714E+03  0.00000000000E+00 0. -1.
         23    2    1    2    0    0  0.28872779714E+01 -0.35082829256E+02  0.16714169520E+02  0.99889706611E+02  0.91975261572E+02 0.  0.
         23    2    1    2    0    0 -0.29784242622E+02  0.39896225966E+02 -0.22293504736E+03  0.24811063264E+03  0.96850610392E+02 0.  0.
        -11    1    4    4    0    0  0.26623473879E+02  0.44785670857E+02 -0.99774178728E+02  0.11255866211E+03  0.00000000000E+00 0. -1.
         11    1    4    4    0    0 -0.56407716501E+02 -0.48894448916E+01 -0.12316086863E+03  0.13555197053E+03  0.00000000000E+00 0.  1.
        -13    1    3    3    0    0 -0.41095880660E+02 -0.28813010939E+02 -0.50013046766E+01  0.50438814965E+02  0.00000000000E+00 0.  1.
         13    1    3    3    0    0  0.43983158632E+02 -0.62698183171E+01  0.21715474197E+02  0.49450891646E+02  0.00000000000E+00 0. -1.
         21    1    1    2  502  501  0.26896964650E+02 -0.48133967095E+01 -0.16788330346E+02  0.32069666838E+02  0.00000000000E+00 0.  1.
<scales pt_clust_5="13000.00000" pt_clust_6="13000.00000" pt_clust_7="13000.00000" pt_clust_8="13000.00000" pt_clust_9="27.32427"></scales>
<clustering>
<clus scale="   27.324">  1  9  2 -1</clus>
<clus scale="   91.975">  7  8 -1 -1</clus>
<clus scale="   96.851">  5  6 -1 -1</clus>
<clus scale="  103.000">  1  7  2 -1</clus>
<clus scale="  107.376">  2  5  1 -1</clus>
</clustering>
</event>
<event>
 9    1  0.1748361E-005  0.1155194E+03  0.7546771E-02  0.1252612E+00
         -1   -1    0    0    0  501 -0.00000000000E+00  0.00000000000E+00  0.24821781243E+03  0.24821781243E+03  0.00000000000E+00 0.  1.
          1   -1    0    0  502    0  0.00000000000E+00 -0.00000000000E+00 -0.74870934129E+02  0.74870934129E+02  0.00000000000E+00 0. -1.
         23    2    1    2    0    0 -0.71657604115E+02 -0.21774971922E+02  0.58179859014E+02  0.13557274902E+03  0.96881952152E+02 0.  0.
         23    2    1    2    0    0  0.52998567911E+02  0.51467912392E+01  0.48943218123E+02  0.11673289316E+03  0.91628554960E+02 0.  0.
        -11    1    3    3    0    0  0.29016183030E+01 -0.26884544860E+02  0.54391904663E+02  0.60742715069E+02  0.00000000000E+00 0.  1.
         11    1    3    3    0    0 -0.74559222418E+02  0.51095729378E+01  0.37879543509E+01  0.74830033953E+02  0.00000000000E+00 0. -1.
        -11    1    4    4    0    0  0.14162114283E+02 -0.40749082419E+02  0.33607023081E+02  0.54685328922E+02  0.00000000000E+00 0.  1.
         11    1    4    4    0    0  0.38836453628E+02  0.45895873658E+02  0.15336195042E+02  0.62047564236E+02  0.00000000000E+00 0. -1.
         21    1    1    2  502  501  0.18659036204E+02  0.16628180683E+02  0.66223801160E+02  0.70783104375E+02  0.00000000000E+00 0.  1.
<scales pt_clust_5="13000.00000" pt_clust_6="13000.00000" pt_clust_7="13000.00000" pt_clust_8="13000.00000" pt_clust_9="24.99312"></scales>
<clustering>
<clus scale="   24.993">  1  9  2 -1</clus>
<clus scale="   91.629">  7  8 -1 -1</clus>
<clus scale="   96.882">  5  6 -1 -1</clus>
<clus scale="  111.150">  2  7  1 -1</clus>
<clus scale="  111.150">  2  5  1 -1</clus>
</clustering>
</event>
<event>
 9    1  0.1748361E-005  0.1241264E+03  0.7546771E-02  0.1236865E+00
         -2   -1    0    0    0  501 -0.00000000000E+00  0.00000000000E+00  0.16388794930E+03  0.16388794930E+03  0.00000000000E+00 0.  1.
          2   -1    0    0  502    0  0.00000000000E+00 -0.00000000000E+00 -0.14097921330E+03  0.14097921330E+03  0.00000000000E+00 0. -1.
         23    2    1    2    0    0  0.13897120834E+02  0.10881134340E+03  0.21521426436E+02  0.14403113671E+03  0.90822674079E+02 0.  0.
         23    2    1    2    0    0 -0.18976972271E+02 -0.63907421141E+02 -0.98913639779E+01  0.11425946955E+03  0.92266480079E+02 0.  0.
        -13    1    3    3    0    0 -0.23899779707E+02 -0.24793517716E+01  0.96711913662E+01  0.25901324246E+02  0.00000000000E+00 0.  1.
         13    1    3    3    0    0  0.37796900541E+02  0.11129069517E+03  0.11850235070E+02  0.11812981246E+03  0.00000000000E+00 0. -1.
        -13    1    4    4    0    0 -0.17333440764E+02  0.21115826571E+02 -0.10364599297E+02  0.29219021529E+02  0.00000000000E+00 0. -1.
         13    1    4    4    0    0 -0.16435315073E+01 -0.85023247713E+02  0.47323531939E+00  0.85040448018E+02  0.00000000000E+00 0.  1.
         21    1    1    2  502  501  0.50798514369E+01 -0.44903922254E+02  0.11278673537E+02  0.46576556347E+02  0.00000000000E+00 0.  1.
<scales pt_clust_5="13000.00000" pt_clust_6="13000.00000" pt_clust_7="13000.00000" pt_clust_8="13000.00000" pt_clust_9="45.19034"></scales>
<clustering>
<clus scale="   45.190">  1  9  2 -1</clus>
<clus scale="   90.823">  5  6 -1 -1</clus>
<clus scale="   92.266">  7  8 -1 -1</clus>
<clus scale="  123.057">  1  5  2 -1</clus>
<clus scale="  124.126">  2  5  1 -1</clus>
</clustering>
</event>
<event>
 9    1  0.1748361E-005  0.1015982E+03  0.7546771E-02  0.1280411E+00
          1   -1    0    0  502    0  0.00000000000E+00  0.00000000000E+00  0.26363251370E+03  0.26363251370E+03  0.00000000000E+00 0. -1.
         -1   -1    0    0    0  501 -0.00000000000E+00 -0.00000000000E+00 -0.16581970553E+03  0.16581970553E+03  0.00000000000E+00 0.  1.
         23    2    1    2    0    0 -0.43564563221E+01  0.37322940539E+01 -0.11614903729E+03  0.14680835621E+03  0.89605724471E+02 0.  0.
         23    2    1    2    0    0  0.12242302398E+02 -0.31973713259E+02  0.22816738077E+03  0.25006224919E+03  0.96429158010E+02 0.  0.
        -11    1    3    3    0    0 -0.83024158572E+01  0.29392632294E+02 -0.11691145642E+03  0.12083520010E+03  0.00000000000E+00 0.  1.
         11    1    3    3    0    0  0.39459595351E+01 -0.25660338240E+02  0.76241912326E+00  0.25973156107E+02  0.00000000000E+00 0. -1.
        -13    1    4    4    0    0  0.28466404918E+02 -0.60194213388E+02  0.12163716291E+03  0.13866967562E+03  0.00000000000E+00 0. -1.
         13    1    4    4    0    0 -0.16224102520E+02  0.28220500129E+02  0.10653021786E+03  0.11139257357E+03  0.00000000000E+00 0.  1.
         21    1    1    2  502  501 -0.78858460756E+01  0.28241419205E+02 -0.14205535307E+02  0.32581613840E+02  0.00000000000E+00 0.  1.
<scales pt_clust_5="13000.00000" pt_clust_6="13000.00000" pt_clust_7="13000.00000" pt_clust_8="13000.00000" pt_clust_9="29.32174"></scales>
<clustering>
<clus scale="   29.322">  2  9  1 -1</clus>
<clus scale="   89.606">  5  6 -1 -1</clus>
<clus scale="   95.146">  2  5  1 -1</clus>
<clus scale="   96.429">  7  8 -1 -1</clus>
<clus scale="  101.598">  1  5  2 -1</clus>
</clustering>
</event>
<event>
 9    1  0.1748361E-005  0.1053047E+03  0.7546771E-02  0.1271417E+00
          2   -1    0    0  502    0  0.00000000000E+00  0.00000000000E+00  0.56105195717E+02  0.56105195717E+02  0.00000000000E+00 0. -1.
         -2   -1    0    0    0  501 -0.00000000000E+00 -0.00000000000E+00 -0.29820987772E+03  0.29820987772E+03  0.00000000000E+00 0.  1.
         23    2    1    2    0    0  0.17762354547E+02  0.29428476232E+02 -0.94150098381E+02  0.13440288485E+03  0.89545284518E+02 0.  0.
         23    2    1    2    0    0 -0.20072807341E+02 -0.55168221151E+02 -0.55296769104E+02  0.12371788911E+03  0.93818618579E+02 0.  0.
        -11    1    3    3    0    0 -0.27341291826E+02  0.52909840267E+01 -0.68856146510E+00  0.27857043411E+02  0.00000000000E+00 0. -1.
         11    1    3    3    0    0  0.45103646373E+02  0.24137492205E+02 -0.93461536916E+02  0.10654584144E+03  0.00000000000E+00 0.  1.
        -11    1    4    4    0    0 -0.32737239343E+02 -0.38633418378E+02  0.13029275906E+02  0.52287951634E+02  0.00000000000E+00 0. -1.
         11    1    4    4    0    0  0.12664432002E+02 -0.16534802772E+02 -0.68326045010E+02  0.71429937473E+02  0.00000000000E+00 0.  1.
         21    1    1    2  502  501  0.23104527940E+01  0.25739744919E+02 -0.92657814521E+02  0.96194299480E+02  0.00000000000E+00 0.  1.
<scales pt_clust_5="13000.00000" pt_clust_6="13000.00000" pt_clust_7="13000.00000" pt_clust_8="13000.00000" pt_clust_9="25.84323"></scales>
<clustering>
<clus scale="   25.843">  2  9  1 -1</clus>
<clus scale="   89.545">  5  6 -1 -1</clus>
<clus scale="   93.819">  7  8 -1 -1</clus>
<clus scale="  101.516">  2  5  1 -1</clus>
<clus scale="  105.305">  1  5  2 -1</clus>
</clustering>
</event>
<event>
 9    1  0.1748361E-005  0.1365553E+03  0.7546771E-02  0.1218843E+00
          1   -1    0    0  502    0  0.00000000000E+00  0.00000000000E+00  0.35172113669E+03  0.35172113669E+03  0.00000000000E+00 0. -1.
         -1   -1    0    0    0  501 -0.00000000000E+00 -0.00000000000E+00 -0.73131032405E+02  0.73131032405E+02  0.00000000000E+00 0.  1.
         23    2    1    2    0    0  0.78878874638E+02 -0.72379664735E+02  0.76578478099E+02  0.16056428791E+03  0.91956155379E+02 0.  0.
         23    2    1    2    0    0 -0.81954223924E+02  0.46379517401E+02  0.19604150213E+03  0.23743443046E+03  0.95264283740E+02 0.  0.
        -11    1    3    3    0    0  0.93905219327E+02 -0.33996514255E+02  0.52526053735E+02  0.11284032754E+03  0.00000000000E+00 0.  1.
         11    1    3    3    0    0 -0.15026344688E+02 -0.38383150480E+02  0.24052424364E+02  0.47723960368E+02  0.00000000000E+00 0. -1.
        -13    1    4    4    0    0 -0.42301365705E+02  0.69618080288E+02  0.15803366830E+03  0.17779404647E+03  0.00000000000E+00 0. -1.
         13    1    4    4    0    0 -0.39652858219E+02 -0.23238562887E+02  0.38007833829E+02  0.59640383989E+02  0.00000000000E+00 0.  1.
         21    1    1    2  502  501  0.30753492860E+01  0.26000147335E+02  0.59701240541E+01  0.26853450726E+02  0.00000000000E+00 0.  1.
<scales pt_clust_5="13000.00000" pt_clust_6="13000.00000" pt_clust_7="13000.00000" pt_clust_8="13000.00000" pt_clust_9="26.18139"></scales>
<clustering>
<clus scale="   26.181">  2  9  1 -1</clus>
<clus scale="   91.956">  5  6 -1 -1</clus>
<clus scale="   95.264">  7  8 -1 -1</clus>
<clus scale="  134.268">  2  5  1 -1</clus>
<clus scale="  136.555">  1  5  2 -1</clus>
</clustering>
</event>
<event>
 9    1  0.1748361E-005  0.1336420E+03  0.7546771E-02  0.1224148E+00
          2   -1    0    0  502    0  0.00000000000E+00  0.00000000000E+00  0.72246669884E+03  0.72246669884E+03  0.00000000000E+00 0. -1.
         -2   -1    0    0    0  501 -0.00000000000E+00 -0.00000000000E+00 -0.44578698851E+02  0.44578698851E+02  0.00000000000E+00 0.  1.
         23    2    1    2    0    0 -0.49033396769E+02 -0.83756906949E+02  0.29981183856E+03  0.32836393229E+03  0.92283476493E+02 0.  0.
         23    2    1    2    0    0  0.71795416914E+02  0.66886977224E+02  0.38775642082E+03  0.40874133327E+03  0.84178299039E+02 0.  0.
        -11    1    3    3    0    0 -0.56577294417E+02 -0.11773984650E+02  0.95645647395E+02  0.11174840860E+03  0.00000000000E+00 0. -1.
         11    1    3    3    0    0  0.75438976478E+01 -0.71982922298E+02  0.20416619116E+03  0.21661552370E+03  0.00000000000E+00 0.  1.
        -13    1    4    4    0    0  0.86793457624E+02  0.38263895160E+02  0.25389830288E+03  0.27103796443E+03  0.00000000000E+00 0.  1.
         13    1    4    4    0    0 -0.14998040710E+02  0.28623082064E+02  0.13385811794E+03  0.13770336884E+03  0.00000000000E+00 0. -1.
         21    1    1    2  502  501 -0.22762020144E+02  0.16869929725E+02 -0.96802593823E+01  0.29940132125E+02  0.00000000000E+00 0.  1.
<scales pt_clust_5="13000.00000" pt_clust_6="13000.00000" pt_clust_7="13000.00000" pt_clust_8="13000.00000" pt_clust_9="28.33203"></scales>
<clustering>
<clus scale="   28.332">  2  9  1 -1</clus>
<clus scale="   84.178">  7  8 -1 -1</clus>
<clus scale="   92.283">  5  6 -1 -1</clus>
<clus scale="  128.179">  1  7  2 -1</clus>
<clus scale="  128.179">  1  5  2 -1</clus>
</clustering>
</event>
<event>
 9    1  0.1748361E-005  0.1443051E+03  0.7546771E-02  0.1207793E+00
         -1   -1    0    0    0  501 -0.00000000000E+00  0.00000000000E+00  0.26960715892E+03  0.26960715892E+03  0.00000000000E+00 0.  1.
          1   -1    0    0  502    0  0.00000000000E+00 -0.00000000000E+00 -0.12887997461E+03  0.12887997461E+03  0.00000000000E+00 0. -1.
         23    2    1    2    0    0  0.87812842027E+02  0.83160357477E+02  0.21539162467E+02  0.15319049783E+03  0.91524055984E+02 0.  0.
         23    2    1    2    0    0 -0.96360196328E+02 -0.43600524417E+02  0.23472361262E+02  0.14137587099E+03  0.90828916044E+02 0.  0.
        -11    1    3    3    0    0  0.93090458834E+01  0.60117302475E+02 -0.16400841839E+02  0.63005841040E+02  0.00000000000E+00 0.  1.
         11    1    3    3    0    0  0.78503796143E+02  0.23043055002E+02  0.37940004306E+02  0.90184656786E+02  0.00000000000E+00 0. -1.
        -13    1    4    4    0    0 -0.12936022253E+01 -0.27933134484E+02  0.34487192452E+02  0.44399322653E+02  0.00000000000E+00 0.  1.
         13    1    4    4    0    0 -0.95066594103E+02 -0.15667389933E+02 -0.11014831190E+02  0.96976548339E+02  0.00000000000E+00 0. -1.
         21    1    1    2  502  501  0.85473543010E+01 -0.39559833061E+02  0.95715660586E+02  0.10392076471E+03  0.00000000000E+00 0.  1.
<scales pt_clust_5="13000.00000" pt_clust_6="13000.00000" pt_clust_7="13000.00000" pt_clust_8="13000.00000" pt_clust_9="40.47268"></scales>
<clustering>
<clus scale="   40.473">  1  9  2 -1</clus>
<clus scale="   90.829">  7  8 -1 -1</clus>
<clus scale="   91.524">  5  6 -1 -1</clus>
<clus scale="  143.865">  2  7  1 -1</clus>
<clus scale="  143.865">  2  5  1 -1</clus>
</clustering>
</event>
<event>
 9    1  0.1748361E-005  0.1011542E+03  0.7546771E-02  0.1277931E+00
          1   -1    0    0  502    0  0.00000000000E+00  0.00000000000E+00  0.25134220234E+03  0.25134220234E+03  0.00000000000E+00 0. -1.
         -1   -1    0    0    0  501 -0.00000000000E+00 -0.00000000000E+00 -0.71521712468E+02  0.71521712468E+02  0.00000000000E+00 0.  1.
         23    2    1    2    0    0  0.46781674596E+02  0.24463316185E+02  0.95375618659E+02  0.14131417380E+03  0.89923346058E+02 0.  0.
         23    2    1    2    0    0 -0.45564866753E+02  0.15940284858E+02  0.95426750729E+02  0.13966259171E+03  0.89828308484E+02 0.  0.
        -11    1    3    3    0    0  0.55890701516E+02 -0.15299755064E+01  0.17306528333E+02  0.58528858386E+02  0.00000000000E+00 0.  1.
         11    1    3    3    0    0 -0.91090269200E+01  0.25993291692E+02  0.78069090326E+02  0.82785315417E+02  0.00000000000E+00 0. -1.
        -13    1    4    4    0    0 -0.18380242286E+02  0.32312421567E+02 -0.19699529333E+01  0.37226423527E+02  0.00000000000E+00 0.  1.
         13    1    4    4    0    0 -0.27184624467E+02 -0.16372136709E+02  0.97396703662E+02  0.10243616818E+03  0.00000000000E+00 0. -1.
         21    1    1    2  502  501 -0.12168078430E+01 -0.40403601044E+02 -0.10981879513E+02  0.41887149297E+02  0.00000000000E+00 0.  1.
<scales pt_clust_5="13000.00000" pt_clust_6="13000.00000" pt_clust_7="13000.00000" pt_clust_8="13000.00000" pt_clust_9="40.42192"></scales>
<clustering>
<clus scale="   40.422">  2  9  1 -1</clus>
<clus scale="   89.828">  7  8 -1 -1</clus>
<clus scale="   89.923">  5  6 -1 -1</clus>
<clus scale="  101.070">  1  7  2 -1</clus>
<clus scale="  101.070">  1  5  2 -1</clus>
</clustering>
</event>
<event>
 9    1  0.1748361E-005  0.1204656E+03  0.7546771E-02  0.1244070E+00
          1   -1    0    0  502    0  0.00000000000E+00  0.00000000000E+00  0.22391262732E+03  0.22391262732E+03  0.00000000000E+00 0. -1.
         -1   -1    0    0    0  501 -0.00000000000E+00 -0.00000000000E+00 -0.29052722288E+03  0.29052722288E+03  0.00000000000E+00 0.  1.
         23    2    1    2    0    0 -0.32415532023E+02  0.93024542383E+02  0.80536753683E+02  0.15648692284E+03  0.91091471185E+02 0.  0.
         23    2    1    2    0    0  0.11582049844E+02 -0.63843925858E+02  0.76263654721E+02  0.13167918528E+03  0.85516501661E+02 0.  0.
        -11    1    3    3    0    0 -0.21263295636E+01  0.21173421244E+02 -0.20035823520E+02  0.29227885122E+02  0.00000000000E+00 0.  1.
         11    1    3    3    0    0 -0.30289202459E+02  0.71851121139E+02  0.10057257720E+03  0.12725903771E+03  0.00000000000E+00 0. -1.
        -13    1    4    4    0    0 -0.26890854475E+02  0.36491575812E+01  0.33109841601E+02  0.42809999022E+02  0.00000000000E+00 0.  1.
         13    1    4    4    0    0  0.38472904319E+02 -0.67493083439E+02  0.43153813120E+02  0.88869186255E+02  0.00000000000E+00 0. -1.
         21    1    1    2  502  501  0.20833482179E+02 -0.29180616525E+02 -0.22341500396E+03  0.22627374208E+03  0.00000000000E+00 0.  1.
<scales pt_clust_5="13000.00000" pt_clust_6="13000.00000" pt_clust_7="13000.00000" pt_clust_8="13000.00000" pt_clust_9="35.85446"></scales>
<clustering>
<clus scale="   35.854">  2  9  1 -1</clus>
<clus scale="   85.517">  7  8 -1 -1</clus>
<clus scale="   91.091">  5  6 -1 -1</clus>
<clus scale="  116.307">  1  7  2 -1</clus>
<clus scale="  116.307">  1  5  2 -1</clus>
</clustering>
</event>
<event>
 9    1  0.1748361E-005  0.1374654E+03  0.7546771E-02  0.1216852E+00
         -2   -1    0    0    0  501 -0.00000000000E+00  0.00000000000E+00  0.24483210029E+03  0.24483210029E+03  0.00000000000E+00 0.  1.
          2   -1    0    0  502    0  0.00000000000E+00 -0.00000000000E+00 -0.29307467692E+03  0.29307467692E+03  0.00000000000E+00 0. -1.
         23    2    1    2    0    0 -0.11545163012E+03  0.81412834877E+02  0.13960353031E+03  0.21848457633E+03  0.91045240628E+02 0.  0.
         23    2    1    2    0    0  0.99530418217E+02 -0.10547128071E+02 -0.20410335402E+03  0.24499282850E+03  0.91355135771E+02 0.  0.
        -13    1    3    3    0    0 -0.89953058464E+02  0.87200620249E+02  0.68630578555E+02  0.14284837140E+03  0.00000000000E+00 0.  1.
         13    1    3    3    0    0 -0.25498571655E+02 -0.57877853722E+01  0.70972951755E+02  0.75636204933E+02  0.00000000000E+00 0. -1.
        -13    1    4    4    0    0  0.67405259297E+02  0.78991878426E+01 -0.44519018379E+02  0.81165319854E+02  0.00000000000E+00 0.  1.
         13    1    4    4    0    0  0.32125158920E+02 -0.18446315913E+02 -0.15958433564E+03  0.16382750865E+03  0.00000000000E+00 0. -1.
         21    1    1    2  502  501  0.15921211901E+02 -0.70865706806E+02  0.16257247089E+02  0.74429372377E+02  0.00000000000E+00 0. -1.
<scales pt_clust_5="13000.00000" pt_clust_6="13000.00000" pt_clust_7="13000.00000" pt_clust_8="13000.00000" pt_clust_9="72.63218"></scales>
<clustering>
<clus scale="   72.632">  1  9  2 -1</clus>
<clus scale="   91.045">  5  6 -1 -1</clus>
<clus scale="   91.355">  7  8 -1 -1</clus>
<clus scale="  137.260">  1  5  2 -1</clus>
<clus scale="  137.465">  2  5  1 -1</clus>
</clustering>
</event>
<event>
 9    1  0.1748361E-005  0.1083429E+03  0.7546771E-02  0.1267715E+00
          2   -1    0    0  502    0  0.00000000000E+00  0.00000000000E+00  0.75992316270E+03  0.75992316270E+03  0.00000000000E+00 0. -1.
         -2   -1    0    0    0  501 -0.00000000000E+00 -0.00000000000E+00 -0.42632623328E+02  0.42632623328E+02  0.00000000000E+00 0.  1.
         23    2    1    2    0    0  0.28479903381E+02  0.44591359867E+02  0.24822284624E+03  0.26959895553E+03  0.90936907555E+02 0.  0.
         23    2    1    2    0    0 -0.27180766979E+02 -0.24564225662E+02  0.49148278667E+03  0.50287011786E+03  0.99904106885E+02 0.  0.
        -11    1    4    4    0    0  0.36911351033E+02 -0.14540195266E+02  0.14301430079E+03  0.14841480837E+03  0.00000000000E+00 0.  1.
         11    1    4    4    0    0 -0.64092118011E+02 -0.10024030396E+02  0.34846848588E+03  0.35445530949E+03  0.00000000000E+00 0. -1.
        -11    1    3    3    0    0 -0.18326437129E+02 -0.14269745496E+02  0.10814038834E+03  0.11060663418E+03  0.00000000000E+00 0. -1.
         11    1    3    3    0    0  0.46806340511E+02  0.58861105363E+02  0.14008245789E+03  0.15899232134E+03  0.00000000000E+00 0.  1.
         21    1    1    2  502  501 -0.12991364026E+01 -0.20027134206E+02 -0.22415093527E+02  0.30086712644E+02  0.00000000000E+00 0.  1.
<scales pt_clust_5="13000.00000" pt_clust_6="13000.00000" pt_clust_7="13000.00000" pt_clust_8="13000.00000" pt_clust_9="20.06923"></scales>
<clustering>
<clus scale="   20.069">  2  9  1 -1</clus>
<clus scale="   90.937">  7  8 -1 -1</clus>
<clus scale="   99.904">  5  6 -1 -1</clus>
<clus scale="  100.134">  2  7  1 -1</clus>
<clus scale="  108.343">  1  5  2 -1</clus>
</clustering>
</event>
<event>
 9    1  0.1748361E-005  0.9766253E+02  0.7546771E-02  0.1285831E+00
          1   -1    0    0  502    0  0.00000000000E+00  0.00000000000E+00  0.13023416988E+03  0.13023416988E+03  0.00000000000E+00 0. -1.
         -1   -1    0    0    0  501 -0.00000000000E+00 -0.00000000000E+00 -0.14538028520E+03  0.14538028520E+03  0.00000000000E+00 0.  1.
         23    2    1    2    0    0 -0.46840246601E+02  0.19384030412E+02 -0.75458992334E+02  0.12871697151E+03  0.91127657125E+02 0.  0.
         23    2    1    2    0    0  0.18082147364E+02 -0.22372746021E+02  0.66606508021E+02  0.11730744328E+03  0.92179745722E+02 0.  0.
        -13    1    4    4    0    0  0.53855156676E+02 -0.58085062784E+01  0.23955372439E+02  0.59228173317E+02  0.00000000000E+00 0. -1.
         13    1    4    4    0    0 -0.35773009312E+02 -0.16564239742E+02  0.42651135582E+02  0.58079269968E+02  0.00000000000E+00 0.  1.
        -13    1    3    3    0    0 -0.46352129812E+02 -0.29295555096E+02 -0.47694711628E+02  0.72674170128E+02  0.00000000000E+00 0.  1.
         13    1    3    3    0    0 -0.48811678971E+00  0.48679585508E+02 -0.27764280705E+02  0.56042801378E+02  0.00000000000E+00 0. -1.
         21    1    1    2  502  501  0.28758099237E+02  0.29887156089E+01 -0.62936310105E+01  0.29590040284E+02  0.00000000000E+00 0. -1.
<scales pt_clust_5="13000.00000" pt_clust_6="13000.00000" pt_clust_7="13000.00000" pt_clust_8="13000.00000" pt_clust_9="28.91298"></scales>
<clustering>
<clus scale="   28.913">  2  9  1 -1</clus>
<clus scale="   91.128">  7  8 -1 -1</clus>
<clus scale="   92.180">  5  6 -1 -1</clus>
<clus scale="   96.670">  2  7  1 -1</clus>
<clus scale="   97.663">  1  5  2 -1</clus>
</clustering>
</event>
<event>
 9    1  0.1748361E-005  0.9514306E+02  0.7546771E-02  0.1295619E+00
          1   -1    0    0  502    0  0.00000000000E+00  0.00000000000E+00  0.38845660363E+03  0.38845660363E+03  0.00000000000E+00 0. -1.
         -1   -1    0    0    0  501 -0.00000000000E+00 -0.00000000000E+00 -0.33054010827E+02  0.33054010827E+02  0.00000000000E+00 0.  1.
         23    2    1    2    0    0 -0.22244985947E+02  0.18297414956E+02  0.14305029490E+03  0.17354122276E+03  0.93933669856E+02 0.  0.
         23    2    1    2    0    0  0.10553879632E+02  0.12781532747E+02  0.18634763717E+03  0.20579326886E+03  0.85736081524E+02 0.  0.
        -13    1    3    3    0    0  0.10181734159E+02  0.38567788480E+02  0.19875077420E+02  0.44566363114E+02  0.00000000000E+00 0.  1.
         13    1    3    3    0    0 -0.32426720106E+02 -0.20270373524E+02  0.12317521748E+03  0.12897485965E+03  0.00000000000E+00 0. -1.
        -13    1    4    4    0    0 -0.91803730971E+01 -0.33336766183E+02  0.52594287637E+02  0.62942658998E+02  0.00000000000E+00 0. -1.
         13    1    4    4    0    0  0.19734252729E+02  0.46118298930E+02  0.13375334954E+03  0.14285060987E+03  0.00000000000E+00 0.  1.
         21    1    1    2  502  501  0.11691106315E+02 -0.31078947703E+02  0.26004660723E+02  0.42176122825E+02  0.00000000000E+00 0.  1.
<scales pt_clust_5="13000.00000" pt_clust_6="13000.00000" pt_clust_7="13000.00000" pt_clust_8="13000.00000" pt_clust_9="33.20516"></scales>
<clustering>
<clus scale="   33.205">  2  9  1 -1</clus>
<clus scale="   85.736">  7  8 -1 -1</clus>
<clus scale="   87.059">  1  7  2 -1</clus>
<clus scale="   93.934">  5  6 -1 -1</clus>
<clus scale="   87.059">  1  5  2 -1</clus>
</clustering>
</event>
<event>
 9    1  0.1748361E-005  0.1586068E+03  0.7546771E-02  0.1190468E+00
         -1   -1    0    0    0  501 -0.00000000000E+00  0.00000000000E+00  0.19140152906E+03  0.19140152906E+03  0.00000000000E+00 0.  1.
          1   -1    0    0  502    0  0.00000000000E+00 -0.00000000000E+00 -0.25185104872E+03  0.25185104872E+03  0.00000000000E+00 0. -1.
         23    2    1    2    0    0 -0.14257532898E+03  0.19493545789E+02  0.63613692060E+02  0.17999467253E+03  0.87428013591E+02 0.  0.
         23    2    1    2    0    0  0.12481661851E+03  0.39516678569E+02 -0.12513162260E+03  0.20162414925E+03  0.88620643454E+02 0.  0.
        -11    1    4    4    0    0  0.35234886120E+00  0.21106326034E+02  0.38297555892E+01  0.21453861570E+02  0.00000000000E+00 0.  1.
         11    1    4    4    0    0  0.12446426965E+03  0.18410352535E+02 -0.12896137819E+03  0.18017028768E+03  0.00000000000E+00 0. -1.
        -13    1    3    3    0    0 -0.88975134037E+02 -0.19027744391E+02  0.68377888416E+02  0.11381636595E+03  0.00000000000E+00 0.  1.
         13    1    3    3    0    0 -0.53600194945E+02  0.38521290180E+02 -0.47641963560E+01  0.66178306583E+02  0.00000000000E+00 0. -1.
         21    1    1    2  502  501  0.17758710474E+02 -0.59010224357E+02  0.10684108773E+01  0.61633755996E+02  0.00000000000E+00 0.  1.
<scales pt_clust_5="13000.00000" pt_clust_6="13000.00000" pt_clust_7="13000.00000" pt_clust_8="13000.00000" pt_clust_9="61.62449"></scales>
<clustering>
<clus scale="   61.624">  1  9  2 -1</clus>
<clus scale="   87.428">  7  8 -1 -1</clus>
<clus scale="   88.621">  5  6 -1 -1</clus>
<clus scale="  157.944">  1  7  2 -1</clus>
<clus scale="  158.607">  2  5  1 -1</clus>
</clustering>
</event>
<event>
 9    1  0.1748361E-005  0.1962019E+03  0.7546771E-02  0.1153154E+00
          1   -1    0    0  502    0  0.00000000000E+00  0.00000000000E+00  0.89293661520E+03  0.89293661520E+03  0.00000000000E+00 0. -1.
         -1   -1    0    0    0  501 -0.00000000000E+00 -0.00000000000E+00 -0.77988360398E+02  0.77988360398E+02  0.00000000000E+00 0.  1.
         23    2    1    2    0    0 -0.67085419532E+02 -0.19039792082E+03  0.19735764971E+03  0.29647927617E+03  0.90543346140E+02 0.  0.
         23    2    1    2    0    0  0.68663262205E+02  0.14999828248E+03  0.60223883742E+03  0.63119876734E+03  0.92228728017E+02 0.  0.
        -11    1    3    3    0    0 -0.83769849398E+02 -0.14862449955E+03  0.12585759284E+03  0.21200651690E+03  0.00000000000E+00 0.  1.
         11    1    3    3    0    0  0.16684429866E+02 -0.41773421268E+02  0.71500056875E+02  0.84472759263E+02  0.00000000000E+00 0. -1.
        -13    1    4    4    0    0  0.27541128413E+02  0.74083139981E+02  0.44361396194E+03  0.45059979207E+03  0.00000000000E+00 0. -1.
         13    1    4    4    0    0  0.41122133792E+02  0.75915142501E+02  0.15862487548E+03  0.18059897527E+03  0.00000000000E+00 0.  1.
         21    1    1    2  502  501 -0.15778426725E+01  0.40399638334E+02  0.15351767671E+02  0.43246932095E+02  0.00000000000E+00 0. -1.
<scales pt_clust_5="13000.00000" pt_clust_6="13000.00000" pt_clust_7="13000.00000" pt_clust_8="13000.00000" pt_clust_9="40.43044"></scales>
<clustering>
<clus scale="   40.430">  2  9  1 -1</clus>
<clus scale="   90.543">  5  6 -1 -1</clus>
<clus scale="   92.229">  7  8 -1 -1</clus>
<clus scale="  195.415">  2  5  1 -1</clus>
<clus scale="  196.202">  1  5  2 -1</clus>
</clustering>
</event>
<event>
 9    1  0.1748361E-005  0.1077438E+03  0.7546771E-02  0.1266323E+00
          1   -1    0    0  502    0  0.00000000000E+00  0.00000000000E+00  0.58119801664E+03  0.58119801664E+03  0.00000000000E+00 0. -1.
         -1   -1    0    0    0  501 -0.00000000000E+00 -0.00000000000E+00 -0.28103586366E+02  0.28103586366E+02  0.00000000000E+00 0.  1.
         23    2    1    2    0    0  0.20160173834E+02  0.37513234484E+02  0.14538723655E+03  0.17748168813E+03  0.92458778378E+02 0.  0.
         23    2    1    2    0    0 -0.44324832881E+02 -0.30427192855E+02  0.37333523183E+03  0.38921035612E+03  0.95994797316E+02 0.  0.
        -11    1    4    4    0    0 -0.72570167341E+02 -0.14807615100E+02  0.30138187620E+03  0.31034936758E+03  0.00000000000E+00 0. -1.
         11    1    4    4    0    0  0.28245334460E+02 -0.15619577756E+02  0.71953355628E+02  0.78860988544E+02  0.00000000000E+00 0.  1.
        -13    1    3    3    0    0  0.47311726349E+02  0.51970206162E+02  0.90766199020E+02  0.11479461949E+03  0.00000000000E+00 0.  1.
         13    1    3    3    0    0 -0.27151552515E+02 -0.14456971678E+02  0.54621037531E+02  0.62687068643E+02  0.00000000000E+00 0. -1.
         21    1    1    2  502  501  0.24164659047E+02 -0.70860416285E+01  0.34371961887E+02  0.42609558749E+02  0.00000000000E+00 0.  1.
<scales pt_clust_5="13000.00000" pt_clust_6="13000.00000" pt_clust_7="13000.00000" pt_clust_8="13000.00000" pt_clust_9="25.18219"></scales>
<clustering>
<clus scale="   25.182">  2  9  1 -1</clus>
<clus scale="   92.459">  7  8 -1 -1</clus>
<clus scale="   95.995">  5  6 -1 -1</clus>
<clus scale="  104.606">  2  7  1 -1</clus>
<clus scale="  107.744">  1  5  2 -1</clus>
</clustering>
</event>
<event>
 9    1  0.1748361E-005  0.9583494E+02  0.7546771E-02  0.1291744E+00
         -2   -1    0    0    0  501 -0.00000000000E+00  0.00000000000E+00  0.99795072913E+02  0.99795072913E+02  0.00000000000E+00 0.  1.
          2   -1    0    0  502    0  0.00000000000E+00 -0.00000000000E+00 -0.24127010042E+03  0.24127010042E+03  0.00000000000E+00 0. -1.
         23    2    1    2    0    0 -0.27599899299E+02  0.11131774618E+02  0.21613902335E+02  0.93651827984E+02  0.86126844033E+02 0.  0.
         23    2    1    2    0    0  0.30561371927E+02  0.11656594533E+02 -0.18938101434E+03  0.21249409857E+03  0.90657044329E+02 0.  0.
        -11    1    3    3    0    0 -0.16909003338E+02  0.39945876634E+02 -0.14955375987E+02  0.45883011288E+02  0.00000000000E+00 0.  1.
         11    1    3    3    0    0 -0.10690895961E+02 -0.28814102017E+02  0.36569278322E+02  0.47768816695E+02  0.00000000000E+00 0. -1.
        -13    1    4    4    0    0  0.31215323365E+01 -0.37648648495E+02 -0.98791080860E+02  0.10576787015E+03  0.00000000000E+00 0. -1.
         13    1    4    4    0    0  0.27439839591E+02  0.49305243028E+02 -0.90589933480E+02  0.10672622843E+03  0.00000000000E+00 0.  1.
         21    1    1    2  502  501 -0.29614726282E+01 -0.22788369151E+02  0.26292084493E+02  0.34919246780E+02  0.00000000000E+00 0.  1.
<scales pt_clust_5="13000.00000" pt_clust_6="13000.00000" pt_clust_7="13000.00000" pt_clust_8="13000.00000" pt_clust_9="22.97999"></scales>
<clustering>
<clus scale="   22.980">  1  9  2 -1</clus>
<clus scale="   86.127">  5  6 -1 -1</clus>
<clus scale="   90.657">  7  8 -1 -1</clus>
<clus scale="   91.561">  1  5  2 -1</clus>
<clus scale="   95.835">  2  5  1 -1</clus>
</clustering>
</event>
<event>
 9    1  0.1748361E-005  0.1049931E+03  0.7546771E-02  0.1271200E+00
          1   -1    0    0  502    0  0.00000000000E+00  0.00000000000E+00  0.35866383345E+03  0.35866383345E+03  0.00000000000E+00 0. -1.
         -1   -1    0    0    0  501 -0.00000000000E+00 -0.00000000000E+00 -0.66522006038E+02  0.66522006038E+02  0.00000000000E+00 0.  1.
         23    2    1    2    0    0  0.78566442977E+02  0.43915577731E+02  0.87393238355E+02  0.15498214556E+03  0.90997930754E+02 0.  0.
         23    2    1    2    0    0 -0.34134010327E+02  0.83757147750E+01  0.15901040210E+03  0.18773793080E+03  0.93412736953E+02 0.  0.
        -11    1    4    4    0    0 -0.12926724716E+02  0.38590714906E+02  0.22874819745E+02  0.46686195682E+02  0.00000000000E+00 0.  1.
         11    1    4    4    0    0 -0.21207285610E+02 -0.30215000131E+02  0.13613558235E+03  0.14105173512E+03  0.00000000000E+00 0. -1.
        -13    1    3    3    0    0  0.62136733679E+02  0.70971001625E+02  0.76684946034E+02  0.12156659777E+03  0.00000000000E+00 0.  1.
         13    1    3    3    0    0  0.16429709297E+02 -0.27055423894E+02  0.10708292321E+02  0.33415547790E+02  0.00000000000E+00 0. -1.
         21    1    1    2  502  501 -0.44432432650E+02 -0.52291292506E+02  0.45738186953E+02  0.82465763131E+02  0.00000000000E+00 0.  1.
<scales pt_clust_5="13000.00000" pt_clust_6="13000.00000" pt_clust_7="13000.00000" pt_clust_8="13000.00000" pt_clust_9="68.61939"></scales>
<clustering>
<clus scale="   68.619">  2  9  1 -1</clus>
<clus scale="   90.998">  7  8 -1 -1</clus>
<clus scale="   93.413">  5  6 -1 -1</clus>
<clus scale="  102.851">  2  7  1 -1</clus>
<clus scale="  104.993">  1  5  2 -1</clus>
</clustering>
</event>
<event>
 9    1  0.1748361E-005  0.9369989E+02  0.7546771E-02  0.1294819E+00
          1   -1    0    0  502    0  0.00000000000E+00  0.00000000000E+00  0.76901869048E+03  0.76901869048E+03  0.00000000000E+00 0. -1.
         -1   -1    0    0    0  501 -0.00000000000E+00 -0.00000000000E+00 -0.17063544715E+02  0.17063544715E+02  0.00000000000E+00 0.  1.
         23    2    1    2    0    0  0.30973917423E+01  0.27121071093E+02  0.20992519562E+03  0.23030206056E+03  0.90693467298E+02 0.  0.
         23    2    1    2    0    0  0.17266770889E+02 -0.89024994242E+01  0.45360058301E+03  0.46322549650E+03  0.91907430724E+02 0.  0.
        -11    1    3    3    0    0 -0.17837120852E+02  0.51040722368E+02  0.80086661326E+02  0.96629144374E+02  0.00000000000E+00 0.  1.
         11    1    3    3    0    0  0.20934512595E+02 -0.23919651276E+02  0.12983853429E+03  0.13367291619E+03  0.00000000000E+00 0. -1.
        -13    1    4    4    0    0 -0.34683041275E+02 -0.21023182728E+02  0.18959747203E+03  0.19388679420E+03  0.00000000000E+00 0. -1.
         13    1    4    4    0    0  0.51949812164E+02  0.12120683304E+02  0.26400311098E+03  0.26933870230E+03  0.00000000000E+00 0.  1.
         21    1    1    2  502  501 -0.20364162631E+02 -0.18218571669E+02  0.88429367133E+02  0.92554678136E+02  0.00000000000E+00 0. -1.
<scales pt_clust_5="13000.00000" pt_clust_6="13000.00000" pt_clust_7="13000.00000" pt_clust_8="13000.00000" pt_clust_9="27.32427"></scales>
<clustering>
<clus scale="   27.324">  2  9  1 -1</clus>
<clus scale="   90.693">  5  6 -1 -1</clus>
<clus scale="   91.907">  7  8 -1 -1</clus>
<clus scale="   92.509">  2  5  1 -1</clus>
<clus scale="   93.700">  1  5  2 -1</clus>
</clustering>
</event>
<event>
 9    1  0.1748361E-005  0.1012611E+03  0.7546771E-02  0.1278751E+00
          2   -1    0    0  502    0  0.00000000000E+00  0.00000000000E+00  0.93662283379E+02  0.93662283379E+02  0.00000000000E+00 0. -1.
         -2   -1    0    0    0  501 -0.00000000000E+00 -0.00000000000E+00 -0.14625984437E+03  0.14625984437E+03  0.00000000000E+00 0.  1.
         23    2    1    2    0    0 -0.37815125735E+02 -0.28711906142E+02 -0.58284804205E+02  0.11774393568E+03  0.90620961697E+02 0.  0.
         23    2    1    2    0    0  0.13687752207E+02  0.27271107201E+02  0.25507103214E+01  0.97805176384E+02  0.92888527579E+02 0.  0.
        -11    1    3    3    0    0 -0.43416592487E+02  0.23784711734E+02 -0.27531860594E+02  0.56645532597E+02  0.00000000000E+00 0. -1.
         11    1    3    3    0    0  0.56014667513E+01 -0.52496617876E+02 -0.30752943611E+02  0.61098403081E+02  0.00000000000E+00 0.  1.
        -13    1    4    4    0    0 -0.26649476832E+02 -0.17586782371E+02 -0.14569061367E+02  0.35096254482E+02  0.00000000000E+00 0.  1.
         13    1    4    4    0    0  0.40337229039E+02  0.44857889572E+02  0.17119771688E+02  0.62708921901E+02  0.00000000000E+00 0. -1.
         21    1    1    2  502  501  0.24127373529E+02  0.14407989408E+01  0.31365328953E+01  0.24373015685E+02  0.00000000000E+00 0.  1.
<scales pt_clust_5="13000.00000" pt_clust_6="13000.00000" pt_clust_7="13000.00000" pt_clust_8="13000.00000" pt_clust_9="24.17035"></scales>
<clustering>
<clus scale="   24.170">  1  9  2 -1</clus>
<clus scale="   90.621">  5  6 -1 -1</clus>
<clus scale="   92.889">  7  8 -1 -1</clus>
<clus scale="   99.185">  2  5  1 -1</clus>
<clus scale="   24.170">  1  5  2 -1</clus>
</clustering>
</event>
<event>
 9    1  0.1748361E-005  0.9204255E+02  0.7546771E-02  0.1298989E+00
          1   -1    0    0  502    0  0.00000000000E+00  0.00000000000E+00  0.67650724207E+02  0.67650724207E+02  0.00000000000E+00 0. -1.
         -1   -1    0    0    0  501 -0.00000000000E+00 -0.00000000000E+00 -0.23525702667E+03  0.23525702667E+03  0.00000000000E+00 0.  1.
         23    2    1    2    0    0  0.16754603856E+02  0.36735849435E+02 -0.12242592593E+03  0.15751843817E+03  0.90519123056E+02 0.  0.
         23    2    1    2    0    0 -0.12044632723E+02 -0.14621132954E+01 -0.22697409976E+01  0.89642178870E+02  0.88788273751E+02 0.  0.
        -11    1    4    4    0    0  0.16447591096E+02  0.35746368207E+02 -0.13229583443E+02  0.41513226458E+02  0.00000000000E+00 0. -1.
         11    1    4    4    0    0 -0.28492223819E+02 -0.37208481502E+02  0.10959842446E+02  0.48128952412E+02  0.00000000000E+00 0.  1.
        -13    1    3    3    0    0 -0.32867662480E+02 -0.55399891568E+01 -0.33493172558E+02  0.47252167408E+02  0.00000000000E+00 0.  1.
         13    1    3    3    0    0  0.49622266335E+02  0.42275838592E+02 -0.88932753370E+02  0.11026627076E+03  0.00000000000E+00 0. -1.
         21    1    1    2  502  501 -0.47099711328E+01 -0.35273736140E+02 -0.42910635537E+02  0.55747133841E+02  0.00000000000E+00 0. -1.
<scales pt_clust_5="13000.00000" pt_clust_6="13000.00000" pt_clust_7="13000.00000" pt_clust_8="13000.00000" pt_clust_9="35.58680"></scales>
<clustering>
<clus scale="   35.587">  2  9  1 -1</clus>
<clus scale="   88.788">  5  6 -1 -1</clus>
<clus scale="   90.341">  1  5  2 -1</clus>
<clus scale="   90.519">  7  8 -1 -1</clus>
<clus scale="   90.341">  1  5  2 -1</clus>
</clustering>
</event>
<event>
 9    1  0.1748361E-005  0.1151020E+03  0.7546771E-02  0.1253304E+00
          1   -1    0    0  502    0  0.00000000000E+00  0.00000000000E+00  0.93287720766E+02  0.93287720766E+02  0.00000000000E+00 0. -1.
         -1   -1    0    0    0  501 -0.00000000000E+00 -0.00000000000E+00 -0.40073493873E+03  0.40073493873E+03  0.00000000000E+00 0.  1.
         23    2    1    2    0    0  0.44543443806E+02  0.50141375451E+02 -0.15746539609E+03  0.19331049753E+03  0.89862793025E+02 0.  0.
         23    2    1    2    0    0 -0.70782356646E+02  0.25700961556E+02  0.10028647455E+02  0.12170408694E+03  0.95082225319E+02 0.  0.
        -11    1    4    4    0    0  0.51318045628E+01 -0.26336667922E+02 -0.78279051800E+01  0.27950520474E+02  0.00000000000E+00 0.  1.
         11    1    4    4    0    0 -0.75914161208E+02  0.52037629477E+02  0.17856552635E+02  0.93753566469E+02  0.00000000000E+00 0. -1.
        -13    1    3    3    0    0  0.25320451469E+02 -0.13362192232E+02 -0.10468230993E+03  0.10852676838E+03  0.00000000000E+00 0.  1.
         13    1    3    3    0    0  0.19222992337E+02  0.63503567683E+02 -0.52783086162E+02  0.84783729145E+02  0.00000000000E+00 0. -1.
         21    1    1    2  502  501  0.26238912839E+02 -0.75842337007E+02 -0.16001046933E+03  0.17900807503E+03  0.00000000000E+00 0.  1.
<scales pt_clust_5="13000.00000" pt_clust_6="13000.00000" pt_clust_7="13000.00000" pt_clust_8="13000.00000" pt_clust_9="80.25298"></scales>
<clustering>
<clus scale="   80.253">  2  9  1 -1</clus>
<clus scale="   89.863">  7  8 -1 -1</clus>
<clus scale="   95.082">  5  6 -1 -1</clus>
<clus scale="  110.829">  2  7  1 -1</clus>
<clus scale="  115.102">  1  5  2 -1</clus>
</clustering>
</event>
<event>
 9    1  0.1748361E-005  0.1080715E+03  0.7546771E-02  0.1267426E+00
         -2   -1    0    0    0  501 -0.00000000000E+00  0.00000000000E+00  0.85232911445E+02  0.85232911445E+02  0.00000000000E+00 0.  1.
          2   -1    0    0  502    0  0.00000000000E+00 -0.00000000000E+00 -0.29122828069E+03  0.29122828069E+03  0.00000000000E+00 0. -1.
         23    2    1    2    0    0  0.18778564727E+01 -0.39680927084E+02 -0.55334797449E+02  0.11361010338E+03  0.90924218234E+02 0.  0.
         23    2    1    2    0    0  0.20657396936E+02  0.44823480659E+02 -0.18866795931E+03  0.21836687798E+03  0.98247758543E+02 0.  0.
        -11    1    4    4    0    0  0.42379492965E+02  0.31131375756E+02 -0.18512227126E+03  0.19244593863E+03  0.00000000000E+00 0. -1.
         11    1    4    4    0    0 -0.21722096029E+02  0.13692104903E+02 -0.35456880536E+01  0.25920939341E+02  0.00000000000E+00 0.  1.
        -13    1    3    3    0    0 -0.18083358106E+02 -0.59291522236E+02 -0.13762204833E+02  0.63497171049E+02  0.00000000000E+00 0.  1.
         13    1    3    3    0    0  0.19961214579E+02  0.19610595151E+02 -0.41572592616E+02  0.50112932328E+02  0.00000000000E+00 0. -1.
         21    1    1    2  502  501 -0.22535253408E+02 -0.51425535746E+01  0.38007387515E+02  0.44484210785E+02  0.00000000000E+00 0.  1.
<scales pt_clust_5="13000.00000" pt_clust_6="13000.00000" pt_clust_7="13000.00000" pt_clust_8="13000.00000" pt_clust_9="23.11457"></scales>
<clustering>
<clus scale="   23.115">  1  9  2 -1</clus>
<clus scale="   90.924">  7  8 -1 -1</clus>
<clus scale="   98.248">  5  6 -1 -1</clus>
<clus scale="  101.460">  1  7  2 -1</clus>
<clus scale="  108.071">  2  5  1 -1</clus>
</clustering>
</event>
<event>
 9    1  0.1748361E-005  0.1783584E+03  0.7546771E-02  0.1169659E+00
          1   -1    0    0  502    0  0.00000000000E+00  0.00000000000E+00  0.33557090591E+02  0.33557090591E+02  0.00000000000E+00 0. -1.
         -1   -1    0    0    0  501 -0.00000000000E+00 -0.00000000000E+00 -0.18859432918E+04  0.18859432918E+04  0.00000000000E+00 0.  1.
         23    2    1    2    0    0  0.19920401969E+03  0.38247103697E+02 -0.11096488590E+04  0.11316694384E+04  0.90609299767E+02 0.  0.
         23    2    1    2    0    0 -0.97983519701E+02  0.33242642010E+02 -0.33307141202E+03  0.35983264055E+03  0.88527511669E+02 0.  0.
        -11    1    3    3    0    0  0.20685881365E+02 -0.25289575675E+02 -0.16370516946E+03  0.16693367196E+03  0.00000000000E+00 0.  1.
         11    1    3    3    0    0  0.17851813832E+03  0.63536679372E+02 -0.94594368951E+03  0.96473576645E+03  0.00000000000E+00 0. -1.
        -13    1    4    4    0    0 -0.92103500955E+02  0.58801736741E+02 -0.25344735885E+03  0.27600047616E+03  0.00000000000E+00 0.  1.
         13    1    4    4    0    0 -0.58800187463E+01 -0.25559094731E+02 -0.79624053169E+02  0.83832164394E+02  0.00000000000E+00 0. -1.
         21    1    1    2  502  501 -0.10122049999E+03 -0.71489745706E+02 -0.40966593023E+03  0.42799830344E+03  0.00000000000E+00 0.  1.
<scales pt_clust_5="13000.00000" pt_clust_6="13000.00000" pt_clust_7="13000.00000" pt_clust_8="13000.00000" pt_clust_9="123.92084"></scales>
<clustering>
<clus scale="   88.528">  7  8 -1 -1</clus>
<clus scale="   90.609">  5  6 -1 -1</clus>
<clus scale="  123.921">  1  9  2 -1</clus>
<clus scale="  177.310">  1  7  2 -1</clus>
<clus scale="  123.921">  1  5  2 -1</clus>
</clustering>
</event>
<event>
 9    1  0.1748361E-005  0.1173835E+03  0.7546771E-02  0.1248008E+00
          1   -1    0    0  502    0  0.00000000000E+00  0.00000000000E+00  0.32146782978E+03  0.32146782978E+03  0.00000000000E+00 0. -1.
         -1   -1    0    0    0  501 -0.00000000000E+00 -0.00000000000E+00 -0.55990888450E+02  0.55990888450E+02  0.00000000000E+00 0.  1.
         23    2    1    2    0    0  0.49270913924E+02 -0.70723809764E+02  0.11667576175E+03  0.17208978429E+03  0.92586069408E+02 0.  0.
         23    2    1    2    0    0 -0.45483554275E+02  0.43260815910E+02  0.13472254394E+03  0.17427603916E+03  0.91003967373E+02 0.  0.
        -13    1    3    3    0    0  0.35459479601E+02 -0.36500208100E+01  0.93055826179E+02  0.99649807483E+02  0.00000000000E+00 0.  1.
         13    1    3    3    0    0  0.13811434322E+02 -0.67073788954E+02  0.23619935575E+02  0.72439976803E+02  0.00000000000E+00 0. -1.
        -13    1    4    4    0    0 -0.43662713885E+02 -0.12741654535E+01  0.14448853271E+02  0.46008971324E+02  0.00000000000E+00 0.  1.
         13    1    4    4    0    0 -0.18208403895E+01  0.44534981364E+02  0.12027369067E+03  0.12826706784E+03  0.00000000000E+00 0. -1.
         21    1    1    2  502  501 -0.37873596488E+01  0.27462993854E+02  0.14078635637E+02  0.31092894782E+02  0.00000000000E+00 0.  1.
<scales pt_clust_5="13000.00000" pt_clust_6="13000.00000" pt_clust_7="13000.00000" pt_clust_8="13000.00000" pt_clust_9="27.72292"></scales>
<clustering>
<clus scale="   27.723">  2  9  1 -1</clus>
<clus scale="   91.004">  7  8 -1 -1</clus>
<clus scale="   92.586">  5  6 -1 -1</clus>
<clus scale="  116.140">  1  7  2 -1</clus>
<clus scale="  116.140">  1  5  2 -1</clus>
</clustering>
</event>
<event>
 9    1  0.1748361E-005  0.9821240E+02  0.7546771E-02  0.1284655E+00
         -1   -1    0    0    0  501 -0.00000000000E+00  0.00000000000E+00  0.30355981011E+02  0.30355981011E+02  0.00000000000E+00 0.  1.
          1   -1    0    0  502    0  0.00000000000E+00 -0.00000000000E+00 -0.46461386354E+03  0.46461386354E+03  0.00000000000E+00 0. -1.
         23    2    1    2    0    0 -0.26223566926E+02  0.44404018932E+02 -0.13529069333E+03  0.17017154340E+03  0.89416945389E+02 0.  0.
         23    2    1    2    0    0  0.95567818724E+01 -0.30807658456E+02 -0.28030294256E+03  0.29632029482E+03  0.90529186518E+02 0.  0.
        -11    1    3    3    0    0  0.15616911490E+02  0.56968267885E+02 -0.85664806102E+02  0.10405638123E+03  0.00000000000E+00 0. -1.
         11    1    3    3    0    0 -0.41840478416E+02 -0.12564248953E+02 -0.49625887224E+02  0.66115162169E+02  0.00000000000E+00 0.  1.
        -13    1    4    4    0    0  0.71665705323E+00 -0.62419853799E+02 -0.20169387345E+03  0.21113306310E+03  0.00000000000E+00 0.  1.
         13    1    4    4    0    0  0.88401248191E+01  0.31612195343E+02 -0.78609069111E+02  0.85187231718E+02  0.00000000000E+00 0. -1.
         21    1    1    2  502  501  0.16666785053E+02 -0.13596360475E+02 -0.18664246642E+02  0.28478006336E+02  0.00000000000E+00 0.  1.
<scales pt_clust_5="13000.00000" pt_clust_6="13000.00000" pt_clust_7="13000.00000" pt_clust_8="13000.00000" pt_clust_9="21.50913"></scales>
<clustering>
<clus scale="   21.509">  1  9  2 -1</clus>
<clus scale="   89.417">  5  6 -1 -1</clus>
<clus scale="   90.529">  7  8 -1 -1</clus>
<clus scale="   97.188">  1  5  2 -1</clus>
<clus scale="   98.212">  2  5  1 -1</clus>
</clustering>
</event>
<event>
 9    1  0.1748361E-005  0.1285909E+03  0.7546771E-02  0.1230272E+00
         -1   -1    0    0    0  501 -0.00000000000E+00  0.00000000000E+00  0.27011511426E+03  0.27011511426E+03  0.00000000000E+00 0.  1.
          1   -1    0    0  502    0  0.00000000000E+00 -0.00000000000E+00 -0.31049534442E+03  0.31049534442E+03  0.00000000000E+00 0. -1.
         23    2    1    2    0    0 -0.11037080325E+03 -0.42942354109E+02  0.71822947802E+02  0.16599435733E+03  0.91486779634E+02 0.  0.
         23    2    1    2    0    0  0.81383965936E+02  0.30418434414E+02 -0.24682615980E+03  0.27633944915E+03  0.88835279767E+02 0.  0.
        -11    1    3    3    0    0 -0.10091870544E+03 -0.61142432075E+02  0.81411280769E+02  0.14335542803E+03  0.00000000000E+00 0.  1.
         11    1    3    3    0    0 -0.94520978128E+01  0.18200077966E+02 -0.95883329672E+01  0.22638929306E+02  0.00000000000E+00 0. -1.
        -13    1    4    4    0    0  0.69819316340E+02  0.44057393077E+01 -0.23555119961E+03  0.24572040027E+03  0.00000000000E+00 0. -1.
         13    1    4    4    0    0  0.11564649596E+02  0.26012695106E+02 -0.11274960195E+02  0.30619048881E+02  0.00000000000E+00 0.  1.
         21    1    1    2  502  501  0.28986837318E+02  0.12523919695E+02  0.13462298184E+03  0.13827665219E+03  0.00000000000E+00 0.  1.
<scales pt_clust_5="13000.00000" pt_clust_6="13000.00000" pt_clust_7="13000.00000" pt_clust_8="13000.00000" pt_clust_9="31.57666"></scales>
<clustering>
<clus scale="   31.577">  1  9  2 -1</clus>
<clus scale="   88.835">  7  8 -1 -1</clus>
<clus scale="   91.487">  5  6 -1 -1</clus>
<clus scale="  126.718">  2  7  1 -1</clus>
<clus scale="  126.718">  2  5  1 -1</clus>
</clustering>
</event>
<event>
 9    1  0.1748361E-005  0.1348431E+03  0.7546771E-02  0.1221559E+00
          2   -1    0    0  502    0  0.00000000000E+00  0.00000000000E+00  0.66019076188E+03  0.66019076188E+03  0.00000000000E+00 0. -1.
         -2   -1    0    0    0  501 -0.00000000000E+00 -0.00000000000E+00 -0.62138363963E+02  0.62138363963E+02  0.00000000000E+00 0.  1.
         23    2    1    2    0    0 -0.44026692751E+02 -0.27500912869E+00  0.46470205771E+02  0.11387845062E+03  0.94182780728E+02 0.  0.
         23    2    1    2    0    0  0.92546087926E+02  0.72563742092E+02  0.45496403407E+03  0.47839352974E+03  0.89653900885E+02 0.  0.
        -11    1    4    4    0    0 -0.11261525810E+01  0.33580877213E+02  0.45590105879E+02  0.56633923474E+02  0.00000000000E+00 0.  1.
         11    1    4    4    0    0  0.93672240507E+02  0.38982864880E+02  0.40937392819E+03  0.42175960627E+03  0.00000000000E+00 0. -1.
        -13    1    3    3    0    0  0.50648723649E+01 -0.37190485538E+02  0.11597347985E+01  0.37551699448E+02  0.00000000000E+00 0. -1.
         13    1    3    3    0    0 -0.49091565116E+02  0.36915476410E+02  0.45310470972E+02  0.76326751168E+02  0.00000000000E+00 0.  1.
         21    1    1    2  502  501 -0.48519395175E+02 -0.72288732964E+02  0.96618158070E+02  0.13005714548E+03  0.00000000000E+00 0.  1.
<scales pt_clust_5="13000.00000" pt_clust_6="13000.00000" pt_clust_7="13000.00000" pt_clust_8="13000.00000" pt_clust_9="87.06200"></scales>
<clustering>
<clus scale="   87.062">  2  9  1 -1</clus>
<clus scale="   89.654">  5  6 -1 -1</clus>
<clus scale="   94.183">  7  8 -1 -1</clus>
<clus scale="  131.720">  1  5  2 -1</clus>
<clus scale="  131.720">  1  5  2 -1</clus>
</clustering>
</event>
<event>
 9    1  0.1748361E-005  0.1872121E+03  0.7546771E-02  0.1161027E+00
          1   -1    0    0  502    0  0.00000000000E+00  0.00000000000E+00  0.47038692016E+03  0.47038692016E+03  0.00000000000E+00 0. -1.
         -1   -1    0    0    0  501 -0.00000000000E+00 -0.00000000000E+00 -0.15639138773E+03  0.15639138773E+03  0.00000000000E+00 0.  1.
         23    2    1    2    0    0 -0.12289901791E+03 -0.72713205899E+02  0.48678029527E+02  0.17616438555E+03  0.90955820388E+02 0.  0.
         23    2    1    2    0    0  0.13611124963E+03  0.10619180504E+03  0.32603919758E+03  0.38002706894E+03  0.91192340862E+02 0.  0.
        -11    1    4    4    0    0  0.32098363095E+02 -0.74619118059E+01  0.10895098962E+03  0.11382575798E+03  0.00000000000E+00 0.  1.
         11    1    4    4    0    0  0.10401288653E+03  0.11365371685E+03  0.21708820797E+03  0.26620131096E+03  0.00000000000E+00 0. -1.
        -13    1    3    3    0    0 -0.60604126582E+02 -0.65705160538E+02 -0.10443835678E+02  0.89995010883E+02  0.00000000000E+00 0.  1.
         13    1    3    3    0    0 -0.62294891331E+02 -0.70080453603E+01  0.59121865205E+02  0.86169374670E+02  0.00000000000E+00 0. -1.
         21    1    1    2  502  501 -0.13212231714E+02 -0.33478599141E+02 -0.60721694679E+02  0.70586853394E+02  0.00000000000E+00 0.  1.
<scales pt_clust_5="13000.00000" pt_clust_6="13000.00000" pt_clust_7="13000.00000" pt_clust_8="13000.00000" pt_clust_9="35.99138"></scales>
<clustering>
<clus scale="   35.991">  2  9  1 -1</clus>
<clus scale="   90.956">  7  8 -1 -1</clus>
<clus scale="   91.192">  5  6 -1 -1</clus>
<clus scale="  187.097">  2  7  1 -1</clus>
<clus scale="  187.212">  1  5  2 -1</clus>
</clustering>
</event>
<event>
 9    1  0.1748361E-005  0.2896670E+03  0.7546771E-02  0.1090678E+00
         -1   -1    0    0    0  501 -0.00000000000E+00  0.00000000000E+00  0.17614123057E+03  0.17614123057E+03  0.00000000000E+00 0.  1.
          1   -1    0    0  502    0  0.00000000000E+00 -0.00000000000E+00 -0.66234692424E+03  0.66234692424E+03  0.00000000000E+00 0. -1.
         23    2    1    2    0    0  0.16450804300E+03  0.19663862573E+03 -0.42548381802E+02  0.27510990258E+03  0.90252137713E+02 0.  0.
         23    2    1    2    0    0 -0.20476836485E+03 -0.19329162245E+03 -0.42614729096E+03  0.51934761769E+03  0.93961161414E+02 0.  0.
        -13    1    4    4    0    0 -0.16042583932E+03 -0.90372876835E+02 -0.28142912007E+03  0.33631243868E+03  0.00000000000E+00 0. -1.
         13    1    4    4    0    0 -0.44342525538E+02 -0.10291874561E+03 -0.14471817089E+03  0.18303517901E+03  0.00000000000E+00 0.  1.
        -13    1    3    3    0    0  0.14372763035E+03  0.20194004180E+03 -0.49107054152E+02  0.25268342838E+03  0.00000000000E+00 0.  1.
         13    1    3    3    0    0  0.20780412653E+02 -0.53014160668E+01  0.65586723498E+01  0.22426474206E+02  0.00000000000E+00 0. -1.
         21    1    1    2  502  501  0.40260321850E+02 -0.33470032874E+01 -0.17510020904E+02  0.44030634546E+02  0.00000000000E+00 0.  1.
<scales pt_clust_5="13000.00000" pt_clust_6="13000.00000" pt_clust_7="13000.00000" pt_clust_8="13000.00000" pt_clust_9="40.39921"></scales>
<clustering>
<clus scale="   40.399">  1  9  2 -1</clus>
<clus scale="   90.252">  7  8 -1 -1</clus>
<clus scale="   93.961">  5  6 -1 -1</clus>
<clus scale="  288.485">  1  7  2 -1</clus>
<clus scale="  289.667">  2  5  1 -1</clus>
</clustering>
</event>
<event>
 9    1  0.1748361E-005  0.1474604E+03  0.7546771E-02  0.1204532E+00
          2   -1    0    0  502    0  0.00000000000E+00  0.00000000000E+00  0.89033125373E+03  0.89033125373E+03  0.00000000000E+00 0. -1.
         -2   -1    0    0    0  501 -0.00000000000E+00 -0.00000000000E+00 -0.57854922289E+02  0.57854922289E+02  0.00000000000E+00 0.  1.
         23    2    1    2    0    0  0.67683870981E+02 -0.98966427130E+02  0.18210093164E+03  0.23553144513E+03  0.89100237079E+02 0.  0.
         23    2    1    2    0    0 -0.38667095692E+02  0.10613911214E+03  0.66384616026E+03  0.67986933710E+03  0.93647934441E+02 0.  0.
        -11    1    4    4    0    0 -0.47391928940E+02  0.88665139754E+01  0.18620263409E+03  0.19234352326E+03  0.00000000000E+00 0.  1.
         11    1    4    4    0    0  0.87248332481E+01  0.97272598162E+02  0.47764352617E+03  0.48752581384E+03  0.00000000000E+00 0. -1.
        -13    1    3    3    0    0 -0.19845190888E+02 -0.28485907465E+02  0.26911684756E+02  0.43926271204E+02  0.00000000000E+00 0.  1.
         13    1    3    3    0    0  0.87529061869E+02 -0.70480519665E+02  0.15518924689E+03  0.19160517392E+03  0.00000000000E+00 0. -1.
         21    1    1    2  502  501 -0.29016775290E+02 -0.71726850076E+01 -0.13470760464E+02  0.32785393789E+02  0.00000000000E+00 0.  1.
<scales pt_clust_5="13000.00000" pt_clust_6="13000.00000" pt_clust_7="13000.00000" pt_clust_8="13000.00000" pt_clust_9="29.89014"></scales>
<clustering>
<clus scale="   29.890">  2  9  1 -1</clus>
<clus scale="   89.100">  7  8 -1 -1</clus>
<clus scale="   93.648">  5  6 -1 -1</clus>
<clus scale="  144.615">  2  7  1 -1</clus>
<clus scale="  147.460">  1  5  2 -1</clus>
</clustering>
</event>
<event>
 9    1  0.1748361E-005  0.9818565E+02  0.7546771E-02  0.1286468E+00
         -2   -1    0    0    0  501 -0.00000000000E+00  0.00000000000E+00  0.26159850939E+03  0.26159850939E+03  0.00000000000E+00 0.  1.
          2   -1    0    0  502    0  0.00000000000E+00 -0.00000000000E+00 -0.15881799419E+03  0.15881799419E+03  0.00000000000E+00 0. -1.
         23    2    1    2    0    0  0.31337328097E+02 -0.32745139770E+02  0.13937575895E+03  0.17162180806E+03  0.89298211112E+02 0.  0.
         23    2    1    2    0    0 -0.28485113212E+02  0.28539509405E+01 -0.12304131923E+03  0.15728217033E+03  0.93696148036E+02 0.  0.
        -11    1    3    3    0    0 -0.19491474824E+02 -0.24114162594E+02  0.10368952958E+02  0.32694427872E+02  0.00000000000E+00 0. -1.
         11    1    3    3    0    0  0.50828802921E+02 -0.86309771763E+01  0.12900680599E+03  0.13892738019E+03  0.00000000000E+00 0.  1.
        -13    1    4    4    0    0 -0.20393872481E+02 -0.30850656808E+02 -0.89610610042E+01  0.38052249271E+02  0.00000000000E+00 0.  1.
         13    1    4    4    0    0 -0.80912407313E+01  0.33704607749E+02 -0.11408025822E+03  0.11922992106E+03  0.00000000000E+00 0. -1.
         21    1    1    2  502  501 -0.28522148851E+01  0.29891188830E+02  0.86446075480E+02  0.91512525183E+02  0.00000000000E+00 0.  1.
<scales pt_clust_5="13000.00000" pt_clust_6="13000.00000" pt_clust_7="13000.00000" pt_clust_8="13000.00000" pt_clust_9="30.02696"></scales>
<clustering>
<clus scale="   30.027">  1  9  2 -1</clus>
<clus scale="   89.298">  5  6 -1 -1</clus>
<clus scale="   93.696">  7  8 -1 -1</clus>
<clus scale="   93.998">  1  5  2 -1</clus>
<clus scale="   98.186">  2  5  1 -1</clus>
</clustering>
</event>
<event>
 9    1  0.1748361E-005  0.9755457E+02  0.7546771E-02  0.1285571E+00
          1   -1    0    0  502    0  0.00000000000E+00  0.00000000000E+00  0.13331280685E+03  0.13331280685E+03  0.00000000000E+00 0. -1.
         -1   -1    0    0    0  501 -0.00000000000E+00 -0.00000000000E+00 -0.61593377015E+03  0.61593377015E+03  0.00000000000E+00 0.  1.
         23    2    1    2    0    0  0.64676381526E+02  0.22805994919E+01 -0.43480599176E+03  0.44891432482E+03  0.90992225437E+02 0.  0.
         23    2    1    2    0    0 -0.33597229188E+02  0.22395852751E+01  0.10575870806E+03  0.14358015221E+03  0.91085488564E+02 0.  0.
        -11    1    4    4    0    0 -0.19892177079E+01  0.25646559035E+02  0.10068959422E+03  0.10392351689E+03  0.00000000000E+00 0. -1.
         11    1    4    4    0    0 -0.31608011480E+02 -0.23406973760E+02  0.50691138421E+01  0.39656635327E+02  0.00000000000E+00 0.  1.
        -13    1    3    3    0    0  0.79167356751E+02  0.24340223900E+02 -0.28459395424E+03  0.29640113978E+03  0.00000000000E+00 0.  1.
         13    1    3    3    0    0 -0.14490975225E+02 -0.22059624408E+02 -0.15021203752E+03  0.15251318503E+03  0.00000000000E+00 0. -1.
         21    1    1    2  502  501 -0.31079152337E+02 -0.45201847671E+01 -0.15357367960E+03  0.15675209997E+03  0.00000000000E+00 0.  1.
<scales pt_clust_5="13000.00000" pt_clust_6="13000.00000" pt_clust_7="13000.00000" pt_clust_8="13000.00000" pt_clust_9="31.40614"></scales>
<clustering>
<clus scale="   31.406">  2  9  1 -1</clus>
<clus scale="   90.992">  7  8 -1 -1</clus>
<clus scale="   91.085">  5  6 -1 -1</clus>
<clus scale="   97.468">  2  7  1 -1</clus>
<clus scale="   97.555">  1  5  2 -1</clus>
</clustering>
</event>
<event>
 9    1  0.1748361E-005  0.1161312E+03  0.7546771E-02  0.1249739E+00
          1   -1    0    0  502    0  0.00000000000E+00  0.00000000000E+00  0.57576648957E+02  0.57576648957E+02  0.00000000000E+00 0. -1.
         -1   -1    0    0    0  501 -0.00000000000E+00 -0.00000000000E+00 -0.29735428897E+03  0.29735428897E+03  0.00000000000E+00 0.  1.
         23    2    1    2    0    0  0.16874539849E+01  0.78577366595E+02 -0.11830063969E+03  0.16914820171E+03  0.91863065200E+02 0.  0.
         23    2    1    2    0    0 -0.20483013929E+02 -0.63300155312E+02 -0.83013133207E+02  0.14032797484E+03  0.91511183561E+02 0.  0.
        -11    1    4    4    0    0  0.77274623786E+01  0.21404644596E+02 -0.94290445564E+01  0.24632891960E+02  0.00000000000E+00 0.  1.
         11    1    4    4    0    0 -0.28210476307E+02 -0.84704799907E+02 -0.73584088651E+02  0.11569508288E+03  0.00000000000E+00 0. -1.
        -13    1    3    3    0    0  0.24285165391E+02  0.88841844210E+02 -0.10885845413E+03  0.14259314702E+03  0.00000000000E+00 0.  1.
         13    1    3    3    0    0 -0.22597711406E+02 -0.10264477615E+02 -0.94421855613E+01  0.26555054692E+02  0.00000000000E+00 0. -1.
         21    1    1    2  502  501  0.18795559944E+02 -0.15277211284E+02 -0.38463867115E+02  0.45454761375E+02  0.00000000000E+00 0.  1.
<scales pt_clust_5="13000.00000" pt_clust_6="13000.00000" pt_clust_7="13000.00000" pt_clust_8="13000.00000" pt_clust_9="24.22119"></scales>
<clustering>
<clus scale="   24.221">  2  9  1 -1</clus>
<clus scale="   91.511">  5  6 -1 -1</clus>
<clus scale="   91.863">  7  8 -1 -1</clus>
<clus scale="  115.853">  1  5  2 -1</clus>
<clus scale="  115.853">  1  5  2 -1</clus>
</clustering>
</event>
<event>
 9    1  0.1748361E-005  0.9372693E+02  0.7546771E-02  0.1294307E+00
          1   -1    0    0  502    0  0.00000000000E+00  0.00000000000E+00  0.11869128430E+03  0.11869128430E+03  0.00000000000E+00 0. -1.
         -1   -1    0    0    0  501 -0.00000000000E+00 -0.00000000000E+00 -0.19579044377E+03  0.19579044377E+03  0.00000000000E+00 0.  1.
         23    2    1    2    0    0 -0.23957973150E+02  0.21216924508E+02 -0.84150859147E+02  0.12873429690E+03  0.92016355827E+02 0.  0.
         23    2    1    2    0    0 -0.58394746628E+01 -0.17070765179E+02  0.69530678470E+02  0.11640263090E+03  0.91594468965E+02 0.  0.
        -11    1    3    3    0    0 -0.48436013266E+02 -0.16165156579E+02 -0.32917104257E+02  0.60752740029E+02  0.00000000000E+00 0.  1.
         11    1    3    3    0    0  0.24478040116E+02  0.37382081087E+02 -0.51233754891E+02  0.67981556870E+02  0.00000000000E+00 0. -1.
        -11    1    4    4    0    0  0.20101257035E+02  0.11365137669E+02  0.74125300584E+02  0.77638824536E+02  0.00000000000E+00 0. -1.
         11    1    4    4    0    0 -0.25940731698E+02 -0.28435902848E+02 -0.45946221146E+01  0.38763806368E+02  0.00000000000E+00 0.  1.
         21    1    1    2  502  501  0.29797447813E+02 -0.41461593292E+01 -0.62478978795E+02  0.69344800271E+02  0.00000000000E+00 0. -1.
<scales pt_clust_5="13000.00000" pt_clust_6="13000.00000" pt_clust_7="13000.00000" pt_clust_8="13000.00000" pt_clust_9="30.08452"></scales>
<clustering>
<clus scale="   30.085">  2  9  1 -1</clus>
<clus scale="   91.594">  7  8 -1 -1</clus>
<clus scale="   92.016">  5  6 -1 -1</clus>
<clus scale="   93.313">  1  7  2 -1</clus>
<clus scale="   93.313">  1  5  2 -1</clus>
</clustering>
</event>
<event>
 9    1  0.1748361E-005  0.1250059E+03  0.7546771E-02  0.1235282E+00
          2   -1    0    0  502    0  0.00000000000E+00  0.00000000000E+00  0.61696403953E+02  0.61696403953E+02  0.00000000000E+00 0. -1.
         -2   -1    0    0    0  501 -0.00000000000E+00 -0.00000000000E+00 -0.39338313783E+03  0.39338313783E+03  0.00000000000E+00 0.  1.
         23    2    1    2    0    0 -0.74755656519E+02 -0.68173877819E+02 -0.17966019969E+03  0.22537711208E+03  0.90999832425E+02 0.  0.
         23    2    1    2    0    0  0.70910233802E+02  0.32613899811E+02 -0.67910088829E+02  0.13829742058E+03  0.91774008607E+02 0.  0.
        -11    1    4    4    0    0  0.68719782233E+02  0.57421653797E+02 -0.69477864571E+02  0.11334385056E+03  0.00000000000E+00 0. -1.
         11    1    4    4    0    0  0.21904515697E+01 -0.24807753986E+02  0.15677757425E+01  0.24953570019E+02  0.00000000000E+00 0.  1.
        -13    1    3    3    0    0 -0.40929522825E+02 -0.83156755585E+02 -0.93706858277E+02  0.13180002703E+03  0.00000000000E+00 0.  1.
         13    1    3    3    0    0 -0.33826133694E+02  0.14982877767E+02 -0.85953341409E+02  0.93577085049E+02  0.00000000000E+00 0. -1.
         21    1    1    2  502  501  0.38454227171E+01  0.35559978008E+02 -0.84116445367E+02  0.91405009124E+02  0.00000000000E+00 0. -1.
<scales pt_clust_5="13000.00000" pt_clust_6="13000.00000" pt_clust_7="13000.00000" pt_clust_8="13000.00000" pt_clust_9="35.76729"></scales>
<clustering>
<clus scale="   35.767">  2  9  1 -1</clus>
<clus scale="   91.000">  7  8 -1 -1</clus>
<clus scale="   91.774">  5  6 -1 -1</clus>
<clus scale="  124.439">  2  7  1 -1</clus>
<clus scale="  125.006">  1  5  2 -1</clus>
</clustering>
</event>
<event>
 9    1  0.1748361E-005  0.2101616E+03  0.7546771E-02  0.1173187E+00
         -1   -1    0    0    0  501 -0.00000000000E+00  0.00000000000E+00  0.15834600551E+03  0.15834600551E+03  0.00000000000E+00 0.  1.
          1   -1    0    0  502    0  0.00000000000E+00 -0.00000000000E+00 -0.52075243268E+03  0.52075243268E+03  0.00000000000E+00 0. -1.
         23    2    1    2    0    0  0.15938627793E+03  0.10836611030E+03 -0.34214079334E+02  0.21825289218E+03  0.96522133570E+02 0.  0.
         23    2    1    2    0    0 -0.34094392305E+02  0.23545361644E+02 -0.23722483190E+03  0.25744008397E+03  0.91010792341E+02 0.  0.
        -11    1    3    3    0    0  0.98680856290E+02  0.11710084988E+03 -0.14447569580E+02  0.15381564519E+03  0.00000000000E+00 0.  1.
         11    1    3    3    0    0  0.60705421636E+02 -0.87347395774E+01 -0.19766509754E+02  0.64437246988E+02  0.00000000000E+00 0. -1.
        -13    1    4    4    0    0 -0.50423775832E+02  0.47003821259E+00 -0.21674220742E+03  0.22253081266E+03  0.00000000000E+00 0. -1.
         13    1    4    4    0    0  0.16329383527E+02  0.23075323432E+02 -0.20482624479E+02  0.34909271310E+02  0.00000000000E+00 0.  1.
         21    1    1    2  502  501 -0.12529188562E+03 -0.13191147194E+03 -0.90967515936E+02  0.20340546204E+03  0.00000000000E+00 0. -1.
<scales pt_clust_5="13000.00000" pt_clust_6="13000.00000" pt_clust_7="13000.00000" pt_clust_8="13000.00000" pt_clust_9="186.68527"></scales>
<clustering>
<clus scale="   91.011">  7  8 -1 -1</clus>
<clus scale="   96.522">  5  6 -1 -1</clus>
<clus scale="   99.999">  2  7  1 -1</clus>
<clus scale="  186.685">  2  9  1 -1</clus>
<clus scale="   99.999">  2  5  1 -1</clus>
</clustering>
</event>
<event>
 9    1  0.1748361E-005  0.1508860E+03  0.7546771E-02  0.1199871E+00
         -1   -1    0    0    0  501 -0.00000000000E+00  0.00000000000E+00  0.44757428854E+03  0.44757428854E+03  0.00000000000E+00 0.  1.
          1   -1    0    0  502    0  0.00000000000E+00 -0.00000000000E+00 -0.70430692630E+02  0.70430692630E+02  0.00000000000E+00 0. -1.
         23    2    1    2    0    0 -0.10250302738E+03  0.27476331667E+02  0.22703673529E+03  0.26603509692E+03  0.89259028654E+02 0.  0.
         23    2    1    2    0    0  0.12247510341E+03 -0.31575441512E+02  0.73579456740E+02  0.17277310359E+03  0.91866475985E+02 0.  0.
        -13    1    3    3    0    0 -0.94377196411E+02  0.52980233342E+02  0.20304473840E+03  0.23008938724E+03  0.00000000000E+00 0.  1.
         13    1    3    3    0    0 -0.81258309732E+01 -0.25503901674E+02  0.23991996886E+02  0.35945709677E+02  0.00000000000E+00 0. -1.
        -13    1    4    4    0    0  0.10318840630E+03  0.15612565893E+02  0.58361365083E+02  0.11957277425E+03  0.00000000000E+00 0. -1.
         13    1    4    4    0    0  0.19286697108E+02 -0.47188007405E+02  0.15218091656E+02  0.53200329340E+02  0.00000000000E+00 0.  1.
         21    1    1    2  502  501 -0.19972076021E+02  0.40991098447E+01  0.76527403885E+02  0.79196780664E+02  0.00000000000E+00 0. -1.
<scales pt_clust_5="13000.00000" pt_clust_6="13000.00000" pt_clust_7="13000.00000" pt_clust_8="13000.00000" pt_clust_9="20.38839"></scales>
<clustering>
<clus scale="   20.388">  1  9  2 -1</clus>
<clus scale="   89.259">  5  6 -1 -1</clus>
<clus scale="   91.866">  7  8 -1 -1</clus>
<clus scale="  149.313">  1  5  2 -1</clus>
<clus scale="  150.886">  2  5  1 -1</clus>
</clustering>
</event>
<event>
 9    1  0.1748361E-005  0.1162251E+03  0.7546771E-02  0.1249988E+00
         -2   -1    0    0    0  501 -0.00000000000E+00  0.00000000000E+00  0.10302290744E+03  0.10302290744E+03  0.00000000000E+00 0.  1.
          2   -1    0    0  502    0  0.00000000000E+00 -0.00000000000E+00 -0.27228741839E+03  0.27228741839E+03  0.00000000000E+00 0. -1.
         23    2    1    2    0    0  0.63024423215E+02  0.59206409808E+02 -0.40008292621E+02  0.13094926902E+03  0.89830789234E+02 0.  0.
         23    2    1    2    0    0 -0.43474513362E+02 -0.50082001283E+02 -0.16658210700E+03  0.20124869465E+03  0.91395834483E+02 0.  0.
        -11    1    3    3    0    0  0.44219802087E+01  0.65501413900E+02 -0.23667879092E+02  0.69786514690E+02  0.00000000000E+00 0.  1.
         11    1    3    3    0    0  0.58602443006E+02 -0.62950040925E+01 -0.16340413529E+02  0.61162754329E+02  0.00000000000E+00 0. -1.
        -11    1    4    4    0    0 -0.69796836798E+02 -0.46201064857E+02 -0.14299703318E+03  0.16569335630E+03  0.00000000000E+00 0. -1.
         11    1    4    4    0    0  0.26322323436E+02 -0.38809364266E+01 -0.23585073819E+02  0.35555338357E+02  0.00000000000E+00 0.  1.
         21    1    1    2  502  501 -0.19549909853E+02 -0.91244085246E+01  0.37325888674E+02  0.43112362165E+02  0.00000000000E+00 0.  1.
<scales pt_clust_5="13000.00000" pt_clust_6="13000.00000" pt_clust_7="13000.00000" pt_clust_8="13000.00000" pt_clust_9="21.57438"></scales>
<clustering>
<clus scale="   21.574">  1  9  2 -1</clus>
<clus scale="   89.831">  5  6 -1 -1</clus>
<clus scale="   91.396">  7  8 -1 -1</clus>
<clus scale="  114.998">  1  5  2 -1</clus>
<clus scale="  116.225">  2  5  1 -1</clus>
</clustering>
</event>
<event>
 9    1  0.1748361E-005  0.1156512E+03  0.7546771E-02  0.1251110E+00
          1   -1    0    0  502    0  0.00000000000E+00  0.00000000000E+00  0.36455070335E+03  0.36455070335E+03  0.00000000000E+00 0. -1.
         -1   -1    0    0    0  501 -0.00000000000E+00 -0.00000000000E+00 -0.54787359926E+02  0.54787359926E+02  0.00000000000E+00 0.  1.
         23    2    1    2    0    0 -0.60743285032E+01  0.62958243125E+02  0.13736159178E+03  0.17740157829E+03  0.92749529586E+02 0.  0.
         23    2    1    2    0    0 -0.10886838226E+02 -0.74238736703E+02  0.18400066119E+03  0.21849580635E+03  0.90852962544E+02 0.  0.
        -11    1    4    4    0    0  0.38438459812E+02 -0.33907124530E+02  0.10629696735E+03  0.11800954857E+03  0.00000000000E+00 0. -1.
         11    1    4    4    0    0 -0.49325298038E+02 -0.40331612173E+02  0.77703693843E+02  0.10048625779E+03  0.00000000000E+00 0.  1.
        -13    1    3    3    0    0 -0.27430196073E+02  0.51770188025E+02  0.14130744838E+03  0.15297177188E+03  0.00000000000E+00 0. -1.
         13    1    3    3    0    0  0.21355867570E+02  0.11188055100E+02 -0.39458566038E+01  0.24429806403E+02  0.00000000000E+00 0.  1.
         21    1    1    2  502  501  0.16961166730E+02  0.11280493577E+02 -0.11598909544E+02  0.23440678633E+02  0.00000000000E+00 0.  1.
<scales pt_clust_5="13000.00000" pt_clust_6="13000.00000" pt_clust_7="13000.00000" pt_clust_8="13000.00000" pt_clust_9="20.36985"></scales>
<clustering>
<clus scale="   20.370">  2  9  1 -1</clus>
<clus scale="   90.853">  5  6 -1 -1</clus>
<clus scale="   92.750">  7  8 -1 -1</clus>
<clus scale="  114.136">  1  5  2 -1</clus>
<clus scale="  114.136">  1  5  2 -1</clus>
</clustering>
</event>
<event>
 9    1  0.1748361E-005  0.1078477E+03  0.7546771E-02  0.1266941E+00
         -2   -1    0    0    0  501 -0.00000000000E+00  0.00000000000E+00  0.12068379875E+03  0.12068379875E+03  0.00000000000E+00 0.  1.
          2   -1    0    0  502    0  0.00000000000E+00 -0.00000000000E+00 -0.39819998445E+03  0.39819998445E+03  0.00000000000E+00 0. -1.
         23    2    1    2    0    0 -0.29703310535E+02  0.97644665575E+02 -0.17927030186E+03  0.22476247052E+03  0.89238778865E+02 0.  0.
         23    2    1    2    0    0 -0.31769987635E+02 -0.37586383742E+02 -0.16088477839E+03  0.18777473438E+03  0.83386873064E+02 0.  0.
        -11    1    4    4    0    0  0.27454007975E+02 -0.23037821564E+02 -0.58880169236E+02  0.68929950715E+02  0.00000000000E+00 0.  1.
         11    1    4    4    0    0 -0.59223995610E+02 -0.14548562178E+02 -0.10200460915E+03  0.11884478367E+03  0.00000000000E+00 0. -1.
        -11    1    3    3    0    0 -0.18732972763E+02  0.77267936422E+02 -0.18461831971E+03  0.20101040331E+03  0.00000000000E+00 0. -1.
         11    1    3    3    0    0 -0.10970337772E+02  0.20376729152E+02  0.53480178480E+01  0.23752067209E+02  0.00000000000E+00 0.  1.
         21    1    1    2  502  501  0.61473298170E+02 -0.60058281833E+02  0.62638894551E+02  0.10634657830E+03  0.00000000000E+00 0.  1.
<scales pt_clust_5="13000.00000" pt_clust_6="13000.00000" pt_clust_7="13000.00000" pt_clust_8="13000.00000" pt_clust_9="85.94163"></scales>
<clustering>
<clus scale="   83.387">  5  6 -1 -1</clus>
<clus scale="   85.942">  1  9  2 -1</clus>
<clus scale="   89.239">  7  8 -1 -1</clus>
<clus scale="  103.058">  2  5  1 -1</clus>
<clus scale="  103.058">  2  5  1 -1</clus>
</clustering>
</event>
<event>
 9    1  0.1748361E-005  0.1008804E+03  0.7546771E-02  0.1278465E+00
          1   -1    0    0  502    0  0.00000000000E+00  0.00000000000E+00  0.22383964145E+03  0.22383964145E+03  0.00000000000E+00 0. -1.
         -1   -1    0    0    0  501 -0.00000000000E+00 -0.00000000000E+00 -0.12850843518E+03  0.12850843518E+03  0.00000000000E+00 0.  1.
         23    2    1    2    0    0 -0.55137283235E+01 -0.50454809631E+02 -0.56830190687E+02  0.11865472195E+03  0.90957041794E+02 0.  0.
         23    2    1    2    0    0  0.45968045399E+02  0.12282559624E+02  0.14495202756E+03  0.17760728290E+03  0.90935879477E+02 0.  0.
        -13    1    3    3    0    0  0.56749807268E+01 -0.32537521050E+02  0.20243431097E+02  0.38738768500E+02  0.00000000000E+00 0. -1.
         13    1    3    3    0    0 -0.11188709050E+02 -0.17917288581E+02 -0.77073621784E+02  0.79915953447E+02  0.00000000000E+00 0.  1.
        -13    1    4    4    0    0  0.33408272219E+02 -0.31043077840E+02  0.31250947467E+02  0.55284781378E+02  0.00000000000E+00 0.  1.
         13    1    4    4    0    0  0.12559773181E+02  0.43325637464E+02  0.11370108009E+03  0.12232250152E+03  0.00000000000E+00 0. -1.
         21    1    1    2  502  501 -0.40454317076E+02  0.38172250007E+02  0.72093693966E+01  0.56086071781E+02  0.00000000000E+00 0.  1.
<scales pt_clust_5="13000.00000" pt_clust_6="13000.00000" pt_clust_7="13000.00000" pt_clust_8="13000.00000" pt_clust_9="55.62079"></scales>
<clustering>
<clus scale="   55.621">  2  9  1 -1</clus>
<clus scale="   90.936">  7  8 -1 -1</clus>
<clus scale="   90.957">  5  6 -1 -1</clus>
<clus scale="  100.861">  1  7  2 -1</clus>
<clus scale="  100.861">  1  5  2 -1</clus>
</clustering>
</event>
<event>
 9    1  0.1748361E-005  0.1101131E+03  0.7546771E-02  0.1260631E+00
         -1   -1    0    0    0  501 -0.00000000000E+00  0.00000000000E+00  0.54986556868E+02  0.54986556868E+02  0.00000000000E+00 0.  1.
          1   -1    0    0  502    0  0.00000000000E+00 -0.00000000000E+00 -0.35989893993E+03  0.35989893993E+03  0.00000000000E+00 0. -1.
         23    2    1    2    0    0 -0.76607178974E+01  0.73778808282E+02 -0.73074040387E+02  0.13893514357E+03  0.91984561695E+02 0.  0.
         23    2    1    2    0    0 -0.22834954883E+01 -0.55799812970E+02 -0.23190422216E+03  0.25540440490E+03  0.91285312657E+02 0.  0.
        -11    1    4    4    0    0 -0.17822196137E+02  0.14277069057E+02 -0.16005239365E+02  0.27886072924E+02  0.00000000000E+00 0.  1.
         11    1    4    4    0    0  0.15538700648E+02 -0.70076882027E+02 -0.21589898280E+03  0.22751833198E+03  0.00000000000E+00 0. -1.
        -13    1    3    3    0    0  0.80039801126E+01  0.92298438590E+02 -0.65723243440E+02  0.11358965706E+03  0.00000000000E+00 0.  1.
         13    1    3    3    0    0 -0.15664698010E+02 -0.18519630307E+02 -0.73507969463E+01  0.25345486506E+02  0.00000000000E+00 0. -1.
         21    1    1    2  502  501  0.99442133857E+01 -0.17978995313E+02  0.65879492557E-01  0.20545948322E+02  0.00000000000E+00 0.  1.
<scales pt_clust_5="13000.00000" pt_clust_6="13000.00000" pt_clust_7="13000.00000" pt_clust_8="13000.00000" pt_clust_9="20.54584"></scales>
<clustering>
<clus scale="   20.546">  1  9  2 -1</clus>
<clus scale="   91.285">  5  6 -1 -1</clus>
<clus scale="   91.985">  7  8 -1 -1</clus>
<clus scale="  109.530">  2  5  1 -1</clus>
<clus scale="  109.530">  2  5  1 -1</clus>
</clustering>
</event>
<event>
 9    1  0.1748361E-005  0.1145475E+03  0.7546771E-02  0.1257206E+00
         -1   -1    0    0    0  501 -0.00000000000E+00  0.00000000000E+00  0.21068367521E+02  0.21068367521E+02  0.00000000000E+00 0.  1.
          1   -1    0    0  502    0  0.00000000000E+00 -0.00000000000E+00 -0.77233984046E+03  0.77233984046E+03  0.00000000000E+00 0. -1.
         23    2    1    2    0    0  0.68507765720E+02 -0.13004160055E+01 -0.30831578598E+03  0.33160955616E+03  0.10105082290E+03 0.  0.
         23    2    1    2    0    0 -0.44282649806E+02 -0.14819944341E+02 -0.36504396215E+03  0.37863039392E+03  0.89012903972E+02 0.  0.
        -11    1    4    4    0    0  0.34935822577E+01  0.28501208183E+02 -0.56043127297E+02  0.62971073535E+02  0.00000000000E+00 0. -1.
         11    1    4    4    0    0 -0.47776232064E+02 -0.43321152524E+02 -0.30900083485E+03  0.31565932039E+03  0.00000000000E+00 0.  1.
        -11    1    3    3    0    0  0.55297998655E+02  0.35133719414E+02 -0.26717160800E+03  0.27508710442E+03  0.00000000000E+00 0. -1.
         11    1    3    3    0    0  0.13209767066E+02 -0.36434135420E+02 -0.41144177972E+02  0.56522451740E+02  0.00000000000E+00 0.  1.
         21    1    1    2  502  501 -0.24225115914E+02  0.16120360347E+02 -0.77911724809E+02  0.83168257896E+02  0.00000000000E+00 0.  1.
<scales pt_clust_5="13000.00000" pt_clust_6="13000.00000" pt_clust_7="13000.00000" pt_clust_8="13000.00000" pt_clust_9="29.09849"></scales>
<clustering>
<clus scale="   29.098">  1  9  2 -1</clus>
<clus scale="   89.013">  5  6 -1 -1</clus>
<clus scale="  101.051">  7  8 -1 -1</clus>
<clus scale="  104.082">  2  5  1 -1</clus>
<clus scale="  104.082">  2  5  1 -1</clus>
</clustering>
</event>
<event>
 9    1  0.1748361E-005  0.1528882E+03  0.7546771E-02  0.1220130E+00
         -1   -1    0    0    0  501 -0.00000000000E+00  0.00000000000E+00  0.33811181137E+03  0.33811181137E+03  0.00000000000E+00 0.  1.
          1   -1    0    0  502    0  0.00000000000E+00 -0.00000000000E+00 -0.14144494565E+03  0.14144494565E+03  0.00000000000E+00 0. -1.
         23    2    1    2    0    0  0.11181139013E+03  0.30019485692E+02  0.18952634138E+03  0.24018390995E+03  0.91461030136E+02 0.  0.
         23    2    1    2    0    0  0.14715806766E+02  0.24054818839E+02 -0.28229847820E+02  0.97301649454E+02  0.88743999235E+02 0.  0.
        -11    1    4    4    0    0 -0.32166032873E+02 -0.11518320896E+02 -0.82026790056E+01  0.35137007982E+02  0.00000000000E+00 0. -1.
         11    1    4    4    0    0  0.46881839639E+02  0.35573139735E+02 -0.20027168814E+02  0.62164641472E+02  0.00000000000E+00 0.  1.
        -11    1    3    3    0    0  0.60809949349E+02  0.24466464160E+02  0.17498690162E+03  0.18686057247E+03  0.00000000000E+00 0.  1.
         11    1    3    3    0    0  0.51001440786E+02  0.55530215322E+01  0.14539439768E+02  0.53323337472E+02  0.00000000000E+00 0. -1.
         21    1    1    2  502  501 -0.12652719690E+03 -0.54074304532E+02  0.35370372158E+02  0.14207119762E+03  0.00000000000E+00 0. -1.
<scales pt_clust_5="13000.00000" pt_clust_6="13000.00000" pt_clust_7="13000.00000" pt_clust_8="13000.00000" pt_clust_9="122.51402"></scales>
<clustering>
<clus scale="   88.744">  5  6 -1 -1</clus>
<clus scale="   91.461">  7  8 -1 -1</clus>
<clus scale="   93.117">  2  5  1 -1</clus>
<clus scale="  122.514">  2  9  1 -1</clus>
<clus scale="   93.117">  2  5  1 -1</clus>
</clustering>
</event>
<event>
 9    1  0.1748361E-005  0.1124616E+03  0.7546771E-02  0.1257330E+00
         -1   -1    0    0    0  501 -0.00000000000E+00  0.00000000000E+00  0.10199472329E+03  0.10199472329E+03  0.00000000000E+00 0.  1.
          1   -1    0    0  502    0  0.00000000000E+00 -0.00000000000E+00 -0.40783531647E+03  0.40783531647E+03  0.00000000000E+00 0. -1.
         23    2    1    2    0    0  0.39588260041E+02 -0.80603113914E+02 -0.11081223972E+03  0.17023019184E+03  0.92924019692E+02 0.  0.
         23    2    1    2    0    0 -0.47434419916E+02  0.30888997131E+02 -0.24607119011E+03  0.26791702707E+03  0.89578727690E+02 0.  0.
        -11    1    4    4    0    0 -0.18018158616E+02 -0.30960848470E+02 -0.63272931184E+02  0.72709641716E+02  0.00000000000E+00 0. -1.
         11    1    4    4    0    0 -0.29416261300E+02  0.61849845600E+02 -0.18279825893E+03  0.19520738535E+03  0.00000000000E+00 0.  1.
        -11    1    3    3    0    0 -0.26297101622E+02 -0.15887188557E+01 -0.22678673730E+02  0.34761815595E+02  0.00000000000E+00 0.  1.
         11    1    3    3    0    0  0.65885361663E+02 -0.79014395058E+02 -0.88133565991E+02  0.13546837624E+03  0.00000000000E+00 0. -1.
         21    1    1    2  502  501  0.78461598748E+01  0.49714116783E+02  0.51042836650E+02  0.71682820854E+02  0.00000000000E+00 0.  1.
<scales pt_clust_5="13000.00000" pt_clust_6="13000.00000" pt_clust_7="13000.00000" pt_clust_8="13000.00000" pt_clust_9="50.32947"></scales>
<clustering>
<clus scale="   50.329">  1  9  2 -1</clus>
<clus scale="   89.579">  5  6 -1 -1</clus>
<clus scale="   92.924">  7  8 -1 -1</clus>
<clus scale="  109.714">  2  5  1 -1</clus>
<clus scale="  109.714">  2  5  1 -1</clus>
</clustering>
</event>
<event>
 9    1  0.1748361E-005  0.1522085E+03  0.7546771E-02  0.1221552E+00
         -1   -1    0    0    0  501 -0.00000000000E+00  0.00000000000E+00  0.27510012821E+03  0.27510012821E+03  0.00000000000E+00 0.  1.
          1   -1    0    0  502    0  0.00000000000E+00 -0.00000000000E+00 -0.12972583696E+03  0.12972583696E+03  0.00000000000E+00 0. -1.
         23    2    1    2    0    0  0.70770580703E+02  0.93410182576E+02  0.50782789213E+02  0.15620752943E+03  0.89933104404E+02 0.  0.
         23    2    1    2    0    0  0.15258779015E+02 -0.77057602398E+00  0.14862489584E+01  0.91609723926E+02  0.90314497493E+02 0.  0.
        -11    1    4    4    0    0  0.38212206764E+01  0.38249731771E+02  0.23815887222E+02  0.45219909245E+02  0.00000000000E+00 0.  1.
         11    1    4    4    0    0  0.11437558338E+02 -0.39020307795E+02 -0.22329638264E+02  0.46389814681E+02  0.00000000000E+00 0. -1.
        -13    1    3    3    0    0  0.92437338963E+02  0.71870407571E+02  0.42351616181E+02  0.12451376033E+03  0.00000000000E+00 0.  1.
         13    1    3    3    0    0 -0.21666758260E+02  0.21539775006E+02  0.84311730323E+01  0.31693769096E+02  0.00000000000E+00 0. -1.
         21    1    1    2  502  501 -0.86029359718E+02 -0.92639606552E+02  0.93105253074E+02  0.15700871181E+03  0.00000000000E+00 0. -1.
<scales pt_clust_5="13000.00000" pt_clust_6="13000.00000" pt_clust_7="13000.00000" pt_clust_8="13000.00000" pt_clust_9="122.79846"></scales>
<clustering>
<clus scale="   89.933">  7  8 -1 -1</clus>
<clus scale="   90.314">  5  6 -1 -1</clus>
<clus scale="   91.598">  2  5  1 -1</clus>
<clus scale="  122.798">  1  9  2 -1</clus>
<clus scale="   91.598">  2  5  1 -1</clus>
</clustering>
</event>
<event>
 9    1  0.1748361E-005  0.1797098E+03  0.7546771E-02  0.1168608E+00
          2   -1    0    0  502    0  0.00000000000E+00  0.00000000000E+00  0.96240731570E+03  0.96240731570E+03  0.00000000000E+00 0. -1.
         -2   -1    0    0    0  501 -0.00000000000E+00 -0.00000000000E+00 -0.60449301553E+02  0.60449301553E+02  0.00000000000E+00 0.  1.
         23    2    1    2    0    0  0.14026398709E+03 -0.35496604655E+01  0.34108049429E+03  0.38073158125E+03  0.94520088932E+02 0.  0.
         23    2    1    2    0    0 -0.16198555154E+03 -0.64372628202E+01  0.58159386217E+03  0.61049069016E+03  0.90369823516E+02 0.  0.
        -11    1    4    4    0    0 -0.18560325919E+02 -0.14630800221E+02  0.20461078531E+02  0.31260226294E+02  0.00000000000E+00 0.  1.
         11    1    4    4    0    0 -0.14342522562E+03  0.81935374009E+01  0.56113278363E+03  0.57923046386E+03  0.00000000000E+00 0. -1.
        -13    1    3    3    0    0  0.56147090617E+02 -0.47318435792E+02  0.16882647679E+03  0.18410298590E+03  0.00000000000E+00 0.  1.
         13    1    3    3    0    0  0.84116896472E+02  0.43768775326E+02  0.17225401750E+03  0.19662859535E+03  0.00000000000E+00 0. -1.
         21    1    1    2  502  501  0.21721564446E+02  0.99869232857E+01 -0.20716342306E+02  0.31634345848E+02  0.00000000000E+00 0.  1.
<scales pt_clust_5="13000.00000" pt_clust_6="13000.00000" pt_clust_7="13000.00000" pt_clust_8="13000.00000" pt_clust_9="23.90743"></scales>
<clustering>
<clus scale="   23.907">  2  9  1 -1</clus>
<clus scale="   90.370">  5  6 -1 -1</clus>
<clus scale="   94.520">  7  8 -1 -1</clus>
<clus scale="  177.562">  1  5  2 -1</clus>
<clus scale="  177.562">  1  5  2 -1</clus>
</clustering>
</event>
<event>
 9    1  0.1748361E-005  0.1102609E+03  0.7546771E-02  0.1270216E+00
          1   -1    0    0  502    0  0.00000000000E+00  0.00000000000E+00  0.15637821821E+03  0.15637821821E+03  0.00000000000E+00 0. -1.
         -1   -1    0    0    0  501 -0.00000000000E+00 -0.00000000000E+00 -0.89363408230E+02  0.89363408230E+02  0.00000000000E+00 0.  1.
         23    2    1    2    0    0  0.14017331840E+02 -0.52507475778E+01  0.41183298040E+00  0.11117471051E+03  0.11016165716E+03 0.  0.
         23    2    1    2    0    0  0.65196184922E+01  0.43940381535E+01  0.68844059258E+02  0.11389029315E+03  0.90386289792E+02 0.  0.
        -11    1    3    3    0    0  0.36937987253E+02  0.40283114942E+02  0.17534378184E+02  0.57398594669E+02  0.00000000000E+00 0.  1.
         11    1    3    3    0    0 -0.22920655413E+02 -0.45533862520E+02 -0.17122545203E+02  0.53776115839E+02  0.00000000000E+00 0. -1.
        -13    1    4    4    0    0  0.24767688678E+02 -0.30663894267E+02  0.62456343929E+02  0.73854639063E+02  0.00000000000E+00 0. -1.
         13    1    4    4    0    0 -0.18248070186E+02  0.35057932421E+02  0.63877153288E+01  0.40035654088E+02  0.00000000000E+00 0.  1.
         21    1    1    2  502  501 -0.20536950333E+02  0.85670942436E+00 -0.22410822565E+01  0.20676622782E+02  0.00000000000E+00 0.  1.
<scales pt_clust_5="13000.00000" pt_clust_6="13000.00000" pt_clust_7="13000.00000" pt_clust_8="13000.00000" pt_clust_9="20.55481"></scales>
<clustering>
<clus scale="   20.555">  2  9  1 -1</clus>
<clus scale="   90.386">  7  8 -1 -1</clus>
<clus scale="   90.507">  1  7  2 -1</clus>
<clus scale="  110.162">  5  6 -1 -1</clus>
<clus scale="   90.507">  1  5  2 -1</clus>
</clustering>
</event>
<event>
 9    1  0.1748361E-005  0.9465578E+02  0.7546771E-02  0.1297615E+00
         -2   -1    0    0    0  501 -0.00000000000E+00  0.00000000000E+00  0.68678826679E+02  0.68678826679E+02  0.00000000000E+00 0.  1.
          2   -1    0    0  502    0  0.00000000000E+00 -0.00000000000E+00 -0.17287124992E+03  0.17287124992E+03  0.00000000000E+00 0. -1.
         23    2    1    2    0    0  0.11233395785E+02  0.21873452728E+02 -0.21593547910E+02  0.85826603872E+02  0.79342847855E+02 0.  0.
         23    2    1    2    0    0 -0.32853201487E+02 -0.25169508166E+02 -0.37181705980E+02  0.10531514750E+03  0.89420154579E+02 0.  0.
        -11    1    3    3    0    0  0.29622823439E+02  0.39754133182E+02 -0.31040469110E+02  0.58492849957E+02  0.00000000000E+00 0.  1.
         11    1    3    3    0    0 -0.18389427654E+02 -0.17880680453E+02  0.94469211997E+01  0.27333753915E+02  0.00000000000E+00 0. -1.
        -11    1    4    4    0    0 -0.26869277825E+02  0.21837827800E+02  0.12355401063E+02  0.36762817483E+02  0.00000000000E+00 0.  1.
         11    1    4    4    0    0 -0.59839236620E+01 -0.47007335966E+02 -0.49537107043E+02  0.68552330020E+02  0.00000000000E+00 0. -1.
         21    1    1    2  502  501  0.21619805702E+02  0.32960554373E+01 -0.45417169354E+02  0.50408325226E+02  0.00000000000E+00 0. -1.
<scales pt_clust_5="13000.00000" pt_clust_6="13000.00000" pt_clust_7="13000.00000" pt_clust_8="13000.00000" pt_clust_9="21.86961"></scales>
<clustering>
<clus scale="   21.870">  2  9  1 -1</clus>
<clus scale="   79.343">  5  6 -1 -1</clus>
<clus scale="   85.200">  1  5  2 -1</clus>
<clus scale="   89.420">  7  8 -1 -1</clus>
<clus scale="   21.870">  2  5  1 -1</clus>
</clustering>
</event>
<event>
 9    1  0.1748361E-005  0.9412700E+02  0.7546771E-02  0.1293775E+00
          1   -1    0    0  502    0  0.00000000000E+00  0.00000000000E+00  0.86971958601E+02  0.86971958601E+02  0.00000000000E+00 0. -1.
         -1   -1    0    0    0  501 -0.00000000000E+00 -0.00000000000E+00 -0.18863513728E+03  0.18863513728E+03  0.00000000000E+00 0.  1.
         23    2    1    2    0    0 -0.57390272103E+01 -0.26496345325E+02 -0.28430245959E+02  0.10173721707E+03  0.93846628619E+02 0.  0.
         23    2    1    2    0    0  0.41046361257E+01 -0.98824282352E+01 -0.14613687254E+01  0.93388553037E+02  0.92761930845E+02 0.  0.
        -11    1    4    4    0    0 -0.43538005831E+02 -0.55747306110E+01 -0.94230736443E+01  0.44893539513E+02  0.00000000000E+00 0.  1.
         11    1    4    4    0    0  0.47642641957E+02 -0.43076976242E+01  0.79617049188E+01  0.48495013523E+02  0.00000000000E+00 0. -1.
        -13    1    3    3    0    0  0.30768526129E+02 -0.43351127343E+02 -0.11995133400E+01  0.53173877744E+02  0.00000000000E+00 0. -1.
         13    1    3    3    0    0 -0.36507553339E+02  0.16854782017E+02 -0.27230732619E+02  0.48563339327E+02  0.00000000000E+00 0.  1.
         21    1    1    2  502  501  0.16343910846E+01  0.36378773561E+02 -0.71771563993E+02  0.80481325772E+02  0.00000000000E+00 0.  1.
<scales pt_clust_5="13000.00000" pt_clust_6="13000.00000" pt_clust_7="13000.00000" pt_clust_8="13000.00000" pt_clust_9="36.41547"></scales>
<clustering>
<clus scale="   36.415">  2  9  1 -1</clus>
<clus scale="   92.762">  5  6 -1 -1</clus>
<clus scale="   93.046">  1  5  2 -1</clus>
<clus scale="   93.847">  7  8 -1 -1</clus>
<clus scale="   93.046">  1  5  2 -1</clus>
</clustering>
</event>
<event>
 9    1  0.1748361E-005  0.1460462E+03  0.7546771E-02  0.1205665E+00
          1   -1    0    0  502    0  0.00000000000E+00  0.00000000000E+00  0.62674703583E+03  0.62674703583E+03  0.00000000000E+00 0. -1.
         -1   -1    0    0    0  501 -0.00000000000E+00 -0.00000000000E+00 -0.61399080057E+02  0.61399080057E+02  0.00000000000E+00 0.  1.
         23    2    1    2    0    0 -0.97772081967E+02 -0.36599992259E+02  0.13734168587E+03  0.19533267100E+03  0.91614268748E+02 0.  0.
         23    2    1    2    0    0  0.11617408287E+03  0.15099629247E+02  0.43799688379E+03  0.46280158702E+03  0.92841921607E+02 0.  0.
        -11    1    4    4    0    0 -0.10153263111E+02  0.17932379350E+02  0.96529480758E+02  0.98704607979E+02  0.00000000000E+00 0.  1.
         11    1    4    4    0    0  0.12632734598E+03 -0.28327501025E+01  0.34146740303E+03  0.36409697904E+03  0.00000000000E+00 0. -1.
        -13    1    3    3    0    0 -0.76196144764E+02 -0.44826921739E+02  0.14599388019E+03  0.17067371925E+03  0.00000000000E+00 0. -1.
         13    1    3    3    0    0 -0.21575937203E+02  0.82269294799E+01 -0.86521943235E+01  0.24658951751E+02  0.00000000000E+00 0.  1.
         21    1    1    2  502  501 -0.18402000903E+02  0.21500363012E+02 -0.99906138805E+01  0.30011857866E+02  0.00000000000E+00 0.  1.
<scales pt_clust_5="13000.00000" pt_clust_6="13000.00000" pt_clust_7="13000.00000" pt_clust_8="13000.00000" pt_clust_9="28.30016"></scales>
<clustering>
<clus scale="   28.300">  2  9  1 -1</clus>
<clus scale="   91.614">  7  8 -1 -1</clus>
<clus scale="   92.842">  5  6 -1 -1</clus>
<clus scale="  145.269">  2  7  1 -1</clus>
<clus scale="  146.046">  1  5  2 -1</clus>
</clustering>
</event>
<event>
 9    1  0.1748361E-005  0.1091797E+03  0.7546771E-02  0.1263250E+00
         -1   -1    0    0    0  501 -0.00000000000E+00  0.00000000000E+00  0.12478102835E+03  0.12478102835E+03  0.00000000000E+00 0.  1.
          1   -1    0    0  502    0  0.00000000000E+00 -0.00000000000E+00 -0.28698047915E+03  0.28698047915E+03  0.00000000000E+00 0. -1.
         23    2    1    2    0    0 -0.38646769255E+02  0.31609780662E+02  0.66294956769E+02  0.12401327303E+03  0.92149441605E+02 0.  0.
         23    2    1    2    0    0  0.60140399091E+02 -0.69889110957E+01 -0.23103488281E+03  0.25496687763E+03  0.89248412494E+02 0.  0.
        -11    1    4    4    0    0  0.47207814532E+02 -0.36004523433E+02 -0.20639314764E+03  0.21476274084E+03  0.00000000000E+00 0. -1.
         11    1    4    4    0    0  0.12932584559E+02  0.29015612337E+02 -0.24641735162E+02  0.40204136783E+02  0.00000000000E+00 0.  1.
        -11    1    3    3    0    0 -0.59025199658E+02  0.31535821184E+02  0.76149835572E+02  0.10137691882E+03  0.00000000000E+00 0.  1.
         11    1    3    3    0    0  0.20378430403E+02  0.73959478034E-01 -0.98548788030E+01  0.22636354210E+02  0.00000000000E+00 0. -1.
         21    1    1    2  502  501 -0.21493629836E+02 -0.24620869566E+02  0.25404752425E+01  0.32781356839E+02  0.00000000000E+00 0. -1.
<scales pt_clust_5="13000.00000" pt_clust_6="13000.00000" pt_clust_7="13000.00000" pt_clust_8="13000.00000" pt_clust_9="32.68277"></scales>
<clustering>
<clus scale="   32.683">  1  9  2 -1</clus>
<clus scale="   89.248">  5  6 -1 -1</clus>
<clus scale="   92.149">  7  8 -1 -1</clus>
<clus scale="  106.743">  2  5  1 -1</clus>
<clus scale="  106.743">  2  5  1 -1</clus>
</clustering>
</event>
<event>
 9    1  0.1748361E-005  0.1236327E+03  0.7546771E-02  0.1237527E+00
         -1   -1    0    0    0  501 -0.00000000000E+00  0.00000000000E+00  0.77415447652E+02  0.77415447652E+02  0.00000000000E+00 0.  1.
          1   -1    0    0  502    0  0.00000000000E+00 -0.00000000000E+00 -0.39091755650E+03  0.39091755650E+03  0.00000000000E+00 0. -1.
         23    2    1    2    0    0  0.85084728802E+02  0.54863189480E+02 -0.14890474291E+03  0.20130919491E+03  0.90018825025E+02 0.  0.
         23    2    1    2    0    0 -0.75499863866E+02 -0.70297339114E+01 -0.18031716444E+03  0.21576933458E+03  0.91063051500E+02 0.  0.
        -13    1    3    3    0    0  0.71070148609E+02  0.76114357544E+02 -0.91938198569E+02  0.13891361994E+03  0.00000000000E+00 0.  1.
         13    1    3    3    0    0  0.14014580192E+02 -0.21251168064E+02 -0.56966544342E+02  0.62395574974E+02  0.00000000000E+00 0. -1.
        -13    1    4    4    0    0 -0.48558947061E+02  0.29225591386E+02 -0.42790839745E+02  0.71015227223E+02  0.00000000000E+00 0.  1.
         13    1    4    4    0    0 -0.26940916805E+02 -0.36255325298E+02 -0.13752632470E+03  0.14475410736E+03  0.00000000000E+00 0. -1.
         21    1    1    2  502  501 -0.95848649357E+01 -0.47833455568E+02  0.15719798511E+02  0.51254474660E+02  0.00000000000E+00 0.  1.
<scales pt_clust_5="13000.00000" pt_clust_6="13000.00000" pt_clust_7="13000.00000" pt_clust_8="13000.00000" pt_clust_9="48.78431"></scales>
<clustering>
<clus scale="   48.784">  1  9  2 -1</clus>
<clus scale="   90.019">  5  6 -1 -1</clus>
<clus scale="   91.063">  7  8 -1 -1</clus>
<clus scale="  122.866">  1  5  2 -1</clus>
<clus scale="  123.633">  2  5  1 -1</clus>
</clustering>
</event>
<event>
 9    1  0.1748361E-005  0.1019301E+03  0.7546771E-02  0.1280006E+00
         -1   -1    0    0    0  501 -0.00000000000E+00  0.00000000000E+00  0.29025902262E+02  0.29025902262E+02  0.00000000000E+00 0.  1.
          1   -1    0    0  502    0  0.00000000000E+00 -0.00000000000E+00 -0.47627539965E+03  0.47627539965E+03  0.00000000000E+00 0. -1.
         23    2    1    2    0    0 -0.31757711153E+02 -0.35016538636E+02 -0.15164886310E+03  0.18062503766E+03  0.85984396005E+02 0.  0.
         23    2    1    2    0    0  0.38243704157E+02  0.80067629481E+01 -0.26272802903E+03  0.28163902148E+03  0.93636702340E+02 0.  0.
        -11    1    3    3    0    0  0.19866859475E+02  0.15799782276E+02 -0.45766319870E+02  0.52334322006E+02  0.00000000000E+00 0.  1.
         11    1    3    3    0    0 -0.51624570628E+02 -0.50816320913E+02 -0.10588254323E+03  0.12829071566E+03  0.00000000000E+00 0. -1.
        -13    1    4    4    0    0  0.65134978067E+02 -0.14104693391E+02 -0.17354395304E+03  0.18590054163E+03  0.00000000000E+00 0.  1.
         13    1    4    4    0    0 -0.26891273910E+02  0.22111456339E+02 -0.89184075991E+02  0.95738479852E+02  0.00000000000E+00 0. -1.
         21    1    1    2  502  501 -0.64859930038E+01  0.27009775688E+02 -0.32872605260E+02  0.43037242762E+02  0.00000000000E+00 0. -1.
<scales pt_clust_5="13000.00000" pt_clust_6="13000.00000" pt_clust_7="13000.00000" pt_clust_8="13000.00000" pt_clust_9="27.77762"></scales>
<clustering>
<clus scale="   27.778">  1  9  2 -1</clus>
<clus scale="   85.984">  5  6 -1 -1</clus>
<clus scale="   93.637">  7  8 -1 -1</clus>
<clus scale="   94.949">  1  5  2 -1</clus>
<clus scale="  101.930">  2  5  1 -1</clus>
</clustering>
</event>
<event>
 9    1  0.1748361E-005  0.9178930E+02  0.7546771E-02  0.1298808E+00
         -1   -1    0    0    0  501 -0.00000000000E+00  0.00000000000E+00  0.12002788074E+03  0.12002788074E+03  0.00000000000E+00 0.  1.
          1   -1    0    0  502    0  0.00000000000E+00 -0.00000000000E+00 -0.42580713716E+03  0.42580713716E+03  0.00000000000E+00 0. -1.
         23    2    1    2    0    0 -0.36137469606E+01  0.16025554715E+02  0.80146548095E+02  0.12143572637E+03  0.89740118661E+02 0.  0.
         23    2    1    2    0    0 -0.38492235030E+02 -0.38750200629E+02 -0.34719902378E+03  0.36284373290E+03  0.90139792448E+02 0.  0.
        -11    1    3    3    0    0 -0.26754018948E+02  0.20609959397E+02  0.89804866807E+02  0.95945099189E+02  0.00000000000E+00 0.  1.
         11    1    3    3    0    0  0.23140271987E+02 -0.45844046813E+01 -0.96583187118E+01  0.25490627185E+02  0.00000000000E+00 0. -1.
        -13    1    4    4    0    0  0.21051089732E+02  0.14237396328E+02 -0.95665323051E+02  0.98983361569E+02  0.00000000000E+00 0.  1.
         13    1    4    4    0    0 -0.59543324761E+02 -0.52987596957E+02 -0.25153370073E+03  0.26386037133E+03  0.00000000000E+00 0. -1.
         21    1    1    2  502  501  0.42105981991E+02  0.22724645913E+02 -0.38726780731E+02  0.61555558620E+02  0.00000000000E+00 0. -1.
<scales pt_clust_5="13000.00000" pt_clust_6="13000.00000" pt_clust_7="13000.00000" pt_clust_8="13000.00000" pt_clust_9="47.84687"></scales>
<clustering>
<clus scale="   47.847">  2  9  1 -1</clus>
<clus scale="   89.740">  5  6 -1 -1</clus>
<clus scale="   90.140">  7  8 -1 -1</clus>
<clus scale="   91.397">  1  5  2 -1</clus>
<clus scale="   47.847">  2  5  1 -1</clus>
</clustering>
</event>
<event>
 9    1  0.1748361E-005  0.9811141E+02  0.7546771E-02  0.1289160E+00
          2   -1    0    0  502    0  0.00000000000E+00  0.00000000000E+00  0.48509700897E+03  0.48509700897E+03  0.00000000000E+00 0. -1.
         -2   -1    0    0    0  501 -0.00000000000E+00 -0.00000000000E+00 -0.37942444518E+02  0.37942444518E+02  0.00000000000E+00 0.  1.
         23    2    1    2    0    0  0.64187598585E+02  0.26871176948E+02  0.10559814801E+03  0.15447325029E+03  0.88706866856E+02 0.  0.
         23    2    1    2    0    0 -0.35530512789E+02 -0.23171657907E+01  0.30058273088E+03  0.31286188615E+03  0.79150458658E+02 0.  0.
        -13    1    3    3    0    0  0.68754004200E+01  0.46885357794E+02  0.25019226929E+02  0.53586095422E+02  0.00000000000E+00 0. -1.
         13    1    3    3    0    0  0.57312198165E+02 -0.20014180846E+02  0.80578921084E+02  0.10088715486E+03  0.00000000000E+00 0.  1.
        -13    1    4    4    0    0  0.25433513675E+01 -0.32749902103E+02  0.71986710864E+02  0.79127184109E+02  0.00000000000E+00 0.  1.
         13    1    4    4    0    0 -0.38073864157E+02  0.30432736312E+02  0.22859602001E+03  0.23373470204E+03  0.00000000000E+00 0. -1.
         21    1    1    2  502  501 -0.28657085796E+02 -0.24554011157E+02  0.40973685564E+02  0.55704317058E+02  0.00000000000E+00 0.  1.
<scales pt_clust_5="13000.00000" pt_clust_6="13000.00000" pt_clust_7="13000.00000" pt_clust_8="13000.00000" pt_clust_9="37.73762"></scales>
<clustering>
<clus scale="   37.738">  2  9  1 -1</clus>
<clus scale="   79.150">  7  8 -1 -1</clus>
<clus scale="   88.707">  5  6 -1 -1</clus>
<clus scale="   89.564">  1  7  2 -1</clus>
<clus scale="   89.564">  1  5  2 -1</clus>
</clustering>
</event>
<event>
 9    1  0.1748361E-005  0.2137671E+03  0.7546771E-02  0.1166577E+00
          1   -1    0    0  502    0  0.00000000000E+00  0.00000000000E+00  0.80647924300E+03  0.80647924300E+03  0.00000000000E+00 0. -1.
         -1   -1    0    0    0  501 -0.00000000000E+00 -0.00000000000E+00 -0.11190624844E+03  0.11190624844E+03  0.00000000000E+00 0.  1.
         23    2    1    2    0    0 -0.19506895014E+01  0.61802889417E+02  0.10006122568E+03  0.14909863191E+03  0.91622872825E+02 0.  0.
         23    2    1    2    0    0  0.18828242975E+03  0.30270233856E+02  0.49617106449E+03  0.53935671450E+03  0.91396826173E+02 0.  0.
        -11    1    4    4    0    0  0.12885624765E+03  0.14279733061E+02  0.42943245340E+03  0.44857560719E+03  0.00000000000E+00 0. -1.
         11    1    4    4    0    0  0.59426182101E+02  0.15990500795E+02  0.66738611090E+02  0.90781107313E+02  0.00000000000E+00 0.  1.
        -13    1    3    3    0    0  0.27700276645E+02 -0.12517643660E+02  0.24474757036E+02  0.39025766629E+02  0.00000000000E+00 0.  1.
         13    1    3    3    0    0 -0.29650966146E+02  0.74320533078E+02  0.75586468643E+02  0.11007286529E+03  0.00000000000E+00 0. -1.
         21    1    1    2  502  501 -0.18633174025E+03 -0.92073123273E+02  0.98340704391E+02  0.22993014503E+03  0.00000000000E+00 0.  1.
<scales pt_clust_5="13000.00000" pt_clust_6="13000.00000" pt_clust_7="13000.00000" pt_clust_8="13000.00000" pt_clust_9="193.24339"></scales>
<clustering>
<clus scale="   91.397">  5  6 -1 -1</clus>
<clus scale="   91.623">  7  8 -1 -1</clus>
<clus scale="  110.536">  2  7  1 -1</clus>
<clus scale="  193.243">  2  9  1 -1</clus>
<clus scale="  213.767">  1  5  2 -1</clus>
</clustering>
</event>
<event>
 9    1  0.1748361E-005  0.2386017E+03  0.7546771E-02  0.1155641E+00
         -1   -1    0    0    0  501 -0.00000000000E+00  0.00000000000E+00  0.15925862115E+03  0.15925862115E+03  0.00000000000E+00 0.  1.
          1   -1    0    0  502    0  0.00000000000E+00 -0.00000000000E+00 -0.52028733191E+03  0.52028733191E+03  0.00000000000E+00 0. -1.
         23    2    1    2    0    0  0.16674496190E+02  0.44942999276E+02 -0.46745943456E+02  0.11264083936E+03  0.90580701333E+02 0.  0.
         23    2    1    2    0    0 -0.21314156647E+03  0.59482497773E+02 -0.10371485508E+03  0.26056732662E+03  0.90393946919E+02 0.  0.
        -13    1    3    3    0    0  0.16573821242E+02 -0.26261171612E+02 -0.10804496758E+02  0.32879748101E+02  0.00000000000E+00 0. -1.
         13    1    3    3    0    0  0.10067494741E+00  0.71204170888E+02 -0.35941446699E+02  0.79761091254E+02  0.00000000000E+00 0.  1.
        -13    1    4    4    0    0 -0.86726365960E+02  0.28140218627E+02  0.44215768364E+01  0.91284636159E+02  0.00000000000E+00 0.  1.
         13    1    4    4    0    0 -0.12641520051E+03  0.31342279146E+02 -0.10813643192E+03  0.16928269046E+03  0.00000000000E+00 0. -1.
         21    1    1    2  502  501  0.19646707028E+03 -0.10442549705E+03 -0.21056791222E+03  0.30633778708E+03  0.00000000000E+00 0. -1.
<scales pt_clust_5="13000.00000" pt_clust_6="13000.00000" pt_clust_7="13000.00000" pt_clust_8="13000.00000" pt_clust_9="220.81602"></scales>
<clustering>
<clus scale="   90.394">  7  8 -1 -1</clus>
<clus scale="   90.581">  5  6 -1 -1</clus>
<clus scale="  102.483">  1  5  2 -1</clus>
<clus scale="  220.816">  2  9  1 -1</clus>
<clus scale="  220.816">  2  5  1 -1</clus>
</clustering>
</event>
<event>
 9    1  0.1748361E-005  0.1002164E+03  0.7546771E-02  0.1280048E+00
         -1   -1    0    0    0  501 -0.00000000000E+00  0.00000000000E+00  0.67027242084E+02  0.67027242084E+02  0.00000000000E+00 0.  1.
          1   -1    0    0  502    0  0.00000000000E+00 -0.00000000000E+00 -0.31565438679E+03  0.31565438679E+03  0.00000000000E+00 0. -1.
         23    2    1    2    0    0 -0.80807732073E+01  0.28495325466E+02  0.84821429110E+00  0.96895758010E+02  0.92253921238E+02 0.  0.
         23    2    1    2    0    0 -0.97464756176E+01 -0.40639798451E+02 -0.24323755678E+03  0.26333126775E+03  0.91827340919E+02 0.  0.
        -11    1    3    3    0    0  0.28153704494E+02  0.37821987027E+02  0.23989508808E+02  0.52902082305E+02  0.00000000000E+00 0.  1.
         11    1    3    3    0    0 -0.36234477701E+02 -0.93266615605E+01 -0.23141294517E+02  0.43993675705E+02  0.00000000000E+00 0. -1.
        -13    1    4    4    0    0  0.77921032219E+01 -0.56478439968E+02 -0.22844373361E+03  0.23545078144E+03  0.00000000000E+00 0. -1.
         13    1    4    4    0    0 -0.17538578839E+02  0.15838641517E+02 -0.14793823166E+02  0.27880486306E+02  0.00000000000E+00 0.  1.
         21    1    1    2  502  501  0.17827248825E+02  0.12144472985E+02 -0.62378022211E+01  0.22454603120E+02  0.00000000000E+00 0. -1.
<scales pt_clust_5="13000.00000" pt_clust_6="13000.00000" pt_clust_7="13000.00000" pt_clust_8="13000.00000" pt_clust_9="21.57079"></scales>
<clustering>
<clus scale="   21.571">  1  9  2 -1</clus>
<clus scale="   91.827">  7  8 -1 -1</clus>
<clus scale="   92.254">  5  6 -1 -1</clus>
<clus scale="   99.824">  2  7  1 -1</clus>
<clus scale="   99.824">  2  5  1 -1</clus>
</clustering>
</event>
<event>
 9    1  0.1748361E-005  0.1117528E+03  0.7546771E-02  0.1257560E+00
          1   -1    0    0  502    0  0.00000000000E+00  0.00000000000E+00  0.31208415825E+02  0.31208415825E+02  0.00000000000E+00 0. -1.
         -1   -1    0    0    0  501 -0.00000000000E+00 -0.00000000000E+00 -0.53239307637E+03  0.53239307637E+03  0.00000000000E+00 0.  1.
         23    2    1    2    0    0 -0.63321892808E+02 -0.31852930885E+02 -0.26254981788E+03  0.28754926108E+03  0.93423227112E+02 0.  0.
         23    2    1    2    0    0  0.51535924840E+02  0.37805134810E+01 -0.19926861927E+03  0.22628608596E+03  0.93953000162E+02 0.  0.
        -11    1    4    4    0    0  0.79084623028E+02  0.38170886913E+01 -0.15695376197E+03  0.17579371764E+03  0.00000000000E+00 0.  1.
         11    1    4    4    0    0 -0.27548698187E+02 -0.36575210245E-01 -0.42314857300E+02  0.50492368313E+02  0.00000000000E+00 0. -1.
        -13    1    3    3    0    0 -0.92366193933E+01  0.28511468629E+02 -0.11882718304E+03  0.12254843292E+03  0.00000000000E+00 0.  1.
         13    1    3    3    0    0 -0.54085273415E+02 -0.60364399513E+02 -0.14372263484E+03  0.16500082816E+03  0.00000000000E+00 0. -1.
         21    1    1    2  502  501  0.11785967967E+02  0.28072417404E+02 -0.39366223390E+02  0.49766145157E+02  0.00000000000E+00 0.  1.
<scales pt_clust_5="13000.00000" pt_clust_6="13000.00000" pt_clust_7="13000.00000" pt_clust_8="13000.00000" pt_clust_9="30.44618"></scales>
<clustering>
<clus scale="   30.446">  1  9  2 -1</clus>
<clus scale="   93.423">  7  8 -1 -1</clus>
<clus scale="   93.953">  5  6 -1 -1</clus>
<clus scale="  111.308">  2  7  1 -1</clus>
<clus scale="   30.446">  1  5  2 -1</clus>
</clustering>
</event>
<event>
 9    1  0.1748361E-005  0.1065368E+03  0.7546771E-02  0.1267714E+00
          1   -1    0    0  502    0  0.00000000000E+00  0.00000000000E+00  0.10786402280E+03  0.10786402280E+03  0.00000000000E+00 0. -1.
         -1   -1    0    0    0  501 -0.00000000000E+00 -0.00000000000E+00 -0.23580136279E+03  0.23580136279E+03  0.00000000000E+00 0.  1.
         23    2    1    2    0    0  0.42809064981E+02 -0.23341848816E+02 -0.11148514292E+03  0.15153009427E+03  0.90304897025E+02 0.  0.
         23    2    1    2    0    0 -0.57135717876E+02 -0.10581087838E+02  0.47360063043E+02  0.11846017235E+03  0.91724517898E+02 0.  0.
        -11    1    4    4    0    0 -0.70163470564E+02  0.21326269251E+02  0.25463382818E+02  0.77627998984E+02  0.00000000000E+00 0. -1.
         11    1    4    4    0    0  0.13027752688E+02 -0.31907357090E+02  0.21896680225E+02  0.40832173361E+02  0.00000000000E+00 0.  1.
        -13    1    3    3    0    0 -0.13206469234E+02 -0.36392995155E+02 -0.20282793186E+02  0.43706436888E+02  0.00000000000E+00 0.  1.
         13    1    3    3    0    0  0.56015534215E+02  0.13051146339E+02 -0.91202349733E+02  0.10782365738E+03  0.00000000000E+00 0. -1.
         21    1    1    2  502  501  0.14326652895E+02  0.33922936654E+02 -0.63812260121E+02  0.73675118976E+02  0.00000000000E+00 0. -1.
<scales pt_clust_5="13000.00000" pt_clust_6="13000.00000" pt_clust_7="13000.00000" pt_clust_8="13000.00000" pt_clust_9="36.82416"></scales>
<clustering>
<clus scale="   36.824">  2  9  1 -1</clus>
<clus scale="   90.305">  7  8 -1 -1</clus>
<clus scale="   91.725">  5  6 -1 -1</clus>
<clus scale="  105.317">  2  7  1 -1</clus>
<clus scale="  106.537">  1  5  2 -1</clus>
</clustering>
</event>
<event>
 9    1  0.1748361E-005  0.9383461E+02  0.7546771E-02  0.1295058E+00
         -1   -1    0    0    0  501 -0.00000000000E+00  0.00000000000E+00  0.10163909772E+03  0.10163909772E+03  0.00000000000E+00 0.  1.
          1   -1    0    0  502    0  0.00000000000E+00 -0.00000000000E+00 -0.15365685926E+03  0.15365685926E+03  0.00000000000E+00 0. -1.
         23    2    1    2    0    0  0.83649662249E-01 -0.32654502037E+02  0.82241394702E+01  0.96178378241E+02  0.90090623655E+02 0.  0.
         23    2    1    2    0    0 -0.19235167506E+02 -0.14442611483E+02 -0.48355568281E+02  0.10690451866E+03  0.92259061506E+02 0.  0.
        -11    1    4    4    0    0  0.30178287741E+02  0.10815768438E+02 -0.39232874711E+02  0.50664863130E+02  0.00000000000E+00 0.  1.
         11    1    4    4    0    0 -0.49413455247E+02 -0.25258379921E+02 -0.91226935695E+01  0.56239655526E+02  0.00000000000E+00 0. -1.
        -11    1    3    3    0    0  0.20511131181E+02  0.25862929461E+02  0.89237364621E+01  0.34194015486E+02  0.00000000000E+00 0.  1.
         11    1    3    3    0    0 -0.20427481519E+02 -0.58517431497E+02 -0.69959699189E+00  0.61984362755E+02  0.00000000000E+00 0. -1.
         21    1    1    2  502  501  0.19151517843E+02  0.47097113520E+02 -0.11886332731E+02  0.52213060084E+02  0.00000000000E+00 0.  1.
<scales pt_clust_5="13000.00000" pt_clust_6="13000.00000" pt_clust_7="13000.00000" pt_clust_8="13000.00000" pt_clust_9="50.84210"></scales>
<clustering>
<clus scale="   50.842">  2  9  1 -1</clus>
<clus scale="   90.091">  7  8 -1 -1</clus>
<clus scale="   91.703">  1  7  2 -1</clus>
<clus scale="   92.259">  5  6 -1 -1</clus>
<clus scale="   50.842">  2  5  1 -1</clus>
</clustering>
</event>
<event>
 9    1  0.1748361E-005  0.1359897E+03  0.7546771E-02  0.1219675E+00
         -1   -1    0    0    0  501 -0.00000000000E+00  0.00000000000E+00  0.30503709377E+03  0.30503709377E+03  0.00000000000E+00 0.  1.
          1   -1    0    0  502    0  0.00000000000E+00 -0.00000000000E+00 -0.15294592587E+03  0.15294592587E+03  0.00000000000E+00 0. -1.
         23    2    1    2    0    0 -0.21738309193E+02  0.89886435988E+02  0.21102212553E+01  0.12932204250E+03  0.90374842637E+02 0.  0.
         23    2    1    2    0    0 -0.24142197006E+01 -0.10493514608E+03 -0.32047298190E+02  0.14442175698E+03  0.93879716808E+02 0.  0.
        -13    1    4    4    0    0  0.24238476316E+02 -0.74798477049E+02 -0.56968792060E+02  0.97096648612E+02  0.00000000000E+00 0. -1.
         13    1    4    4    0    0 -0.26652696016E+02 -0.30136669036E+02  0.24921493870E+02  0.47325108370E+02  0.00000000000E+00 0.  1.
        -13    1    3    3    0    0 -0.48738220565E+02  0.86553372128E+02  0.12675267651E+02  0.10013771907E+03  0.00000000000E+00 0.  1.
         13    1    3    3    0    0  0.26999911372E+02  0.33330638601E+01 -0.10565046396E+02  0.29184323431E+02  0.00000000000E+00 0. -1.
         21    1    1    2  502  501  0.24152528894E+02  0.15048710097E+02  0.18202824483E+03  0.18423922016E+03  0.00000000000E+00 0.  1.
<scales pt_clust_5="13000.00000" pt_clust_6="13000.00000" pt_clust_7="13000.00000" pt_clust_8="13000.00000" pt_clust_9="28.45713"></scales>
<clustering>
<clus scale="   28.457">  1  9  2 -1</clus>
<clus scale="   90.375">  7  8 -1 -1</clus>
<clus scale="   93.880">  5  6 -1 -1</clus>
<clus scale="  133.594">  1  7  2 -1</clus>
<clus scale="  135.990">  2  5  1 -1</clus>
</clustering>
</event>
<event>
 9    1  0.1748361E-005  0.1231559E+03  0.7546771E-02  0.1238099E+00
         -2   -1    0    0    0  501 -0.00000000000E+00  0.00000000000E+00  0.27528945187E+02  0.27528945187E+02  0.00000000000E+00 0.  1.
          2   -1    0    0  502    0  0.00000000000E+00 -0.00000000000E+00 -0.78789602539E+03  0.78789602539E+03  0.00000000000E+00 0. -1.
         23    2    1    2    0    0  0.88756708504E+02 -0.30277955019E+02 -0.33276528073E+03  0.35771704601E+03  0.91838146133E+02 0.  0.
         23    2    1    2    0    0 -0.65632674443E+02  0.33990916694E+02 -0.41417694129E+03  0.43071285366E+03  0.92238783816E+02 0.  0.
        -11    1    4    4    0    0  0.46639343499E+01 -0.21848502714E+02 -0.39012835939E+02  0.44956765036E+02  0.00000000000E+00 0.  1.
         11    1    4    4    0    0 -0.70296608793E+02  0.55839419408E+02 -0.37516410535E+03  0.38575608862E+03  0.00000000000E+00 0. -1.
        -13    1    3    3    0    0  0.69758065857E+02 -0.54730632699E+02 -0.29914782758E+03  0.31201130212E+03  0.00000000000E+00 0.  1.
         13    1    3    3    0    0  0.18998642647E+02  0.24452677681E+02 -0.33617453150E+02  0.45705743889E+02  0.00000000000E+00 0. -1.
         21    1    1    2  502  501 -0.23124034061E+02 -0.37129616756E+01 -0.13424858181E+02  0.26995070899E+02  0.00000000000E+00 0. -1.
<scales pt_clust_5="13000.00000" pt_clust_6="13000.00000" pt_clust_7="13000.00000" pt_clust_8="13000.00000" pt_clust_9="23.42023"></scales>
<clustering>
<clus scale="   23.420">  1  9  2 -1</clus>
<clus scale="   91.838">  7  8 -1 -1</clus>
<clus scale="   92.239">  5  6 -1 -1</clus>
<clus scale="  122.856">  1  7  2 -1</clus>
<clus scale="  123.156">  2  5  1 -1</clus>
</clustering>
</event>
<event>
 9    1  0.1748361E-005  0.1137236E+03  0.7546771E-02  0.1256482E+00
         -3   -1    0    0    0  501 -0.00000000000E+00  0.00000000000E+00  0.33748927962E+02  0.33748927962E+02  0.00000000000E+00 0.  1.
          3   -1    0    0  502    0  0.00000000000E+00 -0.00000000000E+00 -0.56648629249E+03  0.56648629249E+03  0.00000000000E+00 0. -1.
         23    2    1    2    0    0  0.72121807359E+02  0.83756321013E+01 -0.14956933165E+03  0.19304209885E+03  0.98094651464E+02 0.  0.
         23    2    1    2    0    0 -0.52220084066E+02 -0.42822100298E+01 -0.36522731644E+03  0.38008769778E+03  0.91270974759E+02 0.  0.
        -11    1    4    4    0    0 -0.14839304892E+02 -0.46523328153E+02 -0.16819707364E+03  0.17514245805E+03  0.00000000000E+00 0. -1.
         11    1    4    4    0    0 -0.37380779174E+02  0.42241118123E+02 -0.19703024280E+03  0.20494523973E+03  0.00000000000E+00 0.  1.
        -13    1    3    3    0    0  0.40395478076E+02 -0.32609422617E+02 -0.23995059763E+02  0.57192062259E+02  0.00000000000E+00 0.  1.
         13    1    3    3    0    0  0.31726329283E+02  0.40985054718E+02 -0.12557427189E+03  0.13585003659E+03  0.00000000000E+00 0. -1.
         21    1    1    2  502  501 -0.19901723293E+02 -0.40934220715E+01 -0.17940716442E+02  0.27105423825E+02  0.00000000000E+00 0. -1.
<scales pt_clust_5="13000.00000" pt_clust_6="13000.00000" pt_clust_7="13000.00000" pt_clust_8="13000.00000" pt_clust_9="20.31833"></scales>
<clustering>
<clus scale="   20.318">  1  9  2 -1</clus>
<clus scale="   91.271">  5  6 -1 -1</clus>
<clus scale="   98.095">  7  8 -1 -1</clus>
<clus scale="  107.893">  2  5  1 -1</clus>
<clus scale="  107.893">  2  5  1 -1</clus>
</clustering>
</event>
<event>
 9    1  0.1748361E-005  0.1289613E+03  0.7546771E-02  0.1229111E+00
          2   -1    0    0  502    0  0.00000000000E+00  0.00000000000E+00  0.32942294989E+03  0.32942294989E+03  0.00000000000E+00 0. -1.
         -2   -1    0    0    0  501 -0.00000000000E+00 -0.00000000000E+00 -0.76221438941E+02  0.76221438941E+02  0.00000000000E+00 0.  1.
         23    2    1    2    0    0  0.30913931471E+02 -0.10865387557E+03  0.12821304378E+03  0.19442172647E+03  0.92735577296E+02 0.  0.
         23    2    1    2    0    0 -0.29626657332E+02  0.65962303414E+02  0.11998657912E+03  0.16821979860E+03  0.93125491542E+02 0.  0.
        -11    1    3    3    0    0 -0.93484293027E+01 -0.79176923327E+02  0.11967049153E+03  0.14379640073E+03  0.00000000000E+00 0. -1.
         11    1    3    3    0    0  0.40262360774E+02 -0.29476952239E+02  0.85425522437E+01  0.50625325749E+02  0.00000000000E+00 0.  1.
        -11    1    4    4    0    0 -0.46658629643E+02  0.32847329752E+00  0.29716730085E+02  0.55319252180E+02  0.00000000000E+00 0. -1.
         11    1    4    4    0    0  0.17031972311E+02  0.65633830117E+02  0.90269849033E+02  0.11290054642E+03  0.00000000000E+00 0.  1.
         21    1    1    2  502  501 -0.12872741389E+01  0.42691572151E+02  0.50018880530E+01  0.43002863760E+02  0.00000000000E+00 0. -1.
<scales pt_clust_5="13000.00000" pt_clust_6="13000.00000" pt_clust_7="13000.00000" pt_clust_8="13000.00000" pt_clust_9="42.71098"></scales>
<clustering>
<clus scale="   42.711">  2  9  1 -1</clus>
<clus scale="   92.736">  5  6 -1 -1</clus>
<clus scale="   93.125">  7  8 -1 -1</clus>
<clus scale="  128.680">  2  5  1 -1</clus>
<clus scale="  128.961">  1  5  2 -1</clus>
</clustering>
</event>
<event>
 9    1  0.1748361E-005  0.9421002E+02  0.7546771E-02  0.1294661E+00
          1   -1    0    0  502    0  0.00000000000E+00  0.00000000000E+00  0.85315411098E+02  0.85315411098E+02  0.00000000000E+00 0. -1.
         -1   -1    0    0    0  501 -0.00000000000E+00 -0.00000000000E+00 -0.15711295351E+03  0.15711295351E+03  0.00000000000E+00 0.  1.
         23    2    1    2    0    0  0.17145884414E+02 -0.28774841545E+02 -0.46513000459E+02  0.10592925678E+03  0.89081846483E+02 0.  0.
         23    2    1    2    0    0 -0.36041837006E+02 -0.95711289291E+00 -0.16776616310E+00  0.93233664744E+02  0.85979986137E+02 0.  0.
        -11    1    3    3    0    0  0.39117414919E+02 -0.19188688846E+01 -0.57466214328E+02  0.69542936355E+02  0.00000000000E+00 0.  1.
         11    1    3    3    0    0 -0.21971530505E+02 -0.26855972660E+02  0.10953213869E+02  0.36386320428E+02  0.00000000000E+00 0. -1.
        -11    1    4    4    0    0 -0.36598847093E+02  0.34462661958E+02  0.18033010652E+02  0.53407304285E+02  0.00000000000E+00 0. -1.
         11    1    4    4    0    0  0.55701008648E+00 -0.35419774851E+02 -0.18200776815E+02  0.39826360459E+02  0.00000000000E+00 0.  1.
         21    1    1    2  502  501  0.18895952592E+02  0.29731954438E+02 -0.25116775793E+02  0.43265443084E+02  0.00000000000E+00 0.  1.
<scales pt_clust_5="13000.00000" pt_clust_6="13000.00000" pt_clust_7="13000.00000" pt_clust_8="13000.00000" pt_clust_9="35.22848"></scales>
<clustering>
<clus scale="   35.228">  2  9  1 -1</clus>
<clus scale="   85.980">  7  8 -1 -1</clus>
<clus scale="   89.082">  5  6 -1 -1</clus>
<clus scale="   91.283">  1  7  2 -1</clus>
<clus scale="   91.283">  1  5  2 -1</clus>
</clustering>
</event>
<event>
 9    1  0.1748361E-005  0.1193064E+03  0.7546771E-02  0.1245309E+00
         -1   -1    0    0    0  501 -0.00000000000E+00  0.00000000000E+00  0.52026761590E+02  0.52026761590E+02  0.00000000000E+00 0.  1.
          1   -1    0    0  502    0  0.00000000000E+00 -0.00000000000E+00 -0.52091431960E+03  0.52091431960E+03  0.00000000000E+00 0. -1.
         23    2    1    2    0    0 -0.21855820596E+02  0.51508922290E+02 -0.17701063549E+03  0.20848764373E+03  0.94886703720E+02 0.  0.
         23    2    1    2    0    0 -0.18304116123E+02 -0.91857189292E+02 -0.27570243108E+03  0.30527221290E+03  0.91687019640E+02 0.  0.
        -13    1    3    3    0    0 -0.51059501427E+02  0.13680441905E+02 -0.13454532073E+03  0.14455680720E+03  0.00000000000E+00 0.  1.
         13    1    3    3    0    0  0.29203680831E+02  0.37828480385E+02 -0.42465314758E+02  0.63930836533E+02  0.00000000000E+00 0. -1.
        -13    1    4    4    0    0 -0.53272487817E+02 -0.34377573013E+02 -0.12206192006E+03  0.13754594801E+03  0.00000000000E+00 0.  1.
         13    1    4    4    0    0  0.34968371694E+02 -0.57479616278E+02 -0.15364051102E+03  0.16772626489E+03  0.00000000000E+00 0. -1.
         21    1    1    2  502  501  0.40159936719E+02  0.40348267002E+02 -0.16174491437E+02  0.59181224561E+02  0.00000000000E+00 0. -1.
<scales pt_clust_5="13000.00000" pt_clust_6="13000.00000" pt_clust_7="13000.00000" pt_clust_8="13000.00000" pt_clust_9="56.92805"></scales>
<clustering>
<clus scale="   56.928">  1  9  2 -1</clus>
<clus scale="   91.687">  7  8 -1 -1</clus>
<clus scale="   94.887">  5  6 -1 -1</clus>
<clus scale="  116.778">  2  7  1 -1</clus>
<clus scale="  116.778">  2  5  1 -1</clus>
</clustering>
</event>
<event>
 9    1  0.1748361E-005  0.1404146E+03  0.7546771E-02  0.1215066E+00
         -2   -1    0    0    0  501 -0.00000000000E+00  0.00000000000E+00  0.13787275276E+03  0.13787275276E+03  0.00000000000E+00 0.  1.
          2   -1    0    0  502    0  0.00000000000E+00 -0.00000000000E+00 -0.28869793878E+03  0.28869793878E+03  0.00000000000E+00 0. -1.
         23    2    1    2    0    0  0.90477368836E+02 -0.20336264164E+01  0.19488994257E+02  0.13697560045E+03  0.10095644761E+03 0.  0.
         23    2    1    2    0    0 -0.95162224486E+02 -0.32950486381E+02 -0.20107983668E+03  0.24277242954E+03  0.91453640191E+02 0.  0.
        -11    1    3    3    0    0  0.74034223693E+02 -0.23108747227E+02 -0.28019585812E+02  0.82463189760E+02  0.00000000000E+00 0. -1.
         11    1    3    3    0    0  0.16443145143E+02  0.21075120811E+02  0.47508580069E+02  0.54512410693E+02  0.00000000000E+00 0.  1.
        -11    1    4    4    0    0 -0.43800852310E+02 -0.35162806139E+00 -0.13899248120E+02  0.45954623311E+02  0.00000000000E+00 0.  1.
         11    1    4    4    0    0 -0.51361372176E+02 -0.32598858320E+02 -0.18718058856E+03  0.19681780623E+03  0.00000000000E+00 0. -1.
         21    1    1    2  502  501  0.46848556497E+01  0.34984112798E+02  0.30765656402E+02  0.46822661549E+02  0.00000000000E+00 0.  1.
<scales pt_clust_5="13000.00000" pt_clust_6="13000.00000" pt_clust_7="13000.00000" pt_clust_8="13000.00000" pt_clust_9="35.29640"></scales>
<clustering>
<clus scale="   35.296">  1  9  2 -1</clus>
<clus scale="   91.454">  7  8 -1 -1</clus>
<clus scale="  100.956">  5  6 -1 -1</clus>
<clus scale="  133.745">  2  7  1 -1</clus>
<clus scale="  133.745">  2  5  1 -1</clus>
</clustering>
</event>
<event>
 9    1  0.1748361E-005  0.1151186E+03  0.7546771E-02  0.1256880E+00
         -1   -1    0    0    0  501 -0.00000000000E+00  0.00000000000E+00  0.17946257483E+03  0.17946257483E+03  0.00000000000E+00 0.  1.
          1   -1    0    0  502    0  0.00000000000E+00 -0.00000000000E+00 -0.31941528308E+03  0.31941528308E+03  0.00000000000E+00 0. -1.
         23    2    1    2    0    0  0.55794888297E+02 -0.12799287059E+02  0.57762642840E+02  0.13207246407E+03  0.10406594807E+03 0.  0.
         23    2    1    2    0    0 -0.40788045790E+02  0.26678661354E+02 -0.27143106138E+03  0.29030801940E+03  0.90711131612E+02 0.  0.
        -13    1    3    3    0    0  0.49465342502E+02 -0.50500466406E+02  0.61451016853E+02  0.93666134159E+02  0.00000000000E+00 0.  1.
         13    1    3    3    0    0  0.63295457950E+01  0.37701179347E+02 -0.36883740128E+01  0.38406329908E+02  0.00000000000E+00 0. -1.
        -13    1    4    4    0    0  0.10931598551E+02  0.34608879855E+02 -0.44506297809E+02  0.57428955731E+02  0.00000000000E+00 0.  1.
         13    1    4    4    0    0 -0.51719644341E+02 -0.79302185010E+01 -0.22692476357E+03  0.23287906367E+03  0.00000000000E+00 0. -1.
         21    1    1    2  502  501 -0.15006842507E+02 -0.13879374295E+02  0.73715710285E+02  0.76497374436E+02  0.00000000000E+00 0. -1.
<scales pt_clust_5="13000.00000" pt_clust_6="13000.00000" pt_clust_7="13000.00000" pt_clust_8="13000.00000" pt_clust_9="20.44119"></scales>
<clustering>
<clus scale="   20.441">  1  9  2 -1</clus>
<clus scale="   90.711">  7  8 -1 -1</clus>
<clus scale="  103.204">  2  7  1 -1</clus>
<clus scale="  104.066">  5  6 -1 -1</clus>
<clus scale="  103.204">  2  5  1 -1</clus>
</clustering>
</event>
<event>
 9    1  0.1748361E-005  0.1150303E+03  0.7546771E-02  0.1252819E+00
          1   -1    0    0  502    0  0.00000000000E+00  0.00000000000E+00  0.25564508670E+03  0.25564508670E+03  0.00000000000E+00 0. -1.
         -1   -1    0    0    0  501 -0.00000000000E+00 -0.00000000000E+00 -0.16332939516E+03  0.16332939516E+03  0.00000000000E+00 0.  1.
         23    2    1    2    0    0  0.49707075958E+02 -0.29875827885E+02  0.61541518386E+02  0.12523104608E+03  0.92369355983E+02 0.  0.
         23    2    1    2    0    0 -0.48356446004E+02  0.60386948749E+02  0.13850707958E+03  0.18176517083E+03  0.88709846032E+02 0.  0.
        -13    1    3    3    0    0  0.36006970599E+02 -0.44541475792E+02  0.79713987582E+02  0.98156837835E+02  0.00000000000E+00 0.  1.
         13    1    3    3    0    0  0.13700105359E+02  0.14665647907E+02 -0.18172469197E+02  0.27074208245E+02  0.00000000000E+00 0. -1.
        -13    1    4    4    0    0 -0.58924112924E+02  0.25295179818E+02  0.37429356114E+02  0.74248595307E+02  0.00000000000E+00 0. -1.
         13    1    4    4    0    0  0.10567666920E+02  0.35091768931E+02  0.10107772346E+03  0.10751657552E+03  0.00000000000E+00 0.  1.
         21    1    1    2  502  501 -0.13506299534E+01 -0.30511120864E+02 -0.10773290642E+03  0.11197826496E+03  0.00000000000E+00 0.  1.
<scales pt_clust_5="13000.00000" pt_clust_6="13000.00000" pt_clust_7="13000.00000" pt_clust_8="13000.00000" pt_clust_9="30.54100"></scales>
<clustering>
<clus scale="   30.541">  2  9  1 -1</clus>
<clus scale="   88.710">  7  8 -1 -1</clus>
<clus scale="   92.369">  5  6 -1 -1</clus>
<clus scale="  112.113">  1  7  2 -1</clus>
<clus scale="  112.113">  1  5  2 -1</clus>
</clustering>
</event>
<event>
 9    1  0.1748361E-005  0.1027027E+03  0.7546771E-02  0.1276320E+00
          1   -1    0    0  502    0  0.00000000000E+00  0.00000000000E+00  0.22330917265E+03  0.22330917265E+03  0.00000000000E+00 0. -1.
         -1   -1    0    0    0  501 -0.00000000000E+00 -0.00000000000E+00 -0.79940884710E+02  0.79940884710E+02  0.00000000000E+00 0.  1.
         23    2    1    2    0    0  0.30435825980E+02  0.35438156071E+02 -0.69229058123E+01  0.10265078058E+03  0.91143039888E+02 0.  0.
         23    2    1    2    0    0 -0.37023559374E+02 -0.13704829693E+02  0.14455164943E+03  0.17717539846E+03  0.94537697026E+02 0.  0.
        -13    1    3    3    0    0  0.58351024301E+02  0.26894993163E+02  0.15197122075E+02  0.66023747346E+02  0.00000000000E+00 0.  1.
         13    1    3    3    0    0 -0.27915198322E+02  0.85431629076E+01 -0.22120027887E+02  0.36627033234E+02  0.00000000000E+00 0. -1.
        -13    1    4    4    0    0  0.14317182755E+02  0.15747468144E+02  0.10220642125E+03  0.10439883629E+03  0.00000000000E+00 0.  1.
         13    1    4    4    0    0 -0.51340742129E+02 -0.29452297837E+02  0.42345228182E+02  0.72776562162E+02  0.00000000000E+00 0. -1.
         21    1    1    2  502  501  0.65877333947E+01 -0.21733326378E+02  0.57395443225E+01  0.23423878324E+02  0.00000000000E+00 0. -1.
<scales pt_clust_5="13000.00000" pt_clust_6="13000.00000" pt_clust_7="13000.00000" pt_clust_8="13000.00000" pt_clust_9="22.70982"></scales>
<clustering>
<clus scale="   22.710">  2  9  1 -1</clus>
<clus scale="   91.143">  5  6 -1 -1</clus>
<clus scale="   94.538">  7  8 -1 -1</clus>
<clus scale="   99.587">  2  5  1 -1</clus>
<clus scale="  102.703">  1  5  2 -1</clus>
</clustering>
</event>
<event>
 9    1  0.1748361E-005  0.9628434E+02  0.7546771E-02  0.1288901E+00
         -1   -1    0    0    0  501 -0.00000000000E+00  0.00000000000E+00  0.39002220998E+03  0.39002220998E+03  0.00000000000E+00 0.  1.
          1   -1    0    0  502    0  0.00000000000E+00 -0.00000000000E+00 -0.57328288079E+02  0.57328288079E+02  0.00000000000E+00 0. -1.
         23    2    1    2    0    0 -0.11512299650E+02  0.57547697869E+02  0.13492910723E+03  0.17268369678E+03  0.90385422403E+02 0.  0.
         23    2    1    2    0    0 -0.47307569895E+01 -0.23892025276E+02  0.22163166204E+02  0.95132737292E+02  0.89251458447E+02 0.  0.
        -11    1    4    4    0    0  0.11929104327E+02  0.30989582119E+02  0.17638041357E+02  0.37599976501E+02  0.00000000000E+00 0.  1.
         11    1    4    4    0    0 -0.16659861317E+02 -0.54881607395E+02  0.45251248473E+01  0.57532760791E+02  0.00000000000E+00 0. -1.
        -13    1    3    3    0    0 -0.28941212895E+01  0.80072227909E+02  0.12009370849E+03  0.14436909794E+03  0.00000000000E+00 0.  1.
         13    1    3    3    0    0 -0.86181783608E+01 -0.22524530040E+02  0.14835398733E+02  0.28314598838E+02  0.00000000000E+00 0. -1.
         21    1    1    2  502  501  0.16243056640E+02 -0.33655672592E+02  0.17560164847E+03  0.17953406399E+03  0.00000000000E+00 0. -1.
<scales pt_clust_5="13000.00000" pt_clust_6="13000.00000" pt_clust_7="13000.00000" pt_clust_8="13000.00000" pt_clust_9="37.37032"></scales>
<clustering>
<clus scale="   37.370">  1  9  2 -1</clus>
<clus scale="   89.251">  5  6 -1 -1</clus>
<clus scale="   90.385">  7  8 -1 -1</clus>
<clus scale="   95.221">  2  5  1 -1</clus>
<clus scale="   95.221">  2  5  1 -1</clus>
</clustering>
</event>
<event>
 9    1  0.1748361E-005  0.1018559E+03  0.7546771E-02  0.1277590E+00
         -1   -1    0    0    0  501 -0.00000000000E+00  0.00000000000E+00  0.31347963669E+02  0.31347963669E+02  0.00000000000E+00 0.  1.
          1   -1    0    0  502    0  0.00000000000E+00 -0.00000000000E+00 -0.54127034361E+03  0.54127034361E+03  0.00000000000E+00 0. -1.
         23    2    1    2    0    0  0.54107918974E+02  0.30617137093E+02 -0.24108202828E+03  0.26506550178E+03  0.90962079420E+02 0.  0.
         23    2    1    2    0    0 -0.25986449224E+02  0.10583212106E+02 -0.20040473138E+03  0.22286679746E+03  0.93382295585E+02 0.  0.
        -13    1    4    4    0    0  0.13974536058E+02  0.43331193433E+02 -0.85020911848E+02  0.96443949700E+02  0.00000000000E+00 0. -1.
         13    1    4    4    0    0 -0.39960985281E+02 -0.32747981327E+02 -0.11538381953E+03  0.12642284776E+03  0.00000000000E+00 0.  1.
        -13    1    3    3    0    0  0.74221163650E+02  0.39977871484E+02 -0.21431718573E+03  0.23030168788E+03  0.00000000000E+00 0. -1.
         13    1    3    3    0    0 -0.20113244676E+02 -0.93607343911E+01 -0.26764842551E+02  0.34763813894E+02  0.00000000000E+00 0.  1.
         21    1    1    2  502  501 -0.28121469751E+02 -0.41200349199E+02 -0.68435620275E+02  0.84686008038E+02  0.00000000000E+00 0.  1.
<scales pt_clust_5="13000.00000" pt_clust_6="13000.00000" pt_clust_7="13000.00000" pt_clust_8="13000.00000" pt_clust_9="49.88272"></scales>
<clustering>
<clus scale="   49.883">  1  9  2 -1</clus>
<clus scale="   90.962">  7  8 -1 -1</clus>
<clus scale="   93.382">  5  6 -1 -1</clus>
<clus scale="   99.642">  1  7  2 -1</clus>
<clus scale="  101.856">  2  5  1 -1</clus>
</clustering>
</event>
<event>
 9    1  0.1748361E-005  0.1182949E+03  0.7546771E-02  0.1247779E+00
         -1   -1    0    0    0  501 -0.00000000000E+00  0.00000000000E+00  0.16768735292E+03  0.16768735292E+03  0.00000000000E+00 0.  1.
          1   -1    0    0  502    0  0.00000000000E+00 -0.00000000000E+00 -0.12466693774E+03  0.12466693774E+03  0.00000000000E+00 0. -1.
         23    2    1    2    0    0  0.44170377787E+02 -0.78268107240E+02  0.49029980916E+02  0.13687803531E+03  0.90855592219E+02 0.  0.
         23    2    1    2    0    0 -0.41744600991E+02  0.42174444569E+02 -0.23271369666E+02  0.11539375601E+03  0.96191822906E+02 0.  0.
        -11    1    4    4    0    0  0.21387569190E+02 -0.23341798780E+01 -0.31031956665E+02  0.37760546157E+02  0.00000000000E+00 0.  1.
         11    1    4    4    0    0 -0.63132170182E+02  0.44508624447E+02  0.77605869996E+01  0.77633209856E+02  0.00000000000E+00 0. -1.
        -13    1    3    3    0    0 -0.14034928449E+02 -0.64292540904E+02  0.13209507663E+02  0.67119305160E+02  0.00000000000E+00 0. -1.
         13    1    3    3    0    0  0.58205306236E+02 -0.13975566336E+02  0.35820473253E+02  0.69758730152E+02  0.00000000000E+00 0.  1.
         21    1    1    2  502  501 -0.24257767958E+01  0.36093662671E+02  0.17261803932E+02  0.40082499337E+02  0.00000000000E+00 0.  1.
<scales pt_clust_5="13000.00000" pt_clust_6="13000.00000" pt_clust_7="13000.00000" pt_clust_8="13000.00000" pt_clust_9="36.17509"></scales>
<clustering>
<clus scale="   36.175">  1  9  2 -1</clus>
<clus scale="   90.856">  7  8 -1 -1</clus>
<clus scale="   96.192">  5  6 -1 -1</clus>
<clus scale="  113.998">  1  7  2 -1</clus>
<clus scale="  118.295">  2  5  1 -1</clus>
</clustering>
</event>
<event>
 9    1  0.1748361E-005  0.1827678E+03  0.7546771E-02  0.1165160E+00
         -1   -1    0    0    0  501 -0.00000000000E+00  0.00000000000E+00  0.16294945617E+03  0.16294945617E+03  0.00000000000E+00 0.  1.
          1   -1    0    0  502    0  0.00000000000E+00 -0.00000000000E+00 -0.37441336064E+03  0.37441336064E+03  0.00000000000E+00 0. -1.
         23    2    1    2    0    0 -0.12468733425E+02 -0.17880831739E+03  0.85438161796E+01  0.20117878431E+03  0.90950661246E+02 0.  0.
         23    2    1    2    0    0  0.62645711729E+02  0.14105203337E+03 -0.20372550534E+03  0.27131203029E+03  0.91027330710E+02 0.  0.
        -11    1    3    3    0    0 -0.46564776928E+02 -0.53960837553E+02  0.83248549808E+01  0.71758996999E+02  0.00000000000E+00 0.  1.
         11    1    3    3    0    0  0.34096043502E+02 -0.12484747984E+03  0.21896119879E+00  0.12941978732E+03  0.00000000000E+00 0. -1.
        -13    1    4    4    0    0 -0.11950305889E+02  0.28035080649E+02 -0.50728228855E+01  0.30895130520E+02  0.00000000000E+00 0.  1.
         13    1    4    4    0    0  0.74596017618E+02  0.11301695272E+03 -0.19865268245E+03  0.24041689977E+03  0.00000000000E+00 0. -1.
         21    1    1    2  502  501 -0.50176978304E+02  0.37756284021E+02 -0.16282215308E+02  0.64872002205E+02  0.00000000000E+00 0. -1.
<scales pt_clust_5="13000.00000" pt_clust_6="13000.00000" pt_clust_7="13000.00000" pt_clust_8="13000.00000" pt_clust_9="62.79543"></scales>
<clustering>
<clus scale="   62.795">  1  9  2 -1</clus>
<clus scale="   90.951">  5  6 -1 -1</clus>
<clus scale="   91.027">  7  8 -1 -1</clus>
<clus scale="  182.730">  1  5  2 -1</clus>
<clus scale="  182.768">  2  5  1 -1</clus>
</clustering>
</event>
<event>
 9    1  0.1748361E-005  0.8990062E+02  0.7546771E-02  0.1306622E+00
         -1   -1    0    0    0  501 -0.00000000000E+00  0.00000000000E+00  0.24230981332E+03  0.24230981332E+03  0.00000000000E+00 0.  1.
          1   -1    0    0  502    0  0.00000000000E+00 -0.00000000000E+00 -0.12725904610E+03  0.12725904610E+03  0.00000000000E+00 0. -1.
         23    2    1    2    0    0  0.53779940883E+02  0.16117745088E+02 -0.85759037169E+01  0.98942625511E+02  0.81018721727E+02 0.  0.
         23    2    1    2    0    0  0.79810331235E+01 -0.16940165681E+02 -0.38726711133E+02  0.96920405113E+02  0.86851256002E+02 0.  0.
        -11    1    4    4    0    0 -0.19454385344E+02 -0.33835222195E+02  0.83120482841E+01  0.39904705446E+02  0.00000000000E+00 0.  1.
         11    1    4    4    0    0  0.27435418468E+02  0.16895056513E+02 -0.47038759417E+02  0.57015699667E+02  0.00000000000E+00 0. -1.
        -11    1    3    3    0    0 -0.92171703586E+01  0.25421503529E+02 -0.20780345007E+02  0.34103252186E+02  0.00000000000E+00 0.  1.
         11    1    3    3    0    0  0.62997111241E+02 -0.93037584402E+01  0.12204441290E+02  0.64839373324E+02  0.00000000000E+00 0. -1.
         21    1    1    2  502  501 -0.61760974006E+02  0.82242059277E+00  0.16235338207E+03  0.17370582879E+03  0.00000000000E+00 0.  1.
<scales pt_clust_5="13000.00000" pt_clust_6="13000.00000" pt_clust_7="13000.00000" pt_clust_8="13000.00000" pt_clust_9="61.76645"></scales>
<clustering>
<clus scale="   61.766">  1  9  2 -1</clus>
<clus scale="   81.019">  7  8 -1 -1</clus>
<clus scale="   84.279">  1  7  2 -1</clus>
<clus scale="   86.851">  5  6 -1 -1</clus>
<clus scale="   89.901">  2  5  1 -1</clus>
</clustering>
</event>
<event>
 9    1  0.1748361E-005  0.9244442E+02  0.7546771E-02  0.1298029E+00
         -1   -1    0    0    0  501 -0.00000000000E+00  0.00000000000E+00  0.13195931241E+03  0.13195931241E+03  0.00000000000E+00 0.  1.
          1   -1    0    0  502    0  0.00000000000E+00 -0.00000000000E+00 -0.13201025742E+03  0.13201025742E+03  0.00000000000E+00 0. -1.
         23    2    1    2    0    0 -0.21595369598E+02  0.29225485104E+02  0.10052468531E+02  0.99216940584E+02  0.91773962580E+02 0.  0.
         23    2    1    2    0    0  0.55667813668E+01  0.99004435070E+01 -0.52496402853E+02  0.10487843220E+03  0.90081104518E+02 0.  0.
        -11    1    3    3    0    0 -0.54812771465E+02  0.32770530047E+02  0.14580977579E+02  0.65505362089E+02  0.00000000000E+00 0.  1.
         11    1    3    3    0    0  0.33217401867E+02 -0.35450449423E+01 -0.45285090485E+01  0.33711578495E+02  0.00000000000E+00 0. -1.
        -13    1    4    4    0    0  0.13738123533E+02  0.39869376102E+02  0.19272126740E+01  0.42213947194E+02  0.00000000000E+00 0.  1.
         13    1    4    4    0    0 -0.81713421660E+01 -0.29968932595E+02 -0.54423615527E+02  0.62664485003E+02  0.00000000000E+00 0. -1.
         21    1    1    2  502  501  0.16028588231E+02 -0.39125928611E+02  0.42392989309E+02  0.59874197055E+02  0.00000000000E+00 0.  1.
<scales pt_clust_5="13000.00000" pt_clust_6="13000.00000" pt_clust_7="13000.00000" pt_clust_8="13000.00000" pt_clust_9="42.28184"></scales>
<clustering>
<clus scale="   42.282">  1  9  2 -1</clus>
<clus scale="   90.081">  7  8 -1 -1</clus>
<clus scale="   90.764">  2  7  1 -1</clus>
<clus scale="   91.774">  5  6 -1 -1</clus>
<clus scale="   90.764">  2  5  1 -1</clus>
</clustering>
</event>
<event>
 9    1  0.1748361E-005  0.1273114E+03  0.7546771E-02  0.1231765E+00
          3   -1    0    0  502    0  0.00000000000E+00  0.00000000000E+00  0.17709005154E+03  0.17709005154E+03  0.00000000000E+00 0. -1.
         -3   -1    0    0    0  501 -0.00000000000E+00 -0.00000000000E+00 -0.28419155182E+03  0.28419155182E+03  0.00000000000E+00 0.  1.
         23    2    1    2    0    0  0.11359199007E+03  0.34664926825E+02 -0.92248363620E+02  0.17546829581E+03  0.90413300369E+02 0.  0.
         23    2    1    2    0    0 -0.79360052902E+02 -0.21605607875E+02  0.10425597602E+03  0.16119648663E+03  0.91379311001E+02 0.  0.
        -11    1    3    3    0    0  0.11133756992E+03  0.58097424473E+02 -0.74875757455E+02  0.14621130004E+03  0.00000000000E+00 0.  1.
         11    1    3    3    0    0  0.22544201490E+01 -0.23432497648E+02 -0.17372606165E+02  0.29256995765E+02  0.00000000000E+00 0. -1.
        -11    1    4    4    0    0 -0.39383725987E+02 -0.57158408212E+02  0.57067282808E+02  0.89860092750E+02  0.00000000000E+00 0. -1.
         11    1    4    4    0    0 -0.39976326915E+02  0.35552800337E+02  0.47188693211E+02  0.71336393884E+02  0.00000000000E+00 0.  1.
         21    1    1    2  502  501 -0.34231937164E+02 -0.13059318950E+02 -0.11910911268E+03  0.12461682092E+03  0.00000000000E+00 0.  1.
<scales pt_clust_5="13000.00000" pt_clust_6="13000.00000" pt_clust_7="13000.00000" pt_clust_8="13000.00000" pt_clust_9="36.63839"></scales>
<clustering>
<clus scale="   36.638">  2  9  1 -1</clus>
<clus scale="   90.413">  5  6 -1 -1</clus>
<clus scale="   91.379">  7  8 -1 -1</clus>
<clus scale="  126.620">  2  5  1 -1</clus>
<clus scale="  127.311">  1  5  2 -1</clus>
</clustering>
</event>
<event>
 9    1  0.1748361E-005  0.1044712E+03  0.7546771E-02  0.1271293E+00
          1   -1    0    0  502    0  0.00000000000E+00  0.00000000000E+00  0.63748040909E+03  0.63748040909E+03  0.00000000000E+00 0. -1.
         -1   -1    0    0    0  501 -0.00000000000E+00 -0.00000000000E+00 -0.33136527170E+02  0.33136527170E+02  0.00000000000E+00 0.  1.
         23    2    1    2    0    0  0.64369408670E+02 -0.61610354772E+02  0.22722965304E+03  0.26056489055E+03  0.91222203309E+02 0.  0.
         23    2    1    2    0    0 -0.30979040410E+02  0.13002831857E+02  0.28141886676E+03  0.29764559435E+03  0.90926050658E+02 0.  0.
        -11    1    3    3    0    0  0.68070607072E+02 -0.29275169939E+02  0.21210540481E+03  0.22467609101E+03  0.00000000000E+00 0. -1.
         11    1    3    3    0    0 -0.37011984016E+01 -0.32335184833E+02  0.15124248236E+02  0.35888799541E+02  0.00000000000E+00 0.  1.
        -11    1    4    4    0    0 -0.52602593325E+02 -0.17391105615E+02  0.12311733817E+03  0.13500874911E+03  0.00000000000E+00 0.  1.
         11    1    4    4    0    0  0.21623552915E+02  0.30393937472E+02  0.15830152859E+03  0.16263684524E+03  0.00000000000E+00 0. -1.
         21    1    1    2  502  501 -0.33390368260E+02  0.48607522915E+02  0.95695362116E+02  0.11240645136E+03  0.00000000000E+00 0.  1.
<scales pt_clust_5="13000.00000" pt_clust_6="13000.00000" pt_clust_7="13000.00000" pt_clust_8="13000.00000" pt_clust_9="58.97125"></scales>
<clustering>
<clus scale="   58.971">  2  9  1 -1</clus>
<clus scale="   90.926">  7  8 -1 -1</clus>
<clus scale="   91.222">  5  6 -1 -1</clus>
<clus scale="  104.213">  1  7  2 -1</clus>
<clus scale="  104.213">  1  5  2 -1</clus>
</clustering>
</event>
<event>
 9    1  0.1748361E-005  0.9605713E+02  0.7546771E-02  0.1293575E+00
          2   -1    0    0  502    0  0.00000000000E+00  0.00000000000E+00  0.92062579528E+02  0.92062579528E+02  0.00000000000E+00 0.  1.
         -2   -1    0    0    0  501 -0.00000000000E+00 -0.00000000000E+00 -0.19844887311E+03  0.19844887311E+03  0.00000000000E+00 0. -1.
         23    2    1    2    0    0 -0.15359575913E+02  0.88059688714E+01 -0.75142353346E+02  0.11290109580E+03  0.82382173471E+02 0.  0.
         23    2    1    2    0    0  0.35892534337E+02  0.14191358965E-02  0.37890419776E+02  0.10495547263E+03  0.91058735449E+02 0.  0.
        -11    1    4    4    0    0 -0.26560379323E+02  0.51774456340E+01 -0.69013913748E+01  0.27926490936E+02  0.00000000000E+00 0.  1.
         11    1    4    4    0    0  0.62452913661E+02 -0.51760264981E+01  0.44791811151E+02  0.77028981696E+02  0.00000000000E+00 0. -1.
        -11    1    3    3    0    0  0.21887603923E+02 -0.21675805525E+02 -0.49668787395E+02  0.58445668719E+02  0.00000000000E+00 0. -1.
         11    1    3    3    0    0 -0.37247179836E+02  0.30481774396E+02 -0.25473565951E+02  0.54455427079E+02  0.00000000000E+00 0.  1.
         21    1    1    2  502  501 -0.20532958425E+02 -0.88073880073E+01 -0.69134360008E+02  0.72654884205E+02  0.00000000000E+00 0. -1.
<scales pt_clust_5="13000.00000" pt_clust_6="13000.00000" pt_clust_7="13000.00000" pt_clust_8="13000.00000" pt_clust_9="22.34217"></scales>
<clustering>
<clus scale="   22.342">  2  9  1 -1</clus>
<clus scale="   82.382">  7  8 -1 -1</clus>
<clus scale="   87.875">  2  7  1 -1</clus>
<clus scale="   91.059">  5  6 -1 -1</clus>
<clus scale="   96.057">  1  5  2 -1</clus>
</clustering>
</event>
<event>
 9    1  0.1748361E-005  0.1166385E+03  0.7546771E-02  0.1248776E+00
         -2   -1    0    0    0  501 -0.00000000000E+00  0.00000000000E+00  0.75578716708E+02  0.75578716708E+02  0.00000000000E+00 0.  1.
          2   -1    0    0  502    0  0.00000000000E+00 -0.00000000000E+00 -0.27661735920E+03  0.27661735920E+03  0.00000000000E+00 0. -1.
         23    2    1    2    0    0  0.25399189475E+02 -0.70384619727E+02 -0.53515721098E+02  0.12872161774E+03  0.90034487555E+02 0.  0.
         23    2    1    2    0    0 -0.58688166973E+02  0.50258319876E+02 -0.14051910455E+03  0.18394880297E+03  0.90118498158E+02 0.  0.
        -11    1    4    4    0    0 -0.15746428624E+02  0.64572814781E+02 -0.11263952174E+03  0.13078707995E+03  0.00000000000E+00 0.  1.
         11    1    4    4    0    0 -0.42941738350E+02 -0.14314494906E+02 -0.27879582810E+02  0.53161723021E+02  0.00000000000E+00 0. -1.
        -13    1    3    3    0    0  0.25472443351E+02  0.16376208133E+02 -0.15050071823E+02  0.33816123742E+02  0.00000000000E+00 0.  1.
         13    1    3    3    0    0 -0.73253876336E-01 -0.86760827860E+02 -0.38465649275E+02  0.94905493999E+02  0.00000000000E+00 0. -1.
         21    1    1    2  502  501  0.33288977499E+02  0.20126299851E+02 -0.70038168448E+01  0.39525655200E+02  0.00000000000E+00 0.  1.
<scales pt_clust_5="13000.00000" pt_clust_6="13000.00000" pt_clust_7="13000.00000" pt_clust_8="13000.00000" pt_clust_9="38.90018"></scales>
<clustering>
<clus scale="   38.900">  1  9  2 -1</clus>
<clus scale="   90.034">  7  8 -1 -1</clus>
<clus scale="   90.118">  5  6 -1 -1</clus>
<clus scale="  116.574">  1  7  2 -1</clus>
<clus scale="  116.638">  2  5  1 -1</clus>
</clustering>
</event>
<event>
 9    1  0.1748361E-005  0.2721232E+03  0.7546771E-02  0.1100192E+00
         -1   -1    0    0    0  501 -0.00000000000E+00  0.00000000000E+00  0.73355116109E+03  0.73355116109E+03  0.00000000000E+00 0.  1.
          1   -1    0    0  502    0  0.00000000000E+00 -0.00000000000E+00 -0.11224058597E+03  0.11224058597E+03  0.00000000000E+00 0. -1.
         23    2    1    2    0    0 -0.37857512868E+02 -0.25681399142E+03  0.30054787071E+03  0.40686461143E+03  0.88448696851E+02 0.  0.
         23    2    1    2    0    0  0.16104068287E+02  0.25351474342E+03  0.26171998280E+03  0.37591808578E+03  0.91038407657E+02 0.  0.
        -11    1    3    3    0    0 -0.12569667580E+02 -0.18362007749E+03  0.26247139470E+03  0.32057068243E+03  0.00000000000E+00 0.  1.
         11    1    3    3    0    0 -0.25287845289E+02 -0.73193913938E+02  0.38076476014E+02  0.86293929002E+02  0.00000000000E+00 0. -1.
        -11    1    4    4    0    0 -0.12886696546E+02  0.17783448447E+02 -0.70592681415E+00  0.21973081696E+02  0.00000000000E+00 0. -1.
         11    1    4    4    0    0  0.28990764833E+02  0.23573129497E+03  0.26242590962E+03  0.35394500408E+03  0.00000000000E+00 0.  1.
         21    1    1    2  502  501  0.21753444581E+02  0.32992480047E+01  0.59042721610E+02  0.63009049855E+02  0.00000000000E+00 0.  1.
<scales pt_clust_5="13000.00000" pt_clust_6="13000.00000" pt_clust_7="13000.00000" pt_clust_8="13000.00000" pt_clust_9="22.00221"></scales>
<clustering>
<clus scale="   22.002">  1  9  2 -1</clus>
<clus scale="   88.449">  5  6 -1 -1</clus>
<clus scale="   91.038">  7  8 -1 -1</clus>
<clus scale="  271.268">  1  5  2 -1</clus>
<clus scale="  272.123">  2  5  1 -1</clus>
</clustering>
</event>
<event>
 9    1  0.1748361E-005  0.2305902E+03  0.7546771E-02  0.1126354E+00
          1   -1    0    0  502    0  0.00000000000E+00  0.00000000000E+00  0.81782269021E+03  0.81782269021E+03  0.00000000000E+00 0. -1.
         -1   -1    0    0    0  501 -0.00000000000E+00 -0.00000000000E+00 -0.22804372842E+03  0.22804372842E+03  0.00000000000E+00 0.  1.
         23    2    1    2    0    0  0.13479250782E+03  0.13363240240E+03 -0.74342943815E+02  0.22424731374E+03  0.93452369090E+02 0.  0.
         23    2    1    2    0    0 -0.14701272188E+03 -0.15464732426E+03  0.72222362422E+03  0.75863680358E+03  0.91620418427E+02 0.  0.
        -11    1    3    3    0    0  0.13579506350E+03  0.80097970511E+02 -0.61155181194E+02  0.16910334219E+03  0.00000000000E+00 0.  1.
         11    1    3    3    0    0 -0.10025556819E+01  0.53534431894E+02 -0.13187762621E+02  0.55143971556E+02  0.00000000000E+00 0. -1.
        -13    1    4    4    0    0 -0.40077750707E+02  0.42030687473E+01  0.14383584609E+03  0.14937416948E+03  0.00000000000E+00 0.  1.
         13    1    4    4    0    0 -0.10693497117E+03 -0.15885039301E+03  0.57838777813E+03  0.60926263410E+03  0.00000000000E+00 0. -1.
         21    1    1    2  502  501  0.12220214061E+02  0.21014921854E+02 -0.58101718613E+02  0.62982301307E+02  0.00000000000E+00 0.  1.
<scales pt_clust_5="13000.00000" pt_clust_6="13000.00000" pt_clust_7="13000.00000" pt_clust_8="13000.00000" pt_clust_9="24.30968"></scales>
<clustering>
<clus scale="   24.310">  2  9  1 -1</clus>
<clus scale="   91.620">  7  8 -1 -1</clus>
<clus scale="   93.452">  5  6 -1 -1</clus>
<clus scale="  229.854">  1  7  2 -1</clus>
<clus scale="  229.854">  1  5  2 -1</clus>
</clustering>
</event>
<event>
 9    1  0.1748361E-005  0.1437658E+03  0.7546771E-02  0.1208394E+00
          1   -1    0    0  502    0  0.00000000000E+00  0.00000000000E+00  0.37294657272E+03  0.37294657272E+03  0.00000000000E+00 0. -1.
         -1   -1    0    0    0  501 -0.00000000000E+00 -0.00000000000E+00 -0.67369444792E+02  0.67369444792E+02  0.00000000000E+00 0.  1.
         23    2    1    2    0    0 -0.11446482700E+03  0.41588849308E+02  0.13558304662E+03  0.20323043831E+03  0.89933417122E+02 0.  0.
         23    2    1    2    0    0  0.10298138678E+03 -0.20710741131E+02  0.15909026410E+03  0.21088141865E+03  0.90150761410E+02 0.  0.
        -11    1    4    4    0    0  0.59472208368E+02  0.21265933016E+02  0.12837051035E+03  0.14306701717E+03  0.00000000000E+00 0.  1.
         11    1    4    4    0    0  0.43509178411E+02 -0.41976674146E+02  0.30719753749E+02  0.67814401485E+02  0.00000000000E+00 0. -1.
        -13    1    3    3    0    0 -0.97194061584E+02  0.17794818931E+02  0.14213685942E+03  0.17310756192E+03  0.00000000000E+00 0. -1.
         13    1    3    3    0    0 -0.17270765420E+02  0.23794030377E+02 -0.65538127959E+01  0.30122876389E+02  0.00000000000E+00 0.  1.
         21    1    1    2  502  501  0.11483440226E+02 -0.20878108178E+02  0.10903817215E+02  0.26204160554E+02  0.00000000000E+00 0.  1.
<scales pt_clust_5="13000.00000" pt_clust_6="13000.00000" pt_clust_7="13000.00000" pt_clust_8="13000.00000" pt_clust_9="23.82782"></scales>
<clustering>
<clus scale="   23.828">  2  9  1 -1</clus>
<clus scale="   89.933">  7  8 -1 -1</clus>
<clus scale="   90.151">  5  6 -1 -1</clus>
<clus scale="  143.630">  2  7  1 -1</clus>
<clus scale="  143.766">  1  5  2 -1</clus>
</clustering>
</event>
<event>
 9    1  0.1748361E-005  0.1066728E+03  0.7546771E-02  0.1268547E+00
          1   -1    0    0  502    0  0.00000000000E+00  0.00000000000E+00  0.47793176465E+03  0.47793176465E+03  0.00000000000E+00 0. -1.
         -1   -1    0    0    0  501 -0.00000000000E+00 -0.00000000000E+00 -0.10357154085E+03  0.10357154085E+03  0.00000000000E+00 0.  1.
         23    2    1    2    0    0  0.10644734289E+02  0.49777150056E+02  0.30353678967E+02  0.11220724049E+03  0.95278769701E+02 0.  0.
         23    2    1    2    0    0 -0.51018700568E+02 -0.10632271724E+02  0.38537618243E+03  0.39948327558E+03  0.91411883663E+02 0.  0.
        -11    1    3    3    0    0 -0.26610011287E+02 -0.83719350843E+01 -0.12885411640E+02  0.30728095139E+02  0.00000000000E+00 0.  1.
         11    1    3    3    0    0  0.37254745576E+02  0.58149085141E+02  0.43239090607E+02  0.81479145351E+02  0.00000000000E+00 0. -1.
        -13    1    4    4    0    0  0.26285154995E+02 -0.90182595795E+01  0.93878888494E+02  0.97905485463E+02  0.00000000000E+00 0.  1.
         13    1    4    4    0    0 -0.77303855563E+02 -0.16140121443E+01  0.29149729393E+03  0.30157779011E+03  0.00000000000E+00 0. -1.
         21    1    1    2  502  501  0.40373966279E+02 -0.39144878333E+02 -0.41369637596E+02  0.69812789427E+02  0.00000000000E+00 0. -1.
<scales pt_clust_5="13000.00000" pt_clust_6="13000.00000" pt_clust_7="13000.00000" pt_clust_8="13000.00000" pt_clust_9="56.23503"></scales>
<clustering>
<clus scale="   56.235">  2  9  1 -1</clus>
<clus scale="   91.412">  7  8 -1 -1</clus>
<clus scale="   95.279">  5  6 -1 -1</clus>
<clus scale="  103.234">  1  7  2 -1</clus>
<clus scale="  103.234">  1  5  2 -1</clus>
</clustering>
</event>
<event>
 9    1  0.1748361E-005  0.1056155E+03  0.7546771E-02  0.1269244E+00
          2   -1    0    0  502    0  0.00000000000E+00  0.00000000000E+00  0.46874094334E+02  0.46874094334E+02  0.00000000000E+00 0. -1.
         -2   -1    0    0    0  501 -0.00000000000E+00 -0.00000000000E+00 -0.42727032976E+03  0.42727032976E+03  0.00000000000E+00 0.  1.
         23    2    1    2    0    0  0.62588719897E+01 -0.39645888337E+02 -0.28619021295E+03  0.30257133856E+03  0.89630391015E+02 0.  0.
         23    2    1    2    0    0 -0.13370920495E+02  0.58550632777E+02 -0.41237545361E+02  0.11488419628E+03  0.88830655147E+02 0.  0.
        -11    1    3    3    0    0 -0.28735068994E+02 -0.36315105256E+02 -0.24053030169E+03  0.24494758029E+03  0.00000000000E+00 0.  1.
         11    1    3    3    0    0  0.34993940984E+02 -0.33307830819E+01 -0.45659911259E+02  0.57623758274E+02  0.00000000000E+00 0. -1.
        -13    1    4    4    0    0  0.13155112950E+02  0.72568904163E+02 -0.15517716981E+02  0.75366454000E+02  0.00000000000E+00 0. -1.
         13    1    4    4    0    0 -0.26526033445E+02 -0.14018271387E+02 -0.25719828380E+02  0.39517742280E+02  0.00000000000E+00 0.  1.
         21    1    1    2  502  501  0.71120485054E+01 -0.18904744439E+02 -0.52968477120E+02  0.56688889252E+02  0.00000000000E+00 0.  1.
<scales pt_clust_5="13000.00000" pt_clust_6="13000.00000" pt_clust_7="13000.00000" pt_clust_8="13000.00000" pt_clust_9="20.19828"></scales>
<clustering>
<clus scale="   20.198">  2  9  1 -1</clus>
<clus scale="   88.831">  7  8 -1 -1</clus>
<clus scale="   89.630">  5  6 -1 -1</clus>
<clus scale="  104.938">  1  7  2 -1</clus>
<clus scale="  104.938">  1  5  2 -1</clus>
</clustering>
</event>
<event>
 9    1  0.1748361E-005  0.1948993E+03  0.7546771E-02  0.1154481E+00
         -1   -1    0    0    0  501 -0.00000000000E+00  0.00000000000E+00  0.95681546015E+02  0.95681546015E+02  0.00000000000E+00 0.  1.
          1   -1    0    0  502    0  0.00000000000E+00 -0.00000000000E+00 -0.55794593271E+03  0.55794593271E+03  0.00000000000E+00 0. -1.
         23    2    1    2    0    0  0.14478024043E+03 -0.11590542068E+03 -0.15672339035E+03  0.25913111895E+03  0.90505973085E+02 0.  0.
         23    2    1    2    0    0 -0.12488518632E+03  0.10521516592E+03 -0.31730076369E+03  0.36903291828E+03  0.94015845674E+02 0.  0.
        -11    1    3    3    0    0  0.35224337206E+02 -0.21639716353E+02  0.56809985091E+01  0.41728946782E+02  0.00000000000E+00 0.  1.
         11    1    3    3    0    0  0.10955590323E+03 -0.94265704324E+02 -0.16240438886E+03  0.21740217217E+03  0.00000000000E+00 0. -1.
        -13    1    4    4    0    0 -0.91276153304E+02  0.42619254675E+02 -0.25631614075E+03  0.27540098228E+03  0.00000000000E+00 0.  1.
         13    1    4    4    0    0 -0.33609033016E+02  0.62595911245E+02 -0.60984622934E+02  0.93631936001E+02  0.00000000000E+00 0. -1.
         21    1    1    2  502  501 -0.19895054111E+02  0.10690254757E+02  0.11759767339E+02  0.25463441494E+02  0.00000000000E+00 0.  1.
<scales pt_clust_5="13000.00000" pt_clust_6="13000.00000" pt_clust_7="13000.00000" pt_clust_8="13000.00000" pt_clust_9="22.58528"></scales>
<clustering>
<clus scale="   22.585">  1  9  2 -1</clus>
<clus scale="   90.506">  5  6 -1 -1</clus>
<clus scale="   94.016">  7  8 -1 -1</clus>
<clus scale="  193.231">  1  5  2 -1</clus>
<clus scale="  194.899">  2  5  1 -1</clus>
</clustering>
</event>
<event>
 9    1  0.1748361E-005  0.1181622E+03  0.7546771E-02  0.1247390E+00
         -4   -1    0    0    0  501 -0.00000000000E+00  0.00000000000E+00  0.56553740967E+03  0.56553740967E+03  0.00000000000E+00 0.  1.
          4   -1    0    0  502    0  0.00000000000E+00 -0.00000000000E+00 -0.76998156119E+02  0.76998156119E+02  0.00000000000E+00 0. -1.
         23    2    1    2    0    0  0.88066564227E+02 -0.74108969089E+02  0.12847760407E+03  0.19547784174E+03  0.91963214549E+02 0.  0.
         23    2    1    2    0    0 -0.55199088120E+02  0.19279782441E+02  0.28809151726E+02  0.10969333950E+03  0.88227048951E+02 0.  0.
        -13    1    4    4    0    0 -0.79511858188E+02  0.13524878812E+02  0.24861737531E+02  0.84398838455E+02  0.00000000000E+00 0.  1.
         13    1    4    4    0    0  0.24312770068E+02  0.57549036287E+01  0.39474141947E+01  0.25294501042E+02  0.00000000000E+00 0. -1.
        -13    1    3    3    0    0 -0.18986274316E+02 -0.10399402782E+02  0.28234022877E+02  0.35577889742E+02  0.00000000000E+00 0.  1.
         13    1    3    3    0    0  0.10705283854E+03 -0.63709566307E+02  0.10024358119E+03  0.15989995200E+03  0.00000000000E+00 0. -1.
         21    1    1    2  502  501 -0.32867476107E+02  0.54829186648E+02  0.33125249775E+03  0.33736438455E+03  0.00000000000E+00 0.  1.
<scales pt_clust_5="13000.00000" pt_clust_6="13000.00000" pt_clust_7="13000.00000" pt_clust_8="13000.00000" pt_clust_9="63.92582"></scales>
<clustering>
<clus scale="   63.926">  1  9  2 -1</clus>
<clus scale="   88.227">  5  6 -1 -1</clus>
<clus scale="   91.963">  7  8 -1 -1</clus>
<clus scale="  115.278">  2  5  1 -1</clus>
<clus scale="  115.278">  2  5  1 -1</clus>
</clustering>
</event>
<event>
 9    1  0.1748361E-005  0.1059786E+03  0.7546771E-02  0.1268555E+00
          1   -1    0    0  502    0  0.00000000000E+00  0.00000000000E+00  0.18448791086E+03  0.18448791086E+03  0.00000000000E+00 0. -1.
         -1   -1    0    0    0  501 -0.00000000000E+00 -0.00000000000E+00 -0.78470395308E+02  0.78470395308E+02  0.00000000000E+00 0.  1.
         23    2    1    2    0    0  0.50926755780E+02 -0.19457614753E+02  0.32122958187E+02  0.11006163351E+03  0.90053014958E+02 0.  0.
         23    2    1    2    0    0 -0.43814933490E+02  0.38378132584E+02  0.78291642607E+02  0.13221096817E+03  0.89204984974E+02 0.  0.
        -11    1    4    4    0    0 -0.11226006107E+02  0.44323365606E+02  0.86714145223E+02  0.98030234793E+02  0.00000000000E+00 0. -1.
         11    1    4    4    0    0 -0.32588927383E+02 -0.59452330224E+01 -0.84225026164E+01  0.34180733374E+02  0.00000000000E+00 0.  1.
        -13    1    3    3    0    0  0.23826953264E+02  0.16129819281E+01  0.60806339252E+02  0.65327913680E+02  0.00000000000E+00 0. -1.
         13    1    3    3    0    0  0.27099802517E+02 -0.21070596681E+02 -0.28683381065E+02  0.44733719835E+02  0.00000000000E+00 0.  1.
         21    1    1    2  502  501 -0.71118222908E+01 -0.18920517831E+02 -0.43970852462E+01  0.20685704482E+02  0.00000000000E+00 0. -1.
<scales pt_clust_5="13000.00000" pt_clust_6="13000.00000" pt_clust_7="13000.00000" pt_clust_8="13000.00000" pt_clust_9="20.21297"></scales>
<clustering>
<clus scale="   20.213">  2  9  1 -1</clus>
<clus scale="   89.205">  5  6 -1 -1</clus>
<clus scale="   90.053">  7  8 -1 -1</clus>
<clus scale="  105.259">  1  5  2 -1</clus>
<clus scale="  105.259">  1  5  2 -1</clus>
</clustering>
</event>
<event>
 9    1  0.1748361E-005  0.1237058E+03  0.7546771E-02  0.1239136E+00
         -2   -1    0    0    0  501 -0.00000000000E+00  0.00000000000E+00  0.77743168712E+02  0.77743168712E+02  0.00000000000E+00 0.  1.
          2   -1    0    0  502    0  0.00000000000E+00 -0.00000000000E+00 -0.37820119571E+03  0.37820119571E+03  0.00000000000E+00 0. -1.
         23    2    1    2    0    0 -0.93732190012E+02  0.19382773216E+02 -0.28577122407E+02  0.13173397341E+03  0.85882317641E+02 0.  0.
         23    2    1    2    0    0  0.62678150243E+02 -0.50107756280E+02 -0.24200480283E+03  0.27128629983E+03  0.92685458019E+02 0.  0.
        -11    1    4    4    0    0  0.57296365271E+02 -0.73323452542E+02 -0.15237399637E+03  0.17854141518E+03  0.00000000000E+00 0.  1.
         11    1    4    4    0    0  0.53817849717E+01  0.23215696261E+02 -0.89630806460E+02  0.92744884652E+02  0.00000000000E+00 0. -1.
        -11    1    3    3    0    0 -0.76736383765E+02 -0.25147770250E+02 -0.14580959222E+02  0.82057829083E+02  0.00000000000E+00 0.  1.
         11    1    3    3    0    0 -0.16995806247E+02  0.44530543466E+02 -0.13996163184E+02  0.49676144328E+02  0.00000000000E+00 0. -1.
         21    1    1    2  502  501  0.31054039769E+02  0.30724983064E+02 -0.29876101759E+02  0.52924091174E+02  0.00000000000E+00 0. -1.
<scales pt_clust_5="13000.00000" pt_clust_6="13000.00000" pt_clust_7="13000.00000" pt_clust_8="13000.00000" pt_clust_9="43.68499"></scales>
<clustering>
<clus scale="   43.685">  1  9  2 -1</clus>
<clus scale="   85.882">  7  8 -1 -1</clus>
<clus scale="   92.685">  5  6 -1 -1</clus>
<clus scale="  118.694">  1  7  2 -1</clus>
<clus scale="  123.706">  2  5  1 -1</clus>
</clustering>
</event>
<event>
 9    1  0.1748361E-005  0.1690564E+03  0.7546771E-02  0.1182358E+00
          3   -1    0    0  502    0  0.00000000000E+00  0.00000000000E+00  0.15384846574E+03  0.15384846574E+03  0.00000000000E+00 0. -1.
         -3   -1    0    0    0  501 -0.00000000000E+00 -0.00000000000E+00 -0.40236434477E+03  0.40236434477E+03  0.00000000000E+00 0.  1.
         23    2    1    2    0    0 -0.10953768393E+03  0.50144666923E+02 -0.26422150993E+03  0.31139343106E+03  0.11242717989E+03 0.  0.
         23    2    1    2    0    0  0.10012189523E+03 -0.79340792414E+02  0.77781964192E+02  0.17557674825E+03  0.91966327126E+02 0.  0.
        -11    1    3    3    0    0  0.15338815156E+02  0.33370732756E+02 -0.40823355586E+02  0.54912943978E+02  0.00000000000E+00 0. -1.
         11    1    3    3    0    0 -0.12487649909E+03  0.16773934167E+02 -0.22339815434E+03  0.25648048708E+03  0.00000000000E+00 0.  1.
        -11    1    4    4    0    0  0.31716951136E+02 -0.78999622004E+02  0.62165920171E+02  0.10541113270E+03  0.00000000000E+00 0. -1.
         11    1    4    4    0    0  0.68404944098E+02 -0.34117041073E+00  0.15616044020E+02  0.70165615548E+02  0.00000000000E+00 0.  1.
         21    1    1    2  502  501  0.94157886948E+01  0.29196125491E+02 -0.62076333299E+02  0.69242631206E+02  0.00000000000E+00 0.  1.
<scales pt_clust_5="13000.00000" pt_clust_6="13000.00000" pt_clust_7="13000.00000" pt_clust_8="13000.00000" pt_clust_9="30.67688"></scales>
<clustering>
<clus scale="   30.677">  2  9  1 -1</clus>
<clus scale="   91.966">  7  8 -1 -1</clus>
<clus scale="  112.427">  5  6 -1 -1</clus>
<clus scale="  156.199">  1  7  2 -1</clus>
<clus scale="  156.199">  1  5  2 -1</clus>
</clustering>
</event>
<event>
 9    1  0.1748361E-005  0.9348971E+02  0.7546771E-02  0.1295406E+00
          3   -1    0    0  502    0  0.00000000000E+00  0.00000000000E+00  0.15486822065E+03  0.15486822065E+03  0.00000000000E+00 0. -1.
         -3   -1    0    0    0  501 -0.00000000000E+00 -0.00000000000E+00 -0.10043984656E+03  0.10043984656E+03  0.00000000000E+00 0.  1.
         23    2    1    2    0    0  0.60352450103E+01  0.21902059576E+02  0.47910564263E+01  0.95137959261E+02  0.92261328164E+02 0.  0.
         23    2    1    2    0    0 -0.18125705990E+02  0.29115754513E+01  0.77582529359E+02  0.12089122576E+03  0.90876955902E+02 0.  0.
        -11    1    4    4    0    0 -0.45612964326E+02 -0.61367379808E+01  0.96120383652E+01  0.47016947468E+02  0.00000000000E+00 0.  1.
         11    1    4    4    0    0  0.27487258336E+02  0.90483134321E+01  0.67970490994E+02  0.73874278289E+02  0.00000000000E+00 0. -1.
        -13    1    3    3    0    0 -0.24790374908E+01 -0.32040878658E+02 -0.16980990329E+02  0.36347180972E+02  0.00000000000E+00 0.  1.
         13    1    3    3    0    0  0.85142825011E+01  0.53942938234E+02  0.21772046755E+02  0.58790778288E+02  0.00000000000E+00 0. -1.
         21    1    1    2  502  501  0.12090460980E+02 -0.24813635027E+02 -0.27945211698E+02  0.39278882199E+02  0.00000000000E+00 0.  1.
<scales pt_clust_5="13000.00000" pt_clust_6="13000.00000" pt_clust_7="13000.00000" pt_clust_8="13000.00000" pt_clust_9="27.60246"></scales>
<clustering>
<clus scale="   27.602">  2  9  1 -1</clus>
<clus scale="   90.877">  5  6 -1 -1</clus>
<clus scale="   92.124">  1  5  2 -1</clus>
<clus scale="   92.261">  7  8 -1 -1</clus>
<clus scale="   92.124">  1  5  2 -1</clus>
</clustering>
</event>
<event>
 9    1  0.1748361E-005  0.1184746E+03  0.7546771E-02  0.1248860E+00
         -1   -1    0    0    0  501 -0.00000000000E+00  0.00000000000E+00  0.11107844748E+03  0.11107844748E+03  0.00000000000E+00 0.  1.
          1   -1    0    0  502    0  0.00000000000E+00 -0.00000000000E+00 -0.18235233859E+03  0.18235233859E+03  0.00000000000E+00 0. -1.
         23    2    1    2    0    0 -0.49491603295E+02  0.46776450391E+02 -0.27983804004E+02  0.11476871313E+03  0.88041519291E+02 0.  0.
         23    2    1    2    0    0  0.73697890491E+02 -0.87707573344E+01 -0.51736328292E+02  0.13281759635E+03  0.97239708904E+02 0.  0.
        -11    1    4    4    0    0  0.48454354322E+02  0.30810454795E+02 -0.62271216974E+02  0.84704268138E+02  0.00000000000E+00 0.  1.
         11    1    4    4    0    0  0.25243536169E+02 -0.39581212130E+02  0.10534888682E+02  0.48113328211E+02  0.00000000000E+00 0. -1.
        -13    1    3    3    0    0 -0.37951033283E+02 -0.78735847280E+01 -0.42031027723E+02  0.57174133620E+02  0.00000000000E+00 0. -1.
         13    1    3    3    0    0 -0.11540570011E+02  0.54650035119E+02  0.14047223719E+02  0.57594579510E+02  0.00000000000E+00 0.  1.
         21    1    1    2  502  501 -0.24206287196E+02 -0.38005693057E+02  0.84462411857E+01  0.45844476600E+02  0.00000000000E+00 0. -1.
<scales pt_clust_5="13000.00000" pt_clust_6="13000.00000" pt_clust_7="13000.00000" pt_clust_8="13000.00000" pt_clust_9="45.05971"></scales>
<clustering>
<clus scale="   45.060">  1  9  2 -1</clus>
<clus scale="   88.042">  7  8 -1 -1</clus>
<clus scale="   97.240">  5  6 -1 -1</clus>
<clus scale="  111.049">  1  7  2 -1</clus>
<clus scale="  118.475">  2  5  1 -1</clus>
</clustering>
</event>
<event>
 9    1  0.1748361E-005  0.1962367E+03  0.7546771E-02  0.1153112E+00
          1   -1    0    0  502    0  0.00000000000E+00  0.00000000000E+00  0.41468725200E+03  0.41468725200E+03  0.00000000000E+00 0. -1.
         -1   -1    0    0    0  501 -0.00000000000E+00 -0.00000000000E+00 -0.27511604152E+03  0.27511604152E+03  0.00000000000E+00 0.  1.
         23    2    1    2    0    0 -0.79660835728E+02  0.13389877742E+03  0.81552699334E+02  0.19871037343E+03  0.92521556388E+02 0.  0.
         23    2    1    2    0    0  0.13470143461E+03 -0.12829343624E+03  0.23001577367E+03  0.31041656389E+03  0.94061175456E+02 0.  0.
        -11    1    3    3    0    0 -0.86083332823E+02  0.89028978622E+02  0.25179522206E+02  0.12637447354E+03  0.00000000000E+00 0.  1.
         11    1    3    3    0    0  0.64224970952E+01  0.44869798800E+02  0.56373177129E+02  0.72335899890E+02  0.00000000000E+00 0. -1.
        -13    1    4    4    0    0  0.55164372650E+02 -0.82240202075E+02  0.56369894246E+02  0.11394789961E+03  0.00000000000E+00 0.  1.
         13    1    4    4    0    0  0.79537061956E+02 -0.46053234169E+02  0.17364587943E+03  0.19646866428E+03  0.00000000000E+00 0. -1.
         21    1    1    2  502  501 -0.55040598879E+02 -0.56053411777E+01 -0.17199726252E+03  0.18067635620E+03  0.00000000000E+00 0.  1.
<scales pt_clust_5="13000.00000" pt_clust_6="13000.00000" pt_clust_7="13000.00000" pt_clust_8="13000.00000" pt_clust_9="55.32529"></scales>
<clustering>
<clus scale="   55.325">  2  9  1 -1</clus>
<clus scale="   92.522">  5  6 -1 -1</clus>
<clus scale="   94.061">  7  8 -1 -1</clus>
<clus scale="  195.503">  2  5  1 -1</clus>
<clus scale="  196.237">  1  5  2 -1</clus>
</clustering>
</event>
<event>
 9    1  0.1748361E-005  0.1026197E+03  0.7546771E-02  0.1275673E+00
          4   -1    0    0  502    0  0.00000000000E+00  0.00000000000E+00  0.83214252923E+02  0.83214252923E+02  0.00000000000E+00 0. -1.
         -4   -1    0    0    0  501 -0.00000000000E+00 -0.00000000000E+00 -0.29878229598E+03  0.29878229598E+03  0.00000000000E+00 0.  1.
         23    2    1    2    0    0  0.58358148328E+02 -0.38871269248E+02 -0.16544343118E+03  0.20179073673E+03  0.91822238376E+02 0.  0.
         23    2    1    2    0    0 -0.41138328492E+02  0.58296340038E+01  0.19620095651E+02  0.10113245330E+03  0.90091499345E+02 0.  0.
        -13    1    4    4    0    0  0.27142988169E+02  0.52903691766E+01  0.17678072976E+02  0.32821396632E+02  0.00000000000E+00 0.  1.
         13    1    4    4    0    0 -0.68281316661E+02  0.53926482717E+00  0.19420226752E+01  0.68311056671E+02  0.00000000000E+00 0. -1.
        -13    1    3    3    0    0 -0.11635095922E+02  0.20618188220E+02 -0.33909719268E+02  0.41356428804E+02  0.00000000000E+00 0. -1.
         13    1    3    3    0    0  0.69993244250E+02 -0.59489457468E+02 -0.13153371191E+03  0.16043430793E+03  0.00000000000E+00 0.  1.
         21    1    1    2  502  501 -0.17219819836E+02  0.33041635244E+02 -0.69744707532E+02  0.79073358873E+02  0.00000000000E+00 0. -1.
<scales pt_clust_5="13000.00000" pt_clust_6="13000.00000" pt_clust_7="13000.00000" pt_clust_8="13000.00000" pt_clust_9="37.25952"></scales>
<clustering>
<clus scale="   37.260">  2  9  1 -1</clus>
<clus scale="   90.091">  5  6 -1 -1</clus>
<clus scale="   91.822">  7  8 -1 -1</clus>
<clus scale="  101.074">  1  5  2 -1</clus>
<clus scale="  101.074">  1  5  2 -1</clus>
</clustering>
</event>
<event>
 9    1  0.1748361E-005  0.1006666E+03  0.7546771E-02  0.1283221E+00
         -1   -1    0    0    0  501 -0.00000000000E+00  0.00000000000E+00  0.30966849922E+02  0.30966849922E+02  0.00000000000E+00 0.  1.
          1   -1    0    0  502    0  0.00000000000E+00 -0.00000000000E+00 -0.51214457157E+03  0.51214457157E+03  0.00000000000E+00 0. -1.
         23    2    1    2    0    0  0.22233811260E+02 -0.48877012040E+02 -0.20171463762E+03  0.22527410970E+03  0.84713191419E+02 0.  0.
         23    2    1    2    0    0 -0.16271102062E+02  0.21197297448E+02 -0.27163258122E+03  0.28845981573E+03  0.93331301971E+02 0.  0.
        -11    1    4    4    0    0  0.18092278923E+02 -0.19036013672E+02 -0.25150751305E+02  0.36362902309E+02  0.00000000000E+00 0.  1.
         11    1    4    4    0    0 -0.34363380985E+02  0.40233311120E+02 -0.24648182991E+03  0.25209691342E+03  0.00000000000E+00 0. -1.
        -11    1    3    3    0    0 -0.53334449758E+01 -0.65593465395E+02 -0.15620502699E+03  0.16950209083E+03  0.00000000000E+00 0.  1.
         11    1    3    3    0    0  0.27567256235E+02  0.16716453356E+02 -0.45509610637E+02  0.55772018875E+02  0.00000000000E+00 0. -1.
         21    1    1    2  502  501 -0.59627091973E+01  0.27679714592E+02 -0.78305028033E+01  0.29377496065E+02  0.00000000000E+00 0. -1.
<scales pt_clust_5="13000.00000" pt_clust_6="13000.00000" pt_clust_7="13000.00000" pt_clust_8="13000.00000" pt_clust_9="28.31467"></scales>
<clustering>
<clus scale="   28.315">  1  9  2 -1</clus>
<clus scale="   84.713">  7  8 -1 -1</clus>
<clus scale="   92.733">  1  7  2 -1</clus>
<clus scale="   93.331">  5  6 -1 -1</clus>
<clus scale="  100.667">  2  5  1 -1</clus>
</clustering>
</event>
<event>
 9    1  0.1748361E-005  0.1092324E+03  0.7546771E-02  0.1262005E+00
         -2   -1    0    0    0  501 -0.00000000000E+00  0.00000000000E+00  0.28538972355E+03  0.28538972355E+03  0.00000000000E+00 0.  1.
          2   -1    0    0  502    0  0.00000000000E+00 -0.00000000000E+00 -0.18528341582E+03  0.18528341582E+03  0.00000000000E+00 0. -1.
         23    2    1    2    0    0 -0.70457765477E+02  0.68005861335E+02 -0.23705470286E+02  0.13602097662E+03  0.91381961383E+02 0.  0.
         23    2    1    2    0    0  0.33274712845E+02 -0.27049277554E+02 -0.76610060079E+02  0.12673647229E+03  0.91401105966E+02 0.  0.
        -13    1    3    3    0    0 -0.51102345032E+02  0.83689960184E+02 -0.40375825860E+02  0.10604558651E+03  0.00000000000E+00 0.  1.
         13    1    3    3    0    0 -0.19355420445E+02 -0.15684098849E+02  0.16670355574E+02  0.29975390110E+02  0.00000000000E+00 0. -1.
        -13    1    4    4    0    0  0.56841107849E+02 -0.44030031912E+02 -0.55518618974E+02  0.90839816735E+02  0.00000000000E+00 0. -1.
         13    1    4    4    0    0 -0.23566395005E+02  0.16980754358E+02 -0.21091441104E+02  0.35896655554E+02  0.00000000000E+00 0.  1.
         21    1    1    2  502  501  0.37183052632E+02 -0.40956583781E+02  0.20042183810E+03  0.20791569047E+03  0.00000000000E+00 0.  1.
<scales pt_clust_5="13000.00000" pt_clust_6="13000.00000" pt_clust_7="13000.00000" pt_clust_8="13000.00000" pt_clust_9="55.31746"></scales>
<clustering>
<clus scale="   55.317">  1  9  2 -1</clus>
<clus scale="   91.382">  5  6 -1 -1</clus>
<clus scale="   91.401">  7  8 -1 -1</clus>
<clus scale="  109.216">  1  5  2 -1</clus>
<clus scale="  109.232">  2  5  1 -1</clus>
</clustering>
</event>
<event>
 9    1  0.1748361E-005  0.9507134E+02  0.7546771E-02  0.1291602E+00
         -1   -1    0    0    0  501 -0.00000000000E+00  0.00000000000E+00  0.44470136256E+02  0.44470136256E+02  0.00000000000E+00 0.  1.
          1   -1    0    0  502    0  0.00000000000E+00 -0.00000000000E+00 -0.39968214398E+03  0.39968214398E+03  0.00000000000E+00 0. -1.
         23    2    1    2    0    0  0.25274355400E+02 -0.26086550284E+02 -0.15195217193E+03  0.18126402097E+03  0.91912358245E+02 0.  0.
         23    2    1    2    0    0 -0.14295916318E+02 -0.74023611489E+01 -0.20695759379E+03  0.22745230679E+03  0.92972781299E+02 0.  0.
        -11    1    3    3    0    0  0.41219956873E+01 -0.58716861554E+02 -0.10425760164E+03  0.11972597120E+03  0.00000000000E+00 0. -1.
         11    1    3    3    0    0  0.21152359713E+02  0.32630311270E+02 -0.47694570290E+02  0.61538049776E+02  0.00000000000E+00 0.  1.
        -13    1    4    4    0    0 -0.39750295635E+02 -0.71521533421E+01 -0.19533868310E+03  0.19947039985E+03  0.00000000000E+00 0. -1.
         13    1    4    4    0    0  0.25454379317E+02 -0.25020780687E+00 -0.11618910689E+02  0.27981906939E+02  0.00000000000E+00 0.  1.
         21    1    1    2  502  501 -0.10978439082E+02  0.33488911433E+02  0.36977579951E+01  0.35435952475E+02  0.00000000000E+00 0.  1.
<scales pt_clust_5="13000.00000" pt_clust_6="13000.00000" pt_clust_7="13000.00000" pt_clust_8="13000.00000" pt_clust_9="35.24249"></scales>
<clustering>
<clus scale="   35.242">  1  9  2 -1</clus>
<clus scale="   91.912">  5  6 -1 -1</clus>
<clus scale="   92.973">  7  8 -1 -1</clus>
<clus scale="   94.035">  1  5  2 -1</clus>
<clus scale="   95.071">  2  5  1 -1</clus>
</clustering>
</event>
<event>
 9    1  0.1748361E-005  0.2559662E+03  0.7546771E-02  0.1109677E+00
          2   -1    0    0  502    0  0.00000000000E+00  0.00000000000E+00  0.12166330510E+04  0.12166330510E+04  0.00000000000E+00 0. -1.
         -2   -1    0    0    0  501 -0.00000000000E+00 -0.00000000000E+00 -0.12723014376E+03  0.12723014376E+03  0.00000000000E+00 0.  1.
         23    2    1    2    0    0 -0.25185833733E+03 -0.81502253102E+02  0.29735745732E+03  0.40787951615E+03  0.88707400628E+02 0.  0.
         23    2    1    2    0    0  0.21250686379E+03  0.91999375020E+02  0.83828995912E+03  0.87436158298E+03  0.90305426514E+02 0.  0.
        -11    1    3    3    0    0 -0.44406567838E+02  0.19145032474E+02  0.45195556249E+02  0.66189982930E+02  0.00000000000E+00 0.  1.
         11    1    3    3    0    0 -0.20745176949E+03 -0.10064728558E+03  0.25216190107E+03  0.34168953322E+03  0.00000000000E+00 0. -1.
        -13    1    4    4    0    0  0.11487952085E+03  0.38369887883E+02  0.28007603601E+03  0.30514281665E+03  0.00000000000E+00 0.  1.
         13    1    4    4    0    0  0.97627342940E+02  0.53629487137E+02  0.55821392312E+03  0.56921876633E+03  0.00000000000E+00 0. -1.
         21    1    1    2  502  501  0.39351473538E+02 -0.10497121919E+02 -0.46244509210E+02  0.61622095634E+02  0.00000000000E+00 0.  1.
<scales pt_clust_5="13000.00000" pt_clust_6="13000.00000" pt_clust_7="13000.00000" pt_clust_8="13000.00000" pt_clust_9="40.72749"></scales>
<clustering>
<clus scale="   40.727">  2  9  1 -1</clus>
<clus scale="   88.707">  5  6 -1 -1</clus>
<clus scale="   90.305">  7  8 -1 -1</clus>
<clus scale="  255.407">  2  5  1 -1</clus>
<clus scale="  255.966">  1  5  2 -1</clus>
</clustering>
</event>
<event>
 9    1  0.1748361E-005  0.9283133E+02  0.7546771E-02  0.1296767E+00
         -1   -1    0    0    0  501 -0.00000000000E+00  0.00000000000E+00  0.21535635620E+03  0.21535635620E+03  0.00000000000E+00 0.  1.
          1   -1    0    0  502    0  0.00000000000E+00 -0.00000000000E+00 -0.15610917632E+03  0.15610917632E+03  0.00000000000E+00 0. -1.
         23    2    1    2    0    0 -0.74688119655E+01  0.40247326996E+02  0.91506545435E+02  0.13444369272E+03  0.89588102851E+02 0.  0.
         23    2    1    2    0    0  0.92194354331E+01 -0.14434803924E+02 -0.11665394479E+03  0.14875068916E+03  0.90693236433E+02 0.  0.
        -13    1    4    4    0    0 -0.18369185948E+02  0.32654578231E+02 -0.42128627239E+02  0.56378805458E+02  0.00000000000E+00 0.  1.
         13    1    4    4    0    0  0.27588621381E+02 -0.47089382155E+02 -0.74525317554E+02  0.92371883698E+02  0.00000000000E+00 0. -1.
        -13    1    3    3    0    0 -0.46507083807E+02  0.68368553585E+01  0.40596971348E+02  0.62110913035E+02  0.00000000000E+00 0. -1.
         13    1    3    3    0    0  0.39038271841E+02  0.33410471638E+02  0.50909574087E+02  0.72332779686E+02  0.00000000000E+00 0.  1.
         21    1    1    2  502  501 -0.17506234676E+01 -0.25812523072E+02  0.84394579240E+02  0.88271150638E+02  0.00000000000E+00 0.  1.
<scales pt_clust_5="13000.00000" pt_clust_6="13000.00000" pt_clust_7="13000.00000" pt_clust_8="13000.00000" pt_clust_9="25.87182"></scales>
<clustering>
<clus scale="   25.872">  1  9  2 -1</clus>
<clus scale="   89.588">  7  8 -1 -1</clus>
<clus scale="   90.693">  5  6 -1 -1</clus>
<clus scale="   91.752">  1  7  2 -1</clus>
<clus scale="   92.831">  2  5  1 -1</clus>
</clustering>
</event>
<event>
 9    1  0.1748361E-005  0.9460353E+02  0.7546771E-02  0.1292834E+00
         -1   -1    0    0    0  501 -0.00000000000E+00  0.00000000000E+00  0.79362060688E+02  0.79362060688E+02  0.00000000000E+00 0.  1.
          1   -1    0    0  502    0  0.00000000000E+00 -0.00000000000E+00 -0.29998324451E+03  0.29998324451E+03  0.00000000000E+00 0. -1.
         23    2    1    2    0    0 -0.23038082938E+02  0.32443761073E+02 -0.34057532302E+02  0.10614673072E+03  0.92324763949E+02 0.  0.
         23    2    1    2    0    0  0.11244385261E+02 -0.10985503600E+02 -0.21600819761E+03  0.23490328216E+03  0.90955445373E+02 0.  0.
        -11    1    3    3    0    0 -0.46667690662E+02  0.43536402474E+02 -0.44739725425E+02  0.77941867588E+02  0.00000000000E+00 0.  1.
         11    1    3    3    0    0  0.23629607723E+02 -0.11092641401E+02  0.10682193123E+02  0.28204863133E+02  0.00000000000E+00 0. -1.
        -13    1    4    4    0    0  0.39964174832E+02  0.21864908611E+02 -0.14042259035E+03  0.14762693989E+03  0.00000000000E+00 0. -1.
         13    1    4    4    0    0 -0.28719789571E+02 -0.32850412211E+02 -0.75585607259E+02  0.87276342270E+02  0.00000000000E+00 0.  1.
         21    1    1    2  502  501  0.11793697678E+02 -0.21458257473E+02  0.29444546097E+02  0.38295292316E+02  0.00000000000E+00 0. -1.
<scales pt_clust_5="13000.00000" pt_clust_6="13000.00000" pt_clust_7="13000.00000" pt_clust_8="13000.00000" pt_clust_9="24.48567"></scales>
<clustering>
<clus scale="   24.486">  1  9  2 -1</clus>
<clus scale="   90.955">  7  8 -1 -1</clus>
<clus scale="   92.325">  5  6 -1 -1</clus>
<clus scale="   93.268">  2  7  1 -1</clus>
<clus scale="   93.268">  2  5  1 -1</clus>
</clustering>
</event>
<event>
 9    1  0.1748361E-005  0.2389957E+03  0.7546771E-02  0.1120811E+00
          2   -1    0    0  502    0  0.00000000000E+00  0.00000000000E+00  0.62937976775E+03  0.62937976775E+03  0.00000000000E+00 0. -1.
         -2   -1    0    0    0  501 -0.00000000000E+00 -0.00000000000E+00 -0.19305684597E+03  0.19305684597E+03  0.00000000000E+00 0.  1.
         23    2    1    2    0    0  0.14822978112E+03 -0.68618179164E+02  0.79808990793E+01  0.19038085597E+03  0.97471293459E+02 0.  0.
         23    2    1    2    0    0 -0.17642462825E+03  0.16398436344E+03  0.46026115009E+03  0.52761204467E+03  0.92290966493E+02 0.  0.
        -11    1    4    4    0    0 -0.14342348795E+03  0.14464491396E+03  0.43874667638E+03  0.48372625943E+03  0.00000000000E+00 0. -1.
         11    1    4    4    0    0 -0.33001140298E+02  0.19339449479E+02  0.21514473710E+02  0.43885785240E+02  0.00000000000E+00 0.  1.
        -13    1    3    3    0    0  0.14011919637E+03 -0.33789745609E+02  0.31554781440E+02  0.14754945046E+03  0.00000000000E+00 0. -1.
         13    1    3    3    0    0  0.81105847532E+01 -0.34828433555E+02 -0.23573882361E+02  0.42831405516E+02  0.00000000000E+00 0.  1.
         21    1    1    2  502  501  0.28194847128E+02 -0.95366184277E+02 -0.31919127386E+02  0.10444371308E+03  0.00000000000E+00 0. -1.
<scales pt_clust_5="13000.00000" pt_clust_6="13000.00000" pt_clust_7="13000.00000" pt_clust_8="13000.00000" pt_clust_9="99.44676"></scales>
<clustering>
<clus scale="   92.291">  5  6 -1 -1</clus>
<clus scale="   97.471">  7  8 -1 -1</clus>
<clus scale="   99.447">  2  9  1 -1</clus>
<clus scale="  236.930">  1  5  2 -1</clus>
<clus scale="  236.930">  1  5  2 -1</clus>
</clustering>
</event>
<event>
 9    1  0.1748361E-005  0.1571102E+03  0.7546771E-02  0.1216565E+00
          2   -1    0    0  502    0  0.00000000000E+00  0.00000000000E+00  0.89156808820E+03  0.89156808820E+03  0.00000000000E+00 0. -1.
         -2   -1    0    0    0  501 -0.00000000000E+00 -0.00000000000E+00 -0.63186500134E+02  0.63186500134E+02  0.00000000000E+00 0.  1.
         23    2    1    2    0    0  0.92417888243E+02  0.71893317964E+02  0.39324708325E+03  0.42000028950E+03  0.89706518487E+02 0.  0.
         23    2    1    2    0    0 -0.16345342546E+01  0.24119134442E+02  0.38081580218E+03  0.39188887323E+03  0.89284989907E+02 0.  0.
        -13    1    3    3    0    0  0.60815182811E+02  0.35855486033E+02  0.34441041593E+03  0.35157166686E+03  0.00000000000E+00 0.  1.
         13    1    3    3    0    0  0.31602705432E+02  0.36037831931E+02  0.48836667317E+02  0.68428622634E+02  0.00000000000E+00 0. -1.
        -13    1    4    4    0    0 -0.30194709431E+02  0.44470219418E+02  0.17375909914E+03  0.18188332916E+03  0.00000000000E+00 0.  1.
         13    1    4    4    0    0  0.28560175177E+02 -0.20351084976E+02  0.20705670303E+03  0.21000554406E+03  0.00000000000E+00 0. -1.
         21    1    1    2  502  501 -0.90783353988E+02 -0.96012452406E+02  0.54318702641E+02  0.14286542561E+03  0.00000000000E+00 0.  1.
<scales pt_clust_5="13000.00000" pt_clust_6="13000.00000" pt_clust_7="13000.00000" pt_clust_8="13000.00000" pt_clust_9="128.98199"></scales>
<clustering>
<clus scale="   89.285">  7  8 -1 -1</clus>
<clus scale="   89.707">  5  6 -1 -1</clus>
<clus scale="   92.500">  1  7  2 -1</clus>
<clus scale="  128.982">  2  9  1 -1</clus>
<clus scale="   92.500">  1  5  2 -1</clus>
</clustering>
</event>
<event>
 9    1  0.1748361E-005  0.1428335E+03  0.7546771E-02  0.1216006E+00
         -2   -1    0    0    0  501 -0.00000000000E+00  0.00000000000E+00  0.21055184521E+03  0.21055184521E+03  0.00000000000E+00 0.  1.
          2   -1    0    0  502    0  0.00000000000E+00 -0.00000000000E+00 -0.65487401768E+03  0.65487401768E+03  0.00000000000E+00 0. -1.
         23    2    1    2    0    0  0.10974403403E+02  0.94957410897E+02  0.11282571484E+03  0.17407848741E+03  0.91849498844E+02 0.  0.
         23    2    1    2    0    0  0.12591143441E+02 -0.82714394056E+02 -0.61307757675E+03  0.62943326866E+03  0.11542060780E+03 0.  0.
        -11    1    4    4    0    0 -0.32013418930E+02  0.14383696872E+02 -0.12784356246E+03  0.13257347468E+03  0.00000000000E+00 0.  1.
         11    1    4    4    0    0  0.44604562371E+02 -0.97098090928E+02 -0.48523401429E+03  0.49685979398E+03  0.00000000000E+00 0. -1.
        -13    1    3    3    0    0 -0.38909014197E+02  0.26819874411E+02  0.31172480066E+02  0.56612194470E+02  0.00000000000E+00 0.  1.
         13    1    3    3    0    0  0.49883417600E+02  0.68137536486E+02  0.81653234769E+02  0.11746629294E+03  0.00000000000E+00 0. -1.
         21    1    1    2  502  501 -0.23565546844E+02 -0.12243016842E+02  0.55929689449E+02  0.61914106803E+02  0.00000000000E+00 0.  1.
<scales pt_clust_5="13000.00000" pt_clust_6="13000.00000" pt_clust_7="13000.00000" pt_clust_8="13000.00000" pt_clust_9="26.55610"></scales>
<clustering>
<clus scale="   26.556">  1  9  2 -1</clus>
<clus scale="   91.849">  7  8 -1 -1</clus>
<clus scale="  115.421">  5  6 -1 -1</clus>
<clus scale="  124.563">  1  7  2 -1</clus>
<clus scale="  142.833">  2  5  1 -1</clus>
</clustering>
</event>
<event>
 9    1  0.1748361E-005  0.1098961E+03  0.7546771E-02  0.1261564E+00
         -1   -1    0    0    0  501 -0.00000000000E+00  0.00000000000E+00  0.44752111567E+02  0.44752111567E+02  0.00000000000E+00 0.  1.
          1   -1    0    0  502    0  0.00000000000E+00 -0.00000000000E+00 -0.35627087370E+03  0.35627087370E+03  0.00000000000E+00 0. -1.
         23    2    1    2    0    0 -0.65420324258E+02 -0.78321619960E+01 -0.13560648243E+03  0.17678396837E+03  0.92316259730E+02 0.  0.
         23    2    1    2    0    0  0.54671024995E+02 -0.16077111406E+02 -0.16342676225E+03  0.19520302310E+03  0.90269148237E+02 0.  0.
        -11    1    3    3    0    0 -0.42282816326E+02 -0.37915343688E+02 -0.29298520390E+02  0.63904719234E+02  0.00000000000E+00 0.  1.
         11    1    3    3    0    0 -0.23137507933E+02  0.30083181692E+02 -0.10630796204E+03  0.11287924914E+03  0.00000000000E+00 0. -1.
        -13    1    4    4    0    0  0.75470534311E+02 -0.27683170444E+02 -0.14194970484E+03  0.16313147513E+03  0.00000000000E+00 0.  1.
         13    1    4    4    0    0 -0.20799509316E+02  0.11606059038E+02 -0.21477057417E+02  0.32071547974E+02  0.00000000000E+00 0. -1.
         21    1    1    2  502  501  0.10749299263E+02  0.23909273402E+02 -0.12485517458E+02  0.29035993792E+02  0.00000000000E+00 0. -1.
<scales pt_clust_5="13000.00000" pt_clust_6="13000.00000" pt_clust_7="13000.00000" pt_clust_8="13000.00000" pt_clust_9="26.21451"></scales>
<clustering>
<clus scale="   26.215">  1  9  2 -1</clus>
<clus scale="   90.269">  7  8 -1 -1</clus>
<clus scale="   92.316">  5  6 -1 -1</clus>
<clus scale="  108.182">  2  7  1 -1</clus>
<clus scale="  108.182">  2  5  1 -1</clus>
</clustering>
</event>
<event>
 9    1  0.1748361E-005  0.1109645E+03  0.7546771E-02  0.1259288E+00
         -3   -1    0    0    0  501 -0.00000000000E+00  0.00000000000E+00  0.12183837455E+03  0.12183837455E+03  0.00000000000E+00 0.  1.
          3   -1    0    0  502    0  0.00000000000E+00 -0.00000000000E+00 -0.35107658615E+03  0.35107658615E+03  0.00000000000E+00 0. -1.
         23    2    1    2    0    0  0.81854623884E+02 -0.49637136992E+02 -0.95601171040E+02  0.16312827713E+03  0.91143985412E+02 0.  0.
         23    2    1    2    0    0 -0.52911723353E+02  0.50177902212E+01 -0.19948536984E+03  0.22514284111E+03  0.89833498412E+02 0.  0.
        -11    1    3    3    0    0  0.77220971928E+01 -0.19642157269E+02 -0.78581490130E+02  0.81366428693E+02  0.00000000000E+00 0. -1.
         11    1    3    3    0    0  0.74132526692E+02 -0.29994979723E+02 -0.17019680910E+02  0.81761848441E+02  0.00000000000E+00 0.  1.
        -13    1    4    4    0    0  0.23409141993E+02 -0.64148143557E+01 -0.27765823253E+02  0.36879245016E+02  0.00000000000E+00 0.  1.
         13    1    4    4    0    0 -0.76320865347E+02  0.11432604577E+02 -0.17171954659E+03  0.18826359609E+03  0.00000000000E+00 0. -1.
         21    1    1    2  502  501 -0.28942900531E+02  0.44619346771E+02  0.65848329272E+02  0.84643842453E+02  0.00000000000E+00 0.  1.
<scales pt_clust_5="13000.00000" pt_clust_6="13000.00000" pt_clust_7="13000.00000" pt_clust_8="13000.00000" pt_clust_9="53.18437"></scales>
<clustering>
<clus scale="   53.184">  1  9  2 -1</clus>
<clus scale="   89.833">  7  8 -1 -1</clus>
<clus scale="   91.144">  5  6 -1 -1</clus>
<clus scale="  109.891">  2  7  1 -1</clus>
<clus scale="  109.891">  2  5  1 -1</clus>
</clustering>
</event>
<event>
 9    1  0.1748361E-005  0.1071555E+03  0.7546771E-02  0.1266438E+00
         -1   -1    0    0    0  501 -0.00000000000E+00  0.00000000000E+00  0.18588584359E+03  0.18588584359E+03  0.00000000000E+00 0.  1.
          1   -1    0    0  502    0  0.00000000000E+00 -0.00000000000E+00 -0.24344227503E+03  0.24344227503E+03  0.00000000000E+00 0. -1.
         23    2    1    2    0    0 -0.39000271317E+02 -0.10883836747E+03  0.37253051190E+02  0.15263741631E+03  0.92431486181E+02 0.  0.
         23    2    1    2    0    0  0.30027799677E+01  0.44669656802E+02 -0.15246353284E+03  0.18321646886E+03  0.91207185506E+02 0.  0.
        -11    1    4    4    0    0  0.13923919041E+02 -0.20281088641E+02 -0.86778786023E+02  0.90198424496E+02  0.00000000000E+00 0.  1.
         11    1    4    4    0    0 -0.10921139074E+02  0.64950745444E+02 -0.65684746820E+02  0.93018044364E+02  0.00000000000E+00 0. -1.
        -11    1    3    3    0    0  0.19505783157E+01 -0.73796353651E+02 -0.17435971426E+02  0.75853277237E+02  0.00000000000E+00 0. -1.
         11    1    3    3    0    0 -0.40950849633E+02 -0.35042013820E+02  0.54689022616E+02  0.76784139071E+02  0.00000000000E+00 0.  1.
         21    1    1    2  502  501  0.35997491350E+02  0.64168710669E+02  0.57654050218E+02  0.93474233449E+02  0.00000000000E+00 0.  1.
<scales pt_clust_5="13000.00000" pt_clust_6="13000.00000" pt_clust_7="13000.00000" pt_clust_8="13000.00000" pt_clust_9="73.57610"></scales>
<clustering>
<clus scale="   73.576">  1  9  2 -1</clus>
<clus scale="   91.207">  5  6 -1 -1</clus>
<clus scale="   92.431">  7  8 -1 -1</clus>
<clus scale="  106.101">  2  5  1 -1</clus>
<clus scale="  106.101">  2  5  1 -1</clus>
</clustering>
</event>
<event>
 9    1  0.1748361E-005  0.1148756E+03  0.7546771E-02  0.1252385E+00
         -1   -1    0    0    0  501 -0.00000000000E+00  0.00000000000E+00  0.24371472571E+03  0.24371472571E+03  0.00000000000E+00 0.  1.
          1   -1    0    0  502    0  0.00000000000E+00 -0.00000000000E+00 -0.13632138857E+03  0.13632138857E+03  0.00000000000E+00 0. -1.
         23    2    1    2    0    0  0.20044293031E+02 -0.55309504373E+02  0.27419231704E+02  0.11024095671E+03  0.89108581580E+02 0.  0.
         23    2    1    2    0    0 -0.15917521411E+02  0.75217132217E+02 -0.56571532322E+02  0.13174424275E+03  0.90803208989E+02 0.  0.
        -11    1    3    3    0    0  0.30022736032E+02 -0.76681423166E+02  0.26959088231E+02  0.86649857333E+02  0.00000000000E+00 0.  1.
         11    1    3    3    0    0 -0.99784430012E+01  0.21371918793E+02  0.46014347345E+00  0.23591099373E+02  0.00000000000E+00 0. -1.
        -11    1    4    4    0    0  0.28960227855E+02  0.31876611318E+02  0.58816763224E+01  0.43467312580E+02  0.00000000000E+00 0.  1.
         11    1    4    4    0    0 -0.44877749266E+02  0.43340520899E+02 -0.62453208644E+02  0.88276930174E+02  0.00000000000E+00 0. -1.
         21    1    1    2  502  501 -0.41267716198E+01 -0.19907627844E+02  0.13654563776E+03  0.13805091481E+03  0.00000000000E+00 0.  1.
<scales pt_clust_5="13000.00000" pt_clust_6="13000.00000" pt_clust_7="13000.00000" pt_clust_8="13000.00000" pt_clust_9="20.33086"></scales>
<clustering>
<clus scale="   20.331">  1  9  2 -1</clus>
<clus scale="   89.109">  5  6 -1 -1</clus>
<clus scale="   90.803">  7  8 -1 -1</clus>
<clus scale="  113.541">  1  5  2 -1</clus>
<clus scale="  114.876">  2  5  1 -1</clus>
</clustering>
</event>
<event>
 9    1  0.1748361E-005  0.1126945E+03  0.7546771E-02  0.1256791E+00
         -1   -1    0    0    0  501 -0.00000000000E+00  0.00000000000E+00  0.52283047780E+02  0.52283047780E+02  0.00000000000E+00 0.  1.
          1   -1    0    0  502    0  0.00000000000E+00 -0.00000000000E+00 -0.30816815215E+03  0.30816815215E+03  0.00000000000E+00 0. -1.
         23    2    1    2    0    0 -0.72889454690E+02 -0.24638219701E+02 -0.94952207164E+02  0.15253037012E+03  0.91267067924E+02 0.  0.
         23    2    1    2    0    0  0.54656850310E+02  0.74570280546E+01 -0.11134700986E+03  0.15236561914E+03  0.88171121909E+02 0.  0.
        -11    1    3    3    0    0 -0.65380575117E+02  0.16085500542E+02 -0.26155196418E+02  0.72231968199E+02  0.00000000000E+00 0.  1.
         11    1    3    3    0    0 -0.75088795735E+01 -0.40723720243E+02 -0.68797010746E+02  0.80298401917E+02  0.00000000000E+00 0. -1.
        -11    1    4    4    0    0  0.93392424340E+01  0.38046442329E+02 -0.80652110244E+02  0.89663348755E+02  0.00000000000E+00 0.  1.
         11    1    4    4    0    0  0.45317607876E+02 -0.30589414275E+02 -0.30694899614E+02  0.62702270386E+02  0.00000000000E+00 0. -1.
         21    1    1    2  502  501  0.18232604380E+02  0.17181191647E+02 -0.49585887348E+02  0.55555210674E+02  0.00000000000E+00 0. -1.
<scales pt_clust_5="13000.00000" pt_clust_6="13000.00000" pt_clust_7="13000.00000" pt_clust_8="13000.00000" pt_clust_9="25.05237"></scales>
<clustering>
<clus scale="   25.052">  2  9  1 -1</clus>
<clus scale="   88.171">  7  8 -1 -1</clus>
<clus scale="   91.267">  5  6 -1 -1</clus>
<clus scale="  110.202">  2  7  1 -1</clus>
<clus scale="   25.052">  2  5  1 -1</clus>
</clustering>
</event>
<event>
 9    1  0.1748361E-005  0.2622277E+03  0.7546771E-02  0.1106068E+00
         -1   -1    0    0    0  501 -0.00000000000E+00  0.00000000000E+00  0.91501911575E+02  0.91501911575E+02  0.00000000000E+00 0.  1.
          1   -1    0    0  502    0  0.00000000000E+00 -0.00000000000E+00 -0.10570476412E+04  0.10570476412E+04  0.00000000000E+00 0. -1.
         23    2    1    2    0    0 -0.25609295152E+03  0.47538154158E+02 -0.42551772614E+03  0.50811504050E+03  0.96291657008E+02 0.  0.
         23    2    1    2    0    0  0.22708734924E+03 -0.52963017788E+02 -0.55383995174E+03  0.60785347451E+03  0.91506332545E+02 0.  0.
        -11    1    4    4    0    0  0.11124631429E+03 -0.47401558855E+02 -0.18334887606E+03  0.21963483461E+03  0.00000000000E+00 0. -1.
         11    1    4    4    0    0  0.11584103495E+03 -0.55614589337E+01 -0.37049107568E+03  0.38821863990E+03  0.00000000000E+00 0.  1.
        -13    1    3    3    0    0 -0.24003720393E+03  0.69888455057E+02 -0.38847445373E+03  0.46196824200E+03  0.00000000000E+00 0.  1.
         13    1    3    3    0    0 -0.16055747588E+02 -0.22350300898E+02 -0.37043272411E+02  0.46146798500E+02  0.00000000000E+00 0. -1.
         21    1    1    2  502  501  0.29005602274E+02  0.54248636301E+01  0.13811948235E+02  0.32581037779E+02  0.00000000000E+00 0. -1.
<scales pt_clust_5="13000.00000" pt_clust_6="13000.00000" pt_clust_7="13000.00000" pt_clust_8="13000.00000" pt_clust_9="29.50854"></scales>
<clustering>
<clus scale="   29.509">  1  9  2 -1</clus>
<clus scale="   91.506">  5  6 -1 -1</clus>
<clus scale="   96.292">  7  8 -1 -1</clus>
<clus scale="  260.509">  2  5  1 -1</clus>
<clus scale="  260.509">  2  5  1 -1</clus>
</clustering>
</event>
<event>
 9    1  0.1748361E-005  0.1003286E+03  0.7546771E-02  0.1279719E+00
          1   -1    0    0  502    0  0.00000000000E+00  0.00000000000E+00  0.24668185919E+03  0.24668185919E+03  0.00000000000E+00 0. -1.
         -1   -1    0    0    0  501 -0.00000000000E+00 -0.00000000000E+00 -0.50246695583E+02  0.50246695583E+02  0.00000000000E+00 0.  1.
         23    2    1    2    0    0 -0.47953749372E+01 -0.49898292887E+02  0.73219604877E+02  0.12652599636E+03  0.90193580491E+02 0.  0.
         23    2    1    2    0    0 -0.10139284080E+02  0.36506360059E+02  0.10383756612E+03  0.14251179826E+03  0.89954728046E+02 0.  0.
        -11    1    3    3    0    0  0.39598329129E+02 -0.70105980457E+01  0.19478995989E+02  0.44683413472E+02  0.00000000000E+00 0.  1.
         11    1    3    3    0    0 -0.44393704066E+02 -0.42887694842E+02  0.53740608888E+02  0.81842582884E+02  0.00000000000E+00 0. -1.
        -13    1    4    4    0    0 -0.68065085547E+01 -0.28745956612E+02  0.17841912203E+02  0.34510757907E+02  0.00000000000E+00 0. -1.
         13    1    4    4    0    0 -0.33327755252E+01  0.65252316672E+02  0.85995653919E+02  0.10800104035E+03  0.00000000000E+00 0.  1.
         21    1    1    2  502  501  0.14934659017E+02  0.13391932828E+02  0.19377992611E+02  0.27890760163E+02  0.00000000000E+00 0.  1.
<scales pt_clust_5="13000.00000" pt_clust_6="13000.00000" pt_clust_7="13000.00000" pt_clust_8="13000.00000" pt_clust_9="20.05961"></scales>
<clustering>
<clus scale="   20.060">  1  9  2 -1</clus>
<clus scale="   89.955">  7  8 -1 -1</clus>
<clus scale="   90.194">  5  6 -1 -1</clus>
<clus scale="  100.114">  1  7  2 -1</clus>
<clus scale="   20.060">  1  5  2 -1</clus>
</clustering>
</event>
<event>
 9    1  0.1748361E-005  0.1030323E+03  0.7546771E-02  0.1274324E+00
         -1   -1    0    0    0  501 -0.00000000000E+00  0.00000000000E+00  0.66287156236E+02  0.66287156236E+02  0.00000000000E+00 0.  1.
          1   -1    0    0  502    0  0.00000000000E+00 -0.00000000000E+00 -0.30293931303E+03  0.30293931303E+03  0.00000000000E+00 0. -1.
         23    2    1    2    0    0  0.50061447005E+02  0.44752769943E+01 -0.57060120497E+02  0.11931378873E+03  0.91944256210E+02 0.  0.
         23    2    1    2    0    0 -0.30184340694E+02 -0.39992716398E+02 -0.18138817801E+03  0.20917186584E+03  0.91327359252E+02 0.  0.
        -11    1    3    3    0    0 -0.11848238715E+02  0.30521478530E+02 -0.26002444419E+01  0.32843609477E+02  0.00000000000E+00 0. -1.
         11    1    3    3    0    0  0.61909685721E+02 -0.26046201536E+02 -0.54459876055E+02  0.86470179255E+02  0.00000000000E+00 0.  1.
        -11    1    4    4    0    0 -0.42793329404E+02  0.15697645172E+02 -0.98312355053E+02  0.10836514320E+03  0.00000000000E+00 0. -1.
         11    1    4    4    0    0  0.12608988711E+02 -0.55690361570E+02 -0.83075822961E+02  0.10080672264E+03  0.00000000000E+00 0.  1.
         21    1    1    2  502  501 -0.19877106312E+02  0.35517439404E+02  0.17961417134E+01  0.40740814697E+02  0.00000000000E+00 0. -1.
<scales pt_clust_5="13000.00000" pt_clust_6="13000.00000" pt_clust_7="13000.00000" pt_clust_8="13000.00000" pt_clust_9="40.70120"></scales>
<clustering>
<clus scale="   40.701">  1  9  2 -1</clus>
<clus scale="   91.327">  7  8 -1 -1</clus>
<clus scale="   91.944">  5  6 -1 -1</clus>
<clus scale="  102.482">  2  7  1 -1</clus>
<clus scale="  102.482">  2  5  1 -1</clus>
</clustering>
</event>
<event>
 9    1  0.1748361E-005  0.1365848E+03  0.7546771E-02  0.1218182E+00
          1   -1    0    0  502    0  0.00000000000E+00  0.00000000000E+00  0.12824128429E+03  0.12824128429E+03  0.00000000000E+00 0. -1.
         -1   -1    0    0    0  501 -0.00000000000E+00 -0.00000000000E+00 -0.17577111377E+03  0.17577111377E+03  0.00000000000E+00 0.  1.
         23    2    1    2    0    0  0.33753665926E+02 -0.10877881856E+03 -0.34906801031E+02  0.15028463610E+03  0.91623390892E+02 0.  0.
         23    2    1    2    0    0 -0.25986919154E+02  0.87042612412E+02 -0.59906760333E+01  0.12971166088E+03  0.92398541256E+02 0.  0.
        -13    1    4    4    0    0 -0.19279741628E+02 -0.13114381722E+02 -0.16815805927E+02  0.28748335154E+02  0.00000000000E+00 0. -1.
         13    1    4    4    0    0 -0.67071775264E+01  0.10015699413E+03  0.10825129893E+02  0.10096332573E+03  0.00000000000E+00 0.  1.
        -13    1    3    3    0    0  0.10872991080E+01 -0.53428862411E+02  0.28017616123E+02  0.60339144600E+02  0.00000000000E+00 0. -1.
         13    1    3    3    0    0  0.32666366818E+02 -0.55349956146E+02 -0.62924417154E+02  0.89945491498E+02  0.00000000000E+00 0.  1.
         21    1    1    2  502  501 -0.77667467724E+01  0.21736206145E+02 -0.66323524127E+01  0.24016101089E+02  0.00000000000E+00 0. -1.
<scales pt_clust_5="13000.00000" pt_clust_6="13000.00000" pt_clust_7="13000.00000" pt_clust_8="13000.00000" pt_clust_9="23.08214"></scales>
<clustering>
<clus scale="   23.082">  2  9  1 -1</clus>
<clus scale="   91.623">  7  8 -1 -1</clus>
<clus scale="   92.399">  5  6 -1 -1</clus>
<clus scale="  136.062">  2  7  1 -1</clus>
<clus scale="  136.585">  1  5  2 -1</clus>
</clustering>
</event>
<event>
 9    1  0.1748361E-005  0.1675918E+03  0.7546771E-02  0.1180485E+00
          1   -1    0    0  502    0  0.00000000000E+00  0.00000000000E+00  0.29932826368E+03  0.29932826368E+03  0.00000000000E+00 0. -1.
         -1   -1    0    0    0  501 -0.00000000000E+00 -0.00000000000E+00 -0.26846376488E+03  0.26846376488E+03  0.00000000000E+00 0.  1.
         23    2    1    2    0    0  0.10449890631E+03 -0.39702745742E+02 -0.21206149812E+02  0.14579939439E+03  0.91167061900E+02 0.  0.
         23    2    1    2    0    0 -0.13781965171E+03  0.64807345868E+02  0.20065863846E+03  0.26765889274E+03  0.90460738433E+02 0.  0.
        -11    1    4    4    0    0 -0.32080127345E+02  0.55632731537E+02  0.41865070565E+02  0.76660416919E+02  0.00000000000E+00 0. -1.
         11    1    4    4    0    0 -0.10573952436E+03  0.91746143313E+01  0.15879356789E+03  0.19099847582E+03  0.00000000000E+00 0.  1.
        -13    1    3    3    0    0  0.83352705289E+02 -0.67771560351E+01 -0.49801512211E+02  0.97333416366E+02  0.00000000000E+00 0.  1.
         13    1    3    3    0    0  0.21146201018E+02 -0.32925589707E+02  0.28595362399E+02  0.48465978023E+02  0.00000000000E+00 0. -1.
         21    1    1    2  502  501  0.33320745401E+02 -0.25104600126E+02 -0.14858798984E+03  0.15433374144E+03  0.00000000000E+00 0.  1.
<scales pt_clust_5="13000.00000" pt_clust_6="13000.00000" pt_clust_7="13000.00000" pt_clust_8="13000.00000" pt_clust_9="41.71946"></scales>
<clustering>
<clus scale="   41.719">  2  9  1 -1</clus>
<clus scale="   90.461">  5  6 -1 -1</clus>
<clus scale="   91.167">  7  8 -1 -1</clus>
<clus scale="  167.209">  1  5  2 -1</clus>
<clus scale="  167.209">  1  5  2 -1</clus>
</clustering>
</event>
<event>
 9    1  0.1748361E-005  0.1988917E+03  0.7546771E-02  0.1150980E+00
          2   -1    0    0  502    0  0.00000000000E+00  0.00000000000E+00  0.10579922704E+04  0.10579922704E+04  0.00000000000E+00 0. -1.
         -2   -1    0    0    0  501 -0.00000000000E+00 -0.00000000000E+00 -0.43928487947E+02  0.43928487947E+02  0.00000000000E+00 0.  1.
         23    2    1    2    0    0  0.15229304183E+03 -0.50034676817E+02  0.35191475184E+03  0.39709790820E+03  0.90255840035E+02 0.  0.
         23    2    1    2    0    0 -0.17386852207E+03  0.71222860710E+02  0.60186939571E+03  0.63738343386E+03  0.93316201281E+02 0.  0.
        -13    1    3    3    0    0  0.96632338802E+02 -0.70164520003E+02  0.18694785766E+03  0.22183410525E+03  0.00000000000E+00 0. -1.
         13    1    3    3    0    0  0.55660703027E+02  0.20129843187E+02  0.16496689417E+03  0.17526380294E+03  0.00000000000E+00 0.  1.
        -13    1    4    4    0    0 -0.48931591650E+02 -0.13407653611E+02  0.85538606496E+02  0.99453099690E+02  0.00000000000E+00 0.  1.
         13    1    4    4    0    0 -0.12493693042E+03  0.84630514322E+02  0.51633078921E+03  0.53793033417E+03  0.00000000000E+00 0. -1.
         21    1    1    2  502  501  0.21575480237E+02 -0.21188183894E+02  0.60279634901E+02  0.67439416278E+02  0.00000000000E+00 0. -1.
<scales pt_clust_5="13000.00000" pt_clust_6="13000.00000" pt_clust_7="13000.00000" pt_clust_8="13000.00000" pt_clust_9="30.23972"></scales>
<clustering>
<clus scale="   30.240">  2  9  1 -1</clus>
<clus scale="   90.256">  5  6 -1 -1</clus>
<clus scale="   93.316">  7  8 -1 -1</clus>
<clus scale="  197.474">  2  5  1 -1</clus>
<clus scale="  198.892">  1  5  2 -1</clus>
</clustering>
</event>
<event>
 9    1  0.3829484E-005  0.9434652E+02  0.7546771E-02  0.1292825E+00
         -1   -1    0    0    0  501 -0.00000000000E+00  0.00000000000E+00  0.10522562601E+03  0.10522562601E+03  0.00000000000E+00 0.  1.
          1   -1    0    0  502    0  0.00000000000E+00 -0.00000000000E+00 -0.42802097520E+03  0.42802097520E+03  0.00000000000E+00 0. -1.
         23    2    1    2    0    0 -0.46857306023E+02  0.39389246237E+01  0.55293954621E+02  0.11713647241E+03  0.91936986555E+02 0.  0.
         23    2    1    2    0    0  0.17482629255E+02 -0.43418423772E+01 -0.37496797741E+03  0.38656733515E+03  0.92243301113E+02 0.  0.
        -11    1    3    3    0    0 -0.24343083632E+02  0.45954230950E+02  0.13465106671E+02  0.53718583010E+02  0.00000000000E+00 0.  1.
         11    1    3    3    0    0 -0.22514222392E+02 -0.42015306326E+02  0.41828847950E+02  0.63417889404E+02  0.00000000000E+00 0. -1.
        -13    1    4    4    0    0  0.66100939155E+00  0.40733805120E+02 -0.11076374325E+03  0.11801816230E+03  0.00000000000E+00 0.  1.
         13    1    4    4    0    0  0.16821619863E+02 -0.45075647497E+02 -0.26420423416E+03  0.26854917285E+03  0.00000000000E+00 0. -1.
         21    1    1    2  502  501  0.29374676768E+02  0.40291775351E+00 -0.31213264064E+01  0.29542793648E+02  0.00000000000E+00 0.  1.
<scales pt_clust_5="13000.00000" pt_clust_6="13000.00000" pt_clust_7="13000.00000" pt_clust_8="13000.00000" pt_clust_9="29.37744"></scales>
<clustering>
<clus scale="   29.377">  1  9  2 -1</clus>
<clus scale="   91.937">  5  6 -1 -1</clus>
<clus scale="   92.243">  7  8 -1 -1</clus>
<clus scale="   94.047">  1  5  2 -1</clus>
<clus scale="   94.347">  2  5  1 -1</clus>
</clustering>
</event>
<event>
 9    1  0.1748361E-005  0.1239432E+03  0.7546771E-02  0.1237524E+00
          1   -1    0    0  502    0  0.00000000000E+00  0.00000000000E+00  0.73719563237E+02  0.73719563237E+02  0.00000000000E+00 0. -1.
         -1   -1    0    0    0  501 -0.00000000000E+00 -0.00000000000E+00 -0.31859426251E+03  0.31859426251E+03  0.00000000000E+00 0.  1.
         23    2    1    2    0    0  0.84338011891E+02  0.55160262963E+01 -0.17823404289E+03  0.21934176116E+03  0.95917190056E+02 0.  0.
         23    2    1    2    0    0 -0.65492212919E+02  0.28993696800E+02 -0.35713447074E+02  0.12294629720E+03  0.93329937779E+02 0.  0.
        -11    1    3    3    0    0  0.75747912644E+01 -0.36692620451E+02 -0.75823535034E+02  0.84575021864E+02  0.00000000000E+00 0. -1.
         11    1    3    3    0    0  0.76763220627E+02  0.42208646747E+02 -0.10241050786E+03  0.13476673930E+03  0.00000000000E+00 0.  1.
        -13    1    4    4    0    0 -0.39192281229E+02  0.43913990585E+02 -0.60084009203E+02  0.84110413379E+02  0.00000000000E+00 0.  1.
         13    1    4    4    0    0 -0.26299931691E+02 -0.14920293785E+02  0.24370562129E+02  0.38835883820E+02  0.00000000000E+00 0. -1.
         21    1    1    2  502  501 -0.18845798972E+02 -0.34509723096E+02 -0.30927209307E+02  0.50025767386E+02  0.00000000000E+00 0.  1.
<scales pt_clust_5="13000.00000" pt_clust_6="13000.00000" pt_clust_7="13000.00000" pt_clust_8="13000.00000" pt_clust_9="39.32029"></scales>
<clustering>
<clus scale="   39.320">  1  9  2 -1</clus>
<clus scale="   93.330">  7  8 -1 -1</clus>
<clus scale="   95.917">  5  6 -1 -1</clus>
<clus scale="  121.952">  1  7  2 -1</clus>
<clus scale="   39.320">  1  5  2 -1</clus>
</clustering>
</event>
<event>
 9    1  0.1748361E-005  0.1087327E+03  0.7546771E-02  0.1264943E+00
          2   -1    0    0  502    0  0.00000000000E+00  0.00000000000E+00  0.49307700326E+03  0.49307700326E+03  0.00000000000E+00 0. -1.
         -2   -1    0    0    0  501 -0.00000000000E+00 -0.00000000000E+00 -0.32740487477E+02  0.32740487477E+02  0.00000000000E+00 0.  1.
         23    2    1    2    0    0  0.18573672156E+02  0.48995783103E+02  0.18227624265E+03  0.20856985604E+03  0.86782418458E+02 0.  0.
         23    2    1    2    0    0  0.89925090589E+01 -0.66818366896E+02  0.24730455137E+03  0.27226482397E+03  0.91777087941E+02 0.  0.
        -11    1    4    4    0    0 -0.41310364967E+02 -0.36618915922E+02  0.12099778921E+03  0.13299607607E+03  0.00000000000E+00 0. -1.
         11    1    4    4    0    0  0.50302874026E+02 -0.30199450973E+02  0.12630676216E+03  0.13926874790E+03  0.00000000000E+00 0.  1.
        -13    1    3    3    0    0 -0.23079886114E+02  0.35522069316E+02  0.14503242802E+03  0.15109236820E+03  0.00000000000E+00 0.  1.
         13    1    3    3    0    0  0.41653558270E+02  0.13473713787E+02  0.37243814635E+02  0.57477487840E+02  0.00000000000E+00 0. -1.
         21    1    1    2  502  501 -0.27566181215E+02  0.17822583792E+02  0.30755721767E+02  0.44982810730E+02  0.00000000000E+00 0.  1.
<scales pt_clust_5="13000.00000" pt_clust_6="13000.00000" pt_clust_7="13000.00000" pt_clust_8="13000.00000" pt_clust_9="32.82589"></scales>
<clustering>
<clus scale="   32.826">  2  9  1 -1</clus>
<clus scale="   86.782">  7  8 -1 -1</clus>
<clus scale="   91.777">  5  6 -1 -1</clus>
<clus scale="  104.551">  2  7  1 -1</clus>
<clus scale="  108.733">  1  5  2 -1</clus>
</clustering>
</event>
<event>
 9    1  0.1748361E-005  0.1036104E+03  0.7546771E-02  0.1273958E+00
          2   -1    0    0  502    0  0.00000000000E+00  0.00000000000E+00  0.30672729070E+03  0.30672729070E+03  0.00000000000E+00 0. -1.
         -2   -1    0    0    0  501 -0.00000000000E+00 -0.00000000000E+00 -0.11128242522E+03  0.11128242522E+03  0.00000000000E+00 0.  1.
         23    2    1    2    0    0  0.56837891280E+02  0.20997745361E+02 -0.16866003594E+02  0.10967539773E+03  0.89848648260E+02 0.  0.
         23    2    1    2    0    0 -0.50608530646E+02  0.76508334920E+01  0.24458968123E+03  0.26472849613E+03  0.87391680795E+02 0.  0.
        -11    1    3    3    0    0  0.37118486254E+02  0.36178881477E+02 -0.47431651132E+02  0.70259910445E+02  0.00000000000E+00 0.  1.
         11    1    3    3    0    0  0.19719405026E+02 -0.15181136116E+02  0.30565647537E+02  0.39415487283E+02  0.00000000000E+00 0. -1.
        -13    1    4    4    0    0 -0.53659926647E+02 -0.25791793665E+02  0.20142311228E+03  0.21003779304E+03  0.00000000000E+00 0.  1.
         13    1    4    4    0    0  0.30513960003E+01  0.33442627157E+02  0.43166568951E+02  0.54690703083E+02  0.00000000000E+00 0. -1.
         21    1    1    2  502  501 -0.62293606341E+01 -0.28648578853E+02 -0.32278812150E+02  0.43605822065E+02  0.00000000000E+00 0. -1.
<scales pt_clust_5="13000.00000" pt_clust_6="13000.00000" pt_clust_7="13000.00000" pt_clust_8="13000.00000" pt_clust_9="29.31802"></scales>
<clustering>
<clus scale="   29.318">  2  9  1 -1</clus>
<clus scale="   87.392">  7  8 -1 -1</clus>
<clus scale="   89.849">  5  6 -1 -1</clus>
<clus scale="  101.487">  1  7  2 -1</clus>
<clus scale="  101.487">  1  5  2 -1</clus>
</clustering>
</event>
<event>
 9    1  0.1748361E-005  0.1034148E+03  0.7546771E-02  0.1273648E+00
          1   -1    0    0  502    0  0.00000000000E+00  0.00000000000E+00  0.21040805571E+02  0.21040805571E+02  0.00000000000E+00 0. -1.
         -1   -1    0    0    0  501 -0.00000000000E+00 -0.00000000000E+00 -0.68816680044E+03  0.68816680044E+03  0.00000000000E+00 0.  1.
         23    2    1    2    0    0  0.28104603251E+02  0.12512742664E+02 -0.32030814111E+03  0.33459123302E+03  0.91692696006E+02 0.  0.
         23    2    1    2    0    0 -0.58102212765E+02 -0.20819496971E+02 -0.25444144963E+03  0.27713684291E+03  0.90857359791E+02 0.  0.
        -13    1    4    4    0    0 -0.16599592819E+02  0.35776699005E+02 -0.83357404158E+02  0.92217002236E+02  0.00000000000E+00 0.  1.
         13    1    4    4    0    0 -0.41502619946E+02 -0.56596195976E+02 -0.17108404547E+03  0.18491984067E+03  0.00000000000E+00 0. -1.
        -13    1    3    3    0    0 -0.14520234120E+01 -0.37451202812E+02 -0.15201671000E+03  0.15656877429E+03  0.00000000000E+00 0. -1.
         13    1    3    3    0    0  0.29556626663E+02  0.49963945475E+02 -0.16829143111E+03  0.17802245873E+03  0.00000000000E+00 0.  1.
         21    1    1    2  502  501  0.29997609514E+02  0.83067543070E+01 -0.92376404129E+02  0.97479530074E+02  0.00000000000E+00 0.  1.
<scales pt_clust_5="13000.00000" pt_clust_6="13000.00000" pt_clust_7="13000.00000" pt_clust_8="13000.00000" pt_clust_9="31.12650"></scales>
<clustering>
<clus scale="   31.126">  2  9  1 -1</clus>
<clus scale="   90.857">  5  6 -1 -1</clus>
<clus scale="   91.693">  7  8 -1 -1</clus>
<clus scale="  102.675">  1  5  2 -1</clus>
<clus scale="  102.675">  1  5  2 -1</clus>
</clustering>
</event>
<event>
 9    1  0.1748361E-005  0.1139595E+03  0.7546771E-02  0.1255957E+00
          1   -1    0    0  502    0  0.00000000000E+00  0.00000000000E+00  0.20982966062E+03  0.20982966062E+03  0.00000000000E+00 0. -1.
         -1   -1    0    0    0  501 -0.00000000000E+00 -0.00000000000E+00 -0.79988543376E+02  0.79988543376E+02  0.00000000000E+00 0.  1.
         23    2    1    2    0    0  0.19986166678E+02  0.78055350612E+02  0.77357213343E+02  0.14440605505E+03  0.91525327983E+02 0.  0.
         23    2    1    2    0    0 -0.14997373454E+02 -0.55135355488E+02  0.62853207543E+02  0.11976577118E+03  0.84430359542E+02 0.  0.
        -11    1    3    3    0    0  0.41779956215E+02  0.31382550615E+02  0.76802485579E+02  0.92892685479E+02  0.00000000000E+00 0. -1.
         11    1    3    3    0    0 -0.21793789537E+02  0.46672799997E+02  0.55472776318E+00  0.51513369574E+02  0.00000000000E+00 0.  1.
        -13    1    4    4    0    0 -0.23815093790E+02 -0.14736904297E+02 -0.14884008839E+02  0.31715434091E+02  0.00000000000E+00 0.  1.
         13    1    4    4    0    0  0.88177203353E+01 -0.40398451191E+02  0.77737216382E+02  0.88050337088E+02  0.00000000000E+00 0. -1.
         21    1    1    2  502  501 -0.49887932234E+01 -0.22919995124E+02 -0.10369303641E+02  0.25646377763E+02  0.00000000000E+00 0.  1.
<scales pt_clust_5="13000.00000" pt_clust_6="13000.00000" pt_clust_7="13000.00000" pt_clust_8="13000.00000" pt_clust_9="23.45665"></scales>
<clustering>
<clus scale="   23.457">  2  9  1 -1</clus>
<clus scale="   84.430">  7  8 -1 -1</clus>
<clus scale="   91.525">  5  6 -1 -1</clus>
<clus scale="  108.344">  1  7  2 -1</clus>
<clus scale="  108.344">  1  5  2 -1</clus>
</clustering>
</event>
<event>
 9    1  0.2161648E-005  0.1947761E+03  0.7546771E-02  0.1154228E+00
          3   -1    0    0  502    0  0.00000000000E+00  0.00000000000E+00  0.21835838234E+03  0.21835838234E+03  0.00000000000E+00 0. -1.
         -3   -1    0    0    0  501 -0.00000000000E+00 -0.00000000000E+00 -0.53295883786E+03  0.53295883786E+03  0.00000000000E+00 0.  1.
         23    2    1    2    0    0 -0.16560361129E+03 -0.66460798123E+02 -0.43944717077E+03  0.48295002059E+03  0.91023693257E+02 0.  0.
         23    2    1    2    0    0  0.16577487064E+03  0.44535188409E+02  0.14191189032E+03  0.24058263750E+03  0.90974337651E+02 0.  0.
        -13    1    4    4    0    0  0.92929072683E+02  0.67954202074E+02  0.65538202048E+02  0.13247204255E+03  0.00000000000E+00 0.  1.
         13    1    4    4    0    0  0.72845797954E+02 -0.23419013664E+02  0.76373688275E+02  0.10811059495E+03  0.00000000000E+00 0. -1.
        -13    1    3    3    0    0 -0.15843560720E+03 -0.27640855384E+02 -0.35494311943E+03  0.38967996682E+03  0.00000000000E+00 0.  1.
         13    1    3    3    0    0 -0.71680040904E+01 -0.38819942738E+02 -0.84504051345E+02  0.93270053771E+02  0.00000000000E+00 0. -1.
         21    1    1    2  502  501 -0.17125934363E+00  0.21925609713E+02 -0.17065175075E+02  0.27784562106E+02  0.00000000000E+00 0.  1.
<scales pt_clust_5="13000.00000" pt_clust_6="13000.00000" pt_clust_7="13000.00000" pt_clust_8="13000.00000" pt_clust_9="21.92628"></scales>
<clustering>
<clus scale="   21.926">  2  9  1 -1</clus>
<clus scale="   90.974">  5  6 -1 -1</clus>
<clus scale="   91.024">  7  8 -1 -1</clus>
<clus scale="  194.753">  1  5  2 -1</clus>
<clus scale="  194.753">  1  5  2 -1</clus>
</clustering>
</event>
<event>
 9    1  0.1748361E-005  0.1211033E+03  0.7546771E-02  0.1241457E+00
          1   -1    0    0  502    0  0.00000000000E+00  0.00000000000E+00  0.62539625407E+03  0.62539625407E+03  0.00000000000E+00 0. -1.
         -1   -1    0    0    0  501 -0.00000000000E+00 -0.00000000000E+00 -0.59524537262E+02  0.59524537262E+02  0.00000000000E+00 0.  1.
         23    2    1    2    0    0  0.62029784997E+02  0.68022776371E+02  0.68065685514E+02  0.14649554600E+03  0.91395925073E+02 0.  0.
         23    2    1    2    0    0 -0.71124083427E+02 -0.32585807242E+02  0.48510142025E+03  0.49969680376E+03  0.90846230988E+02 0.  0.
        -11    1    3    3    0    0  0.37293918827E+02 -0.16644283483E+02  0.14714258397E+02  0.43409422414E+02  0.00000000000E+00 0. -1.
         11    1    3    3    0    0  0.24735866170E+02  0.84667059855E+02  0.53351427117E+02  0.10308612358E+03  0.00000000000E+00 0.  1.
        -11    1    4    4    0    0 -0.67463867200E+02  0.13362382951E+02  0.35677359648E+03  0.36334188556E+03  0.00000000000E+00 0. -1.
         11    1    4    4    0    0 -0.36602162272E+01 -0.45948190193E+02  0.12832782377E+03  0.13635491820E+03  0.00000000000E+00 0.  1.
         21    1    1    2  502  501  0.90942984301E+01 -0.35436969129E+02  0.12704611045E+02  0.38728441575E+02  0.00000000000E+00 0.  1.
<scales pt_clust_5="13000.00000" pt_clust_6="13000.00000" pt_clust_7="13000.00000" pt_clust_8="13000.00000" pt_clust_9="36.58531"></scales>
<clustering>
<clus scale="   36.585">  2  9  1 -1</clus>
<clus scale="   90.846">  7  8 -1 -1</clus>
<clus scale="   91.396">  5  6 -1 -1</clus>
<clus scale="  120.689">  1  7  2 -1</clus>
<clus scale="  120.689">  1  5  2 -1</clus>
</clustering>
</event>
<event>
 9    1  0.1748361E-005  0.1248231E+03  0.7546771E-02  0.1250142E+00
          1   -1    0    0  502    0  0.00000000000E+00  0.00000000000E+00  0.17654244960E+03  0.17654244960E+03  0.00000000000E+00 0. -1.
         -1   -1    0    0    0  501 -0.00000000000E+00 -0.00000000000E+00 -0.52875917204E+03  0.52875917204E+03  0.00000000000E+00 0.  1.
         23    2    1    2    0    0  0.30702012822E+02 -0.12963942136E+02 -0.45332423296E+03  0.47062294397E+03  0.12195252279E+03 0.  0.
         23    2    1    2    0    0  0.57226586134E+01  0.26580442159E+02  0.14745278264E+03  0.17418033050E+03  0.88640824100E+02 0.  0.
        -11    1    4    4    0    0 -0.24173761771E+02  0.49417197935E+02  0.83914878788E+02  0.10034010710E+03  0.00000000000E+00 0. -1.
         11    1    4    4    0    0  0.29896420385E+02 -0.22836755776E+02  0.63537903854E+02  0.73840223404E+02  0.00000000000E+00 0.  1.
        -11    1    3    3    0    0  0.73786069222E+02 -0.19557692069E+02 -0.35431772642E+03  0.36244715282E+03  0.00000000000E+00 0.  1.
         11    1    3    3    0    0 -0.43084056401E+02  0.65937499337E+01 -0.99006506541E+02  0.10817579115E+03  0.00000000000E+00 0. -1.
         21    1    1    2  502  501 -0.36424671435E+02 -0.13616500023E+02 -0.46345272121E+02  0.60498347168E+02  0.00000000000E+00 0. -1.
<scales pt_clust_5="13000.00000" pt_clust_6="13000.00000" pt_clust_7="13000.00000" pt_clust_8="13000.00000" pt_clust_9="38.88658"></scales>
<clustering>
<clus scale="   38.887">  2  9  1 -1</clus>
<clus scale="   88.641">  5  6 -1 -1</clus>
<clus scale="   92.550">  1  5  2 -1</clus>
<clus scale="  121.953">  7  8 -1 -1</clus>
<clus scale="   92.550">  1  5  2 -1</clus>
</clustering>
</event>
<event>
 9    1  0.1748361E-005  0.2332881E+03  0.7546771E-02  0.1124540E+00
         -2   -1    0    0    0  501 -0.00000000000E+00  0.00000000000E+00  0.38185190634E+03  0.38185190634E+03  0.00000000000E+00 0.  1.
          2   -1    0    0  502    0  0.00000000000E+00 -0.00000000000E+00 -0.21280634536E+03  0.21280634536E+03  0.00000000000E+00 0. -1.
         23    2    1    2    0    0  0.20604746660E+02 -0.19809871427E+03  0.79151277828E+02  0.23249723103E+03  0.90124255743E+02 0.  0.
         23    2    1    2    0    0 -0.21998544471E+02  0.22327491349E+03 -0.25366175864E+02  0.24417476260E+03  0.92963696461E+02 0.  0.
        -11    1    3    3    0    0  0.50053559889E+02 -0.73729394157E+02  0.46809583238E+02  0.10066041676E+03  0.00000000000E+00 0. -1.
         11    1    3    3    0    0 -0.29448813229E+02 -0.12436932011E+03  0.32341694590E+02  0.13183681426E+03  0.00000000000E+00 0.  1.
        -13    1    4    4    0    0 -0.16164547127E+02  0.17415192470E+02  0.22521156987E+02  0.32738112723E+02  0.00000000000E+00 0.  1.
         13    1    4    4    0    0 -0.58339973437E+01  0.20585972102E+03 -0.47887332851E+02  0.21143664988E+03  0.00000000000E+00 0. -1.
         21    1    1    2  502  501  0.13937978111E+01 -0.25176199219E+02  0.11526045902E+03  0.11798625807E+03  0.00000000000E+00 0.  1.
<scales pt_clust_5="13000.00000" pt_clust_6="13000.00000" pt_clust_7="13000.00000" pt_clust_8="13000.00000" pt_clust_9="25.21475"></scales>
<clustering>
<clus scale="   25.215">  1  9  2 -1</clus>
<clus scale="   90.124">  5  6 -1 -1</clus>
<clus scale="   92.964">  7  8 -1 -1</clus>
<clus scale="  232.171">  1  5  2 -1</clus>
<clus scale="  233.288">  2  5  1 -1</clus>
</clustering>
</event>
<event>
 9    1  0.1748361E-005  0.9491280E+02  0.7546771E-02  0.1292046E+00
          1   -1    0    0  502    0  0.00000000000E+00  0.00000000000E+00  0.15739632767E+03  0.15739632767E+03  0.00000000000E+00 0. -1.
         -1   -1    0    0    0  501 -0.00000000000E+00 -0.00000000000E+00 -0.30427872375E+03  0.30427872375E+03  0.00000000000E+00 0.  1.
         23    2    1    2    0    0  0.82041191035E+02 -0.25256906610E+01 -0.19380559696E+03  0.22965416501E+03  0.91887376464E+02 0.  0.
         23    2    1    2    0    0 -0.14328108408E+02  0.14535550920E+02  0.10627921591E+03  0.14117797352E+03  0.90660749736E+02 0.  0.
        -11    1    4    4    0    0  0.28066952749E+02  0.27472513303E+02  0.19759804672E+02  0.43965244279E+02  0.00000000000E+00 0.  1.
         11    1    4    4    0    0 -0.42395061158E+02 -0.12936962383E+02  0.86519411239E+02  0.97212729246E+02  0.00000000000E+00 0. -1.
        -13    1    3    3    0    0  0.81336754650E+02  0.30345040089E+02 -0.11361756188E+03  0.14298755010E+03  0.00000000000E+00 0.  1.
         13    1    3    3    0    0  0.70443638539E+00 -0.32870730750E+02 -0.80188035078E+02  0.86666614912E+02  0.00000000000E+00 0. -1.
         21    1    1    2  502  501 -0.67713082627E+02 -0.12009860259E+02 -0.59356015028E+02  0.90842912890E+02  0.00000000000E+00 0. -1.
<scales pt_clust_5="13000.00000" pt_clust_6="13000.00000" pt_clust_7="13000.00000" pt_clust_8="13000.00000" pt_clust_9="68.76989"></scales>
<clustering>
<clus scale="   68.770">  2  9  1 -1</clus>
<clus scale="   90.661">  5  6 -1 -1</clus>
<clus scale="   91.887">  7  8 -1 -1</clus>
<clus scale="   93.726">  1  5  2 -1</clus>
<clus scale="   93.726">  1  5  2 -1</clus>
</clustering>
</event>
<event>
 9    1  0.1748361E-005  0.1883483E+03  0.7546771E-02  0.1160205E+00
          2   -1    0    0  502    0  0.00000000000E+00  0.00000000000E+00  0.91506419071E+03  0.91506419071E+03  0.00000000000E+00 0. -1.
         -2   -1    0    0    0  501 -0.00000000000E+00 -0.00000000000E+00 -0.46544698822E+02  0.46544698822E+02  0.00000000000E+00 0.  1.
         23    2    1    2    0    0 -0.15221073306E+03  0.71708497277E+00  0.30836332672E+03  0.35511475294E+03  0.88599802599E+02 0.  0.
         23    2    1    2    0    0  0.17416311308E+03 -0.25336077326E+02  0.50159473394E+03  0.53928221057E+03  0.90847777866E+02 0.  0.
        -11    1    3    3    0    0 -0.13228839968E+03 -0.32652615701E+02  0.25468626851E+03  0.28884513043E+03  0.00000000000E+00 0.  1.
         11    1    3    3    0    0 -0.19922333378E+02  0.33369700674E+02  0.53677058208E+02  0.66269622514E+02  0.00000000000E+00 0. -1.
        -13    1    4    4    0    0  0.11940408528E+03  0.47940719925E+01  0.41898188649E+03  0.43569041752E+03  0.00000000000E+00 0. -1.
         13    1    4    4    0    0  0.54759027796E+02 -0.30130149319E+02  0.82612847450E+02  0.10359179305E+03  0.00000000000E+00 0.  1.
         21    1    1    2  502  501 -0.21952380015E+02  0.24618992353E+02  0.58561431220E+02  0.67211926020E+02  0.00000000000E+00 0.  1.
<scales pt_clust_5="13000.00000" pt_clust_6="13000.00000" pt_clust_7="13000.00000" pt_clust_8="13000.00000" pt_clust_9="32.98487"></scales>
<clustering>
<clus scale="   32.985">  2  9  1 -1</clus>
<clus scale="   88.600">  5  6 -1 -1</clus>
<clus scale="   90.848">  7  8 -1 -1</clus>
<clus scale="  187.274">  2  5  1 -1</clus>
<clus scale="  188.348">  1  5  2 -1</clus>
</clustering>
</event>
<event>
 9    1  0.1748361E-005  0.1076704E+03  0.7546771E-02  0.1270156E+00
          2   -1    0    0  502    0  0.00000000000E+00  0.00000000000E+00  0.96769373586E+02  0.96769373586E+02  0.00000000000E+00 0. -1.
         -2   -1    0    0    0  501 -0.00000000000E+00 -0.00000000000E+00 -0.23647365335E+03  0.23647365335E+03  0.00000000000E+00 0.  1.
         23    2    1    2    0    0 -0.12948130976E+02  0.17812699137E+02 -0.13780496152E+03  0.17304773063E+03  0.10232479325E+03 0.  0.
         23    2    1    2    0    0 -0.70687566375E+01 -0.36529344273E+02  0.42985186022E+02  0.10760625449E+03  0.91362024251E+02 0.  0.
        -11    1    3    3    0    0 -0.39837480380E+02  0.23131807588E+02 -0.16890310838E+02  0.49065140024E+02  0.00000000000E+00 0. -1.
         11    1    3    3    0    0  0.26889349404E+02 -0.53191084508E+01 -0.12091465068E+03  0.12398259061E+03  0.00000000000E+00 0.  1.
        -13    1    4    4    0    0  0.42648030806E+00  0.25674636965E+02  0.36486059065E+02  0.44616155985E+02  0.00000000000E+00 0.  1.
         13    1    4    4    0    0 -0.74952369456E+01 -0.62203981239E+02  0.64991269568E+01  0.62990098508E+02  0.00000000000E+00 0. -1.
         21    1    1    2  502  501  0.20016887614E+02  0.18716645136E+02 -0.44884504273E+02  0.52589041812E+02  0.00000000000E+00 0.  1.
<scales pt_clust_5="13000.00000" pt_clust_6="13000.00000" pt_clust_7="13000.00000" pt_clust_8="13000.00000" pt_clust_9="27.40417"></scales>
<clustering>
<clus scale="   27.404">  2  9  1 -1</clus>
<clus scale="   91.362">  7  8 -1 -1</clus>
<clus scale="   97.312">  1  7  2 -1</clus>
<clus scale="  102.325">  5  6 -1 -1</clus>
<clus scale="   97.312">  1  5  2 -1</clus>
</clustering>
</event>
<event>
 9    1  0.1748361E-005  0.1208976E+03  0.7546771E-02  0.1242411E+00
          1   -1    0    0  502    0  0.00000000000E+00  0.00000000000E+00  0.30835141260E+03  0.30835141260E+03  0.00000000000E+00 0. -1.
         -1   -1    0    0    0  501 -0.00000000000E+00 -0.00000000000E+00 -0.23033171850E+03  0.23033171850E+03  0.00000000000E+00 0.  1.
         23    2    1    2    0    0  0.64839021675E+02 -0.25932985537E+02 -0.66037708975E+02  0.13437623365E+03  0.93911525879E+02 0.  0.
         23    2    1    2    0    0 -0.76700383461E+02  0.91234486496E+01  0.26017140055E+03  0.28638441086E+03  0.91436792259E+02 0.  0.
        -13    1    3    3    0    0  0.83435796657E+02 -0.38151416666E+02 -0.39887978406E+02  0.10004055967E+03  0.00000000000E+00 0.  1.
         13    1    3    3    0    0 -0.18596774982E+02  0.12218431129E+02 -0.26149730569E+02  0.34335673983E+02  0.00000000000E+00 0. -1.
        -13    1    4    4    0    0 -0.97951140111E+02  0.96378356493E+01  0.21228100671E+03  0.23398833205E+03  0.00000000000E+00 0. -1.
         13    1    4    4    0    0  0.21250756650E+02 -0.51438699970E+00  0.47890393837E+02  0.52396078804E+02  0.00000000000E+00 0.  1.
         21    1    1    2  502  501  0.11861361786E+02  0.16809536887E+02 -0.11611399748E+03  0.11792248659E+03  0.00000000000E+00 0.  1.
<scales pt_clust_5="13000.00000" pt_clust_6="13000.00000" pt_clust_7="13000.00000" pt_clust_8="13000.00000" pt_clust_9="20.57310"></scales>
<clustering>
<clus scale="   20.573">  2  9  1 -1</clus>
<clus scale="   91.437">  7  8 -1 -1</clus>
<clus scale="   93.912">  5  6 -1 -1</clus>
<clus scale="  118.986">  1  7  2 -1</clus>
<clus scale="  118.986">  1  5  2 -1</clus>
</clustering>
</event>
<event>
 9    1  0.1748361E-005  0.1238112E+03  0.7546771E-02  0.1237252E+00
          1   -1    0    0  502    0  0.00000000000E+00  0.00000000000E+00  0.91802850891E+03  0.91802850891E+03  0.00000000000E+00 0. -1.
         -1   -1    0    0    0  501 -0.00000000000E+00 -0.00000000000E+00 -0.28240484391E+02  0.28240484391E+02  0.00000000000E+00 0.  1.
         23    2    1    2    0    0  0.57616590175E+02  0.35120114302E+02  0.19016127180E+03  0.22181203092E+03  0.92120431374E+02 0.  0.
         23    2    1    2    0    0 -0.91055943300E+02 -0.75555080947E+01  0.62488623050E+03  0.63806168755E+03  0.91058473128E+02 0.  0.
        -11    1    4    4    0    0  0.13785827988E+02  0.16427839771E+02  0.10382425230E+03  0.10601602869E+03  0.00000000000E+00 0.  1.
         11    1    4    4    0    0 -0.10484177129E+03 -0.23983347865E+02  0.52106197820E+03  0.53204565886E+03  0.00000000000E+00 0. -1.
        -11    1    3    3    0    0  0.32592832596E+02 -0.30060637434E+02  0.76411937806E+02  0.88344320127E+02  0.00000000000E+00 0. -1.
         11    1    3    3    0    0  0.25023757579E+02  0.65180751736E+02  0.11374933399E+03  0.13346771079E+03  0.00000000000E+00 0.  1.
         21    1    1    2  502  501  0.33439353125E+02 -0.27564606207E+02  0.74740522220E+02  0.86395274839E+02  0.00000000000E+00 0. -1.
<scales pt_clust_5="13000.00000" pt_clust_6="13000.00000" pt_clust_7="13000.00000" pt_clust_8="13000.00000" pt_clust_9="43.33587"></scales>
<clustering>
<clus scale="   43.336">  2  9  1 -1</clus>
<clus scale="   91.058">  5  6 -1 -1</clus>
<clus scale="   92.120">  7  8 -1 -1</clus>
<clus scale="  123.023">  1  5  2 -1</clus>
<clus scale="  123.023">  1  5  2 -1</clus>
</clustering>
</event>
<event>
 9    1  0.1748361E-005  0.2169761E+03  0.7546771E-02  0.1136553E+00
         -1   -1    0    0    0  501 -0.00000000000E+00  0.00000000000E+00  0.18820270735E+03  0.18820270735E+03  0.00000000000E+00 0.  1.
          1   -1    0    0  502    0  0.00000000000E+00 -0.00000000000E+00 -0.42753476181E+03  0.42753476181E+03  0.00000000000E+00 0. -1.
         23    2    1    2    0    0 -0.17274310534E+02 -0.17133967469E+03  0.60303763976E+02  0.20224117995E+03  0.87231101054E+02 0.  0.
         23    2    1    2    0    0  0.92220176634E+01  0.20292228941E+03 -0.30756590844E+03  0.37995247755E+03  0.92220366610E+02 0.  0.
        -13    1    3    3    0    0  0.27607413623E+02 -0.66597705060E+02  0.50183833311E+02  0.87839858447E+02  0.00000000000E+00 0.  1.
         13    1    3    3    0    0 -0.44881724157E+02 -0.10474196963E+03  0.10119930664E+02  0.11440132150E+03  0.00000000000E+00 0. -1.
        -13    1    4    4    0    0  0.46130600871E+02  0.10432495944E+03 -0.19434256403E+03  0.22534587126E+03  0.00000000000E+00 0. -1.
         13    1    4    4    0    0 -0.36908583208E+02  0.98597329971E+02 -0.11322334440E+03  0.15460660629E+03  0.00000000000E+00 0.  1.
         21    1    1    2  502  501  0.80522928704E+01 -0.31582614722E+02  0.79300900026E+01  0.33543811658E+02  0.00000000000E+00 0. -1.
<scales pt_clust_5="13000.00000" pt_clust_6="13000.00000" pt_clust_7="13000.00000" pt_clust_8="13000.00000" pt_clust_9="32.59296"></scales>
<clustering>
<clus scale="   32.593">  1  9  2 -1</clus>
<clus scale="   87.231">  5  6 -1 -1</clus>
<clus scale="   92.220">  7  8 -1 -1</clus>
<clus scale="  214.903">  1  5  2 -1</clus>
<clus scale="  216.976">  2  5  1 -1</clus>
</clustering>
</event>
<event>
 9    1  0.1748361E-005  0.9589342E+02  0.7546771E-02  0.1289582E+00
          2   -1    0    0  502    0  0.00000000000E+00  0.00000000000E+00  0.21042811677E+03  0.21042811677E+03  0.00000000000E+00 0. -1.
         -2   -1    0    0    0  501 -0.00000000000E+00 -0.00000000000E+00 -0.68925375846E+02  0.68925375846E+02  0.00000000000E+00 0.  1.
         23    2    1    2    0    0  0.36820413782E+02  0.24353171666E+02  0.77567905888E+02  0.12747334719E+03  0.91015682046E+02 0.  0.
         23    2    1    2    0    0 -0.16591598059E+02  0.85113820596E+01  0.63749568457E+02  0.11328845978E+03  0.91774413047E+02 0.  0.
        -13    1    3    3    0    0  0.46297035382E+02  0.51528035597E+02  0.39471400075E+02  0.79727945926E+02  0.00000000000E+00 0.  1.
         13    1    3    3    0    0 -0.94766216001E+01 -0.27174863931E+02  0.38096505813E+02  0.47745401263E+02  0.00000000000E+00 0. -1.
        -13    1    4    4    0    0 -0.57388099621E+01 -0.30266074790E+02  0.66127501768E+02  0.72950775959E+02  0.00000000000E+00 0. -1.
         13    1    4    4    0    0 -0.10852788097E+02  0.38777456850E+02 -0.23779333103E+01  0.40337683821E+02  0.00000000000E+00 0.  1.
         21    1    1    2  502  501 -0.20228815723E+02 -0.32864553726E+02  0.18526657512E+00  0.38591685644E+02  0.00000000000E+00 0. -1.
<scales pt_clust_5="13000.00000" pt_clust_6="13000.00000" pt_clust_7="13000.00000" pt_clust_8="13000.00000" pt_clust_9="38.59124"></scales>
<clustering>
<clus scale="   38.591">  2  9  1 -1</clus>
<clus scale="   91.016">  5  6 -1 -1</clus>
<clus scale="   91.774">  7  8 -1 -1</clus>
<clus scale="   95.168">  2  5  1 -1</clus>
<clus scale="   95.893">  1  5  2 -1</clus>
</clustering>
</event>
<event>
 9    1  0.1748361E-005  0.9208301E+02  0.7546771E-02  0.1299603E+00
         -1   -1    0    0    0  501 -0.00000000000E+00  0.00000000000E+00  0.19083780338E+03  0.19083780338E+03  0.00000000000E+00 0.  1.
          1   -1    0    0  502    0  0.00000000000E+00 -0.00000000000E+00 -0.82260885016E+02  0.82260885016E+02  0.00000000000E+00 0. -1.
         23    2    1    2    0    0 -0.34344166974E+02 -0.17755539804E+02  0.57181686455E+02  0.11122865562E+03  0.87219765920E+02 0.  0.
         23    2    1    2    0    0  0.10462889101E+02 -0.15606593097E+01 -0.11861431299E+02  0.91550501905E+02  0.90160374560E+02 0.  0.
        -11    1    4    4    0    0 -0.10154828736E+02 -0.35359408900E+02 -0.30503717395E+02  0.47790010665E+02  0.00000000000E+00 0. -1.
         11    1    4    4    0    0  0.20617717837E+02  0.33798749590E+02  0.18642286097E+02  0.43760491240E+02  0.00000000000E+00 0.  1.
        -13    1    3    3    0    0  0.70984465432E+01 -0.42993729359E+02  0.12665205142E+02  0.45379027412E+02  0.00000000000E+00 0.  1.
         13    1    3    3    0    0 -0.41442613517E+02  0.25238189556E+02  0.44516481312E+02  0.65849628212E+02  0.00000000000E+00 0. -1.
         21    1    1    2  502  501  0.23881277873E+02  0.19316199113E+02  0.63256663204E+02  0.70319530862E+02  0.00000000000E+00 0.  1.
<scales pt_clust_5="13000.00000" pt_clust_6="13000.00000" pt_clust_7="13000.00000" pt_clust_8="13000.00000" pt_clust_9="30.71532"></scales>
<clustering>
<clus scale="   30.715">  1  9  2 -1</clus>
<clus scale="   87.220">  7  8 -1 -1</clus>
<clus scale="   89.206">  1  7  2 -1</clus>
<clus scale="   90.160">  5  6 -1 -1</clus>
<clus scale="   92.083">  2  5  1 -1</clus>
</clustering>
</event>
<event>
 9    1  0.1748361E-005  0.9587093E+02  0.7546771E-02  0.1295596E+00
          2   -1    0    0  502    0  0.00000000000E+00  0.00000000000E+00  0.19396153207E+03  0.19396153207E+03  0.00000000000E+00 0. -1.
         -2   -1    0    0    0  501 -0.00000000000E+00 -0.00000000000E+00 -0.70813345051E+02  0.70813345051E+02  0.00000000000E+00 0.  1.
         23    2    1    2    0    0  0.38086566988E+02 -0.28140382084E+02  0.28786983513E+02  0.10783615080E+03  0.92506633870E+02 0.  0.
         23    2    1    2    0    0 -0.65812122222E+01  0.16174592472E+02  0.90661837922E+02  0.12303514531E+03  0.81321266157E+02 0.  0.
        -11    1    3    3    0    0 -0.95485860839E+01 -0.45749773001E+02  0.32483978130E+02  0.56915956120E+02  0.00000000000E+00 0. -1.
         11    1    3    3    0    0  0.47635153072E+02  0.17609390918E+02 -0.36969946167E+01  0.50920194676E+02  0.00000000000E+00 0.  1.
        -11    1    4    4    0    0  0.37077498422E+02  0.11543335760E+02  0.48878544902E+02  0.62426770230E+02  0.00000000000E+00 0.  1.
         11    1    4    4    0    0 -0.43658710644E+02  0.46312567120E+01  0.41783293020E+02  0.60608375076E+02  0.00000000000E+00 0. -1.
         21    1    1    2  502  501 -0.31505354766E+02  0.11965789611E+02  0.36993655806E+01  0.33903581015E+02  0.00000000000E+00 0. -1.
<scales pt_clust_5="13000.00000" pt_clust_6="13000.00000" pt_clust_7="13000.00000" pt_clust_8="13000.00000" pt_clust_9="33.70115"></scales>
<clustering>
<clus scale="   33.701">  2  9  1 -1</clus>
<clus scale="   81.321">  7  8 -1 -1</clus>
<clus scale="   85.129">  1  7  2 -1</clus>
<clus scale="   92.507">  5  6 -1 -1</clus>
<clus scale="   85.129">  1  5  2 -1</clus>
</clustering>
</event>
<event>
 9    1  0.1748361E-005  0.1009673E+03  0.7546771E-02  0.1284051E+00
          1   -1    0    0  502    0  0.00000000000E+00  0.00000000000E+00  0.32070288748E+03  0.32070288748E+03  0.00000000000E+00 0. -1.
         -1   -1    0    0    0  501 -0.00000000000E+00 -0.00000000000E+00 -0.56867462360E+02  0.56867462360E+02  0.00000000000E+00 0.  1.
         23    2    1    2    0    0 -0.19051980468E+02  0.90112625476E+01  0.55332195918E+02  0.11045071771E+03  0.93239092256E+02 0.  0.
         23    2    1    2    0    0  0.70987973358E+02 -0.25730709335E+02  0.15393617253E+03  0.18995454331E+03  0.81761981067E+02 0.  0.
        -11    1    3    3    0    0  0.97076369380E+01  0.25165842687E+02  0.69499979773E+02  0.74550687733E+02  0.00000000000E+00 0. -1.
         11    1    3    3    0    0 -0.28759617406E+02 -0.16154580140E+02 -0.14167783855E+02  0.35900029975E+02  0.00000000000E+00 0.  1.
        -11    1    4    4    0    0 -0.14349905271E+02 -0.20941772584E+02  0.28512137777E+02  0.38176165612E+02  0.00000000000E+00 0.  1.
         11    1    4    4    0    0  0.85337878629E+02 -0.47889367511E+01  0.12542403475E+03  0.15177837770E+03  0.00000000000E+00 0. -1.
         21    1    1    2  502  501 -0.51935992891E+02  0.16719446787E+02  0.54567056672E+02  0.77165088818E+02  0.00000000000E+00 0.  1.
<scales pt_clust_5="13000.00000" pt_clust_6="13000.00000" pt_clust_7="13000.00000" pt_clust_8="13000.00000" pt_clust_9="54.56086"></scales>
<clustering>
<clus scale="   54.561">  1  9  2 -1</clus>
<clus scale="   81.762">  7  8 -1 -1</clus>
<clus scale="   90.476">  1  7  2 -1</clus>
<clus scale="   93.239">  5  6 -1 -1</clus>
<clus scale="   54.561">  1  5  2 -1</clus>
</clustering>
</event>
<event>
 9    1  0.1748361E-005  0.2281687E+03  0.7546771E-02  0.1128194E+00
         -1   -1    0    0    0  501 -0.00000000000E+00  0.00000000000E+00  0.27034343592E+03  0.27034343592E+03  0.00000000000E+00 0.  1.
          1   -1    0    0  502    0  0.00000000000E+00 -0.00000000000E+00 -0.14001908870E+04  0.14001908870E+04  0.00000000000E+00 0. -1.
         23    2    1    2    0    0 -0.21818380552E+03  0.73014220034E+02 -0.18961137613E+02  0.24738926533E+03  0.88919483474E+02 0.  0.
         23    2    1    2    0    0  0.19344097649E+03  0.86253111291E+02 -0.12113603288E+04  0.12332152859E+04  0.92558547020E+02 0.  0.
        -13    1    3    3    0    0 -0.17686152299E+03  0.51678886603E+02  0.21808838745E+02  0.18554334018E+03  0.00000000000E+00 0.  1.
         13    1    3    3    0    0 -0.41322282531E+02  0.21335333430E+02 -0.40769976357E+02  0.61845925155E+02  0.00000000000E+00 0. -1.
        -13    1    4    4    0    0  0.16051091968E+02 -0.14789923999E+02 -0.58921235400E+02  0.62833839500E+02  0.00000000000E+00 0. -1.
         13    1    4    4    0    0  0.17738988452E+03  0.10104303529E+03 -0.11524390934E+04  0.11703814464E+04  0.00000000000E+00 0.  1.
         21    1    1    2  502  501  0.24742829031E+02 -0.15926733132E+03  0.10047401532E+03  0.18992977168E+03  0.00000000000E+00 0.  1.
<scales pt_clust_5="13000.00000" pt_clust_6="13000.00000" pt_clust_7="13000.00000" pt_clust_8="13000.00000" pt_clust_9="161.17782"></scales>
<clustering>
<clus scale="   88.919">  5  6 -1 -1</clus>
<clus scale="   92.559">  7  8 -1 -1</clus>
<clus scale="  161.178">  1  9  2 -1</clus>
<clus scale="  226.717">  1  5  2 -1</clus>
<clus scale="  228.169">  2  5  1 -1</clus>
</clustering>
</event>
<event>
 9    1  0.1748361E-005  0.1209263E+03  0.7546771E-02  0.1242173E+00
          2   -1    0    0  502    0  0.00000000000E+00  0.00000000000E+00  0.63521304043E+03  0.63521304043E+03  0.00000000000E+00 0. -1.
         -2   -1    0    0    0  501 -0.00000000000E+00 -0.00000000000E+00 -0.42165757397E+02  0.42165757397E+02  0.00000000000E+00 0.  1.
         23    2    1    2    0    0 -0.33192324299E+02  0.83891138566E+02  0.14011918134E+03  0.19002186825E+03  0.91298805637E+02 0.  0.
         23    2    1    2    0    0  0.12123099128E+02 -0.72430262926E+02  0.44723559432E+03  0.46270599532E+03  0.93188243673E+02 0.  0.
        -11    1    3    3    0    0 -0.53793974810E+01  0.74717668819E+02  0.38418216882E+02  0.84188047485E+02  0.00000000000E+00 0.  1.
         11    1    3    3    0    0 -0.27812926818E+02  0.91734697471E+01  0.10170096446E+03  0.10583382077E+03  0.00000000000E+00 0. -1.
        -13    1    4    4    0    0  0.46109642917E+02 -0.11829931077E+02  0.21972880373E+03  0.22482614089E+03  0.00000000000E+00 0.  1.
         13    1    4    4    0    0 -0.33986543789E+02 -0.60600331849E+02  0.22750679058E+03  0.23787985442E+03  0.00000000000E+00 0. -1.
         21    1    1    2  502  501  0.21069225171E+02 -0.11460875640E+02  0.56925073756E+01  0.24650934262E+02  0.00000000000E+00 0. -1.
<scales pt_clust_5="13000.00000" pt_clust_6="13000.00000" pt_clust_7="13000.00000" pt_clust_8="13000.00000" pt_clust_9="23.98466"></scales>
<clustering>
<clus scale="   23.985">  2  9  1 -1</clus>
<clus scale="   91.299">  5  6 -1 -1</clus>
<clus scale="   93.188">  7  8 -1 -1</clus>
<clus scale="  119.476">  2  5  1 -1</clus>
<clus scale="  120.926">  1  5  2 -1</clus>
</clustering>
</event>
<event>
 9    1  0.1748361E-005  0.9703486E+02  0.7546771E-02  0.1286783E+00
         -1   -1    0    0    0  501 -0.00000000000E+00  0.00000000000E+00  0.26577233451E+02  0.26577233451E+02  0.00000000000E+00 0.  1.
          1   -1    0    0  502    0  0.00000000000E+00 -0.00000000000E+00 -0.60235394269E+03  0.60235394269E+03  0.00000000000E+00 0. -1.
         23    2    1    2    0    0 -0.33865227702E+02 -0.23208391115E+02 -0.19075479828E+03  0.21535891214E+03  0.91140467992E+02 0.  0.
         23    2    1    2    0    0  0.32653650231E+02 -0.20106022971E+02 -0.19336024538E+03  0.21707340792E+03  0.90896462531E+02 0.  0.
        -11    1    4    4    0    0  0.47113937546E+02  0.22270547411E+02 -0.83352420900E+02  0.98302220030E+02  0.00000000000E+00 0.  1.
         11    1    4    4    0    0 -0.14460287315E+02 -0.42376570382E+02 -0.11000782448E+03  0.11877118789E+03  0.00000000000E+00 0. -1.
        -13    1    3    3    0    0 -0.50041026262E+02 -0.35368439871E+02 -0.18414015425E+03  0.19406861481E+03  0.00000000000E+00 0. -1.
         13    1    3    3    0    0  0.16175798560E+02  0.12160048756E+02 -0.66146440369E+01  0.21290297333E+02  0.00000000000E+00 0.  1.
         21    1    1    2  502  501  0.12115774711E+01  0.43314414086E+02 -0.19166166558E+03  0.19649885608E+03  0.00000000000E+00 0.  1.
<scales pt_clust_5="13000.00000" pt_clust_6="13000.00000" pt_clust_7="13000.00000" pt_clust_8="13000.00000" pt_clust_9="43.33136"></scales>
<clustering>
<clus scale="   43.331">  2  9  1 -1</clus>
<clus scale="   90.896">  5  6 -1 -1</clus>
<clus scale="   91.140">  7  8 -1 -1</clus>
<clus scale="   96.806">  2  5  1 -1</clus>
<clus scale="   43.331">  2  5  1 -1</clus>
</clustering>
</event>
<event>
 9    1  0.1748361E-005  0.1030565E+03  0.7546771E-02  0.1275821E+00
         -1   -1    0    0    0  501 -0.00000000000E+00  0.00000000000E+00  0.23124561134E+02  0.23124561134E+02  0.00000000000E+00 0.  1.
          1   -1    0    0  502    0  0.00000000000E+00 -0.00000000000E+00 -0.68922846322E+03  0.68922846322E+03  0.00000000000E+00 0. -1.
         23    2    1    2    0    0  0.33959563794E+02 -0.18612191301E+02 -0.17473951339E+03  0.20192056975E+03  0.93479159768E+02 0.  0.
         23    2    1    2    0    0 -0.47574311032E+02 -0.10291957465E+02 -0.42084573079E+03  0.43301351460E+03  0.89556324418E+02 0.  0.
        -13    1    3    3    0    0 -0.20063263885E+02  0.24657357136E+02 -0.60693209507E+02  0.68514126273E+02  0.00000000000E+00 0.  1.
         13    1    3    3    0    0  0.54022827679E+02 -0.43269548436E+02 -0.11404630388E+03  0.13340644347E+03  0.00000000000E+00 0. -1.
        -13    1    4    4    0    0 -0.35992073208E+02 -0.46944137731E+02 -0.31254507386E+03  0.31809370411E+03  0.00000000000E+00 0. -1.
         13    1    4    4    0    0 -0.11582237824E+02  0.36652180266E+02 -0.10830065693E+03  0.11491981049E+03  0.00000000000E+00 0.  1.
         21    1    1    2  502  501  0.13614747238E+02  0.28904148766E+02 -0.70518657912E+02  0.77418940008E+02  0.00000000000E+00 0. -1.
<scales pt_clust_5="13000.00000" pt_clust_6="13000.00000" pt_clust_7="13000.00000" pt_clust_8="13000.00000" pt_clust_9="31.95014"></scales>
<clustering>
<clus scale="   31.950">  1  9  2 -1</clus>
<clus scale="   89.556">  7  8 -1 -1</clus>
<clus scale="   93.479">  5  6 -1 -1</clus>
<clus scale="   99.512">  2  7  1 -1</clus>
<clus scale="   99.512">  2  5  1 -1</clus>
</clustering>
</event>
<event>
 9    1  0.1748361E-005  0.1365517E+03  0.7546771E-02  0.1221027E+00
         -1   -1    0    0    0  501 -0.00000000000E+00  0.00000000000E+00  0.27763586895E+03  0.27763586895E+03  0.00000000000E+00 0.  1.
          1   -1    0    0  502    0  0.00000000000E+00 -0.00000000000E+00 -0.17352872696E+03  0.17352872696E+03  0.00000000000E+00 0. -1.
         23    2    1    2    0    0  0.16824884333E+02  0.11019642351E+03  0.20375929907E+03  0.25258092389E+03  0.99261990042E+02 0.  0.
         23    2    1    2    0    0 -0.51643595017E+01 -0.91510902095E+02 -0.11549197886E+03  0.17145404792E+03  0.87505300159E+02 0.  0.
        -11    1    3    3    0    0 -0.33457262736E+02  0.18971493033E+02  0.92463548577E+02  0.10014396534E+03  0.00000000000E+00 0. -1.
         11    1    3    3    0    0  0.50282147069E+02  0.91224930482E+02  0.11129575049E+03  0.15243695855E+03  0.00000000000E+00 0.  1.
        -13    1    4    4    0    0  0.32261682203E+02 -0.80694035066E+02 -0.70225754435E+02  0.11173182188E+03  0.00000000000E+00 0. -1.
         13    1    4    4    0    0 -0.37426041704E+02 -0.10816867029E+02 -0.45266224425E+02  0.59722226044E+02  0.00000000000E+00 0.  1.
         21    1    1    2  502  501 -0.11660524831E+02 -0.18685521420E+02  0.15839821777E+02  0.27129624104E+02  0.00000000000E+00 0. -1.
<scales pt_clust_5="13000.00000" pt_clust_6="13000.00000" pt_clust_7="13000.00000" pt_clust_8="13000.00000" pt_clust_9="22.02536"></scales>
<clustering>
<clus scale="   22.025">  1  9  2 -1</clus>
<clus scale="   87.505">  7  8 -1 -1</clus>
<clus scale="   99.262">  5  6 -1 -1</clus>
<clus scale="  128.260">  2  7  1 -1</clus>
<clus scale="  128.260">  2  5  1 -1</clus>
</clustering>
</event>
<event>
 9    1  0.1748361E-005  0.1116197E+03  0.7546771E-02  0.1258186E+00
          1   -1    0    0  502    0  0.00000000000E+00  0.00000000000E+00  0.16759015592E+03  0.16759015592E+03  0.00000000000E+00 0. -1.
         -1   -1    0    0    0  501 -0.00000000000E+00 -0.00000000000E+00 -0.11650828925E+03  0.11650828925E+03  0.00000000000E+00 0.  1.
         23    2    1    2    0    0  0.38297356574E+02 -0.13555739151E+02  0.20150998018E+01  0.99859493212E+02  0.91199847438E+02 0.  0.
         23    2    1    2    0    0 -0.71597007353E+02  0.28542882438E+02  0.72632610936E+02  0.14077827763E+03  0.92748044080E+02 0.  0.
        -11    1    4    4    0    0 -0.33199939576E+02  0.32735725561E+02  0.87695735169E+02  0.99319714472E+02  0.00000000000E+00 0. -1.
         11    1    4    4    0    0 -0.38397067778E+02 -0.41928431229E+01 -0.15063124233E+02  0.41458563157E+02  0.00000000000E+00 0.  1.
        -11    1    3    3    0    0 -0.94941735018E+01 -0.36245349885E+02 -0.20099930117E+02  0.42519077007E+02  0.00000000000E+00 0.  1.
         11    1    3    3    0    0  0.47791530076E+02  0.22689610734E+02  0.22115029919E+02  0.57340416205E+02  0.00000000000E+00 0. -1.
         21    1    1    2  502  501  0.33299650779E+02 -0.14987143287E+02 -0.23565844069E+02  0.43460674323E+02  0.00000000000E+00 0. -1.
<scales pt_clust_5="13000.00000" pt_clust_6="13000.00000" pt_clust_7="13000.00000" pt_clust_8="13000.00000" pt_clust_9="36.51686"></scales>
<clustering>
<clus scale="   36.517">  2  9  1 -1</clus>
<clus scale="   91.200">  7  8 -1 -1</clus>
<clus scale="   92.748">  5  6 -1 -1</clus>
<clus scale="  110.337">  2  7  1 -1</clus>
<clus scale="  111.620">  1  5  2 -1</clus>
</clustering>
</event>
<event>
 9    1  0.1748361E-005  0.1226656E+03  0.7546771E-02  0.1239149E+00
         -1   -1    0    0    0  501 -0.00000000000E+00  0.00000000000E+00  0.13504504669E+03  0.13504504669E+03  0.00000000000E+00 0.  1.
          1   -1    0    0  502    0  0.00000000000E+00 -0.00000000000E+00 -0.14867598913E+03  0.14867598913E+03  0.00000000000E+00 0. -1.
         23    2    1    2    0    0 -0.79391001581E+02 -0.42317596331E+02 -0.81069137139E+01  0.12857955970E+03  0.91505579243E+02 0.  0.
         23    2    1    2    0    0  0.74259170386E+02  0.18075850526E+02 -0.28198033901E+02  0.12155415050E+03  0.90217080585E+02 0.  0.
        -11    1    3    3    0    0 -0.75907927205E+02 -0.68283951574E+02 -0.74392322503E+01  0.10237213308E+03  0.00000000000E+00 0.  1.
         11    1    3    3    0    0 -0.34830743762E+01  0.25966355243E+02 -0.66768146354E+00  0.26207426624E+02  0.00000000000E+00 0. -1.
        -13    1    4    4    0    0  0.24954516443E+02 -0.24920719982E+02  0.19772652585E+02  0.40431769261E+02  0.00000000000E+00 0.  1.
         13    1    4    4    0    0  0.49304653943E+02  0.42996570508E+02 -0.47970686487E+02  0.81122381239E+02  0.00000000000E+00 0. -1.
         21    1    1    2  502  501  0.51318311955E+01  0.24241745805E+02  0.22674005175E+02  0.33587325612E+02  0.00000000000E+00 0. -1.
<scales pt_clust_5="13000.00000" pt_clust_6="13000.00000" pt_clust_7="13000.00000" pt_clust_8="13000.00000" pt_clust_9="24.77898"></scales>
<clustering>
<clus scale="   24.779">  1  9  2 -1</clus>
<clus scale="   90.217">  7  8 -1 -1</clus>
<clus scale="   91.506">  5  6 -1 -1</clus>
<clus scale="  121.707">  2  7  1 -1</clus>
<clus scale="  121.707">  2  5  1 -1</clus>
</clustering>
</event>
<event>
 9    1  0.1748361E-005  0.9472870E+02  0.7546771E-02  0.1292691E+00
          1   -1    0    0  502    0  0.00000000000E+00  0.00000000000E+00  0.10272485204E+03  0.10272485204E+03  0.00000000000E+00 0. -1.
         -1   -1    0    0    0  501 -0.00000000000E+00 -0.00000000000E+00 -0.14598934519E+03  0.14598934519E+03  0.00000000000E+00 0.  1.
         23    2    1    2    0    0  0.23138828736E+02 -0.15916249046E+01 -0.49874637354E+02  0.10742492262E+03  0.92275109770E+02 0.  0.
         23    2    1    2    0    0  0.39275080577E+01  0.30046512738E+02  0.23676725253E+02  0.98469472917E+02  0.90650049811E+02 0.  0.
        -11    1    4    4    0    0  0.30523573361E+02  0.52452630884E+02  0.12700290530E+02  0.62002132197E+02  0.00000000000E+00 0. -1.
         11    1    4    4    0    0 -0.26596065303E+02 -0.22406118147E+02  0.10976434723E+02  0.36467340721E+02  0.00000000000E+00 0.  1.
        -13    1    3    3    0    0 -0.32967115990E+02 -0.16046741122E+02 -0.24974139724E+02  0.44362555070E+02  0.00000000000E+00 0.  1.
         13    1    3    3    0    0  0.56105944726E+02  0.14455116218E+02 -0.24900497629E+02  0.63062367547E+02  0.00000000000E+00 0. -1.
         21    1    1    2  502  501 -0.27066336794E+02 -0.28454887833E+02 -0.17066581045E+02  0.42819801700E+02  0.00000000000E+00 0. -1.
<scales pt_clust_5="13000.00000" pt_clust_6="13000.00000" pt_clust_7="13000.00000" pt_clust_8="13000.00000" pt_clust_9="39.27171"></scales>
<clustering>
<clus scale="   39.272">  2  9  1 -1</clus>
<clus scale="   90.650">  5  6 -1 -1</clus>
<clus scale="   92.275">  7  8 -1 -1</clus>
<clus scale="   93.146">  1  5  2 -1</clus>
<clus scale="   93.146">  1  5  2 -1</clus>
</clustering>
</event>
<event>
 9    1  0.1748361E-005  0.1226655E+03  0.7546771E-02  0.1239128E+00
          1   -1    0    0  502    0  0.00000000000E+00  0.00000000000E+00  0.19333779513E+03  0.19333779513E+03  0.00000000000E+00 0. -1.
         -1   -1    0    0    0  501 -0.00000000000E+00 -0.00000000000E+00 -0.48134518696E+03  0.48134518696E+03  0.00000000000E+00 0.  1.
         23    2    1    2    0    0  0.10280305584E+03  0.91427846920E+02 -0.56770030118E+02  0.17421397246E+03  0.90554692857E+02 0.  0.
         23    2    1    2    0    0 -0.68638852806E+02 -0.23092188901E+02  0.10496569137E+03  0.15569452126E+03  0.89322148884E+02 0.  0.
        -13    1    4    4    0    0 -0.52528113125E+02  0.23614032088E+02  0.27515211108E+02  0.63827204406E+02  0.00000000000E+00 0. -1.
         13    1    4    4    0    0 -0.16110739681E+02 -0.46706220990E+02  0.77450480263E+02  0.91867316849E+02  0.00000000000E+00 0.  1.
        -13    1    3    3    0    0  0.37039059997E+02 -0.14192727164E+02 -0.20299977236E+02  0.44557990817E+02  0.00000000000E+00 0.  1.
         13    1    3    3    0    0  0.65763995847E+02  0.10562057408E+03 -0.36470052882E+02  0.12965598165E+03  0.00000000000E+00 0. -1.
         21    1    1    2  502  501 -0.34164203039E+02 -0.68335658019E+02 -0.33620305309E+03  0.34477448837E+03  0.00000000000E+00 0.  1.
<scales pt_clust_5="13000.00000" pt_clust_6="13000.00000" pt_clust_7="13000.00000" pt_clust_8="13000.00000" pt_clust_9="76.39997"></scales>
<clustering>
<clus scale="   76.400">  2  9  1 -1</clus>
<clus scale="   89.322">  5  6 -1 -1</clus>
<clus scale="   90.555">  7  8 -1 -1</clus>
<clus scale="  121.758">  1  5  2 -1</clus>
<clus scale="  121.758">  1  5  2 -1</clus>
</clustering>
</event>
<event>
 9    1  0.1748361E-005  0.1202271E+03  0.7546771E-02  0.1244643E+00
          1   -1    0    0  502    0  0.00000000000E+00  0.00000000000E+00  0.40444477407E+02  0.40444477407E+02  0.00000000000E+00 0. -1.
         -1   -1    0    0    0  501 -0.00000000000E+00 -0.00000000000E+00 -0.54753244843E+03  0.54753244843E+03  0.00000000000E+00 0.  1.
         23    2    1    2    0    0 -0.55588568705E+02 -0.22449968807E+02 -0.20821334541E+03  0.23685172680E+03  0.95665318748E+02 0.  0.
         23    2    1    2    0    0  0.56745433207E+02  0.63704847741E+02 -0.13989789508E+03  0.18687872503E+03  0.89854799576E+02 0.  0.
        -11    1    4    4    0    0  0.81945949909E+01  0.72840725836E+02 -0.70574518252E+02  0.10175306066E+03  0.00000000000E+00 0. -1.
         11    1    4    4    0    0  0.48550838216E+02 -0.91358780957E+01 -0.69323376825E+02  0.85125664370E+02  0.00000000000E+00 0.  1.
        -11    1    3    3    0    0 -0.32978156125E+02 -0.19474223767E+02 -0.21047807732E+03  0.21393416091E+03  0.00000000000E+00 0.  1.
         11    1    3    3    0    0 -0.22610412580E+02 -0.29757450404E+01  0.22647319108E+01  0.22917565887E+02  0.00000000000E+00 0. -1.
         21    1    1    2  502  501 -0.11568645021E+01 -0.41254878933E+02 -0.15897673054E+03  0.16424647401E+03  0.00000000000E+00 0.  1.
<scales pt_clust_5="13000.00000" pt_clust_6="13000.00000" pt_clust_7="13000.00000" pt_clust_8="13000.00000" pt_clust_9="41.27110"></scales>
<clustering>
<clus scale="   41.271">  2  9  1 -1</clus>
<clus scale="   89.855">  5  6 -1 -1</clus>
<clus scale="   95.665">  7  8 -1 -1</clus>
<clus scale="  115.657">  1  5  2 -1</clus>
<clus scale="  115.657">  1  5  2 -1</clus>
</clustering>
</event>
<event>
 9    1  0.1748361E-005  0.1163131E+03  0.7546771E-02  0.1249447E+00
         -2   -1    0    0    0  501 -0.00000000000E+00  0.00000000000E+00  0.17371823674E+03  0.17371823674E+03  0.00000000000E+00 0.  1.
          2   -1    0    0  502    0  0.00000000000E+00 -0.00000000000E+00 -0.40116276895E+03  0.40116276895E+03  0.00000000000E+00 0. -1.
         23    2    1    2    0    0 -0.31604580110E+02 -0.24100025471E+01  0.12567173487E+03  0.15951934876E+03  0.92996667075E+02 0.  0.
         23    2    1    2    0    0  0.69611636828E+02 -0.20456665185E+02 -0.35184560862E+03  0.37098784228E+03  0.92587211216E+02 0.  0.
        -11    1    4    4    0    0 -0.18061601572E+02 -0.11959661497E+02 -0.28141670486E+02  0.35513498450E+02  0.00000000000E+00 0.  1.
         11    1    4    4    0    0  0.87673238400E+02 -0.84970036884E+01 -0.32370393813E+03  0.33547434383E+03  0.00000000000E+00 0. -1.
        -11    1    3    3    0    0 -0.35210058886E+02 -0.22690823742E+02  0.13158270659E+03  0.13808921175E+03  0.00000000000E+00 0.  1.
         11    1    3    3    0    0  0.36054787762E+01  0.20280821195E+02 -0.59109717174E+01  0.21430137008E+02  0.00000000000E+00 0. -1.
         21    1    1    2  502  501 -0.38007056718E+02  0.22866667732E+02 -0.12706584612E+01  0.44373814649E+02  0.00000000000E+00 0.  1.
<scales pt_clust_5="13000.00000" pt_clust_6="13000.00000" pt_clust_7="13000.00000" pt_clust_8="13000.00000" pt_clust_9="44.35562"></scales>
<clustering>
<clus scale="   44.356">  1  9  2 -1</clus>
<clus scale="   92.587">  5  6 -1 -1</clus>
<clus scale="   92.997">  7  8 -1 -1</clus>
<clus scale="  115.986">  2  5  1 -1</clus>
<clus scale="  115.986">  2  5  1 -1</clus>
</clustering>
</event>
<event>
 9    1  0.1748361E-005  0.1048052E+03  0.7546771E-02  0.1271222E+00
          1   -1    0    0  502    0  0.00000000000E+00  0.00000000000E+00  0.26288680731E+03  0.26288680731E+03  0.00000000000E+00 0. -1.
         -1   -1    0    0    0  501 -0.00000000000E+00 -0.00000000000E+00 -0.89505508841E+02  0.89505508841E+02  0.00000000000E+00 0.  1.
         23    2    1    2    0    0  0.47873766489E+02 -0.26321926318E+02  0.26576457865E+02  0.11089224582E+03  0.92768748768E+02 0.  0.
         23    2    1    2    0    0 -0.47734785130E+02  0.43581458578E+01  0.17663355090E+03  0.20445713678E+03  0.91135647969E+02 0.  0.
        -11    1    3    3    0    0  0.32346054411E+02 -0.44215282144E+02  0.52426858454E+02  0.75827659191E+02  0.00000000000E+00 0. -1.
         11    1    3    3    0    0  0.15527712078E+02  0.17893355826E+02 -0.25850400588E+02  0.35064586632E+02  0.00000000000E+00 0.  1.
        -13    1    4    4    0    0 -0.71834850124E+02  0.38049988167E+01  0.15922906037E+03  0.17472440407E+03  0.00000000000E+00 0.  1.
         13    1    4    4    0    0  0.24100064994E+02  0.55314704109E+00  0.17404490529E+02  0.29732732719E+02  0.00000000000E+00 0. -1.
         21    1    1    2  502  501 -0.13898135960E+00  0.21963780460E+02 -0.29828710295E+02  0.37042933547E+02  0.00000000000E+00 0.  1.
<scales pt_clust_5="13000.00000" pt_clust_6="13000.00000" pt_clust_7="13000.00000" pt_clust_8="13000.00000" pt_clust_9="21.96422"></scales>
<clustering>
<clus scale="   21.964">  2  9  1 -1</clus>
<clus scale="   91.136">  7  8 -1 -1</clus>
<clus scale="   92.769">  5  6 -1 -1</clus>
<clus scale="  103.362">  1  7  2 -1</clus>
<clus scale="  103.362">  1  5  2 -1</clus>
</clustering>
</event>
<event>
 9    1  0.1748361E-005  0.1132829E+03  0.7546771E-02  0.1255070E+00
          2   -1    0    0  502    0  0.00000000000E+00  0.00000000000E+00  0.12279905789E+03  0.12279905789E+03  0.00000000000E+00 0. -1.
         -2   -1    0    0    0  501 -0.00000000000E+00 -0.00000000000E+00 -0.14022802741E+03  0.14022802741E+03  0.00000000000E+00 0.  1.
         23    2    1    2    0    0 -0.45265257533E+00 -0.54132826066E+02 -0.13941131678E+02  0.10656555908E+03  0.90726487192E+02 0.  0.
         23    2    1    2    0    0  0.11966220126E+02  0.75364216346E+02  0.21791406650E+02  0.12149905529E+03  0.92001084248E+02 0.  0.
        -11    1    4    4    0    0 -0.20939839392E+02  0.83077327565E+02  0.13958088773E+02  0.86805227212E+02  0.00000000000E+00 0.  1.
         11    1    4    4    0    0  0.32906059518E+02 -0.77131112196E+01  0.78333178777E+01  0.34693828077E+02  0.00000000000E+00 0. -1.
        -13    1    3    3    0    0  0.16032448073E+02 -0.66597488052E+02 -0.35116066394E+02  0.76976638827E+02  0.00000000000E+00 0. -1.
         13    1    3    3    0    0 -0.16485100648E+02  0.12464661986E+02  0.21174934715E+02  0.29588920258E+02  0.00000000000E+00 0.  1.
         21    1    1    2  502  501 -0.11513567551E+02 -0.21231390280E+02 -0.25279244495E+02  0.34962470925E+02  0.00000000000E+00 0. -1.
<scales pt_clust_5="13000.00000" pt_clust_6="13000.00000" pt_clust_7="13000.00000" pt_clust_8="13000.00000" pt_clust_9="24.15231"></scales>
<clustering>
<clus scale="   24.152">  2  9  1 -1</clus>
<clus scale="   90.726">  7  8 -1 -1</clus>
<clus scale="   92.001">  5  6 -1 -1</clus>
<clus scale="  112.250">  2  7  1 -1</clus>
<clus scale="  113.283">  1  5  2 -1</clus>
</clustering>
</event>
<event>
 9    1  0.1748361E-005  0.1144311E+03  0.7546771E-02  0.1252842E+00
          4   -1    0    0  502    0  0.00000000000E+00  0.00000000000E+00  0.44773861300E+03  0.44773861300E+03  0.00000000000E+00 0. -1.
         -4   -1    0    0    0  501 -0.00000000000E+00 -0.00000000000E+00 -0.71855745276E+02  0.71855745276E+02  0.00000000000E+00 0.  1.
         23    2    1    2    0    0 -0.45780974457E+02  0.21903993347E+02  0.10065203044E+03  0.14519043961E+03  0.91508196219E+02 0.  0.
         23    2    1    2    0    0  0.63880413402E+02 -0.44780517320E+02  0.30805849908E+03  0.33048831302E+03  0.90755078328E+02 0.  0.
        -11    1    3    3    0    0 -0.41182031355E+02  0.46724359218E+02  0.28016930470E+02  0.68294024950E+02  0.00000000000E+00 0. -1.
         11    1    3    3    0    0 -0.45989431020E+01 -0.24820365871E+02  0.72635099974E+02  0.76896414662E+02  0.00000000000E+00 0.  1.
        -13    1    4    4    0    0  0.31699465312E+02  0.24899131092E+02  0.14087705406E+03  0.14653043094E+03  0.00000000000E+00 0. -1.
         13    1    4    4    0    0  0.32180948090E+02 -0.69679648412E+02  0.16718144502E+03  0.18395788209E+03  0.00000000000E+00 0.  1.
         21    1    1    2  502  501 -0.18099438944E+02  0.22876523973E+02 -0.32827661802E+02  0.43915605638E+02  0.00000000000E+00 0.  1.
<scales pt_clust_5="13000.00000" pt_clust_6="13000.00000" pt_clust_7="13000.00000" pt_clust_8="13000.00000" pt_clust_9="29.17062"></scales>
<clustering>
<clus scale="   29.171">  2  9  1 -1</clus>
<clus scale="   90.755">  7  8 -1 -1</clus>
<clus scale="   91.508">  5  6 -1 -1</clus>
<clus scale="  113.830">  1  7  2 -1</clus>
<clus scale="  113.830">  1  5  2 -1</clus>
</clustering>
</event>
<event>
 9    1  0.1748361E-005  0.9630108E+02  0.7546771E-02  0.1288277E+00
         -2   -1    0    0    0  501 -0.00000000000E+00  0.00000000000E+00  0.68491578067E+02  0.68491578067E+02  0.00000000000E+00 0.  1.
          2   -1    0    0  502    0  0.00000000000E+00 -0.00000000000E+00 -0.18322013464E+03  0.18322013464E+03  0.00000000000E+00 0. -1.
         23    2    1    2    0    0 -0.81500157271E+01  0.13936308523E+02 -0.19286852856E+02  0.94923989239E+02  0.91531074441E+02 0.  0.
         23    2    1    2    0    0  0.94063857224E+01 -0.37222860690E+02 -0.86972382745E+02  0.13197701257E+03  0.91540783460E+02 0.  0.
        -11    1    4    4    0    0  0.38632168399E+02 -0.49790979341E+02 -0.38038107936E+02  0.73610350592E+02  0.00000000000E+00 0. -1.
         11    1    4    4    0    0 -0.29225782676E+02  0.12568118651E+02 -0.48934274809E+02  0.58366661979E+02  0.00000000000E+00 0.  1.
        -11    1    3    3    0    0 -0.17842362046E+02 -0.30118023706E+02  0.15179289309E+02  0.38155681874E+02  0.00000000000E+00 0.  1.
         11    1    3    3    0    0  0.96923463184E+01  0.44054332229E+02 -0.34466142165E+02  0.56768307365E+02  0.00000000000E+00 0. -1.
         21    1    1    2  502  501 -0.12563699952E+01  0.23286552167E+02 -0.84693209680E+01  0.24810710893E+02  0.00000000000E+00 0. -1.
<scales pt_clust_5="13000.00000" pt_clust_6="13000.00000" pt_clust_7="13000.00000" pt_clust_8="13000.00000" pt_clust_9="23.32042"></scales>
<clustering>
<clus scale="   23.320">  1  9  2 -1</clus>
<clus scale="   91.531">  7  8 -1 -1</clus>
<clus scale="   91.541">  5  6 -1 -1</clus>
<clus scale="   96.292">  1  7  2 -1</clus>
<clus scale="   96.301">  2  5  1 -1</clus>
</clustering>
</event>
<event>
 9    1  0.1748361E-005  0.1125911E+03  0.7546771E-02  0.1259715E+00
          1   -1    0    0  502    0  0.00000000000E+00  0.00000000000E+00  0.61299461173E+02  0.61299461173E+02  0.00000000000E+00 0. -1.
         -1   -1    0    0    0  501 -0.00000000000E+00 -0.00000000000E+00 -0.35047494055E+03  0.35047494055E+03  0.00000000000E+00 0.  1.
         23    2    1    2    0    0  0.35664634673E+02  0.10822640902E+02 -0.11045667633E+03  0.15448980219E+03  0.10137714690E+03 0.  0.
         23    2    1    2    0    0 -0.52326585048E+02  0.39629772515E+02 -0.61851852837E+02  0.12890644461E+03  0.92101191033E+02 0.  0.
        -11    1    3    3    0    0  0.67372965207E+02 -0.59340446416E+01 -0.91913648841E+02  0.11411594179E+03  0.00000000000E+00 0.  1.
         11    1    3    3    0    0 -0.31708330534E+02  0.16756685543E+02 -0.18543027486E+02  0.40373860405E+02  0.00000000000E+00 0. -1.
        -13    1    4    4    0    0 -0.32443559824E+02 -0.27647645163E+02 -0.28106269664E+02  0.51058194754E+02  0.00000000000E+00 0.  1.
         13    1    4    4    0    0 -0.19883025224E+02  0.67277417679E+02 -0.33745583173E+02  0.77848249853E+02  0.00000000000E+00 0. -1.
         21    1    1    2  502  501  0.16661950375E+02 -0.50452413417E+02 -0.11686695021E+03  0.12837815492E+03  0.00000000000E+00 0.  1.
<scales pt_clust_5="13000.00000" pt_clust_6="13000.00000" pt_clust_7="13000.00000" pt_clust_8="13000.00000" pt_clust_9="53.13254"></scales>
<clustering>
<clus scale="   53.133">  2  9  1 -1</clus>
<clus scale="   92.101">  7  8 -1 -1</clus>
<clus scale="  101.377">  5  6 -1 -1</clus>
<clus scale="  104.317">  1  7  2 -1</clus>
<clus scale="  104.317">  1  5  2 -1</clus>
</clustering>
</event>
<event>
 9    1  0.1748361E-005  0.1095259E+03  0.7546771E-02  0.1267590E+00
          2   -1    0    0  502    0  0.00000000000E+00  0.00000000000E+00  0.10635557555E+03  0.10635557555E+03  0.00000000000E+00 0. -1.
         -2   -1    0    0    0  501 -0.00000000000E+00 -0.00000000000E+00 -0.29810654694E+03  0.29810654694E+03  0.00000000000E+00 0.  1.
         23    2    1    2    0    0  0.12734186634E+02  0.21493027055E+02 -0.15033645872E+03  0.17788572992E+03  0.91750598745E+02 0.  0.
         23    2    1    2    0    0 -0.31332326894E+02 -0.13744822627E+02  0.58419839769E+02  0.12472933360E+03  0.10475635601E+03 0.  0.
        -11    1    3    3    0    0 -0.35291825274E+02  0.28851747333E+02 -0.85154388521E+02  0.96587815690E+02  0.00000000000E+00 0. -1.
         11    1    3    3    0    0  0.48026011908E+02 -0.73587202775E+01 -0.65182070195E+02  0.81297914234E+02  0.00000000000E+00 0.  1.
        -11    1    4    4    0    0 -0.67638933939E+02  0.29831018144E+01  0.23551157115E+02  0.71683898348E+02  0.00000000000E+00 0. -1.
         11    1    4    4    0    0  0.36306607046E+02 -0.16727924441E+02  0.34868682654E+02  0.53045435254E+02  0.00000000000E+00 0.  1.
         21    1    1    2  502  501  0.18598140260E+02 -0.77482044287E+01 -0.99834352444E+02  0.10184705897E+03  0.00000000000E+00 0.  1.
<scales pt_clust_5="13000.00000" pt_clust_6="13000.00000" pt_clust_7="13000.00000" pt_clust_8="13000.00000" pt_clust_9="20.14759"></scales>
<clustering>
<clus scale="   20.148">  2  9  1 -1</clus>
<clus scale="   91.751">  5  6 -1 -1</clus>
<clus scale="   97.161">  2  5  1 -1</clus>
<clus scale="  104.756">  7  8 -1 -1</clus>
<clus scale="  109.526">  1  5  2 -1</clus>
</clustering>
</event>
<event>
 9    1  0.1748361E-005  0.2270518E+03  0.7546771E-02  0.1129525E+00
          1   -1    0    0  502    0  0.00000000000E+00  0.00000000000E+00  0.12896049732E+03  0.12896049732E+03  0.00000000000E+00 0. -1.
         -1   -1    0    0    0  501 -0.00000000000E+00 -0.00000000000E+00 -0.58062220372E+03  0.58062220372E+03  0.00000000000E+00 0.  1.
         23    2    1    2    0    0  0.15265049675E+02 -0.21931459322E+03 -0.36390064828E+03  0.43569013176E+03  0.95238104530E+02 0.  0.
         23    2    1    2    0    0 -0.37372017821E+02  0.19831989381E+03 -0.48183641873E+02  0.22393391316E+03  0.84245392289E+02 0.  0.
        -13    1    4    4    0    0  0.26287352485E+02  0.39121915998E+02 -0.75997044132E+01  0.47742064463E+02  0.00000000000E+00 0.  1.
         13    1    4    4    0    0 -0.63659370306E+02  0.15919797781E+03 -0.40583937459E+02  0.17619184870E+03  0.00000000000E+00 0. -1.
        -13    1    3    3    0    0  0.55362575644E+02 -0.14117808962E+03 -0.23698267777E+03  0.28134864018E+03  0.00000000000E+00 0. -1.
         13    1    3    3    0    0 -0.40097525969E+02 -0.78136503601E+02 -0.12691797051E+03  0.15434149157E+03  0.00000000000E+00 0.  1.
         21    1    1    2  502  501  0.22106968146E+02  0.20994699411E+02 -0.39577416253E+02  0.49958656119E+02  0.00000000000E+00 0. -1.
<scales pt_clust_5="13000.00000" pt_clust_6="13000.00000" pt_clust_7="13000.00000" pt_clust_8="13000.00000" pt_clust_9="30.48763"></scales>
<clustering>
<clus scale="   30.488">  2  9  1 -1</clus>
<clus scale="   84.245">  5  6 -1 -1</clus>
<clus scale="   95.238">  7  8 -1 -1</clus>
<clus scale="  222.665">  1  5  2 -1</clus>
<clus scale="  222.665">  1  5  2 -1</clus>
</clustering>
</event>
<event>
 9    1  0.1748361E-005  0.1027571E+03  0.7546771E-02  0.1274785E+00
         -3   -1    0    0    0  501 -0.00000000000E+00  0.00000000000E+00  0.33860536063E+03  0.33860536063E+03  0.00000000000E+00 0.  1.
          3   -1    0    0  502    0  0.00000000000E+00 -0.00000000000E+00 -0.52865196646E+02  0.52865196646E+02  0.00000000000E+00 0. -1.
         23    2    1    2    0    0  0.56829492780E+02 -0.15635580341E+02  0.10277794363E+03  0.14949093459E+03  0.91160140444E+02 0.  0.
         23    2    1    2    0    0 -0.32626692033E+02  0.24575867297E+02  0.59722404489E+02  0.11606792144E+03  0.90755289123E+02 0.  0.
        -11    1    4    4    0    0 -0.21800161264E+02  0.58016485039E+02  0.49908749303E+02  0.79574134142E+02  0.00000000000E+00 0.  1.
         11    1    4    4    0    0 -0.10826530769E+02 -0.33440617743E+02  0.98136551862E+01  0.36493787301E+02  0.00000000000E+00 0. -1.
        -13    1    3    3    0    0  0.85118317792E+01  0.29629153555E+02  0.47386261877E+01  0.31189623255E+02  0.00000000000E+00 0.  1.
         13    1    3    3    0    0  0.48317661001E+02 -0.45264733896E+02  0.98039317442E+02  0.11830131134E+03  0.00000000000E+00 0. -1.
         21    1    1    2  502  501 -0.24202800747E+02 -0.89402869560E+01  0.12323981587E+03  0.12591170124E+03  0.00000000000E+00 0.  1.
<scales pt_clust_5="13000.00000" pt_clust_6="13000.00000" pt_clust_7="13000.00000" pt_clust_8="13000.00000" pt_clust_9="25.80125"></scales>
<clustering>
<clus scale="   25.801">  1  9  2 -1</clus>
<clus scale="   90.755">  5  6 -1 -1</clus>
<clus scale="   91.160">  7  8 -1 -1</clus>
<clus scale="  102.398">  2  5  1 -1</clus>
<clus scale="  102.398">  2  5  1 -1</clus>
</clustering>
</event>
<event>
 9    1  0.1748361E-005  0.1498540E+03  0.7546771E-02  0.1205804E+00
          1   -1    0    0  502    0  0.00000000000E+00  0.00000000000E+00  0.47572308617E+03  0.47572308617E+03  0.00000000000E+00 0. -1.
         -1   -1    0    0    0  501 -0.00000000000E+00 -0.00000000000E+00 -0.25388592560E+03  0.25388592560E+03  0.00000000000E+00 0.  1.
         23    2    1    2    0    0  0.15258815238E+02 -0.95322580018E+02 -0.56972222725E+02  0.14418026398E+03  0.90680144765E+02 0.  0.
         23    2    1    2    0    0  0.19261055585E+02  0.97865956860E+02  0.41681155730E+03  0.44315193916E+03  0.11270773314E+03 0.  0.
        -11    1    3    3    0    0 -0.24127587286E+02 -0.59520606815E+01 -0.36878319452E+02  0.44469966721E+02  0.00000000000E+00 0. -1.
         11    1    3    3    0    0  0.39386402523E+02 -0.89370519336E+02 -0.20093903273E+02  0.99710297256E+02  0.00000000000E+00 0.  1.
        -13    1    4    4    0    0 -0.14798554851E+02 -0.15065635625E+02  0.19656583222E+02  0.28850508946E+02  0.00000000000E+00 0.  1.
         13    1    4    4    0    0  0.34059610436E+02  0.11293159248E+03  0.39715497407E+03  0.41430143021E+03  0.00000000000E+00 0. -1.
         21    1    1    2  502  501 -0.34519870822E+02 -0.25433768421E+01 -0.13800217400E+03  0.14227680863E+03  0.00000000000E+00 0.  1.
<scales pt_clust_5="13000.00000" pt_clust_6="13000.00000" pt_clust_7="13000.00000" pt_clust_8="13000.00000" pt_clust_9="34.61344"></scales>
<clustering>
<clus scale="   34.613">  2  9  1 -1</clus>
<clus scale="   90.680">  5  6 -1 -1</clus>
<clus scale="  112.708">  7  8 -1 -1</clus>
<clus scale="  134.075">  2  5  1 -1</clus>
<clus scale="  149.854">  1  5  2 -1</clus>
</clustering>
</event>
<event>
 9    1  0.1748361E-005  0.1735269E+03  0.7546771E-02  0.1174471E+00
          2   -1    0    0  502    0  0.00000000000E+00  0.00000000000E+00  0.25915059756E+03  0.25915059756E+03  0.00000000000E+00 0. -1.
         -2   -1    0    0    0  501 -0.00000000000E+00 -0.00000000000E+00 -0.33569229389E+03  0.33569229389E+03  0.00000000000E+00 0.  1.
         23    2    1    2    0    0 -0.13137641657E+02 -0.17737011148E+03  0.95922105172E+02  0.22147357034E+03  0.90646224544E+02 0.  0.
         23    2    1    2    0    0  0.14216135966E+02  0.11713007923E+03  0.37812062689E+02  0.15463211875E+03  0.92519111990E+02 0.  0.
        -13    1    3    3    0    0 -0.31235998638E+02 -0.34135009709E+02 -0.31488585885E+01  0.46376737802E+02  0.00000000000E+00 0.  1.
         13    1    3    3    0    0  0.18098356980E+02 -0.14323510177E+03  0.99070963761E+02  0.17509683254E+03  0.00000000000E+00 0. -1.
        -13    1    4    4    0    0  0.28673887487E+02  0.26677287601E+02 -0.22300075074E+02  0.45068424042E+02  0.00000000000E+00 0. -1.
         13    1    4    4    0    0 -0.14457751520E+02  0.90452791628E+02  0.60112137763E+02  0.10956369471E+03  0.00000000000E+00 0.  1.
         21    1    1    2  502  501 -0.10784943089E+01  0.60240032249E+02 -0.21027586419E+03  0.21873720236E+03  0.00000000000E+00 0.  1.
<scales pt_clust_5="13000.00000" pt_clust_6="13000.00000" pt_clust_7="13000.00000" pt_clust_8="13000.00000" pt_clust_9="60.24969"></scales>
<clustering>
<clus scale="   60.250">  2  9  1 -1</clus>
<clus scale="   90.646">  5  6 -1 -1</clus>
<clus scale="   92.519">  7  8 -1 -1</clus>
<clus scale="  172.536">  2  5  1 -1</clus>
<clus scale="  173.527">  1  5  2 -1</clus>
</clustering>
</event>
<event>
 9    1  0.1748361E-005  0.1277660E+03  0.7546771E-02  0.1241013E+00
          1   -1    0    0  502    0  0.00000000000E+00  0.00000000000E+00  0.27149984858E+03  0.27149984858E+03  0.00000000000E+00 0. -1.
         -1   -1    0    0    0  501 -0.00000000000E+00 -0.00000000000E+00 -0.16226922657E+03  0.16226922657E+03  0.00000000000E+00 0.  1.
         23    2    1    2    0    0  0.35898790181E+02 -0.27012520272E+02  0.54770360564E+01  0.12570530261E+03  0.11727500071E+03 0.  0.
         23    2    1    2    0    0 -0.52844522818E+02  0.59971475887E+01  0.19034777110E+03  0.21735899514E+03  0.90466288941E+02 0.  0.
        -11    1    3    3    0    0  0.17540088965E+02 -0.53754425923E+02 -0.40418377010E+02  0.69504231722E+02  0.00000000000E+00 0.  1.
         11    1    3    3    0    0  0.18358701216E+02  0.26741905651E+02  0.45895413066E+02  0.56201070885E+02  0.00000000000E+00 0. -1.
        -13    1    4    4    0    0 -0.24206986872E+02 -0.37300932444E+02  0.46084542565E+02  0.64040009666E+02  0.00000000000E+00 0.  1.
         13    1    4    4    0    0 -0.28637535946E+02  0.43298080033E+02  0.14426322853E+03  0.15331898547E+03  0.00000000000E+00 0. -1.
         21    1    1    2  502  501  0.16945732637E+02  0.21015372683E+02 -0.86594185147E+02  0.90704777409E+02  0.00000000000E+00 0.  1.
<scales pt_clust_5="13000.00000" pt_clust_6="13000.00000" pt_clust_7="13000.00000" pt_clust_8="13000.00000" pt_clust_9="26.99637"></scales>
<clustering>
<clus scale="   26.996">  2  9  1 -1</clus>
<clus scale="   90.466">  7  8 -1 -1</clus>
<clus scale="  103.706">  1  7  2 -1</clus>
<clus scale="  117.275">  5  6 -1 -1</clus>
<clus scale="  103.706">  1  5  2 -1</clus>
</clustering>
</event>
<event>
 9    1  0.3368833E-005  0.1881331E+03  0.7546771E-02  0.1160282E+00
          1   -1    0    0  502    0  0.00000000000E+00  0.00000000000E+00  0.10355599593E+04  0.10355599593E+04  0.00000000000E+00 0. -1.
         -1   -1    0    0    0  501 -0.00000000000E+00 -0.00000000000E+00 -0.32620888727E+03  0.32620888727E+03  0.00000000000E+00 0.  1.
         23    2    1    2    0    0  0.20789031189E+02  0.21460681944E+03 -0.19410898827E+03  0.30419115462E+03  0.91464137520E+02 0.  0.
         23    2    1    2    0    0 -0.95008861692E+01 -0.16163373735E+03  0.96077970109E+03  0.97871635246E+03  0.92586892454E+02 0.  0.
        -13    1    4    4    0    0  0.26369206222E+02 -0.12877582816E+02  0.92098552454E+02  0.96660801466E+02  0.00000000000E+00 0.  1.
         13    1    4    4    0    0 -0.35870092391E+02 -0.14875615453E+03  0.86868114864E+03  0.88205555100E+03  0.00000000000E+00 0. -1.
        -13    1    3    3    0    0  0.45919179949E+02  0.19929697861E+03 -0.16473292134E+03  0.26261148517E+03  0.00000000000E+00 0.  1.
         13    1    3    3    0    0 -0.25130148760E+02  0.15309840826E+02 -0.29376066930E+02  0.41579669444E+02  0.00000000000E+00 0. -1.
         21    1    1    2  502  501 -0.11288145020E+02 -0.52973082088E+02 -0.57319640793E+02  0.78861339480E+02  0.00000000000E+00 0. -1.
<scales pt_clust_5="13000.00000" pt_clust_6="13000.00000" pt_clust_7="13000.00000" pt_clust_8="13000.00000" pt_clust_9="54.16244"></scales>
<clustering>
<clus scale="   54.162">  2  9  1 -1</clus>
<clus scale="   91.464">  7  8 -1 -1</clus>
<clus scale="   92.587">  5  6 -1 -1</clus>
<clus scale="  187.583">  2  7  1 -1</clus>
<clus scale="  188.133">  1  5  2 -1</clus>
</clustering>
</event>
<event>
 9    1  0.1748361E-005  0.1023067E+03  0.7546771E-02  0.1276095E+00
          2   -1    0    0  502    0  0.00000000000E+00  0.00000000000E+00  0.16127469641E+02  0.16127469641E+02  0.00000000000E+00 0. -1.
         -2   -1    0    0    0  501 -0.00000000000E+00 -0.00000000000E+00 -0.79727266266E+03  0.79727266266E+03  0.00000000000E+00 0.  1.
         23    2    1    2    0    0  0.51880123367E+02 -0.28238854300E+02 -0.38770585176E+03  0.40239958000E+03  0.90114451698E+02 0.  0.
         23    2    1    2    0    0 -0.31949023044E+02  0.24638232516E+02 -0.30302953484E+03  0.31834988401E+03  0.88836744030E+02 0.  0.
        -11    1    3    3    0    0  0.76946529738E+02 -0.28415856322E+02 -0.31450976538E+03  0.32503018606E+03  0.00000000000E+00 0. -1.
         11    1    3    3    0    0 -0.25066406372E+02  0.17700202213E+00 -0.73196086377E+02  0.77369393943E+02  0.00000000000E+00 0.  1.
        -11    1    4    4    0    0 -0.41920728022E+02  0.52277862078E+02 -0.23197318308E+03  0.24145782234E+03  0.00000000000E+00 0.  1.
         11    1    4    4    0    0  0.99717049777E+01 -0.27639629562E+02 -0.71056351753E+02  0.76892061664E+02  0.00000000000E+00 0. -1.
         21    1    1    2  502  501 -0.19931100323E+02  0.36006217841E+01 -0.90409806416E+02  0.92650668284E+02  0.00000000000E+00 0.  1.
<scales pt_clust_5="13000.00000" pt_clust_6="13000.00000" pt_clust_7="13000.00000" pt_clust_8="13000.00000" pt_clust_9="20.25372"></scales>
<clustering>
<clus scale="   20.254">  2  9  1 -1</clus>
<clus scale="   88.837">  7  8 -1 -1</clus>
<clus scale="   90.114">  5  6 -1 -1</clus>
<clus scale="  101.183">  1  7  2 -1</clus>
<clus scale="  101.183">  1  5  2 -1</clus>
</clustering>
</event>
<event>
 9    1  0.1748361E-005  0.1576790E+03  0.7546771E-02  0.1194364E+00
         -1   -1    0    0    0  501 -0.00000000000E+00  0.00000000000E+00  0.16807457858E+03  0.16807457858E+03  0.00000000000E+00 0.  1.
          1   -1    0    0  502    0  0.00000000000E+00 -0.00000000000E+00 -0.22500039799E+03  0.22500039799E+03  0.00000000000E+00 0. -1.
         23    2    1    2    0    0  0.12976911270E+03 -0.21970422004E+02 -0.71413049838E+02  0.18390549168E+03  0.10676462020E+03 0.  0.
         23    2    1    2    0    0 -0.10034399355E+03  0.19425071119E+02 -0.43846504032E+02  0.14378492231E+03  0.91133624631E+02 0.  0.
        -11    1    3    3    0    0  0.66408420630E+02  0.40339094427E+02 -0.16469235068E+02  0.79426422389E+02  0.00000000000E+00 0.  1.
         11    1    3    3    0    0  0.63360692074E+02 -0.62309516432E+02 -0.54943814770E+02  0.10447906929E+03  0.00000000000E+00 0. -1.
        -13    1    4    4    0    0 -0.98863566496E+02 -0.60618499548E+01 -0.57810465630E+02  0.11468566057E+03  0.00000000000E+00 0.  1.
         13    1    4    4    0    0 -0.14804270547E+01  0.25486921073E+02  0.13963961598E+02  0.29099261736E+02  0.00000000000E+00 0. -1.
         21    1    1    2  502  501 -0.29425119154E+02  0.25453508858E+01  0.58333734458E+02  0.65384562583E+02  0.00000000000E+00 0.  1.
<scales pt_clust_5="13000.00000" pt_clust_6="13000.00000" pt_clust_7="13000.00000" pt_clust_8="13000.00000" pt_clust_9="29.53500"></scales>
<clustering>
<clus scale="   29.535">  1  9  2 -1</clus>
<clus scale="   91.134">  7  8 -1 -1</clus>
<clus scale="  106.765">  5  6 -1 -1</clus>
<clus scale="  147.544">  2  7  1 -1</clus>
<clus scale="  147.544">  2  5  1 -1</clus>
</clustering>
</event>
<event>
 9    1  0.1748361E-005  0.1067620E+03  0.7546771E-02  0.1271027E+00
         -2   -1    0    0    0  501 -0.00000000000E+00  0.00000000000E+00  0.54246670096E+02  0.54246670096E+02  0.00000000000E+00 0.  1.
          2   -1    0    0  502    0  0.00000000000E+00 -0.00000000000E+00 -0.29210164044E+03  0.29210164044E+03  0.00000000000E+00 0. -1.
         23    2    1    2    0    0 -0.34112035072E+02  0.59127304823E+01 -0.54205224165E+02  0.12040589934E+03  0.10178793126E+03 0.  0.
         23    2    1    2    0    0  0.27648259963E+02  0.25035904442E+02 -0.13651413509E+03  0.16918534798E+03  0.92716503934E+02 0.  0.
        -11    1    4    4    0    0  0.37861171218E+02 -0.26033289280E+02 -0.47721620324E+02  0.66246158251E+02  0.00000000000E+00 0.  1.
         11    1    4    4    0    0 -0.10212911255E+02  0.51069193722E+02 -0.88792514763E+02  0.10293918973E+03  0.00000000000E+00 0. -1.
        -13    1    3    3    0    0  0.34069453887E+02 -0.19654901216E+01 -0.20219085173E+01  0.34185946727E+02  0.00000000000E+00 0.  1.
         13    1    3    3    0    0 -0.68181488958E+02  0.78782206039E+01 -0.52183315648E+02  0.86219952612E+02  0.00000000000E+00 0. -1.
         21    1    1    2  502  501  0.64637751089E+01 -0.30948634925E+02 -0.47135611095E+02  0.56757063223E+02  0.00000000000E+00 0.  1.
<scales pt_clust_5="13000.00000" pt_clust_6="13000.00000" pt_clust_7="13000.00000" pt_clust_8="13000.00000" pt_clust_9="31.61643"></scales>
<clustering>
<clus scale="   31.616">  2  9  1 -1</clus>
<clus scale="   92.717">  5  6 -1 -1</clus>
<clus scale="   98.151">  2  5  1 -1</clus>
<clus scale="  101.788">  7  8 -1 -1</clus>
<clus scale="   31.616">  2  5  1 -1</clus>
</clustering>
</event>
<event>
 9    1  0.1748361E-005  0.9993996E+02  0.7546771E-02  0.1284326E+00
          3   -1    0    0  502    0  0.00000000000E+00  0.00000000000E+00  0.35367782372E+03  0.35367782372E+03  0.00000000000E+00 0. -1.
         -3   -1    0    0    0  501 -0.00000000000E+00 -0.00000000000E+00 -0.54782615047E+02  0.54782615047E+02  0.00000000000E+00 0.  1.
         23    2    1    2    0    0 -0.62933499846E+02  0.13079968508E+02  0.40562711556E+02  0.11295408887E+03  0.83555859422E+02 0.  0.
         23    2    1    2    0    0  0.33880784481E+02  0.88056012311E+01  0.22807797014E+03  0.24819488369E+03  0.91409483402E+02 0.  0.
        -11    1    3    3    0    0 -0.41928858783E+02 -0.16511526226E+02 -0.14210645624E+02  0.47250419535E+02  0.00000000000E+00 0.  1.
         11    1    3    3    0    0 -0.21004641063E+02  0.29591494734E+02  0.54773357181E+02  0.65703669332E+02  0.00000000000E+00 0. -1.
        -11    1    4    4    0    0 -0.12668477537E+02  0.39879952449E+02  0.92910889610E+02  0.10189864738E+03  0.00000000000E+00 0.  1.
         11    1    4    4    0    0  0.46549262017E+02 -0.31074351218E+02  0.13516708053E+03  0.14629623630E+03  0.00000000000E+00 0. -1.
         21    1    1    2  502  501  0.29052715365E+02 -0.21885569739E+02  0.30254526984E+02  0.47311466220E+02  0.00000000000E+00 0.  1.
<scales pt_clust_5="13000.00000" pt_clust_6="13000.00000" pt_clust_7="13000.00000" pt_clust_8="13000.00000" pt_clust_9="36.37360"></scales>
<clustering>
<clus scale="   36.374">  2  9  1 -1</clus>
<clus scale="   83.556">  5  6 -1 -1</clus>
<clus scale="   91.409">  7  8 -1 -1</clus>
<clus scale="   92.811">  2  5  1 -1</clus>
<clus scale="   99.940">  1  5  2 -1</clus>
</clustering>
</event>
<event>
 9    1  0.1748361E-005  0.9636798E+02  0.7546771E-02  0.1288521E+00
         -2   -1    0    0    0  501 -0.00000000000E+00  0.00000000000E+00  0.59738474164E+02  0.59738474164E+02  0.00000000000E+00 0.  1.
          2   -1    0    0  502    0  0.00000000000E+00 -0.00000000000E+00 -0.36056257042E+03  0.36056257042E+03  0.00000000000E+00 0. -1.
         23    2    1    2    0    0  0.31030547514E+02  0.31998238387E+02 -0.23458977892E+02  0.10556596160E+03  0.92774276964E+02 0.  0.
         23    2    1    2    0    0 -0.23498637607E+02 -0.34248220096E+01 -0.26701243702E+03  0.28342457674E+03  0.92032243255E+02 0.  0.
        -11    1    4    4    0    0  0.30583322849E+02  0.15725500925E+02 -0.66501568969E+02  0.74867146941E+02  0.00000000000E+00 0.  1.
         11    1    4    4    0    0 -0.54081960456E+02 -0.19150322935E+02 -0.20051086805E+03  0.20855742979E+03  0.00000000000E+00 0. -1.
        -13    1    3    3    0    0 -0.25264402638E+02  0.30441684026E+02 -0.28893392181E+02  0.48987899309E+02  0.00000000000E+00 0. -1.
         13    1    3    3    0    0  0.56294950151E+02  0.15565543609E+01  0.54344142898E+01  0.56578062292E+02  0.00000000000E+00 0.  1.
         21    1    1    2  502  501 -0.75319099065E+01 -0.28573416378E+02 -0.10352681342E+02  0.31310506245E+02  0.00000000000E+00 0. -1.
<scales pt_clust_5="13000.00000" pt_clust_6="13000.00000" pt_clust_7="13000.00000" pt_clust_8="13000.00000" pt_clust_9="29.54945"></scales>
<clustering>
<clus scale="   29.549">  1  9  2 -1</clus>
<clus scale="   92.032">  5  6 -1 -1</clus>
<clus scale="   92.774">  7  8 -1 -1</clus>
<clus scale="   95.654">  2  5  1 -1</clus>
<clus scale="   95.654">  2  5  1 -1</clus>
</clustering>
</event>
<event>
 9    1  0.1748361E-005  0.1036622E+03  0.7546771E-02  0.1273654E+00
         -2   -1    0    0    0  501 -0.00000000000E+00  0.00000000000E+00  0.11539059093E+03  0.11539059093E+03  0.00000000000E+00 0.  1.
          2   -1    0    0  502    0  0.00000000000E+00 -0.00000000000E+00 -0.15216246087E+03  0.15216246087E+03  0.00000000000E+00 0. -1.
         23    2    1    2    0    0  0.14121275955E+02  0.31039594529E+02  0.12525313763E+01  0.96612828344E+02  0.90385855656E+02 0.  0.
         23    2    1    2    0    0 -0.20643939916E+02 -0.50613768547E+02 -0.73388396548E+02  0.12999751235E+03  0.92334016742E+02 0.  0.
        -11    1    3    3    0    0  0.48299676659E+02  0.28101777235E+02  0.17635975256E+02  0.58596896440E+02  0.00000000000E+00 0.  1.
         11    1    3    3    0    0 -0.34178400704E+02  0.29378172934E+01 -0.16383443880E+02  0.38015931904E+02  0.00000000000E+00 0. -1.
        -13    1    4    4    0    0  0.19566882114E+02 -0.42891055830E+02 -0.13822350365E+01  0.47163716134E+02  0.00000000000E+00 0.  1.
         13    1    4    4    0    0 -0.40210822030E+02 -0.77227127170E+01 -0.72006161512E+02  0.82833796217E+02  0.00000000000E+00 0. -1.
         21    1    1    2  502  501  0.65226639614E+01  0.19574174018E+02  0.35363995232E+02  0.40942711102E+02  0.00000000000E+00 0.  1.
<scales pt_clust_5="13000.00000" pt_clust_6="13000.00000" pt_clust_7="13000.00000" pt_clust_8="13000.00000" pt_clust_9="20.63234"></scales>
<clustering>
<clus scale="   20.632">  1  9  2 -1</clus>
<clus scale="   90.386">  5  6 -1 -1</clus>
<clus scale="   92.334">  7  8 -1 -1</clus>
<clus scale="  101.931">  1  5  2 -1</clus>
<clus scale="  103.662">  2  5  1 -1</clus>
</clustering>
</event>
<event>
 9    1  0.1748361E-005  0.1077013E+03  0.7546771E-02  0.1265019E+00
         -1   -1    0    0    0  501 -0.00000000000E+00  0.00000000000E+00  0.49037510228E+03  0.49037510228E+03  0.00000000000E+00 0.  1.
          1   -1    0    0  502    0  0.00000000000E+00 -0.00000000000E+00 -0.35889111312E+02  0.35889111312E+02  0.00000000000E+00 0. -1.
         23    2    1    2    0    0 -0.66737771280E+02  0.29031806758E+02  0.22807464235E+03  0.25569874682E+03  0.89816650587E+02 0.  0.
         23    2    1    2    0    0  0.39019942324E+02 -0.36429131942E+02  0.11353691865E+03  0.15410244516E+03  0.89483485380E+02 0.  0.
        -11    1    4    4    0    0  0.90885141653E+01 -0.59483807189E+02  0.42584857104E+02  0.73718345491E+02  0.00000000000E+00 0. -1.
         11    1    4    4    0    0  0.29931428159E+02  0.23054675247E+02  0.70952061547E+02  0.80384099672E+02  0.00000000000E+00 0.  1.
        -13    1    3    3    0    0  0.30503828298E+01 -0.24997988675E+02  0.32364419668E+02  0.41008047181E+02  0.00000000000E+00 0. -1.
         13    1    3    3    0    0 -0.69788154109E+02  0.54029795432E+02  0.19571022268E+03  0.21469069964E+03  0.00000000000E+00 0.  1.
         21    1    1    2  502  501  0.27717828955E+02  0.73973251844E+01  0.11287442996E+03  0.11646302161E+03  0.00000000000E+00 0.  1.
<scales pt_clust_5="13000.00000" pt_clust_6="13000.00000" pt_clust_7="13000.00000" pt_clust_8="13000.00000" pt_clust_9="28.68795"></scales>
<clustering>
<clus scale="   28.688">  1  9  2 -1</clus>
<clus scale="   89.483">  5  6 -1 -1</clus>
<clus scale="   89.817">  7  8 -1 -1</clus>
<clus scale="  107.424">  2  5  1 -1</clus>
<clus scale="  107.424">  2  5  1 -1</clus>
</clustering>
</event>
<event>
 9    1  0.1748361E-005  0.2493422E+03  0.7546771E-02  0.1114666E+00
         -1   -1    0    0    0  501 -0.00000000000E+00  0.00000000000E+00  0.50542456590E+03  0.50542456590E+03  0.00000000000E+00 0.  1.
          1   -1    0    0  502    0  0.00000000000E+00 -0.00000000000E+00 -0.93183872786E+03  0.93183872786E+03  0.00000000000E+00 0. -1.
         23    2    1    2    0    0  0.17322874790E+03 -0.17983408986E+03  0.42671491981E+03  0.50035518127E+03  0.76949240792E+02 0.  0.
         23    2    1    2    0    0 -0.15515449529E+03  0.17016281584E+03 -0.87337685689E+03  0.90809518924E+03  0.93922506745E+02 0.  0.
        -11    1    4    4    0    0  0.10128622592E+02  0.29816173735E+02 -0.12836683704E+03  0.13217275840E+03  0.00000000000E+00 0.  1.
         11    1    4    4    0    0 -0.16528311788E+03  0.14034664210E+03 -0.74501001985E+03  0.77592243084E+03  0.00000000000E+00 0. -1.
        -11    1    3    3    0    0  0.33432645542E+02 -0.29293234328E+02  0.30075033009E+02  0.53668826853E+02  0.00000000000E+00 0. -1.
         11    1    3    3    0    0  0.13979610236E+03 -0.15054085554E+03  0.39663988680E+03  0.44668635442E+03  0.00000000000E+00 0.  1.
         21    1    1    2  502  501 -0.18074252609E+02  0.96712740252E+01  0.20247775115E+02  0.28812923242E+02  0.00000000000E+00 0. -1.
<scales pt_clust_5="13000.00000" pt_clust_6="13000.00000" pt_clust_7="13000.00000" pt_clust_8="13000.00000" pt_clust_9="20.49908"></scales>
<clustering>
<clus scale="   20.499">  1  9  2 -1</clus>
<clus scale="   76.949">  7  8 -1 -1</clus>
<clus scale="   93.923">  5  6 -1 -1</clus>
<clus scale="  243.457">  1  7  2 -1</clus>
<clus scale="  249.342">  2  5  1 -1</clus>
</clustering>
</event>
<event>
 9    1  0.1748361E-005  0.1350940E+03  0.7546771E-02  0.1241988E+00
          4   -1    0    0  502    0  0.00000000000E+00  0.00000000000E+00  0.39134711243E+02  0.39134711243E+02  0.00000000000E+00 0.  1.
         -4   -1    0    0    0  501 -0.00000000000E+00 -0.00000000000E+00 -0.73491550935E+03  0.73491550935E+03  0.00000000000E+00 0. -1.
         23    2    1    2    0    0 -0.35184190341E+02  0.75544171426E+02 -0.22720393325E+03  0.25816487877E+03  0.89903438538E+02 0.  0.
         23    2    1    2    0    0 -0.37695636545E+02  0.88788246270E+01 -0.10579672074E+03  0.13634859209E+03  0.76799725941E+02 0.  0.
        -11    1    3    3    0    0 -0.30876004317E+02  0.70741889685E+01 -0.14812952912E+02  0.34968491047E+02  0.00000000000E+00 0. -1.
         11    1    3    3    0    0 -0.43081860236E+01  0.68469982458E+02 -0.21239098034E+03  0.22319638772E+03  0.00000000000E+00 0.  1.
        -13    1    4    4    0    0 -0.26964041865E+02 -0.18517176425E+02 -0.10146665952E+03  0.10660876310E+03  0.00000000000E+00 0. -1.
         13    1    4    4    0    0 -0.10731594680E+02  0.27396001052E+02 -0.43300612198E+01  0.29739828987E+02  0.00000000000E+00 0.  1.
         21    1    1    2  502  501  0.72879826886E+02 -0.84422996053E+02 -0.36278014412E+03  0.37953674973E+03  0.00000000000E+00 0. -1.
<scales pt_clust_5="13000.00000" pt_clust_6="13000.00000" pt_clust_7="13000.00000" pt_clust_8="13000.00000" pt_clust_9="100.83526"></scales>
<clustering>
<clus scale="   76.800">  7  8 -1 -1</clus>
<clus scale="   86.012">  1  7  2 -1</clus>
<clus scale="   89.903">  5  6 -1 -1</clus>
<clus scale="  100.835">  2  9  1 -1</clus>
<clus scale="   86.012">  1  5  2 -1</clus>
</clustering>
</event>
<event>
 9    1  0.1748361E-005  0.9640276E+02  0.7546771E-02  0.1290156E+00
          1   -1    0    0  502    0  0.00000000000E+00  0.00000000000E+00  0.30053462574E+03  0.30053462574E+03  0.00000000000E+00 0. -1.
         -1   -1    0    0    0  501 -0.00000000000E+00 -0.00000000000E+00 -0.60031870817E+02  0.60031870817E+02  0.00000000000E+00 0.  1.
         23    2    1    2    0    0  0.31142084602E+02 -0.22645224470E+02  0.22953071174E+02  0.10005520275E+03  0.89451464468E+02 0.  0.
         23    2    1    2    0    0 -0.22208270678E+02 -0.35150505645E+01  0.21142852268E+03  0.23219801717E+03  0.93318466066E+02 0.  0.
        -13    1    4    4    0    0  0.12393189793E+02  0.29986114684E+02  0.15336463546E+03  0.15675927289E+03  0.00000000000E+00 0.  1.
         13    1    4    4    0    0 -0.34601460471E+02 -0.33501165249E+02  0.58063887218E+02  0.75438744280E+02  0.00000000000E+00 0. -1.
        -13    1    3    3    0    0 -0.14456260941E+02  0.24314400734E+02  0.19791261047E+02  0.34523435190E+02  0.00000000000E+00 0. -1.
         13    1    3    3    0    0  0.45598345544E+02 -0.46959625205E+02  0.31618101268E+01  0.65531767556E+02  0.00000000000E+00 0.  1.
         21    1    1    2  502  501 -0.89338139248E+01  0.26160275035E+02  0.61211610674E+01  0.28313276637E+02  0.00000000000E+00 0. -1.
<scales pt_clust_5="13000.00000" pt_clust_6="13000.00000" pt_clust_7="13000.00000" pt_clust_8="13000.00000" pt_clust_9="27.64368"></scales>
<clustering>
<clus scale="   27.644">  2  9  1 -1</clus>
<clus scale="   89.451">  7  8 -1 -1</clus>
<clus scale="   92.665">  2  7  1 -1</clus>
<clus scale="   93.318">  5  6 -1 -1</clus>
<clus scale="   96.403">  1  5  2 -1</clus>
</clustering>
</event>
<event>
 9    1  0.1748361E-005  0.1472349E+03  0.7546771E-02  0.1204105E+00
          2   -1    0    0  502    0  0.00000000000E+00  0.00000000000E+00  0.45711983565E+02  0.45711983565E+02  0.00000000000E+00 0. -1.
         -2   -1    0    0    0  501 -0.00000000000E+00 -0.00000000000E+00 -0.60276375627E+03  0.60276375627E+03  0.00000000000E+00 0.  1.
         23    2    1    2    0    0  0.34975802994E+02  0.11285360239E+03 -0.22716683610E+03  0.27156116310E+03  0.90451376525E+02 0.  0.
         23    2    1    2    0    0 -0.53100517675E+02 -0.10224603180E+03 -0.21299069722E+03  0.25814888709E+03  0.89453310751E+02 0.  0.
        -13    1    3    3    0    0 -0.14378342027E+02  0.22644504006E+02 -0.57511678888E+01  0.27433304818E+02  0.00000000000E+00 0. -1.
         13    1    3    3    0    0  0.49354145022E+02  0.90209098381E+02 -0.22141566821E+03  0.24412785828E+03  0.00000000000E+00 0.  1.
        -13    1    4    4    0    0  0.11837330639E+01 -0.44941303010E+02 -0.15167596743E+03  0.15819835978E+03  0.00000000000E+00 0.  1.
         13    1    4    4    0    0 -0.54284250739E+02 -0.57304728790E+02 -0.61314729793E+02  0.99950527310E+02  0.00000000000E+00 0. -1.
         21    1    1    2  502  501  0.18124714681E+02 -0.10607570587E+02 -0.11689423939E+03  0.11876568965E+03  0.00000000000E+00 0.  1.
<scales pt_clust_5="13000.00000" pt_clust_6="13000.00000" pt_clust_7="13000.00000" pt_clust_8="13000.00000" pt_clust_9="21.00062"></scales>
<clustering>
<clus scale="   21.001">  2  9  1 -1</clus>
<clus scale="   89.453">  7  8 -1 -1</clus>
<clus scale="   90.451">  5  6 -1 -1</clus>
<clus scale="  146.624">  1  7  2 -1</clus>
<clus scale="  146.624">  1  5  2 -1</clus>
</clustering>
</event>
<event>
 9    1  0.1748361E-005  0.9930936E+02  0.7546771E-02  0.1283943E+00
          2   -1    0    0  502    0  0.00000000000E+00  0.00000000000E+00  0.14474450735E+03  0.14474450735E+03  0.00000000000E+00 0. -1.
         -2   -1    0    0    0  501 -0.00000000000E+00 -0.00000000000E+00 -0.82200132929E+02  0.82200132929E+02  0.00000000000E+00 0.  1.
         23    2    1    2    0    0  0.45847099197E+02  0.99659419017E+00  0.27973828132E+02  0.10061690998E+03  0.85078068906E+02 0.  0.
         23    2    1    2    0    0 -0.38217761934E+02  0.18422050643E+02  0.35923012465E+02  0.10542032207E+03  0.89571268847E+02 0.  0.
        -11    1    3    3    0    0  0.57112913361E+02 -0.28655855736E+02  0.25504161648E+02  0.68800473850E+02  0.00000000000E+00 0. -1.
         11    1    3    3    0    0 -0.11265814165E+02  0.29652449926E+02  0.24696664837E+01  0.31816436129E+02  0.00000000000E+00 0.  1.
        -13    1    4    4    0    0 -0.19460254812E+02 -0.50838890435E+01  0.62270530308E+02  0.65438263959E+02  0.00000000000E+00 0. -1.
         13    1    4    4    0    0 -0.18757507123E+02  0.23505939686E+02 -0.26347517843E+02  0.39982058107E+02  0.00000000000E+00 0.  1.
         21    1    1    2  502  501 -0.76293372622E+01 -0.19418644833E+02 -0.13524661772E+01  0.20907408232E+02  0.00000000000E+00 0.  1.
<scales pt_clust_5="13000.00000" pt_clust_6="13000.00000" pt_clust_7="13000.00000" pt_clust_8="13000.00000" pt_clust_9="20.86362"></scales>
<clustering>
<clus scale="   20.864">  2  9  1 -1</clus>
<clus scale="   85.078">  5  6 -1 -1</clus>
<clus scale="   89.571">  7  8 -1 -1</clus>
<clus scale="   95.277">  2  5  1 -1</clus>
<clus scale="   99.309">  1  5  2 -1</clus>
</clustering>
</event>
<event>
 9    1  0.1748361E-005  0.1063572E+03  0.7546771E-02  0.1267528E+00
         -2   -1    0    0    0  501 -0.00000000000E+00  0.00000000000E+00  0.33095029221E+02  0.33095029221E+02  0.00000000000E+00 0.  1.
          2   -1    0    0  502    0  0.00000000000E+00 -0.00000000000E+00 -0.50066959082E+03  0.50066959082E+03  0.00000000000E+00 0. -1.
         23    2    1    2    0    0  0.32229170309E+02  0.23378930198E+02 -0.16043686726E+03  0.19097758015E+03  0.95640754646E+02 0.  0.
         23    2    1    2    0    0 -0.20950265995E+02 -0.48595277891E+02 -0.29077028257E+03  0.31067831768E+03  0.95777059756E+02 0.  0.
        -11    1    4    4    0    0 -0.22870436107E+02 -0.72591230154E+02 -0.15371552490E+03  0.17152552620E+03  0.00000000000E+00 0.  1.
         11    1    4    4    0    0  0.19201701124E+01  0.23995952263E+02 -0.13705475767E+03  0.13915279148E+03  0.00000000000E+00 0. -1.
        -13    1    3    3    0    0  0.65088242686E+02  0.26879653407E+02 -0.10462145554E+03  0.12611361569E+03  0.00000000000E+00 0.  1.
         13    1    3    3    0    0 -0.32859072377E+02 -0.35007232091E+01 -0.55815411712E+02  0.64863964457E+02  0.00000000000E+00 0. -1.
         21    1    1    2  502  501 -0.11278904314E+02  0.25216347692E+02 -0.16367411775E+02  0.32108722206E+02  0.00000000000E+00 0. -1.
<scales pt_clust_5="13000.00000" pt_clust_6="13000.00000" pt_clust_7="13000.00000" pt_clust_8="13000.00000" pt_clust_9="27.62386"></scales>
<clustering>
<clus scale="   27.624">  1  9  2 -1</clus>
<clus scale="   95.641">  7  8 -1 -1</clus>
<clus scale="   95.777">  5  6 -1 -1</clus>
<clus scale="  106.234">  1  7  2 -1</clus>
<clus scale="  106.357">  2  5  1 -1</clus>
</clustering>
</event>
<event>
 9    1  0.1748361E-005  0.2159620E+03  0.7546771E-02  0.1137174E+00
         -1   -1    0    0    0  501 -0.00000000000E+00  0.00000000000E+00  0.50069725303E+02  0.50069725303E+02  0.00000000000E+00 0.  1.
          1   -1    0    0  502    0  0.00000000000E+00 -0.00000000000E+00 -0.12171831814E+04  0.12171831814E+04  0.00000000000E+00 0. -1.
         23    2    1    2    0    0  0.72135340663E+02 -0.17399721946E+03 -0.39373694083E+03  0.44558759360E+03  0.89671540887E+02 0.  0.
         23    2    1    2    0    0 -0.57674145738E+02  0.19088393702E+03 -0.76790542938E+03  0.79876945829E+03  0.92687186423E+02 0.  0.
        -13    1    4    4    0    0 -0.26408769268E+02  0.68041302430E+02 -0.13672401865E+03  0.15498548063E+03  0.00000000000E+00 0.  1.
         13    1    4    4    0    0 -0.31265376470E+02  0.12284263459E+03 -0.63118141073E+03  0.64378397766E+03  0.00000000000E+00 0. -1.
        -13    1    3    3    0    0  0.45361742113E+02 -0.17027930836E+03 -0.36912624663E+03  0.40903168147E+03  0.00000000000E+00 0.  1.
         13    1    3    3    0    0  0.26773598550E+02 -0.37179111036E+01 -0.24610694207E+02  0.36555912130E+02  0.00000000000E+00 0. -1.
         21    1    1    2  502  501 -0.14461194925E+02 -0.16886717558E+02 -0.54710859359E+01  0.22895854862E+02  0.00000000000E+00 0.  1.
<scales pt_clust_5="13000.00000" pt_clust_6="13000.00000" pt_clust_7="13000.00000" pt_clust_8="13000.00000" pt_clust_9="22.23257"></scales>
<clustering>
<clus scale="   22.233">  1  9  2 -1</clus>
<clus scale="   89.672">  7  8 -1 -1</clus>
<clus scale="   92.687">  5  6 -1 -1</clus>
<clus scale="  214.685">  1  7  2 -1</clus>
<clus scale="  215.962">  2  5  1 -1</clus>
</clustering>
</event>
<event>
 9    1  0.1748361E-005  0.1024581E+03  0.7546771E-02  0.1276293E+00
          3   -1    0    0  502    0  0.00000000000E+00  0.00000000000E+00  0.39516256027E+03  0.39516256027E+03  0.00000000000E+00 0. -1.
         -3   -1    0    0    0  501 -0.00000000000E+00 -0.00000000000E+00 -0.49167078597E+02  0.49167078597E+02  0.00000000000E+00 0.  1.
         23    2    1    2    0    0 -0.36731444163E+01  0.51613177575E+01  0.69225105354E+02  0.11570157088E+03  0.92491119047E+02 0.  0.
         23    2    1    2    0    0  0.25049185706E+02 -0.61866513931E+02  0.21251916582E+03  0.24030687876E+03  0.90155825602E+02 0.  0.
        -13    1    4    4    0    0  0.25647539979E+02  0.17681733914E+02  0.43514199458E+02  0.53515657294E+02  0.00000000000E+00 0.  1.
         13    1    4    4    0    0 -0.59835427281E+00 -0.79548247845E+02  0.16900496636E+03  0.18679122147E+03  0.00000000000E+00 0. -1.
        -13    1    3    3    0    0  0.28310838827E+02  0.30517699735E+02  0.84239899216E+01  0.42471133707E+02  0.00000000000E+00 0.  1.
         13    1    3    3    0    0 -0.31983983243E+02 -0.25356381978E+02  0.60801115432E+02  0.73230437175E+02  0.00000000000E+00 0. -1.
         21    1    1    2  502  501 -0.21376041290E+02  0.56705196174E+02  0.64251210494E+02  0.88321189214E+02  0.00000000000E+00 0.  1.
<scales pt_clust_5="13000.00000" pt_clust_6="13000.00000" pt_clust_7="13000.00000" pt_clust_8="13000.00000" pt_clust_9="60.60045"></scales>
<clustering>
<clus scale="   60.600">  2  9  1 -1</clus>
<clus scale="   90.156">  5  6 -1 -1</clus>
<clus scale="   92.491">  7  8 -1 -1</clus>
<clus scale="  100.355">  1  5  2 -1</clus>
<clus scale="  100.355">  1  5  2 -1</clus>
</clustering>
</event>
<event>
 9    1  0.1748361E-005  0.1001456E+03  0.7546771E-02  0.1279992E+00
          1   -1    0    0  502    0  0.00000000000E+00  0.00000000000E+00  0.42100936353E+03  0.42100936353E+03  0.00000000000E+00 0. -1.
         -1   -1    0    0    0  501 -0.00000000000E+00 -0.00000000000E+00 -0.23711213354E+03  0.23711213354E+03  0.00000000000E+00 0.  1.
         23    2    1    2    0    0 -0.49106688712E+01  0.49522053441E+02 -0.17439763036E+03  0.20366190996E+03  0.92666561643E+02 0.  0.
         23    2    1    2    0    0  0.18270372864E+02 -0.32982192973E+02  0.39748002276E+03  0.40987791343E+03  0.92670943898E+02 0.  0.
        -11    1    4    4    0    0 -0.35753176424E+02 -0.15042336093E+02  0.22295668727E+03  0.22630564707E+03  0.00000000000E+00 0. -1.
         11    1    4    4    0    0  0.54023549289E+02 -0.17939856880E+02  0.17452333550E+03  0.18357226636E+03  0.00000000000E+00 0.  1.
        -13    1    3    3    0    0 -0.31713957683E+02  0.23517896076E+02 -0.15803039329E+03  0.16288791162E+03  0.00000000000E+00 0.  1.
         13    1    3    3    0    0  0.26803288812E+02  0.26004157365E+02 -0.16367237072E+02  0.40773998342E+02  0.00000000000E+00 0. -1.
         21    1    1    2  502  501 -0.13359703993E+02 -0.16539860468E+02 -0.39185162416E+02  0.44581673686E+02  0.00000000000E+00 0.  1.
<scales pt_clust_5="13000.00000" pt_clust_6="13000.00000" pt_clust_7="13000.00000" pt_clust_8="13000.00000" pt_clust_9="21.26144"></scales>
<clustering>
<clus scale="   21.261">  2  9  1 -1</clus>
<clus scale="   92.667">  7  8 -1 -1</clus>
<clus scale="   92.671">  5  6 -1 -1</clus>
<clus scale="  100.142">  2  7  1 -1</clus>
<clus scale="  100.146">  1  5  2 -1</clus>
</clustering>
</event>
<event>
 9    1  0.1748361E-005  0.1189518E+03  0.7546771E-02  0.1245094E+00
          3   -1    0    0  502    0  0.00000000000E+00  0.00000000000E+00  0.15272217772E+03  0.15272217772E+03  0.00000000000E+00 0. -1.
         -3   -1    0    0    0  501 -0.00000000000E+00 -0.00000000000E+00 -0.27390379145E+03  0.27390379145E+03  0.00000000000E+00 0.  1.
         23    2    1    2    0    0 -0.36633286931E+01  0.11162975748E+03 -0.18527619750E+03  0.23555310455E+03  0.93184617691E+02 0.  0.
         23    2    1    2    0    0 -0.29195684692E+01 -0.68681425730E+02  0.84726514986E+02  0.14297327708E+03  0.92396501536E+02 0.  0.
        -13    1    4    4    0    0  0.38342407537E+02 -0.27441988281E+02  0.10047703241E+02  0.48209535125E+02  0.00000000000E+00 0.  1.
         13    1    4    4    0    0 -0.41261976006E+02 -0.41239437449E+02  0.74678811746E+02  0.94763741952E+02  0.00000000000E+00 0. -1.
        -13    1    3    3    0    0 -0.23384533979E+02 -0.42884377162E+01 -0.13358345324E+02  0.27270359683E+02  0.00000000000E+00 0. -1.
         13    1    3    3    0    0  0.19721205286E+02  0.11591819519E+03 -0.17191785217E+03  0.20828274487E+03  0.00000000000E+00 0.  1.
         21    1    1    2  502  501  0.65828971622E+01 -0.42948331749E+02 -0.20631931226E+02  0.48099587536E+02  0.00000000000E+00 0. -1.
<scales pt_clust_5="13000.00000" pt_clust_6="13000.00000" pt_clust_7="13000.00000" pt_clust_8="13000.00000" pt_clust_9="43.44990"></scales>
<clustering>
<clus scale="   43.450">  2  9  1 -1</clus>
<clus scale="   92.397">  5  6 -1 -1</clus>
<clus scale="   93.185">  7  8 -1 -1</clus>
<clus scale="  118.335">  1  5  2 -1</clus>
<clus scale="  118.335">  1  5  2 -1</clus>
</clustering>
</event>
<event>
 9    1  0.1748361E-005  0.1546683E+03  0.7546771E-02  0.1218616E+00
         -1   -1    0    0    0  501 -0.00000000000E+00  0.00000000000E+00  0.50729582746E+03  0.50729582746E+03  0.00000000000E+00 0.  1.
          1   -1    0    0  502    0  0.00000000000E+00 -0.00000000000E+00 -0.79673978289E+02  0.79673978289E+02  0.00000000000E+00 0. -1.
         23    2    1    2    0    0 -0.97401053198E+01 -0.12262043761E+02  0.16572607200E+03  0.18996276496E+03  0.91517723764E+02 0.  0.
         23    2    1    2    0    0  0.12810055240E+03  0.76015474075E+01  0.72514672394E+02  0.17363264989E+03  0.91773549275E+02 0.  0.
        -11    1    3    3    0    0  0.31388452433E+02 -0.32916253011E+02  0.98473849369E+02  0.10847033543E+03  0.00000000000E+00 0. -1.
         11    1    3    3    0    0 -0.41128557753E+02  0.20654209250E+02  0.67252222633E+02  0.81492429536E+02  0.00000000000E+00 0.  1.
        -13    1    4    4    0    0  0.12535268791E+03  0.34886971301E+02  0.56305138138E+02  0.14177681656E+03  0.00000000000E+00 0. -1.
         13    1    4    4    0    0  0.27478644904E+01 -0.27285423893E+02  0.16209534256E+02  0.31855833329E+02  0.00000000000E+00 0.  1.
         21    1    1    2  502  501 -0.11836044709E+03  0.46604963537E+01  0.18938110477E+03  0.22337439089E+03  0.00000000000E+00 0. -1.
<scales pt_clust_5="13000.00000" pt_clust_6="13000.00000" pt_clust_7="13000.00000" pt_clust_8="13000.00000" pt_clust_9="124.49858"></scales>
<clustering>
<clus scale="   91.518">  5  6 -1 -1</clus>
<clus scale="   91.774">  7  8 -1 -1</clus>
<clus scale="   92.848">  1  5  2 -1</clus>
<clus scale="  124.499">  1  9  2 -1</clus>
<clus scale="  154.668">  2  5  1 -1</clus>
</clustering>
</event>
<event>
 9    1  0.1748361E-005  0.9657061E+02  0.7546771E-02  0.1288004E+00
         -2   -1    0    0    0  501 -0.00000000000E+00  0.00000000000E+00  0.10775800116E+03  0.10775800116E+03  0.00000000000E+00 0. -1.
          2   -1    0    0  502    0  0.00000000000E+00 -0.00000000000E+00 -0.16201097664E+03  0.16201097664E+03  0.00000000000E+00 0.  1.
         23    2    1    2    0    0 -0.92622681530E+01  0.15149281913E+02 -0.35835626171E+02  0.99997663627E+02  0.91651788165E+02 0.  0.
         23    2    1    2    0    0  0.31422283897E+02 -0.27652373088E+02 -0.63062193780E+02  0.11838497625E+03  0.91028284917E+02 0.  0.
        -13    1    3    3    0    0  0.38112367102E+02 -0.49051316516E+01 -0.28913550922E+02  0.48089565080E+02  0.00000000000E+00 0.  1.
         13    1    3    3    0    0 -0.47374635255E+02  0.20054413565E+02 -0.69220752489E+01  0.51908098547E+02  0.00000000000E+00 0. -1.
        -13    1    4    4    0    0 -0.50581710505E+01 -0.43588415267E+02 -0.65117371316E+02  0.78522653336E+02  0.00000000000E+00 0. -1.
         13    1    4    4    0    0  0.36480454948E+02  0.15936042178E+02  0.20551775352E+01  0.39862322915E+02  0.00000000000E+00 0.  1.
         21    1    1    2  502  501 -0.22160015744E+02  0.12503091175E+02  0.44644844476E+02  0.51386337922E+02  0.00000000000E+00 0. -1.
<scales pt_clust_5="13000.00000" pt_clust_6="13000.00000" pt_clust_7="13000.00000" pt_clust_8="13000.00000" pt_clust_9="25.44393"></scales>
<clustering>
<clus scale="   25.444">  1  9  2 -1</clus>
<clus scale="   91.028">  7  8 -1 -1</clus>
<clus scale="   91.652">  5  6 -1 -1</clus>
<clus scale="   95.979">  2  7  1 -1</clus>
<clus scale="   95.979">  2  5  1 -1</clus>
</clustering>
</event>
<event>
 9    1  0.1748361E-005  0.1011621E+03  0.7546771E-02  0.1280050E+00
          1   -1    0    0  502    0  0.00000000000E+00  0.00000000000E+00  0.24994240745E+02  0.24994240745E+02  0.00000000000E+00 0. -1.
         -1   -1    0    0    0  501 -0.00000000000E+00 -0.00000000000E+00 -0.62412836488E+03  0.62412836488E+03  0.00000000000E+00 0.  1.
         23    2    1    2    0    0  0.79848658945E+01  0.24142517750E+02 -0.28452639477E+03  0.30166979959E+03  0.96967929830E+02 0.  0.
         23    2    1    2    0    0 -0.37375456556E+02 -0.39716974402E+01 -0.15913571680E+03  0.18794664471E+03  0.92666421978E+02 0.  0.
        -11    1    3    3    0    0  0.46383951966E+02  0.12766481516E+02 -0.22389789116E+03  0.22900812150E+03  0.00000000000E+00 0.  1.
         11    1    3    3    0    0 -0.38399086072E+02  0.11376036235E+02 -0.60628503615E+02  0.72661678085E+02  0.00000000000E+00 0. -1.
        -13    1    4    4    0    0 -0.31192722092E+02 -0.37759786720E+02 -0.14066189279E+03  0.14894480685E+03  0.00000000000E+00 0.  1.
         13    1    4    4    0    0 -0.61827344638E+01  0.33788089280E+02 -0.18473824010E+02  0.39001837857E+02  0.00000000000E+00 0. -1.
         21    1    1    2  502  501  0.29390590662E+02 -0.20170820310E+02 -0.15547201257E+03  0.15950616133E+03  0.00000000000E+00 0.  1.
<scales pt_clust_5="13000.00000" pt_clust_6="13000.00000" pt_clust_7="13000.00000" pt_clust_8="13000.00000" pt_clust_9="35.64644"></scales>
<clustering>
<clus scale="   35.646">  2  9  1 -1</clus>
<clus scale="   92.666">  7  8 -1 -1</clus>
<clus scale="   96.968">  5  6 -1 -1</clus>
<clus scale="   97.047">  1  7  2 -1</clus>
<clus scale="   97.047">  1  5  2 -1</clus>
</clustering>
</event>
<event>
 9    1  0.1748361E-005  0.8707200E+02  0.7546771E-02  0.1313262E+00
         -3   -1    0    0    0  501 -0.00000000000E+00  0.00000000000E+00  0.31335393522E+02  0.31335393522E+02  0.00000000000E+00 0.  1.
          3   -1    0    0  502    0  0.00000000000E+00 -0.00000000000E+00 -0.38273180825E+03  0.38273180825E+03  0.00000000000E+00 0. -1.
         23    2    1    2    0    0  0.18764457649E+02 -0.11353501179E+02 -0.87597526417E+02  0.12418566886E+03  0.85251081256E+02 0.  0.
         23    2    1    2    0    0  0.65587132315E+01  0.20131243266E+02 -0.24027408265E+03  0.25422023428E+03  0.80299495923E+02 0.  0.
        -13    1    4    4    0    0 -0.30612281853E+02  0.13531416127E+02 -0.49544122652E+02  0.59789891387E+02  0.00000000000E+00 0.  1.
         13    1    4    4    0    0  0.37170995084E+02  0.65998271390E+01 -0.19072996000E+03  0.19443034289E+03  0.00000000000E+00 0. -1.
        -13    1    3    3    0    0  0.23248924343E+01 -0.47897795782E+02 -0.48026224768E+02  0.67868418510E+02  0.00000000000E+00 0. -1.
         13    1    3    3    0    0  0.16439565214E+02  0.36544294603E+02 -0.39571301649E+02  0.56317250347E+02  0.00000000000E+00 0.  1.
         21    1    1    2  502  501 -0.25323170880E+02 -0.87777420868E+01 -0.23524805661E+02  0.35661298644E+02  0.00000000000E+00 0.  1.
<scales pt_clust_5="13000.00000" pt_clust_6="13000.00000" pt_clust_7="13000.00000" pt_clust_8="13000.00000" pt_clust_9="26.80134"></scales>
<clustering>
<clus scale="   26.801">  1  9  2 -1</clus>
<clus scale="   80.299">  5  6 -1 -1</clus>
<clus scale="   82.230">  2  5  1 -1</clus>
<clus scale="   85.251">  7  8 -1 -1</clus>
<clus scale="   82.230">  2  5  1 -1</clus>
</clustering>
</event>
<event>
 9    1  0.1748361E-005  0.1418922E+03  0.7546771E-02  0.1211141E+00
         -2   -1    0    0    0  501 -0.00000000000E+00  0.00000000000E+00  0.33689579678E+03  0.33689579678E+03  0.00000000000E+00 0.  1.
          2   -1    0    0  502    0  0.00000000000E+00 -0.00000000000E+00 -0.40856058517E+03  0.40856058517E+03  0.00000000000E+00 0. -1.
         23    2    1    2    0    0 -0.32765062607E+02  0.85925087040E+02 -0.41215206807E+02  0.13775536305E+03  0.93921120450E+02 0.  0.
         23    2    1    2    0    0  0.89870681376E+02 -0.71867985793E+02 -0.29865483195E+03  0.33312368895E+03  0.92384721367E+02 0.  0.
        -11    1    4    4    0    0  0.52682503091E+02 -0.39980104092E+02 -0.26636254566E+03  0.27445010582E+03  0.00000000000E+00 0. -1.
         11    1    4    4    0    0  0.37188178286E+02 -0.31887881702E+02 -0.32292286288E+02  0.58673583130E+02  0.00000000000E+00 0.  1.
        -13    1    3    3    0    0 -0.23295418104E+02  0.14628546126E+02 -0.57740996194E+02  0.63958529594E+02  0.00000000000E+00 0. -1.
         13    1    3    3    0    0 -0.94696445031E+01  0.71296540914E+02  0.16525789387E+02  0.73796833456E+02  0.00000000000E+00 0.  1.
         21    1    1    2  502  501 -0.57105618770E+02 -0.14057101246E+02  0.26820525038E+03  0.27457732994E+03  0.00000000000E+00 0.  1.
<scales pt_clust_5="13000.00000" pt_clust_6="13000.00000" pt_clust_7="13000.00000" pt_clust_8="13000.00000" pt_clust_9="58.81032"></scales>
<clustering>
<clus scale="   58.810">  1  9  2 -1</clus>
<clus scale="   92.385">  5  6 -1 -1</clus>
<clus scale="   93.921">  7  8 -1 -1</clus>
<clus scale="  140.880">  2  5  1 -1</clus>
<clus scale="  140.880">  2  5  1 -1</clus>
</clustering>
</event>
<event>
 9    1  0.1748361E-005  0.1175777E+03  0.7546771E-02  0.1253971E+00
          1   -1    0    0  502    0  0.00000000000E+00  0.00000000000E+00  0.15139905571E+03  0.15139905571E+03  0.00000000000E+00 0. -1.
         -1   -1    0    0    0  501 -0.00000000000E+00 -0.00000000000E+00 -0.22952045855E+03  0.22952045855E+03  0.00000000000E+00 0.  1.
         23    2    1    2    0    0 -0.40327523806E+02 -0.43810329301E+02 -0.64159508001E+01  0.10914981053E+03  0.91251644283E+02 0.  0.
         23    2    1    2    0    0  0.36300021390E+02  0.74326654390E+02  0.68181679205E+02  0.12853606118E+03  0.70926966223E+02 0.  0.
        -11    1    3    3    0    0 -0.35219926236E+01 -0.63951577629E+02 -0.16205262486E+02  0.66066778683E+02  0.00000000000E+00 0.  1.
         11    1    3    3    0    0 -0.36805531182E+02  0.20141248328E+02  0.97893116856E+01  0.43083031847E+02  0.00000000000E+00 0. -1.
        -13    1    4    4    0    0 -0.23669904914E+01  0.65571813459E+02  0.58071005108E+02  0.87621384368E+02  0.00000000000E+00 0.  1.
         13    1    4    4    0    0  0.38667011882E+02  0.87548409308E+01  0.10110674097E+02  0.40914676808E+02  0.00000000000E+00 0. -1.
         21    1    1    2  502  501  0.40275024156E+01 -0.30516325089E+02 -0.13988713125E+03  0.14323364256E+03  0.00000000000E+00 0.  1.
<scales pt_clust_5="13000.00000" pt_clust_6="13000.00000" pt_clust_7="13000.00000" pt_clust_8="13000.00000" pt_clust_9="30.78095"></scales>
<clustering>
<clus scale="   30.781">  2  9  1 -1</clus>
<clus scale="   70.927">  7  8 -1 -1</clus>
<clus scale="   91.252">  5  6 -1 -1</clus>
<clus scale="  102.607">  1  7  2 -1</clus>
<clus scale="  102.607">  1  5  2 -1</clus>
</clustering>
</event>
<event>
 9    1  0.1748361E-005  0.9545698E+02  0.7546771E-02  0.1290161E+00
          1   -1    0    0  502    0  0.00000000000E+00  0.00000000000E+00  0.29039867750E+03  0.29039867750E+03  0.00000000000E+00 0. -1.
         -1   -1    0    0    0  501 -0.00000000000E+00 -0.00000000000E+00 -0.14827561222E+03  0.14827561222E+03  0.00000000000E+00 0.  1.
         23    2    1    2    0    0  0.25058457172E+02 -0.28662442867E+02  0.11865565513E+03  0.15404062195E+03  0.90553226384E+02 0.  0.
         23    2    1    2    0    0 -0.47364732084E+01  0.25197568828E+02  0.13866976752E+03  0.16760131528E+03  0.90573422182E+02 0.  0.
        -11    1    4    4    0    0  0.26308651309E+02 -0.23492143798E+02  0.65474159074E+02  0.74369963429E+02  0.00000000000E+00 0.  1.
         11    1    4    4    0    0 -0.31045124518E+02  0.48689712626E+02  0.73195608443E+02  0.93231351848E+02  0.00000000000E+00 0. -1.
        -11    1    3    3    0    0  0.51693792032E+02 -0.97362831964E+01  0.10720937478E+03  0.11941898252E+03  0.00000000000E+00 0. -1.
         11    1    3    3    0    0 -0.26635334860E+02 -0.18926159671E+02  0.11446280354E+02  0.34621639432E+02  0.00000000000E+00 0.  1.
         21    1    1    2  502  501 -0.20321983963E+02  0.34648740389E+01 -0.11520235738E+03  0.11703235249E+03  0.00000000000E+00 0.  1.
<scales pt_clust_5="13000.00000" pt_clust_6="13000.00000" pt_clust_7="13000.00000" pt_clust_8="13000.00000" pt_clust_9="20.61525"></scales>
<clustering>
<clus scale="   20.615">  2  9  1 -1</clus>
<clus scale="   90.553">  7  8 -1 -1</clus>
<clus scale="   90.573">  5  6 -1 -1</clus>
<clus scale="   95.438">  2  7  1 -1</clus>
<clus scale="   95.457">  1  5  2 -1</clus>
</clustering>
</event>
<event>
 9    1  0.1748361E-005  0.1057490E+03  0.7546771E-02  0.1277006E+00
         -1   -1    0    0    0  501 -0.00000000000E+00  0.00000000000E+00  0.34150983512E+03  0.34150983512E+03  0.00000000000E+00 0.  1.
          1   -1    0    0  502    0  0.00000000000E+00 -0.00000000000E+00 -0.56938785906E+02  0.56938785906E+02  0.00000000000E+00 0. -1.
         23    2    1    2    0    0 -0.12922810229E+02  0.10535926351E+02  0.12760816547E+03  0.15636902137E+03  0.88822419372E+02 0.  0.
         23    2    1    2    0    0 -0.15621746262E+02 -0.14749279829E+02  0.28801419735E+02  0.11071025425E+03  0.10471703971E+03 0.  0.
        -13    1    4    4    0    0 -0.28901550778E+02 -0.37887316597E+02  0.55374876782E+02  0.73055632055E+02  0.00000000000E+00 0.  1.
         13    1    4    4    0    0  0.13279804516E+02  0.23138036769E+02 -0.26573457047E+02  0.37654622199E+02  0.00000000000E+00 0. -1.
        -13    1    3    3    0    0  0.35000130496E+02  0.32793186250E+00  0.26125420634E+02  0.43676701768E+02  0.00000000000E+00 0. -1.
         13    1    3    3    0    0 -0.47922940725E+02  0.10207994489E+02  0.10148274483E+03  0.11269231960E+03  0.00000000000E+00 0.  1.
         21    1    1    2  502  501  0.28544556492E+02  0.42133534773E+01  0.12816146401E+03  0.13136934540E+03  0.00000000000E+00 0.  1.
<scales pt_clust_5="13000.00000" pt_clust_6="13000.00000" pt_clust_7="13000.00000" pt_clust_8="13000.00000" pt_clust_9="28.85384"></scales>
<clustering>
<clus scale="   28.854">  1  9  2 -1</clus>
<clus scale="   88.822">  7  8 -1 -1</clus>
<clus scale="   90.037">  1  7  2 -1</clus>
<clus scale="  104.717">  5  6 -1 -1</clus>
<clus scale="  105.749">  2  5  1 -1</clus>
</clustering>
</event>
<event>
 9    1  0.1748361E-005  0.9364012E+02  0.7546771E-02  0.1294363E+00
          2   -1    0    0  502    0  0.00000000000E+00  0.00000000000E+00  0.28956216070E+03  0.28956216070E+03  0.00000000000E+00 0. -1.
         -2   -1    0    0    0  501 -0.00000000000E+00 -0.00000000000E+00 -0.46521370933E+02  0.46521370933E+02  0.00000000000E+00 0.  1.
         23    2    1    2    0    0 -0.69553968179E+01  0.34787626730E+02  0.10330315508E+03  0.14095447852E+03  0.89095828448E+02 0.  0.
         23    2    1    2    0    0 -0.15357831855E+02 -0.23349583814E+02  0.14210091619E+03  0.16994385709E+03  0.88922315066E+02 0.  0.
        -11    1    4    4    0    0 -0.34321060387E+02  0.23776349732E+02  0.74252508581E+02  0.85186178593E+02  0.00000000000E+00 0.  1.
         11    1    4    4    0    0  0.18963228532E+02 -0.47125933546E+02  0.67848407611E+02  0.84757678498E+02  0.00000000000E+00 0. -1.
        -13    1    3    3    0    0  0.31889020878E+02  0.30459857331E+02  0.18972886289E+02  0.48007113799E+02  0.00000000000E+00 0. -1.
         13    1    3    3    0    0 -0.38844417696E+02  0.43277693990E+01  0.84330268790E+02  0.92947364720E+02  0.00000000000E+00 0.  1.
         21    1    1    2  502  501  0.22313228673E+02 -0.11438042916E+02 -0.23632814994E+01  0.25185196029E+02  0.00000000000E+00 0. -1.
<scales pt_clust_5="13000.00000" pt_clust_6="13000.00000" pt_clust_7="13000.00000" pt_clust_8="13000.00000" pt_clust_9="25.07407"></scales>
<clustering>
<clus scale="   25.074">  2  9  1 -1</clus>
<clus scale="   88.922">  5  6 -1 -1</clus>
<clus scale="   89.096">  7  8 -1 -1</clus>
<clus scale="   93.475">  1  5  2 -1</clus>
<clus scale="   93.475">  1  5  2 -1</clus>
</clustering>
</event>
<event>
 9    1  0.1748361E-005  0.1008415E+03  0.7546771E-02  0.1279505E+00
          2   -1    0    0  502    0  0.00000000000E+00  0.00000000000E+00  0.71629750891E+02  0.71629750891E+02  0.00000000000E+00 0. -1.
         -2   -1    0    0    0  501 -0.00000000000E+00 -0.00000000000E+00 -0.19278018771E+03  0.19278018771E+03  0.00000000000E+00 0.  1.
         23    2    1    2    0    0 -0.14220804534E+02  0.22264612920E+02 -0.77026792636E+02  0.12226044915E+03  0.91195100592E+02 0.  0.
         23    2    1    2    0    0  0.34377815773E+01 -0.47883875412E+02 -0.23227895122E+02  0.10737518107E+03  0.93194476938E+02 0.  0.
        -11    1    3    3    0    0 -0.34543011584E+02 -0.14066641801E+02 -0.31091709695E+01  0.37426688405E+02  0.00000000000E+00 0.  1.
         11    1    3    3    0    0  0.20322207050E+02  0.36331254721E+02 -0.73917621666E+02  0.84833760743E+02  0.00000000000E+00 0. -1.
        -11    1    4    4    0    0  0.78055467270E+01  0.27589833886E+02 -0.14873619999E+01  0.28711282439E+02  0.00000000000E+00 0. -1.
         11    1    4    4    0    0 -0.43677651497E+01 -0.75473709298E+02 -0.21740533122E+02  0.78663898633E+02  0.00000000000E+00 0.  1.
         21    1    1    2  502  501  0.10783022957E+02  0.25619262492E+02 -0.20895749064E+02  0.34774308385E+02  0.00000000000E+00 0. -1.
<scales pt_clust_5="13000.00000" pt_clust_6="13000.00000" pt_clust_7="13000.00000" pt_clust_8="13000.00000" pt_clust_9="27.79605"></scales>
<clustering>
<clus scale="   27.796">  2  9  1 -1</clus>
<clus scale="   91.195">  5  6 -1 -1</clus>
<clus scale="   93.194">  7  8 -1 -1</clus>
<clus scale="   98.997">  2  5  1 -1</clus>
<clus scale="  100.841">  1  5  2 -1</clus>
</clustering>
</event>
<event>
 9    1  0.1748361E-005  0.1101765E+03  0.7546771E-02  0.1264011E+00
         -1   -1    0    0    0  501 -0.00000000000E+00  0.00000000000E+00  0.55993783896E+02  0.55993783896E+02  0.00000000000E+00 0.  1.
          1   -1    0    0  502    0  0.00000000000E+00 -0.00000000000E+00 -0.45214462344E+03  0.45214462344E+03  0.00000000000E+00 0. -1.
         23    2    1    2    0    0  0.19947500086E+02  0.33347249130E+02 -0.21670603450E+02  0.10385013091E+03  0.93836521947E+02 0.  0.
         23    2    1    2    0    0 -0.32191584980E+02 -0.51913157438E+02 -0.36587555088E+03  0.38044186844E+03  0.84497470223E+02 0.  0.
        -11    1    3    3    0    0  0.42530186948E+01 -0.31135201575E+02  0.59222864444E+01  0.31977529953E+02  0.00000000000E+00 0. -1.
         11    1    3    3    0    0  0.15694481392E+02  0.64482450705E+02 -0.27592889894E+02  0.71872600953E+02  0.00000000000E+00 0.  1.
        -11    1    4    4    0    0  0.26867379824E+02 -0.62767544533E+01 -0.68614490665E+02  0.73954053806E+02  0.00000000000E+00 0.  1.
         11    1    4    4    0    0 -0.59058964804E+02 -0.45636402985E+02 -0.29726106021E+03  0.30648781464E+03  0.00000000000E+00 0. -1.
         21    1    1    2  502  501  0.12244084893E+02  0.18565908308E+02 -0.86046852133E+01  0.23846407985E+02  0.00000000000E+00 0.  1.
<scales pt_clust_5="13000.00000" pt_clust_6="13000.00000" pt_clust_7="13000.00000" pt_clust_8="13000.00000" pt_clust_9="22.23984"></scales>
<clustering>
<clus scale="   22.240">  1  9  2 -1</clus>
<clus scale="   84.497">  7  8 -1 -1</clus>
<clus scale="   93.837">  5  6 -1 -1</clus>
<clus scale="  102.340">  2  7  1 -1</clus>
<clus scale="  102.340">  2  5  1 -1</clus>
</clustering>
</event>
<event>
 9    1  0.1748361E-005  0.9595312E+02  0.7546771E-02  0.1291216E+00
          1   -1    0    0  502    0  0.00000000000E+00  0.00000000000E+00  0.50532514614E+03  0.50532514614E+03  0.00000000000E+00 0. -1.
         -1   -1    0    0    0  501 -0.00000000000E+00 -0.00000000000E+00 -0.29426670848E+02  0.29426670848E+02  0.00000000000E+00 0.  1.
         23    2    1    2    0    0 -0.25175928677E+01 -0.16103607666E+01  0.90782412633E+02  0.12839794435E+03  0.90750504865E+02 0.  0.
         23    2    1    2    0    0 -0.20995270958E+02  0.67497525331E+01  0.35354839621E+03  0.36665770559E+03  0.94631094514E+02 0.  0.
        -11    1    4    4    0    0 -0.51403967074E+02 -0.14928935235E+02  0.14030720814E+03  0.15017108108E+03  0.00000000000E+00 0.  1.
         11    1    4    4    0    0  0.30408696117E+02  0.21678687768E+02  0.21324118807E+03  0.21648662451E+03  0.00000000000E+00 0. -1.
        -11    1    3    3    0    0 -0.13126969649E+02 -0.26999284197E+02 -0.34605403790E+01  0.30220092969E+02  0.00000000000E+00 0.  1.
         11    1    3    3    0    0  0.10609376782E+02  0.25388923430E+02  0.94242953012E+02  0.98177851378E+02  0.00000000000E+00 0. -1.
         21    1    1    2  502  501  0.23512863825E+02 -0.51393917665E+01  0.31567666451E+02  0.39696167046E+02  0.00000000000E+00 0.  1.
<scales pt_clust_5="13000.00000" pt_clust_6="13000.00000" pt_clust_7="13000.00000" pt_clust_8="13000.00000" pt_clust_9="24.06799"></scales>
<clustering>
<clus scale="   24.068">  2  9  1 -1</clus>
<clus scale="   90.751">  7  8 -1 -1</clus>
<clus scale="   92.128">  2  7  1 -1</clus>
<clus scale="   94.631">  5  6 -1 -1</clus>
<clus scale="   95.953">  1  5  2 -1</clus>
</clustering>
</event>
<event>
 9    1  0.1748361E-005  0.1014639E+03  0.7546771E-02  0.1278014E+00
          3   -1    0    0  502    0  0.00000000000E+00  0.00000000000E+00  0.92955424842E+02  0.92955424842E+02  0.00000000000E+00 0. -1.
         -3   -1    0    0    0  501 -0.00000000000E+00 -0.00000000000E+00 -0.17119558577E+03  0.17119558577E+03  0.00000000000E+00 0.  1.
         23    2    1    2    0    0 -0.32763604962E+02 -0.13388351190E+02 -0.22551696783E+02  0.99670438604E+02  0.90404178809E+02 0.  0.
         23    2    1    2    0    0  0.51125652853E+02 -0.41551807475E+01 -0.23315363698E+01  0.10538825392E+03  0.92033418361E+02 0.  0.
        -11    1    3    3    0    0 -0.27530212161E+02  0.36935860994E+02 -0.15394081809E+02  0.48571063029E+02  0.00000000000E+00 0. -1.
         11    1    3    3    0    0 -0.52333928004E+01 -0.50324212183E+02 -0.71576149746E+01  0.51099375576E+02  0.00000000000E+00 0.  1.
        -13    1    4    4    0    0 -0.15862631253E+02 -0.26924119864E+02  0.11497230207E+02  0.33297411358E+02  0.00000000000E+00 0.  1.
         13    1    4    4    0    0  0.66988284106E+02  0.22768939116E+02 -0.13828766577E+02  0.72090842560E+02  0.00000000000E+00 0. -1.
         21    1    1    2  502  501 -0.18362047891E+02  0.17543531937E+02 -0.53356927771E+02  0.59092318086E+02  0.00000000000E+00 0. -1.
<scales pt_clust_5="13000.00000" pt_clust_6="13000.00000" pt_clust_7="13000.00000" pt_clust_8="13000.00000" pt_clust_9="25.39568"></scales>
<clustering>
<clus scale="   25.396">  2  9  1 -1</clus>
<clus scale="   90.404">  5  6 -1 -1</clus>
<clus scale="   92.033">  7  8 -1 -1</clus>
<clus scale="   99.988">  2  5  1 -1</clus>
<clus scale="  101.464">  1  5  2 -1</clus>
</clustering>
</event>
<event>
 9    1  0.1748361E-005  0.1645468E+03  0.7546771E-02  0.1184173E+00
         -1   -1    0    0    0  501 -0.00000000000E+00  0.00000000000E+00  0.77329724262E+02  0.77329724262E+02  0.00000000000E+00 0.  1.
          1   -1    0    0  502    0  0.00000000000E+00 -0.00000000000E+00 -0.66976517885E+03  0.66976517885E+03  0.00000000000E+00 0. -1.
         23    2    1    2    0    0 -0.49600290347E+02  0.15727990863E+03 -0.28081611972E+03  0.33881085683E+03  0.93476976583E+02 0.  0.
         23    2    1    2    0    0 -0.13359412687E+02 -0.12102919721E+03 -0.29810733965E+03  0.33438809037E+03  0.90115861798E+02 0.  0.
        -11    1    4    4    0    0  0.72105299338E+01 -0.58799467400E+02 -0.49231208007E+02  0.77026495119E+02  0.00000000000E+00 0.  1.
         11    1    4    4    0    0 -0.20569942620E+02 -0.62229729808E+02 -0.24887613164E+03  0.25736159525E+03  0.00000000000E+00 0. -1.
        -11    1    3    3    0    0 -0.71523902299E+02  0.11554696773E+03 -0.16492291804E+03  0.21369683958E+03  0.00000000000E+00 0.  1.
         11    1    3    3    0    0  0.21923611952E+02  0.41732940903E+02 -0.11589320168E+03  0.12511401725E+03  0.00000000000E+00 0. -1.
         21    1    1    2  502  501  0.62959703034E+02 -0.36250711423E+02 -0.13511995221E+02  0.73895955908E+02  0.00000000000E+00 0.  1.
<scales pt_clust_5="13000.00000" pt_clust_6="13000.00000" pt_clust_7="13000.00000" pt_clust_8="13000.00000" pt_clust_9="72.65011"></scales>
<clustering>
<clus scale="   72.650">  1  9  2 -1</clus>
<clus scale="   90.116">  5  6 -1 -1</clus>
<clus scale="   93.477">  7  8 -1 -1</clus>
<clus scale="  162.661">  2  5  1 -1</clus>
<clus scale="  162.661">  2  5  1 -1</clus>
</clustering>
</event>
<event>
 9    1  0.1748361E-005  0.1521722E+03  0.7546771E-02  0.1199137E+00
         -1   -1    0    0    0  501 -0.00000000000E+00  0.00000000000E+00  0.66973730769E+02  0.66973730769E+02  0.00000000000E+00 0.  1.
          1   -1    0    0  502    0  0.00000000000E+00 -0.00000000000E+00 -0.51069486603E+03  0.51069486603E+03  0.00000000000E+00 0. -1.
         23    2    1    2    0    0 -0.89176014207E+02  0.91383879704E+02 -0.88525400457E+02  0.17860653406E+03  0.88091841291E+02 0.  0.
         23    2    1    2    0    0  0.99715941593E+02 -0.72569203657E+02 -0.34518369217E+03  0.37528553857E+03  0.80485376270E+02 0.  0.
        -11    1    3    3    0    0 -0.82792640089E+02  0.58103075880E+02 -0.10057636949E+03  0.14264008826E+03  0.00000000000E+00 0.  1.
         11    1    3    3    0    0 -0.63833741174E+01  0.33280803824E+02  0.12050969035E+02  0.35966445793E+02  0.00000000000E+00 0. -1.
        -13    1    4    4    0    0  0.61722880704E+02  0.26695436403E+01 -0.17004208905E+03  0.18091752959E+03  0.00000000000E+00 0.  1.
         13    1    4    4    0    0  0.37993060889E+02 -0.75238747297E+02 -0.17514160312E+03  0.19436800898E+03  0.00000000000E+00 0. -1.
         21    1    1    2  502  501 -0.10539927387E+02 -0.18814676047E+02 -0.10012042640E+02  0.23776524176E+02  0.00000000000E+00 0.  1.
<scales pt_clust_5="13000.00000" pt_clust_6="13000.00000" pt_clust_7="13000.00000" pt_clust_8="13000.00000" pt_clust_9="21.56576"></scales>
<clustering>
<clus scale="   21.566">  1  9  2 -1</clus>
<clus scale="   80.485">  7  8 -1 -1</clus>
<clus scale="   88.092">  5  6 -1 -1</clus>
<clus scale="  147.899">  2  7  1 -1</clus>
<clus scale="  147.899">  2  5  1 -1</clus>
</clustering>
</event>
<event>
 9    1  0.1748361E-005  0.2906723E+03  0.7546771E-02  0.1090078E+00
          4   -1    0    0  502    0  0.00000000000E+00  0.00000000000E+00  0.11180858286E+04  0.11180858286E+04  0.00000000000E+00 0. -1.
         -4   -1    0    0    0  501 -0.00000000000E+00 -0.00000000000E+00 -0.97364723215E+02  0.97364723215E+02  0.00000000000E+00 0.  1.
         23    2    1    2    0    0  0.28132164399E+03  0.46150478627E+02  0.27980007490E+03  0.40948162747E+03  0.90085444267E+02 0.  0.
         23    2    1    2    0    0 -0.26544992058E+03 -0.63188697750E+02  0.71867273993E+03  0.77376335111E+03  0.88106438750E+02 0.  0.
        -11    1    4    4    0    0 -0.93453056341E+02  0.58667995831E+01  0.16282152896E+03  0.18782636495E+03  0.00000000000E+00 0.  1.
         11    1    4    4    0    0 -0.17199686424E+03 -0.69055497333E+02  0.55585121097E+03  0.58593698616E+03  0.00000000000E+00 0. -1.
        -13    1    3    3    0    0  0.25595586231E+02  0.69904269689E+01  0.74901956423E+02  0.79462589812E+02  0.00000000000E+00 0. -1.
         13    1    3    3    0    0  0.25572605775E+03  0.39160051658E+02  0.20489811847E+03  0.33001903765E+03  0.00000000000E+00 0.  1.
         21    1    1    2  502  501 -0.15871723405E+02  0.17038219123E+02  0.22248290564E+02  0.32205573241E+02  0.00000000000E+00 0.  1.
<scales pt_clust_5="13000.00000" pt_clust_6="13000.00000" pt_clust_7="13000.00000" pt_clust_8="13000.00000" pt_clust_9="23.28546"></scales>
<clustering>
<clus scale="   23.285">  2  9  1 -1</clus>
<clus scale="   88.106">  5  6 -1 -1</clus>
<clus scale="   90.085">  7  8 -1 -1</clus>
<clus scale="  290.065">  1  5  2 -1</clus>
<clus scale="  290.065">  1  5  2 -1</clus>
</clustering>
</event>
<event>
 9    1  0.1748361E-005  0.1057885E+03  0.7546771E-02  0.1270847E+00
         -1   -1    0    0    0  501 -0.00000000000E+00  0.00000000000E+00  0.36542324993E+03  0.36542324993E+03  0.00000000000E+00 0.  1.
          1   -1    0    0  502    0  0.00000000000E+00 -0.00000000000E+00 -0.91162417422E+02  0.91162417422E+02  0.00000000000E+00 0. -1.
         23    2    1    2    0    0 -0.23409746543E+02 -0.20882180637E+02  0.27419610353E+03  0.28988496907E+03  0.88688840325E+02 0.  0.
         23    2    1    2    0    0  0.50529884500E+02  0.10338064973E+02 -0.42437277737E+02  0.11519243844E+03  0.93852173742E+02 0.  0.
        -13    1    4    4    0    0  0.20678900208E+02  0.35980122032E+02  0.16221034838E+02  0.44556795963E+02  0.00000000000E+00 0.  1.
         13    1    4    4    0    0  0.29850984291E+02 -0.25642057059E+02 -0.58658312575E+02  0.70635642473E+02  0.00000000000E+00 0. -1.
        -13    1    3    3    0    0 -0.20297501697E+02 -0.50229667034E+02  0.10518854231E+03  0.11832006363E+03  0.00000000000E+00 0.  1.
         13    1    3    3    0    0 -0.31122448461E+01  0.29347486397E+02  0.16900756122E+03  0.17156490543E+03  0.00000000000E+00 0. -1.
         21    1    1    2  502  501 -0.27120137957E+02  0.10544115664E+02  0.42502006721E+02  0.51508259855E+02  0.00000000000E+00 0.  1.
<scales pt_clust_5="13000.00000" pt_clust_6="13000.00000" pt_clust_7="13000.00000" pt_clust_8="13000.00000" pt_clust_9="29.09777"></scales>
<clustering>
<clus scale="   29.098">  1  9  2 -1</clus>
<clus scale="   88.689">  7  8 -1 -1</clus>
<clus scale="   93.852">  5  6 -1 -1</clus>
<clus scale="  101.236">  1  7  2 -1</clus>
<clus scale="  105.789">  2  5  1 -1</clus>
</clustering>
</event>
<event>
 9    1  0.1748361E-005  0.9397957E+02  0.7546771E-02  0.1295928E+00
         -3   -1    0    0    0  501 -0.00000000000E+00  0.00000000000E+00  0.48227881761E+03  0.48227881761E+03  0.00000000000E+00 0.  1.
          3   -1    0    0  502    0  0.00000000000E+00 -0.00000000000E+00 -0.30642578699E+02  0.30642578699E+02  0.00000000000E+00 0. -1.
         23    2    1    2    0    0  0.23610506892E+02  0.30847617850E+02  0.24837986178E+03  0.26579742267E+03  0.86294163172E+02 0.  0.
         23    2    1    2    0    0  0.14699468050E+02 -0.21909798126E+02  0.10445735912E+03  0.14078120350E+03  0.90619499937E+02 0.  0.
        -11    1    4    4    0    0  0.39473891194E+02 -0.89615666674E+00  0.97683067486E+01  0.40674451434E+02  0.00000000000E+00 0. -1.
         11    1    4    4    0    0 -0.24774423144E+02 -0.21013641459E+02  0.94689052375E+02  0.10010675207E+03  0.00000000000E+00 0.  1.
        -11    1    3    3    0    0  0.45819203183E+02  0.39525933499E+02  0.22261326067E+03  0.23069105450E+03  0.00000000000E+00 0. -1.
         11    1    3    3    0    0 -0.22208696291E+02 -0.86783156493E+01  0.25766601110E+02  0.35106368172E+02  0.00000000000E+00 0.  1.
         21    1    1    2  502  501 -0.38309974942E+02 -0.89378197237E+01  0.98799018005E+02  0.10634277014E+03  0.00000000000E+00 0.  1.
<scales pt_clust_5="13000.00000" pt_clust_6="13000.00000" pt_clust_7="13000.00000" pt_clust_8="13000.00000" pt_clust_9="39.33877"></scales>
<clustering>
<clus scale="   39.339">  1  9  2 -1</clus>
<clus scale="   86.294">  7  8 -1 -1</clus>
<clus scale="   89.816">  1  7  2 -1</clus>
<clus scale="   90.619">  5  6 -1 -1</clus>
<clus scale="   93.980">  2  5  1 -1</clus>
</clustering>
</event>
<event>
 9    1  0.1748361E-005  0.2109993E+03  0.7546771E-02  0.1140922E+00
          2   -1    0    0  502    0  0.00000000000E+00  0.00000000000E+00  0.10763506898E+04  0.10763506898E+04  0.00000000000E+00 0. -1.
         -2   -1    0    0    0  501 -0.00000000000E+00 -0.00000000000E+00 -0.62971447566E+02  0.62971447566E+02  0.00000000000E+00 0.  1.
         23    2    1    2    0    0  0.11003344232E+01 -0.19917601412E+03  0.47067914406E+03  0.51880308377E+03  0.89137465362E+02 0.  0.
         23    2    1    2    0    0 -0.31336950811E+02  0.18210847272E+03  0.54798755014E+03  0.58539767708E+03  0.90854746185E+02 0.  0.
        -11    1    3    3    0    0 -0.41876283911E+01 -0.62557154032E+02  0.26146171335E+03  0.26887387619E+03  0.00000000000E+00 0.  1.
         11    1    3    3    0    0  0.52879628143E+01 -0.13661886009E+03  0.20921743072E+03  0.24992920757E+03  0.00000000000E+00 0. -1.
        -13    1    4    4    0    0 -0.52997207230E+02  0.52890678930E+02  0.20302399419E+03  0.21639054995E+03  0.00000000000E+00 0.  1.
         13    1    4    4    0    0  0.21660256419E+02  0.12921779379E+03  0.34496355595E+03  0.36900712713E+03  0.00000000000E+00 0. -1.
         21    1    1    2  502  501  0.30236616388E+02  0.17067541396E+02 -0.52874519716E+01  0.35121376514E+02  0.00000000000E+00 0.  1.
<scales pt_clust_5="13000.00000" pt_clust_6="13000.00000" pt_clust_7="13000.00000" pt_clust_8="13000.00000" pt_clust_9="34.72109"></scales>
<clustering>
<clus scale="   34.721">  2  9  1 -1</clus>
<clus scale="   89.137">  5  6 -1 -1</clus>
<clus scale="   90.855">  7  8 -1 -1</clus>
<clus scale="  210.266">  2  5  1 -1</clus>
<clus scale="  210.999">  1  5  2 -1</clus>
</clustering>
</event>
<event>
 9    1  0.1748361E-005  0.4500503E+03  0.7546771E-02  0.1028084E+00
         -1   -1    0    0    0  501 -0.00000000000E+00  0.00000000000E+00  0.55913393831E+03  0.55913393831E+03  0.00000000000E+00 0.  1.
          1   -1    0    0  502    0  0.00000000000E+00 -0.00000000000E+00 -0.47973210201E+03  0.47973210201E+03  0.00000000000E+00 0. -1.
         23    2    1    2    0    0 -0.42757359852E+03 -0.44666793059E+02  0.12163715233E+03  0.45631884124E+03  0.92827708633E+02 0.  0.
         23    2    1    2    0    0  0.43950392044E+03 -0.90508225273E+01 -0.13568158485E+03  0.47410311228E+03  0.11453669777E+03 0.  0.
        -11    1    4    4    0    0  0.16460063071E+03  0.26149891880E+02 -0.26617142473E+01  0.16668613979E+03  0.00000000000E+00 0.  1.
         11    1    4    4    0    0  0.27490328973E+03 -0.35200714408E+02 -0.13301987061E+03  0.30741697249E+03  0.00000000000E+00 0. -1.
        -13    1    3    3    0    0 -0.13442215624E+03  0.96068595057E+01  0.75985468240E+02  0.15471069524E+03  0.00000000000E+00 0.  1.
         13    1    3    3    0    0 -0.29315144228E+03 -0.54273652564E+02  0.45651684086E+02  0.30160814600E+03  0.00000000000E+00 0. -1.
         21    1    1    2  502  501 -0.11930321917E+02  0.53717615586E+02  0.93446268826E+02  0.10844408680E+03  0.00000000000E+00 0. -1.
<scales pt_clust_5="13000.00000" pt_clust_6="13000.00000" pt_clust_7="13000.00000" pt_clust_8="13000.00000" pt_clust_9="55.02649"></scales>
<clustering>
<clus scale="   55.026">  1  9  2 -1</clus>
<clus scale="   92.828">  7  8 -1 -1</clus>
<clus scale="  114.537">  5  6 -1 -1</clus>
<clus scale="  445.021">  1  7  2 -1</clus>
<clus scale="  450.050">  2  5  1 -1</clus>
</clustering>
</event>
<event>
 9    1  0.1748361E-005  0.1535682E+03  0.7546771E-02  0.1196561E+00
         -1   -1    0    0    0  501 -0.00000000000E+00  0.00000000000E+00  0.73674186106E+02  0.73674186106E+02  0.00000000000E+00 0.  1.
          1   -1    0    0  502    0  0.00000000000E+00 -0.00000000000E+00 -0.46839686247E+03  0.46839686247E+03  0.00000000000E+00 0. -1.
         23    2    1    2    0    0  0.14132554926E+03  0.18963828498E+02 -0.21439438481E+03  0.27322792348E+03  0.91411204268E+02 0.  0.
         23    2    1    2    0    0 -0.10838987918E+03  0.50568005626E+00 -0.18286547172E+03  0.23049918932E+03  0.89114947745E+02 0.  0.
        -11    1    3    3    0    0  0.10115201967E+03  0.14249334755E+01 -0.20470112669E+03  0.22833377496E+03  0.00000000000E+00 0. -1.
         11    1    3    3    0    0  0.40173529596E+02  0.17538895023E+02 -0.96932581228E+01  0.44894148526E+02  0.00000000000E+00 0.  1.
        -13    1    4    4    0    0 -0.65680785364E+02 -0.30902631214E+02 -0.15373134483E+03  0.17000666036E+03  0.00000000000E+00 0. -1.
         13    1    4    4    0    0 -0.42709093817E+02  0.31408311270E+02 -0.29134126887E+02  0.60492528969E+02  0.00000000000E+00 0.  1.
         21    1    1    2  502  501 -0.32935670083E+02 -0.19469508555E+02  0.25371801636E+01  0.38343935770E+02  0.00000000000E+00 0. -1.
<scales pt_clust_5="13000.00000" pt_clust_6="13000.00000" pt_clust_7="13000.00000" pt_clust_8="13000.00000" pt_clust_9="38.25990"></scales>
<clustering>
<clus scale="   38.260">  1  9  2 -1</clus>
<clus scale="   89.115">  7  8 -1 -1</clus>
<clus scale="   91.411">  5  6 -1 -1</clus>
<clus scale="  152.213">  2  7  1 -1</clus>
<clus scale="  152.213">  2  5  1 -1</clus>
</clustering>
</event>
<event>
 9    1  0.1748361E-005  0.1121139E+03  0.7546771E-02  0.1258307E+00
         -1   -1    0    0    0  501 -0.00000000000E+00  0.00000000000E+00  0.93133583707E+02  0.93133583707E+02  0.00000000000E+00 0.  1.
          1   -1    0    0  502    0  0.00000000000E+00 -0.00000000000E+00 -0.44932613016E+03  0.44932613016E+03  0.00000000000E+00 0. -1.
         23    2    1    2    0    0 -0.47348812317E+02  0.44096353911E+01  0.68590822776E+01  0.10189586540E+03  0.89857473058E+02 0.  0.
         23    2    1    2    0    0  0.58202444226E+02 -0.25006328606E+02 -0.38930047907E+03  0.40547785066E+03  0.94045645241E+02 0.  0.
        -11    1    4    4    0    0 -0.23587841562E+02  0.83857626211E+01 -0.88463883307E+02  0.91937837336E+02  0.00000000000E+00 0.  1.
         11    1    4    4    0    0  0.81790285788E+02 -0.33392091227E+02 -0.30083659576E+03  0.31354001333E+03  0.00000000000E+00 0. -1.
        -13    1    3    3    0    0  0.17367811517E+02  0.26618382885E+02  0.10237053231E+02  0.33391262976E+02  0.00000000000E+00 0.  1.
         13    1    3    3    0    0 -0.64716623834E+02 -0.22208747494E+02 -0.33779709531E+01  0.68504602426E+02  0.00000000000E+00 0. -1.
         21    1    1    2  502  501 -0.10853631909E+02  0.20596693215E+02  0.26248850345E+02  0.35085997798E+02  0.00000000000E+00 0. -1.
<scales pt_clust_5="13000.00000" pt_clust_6="13000.00000" pt_clust_7="13000.00000" pt_clust_8="13000.00000" pt_clust_9="23.28143"></scales>
<clustering>
<clus scale="   23.281">  1  9  2 -1</clus>
<clus scale="   89.857">  7  8 -1 -1</clus>
<clus scale="   94.046">  5  6 -1 -1</clus>
<clus scale="  108.625">  1  7  2 -1</clus>
<clus scale="  112.114">  2  5  1 -1</clus>
</clustering>
</event>
<event>
 9    1  0.1748361E-005  0.1560604E+03  0.7546771E-02  0.1194817E+00
         -2   -1    0    0    0  501 -0.00000000000E+00  0.00000000000E+00  0.20996186656E+03  0.20996186656E+03  0.00000000000E+00 0.  1.
          2   -1    0    0  502    0  0.00000000000E+00 -0.00000000000E+00 -0.13341925632E+03  0.13341925632E+03  0.00000000000E+00 0. -1.
         23    2    1    2    0    0  0.11681230409E+03 -0.23511077096E+02  0.41464090009E+02  0.14943400840E+03  0.80083500003E+02 0.  0.
         23    2    1    2    0    0 -0.13583403929E+03  0.95293406497E+01  0.16573363791E+02  0.16395117843E+03  0.89797650075E+02 0.  0.
        -13    1    4    4    0    0 -0.10102349767E+03  0.46861047986E+02  0.42641969008E+01  0.11144455247E+03  0.00000000000E+00 0.  1.
         13    1    4    4    0    0 -0.34810541620E+02 -0.37331707336E+02  0.12309166890E+02  0.52506625963E+02  0.00000000000E+00 0. -1.
        -13    1    3    3    0    0  0.58506582931E+02  0.26451349162E+01  0.59036171056E+02  0.83158201508E+02  0.00000000000E+00 0.  1.
         13    1    3    3    0    0  0.58305721163E+02 -0.26156212012E+02 -0.17572081047E+02  0.66275806894E+02  0.00000000000E+00 0. -1.
         21    1    1    2  502  501  0.19021735197E+02  0.13981736446E+02  0.18505156442E+02  0.29995936040E+02  0.00000000000E+00 0.  1.
<scales pt_clust_5="13000.00000" pt_clust_6="13000.00000" pt_clust_7="13000.00000" pt_clust_8="13000.00000" pt_clust_9="23.60753"></scales>
<clustering>
<clus scale="   23.608">  1  9  2 -1</clus>
<clus scale="   80.084">  7  8 -1 -1</clus>
<clus scale="   89.798">  5  6 -1 -1</clus>
<clus scale="  150.680">  1  7  2 -1</clus>
<clus scale="  156.060">  2  5  1 -1</clus>
</clustering>
</event>
<event>
 9    1  0.1748361E-005  0.1840832E+03  0.7546771E-02  0.1164703E+00
         -2   -1    0    0    0  501 -0.00000000000E+00  0.00000000000E+00  0.48348794279E+02  0.48348794279E+02  0.00000000000E+00 0.  1.
          2   -1    0    0  502    0  0.00000000000E+00 -0.00000000000E+00 -0.95307457054E+03  0.95307457054E+03  0.00000000000E+00 0. -1.
         23    2    1    2    0    0  0.10195366899E+03 -0.10615978176E+03 -0.28166370442E+03  0.33240802302E+03  0.97448455574E+02 0.  0.
         23    2    1    2    0    0 -0.88156004016E+02  0.13606140610E+03 -0.60169721973E+03  0.62976053824E+03  0.90964850487E+02 0.  0.
        -11    1    4    4    0    0  0.82839636659E+01  0.28895837095E+02 -0.41086684827E+02  0.50908831508E+02  0.00000000000E+00 0.  1.
         11    1    4    4    0    0 -0.96439967682E+02  0.10716556900E+03 -0.56061053490E+03  0.57885170673E+03  0.00000000000E+00 0. -1.
        -13    1    3    3    0    0  0.29229963069E+02 -0.51802013563E+02 -0.33741805858E+02  0.68383834440E+02  0.00000000000E+00 0.  1.
         13    1    3    3    0    0  0.72723705923E+02 -0.54357768200E+02 -0.24792189857E+03  0.26402418858E+03  0.00000000000E+00 0. -1.
         21    1    1    2  502  501 -0.13797664976E+02 -0.29901624334E+02 -0.21364852109E+02  0.39254803556E+02  0.00000000000E+00 0.  1.
<scales pt_clust_5="13000.00000" pt_clust_6="13000.00000" pt_clust_7="13000.00000" pt_clust_8="13000.00000" pt_clust_9="32.93148"></scales>
<clustering>
<clus scale="   32.931">  1  9  2 -1</clus>
<clus scale="   90.965">  5  6 -1 -1</clus>
<clus scale="   97.448">  7  8 -1 -1</clus>
<clus scale="  180.735">  2  5  1 -1</clus>
<clus scale="  180.735">  2  5  1 -1</clus>
</clustering>
</event>
<event>
 9    1  0.1748361E-005  0.1150434E+03  0.7546771E-02  0.1251509E+00
         -3   -1    0    0    0  501 -0.00000000000E+00  0.00000000000E+00  0.18934281854E+03  0.18934281854E+03  0.00000000000E+00 0.  1.
          3   -1    0    0  502    0  0.00000000000E+00 -0.00000000000E+00 -0.11653856851E+03  0.11653856851E+03  0.00000000000E+00 0. -1.
         23    2    1    2    0    0  0.69516630114E+02 -0.23723561563E+02  0.93413145225E+02  0.15240229514E+03  0.95420514716E+02 0.  0.
         23    2    1    2    0    0 -0.62354681146E+02 -0.94715332354E+01 -0.29978674115E+02  0.11825125364E+03  0.95429669829E+02 0.  0.
        -11    1    4    4    0    0  0.24203541638E+02 -0.10760938788E+02  0.44871134220E+00  0.26491707633E+02  0.00000000000E+00 0.  1.
         11    1    4    4    0    0 -0.86558222784E+02  0.12894055523E+01 -0.30427385457E+02  0.91759546010E+02  0.00000000000E+00 0. -1.
        -13    1    3    3    0    0 -0.15724272091E+02  0.19330214092E+02  0.18901545851E+02  0.31275842838E+02  0.00000000000E+00 0. -1.
         13    1    3    3    0    0  0.85240902205E+02 -0.43053775655E+02  0.74511599374E+02  0.12112645231E+03  0.00000000000E+00 0.  1.
         21    1    1    2  502  501 -0.71619489683E+01  0.33195094798E+02  0.93697789204E+01  0.35227838263E+02  0.00000000000E+00 0.  1.
<scales pt_clust_5="13000.00000" pt_clust_6="13000.00000" pt_clust_7="13000.00000" pt_clust_8="13000.00000" pt_clust_9="33.95891"></scales>
<clustering>
<clus scale="   33.959">  1  9  2 -1</clus>
<clus scale="   95.421">  7  8 -1 -1</clus>
<clus scale="   95.430">  5  6 -1 -1</clus>
<clus scale="  115.036">  1  7  2 -1</clus>
<clus scale="  115.043">  2  5  1 -1</clus>
</clustering>
</event>
<event>
 9    1  0.1748361E-005  0.1020179E+03  0.7546771E-02  0.1287106E+00
          2   -1    0    0  502    0  0.00000000000E+00  0.00000000000E+00  0.36434081406E+02  0.36434081406E+02  0.00000000000E+00 0. -1.
         -2   -1    0    0    0  501 -0.00000000000E+00 -0.00000000000E+00 -0.42857912431E+03  0.42857912431E+03  0.00000000000E+00 0.  1.
         23    2    1    2    0    0  0.15620010782E+02  0.14228955299E+02 -0.13587337502E+03  0.15466705085E+03  0.70808718905E+02 0.  0.
         23    2    1    2    0    0 -0.62638828183E+02 -0.18145776296E+02 -0.11490469355E+03  0.16131350036E+03  0.92553037801E+02 0.  0.
        -11    1    3    3    0    0  0.16460416678E+02 -0.18647718472E+02 -0.14229564433E+02  0.28655945725E+02  0.00000000000E+00 0. -1.
         11    1    3    3    0    0 -0.84040589601E+00  0.32876673771E+02 -0.12164381059E+03  0.12601110512E+03  0.00000000000E+00 0.  1.
        -11    1    4    4    0    0  0.13087598921E+02  0.23411504657E+02 -0.28509384722E+02  0.39142928008E+02  0.00000000000E+00 0.  1.
         11    1    4    4    0    0 -0.75726427104E+02 -0.41557280954E+02 -0.86395308830E+02  0.12217057236E+03  0.00000000000E+00 0. -1.
         21    1    1    2  502  501  0.47018817401E+02  0.39168209972E+01 -0.14136697433E+03  0.14903265450E+03  0.00000000000E+00 0.  1.
<scales pt_clust_5="13000.00000" pt_clust_6="13000.00000" pt_clust_7="13000.00000" pt_clust_8="13000.00000" pt_clust_9="47.18168"></scales>
<clustering>
<clus scale="   47.182">  2  9  1 -1</clus>
<clus scale="   70.809">  5  6 -1 -1</clus>
<clus scale="   82.798">  2  5  1 -1</clus>
<clus scale="   92.553">  7  8 -1 -1</clus>
<clus scale="  102.018">  1  5  2 -1</clus>
</clustering>
</event>
<event>
 9    1  0.1748361E-005  0.1451052E+03  0.7546771E-02  0.1206635E+00
         -1   -1    0    0    0  501 -0.00000000000E+00  0.00000000000E+00  0.35107221966E+03  0.35107221966E+03  0.00000000000E+00 0.  1.
          1   -1    0    0  502    0  0.00000000000E+00 -0.00000000000E+00 -0.30637862365E+03  0.30637862365E+03  0.00000000000E+00 0. -1.
         23    2    1    2    0    0  0.99657605159E+01  0.48311085349E+02  0.25522942267E+03  0.27536892251E+03  0.90844416110E+02 0.  0.
         23    2    1    2    0    0 -0.95736493530E+02 -0.71010031478E+02 -0.24476947868E+03  0.28698300531E+03  0.90770297339E+02 0.  0.
        -11    1    4    4    0    0 -0.60404693485E+02 -0.15909448354E+02 -0.45612894442E+02  0.77345805842E+02  0.00000000000E+00 0.  1.
         11    1    4    4    0    0 -0.35331800045E+02 -0.55100583124E+02 -0.19915658424E+03  0.20963719947E+03  0.00000000000E+00 0. -1.
        -11    1    3    3    0    0  0.32650872319E+02  0.43682818962E+01  0.19344819080E+03  0.19623293270E+03  0.00000000000E+00 0.  1.
         11    1    3    3    0    0 -0.22685111804E+02  0.43942803453E+02  0.61781231865E+02  0.79135989813E+02  0.00000000000E+00 0. -1.
         21    1    1    2  502  501  0.85770733014E+02  0.22698946129E+02  0.34233652018E+02  0.95098915491E+02  0.00000000000E+00 0.  1.
<scales pt_clust_5="13000.00000" pt_clust_6="13000.00000" pt_clust_7="13000.00000" pt_clust_8="13000.00000" pt_clust_9="88.72351"></scales>
<clustering>
<clus scale="   88.724">  1  9  2 -1</clus>
<clus scale="   90.770">  5  6 -1 -1</clus>
<clus scale="   90.844">  7  8 -1 -1</clus>
<clus scale="  145.059">  2  5  1 -1</clus>
<clus scale="  145.059">  2  5  1 -1</clus>
</clustering>
</event>
<event>
 9    1  0.1748361E-005  0.9524188E+02  0.7546771E-02  0.1292137E+00
         -1   -1    0    0    0  501 -0.00000000000E+00  0.00000000000E+00  0.86266283477E+02  0.86266283477E+02  0.00000000000E+00 0.  1.
          1   -1    0    0  502    0  0.00000000000E+00 -0.00000000000E+00 -0.25376387612E+03  0.25376387612E+03  0.00000000000E+00 0. -1.
         23    2    1    2    0    0  0.29542653575E+02  0.26331227010E+02 -0.75713979729E+01  0.98651228602E+02  0.90047970223E+02 0.  0.
         23    2    1    2    0    0 -0.13199566159E+02 -0.10911653276E+02 -0.18503046721E+03  0.20768791943E+03  0.92761551054E+02 0.  0.
        -11    1    4    4    0    0 -0.57525469382E+01  0.39002866063E+02 -0.11345368483E+03  0.12010850910E+03  0.00000000000E+00 0. -1.
         11    1    4    4    0    0 -0.74470192211E+01 -0.49914519339E+02 -0.71576782387E+02  0.87579410326E+02  0.00000000000E+00 0.  1.
        -13    1    3    3    0    0  0.61530176800E+02  0.98734195510E+01 -0.30078418464E+01  0.62389856414E+02  0.00000000000E+00 0. -1.
         13    1    3    3    0    0 -0.31987523225E+02  0.16457807459E+02 -0.45635561265E+01  0.36261372188E+02  0.00000000000E+00 0.  1.
         21    1    1    2  502  501 -0.16343087416E+02 -0.15419573734E+02  0.25104272546E+02  0.33691011568E+02  0.00000000000E+00 0.  1.
<scales pt_clust_5="13000.00000" pt_clust_6="13000.00000" pt_clust_7="13000.00000" pt_clust_8="13000.00000" pt_clust_9="22.46908"></scales>
<clustering>
<clus scale="   22.469">  1  9  2 -1</clus>
<clus scale="   90.048">  7  8 -1 -1</clus>
<clus scale="   92.601">  1  7  2 -1</clus>
<clus scale="   92.762">  5  6 -1 -1</clus>
<clus scale="   95.242">  2  5  1 -1</clus>
</clustering>
</event>
<event>
 9    1  0.1748361E-005  0.1320095E+03  0.7546771E-02  0.1227343E+00
         -1   -1    0    0    0  501 -0.00000000000E+00  0.00000000000E+00  0.18849925479E+03  0.18849925479E+03  0.00000000000E+00 0.  1.
          1   -1    0    0  502    0  0.00000000000E+00 -0.00000000000E+00 -0.13434549442E+03  0.13434549442E+03  0.00000000000E+00 0. -1.
         23    2    1    2    0    0  0.92168515394E+02 -0.31233519991E+02  0.10744786206E+01  0.14005600517E+03  0.10071723824E+03 0.  0.
         23    2    1    2    0    0 -0.62892079464E+02  0.44539489314E+02 -0.20772569435E+01  0.11894203481E+03  0.90574350012E+02 0.  0.
        -13    1    3    3    0    0 -0.19528199142E+02 -0.19506481493E+02  0.27015170080E+01  0.27733582100E+02  0.00000000000E+00 0. -1.
         13    1    3    3    0    0  0.11169671454E+03 -0.11727038498E+02 -0.16270383874E+01  0.11232242307E+03  0.00000000000E+00 0.  1.
        -13    1    4    4    0    0 -0.16943153420E+02  0.63106657746E+02 -0.16375259452E+02  0.67362228450E+02  0.00000000000E+00 0.  1.
         13    1    4    4    0    0 -0.45948926043E+02 -0.18567168432E+02  0.14298002508E+02  0.51579806357E+02  0.00000000000E+00 0. -1.
         21    1    1    2  502  501 -0.29276435930E+02 -0.13305969323E+02  0.55156538691E+02  0.63846709240E+02  0.00000000000E+00 0. -1.
<scales pt_clust_5="13000.00000" pt_clust_6="13000.00000" pt_clust_7="13000.00000" pt_clust_8="13000.00000" pt_clust_9="32.15834"></scales>
<clustering>
<clus scale="   32.158">  1  9  2 -1</clus>
<clus scale="   90.574">  7  8 -1 -1</clus>
<clus scale="  100.717">  5  6 -1 -1</clus>
<clus scale="  124.444">  2  7  1 -1</clus>
<clus scale="  124.444">  2  5  1 -1</clus>
</clustering>
</event>
<event>
 9    1  0.1748361E-005  0.1063298E+03  0.7546771E-02  0.1267844E+00
         -2   -1    0    0    0  501 -0.00000000000E+00  0.00000000000E+00  0.24376446647E+02  0.24376446647E+02  0.00000000000E+00 0.  1.
          2   -1    0    0  502    0  0.00000000000E+00 -0.00000000000E+00 -0.66917618686E+03  0.66917618686E+03  0.00000000000E+00 0. -1.
         23    2    1    2    0    0 -0.11216799305E+01  0.41307546348E+02 -0.15128379342E+03  0.18192494234E+03  0.92208063322E+02 0.  0.
         23    2    1    2    0    0 -0.17301036945E+02 -0.56106209225E+02 -0.43825313086E+03  0.45152464845E+03  0.91441067638E+02 0.  0.
        -11    1    4    4    0    0 -0.93015380172E+01 -0.76365551472E+02 -0.40148595194E+03  0.40878990406E+03  0.00000000000E+00 0.  1.
         11    1    4    4    0    0 -0.79994989280E+01  0.20259342247E+02 -0.36767178925E+02  0.42734744383E+02  0.00000000000E+00 0. -1.
        -13    1    3    3    0    0  0.63706572547E+01 -0.23190605797E+02 -0.88105474399E+02  0.91328878730E+02  0.00000000000E+00 0.  1.
         13    1    3    3    0    0 -0.74923371852E+01  0.64498152145E+02 -0.63178319020E+02  0.90596063606E+02  0.00000000000E+00 0. -1.
         21    1    1    2  502  501  0.18422716876E+02  0.14798662878E+02 -0.55262815928E+02  0.60103042721E+02  0.00000000000E+00 0. -1.
<scales pt_clust_5="13000.00000" pt_clust_6="13000.00000" pt_clust_7="13000.00000" pt_clust_8="13000.00000" pt_clust_9="23.63042"></scales>
<clustering>
<clus scale="   23.630">  1  9  2 -1</clus>
<clus scale="   91.441">  5  6 -1 -1</clus>
<clus scale="   92.208">  7  8 -1 -1</clus>
<clus scale="  105.665">  2  5  1 -1</clus>
<clus scale="  105.665">  2  5  1 -1</clus>
</clustering>
</event>
<event>
 9    1  0.1748361E-005  0.1464378E+03  0.7546771E-02  0.1205619E+00
         -4   -1    0    0    0  501 -0.00000000000E+00  0.00000000000E+00  0.60729732061E+03  0.60729732061E+03  0.00000000000E+00 0.  1.
          4   -1    0    0  502    0  0.00000000000E+00 -0.00000000000E+00 -0.42714729519E+02  0.42714729519E+02  0.00000000000E+00 0. -1.
         23    2    1    2    0    0  0.65921120452E+02  0.10081722015E+03  0.37154234408E+03  0.40150609644E+03  0.93025405296E+02 0.  0.
         23    2    1    2    0    0 -0.62550825432E+02 -0.80152674010E+02  0.16976402863E+03  0.21719837157E+03  0.89544683178E+02 0.  0.
        -13    1    3    3    0    0  0.80333226246E+02  0.40117676818E+02  0.21645475813E+03  0.23434060158E+03  0.00000000000E+00 0.  1.
         13    1    3    3    0    0 -0.14412105794E+02  0.60699543335E+02  0.15508758596E+03  0.16716549486E+03  0.00000000000E+00 0. -1.
        -13    1    4    4    0    0 -0.46083745309E+01 -0.73892208920E+02  0.11770574732E+03  0.13905372562E+03  0.00000000000E+00 0.  1.
         13    1    4    4    0    0 -0.57942450901E+02 -0.62604650903E+01  0.52058281305E+02  0.78144645959E+02  0.00000000000E+00 0. -1.
         21    1    1    2  502  501 -0.33702950197E+01 -0.20664546143E+02  0.23276218377E+02  0.31307582113E+02  0.00000000000E+00 0.  1.
<scales pt_clust_5="13000.00000" pt_clust_6="13000.00000" pt_clust_7="13000.00000" pt_clust_8="13000.00000" pt_clust_9="20.93758"></scales>
<clustering>
<clus scale="   20.938">  2  9  1 -1</clus>
<clus scale="   89.545">  7  8 -1 -1</clus>
<clus scale="   93.025">  5  6 -1 -1</clus>
<clus scale="  144.252">  2  7  1 -1</clus>
<clus scale="   20.938">  2  5  1 -1</clus>
</clustering>
</event>
<event>
 9    1  0.1748361E-005  0.9325243E+02  0.7546771E-02  0.1295586E+00
          1   -1    0    0  502    0  0.00000000000E+00  0.00000000000E+00  0.31983365198E+03  0.31983365198E+03  0.00000000000E+00 0. -1.
         -1   -1    0    0    0  501 -0.00000000000E+00 -0.00000000000E+00 -0.37195212130E+02  0.37195212130E+02  0.00000000000E+00 0.  1.
         23    2    1    2    0    0  0.19040644132E+02  0.59929657516E+01  0.11968390645E+03  0.15122303677E+03  0.90253573999E+02 0.  0.
         23    2    1    2    0    0 -0.67828444940E+01 -0.24674927121E+02  0.15599311043E+03  0.18240217928E+03  0.91004645466E+02 0.  0.
        -13    1    4    4    0    0 -0.17388139427E+02  0.21750218405E+02  0.11868245406E+03  0.12190547279E+03  0.00000000000E+00 0. -1.
         13    1    4    4    0    0  0.10605294933E+02 -0.46425145526E+02  0.37310656366E+02  0.60496706491E+02  0.00000000000E+00 0.  1.
        -13    1    3    3    0    0 -0.28153169798E+02  0.27124661414E+02  0.37807272663E+02  0.54385090721E+02  0.00000000000E+00 0. -1.
         13    1    3    3    0    0  0.47193813930E+02 -0.21131695662E+02  0.81876633790E+02  0.96837946052E+02  0.00000000000E+00 0.  1.
         21    1    1    2  502  501 -0.12257799638E+02  0.18681961369E+02  0.69614229649E+01  0.23403648054E+02  0.00000000000E+00 0.  1.
<scales pt_clust_5="13000.00000" pt_clust_6="13000.00000" pt_clust_7="13000.00000" pt_clust_8="13000.00000" pt_clust_9="22.34434"></scales>
<clustering>
<clus scale="   22.344">  2  9  1 -1</clus>
<clus scale="   90.254">  7  8 -1 -1</clus>
<clus scale="   91.005">  5  6 -1 -1</clus>
<clus scale="   92.520">  2  7  1 -1</clus>
<clus scale="   93.252">  1  5  2 -1</clus>
</clustering>
</event>
<event>
 9    1  0.1748361E-005  0.9741725E+02  0.7546771E-02  0.1288738E+00
         -1   -1    0    0    0  501 -0.00000000000E+00  0.00000000000E+00  0.90784057785E+02  0.90784057785E+02  0.00000000000E+00 0.  1.
          1   -1    0    0  502    0  0.00000000000E+00 -0.00000000000E+00 -0.24466569344E+03  0.24466569344E+03  0.00000000000E+00 0. -1.
         23    2    1    2    0    0  0.28378699160E+01  0.23771635932E+02 -0.67245690879E+02  0.11623283271E+03  0.91733005385E+02 0.  0.
         23    2    1    2    0    0 -0.38443512575E+02 -0.20657714462E+02 -0.13066786569E+03  0.16250476500E+03  0.86192010640E+02 0.  0.
        -13    1    3    3    0    0  0.16933316936E+01 -0.28575950165E+02  0.28193857702E+01  0.28764583018E+02  0.00000000000E+00 0.  1.
         13    1    3    3    0    0  0.11445382224E+01  0.52347586097E+02 -0.70065076650E+02  0.87468249690E+02  0.00000000000E+00 0. -1.
        -13    1    4    4    0    0  0.27286056026E+02 -0.29430978622E+01 -0.27115742123E+02  0.38580489232E+02  0.00000000000E+00 0.  1.
         13    1    4    4    0    0 -0.65729568601E+02 -0.17714616600E+02 -0.10355212357E+03  0.12392427577E+03  0.00000000000E+00 0. -1.
         21    1    1    2  502  501  0.35605642659E+02 -0.31139214696E+01  0.44031920919E+02  0.56712153511E+02  0.00000000000E+00 0.  1.
<scales pt_clust_5="13000.00000" pt_clust_6="13000.00000" pt_clust_7="13000.00000" pt_clust_8="13000.00000" pt_clust_9="35.74155"></scales>
<clustering>
<clus scale="   35.742">  1  9  2 -1</clus>
<clus scale="   86.192">  7  8 -1 -1</clus>
<clus scale="   91.733">  5  6 -1 -1</clus>
<clus scale="   92.218">  2  7  1 -1</clus>
<clus scale="   92.218">  2  5  1 -1</clus>
</clustering>
</event>
<event>
 9    1  0.1748361E-005  0.1250595E+03  0.7546771E-02  0.1234983E+00
          3   -1    0    0  502    0  0.00000000000E+00  0.00000000000E+00  0.10702082418E+04  0.10702082418E+04  0.00000000000E+00 0. -1.
         -3   -1    0    0    0  501 -0.00000000000E+00 -0.00000000000E+00 -0.19063548176E+02  0.19063548176E+02  0.00000000000E+00 0.  1.
         23    2    1    2    0    0 -0.40403728014E+02  0.89719733777E+02  0.45141530260E+03  0.47084849328E+03  0.90776849126E+02 0.  0.
         23    2    1    2    0    0  0.18003204871E+02 -0.76224211972E+02  0.54119471252E+03  0.55431229036E+03  0.90753250661E+02 0.  0.
        -13    1    3    3    0    0  0.21496739660E+02  0.52672629453E+02  0.26328072773E+03  0.26935711853E+03  0.00000000000E+00 0.  1.
         13    1    3    3    0    0 -0.61900467674E+02  0.37047104324E+02  0.18813457487E+03  0.20149137475E+03  0.00000000000E+00 0. -1.
        -13    1    4    4    0    0 -0.26963648594E+02  0.55004199653E+00  0.74961264801E+02  0.79665124818E+02  0.00000000000E+00 0.  1.
         13    1    4    4    0    0  0.44966853465E+02 -0.76774253968E+02  0.46623344772E+03  0.47464716554E+03  0.00000000000E+00 0. -1.
         21    1    1    2  502  501  0.22400523143E+02 -0.13495521806E+02  0.58534678485E+02  0.64111006319E+02  0.00000000000E+00 0. -1.
<scales pt_clust_5="13000.00000" pt_clust_6="13000.00000" pt_clust_7="13000.00000" pt_clust_8="13000.00000" pt_clust_9="26.15172"></scales>
<clustering>
<clus scale="   26.152">  2  9  1 -1</clus>
<clus scale="   90.753">  7  8 -1 -1</clus>
<clus scale="   90.777">  5  6 -1 -1</clus>
<clus scale="  125.042">  1  7  2 -1</clus>
<clus scale="  125.042">  1  5  2 -1</clus>
</clustering>
</event>
<event>
 9    1  0.1748361E-005  0.1455732E+03  0.7546771E-02  0.1206170E+00
         -1   -1    0    0    0  501 -0.00000000000E+00  0.00000000000E+00  0.17308436691E+03  0.17308436691E+03  0.00000000000E+00 0.  1.
          1   -1    0    0  502    0  0.00000000000E+00 -0.00000000000E+00 -0.22614267154E+03  0.22614267154E+03  0.00000000000E+00 0. -1.
         23    2    1    2    0    0  0.97248960534E+02  0.58833364060E+01  0.62126773760E+02  0.14725989588E+03  0.91289467878E+02 0.  0.
         23    2    1    2    0    0 -0.11723664959E+03 -0.40544941023E+01 -0.15018053148E+03  0.21162443424E+03  0.92031723887E+02 0.  0.
        -11    1    3    3    0    0  0.90183654660E+02 -0.30758619444E+02  0.52195096533E+02  0.10864397056E+03  0.00000000000E+00 0.  1.
         11    1    3    3    0    0  0.70653058735E+01  0.36641955850E+02  0.99316772273E+01  0.38615925318E+02  0.00000000000E+00 0. -1.
        -11    1    4    4    0    0 -0.47885246794E+02  0.10964587646E+02 -0.41905372310E+01  0.49302937490E+02  0.00000000000E+00 0.  1.
         11    1    4    4    0    0 -0.69351402799E+02 -0.15019081749E+02 -0.14598999425E+03  0.16232149675E+03  0.00000000000E+00 0. -1.
         21    1    1    2  502  501  0.19987689060E+02 -0.18288423037E+01  0.34995453085E+02  0.40342708322E+02  0.00000000000E+00 0. -1.
<scales pt_clust_5="13000.00000" pt_clust_6="13000.00000" pt_clust_7="13000.00000" pt_clust_8="13000.00000" pt_clust_9="20.07118"></scales>
<clustering>
<clus scale="   20.071">  1  9  2 -1</clus>
<clus scale="   91.289">  5  6 -1 -1</clus>
<clus scale="   92.032">  7  8 -1 -1</clus>
<clus scale="  145.105">  1  5  2 -1</clus>
<clus scale="  145.573">  2  5  1 -1</clus>
</clustering>
</event>
<event>
 9    1  0.1748361E-005  0.1047039E+03  0.7546771E-02  0.1271438E+00
          2   -1    0    0  502    0  0.00000000000E+00  0.00000000000E+00  0.10323441479E+03  0.10323441479E+03  0.00000000000E+00 0. -1.
         -2   -1    0    0    0  501 -0.00000000000E+00 -0.00000000000E+00 -0.26834459513E+03  0.26834459513E+03  0.00000000000E+00 0.  1.
         23    2    1    2    0    0  0.69375034129E+02 -0.40523021173E+02 -0.14648947163E+03  0.19052085577E+03  0.91564297519E+02 0.  0.
         23    2    1    2    0    0 -0.46381860543E+02 -0.50716403061E+00  0.37470742276E+02  0.10785697245E+03  0.89875112106E+02 0.  0.
        -11    1    3    3    0    0  0.71548604594E+02  0.73303656487E+01 -0.10426211245E+03  0.12666303791E+03  0.00000000000E+00 0. -1.
         11    1    3    3    0    0 -0.21735704645E+01 -0.47853386822E+02 -0.42227359182E+02  0.63857817864E+02  0.00000000000E+00 0.  1.
        -13    1    4    4    0    0  0.58578660724E+01  0.35810324347E+02  0.56629354545E+01  0.36725505615E+02  0.00000000000E+00 0. -1.
         13    1    4    4    0    0 -0.52239726615E+02 -0.36317488377E+02  0.31807806822E+02  0.71131466832E+02  0.00000000000E+00 0.  1.
         21    1    1    2  502  501 -0.22993173586E+02  0.41030185204E+02 -0.56091450978E+02  0.73201181700E+02  0.00000000000E+00 0. -1.
<scales pt_clust_5="13000.00000" pt_clust_6="13000.00000" pt_clust_7="13000.00000" pt_clust_8="13000.00000" pt_clust_9="47.03363"></scales>
<clustering>
<clus scale="   47.034">  2  9  1 -1</clus>
<clus scale="   89.875">  7  8 -1 -1</clus>
<clus scale="   91.564">  5  6 -1 -1</clus>
<clus scale="  103.230">  1  7  2 -1</clus>
<clus scale="  103.230">  1  5  2 -1</clus>
</clustering>
</event>
<event>
 9    1  0.1748361E-005  0.2338452E+03  0.7546771E-02  0.1124069E+00
          3   -1    0    0  502    0  0.00000000000E+00  0.00000000000E+00  0.43344155512E+03  0.43344155512E+03  0.00000000000E+00 0. -1.
         -3   -1    0    0    0  501 -0.00000000000E+00 -0.00000000000E+00 -0.16325588865E+03  0.16325588865E+03  0.00000000000E+00 0.  1.
         23    2    1    2    0    0 -0.92826256337E+02 -0.20962180759E+03  0.12812582794E+03  0.27869802891E+03  0.93264931517E+02 0.  0.
         23    2    1    2    0    0  0.91566054629E+02  0.18185591423E+03  0.16841597407E+03  0.27969564451E+03  0.91704947178E+02 0.  0.
        -11    1    3    3    0    0 -0.65964844395E+02 -0.81288923932E+02  0.99641437873E+02  0.14452565859E+03  0.00000000000E+00 0. -1.
         11    1    3    3    0    0 -0.26861411942E+02 -0.12833288366E+03  0.28484390064E+02  0.13417237032E+03  0.00000000000E+00 0.  1.
        -13    1    4    4    0    0  0.61369937728E+02  0.11739733381E+03  0.50118961742E+02  0.14163443638E+03  0.00000000000E+00 0. -1.
         13    1    4    4    0    0  0.30196116901E+02  0.64458580421E+02  0.11829701233E+03  0.13806120813E+03  0.00000000000E+00 0.  1.
         21    1    1    2  502  501  0.12602017076E+01  0.27765893354E+02 -0.26356135542E+02  0.38303770347E+02  0.00000000000E+00 0. -1.
<scales pt_clust_5="13000.00000" pt_clust_6="13000.00000" pt_clust_7="13000.00000" pt_clust_8="13000.00000" pt_clust_9="27.79448"></scales>
<clustering>
<clus scale="   27.794">  2  9  1 -1</clus>
<clus scale="   91.705">  7  8 -1 -1</clus>
<clus scale="   93.265">  5  6 -1 -1</clus>
<clus scale="  233.227">  1  7  2 -1</clus>
<clus scale="  233.227">  1  5  2 -1</clus>
</clustering>
</event>
<event>
 9    1  0.1748361E-005  0.1675764E+03  0.7546771E-02  0.1197909E+00
         -1   -1    0    0    0  501 -0.00000000000E+00  0.00000000000E+00  0.26868017979E+03  0.26868017979E+03  0.00000000000E+00 0.  1.
          1   -1    0    0  502    0  0.00000000000E+00 -0.00000000000E+00 -0.18974108433E+03  0.18974108433E+03  0.00000000000E+00 0. -1.
         23    2    1    2    0    0  0.30621820228E+02 -0.58858065472E+02  0.70628752296E+02  0.13389235164E+03  0.92394661273E+02 0.  0.
         23    2    1    2    0    0  0.52120620707E+02 -0.67114417953E+02  0.81967360082E+02  0.15677691025E+03  0.10314769638E+03 0.  0.
        -13    1    4    4    0    0  0.33033596438E+02  0.16915187145E+02 -0.10432390388E+01  0.37127219092E+02  0.00000000000E+00 0. -1.
         13    1    4    4    0    0  0.19087024269E+02 -0.84029605098E+02  0.83010599121E+02  0.11964969116E+03  0.00000000000E+00 0.  1.
        -13    1    3    3    0    0  0.45747063500E+02  0.17802493574E+00  0.78823134781E+01  0.46421507704E+02  0.00000000000E+00 0. -1.
         13    1    3    3    0    0 -0.15125243272E+02 -0.59036090408E+02  0.62746438818E+02  0.87470843937E+02  0.00000000000E+00 0.  1.
         21    1    1    2  502  501 -0.82742440935E+02  0.12597248343E+03 -0.73657016917E+02  0.16775200223E+03  0.00000000000E+00 0. -1.
<scales pt_clust_5="13000.00000" pt_clust_6="13000.00000" pt_clust_7="13000.00000" pt_clust_8="13000.00000" pt_clust_9="132.06963"></scales>
<clustering>
<clus scale="   92.395">  7  8 -1 -1</clus>
<clus scale="  103.148">  5  6 -1 -1</clus>
<clus scale="  113.749">  1  7  2 -1</clus>
<clus scale="  132.070">  2  9  1 -1</clus>
<clus scale="  132.070">  2  5  1 -1</clus>
</clustering>
</event>
<event>
 9    1  0.1748361E-005  0.1057954E+03  0.7546771E-02  0.1268769E+00
          1   -1    0    0  502    0  0.00000000000E+00  0.00000000000E+00  0.16149015613E+03  0.16149015613E+03  0.00000000000E+00 0. -1.
         -1   -1    0    0    0  501 -0.00000000000E+00 -0.00000000000E+00 -0.12297132406E+03  0.12297132406E+03  0.00000000000E+00 0.  1.
         23    2    1    2    0    0 -0.22425821109E+02 -0.75463568428E+02  0.11969551795E+02  0.12085625221E+03  0.90913672871E+02 0.  0.
         23    2    1    2    0    0  0.29109004642E+02  0.29255172361E+02  0.49201498798E+02  0.11171106826E+03  0.91407745992E+02 0.  0.
        -11    1    4    4    0    0 -0.21192261515E+02 -0.69314318650E+01 -0.11396233630E+02  0.25040583795E+02  0.00000000000E+00 0.  1.
         11    1    4    4    0    0  0.50301266157E+02  0.36186604226E+02  0.60597732428E+02  0.86670484468E+02  0.00000000000E+00 0. -1.
        -11    1    3    3    0    0 -0.45627215618E+02 -0.79673506284E+02 -0.47718124128E+01  0.91937373262E+02  0.00000000000E+00 0.  1.
         11    1    3    3    0    0  0.23201394509E+02  0.42099378556E+01  0.16741364207E+02  0.28918878945E+02  0.00000000000E+00 0. -1.
         21    1    1    2  502  501 -0.66831835322E+01  0.46208396067E+02 -0.22652218528E+02  0.51894159723E+02  0.00000000000E+00 0.  1.
<scales pt_clust_5="13000.00000" pt_clust_6="13000.00000" pt_clust_7="13000.00000" pt_clust_8="13000.00000" pt_clust_9="46.68919"></scales>
<clustering>
<clus scale="   46.689">  2  9  1 -1</clus>
<clus scale="   90.914">  7  8 -1 -1</clus>
<clus scale="   91.408">  5  6 -1 -1</clus>
<clus scale="  105.369">  2  7  1 -1</clus>
<clus scale="  105.795">  1  5  2 -1</clus>
</clustering>
</event>
<event>
 9    1  0.1748361E-005  0.2433380E+03  0.7546771E-02  0.1117610E+00
         -1   -1    0    0    0  501 -0.00000000000E+00  0.00000000000E+00  0.35385509731E+03  0.35385509731E+03  0.00000000000E+00 0.  1.
          1   -1    0    0  502    0  0.00000000000E+00 -0.00000000000E+00 -0.21885861192E+03  0.21885861192E+03  0.00000000000E+00 0. -1.
         23    2    1    2    0    0  0.16026008902E+03  0.13319679353E+03  0.11452933244E+03  0.25431879545E+03  0.90201994385E+02 0.  0.
         23    2    1    2    0    0 -0.18118414580E+03 -0.15164650479E+03 -0.35840258819E+02  0.25555597188E+03  0.90553705096E+02 0.  0.
        -11    1    3    3    0    0  0.71726080545E+01  0.30457859770E+02 -0.88006037451E+01  0.32505048136E+02  0.00000000000E+00 0. -1.
         11    1    3    3    0    0  0.15308748096E+03  0.10273893376E+03  0.12332993618E+03  0.22181374731E+03  0.00000000000E+00 0.  1.
        -13    1    4    4    0    0 -0.29593288916E+02 -0.13310166721E+02 -0.38454486476E+02  0.50315711434E+02  0.00000000000E+00 0.  1.
         13    1    4    4    0    0 -0.15159085689E+03 -0.13833633807E+03  0.26142276574E+01  0.20524026045E+03  0.00000000000E+00 0. -1.
         21    1    1    2  502  501  0.20924056786E+02  0.18449711256E+02  0.56307411773E+02  0.62838941894E+02  0.00000000000E+00 0.  1.
<scales pt_clust_5="13000.00000" pt_clust_6="13000.00000" pt_clust_7="13000.00000" pt_clust_8="13000.00000" pt_clust_9="27.89638"></scales>
<clustering>
<clus scale="   27.896">  1  9  2 -1</clus>
<clus scale="   90.202">  5  6 -1 -1</clus>
<clus scale="   90.554">  7  8 -1 -1</clus>
<clus scale="  243.207">  1  5  2 -1</clus>
<clus scale="  243.338">  2  5  1 -1</clus>
</clustering>
</event>
<event>
 9    1  0.1748361E-005  0.1059105E+03  0.7546771E-02  0.1268801E+00
         -1   -1    0    0    0  501 -0.00000000000E+00  0.00000000000E+00  0.17094477424E+03  0.17094477424E+03  0.00000000000E+00 0.  1.
          1   -1    0    0  502    0  0.00000000000E+00 -0.00000000000E+00 -0.24209405100E+03  0.24209405100E+03  0.00000000000E+00 0. -1.
         23    2    1    2    0    0  0.28407890852E+00  0.24208629031E+02  0.58922869790E+02  0.11156463029E+03  0.91589430209E+02 0.  0.
         23    2    1    2    0    0  0.63822760102E+01 -0.57484231747E+02 -0.19816384213E+03  0.22539407252E+03  0.90489829562E+02 0.  0.
        -13    1    4    4    0    0  0.37137682488E+02 -0.47165523031E+02 -0.17638589823E+03  0.18632170866E+03  0.00000000000E+00 0. -1.
         13    1    4    4    0    0 -0.30755406478E+02 -0.10318708715E+02 -0.21777943894E+02  0.39072363858E+02  0.00000000000E+00 0.  1.
        -13    1    3    3    0    0 -0.23906803633E+02  0.33961418382E+02  0.71438854251E+02  0.82634273127E+02  0.00000000000E+00 0.  1.
         13    1    3    3    0    0  0.24190882542E+02 -0.97527893516E+01 -0.12515984461E+02  0.28930357158E+02  0.00000000000E+00 0. -1.
         21    1    1    2  502  501 -0.66663549187E+01  0.33275602716E+02  0.68091695570E+02  0.76080122434E+02  0.00000000000E+00 0. -1.
<scales pt_clust_5="13000.00000" pt_clust_6="13000.00000" pt_clust_7="13000.00000" pt_clust_8="13000.00000" pt_clust_9="33.93679"></scales>
<clustering>
<clus scale="   33.937">  1  9  2 -1</clus>
<clus scale="   90.490">  5  6 -1 -1</clus>
<clus scale="   91.589">  7  8 -1 -1</clus>
<clus scale="  104.961">  2  5  1 -1</clus>
<clus scale="  104.961">  2  5  1 -1</clus>
</clustering>
</event>
<event>
 9    1  0.1748361E-005  0.1072613E+03  0.7546771E-02  0.1266462E+00
          3   -1    0    0  502    0  0.00000000000E+00  0.00000000000E+00  0.26018323306E+02  0.26018323306E+02  0.00000000000E+00 0. -1.
         -3   -1    0    0    0  501 -0.00000000000E+00 -0.00000000000E+00 -0.94267391384E+03  0.94267391384E+03  0.00000000000E+00 0.  1.
         23    2    1    2    0    0 -0.15614873575E+02 -0.87120404268E+02 -0.33125089707E+03  0.35471283257E+03  0.90885904677E+02 0.  0.
         23    2    1    2    0    0  0.31974670997E+02  0.21903445585E+02 -0.21221389992E+03  0.23477990159E+03  0.92653776815E+02 0.  0.
        -13    1    3    3    0    0  0.37252122027E+02 -0.29636402919E+02 -0.14941582565E+03  0.15681557935E+03  0.00000000000E+00 0. -1.
         13    1    3    3    0    0 -0.52866995602E+02 -0.57484001349E+02 -0.18183507142E+03  0.19789725322E+03  0.00000000000E+00 0.  1.
        -13    1    4    4    0    0  0.53945244265E+02 -0.98177551106E+01 -0.16460593153E+03  0.17349809909E+03  0.00000000000E+00 0.  1.
         13    1    4    4    0    0 -0.21970573268E+02  0.31721200695E+02 -0.47607968397E+02  0.61281802505E+02  0.00000000000E+00 0. -1.
         21    1    1    2  502  501 -0.16359797423E+02  0.65216958683E+02 -0.37319079354E+03  0.37919950298E+03  0.00000000000E+00 0. -1.
<scales pt_clust_5="13000.00000" pt_clust_6="13000.00000" pt_clust_7="13000.00000" pt_clust_8="13000.00000" pt_clust_9="67.23760"></scales>
<clustering>
<clus scale="   67.238">  2  9  1 -1</clus>
<clus scale="   90.886">  5  6 -1 -1</clus>
<clus scale="   92.654">  7  8 -1 -1</clus>
<clus scale="  105.738">  2  5  1 -1</clus>
<clus scale="  107.261">  1  5  2 -1</clus>
</clustering>
</event>
<event>
 9    1  0.1748361E-005  0.9313131E+02  0.7546771E-02  0.1296310E+00
          1   -1    0    0  502    0  0.00000000000E+00  0.00000000000E+00  0.86089207294E+02  0.86089207294E+02  0.00000000000E+00 0. -1.
         -1   -1    0    0    0  501 -0.00000000000E+00 -0.00000000000E+00 -0.26422304903E+03  0.26422304903E+03  0.00000000000E+00 0.  1.
         23    2    1    2    0    0  0.33569489463E+01 -0.20207016983E+01 -0.19270764118E+03  0.21392341225E+03  0.92798917008E+02 0.  0.
         23    2    1    2    0    0 -0.33574704455E+02  0.39835134851E+01  0.30691224653E+02  0.10208524698E+03  0.91303434886E+02 0.  0.
        -11    1    4    4    0    0  0.58937281499E+01  0.40227385231E+02  0.26078569081E+02  0.48301866624E+02  0.00000000000E+00 0. -1.
         11    1    4    4    0    0 -0.39468432605E+02 -0.36243871746E+02  0.46126555715E+01  0.53783380359E+02  0.00000000000E+00 0.  1.
        -11    1    3    3    0    0  0.23976935858E+02  0.29200163219E+02 -0.33880526246E+02  0.50748724554E+02  0.00000000000E+00 0. -1.
         11    1    3    3    0    0 -0.20619986912E+02 -0.31220864917E+02 -0.15882711493E+03  0.16317468770E+03  0.00000000000E+00 0.  1.
         21    1    1    2  502  501  0.30217755508E+02 -0.19628117868E+01 -0.16117425208E+02  0.34303597092E+02  0.00000000000E+00 0. -1.
<scales pt_clust_5="13000.00000" pt_clust_6="13000.00000" pt_clust_7="13000.00000" pt_clust_8="13000.00000" pt_clust_9="30.28144"></scales>
<clustering>
<clus scale="   30.281">  1  9  2 -1</clus>
<clus scale="   91.303">  5  6 -1 -1</clus>
<clus scale="   91.641">  1  5  2 -1</clus>
<clus scale="   92.799">  7  8 -1 -1</clus>
<clus scale="   30.281">  1  5  2 -1</clus>
</clustering>
</event>
<event>
 9    1  0.1748361E-005  0.1301154E+03  0.7546771E-02  0.1227487E+00
          2   -1    0    0  502    0  0.00000000000E+00  0.00000000000E+00  0.58590081337E+03  0.58590081337E+03  0.00000000000E+00 0. -1.
         -2   -1    0    0    0  501 -0.00000000000E+00 -0.00000000000E+00 -0.17799577691E+03  0.17799577691E+03  0.00000000000E+00 0.  1.
         23    2    1    2    0    0 -0.14023571233E+03  0.23828426824E+02  0.34274556192E+03  0.38213555550E+03  0.91209723317E+02 0.  0.
         23    2    1    2    0    0  0.40675648280E+02 -0.51265113411E+02  0.18961894726E+03  0.22003553130E+03  0.90430468652E+02 0.  0.
        -11    1    3    3    0    0 -0.16844606179E+02  0.39539238400E+02  0.66528420234E+02  0.79203048107E+02  0.00000000000E+00 0.  1.
         11    1    3    3    0    0 -0.12339110615E+03 -0.15710811576E+02  0.27621714168E+03  0.30293250739E+03  0.00000000000E+00 0. -1.
        -11    1    4    4    0    0  0.13218616501E+02  0.23723745715E+02  0.79482641050E+02  0.83994274574E+02  0.00000000000E+00 0. -1.
         11    1    4    4    0    0  0.27457031779E+02 -0.74988859127E+02  0.11013630621E+03  0.13604125673E+03  0.00000000000E+00 0.  1.
         21    1    1    2  502  501  0.99560064048E+02  0.27436686587E+02 -0.12445947272E+03  0.16172550348E+03  0.00000000000E+00 0.  1.
<scales pt_clust_5="13000.00000" pt_clust_6="13000.00000" pt_clust_7="13000.00000" pt_clust_8="13000.00000" pt_clust_9="103.27138"></scales>
<clustering>
<clus scale="   90.430">  7  8 -1 -1</clus>
<clus scale="   91.210">  5  6 -1 -1</clus>
<clus scale="  103.271">  2  9  1 -1</clus>
<clus scale="  129.570">  1  7  2 -1</clus>
<clus scale="  129.570">  1  5  2 -1</clus>
</clustering>
</event>
<event>
 9    1  0.1748361E-005  0.8853908E+02  0.7546771E-02  0.1307480E+00
         -1   -1    0    0    0  501 -0.00000000000E+00  0.00000000000E+00  0.24188094814E+03  0.24188094814E+03  0.00000000000E+00 0.  1.
          1   -1    0    0  502    0  0.00000000000E+00 -0.00000000000E+00 -0.79288160823E+02  0.79288160823E+02  0.00000000000E+00 0. -1.
         23    2    1    2    0    0  0.71218382967E+01 -0.35427510955E+02  0.56686040711E+02  0.10901247064E+03  0.85817145313E+02 0.  0.
         23    2    1    2    0    0 -0.18043884904E+02  0.75755128876E+01 -0.14983044575E+02  0.87620031216E+02  0.84082150708E+02 0.  0.
        -13    1    4    4    0    0 -0.40938565324E+02  0.14421017359E+01  0.19824502132E+02  0.45508863675E+02  0.00000000000E+00 0.  1.
         13    1    4    4    0    0  0.22894680420E+02  0.61334111517E+01 -0.34807546707E+02  0.42111167541E+02  0.00000000000E+00 0. -1.
        -13    1    3    3    0    0  0.28684515221E+01 -0.59048227363E+02  0.60639893449E+02  0.84688357207E+02  0.00000000000E+00 0. -1.
         13    1    3    3    0    0  0.42533867746E+01  0.23620716408E+02 -0.39538527386E+01  0.24324113430E+02  0.00000000000E+00 0.  1.
         21    1    1    2  502  501  0.10922046607E+02  0.27851998068E+02  0.12088979118E+03  0.12453660711E+03  0.00000000000E+00 0.  1.
<scales pt_clust_5="13000.00000" pt_clust_6="13000.00000" pt_clust_7="13000.00000" pt_clust_8="13000.00000" pt_clust_9="29.91697"></scales>
<clustering>
<clus scale="   29.917">  1  9  2 -1</clus>
<clus scale="   84.082">  5  6 -1 -1</clus>
<clus scale="   85.817">  7  8 -1 -1</clus>
<clus scale="   86.858">  2  5  1 -1</clus>
<clus scale="   86.858">  2  5  1 -1</clus>
</clustering>
</event>
<event>
 9    1  0.1748361E-005  0.2777640E+03  0.7546771E-02  0.1097184E+00
         -1   -1    0    0    0  501 -0.00000000000E+00  0.00000000000E+00  0.22182466139E+03  0.22182466139E+03  0.00000000000E+00 0.  1.
          1   -1    0    0  502    0  0.00000000000E+00 -0.00000000000E+00 -0.86727247038E+03  0.86727247038E+03  0.00000000000E+00 0. -1.
         23    2    1    2    0    0 -0.11782634351E+03 -0.18081500679E+03 -0.10864193533E+03  0.25770855902E+03  0.89629891069E+02 0.  0.
         23    2    1    2    0    0  0.14089771019E+03  0.24270517494E+03 -0.64203033649E+03  0.70715142673E+03  0.95405558899E+02 0.  0.
        -13    1    4    4    0    0  0.10845477514E+03  0.94622806486E+02 -0.28541072196E+03  0.31964854757E+03  0.00000000000E+00 0.  1.
         13    1    4    4    0    0  0.32442935047E+02  0.14808236846E+03 -0.35661961453E+03  0.38750287915E+03  0.00000000000E+00 0. -1.
        -13    1    3    3    0    0 -0.56277003476E+02 -0.15852640645E+03 -0.79233626048E+02  0.18594539563E+03  0.00000000000E+00 0.  1.
         13    1    3    3    0    0 -0.61549340037E+02 -0.22288600347E+02 -0.29408309282E+02  0.71763163386E+02  0.00000000000E+00 0. -1.
         21    1    1    2  502  501 -0.23071366678E+02 -0.61890168148E+02  0.10522446283E+03  0.12423714602E+03  0.00000000000E+00 0.  1.
<scales pt_clust_5="13000.00000" pt_clust_6="13000.00000" pt_clust_7="13000.00000" pt_clust_8="13000.00000" pt_clust_9="66.05059"></scales>
<clustering>
<clus scale="   66.051">  1  9  2 -1</clus>
<clus scale="   89.630">  7  8 -1 -1</clus>
<clus scale="   95.406">  5  6 -1 -1</clus>
<clus scale="  275.834">  1  7  2 -1</clus>
<clus scale="  277.764">  2  5  1 -1</clus>
</clustering>
</event>
<event>
 9    1  0.1748361E-005  0.1630236E+03  0.7546771E-02  0.1185527E+00
          1   -1    0    0  502    0  0.00000000000E+00  0.00000000000E+00  0.12374136637E+03  0.12374136637E+03  0.00000000000E+00 0. -1.
         -1   -1    0    0    0  501 -0.00000000000E+00 -0.00000000000E+00 -0.47025377971E+03  0.47025377971E+03  0.00000000000E+00 0.  1.
         23    2    1    2    0    0  0.49035158460E+02 -0.10738457490E+03 -0.35024095107E+03  0.38068187906E+03  0.91181552699E+02 0.  0.
         23    2    1    2    0    0 -0.35872219294E+02  0.13269193253E+03  0.36731521716E+02  0.16969076973E+03  0.92475875605E+02 0.  0.
        -11    1    4    4    0    0  0.26714705317E+02  0.31692172353E+02  0.29064325515E+02  0.50624147265E+02  0.00000000000E+00 0.  1.
         11    1    4    4    0    0 -0.62586924611E+02  0.10099976018E+03  0.76671962011E+01  0.11906662247E+03  0.00000000000E+00 0. -1.
        -11    1    3    3    0    0  0.22168106631E+02 -0.10944835421E+02 -0.11149190440E+02  0.27120450244E+02  0.00000000000E+00 0. -1.
         11    1    3    3    0    0  0.26867051829E+02 -0.96439739483E+02 -0.33909176063E+03  0.35356142882E+03  0.00000000000E+00 0.  1.
         21    1    1    2  502  501 -0.13162939166E+02 -0.25307357626E+02 -0.33002983993E+02  0.43622497291E+02  0.00000000000E+00 0.  1.
<scales pt_clust_5="13000.00000" pt_clust_6="13000.00000" pt_clust_7="13000.00000" pt_clust_8="13000.00000" pt_clust_9="28.52587"></scales>
<clustering>
<clus scale="   28.526">  2  9  1 -1</clus>
<clus scale="   91.182">  7  8 -1 -1</clus>
<clus scale="   92.476">  5  6 -1 -1</clus>
<clus scale="  162.293">  2  7  1 -1</clus>
<clus scale="  163.024">  1  5  2 -1</clus>
</clustering>
</event>
<event>
 9    1  0.1748361E-005  0.1117154E+03  0.7546771E-02  0.1258595E+00
          2   -1    0    0  502    0  0.00000000000E+00  0.00000000000E+00  0.55962308144E+03  0.55962308144E+03  0.00000000000E+00 0. -1.
         -2   -1    0    0    0  501 -0.00000000000E+00 -0.00000000000E+00 -0.46582544212E+02  0.46582544212E+02  0.00000000000E+00 0.  1.
         23    2    1    2    0    0 -0.44168566883E+02  0.62740861979E+02  0.71457300186E+02  0.13800411684E+03  0.89731334848E+02 0.  0.
         23    2    1    2    0    0  0.24940069340E+02 -0.53852393168E+02  0.43034431044E+03  0.44422123636E+03  0.92812682308E+02 0.  0.
        -13    1    4    4    0    0  0.38952892517E+02 -0.73969203644E+02  0.36441844580E+03  0.37388444012E+03  0.00000000000E+00 0.  1.
         13    1    4    4    0    0 -0.14012823176E+02  0.20116810476E+02  0.65925864632E+02  0.70336796234E+02  0.00000000000E+00 0. -1.
        -13    1    3    3    0    0 -0.17603928754E+02  0.13253388792E+02 -0.20600295584E+02  0.30164926657E+02  0.00000000000E+00 0.  1.
         13    1    3    3    0    0 -0.26564638129E+02  0.49487473187E+02  0.92057595770E+02  0.10783919019E+03  0.00000000000E+00 0. -1.
         21    1    1    2  502  501  0.19228497543E+02 -0.88884688114E+01  0.11238926607E+02  0.23980272451E+02  0.00000000000E+00 0.  1.
<scales pt_clust_5="13000.00000" pt_clust_6="13000.00000" pt_clust_7="13000.00000" pt_clust_8="13000.00000" pt_clust_9="21.18348"></scales>
<clustering>
<clus scale="   21.183">  2  9  1 -1</clus>
<clus scale="   89.731">  7  8 -1 -1</clus>
<clus scale="   92.813">  5  6 -1 -1</clus>
<clus scale="  109.169">  2  7  1 -1</clus>
<clus scale="  111.715">  1  5  2 -1</clus>
</clustering>
</event>
<event>
 9    1  0.1748361E-005  0.9571464E+02  0.7546771E-02  0.1290808E+00
          1   -1    0    0  502    0  0.00000000000E+00  0.00000000000E+00  0.14498736461E+03  0.14498736461E+03  0.00000000000E+00 0. -1.
         -1   -1    0    0    0  501 -0.00000000000E+00 -0.00000000000E+00 -0.92482958959E+02  0.92482958959E+02  0.00000000000E+00 0.  1.
         23    2    1    2    0    0  0.18081287540E+02  0.63041538519E+01 -0.18466397107E+02  0.96612874264E+02  0.92878223155E+02 0.  0.
         23    2    1    2    0    0 -0.33123880813E+02  0.10752236613E+02  0.47168764523E+02  0.10793728691E+03  0.90624298545E+02 0.  0.
        -11    1    4    4    0    0 -0.59999904324E+02  0.12229946931E+02  0.52308808969E+02  0.80534288453E+02  0.00000000000E+00 0. -1.
         11    1    4    4    0    0  0.26876023511E+02 -0.14777103185E+01 -0.51400444465E+01  0.27402998458E+02  0.00000000000E+00 0.  1.
        -11    1    3    3    0    0  0.36395387674E+02 -0.11168747354E+02 -0.45668452124E+02  0.59455636241E+02  0.00000000000E+00 0.  1.
         11    1    3    3    0    0 -0.18314100134E+02  0.17472901206E+02  0.27202055017E+02  0.37157238022E+02  0.00000000000E+00 0. -1.
         21    1    1    2  502  501  0.15042593273E+02 -0.17056390465E+02  0.23802038239E+02  0.32920162399E+02  0.00000000000E+00 0. -1.
<scales pt_clust_5="13000.00000" pt_clust_6="13000.00000" pt_clust_7="13000.00000" pt_clust_8="13000.00000" pt_clust_9="22.74203"></scales>
<clustering>
<clus scale="   22.742">  1  9  2 -1</clus>
<clus scale="   90.624">  5  6 -1 -1</clus>
<clus scale="   92.878">  7  8 -1 -1</clus>
<clus scale="   93.529">  1  5  2 -1</clus>
<clus scale="   22.742">  1  5  2 -1</clus>
</clustering>
</event>
<event>
 9    1  0.1748361E-005  0.1878462E+03  0.7546771E-02  0.1160900E+00
          3   -1    0    0  502    0  0.00000000000E+00  0.00000000000E+00  0.34190288129E+03  0.34190288129E+03  0.00000000000E+00 0. -1.
         -3   -1    0    0    0  501 -0.00000000000E+00 -0.00000000000E+00 -0.55835210901E+03  0.55835210901E+03  0.00000000000E+00 0.  1.
         23    2    1    2    0    0  0.76100231990E+02  0.13596707428E+03  0.51570300499E+02  0.18721030168E+03  0.90055041847E+02 0.  0.
         23    2    1    2    0    0 -0.28257434690E+02 -0.16799538261E+03  0.17770821290E+03  0.26361397652E+03  0.94293098840E+02 0.  0.
        -11    1    3    3    0    0 -0.11146102884E+02  0.66245000406E+02  0.93984606354E+01  0.67830426437E+02  0.00000000000E+00 0. -1.
         11    1    3    3    0    0  0.87246334875E+02  0.69722073878E+02  0.42171839863E+02  0.11937987524E+03  0.00000000000E+00 0.  1.
        -11    1    4    4    0    0  0.20329235769E+02 -0.13112591498E+03  0.10883827550E+03  0.17161891976E+03  0.00000000000E+00 0.  1.
         11    1    4    4    0    0 -0.48586670459E+02 -0.36869467626E+02  0.68869937402E+02  0.91995056753E+02  0.00000000000E+00 0. -1.
         21    1    1    2  502  501 -0.47842797300E+02  0.32028308322E+02 -0.44572774112E+03  0.44943071211E+03  0.00000000000E+00 0.  1.
<scales pt_clust_5="13000.00000" pt_clust_6="13000.00000" pt_clust_7="13000.00000" pt_clust_8="13000.00000" pt_clust_9="57.57383"></scales>
<clustering>
<clus scale="   57.574">  2  9  1 -1</clus>
<clus scale="   90.055">  5  6 -1 -1</clus>
<clus scale="   94.293">  7  8 -1 -1</clus>
<clus scale="  185.755">  2  5  1 -1</clus>
<clus scale="  187.846">  1  5  2 -1</clus>
</clustering>
</event>
<event>
 9    1  0.1748361E-005  0.1036544E+03  0.7546771E-02  0.1273969E+00
          1   -1    0    0  502    0  0.00000000000E+00  0.00000000000E+00  0.57689463584E+03  0.57689463584E+03  0.00000000000E+00 0. -1.
         -1   -1    0    0    0  501 -0.00000000000E+00 -0.00000000000E+00 -0.12898634022E+03  0.12898634022E+03  0.00000000000E+00 0.  1.
         23    2    1    2    0    0  0.32974635155E+02  0.52725018656E+02  0.20949571239E+03  0.23596012416E+03  0.89002654625E+02 0.  0.
         23    2    1    2    0    0 -0.15679719606E+02 -0.38202606588E+02  0.34583832236E+03  0.36014697531E+03  0.91631904164E+02 0.  0.
        -11    1    3    3    0    0  0.12160667104E+02  0.57505552044E+02  0.20612292476E+03  0.21433952145E+03  0.00000000000E+00 0. -1.
         11    1    3    3    0    0  0.20813968050E+02 -0.47805333886E+01  0.33727876236E+01  0.21620602717E+02  0.00000000000E+00 0.  1.
        -11    1    4    4    0    0  0.32502603070E+02 -0.94336100294E+01  0.60318230786E+02  0.69164305604E+02  0.00000000000E+00 0.  1.
         11    1    4    4    0    0 -0.48182322676E+02 -0.28768996558E+02  0.28552009157E+03  0.29098266971E+03  0.00000000000E+00 0. -1.
         21    1    1    2  502  501 -0.17294915549E+02 -0.14522412068E+02 -0.10742573912E+03  0.10977387659E+03  0.00000000000E+00 0.  1.
<scales pt_clust_5="13000.00000" pt_clust_6="13000.00000" pt_clust_7="13000.00000" pt_clust_8="13000.00000" pt_clust_9="22.58350"></scales>
<clustering>
<clus scale="   22.584">  2  9  1 -1</clus>
<clus scale="   89.003">  5  6 -1 -1</clus>
<clus scale="   91.632">  7  8 -1 -1</clus>
<clus scale="  101.338">  2  5  1 -1</clus>
<clus scale="  103.654">  1  5  2 -1</clus>
</clustering>
</event>
<event>
 9    1  0.1748361E-005  0.2583069E+03  0.7546771E-02  0.1108347E+00
          1   -1    0    0  502    0  0.00000000000E+00  0.00000000000E+00  0.13843051196E+04  0.13843051196E+04  0.00000000000E+00 0. -1.
         -1   -1    0    0    0  501 -0.00000000000E+00 -0.00000000000E+00 -0.68427851534E+02  0.68427851534E+02  0.00000000000E+00 0.  1.
         23    2    1    2    0    0 -0.21156941186E+03 -0.10348728615E+03  0.47424093715E+03  0.53644317421E+03  0.85997547977E+02 0.  0.
         23    2    1    2    0    0  0.22954339218E+03  0.90912373418E+02  0.85234049917E+03  0.89188136357E+03  0.89514309550E+02 0.  0.
        -11    1    3    3    0    0 -0.13700815579E+03 -0.85466007283E+02  0.39212362224E+03  0.42407146599E+03  0.00000000000E+00 0.  1.
         11    1    3    3    0    0 -0.74561256074E+02 -0.18021278864E+02  0.82117314917E+02  0.11237170822E+03  0.00000000000E+00 0. -1.
        -13    1    4    4    0    0  0.10513973678E+03  0.43130475132E+02  0.24473035248E+03  0.26982873746E+03  0.00000000000E+00 0.  1.
         13    1    4    4    0    0  0.12440365540E+03  0.47781898285E+02  0.60761014669E+03  0.62205262610E+03  0.00000000000E+00 0. -1.
         21    1    1    2  502  501 -0.17973980315E+02  0.12574912730E+02 -0.10704168290E+02  0.24408433324E+02  0.00000000000E+00 0. -1.
<scales pt_clust_5="13000.00000" pt_clust_6="13000.00000" pt_clust_7="13000.00000" pt_clust_8="13000.00000" pt_clust_9="21.93610"></scales>
<clustering>
<clus scale="   21.936">  2  9  1 -1</clus>
<clus scale="   85.998">  5  6 -1 -1</clus>
<clus scale="   89.514">  7  8 -1 -1</clus>
<clus scale="  257.109">  2  5  1 -1</clus>
<clus scale="  258.307">  1  5  2 -1</clus>
</clustering>
</event>
<event>
 9    1  0.1748361E-005  0.1117688E+03  0.7546771E-02  0.1258014E+00
         -1   -1    0    0    0  501 -0.00000000000E+00  0.00000000000E+00  0.35243857351E+02  0.35243857351E+02  0.00000000000E+00 0.  1.
          1   -1    0    0  502    0  0.00000000000E+00 -0.00000000000E+00 -0.60978440611E+03  0.60978440611E+03  0.00000000000E+00 0. -1.
         23    2    1    2    0    0 -0.40151627172E+02 -0.70137100520E+02 -0.12663339062E+03  0.17412216243E+03  0.88040591742E+02 0.  0.
         23    2    1    2    0    0  0.17399357883E+02  0.60122384663E+02 -0.41748140866E+03  0.43161632472E+03  0.89913772001E+02 0.  0.
        -11    1    3    3    0    0 -0.47321138354E+02 -0.12271294562E+02 -0.97211098705E+02  0.10881117827E+03  0.00000000000E+00 0. -1.
         11    1    3    3    0    0  0.71695111819E+01 -0.57865805958E+02 -0.29422291913E+02  0.65310984154E+02  0.00000000000E+00 0.  1.
        -13    1    4    4    0    0 -0.72706567430E+01  0.76558033560E+02 -0.34161980616E+03  0.35016865495E+03  0.00000000000E+00 0. -1.
         13    1    4    4    0    0  0.24670014626E+02 -0.16435648896E+02 -0.75861602504E+02  0.81447669769E+02  0.00000000000E+00 0.  1.
         21    1    1    2  502  501  0.22752269288E+02  0.10014715857E+02 -0.30425749475E+02  0.39289776311E+02  0.00000000000E+00 0. -1.
<scales pt_clust_5="13000.00000" pt_clust_6="13000.00000" pt_clust_7="13000.00000" pt_clust_8="13000.00000" pt_clust_9="24.85881"></scales>
<clustering>
<clus scale="   24.859">  1  9  2 -1</clus>
<clus scale="   88.041">  5  6 -1 -1</clus>
<clus scale="   89.914">  7  8 -1 -1</clus>
<clus scale="  110.267">  1  5  2 -1</clus>
<clus scale="  111.769">  2  5  1 -1</clus>
</clustering>
</event>
<event>
 9    1  0.1748361E-005  0.1316933E+03  0.7546771E-02  0.1225172E+00
          1   -1    0    0  502    0  0.00000000000E+00  0.00000000000E+00  0.50564345031E+03  0.50564345031E+03  0.00000000000E+00 0. -1.
         -1   -1    0    0    0  501 -0.00000000000E+00 -0.00000000000E+00 -0.13552056499E+03  0.13552056499E+03  0.00000000000E+00 0.  1.
         23    2    1    2    0    0  0.11034411200E+02  0.11021576283E+02 -0.56889101781E+02  0.11147374581E+03  0.94587487173E+02 0.  0.
         23    2    1    2    0    0 -0.91745009940E+02 -0.42023333854E+02  0.42067603309E+03  0.44299855112E+03  0.95374441219E+02 0.  0.
        -11    1    4    4    0    0 -0.10840352818E+03 -0.18425063610E+02  0.33486154954E+03  0.35245292629E+03  0.00000000000E+00 0. -1.
         11    1    4    4    0    0  0.16658518235E+02 -0.23598270244E+02  0.85814483552E+02  0.90545624829E+02  0.00000000000E+00 0.  1.
        -13    1    3    3    0    0  0.53010672618E+02  0.93188505788E+01 -0.30557629325E+02  0.61892981003E+02  0.00000000000E+00 0.  1.
         13    1    3    3    0    0 -0.41976261417E+02  0.17027257042E+01 -0.26331472457E+02  0.49580764810E+02  0.00000000000E+00 0. -1.
         21    1    1    2  502  501  0.80710598740E+02  0.31001757571E+02  0.63359540060E+01  0.86691718374E+02  0.00000000000E+00 0.  1.
<scales pt_clust_5="13000.00000" pt_clust_6="13000.00000" pt_clust_7="13000.00000" pt_clust_8="13000.00000" pt_clust_9="86.45987"></scales>
<clustering>
<clus scale="   86.460">  2  9  1 -1</clus>
<clus scale="   94.587">  7  8 -1 -1</clus>
<clus scale="   95.374">  5  6 -1 -1</clus>
<clus scale="  131.125">  2  7  1 -1</clus>
<clus scale="  131.693">  1  5  2 -1</clus>
</clustering>
</event>
<event>
 9    1  0.1748361E-005  0.1184379E+03  0.7546771E-02  0.1248813E+00
         -2   -1    0    0    0  501 -0.00000000000E+00  0.00000000000E+00  0.10448264288E+03  0.10448264288E+03  0.00000000000E+00 0.  1.
          2   -1    0    0  502    0  0.00000000000E+00 -0.00000000000E+00 -0.52987270374E+03  0.52987270374E+03  0.00000000000E+00 0. -1.
         23    2    1    2    0    0 -0.60789639616E+02 -0.24297730567E+02 -0.22737225881E+02  0.12120380080E+03  0.99436511869E+02 0.  0.
         23    2    1    2    0    0  0.64643513371E+02  0.19195750289E+01 -0.44841926616E+03  0.46206142534E+03  0.90765929403E+02 0.  0.
        -11    1    4    4    0    0  0.22906890540E+01  0.36343921666E+02 -0.99690070180E+02  0.10613311449E+03  0.00000000000E+00 0. -1.
         11    1    4    4    0    0  0.62352824317E+02 -0.34424346637E+02 -0.34872919598E+03  0.35592831085E+03  0.00000000000E+00 0.  1.
        -13    1    3    3    0    0 -0.59474385799E+02  0.28598806750E+02 -0.15598163491E+02  0.67811481461E+02  0.00000000000E+00 0. -1.
         13    1    3    3    0    0 -0.13152538170E+01 -0.52896537317E+02 -0.71390623902E+01  0.53392319340E+02  0.00000000000E+00 0.  1.
         21    1    1    2  502  501 -0.38538737552E+01  0.22378155538E+02  0.45766431171E+02  0.51090120476E+02  0.00000000000E+00 0. -1.
<scales pt_clust_5="13000.00000" pt_clust_6="13000.00000" pt_clust_7="13000.00000" pt_clust_8="13000.00000" pt_clust_9="22.70758"></scales>
<clustering>
<clus scale="   22.708">  1  9  2 -1</clus>
<clus scale="   90.766">  5  6 -1 -1</clus>
<clus scale="   99.437">  7  8 -1 -1</clus>
<clus scale="  111.258">  2  5  1 -1</clus>
<clus scale="  111.258">  2  5  1 -1</clus>
</clustering>
</event>
<event>
 9    1  0.1748361E-005  0.2021203E+03  0.7546771E-02  0.1149098E+00
         -2   -1    0    0    0  501 -0.00000000000E+00  0.00000000000E+00  0.51586639607E+02  0.51586639607E+02  0.00000000000E+00 0.  1.
          2   -1    0    0  502    0  0.00000000000E+00 -0.00000000000E+00 -0.11706162747E+04  0.11706162747E+04  0.00000000000E+00 0. -1.
         23    2    1    2    0    0 -0.13799170011E+03  0.10550655343E+03 -0.41081859193E+03  0.45533683237E+03  0.91577144110E+02 0.  0.
         23    2    1    2    0    0  0.15028843446E+03 -0.89367427070E+02 -0.71673494026E+03  0.74485840385E+03  0.10262512677E+03 0.  0.
        -11    1    3    3    0    0 -0.30429698789E+02  0.40325998268E+02 -0.22737176085E+03  0.23291644497E+03  0.00000000000E+00 0. -1.
         11    1    3    3    0    0 -0.10756200132E+03  0.65180555162E+02 -0.18344683108E+03  0.22242038740E+03  0.00000000000E+00 0.  1.
        -13    1    4    4    0    0  0.11692833749E+03 -0.20271885463E+02 -0.52700428667E+03  0.54020061423E+03  0.00000000000E+00 0. -1.
         13    1    4    4    0    0  0.33360096965E+02 -0.69095541607E+02 -0.18973065359E+03  0.20465778962E+03  0.00000000000E+00 0.  1.
         21    1    1    2  502  501 -0.12296734343E+02 -0.16139126361E+02  0.85238970604E+01  0.22007678121E+02  0.00000000000E+00 0. -1.
<scales pt_clust_5="13000.00000" pt_clust_6="13000.00000" pt_clust_7="13000.00000" pt_clust_8="13000.00000" pt_clust_9="20.28993"></scales>
<clustering>
<clus scale="   20.290">  1  9  2 -1</clus>
<clus scale="   91.577">  5  6 -1 -1</clus>
<clus scale="  102.625">  7  8 -1 -1</clus>
<clus scale="  196.741">  1  5  2 -1</clus>
<clus scale="  202.120">  2  5  1 -1</clus>
</clustering>
</event>
<event>
 9    1  0.1748361E-005  0.1518930E+03  0.7546771E-02  0.1198377E+00
          1   -1    0    0  502    0  0.00000000000E+00  0.00000000000E+00  0.66157292168E+03  0.66157292168E+03  0.00000000000E+00 0. -1.
         -1   -1    0    0    0  501 -0.00000000000E+00 -0.00000000000E+00 -0.63779725438E+02  0.63779725438E+02  0.00000000000E+00 0.  1.
         23    2    1    2    0    0 -0.93692286354E+02 -0.71008081259E+02  0.78546337314E+02  0.16894675154E+03  0.92482893676E+02 0.  0.
         23    2    1    2    0    0  0.12232172686E+03  0.55910440908E+02  0.47134383726E+03  0.49859341343E+03  0.91333437058E+02 0.  0.
        -11    1    3    3    0    0 -0.82747984192E+02 -0.44313328997E+02  0.97814557272E+01  0.94374662335E+02  0.00000000000E+00 0.  1.
         11    1    3    3    0    0 -0.10944302162E+02 -0.26694752262E+02  0.68764881587E+02  0.74572089201E+02  0.00000000000E+00 0. -1.
        -13    1    4    4    0    0  0.24774936889E+02 -0.24341689280E+02  0.76000093068E+02  0.83560334377E+02  0.00000000000E+00 0.  1.
         13    1    4    4    0    0  0.97546789972E+02  0.80252130189E+02  0.39534374420E+03  0.41503307905E+03  0.00000000000E+00 0. -1.
         21    1    1    2  502  501 -0.28629440508E+02  0.15097640351E+02  0.47903021665E+02  0.57812482152E+02  0.00000000000E+00 0. -1.
<scales pt_clust_5="13000.00000" pt_clust_6="13000.00000" pt_clust_7="13000.00000" pt_clust_8="13000.00000" pt_clust_9="32.36640"></scales>
<clustering>
<clus scale="   32.366">  1  9  2 -1</clus>
<clus scale="   91.333">  7  8 -1 -1</clus>
<clus scale="   92.483">  5  6 -1 -1</clus>
<clus scale="  151.196">  1  7  2 -1</clus>
<clus scale="   32.366">  1  5  2 -1</clus>
</clustering>
</event>
<event>
 9    1  0.1748361E-005  0.1043735E+03  0.7546771E-02  0.1271454E+00
          1   -1    0    0  502    0  0.00000000000E+00  0.00000000000E+00  0.38003314935E+03  0.38003314935E+03  0.00000000000E+00 0. -1.
         -1   -1    0    0    0  501 -0.00000000000E+00 -0.00000000000E+00 -0.14593451626E+03  0.14593451626E+03  0.00000000000E+00 0.  1.
         23    2    1    2    0    0  0.54580638149E+02 -0.21370402192E+02  0.42712146797E+02  0.11665243933E+03  0.91365879664E+02 0.  0.
         23    2    1    2    0    0 -0.24080237439E+02  0.44584168840E+02  0.28743620446E+03  0.30590003510E+03  0.91584135618E+02 0.  0.
        -11    1    4    4    0    0 -0.41056492009E+02  0.31129927233E+02  0.27718952263E+03  0.28193747420E+03  0.00000000000E+00 0. -1.
         11    1    4    4    0    0  0.16976254570E+02  0.13454241607E+02  0.10246681833E+02  0.23962560903E+02  0.00000000000E+00 0.  1.
        -11    1    3    3    0    0  0.75654115069E+02 -0.31474941301E+02  0.20625400888E+02  0.84496297070E+02  0.00000000000E+00 0.  1.
         11    1    3    3    0    0 -0.21073476920E+02  0.10104539109E+02  0.22086745910E+02  0.32156142259E+02  0.00000000000E+00 0. -1.
         21    1    1    2  502  501 -0.30500400710E+02 -0.23213766648E+02 -0.96049718171E+02  0.10341519118E+03  0.00000000000E+00 0.  1.
<scales pt_clust_5="13000.00000" pt_clust_6="13000.00000" pt_clust_7="13000.00000" pt_clust_8="13000.00000" pt_clust_9="38.32954"></scales>
<clustering>
<clus scale="   38.330">  2  9  1 -1</clus>
<clus scale="   91.366">  7  8 -1 -1</clus>
<clus scale="   91.584">  5  6 -1 -1</clus>
<clus scale="  104.182">  2  7  1 -1</clus>
<clus scale="  104.373">  1  5  2 -1</clus>
</clustering>
</event>
<event>
 9    1  0.1790000E-005  0.1031079E+03  0.7546771E-02  0.1274807E+00
          2   -1    0    0  502    0  0.00000000000E+00  0.00000000000E+00  0.25195628706E+03  0.25195628706E+03  0.00000000000E+00 0. -1.
         -2   -1    0    0    0  501 -0.00000000000E+00 -0.00000000000E+00 -0.26834604469E+03  0.26834604469E+03  0.00000000000E+00 0.  1.
         23    2    1    2    0    0 -0.24033468713E+02 -0.10589143135E+02 -0.16524885156E+03  0.19231985524E+03  0.94815643263E+02 0.  0.
         23    2    1    2    0    0  0.24469883858E+02  0.33634192303E+02  0.22579783514E+03  0.24766538837E+03  0.92862522767E+02 0.  0.
        -13    1    4    4    0    0  0.59822286249E+02  0.14796869995E+02  0.14126979898E+03  0.15412595303E+03  0.00000000000E+00 0. -1.
         13    1    4    4    0    0 -0.35352402391E+02  0.18837322308E+02  0.84528036158E+02  0.93539435338E+02  0.00000000000E+00 0.  1.
        -13    1    3    3    0    0 -0.23142498601E+02 -0.42159674132E+02 -0.38241490042E+02  0.61444486530E+02  0.00000000000E+00 0. -1.
         13    1    3    3    0    0 -0.89097011230E+00  0.31570530997E+02 -0.12700736152E+03  0.13087536871E+03  0.00000000000E+00 0.  1.
         21    1    1    2  502  501 -0.43641514470E+00 -0.23045049169E+02 -0.76938741200E+02  0.80317088137E+02  0.00000000000E+00 0. -1.
<scales pt_clust_5="13000.00000" pt_clust_6="13000.00000" pt_clust_7="13000.00000" pt_clust_8="13000.00000" pt_clust_9="23.04918"></scales>
<clustering>
<clus scale="   23.049">  2  9  1 -1</clus>
<clus scale="   92.863">  5  6 -1 -1</clus>
<clus scale="   94.816">  7  8 -1 -1</clus>
<clus scale="  101.315">  1  5  2 -1</clus>
<clus scale="  101.315">  1  5  2 -1</clus>
</clustering>
</event>
<event>
 9    1  0.1748361E-005  0.1261256E+03  0.7546771E-02  0.1233930E+00
          1   -1    0    0  502    0  0.00000000000E+00  0.00000000000E+00  0.72658773142E+02  0.72658773142E+02  0.00000000000E+00 0. -1.
         -1   -1    0    0    0  501 -0.00000000000E+00 -0.00000000000E+00 -0.27887723555E+03  0.27887723555E+03  0.00000000000E+00 0.  1.
         23    2    1    2    0    0 -0.88011596685E+02  0.53189203552E+02 -0.90539265956E+02  0.16366561130E+03  0.89520618398E+02 0.  0.
         23    2    1    2    0    0  0.60418416511E+02 -0.39162869867E+02 -0.84899280582E+02  0.14421807959E+03  0.91688882674E+02 0.  0.
        -11    1    4    4    0    0  0.83706164395E+02 -0.19136238635E+02 -0.62577407178E+02  0.10624899753E+03  0.00000000000E+00 0.  1.
         11    1    4    4    0    0 -0.23287747883E+02 -0.20026631232E+02 -0.22321873404E+02  0.37969082057E+02  0.00000000000E+00 0. -1.
        -11    1    3    3    0    0 -0.59333651041E+02  0.49432006897E+02 -0.10578136615E+03  0.13097214542E+03  0.00000000000E+00 0.  1.
         11    1    3    3    0    0 -0.28677945644E+02  0.37571966543E+01  0.15242100195E+02  0.32693465882E+02  0.00000000000E+00 0. -1.
         21    1    1    2  502  501  0.27593180173E+02 -0.14026333684E+02 -0.30779915874E+02  0.43652317807E+02  0.00000000000E+00 0. -1.
<scales pt_clust_5="13000.00000" pt_clust_6="13000.00000" pt_clust_7="13000.00000" pt_clust_8="13000.00000" pt_clust_9="30.95354"></scales>
<clustering>
<clus scale="   30.954">  2  9  1 -1</clus>
<clus scale="   89.521">  7  8 -1 -1</clus>
<clus scale="   91.689">  5  6 -1 -1</clus>
<clus scale="  124.558">  2  7  1 -1</clus>
<clus scale="  126.126">  1  5  2 -1</clus>
</clustering>
</event>
<event>
 9    1  0.1748361E-005  0.1375825E+03  0.7546771E-02  0.1216892E+00
         -1   -1    0    0    0  501 -0.00000000000E+00  0.00000000000E+00  0.64917074233E+02  0.64917074233E+02  0.00000000000E+00 0.  1.
          1   -1    0    0  502    0  0.00000000000E+00 -0.00000000000E+00 -0.59774753172E+03  0.59774753172E+03  0.00000000000E+00 0. -1.
         23    2    1    2    0    0  0.11244424366E+03 -0.88055695034E+02 -0.13743698974E+03  0.21824031991E+03  0.91336727152E+02 0.  0.
         23    2    1    2    0    0 -0.24691854029E+02  0.45828924009E+02 -0.23063246877E+03  0.25303523499E+03  0.90141647230E+02 0.  0.
        -13    1    3    3    0    0  0.72923719735E+02 -0.28717736745E+00 -0.52354969741E+02  0.89771901102E+02  0.00000000000E+00 0.  1.
         13    1    3    3    0    0  0.39520523924E+02 -0.87768517667E+02 -0.85082020000E+02  0.12846841881E+03  0.00000000000E+00 0. -1.
        -13    1    4    4    0    0 -0.22981673469E+02  0.81543237403E+01 -0.58053453238E+01  0.25066957243E+02  0.00000000000E+00 0.  1.
         13    1    4    4    0    0 -0.17101805604E+01  0.37674600269E+02 -0.22482712345E+03  0.22796827775E+03  0.00000000000E+00 0. -1.
         21    1    1    2  502  501 -0.87752389630E+02  0.42226771025E+02 -0.16476099898E+03  0.19138905105E+03  0.00000000000E+00 0.  1.
<scales pt_clust_5="13000.00000" pt_clust_6="13000.00000" pt_clust_7="13000.00000" pt_clust_8="13000.00000" pt_clust_9="97.38368"></scales>
<clustering>
<clus scale="   90.142">  7  8 -1 -1</clus>
<clus scale="   91.337">  5  6 -1 -1</clus>
<clus scale="   97.384">  2  9  1 -1</clus>
<clus scale="  136.792">  2  7  1 -1</clus>
<clus scale="   97.384">  2  5  1 -1</clus>
</clustering>
</event>
<event>
 9    1  0.1748361E-005  0.1177203E+03  0.7546771E-02  0.1247537E+00
          4   -1    0    0  502    0  0.00000000000E+00  0.00000000000E+00  0.44977296842E+02  0.44977296842E+02  0.00000000000E+00 0. -1.
         -4   -1    0    0    0  501 -0.00000000000E+00 -0.00000000000E+00 -0.49676885051E+03  0.49676885051E+03  0.00000000000E+00 0.  1.
         23    2    1    2    0    0 -0.79385611149E+02 -0.20189157185E+01 -0.22282768514E+03  0.25378814430E+03  0.91924390911E+02 0.  0.
         23    2    1    2    0    0  0.64344862445E+02  0.35492701956E+02 -0.98192102201E+02  0.15213468637E+03  0.90018223966E+02 0.  0.
        -11    1    3    3    0    0 -0.67832413389E+02  0.39349627435E+02 -0.14894196479E+03  0.16832509724E+03  0.00000000000E+00 0.  1.
         11    1    3    3    0    0 -0.11553197760E+02 -0.41368543154E+02 -0.73885720349E+02  0.85463047060E+02  0.00000000000E+00 0. -1.
        -11    1    4    4    0    0  0.43093186619E+02  0.61203382735E+02 -0.91320397554E+02  0.11807748219E+03  0.00000000000E+00 0.  1.
         11    1    4    4    0    0  0.21251675826E+02 -0.25710680779E+02 -0.68717046471E+01  0.34057204176E+02  0.00000000000E+00 0. -1.
         21    1    1    2  502  501  0.15040748704E+02 -0.33473786238E+02 -0.13077176633E+03  0.13582331668E+03  0.00000000000E+00 0.  1.
<scales pt_clust_5="13000.00000" pt_clust_6="13000.00000" pt_clust_7="13000.00000" pt_clust_8="13000.00000" pt_clust_9="36.69766"></scales>
<clustering>
<clus scale="   36.698">  2  9  1 -1</clus>
<clus scale="   90.018">  7  8 -1 -1</clus>
<clus scale="   91.924">  5  6 -1 -1</clus>
<clus scale="  116.238">  1  7  2 -1</clus>
<clus scale="  116.238">  1  5  2 -1</clus>
</clustering>
</event>
<event>
 9    1  0.1748361E-005  0.1014051E+03  0.7546771E-02  0.1277797E+00
         -1   -1    0    0    0  501 -0.00000000000E+00  0.00000000000E+00  0.97634098089E+03  0.97634098089E+03  0.00000000000E+00 0.  1.
          1   -1    0    0  502    0  0.00000000000E+00 -0.00000000000E+00 -0.20329664272E+02  0.20329664272E+02  0.00000000000E+00 0. -1.
         23    2    1    2    0    0  0.21338848186E+02 -0.35612430798E+01  0.37244244553E+03  0.38388575195E+03  0.90481304291E+02 0.  0.
         23    2    1    2    0    0 -0.19433544439E+02  0.71862509939E+02  0.34239725196E+03  0.36212088879E+03  0.91398998719E+02 0.  0.
        -13    1    4    4    0    0 -0.52122729308E+02  0.38257620481E+02  0.13770504026E+03  0.15212857243E+03  0.00000000000E+00 0. -1.
         13    1    4    4    0    0  0.32689184869E+02  0.33604889457E+02  0.20469221170E+03  0.20999231637E+03  0.00000000000E+00 0.  1.
        -13    1    3    3    0    0 -0.34803290809E+02  0.16339376754E+01  0.10730713824E+03  0.11282180959E+03  0.00000000000E+00 0. -1.
         13    1    3    3    0    0  0.56142138995E+02 -0.51951807552E+01  0.26513530729E+03  0.27106394236E+03  0.00000000000E+00 0.  1.
         21    1    1    2  502  501 -0.19053037472E+01 -0.68301266859E+02  0.24117161912E+03  0.25066400441E+03  0.00000000000E+00 0.  1.
<scales pt_clust_5="13000.00000" pt_clust_6="13000.00000" pt_clust_7="13000.00000" pt_clust_8="13000.00000" pt_clust_9="68.32784"></scales>
<clustering>
<clus scale="   68.328">  1  9  2 -1</clus>
<clus scale="   90.481">  7  8 -1 -1</clus>
<clus scale="   91.399">  5  6 -1 -1</clus>
<clus scale="  100.579">  1  7  2 -1</clus>
<clus scale="  101.405">  2  5  1 -1</clus>
</clustering>
</event>
<event>
 9    1  0.1748361E-005  0.9896883E+02  0.7546771E-02  0.1284314E+00
         -1   -1    0    0    0  501 -0.00000000000E+00  0.00000000000E+00  0.52734867246E+03  0.52734867246E+03  0.00000000000E+00 0.  1.
          1   -1    0    0  502    0  0.00000000000E+00 -0.00000000000E+00 -0.30642484489E+02  0.30642484489E+02  0.00000000000E+00 0. -1.
         23    2    1    2    0    0 -0.32422918692E+02 -0.22342371874E+02  0.38884709170E+03  0.40171743077E+03  0.92867681290E+02 0.  0.
         23    2    1    2    0    0  0.18911841819E+02  0.55542229330E+01  0.90094493059E+02  0.12834574253E+03  0.89258639878E+02 0.  0.
        -11    1    3    3    0    0 -0.42471570667E+02 -0.47533277946E+02  0.33927539504E+03  0.34521158802E+03  0.00000000000E+00 0. -1.
         11    1    3    3    0    0  0.10048651975E+02  0.25190906072E+02  0.49571696660E+02  0.56505842751E+02  0.00000000000E+00 0.  1.
        -13    1    4    4    0    0 -0.35813761914E+02  0.67737195485E+01  0.31684521812E+02  0.48295110947E+02  0.00000000000E+00 0. -1.
         13    1    4    4    0    0  0.54725603733E+02 -0.12194966155E+01  0.58409971247E+02  0.80050631584E+02  0.00000000000E+00 0.  1.
         21    1    1    2  502  501  0.13511076873E+02  0.16788148941E+02  0.17764603215E+02  0.27927983646E+02  0.00000000000E+00 0. -1.
<scales pt_clust_5="13000.00000" pt_clust_6="13000.00000" pt_clust_7="13000.00000" pt_clust_8="13000.00000" pt_clust_9="21.54974"></scales>
<clustering>
<clus scale="   21.550">  2  9  1 -1</clus>
<clus scale="   89.259">  7  8 -1 -1</clus>
<clus scale="   92.868">  5  6 -1 -1</clus>
<clus scale="   95.590">  2  7  1 -1</clus>
<clus scale="   21.550">  2  5  1 -1</clus>
</clustering>
</event>
<event>
 9    1  0.1748361E-005  0.9982682E+02  0.7546771E-02  0.1282073E+00
          1   -1    0    0  502    0  0.00000000000E+00  0.00000000000E+00  0.37059753893E+02  0.37059753893E+02  0.00000000000E+00 0. -1.
         -1   -1    0    0    0  501 -0.00000000000E+00 -0.00000000000E+00 -0.35496892444E+03  0.35496892444E+03  0.00000000000E+00 0.  1.
         23    2    1    2    0    0  0.19135899241E+02  0.11795795093E+02 -0.13670435322E+03  0.16588659155E+03  0.91241205838E+02 0.  0.
         23    2    1    2    0    0 -0.46135424208E+02 -0.90984687309E+00 -0.12715747026E+03  0.16475321205E+03  0.94049420250E+02 0.  0.
        -11    1    4    4    0    0 -0.50105514266E+01 -0.21299144763E+02 -0.11528196992E+03  0.11734006895E+03  0.00000000000E+00 0.  1.
         11    1    4    4    0    0 -0.41124872781E+02  0.20389297890E+02 -0.11875500337E+02  0.47413143093E+02  0.00000000000E+00 0. -1.
        -13    1    3    3    0    0 -0.71615024985E+01 -0.28682394662E+02 -0.10262494313E+03  0.10679815463E+03  0.00000000000E+00 0. -1.
         13    1    3    3    0    0  0.26297401740E+02  0.40478189754E+02 -0.34079410096E+02  0.59088436911E+02  0.00000000000E+00 0.  1.
         21    1    1    2  502  501  0.26999524966E+02 -0.10885948219E+02 -0.54047347061E+02  0.61388874736E+02  0.00000000000E+00 0.  1.
<scales pt_clust_5="13000.00000" pt_clust_6="13000.00000" pt_clust_7="13000.00000" pt_clust_8="13000.00000" pt_clust_9="29.11148"></scales>
<clustering>
<clus scale="   29.111">  2  9  1 -1</clus>
<clus scale="   91.241">  7  8 -1 -1</clus>
<clus scale="   94.049">  5  6 -1 -1</clus>
<clus scale="   97.186">  2  7  1 -1</clus>
<clus scale="   99.827">  1  5  2 -1</clus>
</clustering>
</event>
<event>
 9    1  0.1748361E-005  0.1106118E+03  0.7546771E-02  0.1259564E+00
          2   -1    0    0  502    0  0.00000000000E+00  0.00000000000E+00  0.57609821062E+03  0.57609821062E+03  0.00000000000E+00 0. -1.
         -2   -1    0    0    0  501 -0.00000000000E+00 -0.00000000000E+00 -0.41307146598E+02  0.41307146598E+02  0.00000000000E+00 0.  1.
         23    2    1    2    0    0 -0.92214203100E+02  0.35652529754E+02  0.14905486276E+03  0.20076366944E+03  0.91181888131E+02 0.  0.
         23    2    1    2    0    0  0.48181503511E+02 -0.15657922920E+02  0.30796918399E+03  0.32506455138E+03  0.90858771986E+02 0.  0.
        -11    1    4    4    0    0 -0.55226318338E+01  0.20642840034E+02  0.18004182691E+02  0.27942385392E+02  0.00000000000E+00 0.  1.
         11    1    4    4    0    0  0.53704135345E+02 -0.36300762954E+02  0.28996500129E+03  0.29712216599E+03  0.00000000000E+00 0. -1.
        -11    1    3    3    0    0 -0.34215436687E+02 -0.64139752708E+01  0.11736745611E+03  0.12242121932E+03  0.00000000000E+00 0. -1.
         11    1    3    3    0    0 -0.57998766412E+02  0.42066505025E+02  0.31687406651E+02  0.78342450119E+02  0.00000000000E+00 0.  1.
         21    1    1    2  502  501  0.44032699588E+02 -0.19994606834E+02  0.77767017280E+02  0.91577136404E+02  0.00000000000E+00 0.  1.
<scales pt_clust_5="13000.00000" pt_clust_6="13000.00000" pt_clust_7="13000.00000" pt_clust_8="13000.00000" pt_clust_9="48.35972"></scales>
<clustering>
<clus scale="   48.360">  2  9  1 -1</clus>
<clus scale="   90.859">  5  6 -1 -1</clus>
<clus scale="   91.182">  7  8 -1 -1</clus>
<clus scale="  110.346">  1  5  2 -1</clus>
<clus scale="  110.346">  1  5  2 -1</clus>
</clustering>
</event>
<event>
 9    1  0.1748361E-005  0.9198292E+02  0.7546771E-02  0.1298559E+00
          2   -1    0    0  502    0  0.00000000000E+00  0.00000000000E+00  0.34608004675E+03  0.34608004675E+03  0.00000000000E+00 0. -1.
         -2   -1    0    0    0  501 -0.00000000000E+00 -0.00000000000E+00 -0.15965599055E+03  0.15965599055E+03  0.00000000000E+00 0.  1.
         23    2    1    2    0    0 -0.30887117050E+01  0.25620942799E+02 -0.15733978736E+02  0.96012543301E+02  0.91131100807E+02 0.  0.
         23    2    1    2    0    0 -0.53318034207E+01  0.38681574898E+01  0.29652292977E+03  0.31050028358E+03  0.91875935115E+02 0.  0.
        -11    1    4    4    0    0 -0.14621323951E+01  0.40812681119E+02  0.23584549968E+03  0.23935520151E+03  0.00000000000E+00 0. -1.
         11    1    4    4    0    0 -0.38696710256E+01 -0.36944523629E+02  0.60677430088E+02  0.71145082066E+02  0.00000000000E+00 0.  1.
        -13    1    3    3    0    0 -0.25667554040E+02 -0.26697028200E+02 -0.11908631177E+02  0.38902058321E+02  0.00000000000E+00 0.  1.
         13    1    3    3    0    0  0.22578842335E+02  0.52317970999E+02 -0.38253475585E+01  0.57110484980E+02  0.00000000000E+00 0. -1.
         21    1    1    2  502  501  0.84205151257E+01 -0.29489100289E+02 -0.94364894825E+02  0.99223210420E+02  0.00000000000E+00 0. -1.
<scales pt_clust_5="13000.00000" pt_clust_6="13000.00000" pt_clust_7="13000.00000" pt_clust_8="13000.00000" pt_clust_9="30.66777"></scales>
<clustering>
<clus scale="   30.668">  2  9  1 -1</clus>
<clus scale="   91.131">  7  8 -1 -1</clus>
<clus scale="   91.239">  2  7  1 -1</clus>
<clus scale="   91.876">  5  6 -1 -1</clus>
<clus scale="   91.983">  1  5  2 -1</clus>
</clustering>
</event>
<event>
 9    1  0.1748361E-005  0.2305340E+03  0.7546771E-02  0.1126368E+00
         -2   -1    0    0    0  501 -0.00000000000E+00  0.00000000000E+00  0.21812884741E+03  0.21812884741E+03  0.00000000000E+00 0.  1.
          2   -1    0    0  502    0  0.00000000000E+00 -0.00000000000E+00 -0.58627130772E+03  0.58627130772E+03  0.00000000000E+00 0. -1.
         23    2    1    2    0    0 -0.21365822584E+03 -0.44255657507E+02 -0.53676248989E+02  0.24193550672E+03  0.89684162582E+02 0.  0.
         23    2    1    2    0    0  0.21016347721E+03  0.89009394232E+01 -0.40490051850E+03  0.46530224172E+03  0.91180219275E+02 0.  0.
        -11    1    3    3    0    0 -0.95612923020E+02 -0.63647112419E+02 -0.39543117373E+02  0.12147610505E+03  0.00000000000E+00 0.  1.
         11    1    3    3    0    0 -0.11804530282E+03  0.19391454912E+02 -0.14133131616E+02  0.12045940167E+03  0.00000000000E+00 0. -1.
        -13    1    4    4    0    0  0.18164630750E+03 -0.47963483624E+01 -0.39016342725E+03  0.43040200504E+03  0.00000000000E+00 0. -1.
         13    1    4    4    0    0  0.28517169716E+02  0.13697287786E+02 -0.14737091258E+02  0.34900236676E+02  0.00000000000E+00 0.  1.
         21    1    1    2  502  501  0.34947486247E+01  0.35354718084E+02  0.90434307180E+02  0.97162406690E+02  0.00000000000E+00 0.  1.
<scales pt_clust_5="13000.00000" pt_clust_6="13000.00000" pt_clust_7="13000.00000" pt_clust_8="13000.00000" pt_clust_9="35.52702"></scales>
<clustering>
<clus scale="   35.527">  1  9  2 -1</clus>
<clus scale="   89.684">  5  6 -1 -1</clus>
<clus scale="   91.180">  7  8 -1 -1</clus>
<clus scale="  229.946">  1  5  2 -1</clus>
<clus scale="  230.534">  2  5  1 -1</clus>
</clustering>
</event>
<event>
 9    1  0.1748361E-005  0.1106892E+03  0.7546771E-02  0.1260956E+00
          1   -1    0    0  502    0  0.00000000000E+00  0.00000000000E+00  0.27500095799E+03  0.27500095799E+03  0.00000000000E+00 0. -1.
         -1   -1    0    0    0  501 -0.00000000000E+00 -0.00000000000E+00 -0.59148188915E+02  0.59148188915E+02  0.00000000000E+00 0.  1.
         23    2    1    2    0    0 -0.80395701282E+01 -0.65843900056E+02  0.58409787015E+02  0.12881338668E+03  0.93707691815E+02 0.  0.
         23    2    1    2    0    0  0.26191663103E+02  0.43668729567E+02  0.11847958955E+03  0.15696859553E+03  0.89491707344E+02 0.  0.
        -11    1    3    3    0    0 -0.23237828268E+02  0.10292216505E+02  0.42564323797E+02  0.49574671391E+02  0.00000000000E+00 0. -1.
         11    1    3    3    0    0  0.15198258140E+02 -0.76136116561E+02  0.15845463218E+02  0.79238715285E+02  0.00000000000E+00 0.  1.
        -11    1    4    4    0    0  0.49443865128E+02 -0.20275094588E+01  0.74395498321E+02  0.89350415577E+02  0.00000000000E+00 0. -1.
         11    1    4    4    0    0 -0.23252202025E+02  0.45696239026E+02  0.44084091230E+02  0.67618179949E+02  0.00000000000E+00 0.  1.
         21    1    1    2  502  501 -0.18152092975E+02  0.22175170489E+02  0.38963392508E+02  0.48367164702E+02  0.00000000000E+00 0. -1.
<scales pt_clust_5="13000.00000" pt_clust_6="13000.00000" pt_clust_7="13000.00000" pt_clust_8="13000.00000" pt_clust_9="28.65723"></scales>
<clustering>
<clus scale="   28.657">  1  9  2 -1</clus>
<clus scale="   89.492">  7  8 -1 -1</clus>
<clus scale="   93.708">  5  6 -1 -1</clus>
<clus scale="  107.143">  1  7  2 -1</clus>
<clus scale="   28.657">  1  5  2 -1</clus>
</clustering>
</event>
<event>
 9    1  0.1748361E-005  0.2714053E+03  0.7546771E-02  0.1137665E+00
         -1   -1    0    0    0  501 -0.00000000000E+00  0.00000000000E+00  0.13864359097E+03  0.13864359097E+03  0.00000000000E+00 0.  1.
          1   -1    0    0  502    0  0.00000000000E+00 -0.00000000000E+00 -0.11721018047E+04  0.11721018047E+04  0.00000000000E+00 0. -1.
         23    2    1    2    0    0  0.23426520230E+03  0.16732496860E+03 -0.72816215664E+03  0.78871216962E+03  0.94704435076E+02 0.  0.
         23    2    1    2    0    0 -0.14315285323E+02 -0.53101257410E+02 -0.24450354875E+03  0.26684554755E+03  0.91650913603E+02 0.  0.
        -11    1    3    3    0    0  0.70072026405E+02  0.10512377581E+03 -0.33893837915E+03  0.36171856737E+03  0.00000000000E+00 0.  1.
         11    1    3    3    0    0  0.16419317589E+03  0.62201192788E+02 -0.38922377750E+03  0.42699360225E+03  0.00000000000E+00 0. -1.
        -13    1    4    4    0    0  0.34244510303E+02 -0.89284336363E+01 -0.13129926538E+03  0.13598492748E+03  0.00000000000E+00 0. -1.
         13    1    4    4    0    0 -0.48559795626E+02 -0.44172823774E+02 -0.11320428337E+03  0.13086062006E+03  0.00000000000E+00 0.  1.
         21    1    1    2  502  501 -0.21994991698E+03 -0.11422371119E+03 -0.60792508309E+02  0.25518767847E+03  0.00000000000E+00 0.  1.
<scales pt_clust_5="13000.00000" pt_clust_6="13000.00000" pt_clust_7="13000.00000" pt_clust_8="13000.00000" pt_clust_9="254.34600"></scales>
<clustering>
<clus scale="   91.651">  7  8 -1 -1</clus>
<clus scale="   94.704">  5  6 -1 -1</clus>
<clus scale="  106.886">  2  7  1 -1</clus>
<clus scale="  254.346">  1  9  2 -1</clus>
<clus scale="  106.886">  2  5  1 -1</clus>
</clustering>
</event>
<event>
 9    1  0.1748361E-005  0.2620600E+03  0.7546771E-02  0.1105952E+00
         -1   -1    0    0    0  501 -0.00000000000E+00  0.00000000000E+00  0.56400008644E+02  0.56400008644E+02  0.00000000000E+00 0.  1.
          1   -1    0    0  502    0  0.00000000000E+00 -0.00000000000E+00 -0.18384625126E+04  0.18384625126E+04  0.00000000000E+00 0. -1.
         23    2    1    2    0    0  0.10650034821E+03  0.18110876759E+03 -0.64999208522E+03  0.68924400904E+03  0.91787162888E+02 0.  0.
         23    2    1    2    0    0 -0.20949202651E+03 -0.20474854911E+03 -0.79134729672E+03  0.84888559960E+03  0.92559924600E+02 0.  0.
        -11    1    3    3    0    0  0.37005923209E+02  0.11780735313E+03 -0.25644923740E+03  0.28462997412E+03  0.00000000000E+00 0.  1.
         11    1    3    3    0    0  0.69494425004E+02  0.63301414462E+02 -0.39354284782E+03  0.40461403492E+03  0.00000000000E+00 0. -1.
        -13    1    4    4    0    0 -0.13161730831E+03 -0.17245528019E+03 -0.63823781720E+03  0.67410047531E+03  0.00000000000E+00 0. -1.
         13    1    4    4    0    0 -0.77874718200E+02 -0.32293268924E+02 -0.15310947953E+03  0.17478512429E+03  0.00000000000E+00 0.  1.
         21    1    1    2  502  501  0.10299167829E+03  0.23639781525E+02 -0.34072312204E+03  0.35673291264E+03  0.00000000000E+00 0. -1.
<scales pt_clust_5="13000.00000" pt_clust_6="13000.00000" pt_clust_7="13000.00000" pt_clust_8="13000.00000" pt_clust_9="105.66989"></scales>
<clustering>
<clus scale="   91.787">  5  6 -1 -1</clus>
<clus scale="   92.560">  7  8 -1 -1</clus>
<clus scale="  105.670">  2  9  1 -1</clus>
<clus scale="  261.788">  1  5  2 -1</clus>
<clus scale="  105.670">  2  5  1 -1</clus>
</clustering>
</event>
<event>
 9    1  0.1748361E-005  0.1039111E+03  0.7546771E-02  0.1274549E+00
          1   -1    0    0  502    0  0.00000000000E+00  0.00000000000E+00  0.81145676106E+02  0.81145676106E+02  0.00000000000E+00 0. -1.
         -1   -1    0    0    0  501 -0.00000000000E+00 -0.00000000000E+00 -0.19221656058E+03  0.19221656058E+03  0.00000000000E+00 0.  1.
         23    2    1    2    0    0  0.47891846005E+02  0.46857304027E+00 -0.77510595254E+02  0.13135794889E+03  0.94621191525E+02 0.  0.
         23    2    1    2    0    0 -0.36380045178E+02 -0.22523014803E+02  0.10126559977E+01  0.99410761284E+02  0.89725582216E+02 0.  0.
        -11    1    4    4    0    0  0.69649028135E+01  0.23108481391E+02 -0.21744708248E+02  0.32486060398E+02  0.00000000000E+00 0. -1.
         11    1    4    4    0    0 -0.43344947991E+02 -0.45631496193E+02  0.22757364246E+02  0.66924700886E+02  0.00000000000E+00 0.  1.
        -11    1    3    3    0    0  0.68270291808E+02 -0.23436868075E+02 -0.40329458674E+02  0.82683642673E+02  0.00000000000E+00 0.  1.
         11    1    3    3    0    0 -0.20378445804E+02  0.23905441116E+02 -0.37181136580E+02  0.48674306217E+02  0.00000000000E+00 0. -1.
         21    1    1    2  502  501 -0.11511800827E+02  0.22054441762E+02 -0.34572945218E+02  0.42593526512E+02  0.00000000000E+00 0.  1.
<scales pt_clust_5="13000.00000" pt_clust_6="13000.00000" pt_clust_7="13000.00000" pt_clust_8="13000.00000" pt_clust_9="24.87810"></scales>
<clustering>
<clus scale="   24.878">  2  9  1 -1</clus>
<clus scale="   89.726">  5  6 -1 -1</clus>
<clus scale="   94.621">  7  8 -1 -1</clus>
<clus scale="   99.474">  1  5  2 -1</clus>
<clus scale="   99.474">  1  5  2 -1</clus>
</clustering>
</event>
<event>
 9    1  0.1748361E-005  0.1138747E+03  0.7546771E-02  0.1253858E+00
         -1   -1    0    0    0  501 -0.00000000000E+00  0.00000000000E+00  0.24684565811E+03  0.24684565811E+03  0.00000000000E+00 0.  1.
          1   -1    0    0  502    0  0.00000000000E+00 -0.00000000000E+00 -0.89015832676E+02  0.89015832676E+02  0.00000000000E+00 0. -1.
         23    2    1    2    0    0 -0.16771435566E+02  0.68430571019E+02  0.11440574269E+03  0.16279191026E+03  0.91915765696E+02 0.  0.
         23    2    1    2    0    0 -0.14780002347E+02 -0.64783526962E+02 -0.60778226354E+01  0.11425433760E+03  0.92745673201E+02 0.  0.
        -11    1    3    3    0    0  0.26950067500E+02  0.15282547540E+02  0.80124443833E+02  0.85905697699E+02  0.00000000000E+00 0.  1.
         11    1    3    3    0    0 -0.43721503066E+02  0.53148023478E+02  0.34281298857E+02  0.76886212557E+02  0.00000000000E+00 0. -1.
        -13    1    4    4    0    0 -0.34922803987E+02 -0.74231512199E+01 -0.32206555968E+02  0.48082924824E+02  0.00000000000E+00 0. -1.
         13    1    4    4    0    0  0.20142801640E+02 -0.57360375742E+02  0.26128733333E+02  0.66171412776E+02  0.00000000000E+00 0.  1.
         21    1    1    2  502  501  0.31551437913E+02 -0.36470440565E+01  0.49501905382E+02  0.58815242932E+02  0.00000000000E+00 0.  1.
<scales pt_clust_5="13000.00000" pt_clust_6="13000.00000" pt_clust_7="13000.00000" pt_clust_8="13000.00000" pt_clust_9="31.76152"></scales>
<clustering>
<clus scale="   31.762">  1  9  2 -1</clus>
<clus scale="   91.916">  5  6 -1 -1</clus>
<clus scale="   92.746">  7  8 -1 -1</clus>
<clus scale="  113.200">  1  5  2 -1</clus>
<clus scale="  113.875">  2  5  1 -1</clus>
</clustering>
</event>
<event>
 9    1  0.1748361E-005  0.1675219E+03  0.7546771E-02  0.1180683E+00
          1   -1    0    0  502    0  0.00000000000E+00  0.00000000000E+00  0.40382673105E+03  0.40382673105E+03  0.00000000000E+00 0. -1.
         -1   -1    0    0    0  501 -0.00000000000E+00 -0.00000000000E+00 -0.82872976307E+02  0.82872976307E+02  0.00000000000E+00 0.  1.
         23    2    1    2    0    0 -0.50206403438E+01  0.13167775800E+03  0.97483618321E+02  0.18851507938E+03  0.93116274255E+02 0.  0.
         23    2    1    2    0    0  0.87482736302E+01 -0.15143023258E+03  0.20391473357E+03  0.27014056831E+03  0.91580895651E+02 0.  0.
        -13    1    3    3    0    0 -0.46293794094E+02  0.79951684564E+02  0.39297424426E+02  0.10039758365E+03  0.00000000000E+00 0.  1.
         13    1    3    3    0    0  0.41273153751E+02  0.51726073434E+02  0.58186193895E+02  0.88117495728E+02  0.00000000000E+00 0. -1.
        -13    1    4    4    0    0  0.16244374954E+02 -0.11249014637E+03  0.77277904571E+02  0.13744012253E+03  0.00000000000E+00 0.  1.
         13    1    4    4    0    0 -0.74961013241E+01 -0.38940086213E+02  0.12663682900E+03  0.13270044578E+03  0.00000000000E+00 0. -1.
         21    1    1    2  502  501 -0.37276332864E+01  0.19752474583E+02  0.19555402847E+02  0.28044059666E+02  0.00000000000E+00 0. -1.
<scales pt_clust_5="13000.00000" pt_clust_6="13000.00000" pt_clust_7="13000.00000" pt_clust_8="13000.00000" pt_clust_9="20.10113"></scales>
<clustering>
<clus scale="   20.101">  1  9  2 -1</clus>
<clus scale="   91.581">  7  8 -1 -1</clus>
<clus scale="   93.116">  5  6 -1 -1</clus>
<clus scale="  166.673">  1  7  2 -1</clus>
<clus scale="   20.101">  1  5  2 -1</clus>
</clustering>
</event>
<event>
 9    1  0.1748361E-005  0.1281189E+03  0.7546771E-02  0.1242087E+00
         -1   -1    0    0    0  501 -0.00000000000E+00  0.00000000000E+00  0.37589528426E+02  0.37589528426E+02  0.00000000000E+00 0.  1.
          1   -1    0    0  502    0  0.00000000000E+00 -0.00000000000E+00 -0.66576341676E+03  0.66576341676E+03  0.00000000000E+00 0. -1.
         23    2    1    2    0    0  0.21581852129E+02  0.33305984521E+02 -0.74214618026E+02  0.12412898465E+03  0.91242152297E+02 0.  0.
         23    2    1    2    0    0 -0.53544794837E+02 -0.30059282253E+02 -0.47521184708E+03  0.49417498966E+03  0.12088016915E+03 0.  0.
        -11    1    4    4    0    0 -0.84921970157E+02 -0.38666596411E+02 -0.41865054773E+03  0.42892321901E+03  0.00000000000E+00 0. -1.
         11    1    4    4    0    0  0.31377175320E+02  0.86073141575E+01 -0.56561299351E+02  0.65251770645E+02  0.00000000000E+00 0.  1.
        -13    1    3    3    0    0 -0.16497085655E+01  0.62301272969E+02 -0.47767049230E+02  0.78522997549E+02  0.00000000000E+00 0.  1.
         13    1    3    3    0    0  0.23231560695E+02 -0.28995288447E+02 -0.26447568796E+02  0.45605987104E+02  0.00000000000E+00 0. -1.
         21    1    1    2  502  501  0.31962942708E+02 -0.32467022680E+01 -0.78747423230E+02  0.85048970879E+02  0.00000000000E+00 0. -1.
<scales pt_clust_5="13000.00000" pt_clust_6="13000.00000" pt_clust_7="13000.00000" pt_clust_8="13000.00000" pt_clust_9="32.12741"></scales>
<clustering>
<clus scale="   32.127">  2  9  1 -1</clus>
<clus scale="   91.242">  7  8 -1 -1</clus>
<clus scale="  100.636">  1  7  2 -1</clus>
<clus scale="  120.880">  5  6 -1 -1</clus>
<clus scale="   32.127">  2  5  1 -1</clus>
</clustering>
</event>
<event>
 9    1  0.1748361E-005  0.9669773E+02  0.7546771E-02  0.1287525E+00
         -2   -1    0    0    0  501 -0.00000000000E+00  0.00000000000E+00  0.64668142612E+02  0.64668142612E+02  0.00000000000E+00 0.  1.
          2   -1    0    0  502    0  0.00000000000E+00 -0.00000000000E+00 -0.34412622159E+03  0.34412622159E+03  0.00000000000E+00 0. -1.
         23    2    1    2    0    0  0.18828200113E+02  0.10189167217E+02 -0.56153167278E+02  0.10930680743E+03  0.91304324690E+02 0.  0.
         23    2    1    2    0    0  0.69986191918E+01 -0.39040526257E+02 -0.23800320423E+03  0.25806938060E+03  0.91548547875E+02 0.  0.
        -11    1    3    3    0    0  0.51223375066E+02  0.15210501609E+02 -0.54737302884E+02  0.76494220954E+02  0.00000000000E+00 0. -1.
         11    1    3    3    0    0 -0.32395174952E+02 -0.50213343918E+01 -0.14158643939E+01  0.32812586476E+02  0.00000000000E+00 0.  1.
        -13    1    4    4    0    0  0.43628707125E+02 -0.44976357719E+02 -0.14855523077E+03  0.16122962950E+03  0.00000000000E+00 0. -1.
         13    1    4    4    0    0 -0.36630087933E+02  0.59358314618E+01 -0.89447973461E+02  0.96839751102E+02  0.00000000000E+00 0.  1.
         21    1    1    2  502  501 -0.25826819305E+02  0.28851359040E+02  0.14698292533E+02  0.41418176170E+02  0.00000000000E+00 0. -1.
<scales pt_clust_5="13000.00000" pt_clust_6="13000.00000" pt_clust_7="13000.00000" pt_clust_8="13000.00000" pt_clust_9="38.72242"></scales>
<clustering>
<clus scale="   38.722">  1  9  2 -1</clus>
<clus scale="   91.304">  5  6 -1 -1</clus>
<clus scale="   91.549">  7  8 -1 -1</clus>
<clus scale="   96.467">  1  5  2 -1</clus>
<clus scale="   96.698">  2  5  1 -1</clus>
</clustering>
</event>
<event>
 9    1  0.1748361E-005  0.9311245E+02  0.7546771E-02  0.1295781E+00
          1   -1    0    0  502    0  0.00000000000E+00  0.00000000000E+00  0.24347568954E+03  0.24347568954E+03  0.00000000000E+00 0. -1.
         -1   -1    0    0    0  501 -0.00000000000E+00 -0.00000000000E+00 -0.75233988799E+02  0.75233988799E+02  0.00000000000E+00 0.  1.
         23    2    1    2    0    0 -0.29857863187E+02 -0.46675116426E+02  0.40081972468E+02  0.11362983257E+03  0.90747539065E+02 0.  0.
         23    2    1    2    0    0 -0.15852478371E+02  0.45905295902E+01  0.10142759769E+03  0.13743995679E+03  0.91267793435E+02 0.  0.
        -11    1    4    4    0    0  0.20034302138E+02  0.50000833539E+01  0.99369121945E+02  0.10149185431E+03  0.00000000000E+00 0. -1.
         11    1    4    4    0    0 -0.35886780509E+02 -0.40955376366E+00  0.20584757412E+01  0.35948102481E+02  0.00000000000E+00 0.  1.
        -13    1    3    3    0    0 -0.30150042269E+02 -0.26347734874E+02  0.68108627238E+02  0.79006412942E+02  0.00000000000E+00 0. -1.
         13    1    3    3    0    0  0.29217908166E+00 -0.20327381552E+02 -0.28026654770E+02  0.34623419631E+02  0.00000000000E+00 0.  1.
         21    1    1    2  502  501  0.45710341558E+02  0.42084586836E+02  0.26732130588E+02  0.67639888973E+02  0.00000000000E+00 0. -1.
<scales pt_clust_5="13000.00000" pt_clust_6="13000.00000" pt_clust_7="13000.00000" pt_clust_8="13000.00000" pt_clust_9="62.13331"></scales>
<clustering>
<clus scale="   62.133">  2  9  1 -1</clus>
<clus scale="   90.748">  7  8 -1 -1</clus>
<clus scale="   91.268">  5  6 -1 -1</clus>
<clus scale="   92.603">  2  7  1 -1</clus>
<clus scale="   93.112">  1  5  2 -1</clus>
</clustering>
</event>
<event>
 9    1  0.1748361E-005  0.1213794E+03  0.7546771E-02  0.1241164E+00
          1   -1    0    0  502    0  0.00000000000E+00  0.00000000000E+00  0.39416429124E+03  0.39416429124E+03  0.00000000000E+00 0. -1.
         -1   -1    0    0    0  501 -0.00000000000E+00 -0.00000000000E+00 -0.11806151946E+03  0.11806151946E+03  0.00000000000E+00 0.  1.
         23    2    1    2    0    0 -0.58041632994E+02  0.45156495542E+02 -0.30095255421E+01  0.11702342230E+03  0.90980678572E+02 0.  0.
         23    2    1    2    0    0  0.41486693714E+02 -0.69573059495E+02  0.32120096433E+03  0.34380501006E+03  0.92034064859E+02 0.  0.
        -11    1    3    3    0    0  0.20596038694E+01  0.51817626084E+02 -0.17698798977E+02  0.54795582179E+02  0.00000000000E+00 0. -1.
         11    1    3    3    0    0 -0.60101236863E+02 -0.66611305420E+01  0.14689273435E+02  0.62227840125E+02  0.00000000000E+00 0.  1.
        -13    1    4    4    0    0  0.68041955734E+02 -0.38669407525E+02  0.24764840838E+03  0.25972055173E+03  0.00000000000E+00 0. -1.
         13    1    4    4    0    0 -0.26555262020E+02 -0.30903651970E+02  0.73552555952E+02  0.84084458333E+02  0.00000000000E+00 0.  1.
         21    1    1    2  502  501  0.16554939280E+02  0.24416563953E+02 -0.42088667009E+02  0.51397378342E+02  0.00000000000E+00 0.  1.
<scales pt_clust_5="13000.00000" pt_clust_6="13000.00000" pt_clust_7="13000.00000" pt_clust_8="13000.00000" pt_clust_9="29.49974"></scales>
<clustering>
<clus scale="   29.500">  2  9  1 -1</clus>
<clus scale="   90.981">  5  6 -1 -1</clus>
<clus scale="   92.034">  7  8 -1 -1</clus>
<clus scale="  120.583">  2  5  1 -1</clus>
<clus scale="  121.379">  1  5  2 -1</clus>
</clustering>
</event>
<event>
 9    1  0.1748361E-005  0.1175344E+03  0.7546771E-02  0.1247900E+00
          2   -1    0    0  502    0  0.00000000000E+00  0.00000000000E+00  0.36070944012E+03  0.36070944012E+03  0.00000000000E+00 0. -1.
         -2   -1    0    0    0  501 -0.00000000000E+00 -0.00000000000E+00 -0.66558460932E+02  0.66558460932E+02  0.00000000000E+00 0.  1.
         23    2    1    2    0    0  0.10953202549E+02 -0.74356770684E+02  0.41767711484E+02  0.12385127851E+03  0.89138630649E+02 0.  0.
         23    2    1    2    0    0  0.35162195116E+02  0.73492470902E+02  0.18439180783E+03  0.22125692724E+03  0.91196303718E+02 0.  0.
        -11    1    4    4    0    0 -0.29520329272E+02  0.23909912844E+02  0.38148354297E+02  0.53837075590E+02  0.00000000000E+00 0.  1.
         11    1    4    4    0    0  0.64682524389E+02  0.49582558058E+02  0.14624345353E+03  0.16741985165E+03  0.00000000000E+00 0. -1.
        -13    1    3    3    0    0 -0.28906872343E+02 -0.12727150437E+02 -0.11010756059E+02  0.33448832205E+02  0.00000000000E+00 0.  1.
         13    1    3    3    0    0  0.39860074892E+02 -0.61629620247E+02  0.52778467542E+02  0.90402446307E+02  0.00000000000E+00 0. -1.
         21    1    1    2  502  501 -0.46115397666E+02  0.86429978226E+00  0.67991459880E+02  0.82159695305E+02  0.00000000000E+00 0.  1.
<scales pt_clust_5="13000.00000" pt_clust_6="13000.00000" pt_clust_7="13000.00000" pt_clust_8="13000.00000" pt_clust_9="46.12350"></scales>
<clustering>
<clus scale="   46.123">  1  9  2 -1</clus>
<clus scale="   89.139">  7  8 -1 -1</clus>
<clus scale="   91.196">  5  6 -1 -1</clus>
<clus scale="  115.945">  2  7  1 -1</clus>
<clus scale="   46.123">  1  5  2 -1</clus>
</clustering>
</event>
<event>
 9    1  0.1748361E-005  0.2117420E+03  0.7546771E-02  0.1169871E+00
         -1   -1    0    0    0  501 -0.00000000000E+00  0.00000000000E+00  0.75376813551E+02  0.75376813551E+02  0.00000000000E+00 0.  1.
          1   -1    0    0  502    0  0.00000000000E+00 -0.00000000000E+00 -0.89617265295E+03  0.89617265295E+03  0.00000000000E+00 0. -1.
         23    2    1    2    0    0 -0.10565214893E+03 -0.19235796196E+03 -0.30504639914E+03  0.38658545949E+03  0.90725132974E+02 0.  0.
         23    2    1    2    0    0  0.25079071058E+02  0.45729818848E+02 -0.24438738796E+03  0.26617066226E+03  0.91659423500E+02 0.  0.
        -13    1    3    3    0    0 -0.78032320250E+02 -0.19429994557E+03 -0.27628427914E+03  0.34666196035E+03  0.00000000000E+00 0. -1.
         13    1    3    3    0    0 -0.27619828680E+02  0.19419836036E+01 -0.28762119996E+02  0.39923499136E+02  0.00000000000E+00 0.  1.
        -13    1    4    4    0    0 -0.62359733872E+01  0.61818299145E+02 -0.20050550600E+03  0.20991152281E+03  0.00000000000E+00 0.  1.
         13    1    4    4    0    0  0.31315044445E+02 -0.16088480297E+02 -0.43881881962E+02  0.56259139448E+02  0.00000000000E+00 0. -1.
         21    1    1    2  502  501  0.80573077872E+02  0.14662814312E+03 -0.27136205230E+03  0.31879334475E+03  0.00000000000E+00 0.  1.
<scales pt_clust_5="13000.00000" pt_clust_6="13000.00000" pt_clust_7="13000.00000" pt_clust_8="13000.00000" pt_clust_9="191.32073"></scales>
<clustering>
<clus scale="   90.725">  5  6 -1 -1</clus>
<clus scale="   91.659">  7  8 -1 -1</clus>
<clus scale="  105.459">  2  7  1 -1</clus>
<clus scale="  191.321">  1  9  2 -1</clus>
<clus scale="  105.459">  2  5  1 -1</clus>
</clustering>
</event>
<event>
 9    1  0.1748361E-005  0.1263194E+03  0.7546771E-02  0.1239688E+00
         -1   -1    0    0    0  501 -0.00000000000E+00  0.00000000000E+00  0.10531241819E+03  0.10531241819E+03  0.00000000000E+00 0.  1.
          1   -1    0    0  502    0  0.00000000000E+00 -0.00000000000E+00 -0.20160885815E+03  0.20160885815E+03  0.00000000000E+00 0. -1.
         23    2    1    2    0    0  0.57223157785E+02  0.34402849114E+02  0.15545774570E+02  0.11313368626E+03  0.89997300219E+02 0.  0.
         23    2    1    2    0    0 -0.63702807707E+02 -0.72671117312E+01 -0.10645858309E+03  0.16537425528E+03  0.10910708397E+03 0.  0.
        -11    1    3    3    0    0  0.25459339054E+02  0.59911145012E+02 -0.87792568947E+01  0.65685604156E+02  0.00000000000E+00 0.  1.
         11    1    3    3    0    0  0.31763818731E+02 -0.25508295898E+02  0.24325031465E+02  0.47448082108E+02  0.00000000000E+00 0. -1.
        -11    1    4    4    0    0 -0.46091147617E+02 -0.53126220887E+02 -0.88558049346E+02  0.11308986399E+03  0.00000000000E+00 0. -1.
         11    1    4    4    0    0 -0.17611660090E+02  0.45859109155E+02 -0.17900533742E+02  0.52284391284E+02  0.00000000000E+00 0.  1.
         21    1    1    2  502  501  0.64796499220E+01 -0.27135737383E+02 -0.53836314457E+01  0.28413334792E+02  0.00000000000E+00 0.  1.
<scales pt_clust_5="13000.00000" pt_clust_6="13000.00000" pt_clust_7="13000.00000" pt_clust_8="13000.00000" pt_clust_9="27.89864"></scales>
<clustering>
<clus scale="   27.899">  1  9  2 -1</clus>
<clus scale="   89.997">  5  6 -1 -1</clus>
<clus scale="  109.107">  7  8 -1 -1</clus>
<clus scale="  110.235">  1  5  2 -1</clus>
<clus scale="  126.319">  2  5  1 -1</clus>
</clustering>
</event>
<event>
 9    1  0.1748361E-005  0.1095387E+03  0.7546771E-02  0.1261943E+00
         -1   -1    0    0    0  501 -0.00000000000E+00  0.00000000000E+00  0.20842661433E+03  0.20842661433E+03  0.00000000000E+00 0.  1.
          1   -1    0    0  502    0  0.00000000000E+00 -0.00000000000E+00 -0.10192753227E+03  0.10192753227E+03  0.00000000000E+00 0. -1.
         23    2    1    2    0    0  0.14948734815E+01 -0.62228190461E+02  0.38056230273E+02  0.11802217829E+03  0.92770553365E+02 0.  0.
         23    2    1    2    0    0  0.23380876539E+02  0.49481715471E+02 -0.97849499041E+01  0.10926052603E+03  0.94058554898E+02 0.  0.
        -11    1    3    3    0    0 -0.35676059586E+02 -0.27976012690E+02  0.48519469378E+02  0.66404649102E+02  0.00000000000E+00 0.  1.
         11    1    3    3    0    0  0.37170933068E+02 -0.34252177772E+02 -0.10463239105E+02  0.51617529191E+02  0.00000000000E+00 0. -1.
        -11    1    4    4    0    0  0.45883102668E+02  0.32056259472E+02 -0.39197714501E+02  0.68332449860E+02  0.00000000000E+00 0.  1.
         11    1    4    4    0    0 -0.22502226129E+02  0.17425455999E+02  0.29412764597E+02  0.40928076168E+02  0.00000000000E+00 0. -1.
         21    1    1    2  502  501 -0.24875750021E+02  0.12746474991E+02  0.78227801690E+02  0.83071442271E+02  0.00000000000E+00 0. -1.
<scales pt_clust_5="13000.00000" pt_clust_6="13000.00000" pt_clust_7="13000.00000" pt_clust_8="13000.00000" pt_clust_9="27.95131"></scales>
<clustering>
<clus scale="   27.951">  1  9  2 -1</clus>
<clus scale="   92.771">  5  6 -1 -1</clus>
<clus scale="   94.059">  7  8 -1 -1</clus>
<clus scale="  108.435">  1  5  2 -1</clus>
<clus scale="  109.539">  2  5  1 -1</clus>
</clustering>
</event>
<event>
 9    1  0.1748361E-005  0.1159304E+03  0.7546771E-02  0.1250004E+00
         -2   -1    0    0    0  501 -0.00000000000E+00  0.00000000000E+00  0.68246353968E+02  0.68246353968E+02  0.00000000000E+00 0.  1.
          2   -1    0    0  502    0  0.00000000000E+00 -0.00000000000E+00 -0.44773368408E+03  0.44773368408E+03  0.00000000000E+00 0. -1.
         23    2    1    2    0    0 -0.93554282713E+02  0.30531225872E+02 -0.22954637119E+03  0.26544435999E+03  0.89914471358E+02 0.  0.
         23    2    1    2    0    0  0.32816901008E+02 -0.46221411093E+02 -0.15455761539E+03  0.18763476419E+03  0.90029886262E+02 0.  0.
        -11    1    3    3    0    0  0.17259072591E+02  0.11658720928E+02 -0.32966168426E+02  0.38994481931E+02  0.00000000000E+00 0.  1.
         11    1    3    3    0    0 -0.11081335530E+03  0.18872504944E+02 -0.19658020276E+03  0.22644987806E+03  0.00000000000E+00 0. -1.
        -13    1    4    4    0    0  0.37928538017E+01 -0.60836101240E+02 -0.13864389737E+03  0.15145146824E+03  0.00000000000E+00 0. -1.
         13    1    4    4    0    0  0.29024047207E+02  0.14614690147E+02 -0.15913718024E+02  0.36183295948E+02  0.00000000000E+00 0.  1.
         21    1    1    2  502  501  0.60737381705E+02  0.15690185221E+02  0.46166564672E+01  0.62900913869E+02  0.00000000000E+00 0. -1.
<scales pt_clust_5="13000.00000" pt_clust_6="13000.00000" pt_clust_7="13000.00000" pt_clust_8="13000.00000" pt_clust_9="62.73126"></scales>
<clustering>
<clus scale="   62.731">  1  9  2 -1</clus>
<clus scale="   89.914">  5  6 -1 -1</clus>
<clus scale="   90.030">  7  8 -1 -1</clus>
<clus scale="  115.841">  1  5  2 -1</clus>
<clus scale="  115.930">  2  5  1 -1</clus>
</clustering>
</event>
<event>
 9    1  0.1748361E-005  0.3196713E+03  0.7546771E-02  0.1084491E+00
         -1   -1    0    0    0  501 -0.00000000000E+00  0.00000000000E+00  0.22814856775E+03  0.22814856775E+03  0.00000000000E+00 0.  1.
          1   -1    0    0  502    0  0.00000000000E+00 -0.00000000000E+00 -0.19922747986E+04  0.19922747986E+04  0.00000000000E+00 0. -1.
         23    2    1    2    0    0 -0.38751352607E+03 -0.33413799553E+03 -0.97146336802E+03  0.11017978610E+04  0.91665250082E+02 0.  0.
         23    2    1    2    0    0  0.15545230326E+03  0.17812226597E+03 -0.79985255138E+03  0.83890240903E+03  0.90001042837E+02 0.  0.
        -13    1    4    4    0    0  0.12664098420E+03  0.17363320514E+03 -0.75811706002E+03  0.78798978769E+03  0.00000000000E+00 0.  1.
         13    1    4    4    0    0  0.28811319064E+02  0.44890608235E+01 -0.41735491360E+02  0.50912621347E+02  0.00000000000E+00 0. -1.
        -13    1    3    3    0    0 -0.36121619196E+03 -0.33544715154E+03 -0.91020897378E+03  0.10351242944E+04  0.00000000000E+00 0. -1.
         13    1    3    3    0    0 -0.26297334112E+02  0.13091560099E+01 -0.61254394231E+02  0.66673566602E+02  0.00000000000E+00 0.  1.
         21    1    1    2  502  501  0.23206122281E+03  0.15601572956E+03  0.71896885649E+01  0.27972309634E+03  0.00000000000E+00 0.  1.
<scales pt_clust_5="13000.00000" pt_clust_6="13000.00000" pt_clust_7="13000.00000" pt_clust_8="13000.00000" pt_clust_9="306.24697"></scales>
<clustering>
<clus scale="   90.001">  5  6 -1 -1</clus>
<clus scale="   91.665">  7  8 -1 -1</clus>
<clus scale="  252.969">  2  5  1 -1</clus>
<clus scale="  306.247">  1  9  2 -1</clus>
<clus scale="  252.969">  2  5  1 -1</clus>
</clustering>
</event>
<event>
 9    1  0.1748361E-005  0.1100621E+03  0.7546771E-02  0.1260974E+00
          1   -1    0    0  502    0  0.00000000000E+00  0.00000000000E+00  0.11221486146E+03  0.11221486146E+03  0.00000000000E+00 0. -1.
         -1   -1    0    0    0  501 -0.00000000000E+00 -0.00000000000E+00 -0.20698848622E+03  0.20698848622E+03  0.00000000000E+00 0.  1.
         23    2    1    2    0    0 -0.70484523736E+02  0.45701206658E+02 -0.10658146521E+03  0.16245921842E+03  0.89312488191E+02 0.  0.
         23    2    1    2    0    0  0.51798158466E+02 -0.23112297407E+02  0.41777997771E+02  0.11481979983E+03  0.90669497750E+02 0.  0.
        -13    1    4    4    0    0  0.13676917678E+02  0.21116327775E+02 -0.18247477874E+02  0.31079379412E+02  0.00000000000E+00 0.  1.
         13    1    4    4    0    0  0.38121240788E+02 -0.44228625182E+02  0.60025475645E+02  0.83740420414E+02  0.00000000000E+00 0. -1.
        -13    1    3    3    0    0 -0.19295900674E+01  0.30820655138E+02  0.43720103510E+01  0.31188949573E+02  0.00000000000E+00 0. -1.
         13    1    3    3    0    0 -0.68554933669E+02  0.14880551520E+02 -0.11095347556E+03  0.13127026885E+03  0.00000000000E+00 0.  1.
         21    1    1    2  502  501  0.18686365270E+02 -0.22588909251E+02 -0.29970157323E+02  0.41924329430E+02  0.00000000000E+00 0. -1.
<scales pt_clust_5="13000.00000" pt_clust_6="13000.00000" pt_clust_7="13000.00000" pt_clust_8="13000.00000" pt_clust_9="29.31619"></scales>
<clustering>
<clus scale="   29.316">  2  9  1 -1</clus>
<clus scale="   89.312">  7  8 -1 -1</clus>
<clus scale="   90.669">  5  6 -1 -1</clus>
<clus scale="  108.947">  2  7  1 -1</clus>
<clus scale="  110.062">  1  5  2 -1</clus>
</clustering>
</event>
<event>
 9    1  0.1748361E-005  0.1225449E+03  0.7546771E-02  0.1239896E+00
         -2   -1    0    0    0  501 -0.00000000000E+00  0.00000000000E+00  0.12404135925E+04  0.12404135925E+04  0.00000000000E+00 0.  1.
          2   -1    0    0  502    0  0.00000000000E+00 -0.00000000000E+00 -0.14458681331E+02  0.14458681331E+02  0.00000000000E+00 0. -1.
         23    2    1    2    0    0 -0.79359546778E+02 -0.10092870730E+02  0.63500255492E+03  0.64636276315E+03  0.90314855508E+02 0.  0.
         23    2    1    2    0    0  0.87261225885E+02 -0.95754461097E+01  0.51590998025E+03  0.53053106869E+03  0.87142965355E+02 0.  0.
        -11    1    4    4    0    0  0.36046547881E+02 -0.46257031683E+02  0.20091653761E+03  0.20930007568E+03  0.00000000000E+00 0.  1.
         11    1    4    4    0    0  0.51214678003E+02  0.36681585573E+02  0.31499344264E+03  0.32123099301E+03  0.00000000000E+00 0. -1.
        -11    1    3    3    0    0  0.37521130845E+01  0.28662627435E+02  0.14520243534E+03  0.14805192263E+03  0.00000000000E+00 0. -1.
         11    1    3    3    0    0 -0.83111659862E+02 -0.38755498166E+02  0.48980011958E+03  0.49831084052E+03  0.00000000000E+00 0.  1.
         21    1    1    2  502  501 -0.79016791069E+01  0.19668316840E+02  0.75042375961E+02  0.77978441956E+02  0.00000000000E+00 0. -1.
<scales pt_clust_5="13000.00000" pt_clust_6="13000.00000" pt_clust_7="13000.00000" pt_clust_8="13000.00000" pt_clust_9="21.19621"></scales>
<clustering>
<clus scale="   21.196">  2  9  1 -1</clus>
<clus scale="   87.143">  5  6 -1 -1</clus>
<clus scale="   90.315">  7  8 -1 -1</clus>
<clus scale="  120.226">  2  5  1 -1</clus>
<clus scale="   21.196">  2  5  1 -1</clus>
</clustering>
</event>
<event>
 9    1  0.1748361E-005  0.3049644E+03  0.7546771E-02  0.1082846E+00
         -1   -1    0    0    0  501 -0.00000000000E+00  0.00000000000E+00  0.95530516004E+03  0.95530516004E+03  0.00000000000E+00 0.  1.
          1   -1    0    0  502    0  0.00000000000E+00 -0.00000000000E+00 -0.23133919988E+03  0.23133919988E+03  0.00000000000E+00 0. -1.
         23    2    1    2    0    0 -0.29051071405E+03  0.28830178028E+02  0.48753437359E+03  0.57536039052E+03  0.90123023703E+02 0.  0.
         23    2    1    2    0    0  0.29051904945E+03  0.23256598588E+02 -0.59075423390E+02  0.31122160038E+03  0.91797556716E+02 0.  0.
        -11    1    3    3    0    0 -0.28474707939E+03  0.91831404751E+01  0.45931311412E+03  0.54049400190E+03  0.00000000000E+00 0. -1.
         11    1    3    3    0    0 -0.57636346658E+01  0.19647037553E+02  0.28221259469E+02  0.34866388617E+02  0.00000000000E+00 0.  1.
        -13    1    4    4    0    0  0.18648248653E+03 -0.17075539336E+02 -0.52487409451E+01  0.18733617138E+03  0.00000000000E+00 0.  1.
         13    1    4    4    0    0  0.10403656292E+03  0.40332137924E+02 -0.53826682445E+02  0.12388542899E+03  0.00000000000E+00 0. -1.
         21    1    1    2  502  501 -0.83353985789E-02 -0.52086776616E+02  0.29550700996E+03  0.30006236902E+03  0.00000000000E+00 0.  1.
<scales pt_clust_5="13000.00000" pt_clust_6="13000.00000" pt_clust_7="13000.00000" pt_clust_8="13000.00000" pt_clust_9="52.08678"></scales>
<clustering>
<clus scale="   52.087">  1  9  2 -1</clus>
<clus scale="   90.123">  5  6 -1 -1</clus>
<clus scale="   91.798">  7  8 -1 -1</clus>
<clus scale="  304.464">  1  5  2 -1</clus>
<clus scale="  304.964">  2  5  1 -1</clus>
</clustering>
</event>
<event>
 9    1  0.1748361E-005  0.1248750E+03  0.7546771E-02  0.1249539E+00
         -2   -1    0    0    0  501 -0.00000000000E+00  0.00000000000E+00  0.12004560052E+03  0.12004560052E+03  0.00000000000E+00 0.  1.
          2   -1    0    0  502    0  0.00000000000E+00 -0.00000000000E+00 -0.32188268513E+03  0.32188268513E+03  0.00000000000E+00 0. -1.
         23    2    1    2    0    0  0.27923707809E+02  0.30316067492E+00 -0.55919972849E+02  0.11235818432E+03  0.93367514994E+02 0.  0.
         23    2    1    2    0    0  0.12200230969E+02  0.84796243114E+01 -0.21511153699E+03  0.24910311272E+03  0.12473426857E+03 0.  0.
        -13    1    3    3    0    0 -0.31913230566E+02 -0.15533313445E+02 -0.18425688857E+02  0.39990550404E+02  0.00000000000E+00 0. -1.
         13    1    3    3    0    0  0.59836938375E+02  0.15836474120E+02 -0.37494283992E+02  0.72367633917E+02  0.00000000000E+00 0.  1.
        -13    1    4    4    0    0 -0.93924989067E+01  0.64323911829E+02 -0.98467903572E+02  0.11799030766E+03  0.00000000000E+00 0. -1.
         13    1    4    4    0    0  0.21592729876E+02 -0.55844287518E+02 -0.11664363342E+03  0.13111280505E+03  0.00000000000E+00 0.  1.
         21    1    1    2  502  501 -0.40123938778E+02 -0.87827849863E+01  0.69194425228E+02  0.80466988621E+02  0.00000000000E+00 0.  1.
<scales pt_clust_5="13000.00000" pt_clust_6="13000.00000" pt_clust_7="13000.00000" pt_clust_8="13000.00000" pt_clust_9="41.07393"></scales>
<clustering>
<clus scale="   41.074">  1  9  2 -1</clus>
<clus scale="   93.368">  5  6 -1 -1</clus>
<clus scale="   93.555">  1  5  2 -1</clus>
<clus scale="  124.734">  7  8 -1 -1</clus>
<clus scale="  124.875">  2  5  1 -1</clus>
</clustering>
</event>
<event>
 9    1  0.1748361E-005  0.1043533E+03  0.7546771E-02  0.1274033E+00
         -3   -1    0    0    0  501 -0.00000000000E+00  0.00000000000E+00  0.12971917228E+03  0.12971917228E+03  0.00000000000E+00 0.  1.
          3   -1    0    0  502    0  0.00000000000E+00 -0.00000000000E+00 -0.11368743168E+03  0.11368743168E+03  0.00000000000E+00 0. -1.
         23    2    1    2    0    0  0.90144113873E+01  0.44205782317E+02  0.15295755380E+02  0.10623528178E+03  0.94955590458E+02 0.  0.
         23    2    1    2    0    0 -0.28810910249E+02 -0.33691366479E+02 -0.25297995985E+02  0.10281695586E+03  0.89253353363E+02 0.  0.
        -13    1    3    3    0    0 -0.19473489587E+02  0.63974838417E+02  0.22993904824E+02  0.70715743694E+02  0.00000000000E+00 0.  1.
         13    1    3    3    0    0  0.28487900974E+02 -0.19769056100E+02 -0.76981494436E+01  0.35519538086E+02  0.00000000000E+00 0. -1.
        -13    1    4    4    0    0 -0.18717452707E+02 -0.55687744603E+02  0.10425802041E+02  0.59667120620E+02  0.00000000000E+00 0. -1.
         13    1    4    4    0    0 -0.10093457542E+02  0.21996378124E+02 -0.35723798025E+02  0.43149835238E+02  0.00000000000E+00 0.  1.
         21    1    1    2  502  501  0.19796498862E+02 -0.10514415838E+02  0.26033981203E+02  0.34354366315E+02  0.00000000000E+00 0.  1.
<scales pt_clust_5="13000.00000" pt_clust_6="13000.00000" pt_clust_7="13000.00000" pt_clust_8="13000.00000" pt_clust_9="22.41549"></scales>
<clustering>
<clus scale="   22.415">  1  9  2 -1</clus>
<clus scale="   89.253">  7  8 -1 -1</clus>
<clus scale="   94.956">  5  6 -1 -1</clus>
<clus scale="   99.193">  2  7  1 -1</clus>
<clus scale="   99.193">  2  5  1 -1</clus>
</clustering>
</event>
<event>
 9    1  0.1748361E-005  0.9415149E+02  0.7546771E-02  0.1293614E+00
          2   -1    0    0  502    0  0.00000000000E+00  0.00000000000E+00  0.25661864555E+03  0.25661864555E+03  0.00000000000E+00 0.  1.
         -2   -1    0    0    0  501 -0.00000000000E+00 -0.00000000000E+00 -0.80078360107E+02  0.80078360107E+02  0.00000000000E+00 0. -1.
         23    2    1    2    0    0  0.60346947800E+01  0.45199599571E+00  0.43545746670E+02  0.10173958558E+03  0.91750146486E+02 0.  0.
         23    2    1    2    0    0  0.24611967180E+02 -0.21510594663E+02  0.16146909086E+03  0.18812278989E+03  0.90826549872E+02 0.  0.
        -13    1    4    4    0    0  0.34969172456E+02  0.45110861937E+01  0.15555122834E+03  0.15949726505E+03  0.00000000000E+00 0.  1.
         13    1    4    4    0    0 -0.10357205275E+02 -0.26021680856E+02  0.59178625261E+01  0.28625524844E+02  0.00000000000E+00 0. -1.
        -13    1    3    3    0    0 -0.34287141455E+01  0.32631181896E+02 -0.13567499754E+02  0.35505311746E+02  0.00000000000E+00 0. -1.
         13    1    3    3    0    0  0.94634089256E+01 -0.32179185900E+02  0.57113246424E+02  0.66234273838E+02  0.00000000000E+00 0.  1.
         21    1    1    2  502  501 -0.30646661960E+02  0.21058598667E+02 -0.28474552092E+02  0.46834630179E+02  0.00000000000E+00 0. -1.
<scales pt_clust_5="13000.00000" pt_clust_6="13000.00000" pt_clust_7="13000.00000" pt_clust_8="13000.00000" pt_clust_9="37.18444"></scales>
<clustering>
<clus scale="   37.184">  2  9  1 -1</clus>
<clus scale="   90.827">  5  6 -1 -1</clus>
<clus scale="   91.750">  7  8 -1 -1</clus>
<clus scale="   93.252">  1  5  2 -1</clus>
<clus scale="   93.252">  1  5  2 -1</clus>
</clustering>
</event>
<event>
 9    1  0.1748361E-005  0.1188345E+03  0.7546771E-02  0.1247402E+00
         -2   -1    0    0    0  501 -0.00000000000E+00  0.00000000000E+00  0.30087890513E+02  0.30087890513E+02  0.00000000000E+00 0.  1.
          2   -1    0    0  502    0  0.00000000000E+00 -0.00000000000E+00 -0.10122722238E+04  0.10122722238E+04  0.00000000000E+00 0. -1.
         23    2    1    2    0    0 -0.47930361868E+01 -0.91475783508E+02 -0.55097471765E+03  0.56613079686E+03  0.92412918477E+02 0.  0.
         23    2    1    2    0    0 -0.15728400829E+02  0.40322287005E+02 -0.39675163570E+03  0.41122807159E+03  0.99113051646E+02 0.  0.
        -13    1    3    3    0    0 -0.40061588419E+02 -0.19811672227E+02 -0.12541416504E+03  0.13313957344E+03  0.00000000000E+00 0.  1.
         13    1    3    3    0    0  0.35268552233E+02 -0.71664111280E+02 -0.42556055261E+03  0.43299122343E+03  0.00000000000E+00 0. -1.
        -13    1    4    4    0    0 -0.28774515376E+02  0.69494770648E+02 -0.30229331732E+03  0.31151042611E+03  0.00000000000E+00 0.  1.
         13    1    4    4    0    0  0.13046114547E+02 -0.29172483643E+02 -0.94458318388E+02  0.99717645476E+02  0.00000000000E+00 0. -1.
         21    1    1    2  502  501  0.20521437015E+02  0.51153496503E+02 -0.34457979915E+02  0.65001245845E+02  0.00000000000E+00 0.  1.
<scales pt_clust_5="13000.00000" pt_clust_6="13000.00000" pt_clust_7="13000.00000" pt_clust_8="13000.00000" pt_clust_9="55.11633"></scales>
<clustering>
<clus scale="   55.116">  1  9  2 -1</clus>
<clus scale="   92.413">  5  6 -1 -1</clus>
<clus scale="   99.113">  7  8 -1 -1</clus>
<clus scale="  113.307">  1  5  2 -1</clus>
<clus scale="  118.834">  2  5  1 -1</clus>
</clustering>
</event>
<event>
 9    1  0.1748361E-005  0.1824147E+03  0.7546771E-02  0.1167263E+00
         -1   -1    0    0    0  501 -0.00000000000E+00  0.00000000000E+00  0.57190376815E+03  0.57190376815E+03  0.00000000000E+00 0.  1.
          1   -1    0    0  502    0  0.00000000000E+00 -0.00000000000E+00 -0.77564024687E+02  0.77564024687E+02  0.00000000000E+00 0. -1.
         23    2    1    2    0    0 -0.12114059780E+03 -0.46804875735E+02  0.23689960142E+03  0.28074185279E+03  0.76346747950E+02 0.  0.
         23    2    1    2    0    0  0.16353116670E+03  0.74171651419E+02  0.15448167829E+03  0.25406842395E+03  0.91881982792E+02 0.  0.
        -11    1    4    4    0    0  0.12427628367E+03  0.89964567549E+02  0.14414009625E+03  0.21051029772E+03  0.00000000000E+00 0.  1.
         11    1    4    4    0    0  0.39254883024E+02 -0.15792916130E+02  0.10341582039E+02  0.43558126225E+02  0.00000000000E+00 0. -1.
        -13    1    3    3    0    0 -0.56802988870E+02 -0.51712746690E+02  0.17592720975E+03  0.19196658784E+03  0.00000000000E+00 0. -1.
         13    1    3    3    0    0 -0.64337608934E+02  0.49078709547E+01  0.60972391670E+02  0.88775264948E+02  0.00000000000E+00 0.  1.
         21    1    1    2  502  501 -0.42390568895E+02 -0.27366775684E+02  0.10295846374E+03  0.11465751610E+03  0.00000000000E+00 0. -1.
<scales pt_clust_5="13000.00000" pt_clust_6="13000.00000" pt_clust_7="13000.00000" pt_clust_8="13000.00000" pt_clust_9="50.45692"></scales>
<clustering>
<clus scale="   50.457">  1  9  2 -1</clus>
<clus scale="   76.347">  7  8 -1 -1</clus>
<clus scale="   91.882">  5  6 -1 -1</clus>
<clus scale="  175.105">  1  7  2 -1</clus>
<clus scale="  182.415">  2  5  1 -1</clus>
</clustering>
</event>
<event>
 9    1  0.1748361E-005  0.1043373E+03  0.7546771E-02  0.1272500E+00
         -1   -1    0    0    0  501 -0.00000000000E+00  0.00000000000E+00  0.37578439810E+03  0.37578439810E+03  0.00000000000E+00 0.  1.
          1   -1    0    0  502    0  0.00000000000E+00 -0.00000000000E+00 -0.67566056389E+02  0.67566056389E+02  0.00000000000E+00 0. -1.
         23    2    1    2    0    0  0.80195972971E+02  0.21774550953E+02  0.14772360183E+03  0.19249696308E+03  0.91254003232E+02 0.  0.
         23    2    1    2    0    0 -0.21057937260E+02 -0.38953875309E+02  0.25482912244E+02  0.10245999407E+03  0.88813458690E+02 0.  0.
        -13    1    3    3    0    0  0.31283659978E+02  0.40662129050E+02  0.12543980435E+03  0.13552571946E+03  0.00000000000E+00 0.  1.
         13    1    3    3    0    0  0.48912312993E+02 -0.18887578097E+02  0.22283797481E+02  0.56971243613E+02  0.00000000000E+00 0. -1.
        -13    1    4    4    0    0 -0.49717468886E+02 -0.47843344069E+02  0.20978029313E+02  0.72117196271E+02  0.00000000000E+00 0. -1.
         13    1    4    4    0    0  0.28659531626E+02  0.88894687595E+01  0.45048829316E+01  0.30342797796E+02  0.00000000000E+00 0.  1.
         21    1    1    2  502  501 -0.59138035711E+02  0.17179324356E+02  0.13501182763E+03  0.14839349734E+03  0.00000000000E+00 0. -1.
<scales pt_clust_5="13000.00000" pt_clust_6="13000.00000" pt_clust_7="13000.00000" pt_clust_8="13000.00000" pt_clust_9="61.58276"></scales>
<clustering>
<clus scale="   61.583">  1  9  2 -1</clus>
<clus scale="   88.813">  7  8 -1 -1</clus>
<clus scale="   91.254">  5  6 -1 -1</clus>
<clus scale="  102.210">  2  7  1 -1</clus>
<clus scale="  102.210">  2  5  1 -1</clus>
</clustering>
</event>
<event>
 9    1  0.1748361E-005  0.1100106E+03  0.7546771E-02  0.1260559E+00
          1   -1    0    0  502    0  0.00000000000E+00  0.00000000000E+00  0.11290873292E+03  0.11290873292E+03  0.00000000000E+00 0. -1.
         -1   -1    0    0    0  501 -0.00000000000E+00 -0.00000000000E+00 -0.37578194441E+03  0.37578194441E+03  0.00000000000E+00 0.  1.
         23    2    1    2    0    0 -0.36921500001E+02  0.54972006441E+02 -0.19361563617E+03  0.22350950381E+03  0.89913097322E+02 0.  0.
         23    2    1    2    0    0  0.53394436626E+02 -0.34592332653E+02  0.65321380558E+02  0.12807470354E+03  0.89936931163E+02 0.  0.
        -11    1    3    3    0    0 -0.44815995777E+02  0.15650352443E+02 -0.32629815614E+02  0.57603054399E+02  0.00000000000E+00 0. -1.
         11    1    3    3    0    0  0.78944957757E+01  0.39321653998E+02 -0.16098582055E+03  0.16590644941E+03  0.00000000000E+00 0.  1.
        -11    1    4    4    0    0 -0.62797955253E+01 -0.30364983132E+02  0.60590977527E+02  0.68064194626E+02  0.00000000000E+00 0. -1.
         11    1    4    4    0    0  0.59674232152E+02 -0.42273495208E+01  0.47304030316E+01  0.60010508911E+02  0.00000000000E+00 0.  1.
         21    1    1    2  502  501 -0.16472936625E+02 -0.20379673788E+02 -0.13457895588E+03  0.13710646998E+03  0.00000000000E+00 0. -1.
<scales pt_clust_5="13000.00000" pt_clust_6="13000.00000" pt_clust_7="13000.00000" pt_clust_8="13000.00000" pt_clust_9="26.20475"></scales>
<clustering>
<clus scale="   26.205">  2  9  1 -1</clus>
<clus scale="   89.913">  5  6 -1 -1</clus>
<clus scale="   89.937">  7  8 -1 -1</clus>
<clus scale="  109.991">  2  5  1 -1</clus>
<clus scale="  110.011">  1  5  2 -1</clus>
</clustering>
</event>
<event>
 9    1  0.1748361E-005  0.1629185E+03  0.7546771E-02  0.1187040E+00
          2   -1    0    0  502    0  0.00000000000E+00  0.00000000000E+00  0.37594487175E+03  0.37594487175E+03  0.00000000000E+00 0. -1.
         -2   -1    0    0    0  501 -0.00000000000E+00 -0.00000000000E+00 -0.10002568122E+03  0.10002568122E+03  0.00000000000E+00 0.  1.
         23    2    1    2    0    0  0.29050067956E+02  0.12533576556E+03  0.88253586550E+02  0.18515810280E+03  0.99708910916E+02 0.  0.
         23    2    1    2    0    0 -0.81044883300E+01 -0.12931263141E+03  0.20817123372E+03  0.26123182105E+03  0.90107504736E+02 0.  0.
        -13    1    4    4    0    0  0.90636233075E+01 -0.42597166825E+02  0.10653252179E+02  0.44834804237E+02  0.00000000000E+00 0.  1.
         13    1    4    4    0    0 -0.17168111637E+02 -0.86715464583E+02  0.19751798154E+03  0.21639701682E+03  0.00000000000E+00 0. -1.
        -13    1    3    3    0    0  0.37657678306E+02  0.34437991445E+02  0.78096291483E+02  0.93290442885E+02  0.00000000000E+00 0.  1.
         13    1    3    3    0    0 -0.86076103504E+01  0.90897774114E+02  0.10157295067E+02  0.91867659913E+02  0.00000000000E+00 0. -1.
         21    1    1    2  502  501 -0.20945579626E+02  0.39768658490E+01 -0.20505629739E+02  0.29580629115E+02  0.00000000000E+00 0. -1.
<scales pt_clust_5="13000.00000" pt_clust_6="13000.00000" pt_clust_7="13000.00000" pt_clust_8="13000.00000" pt_clust_9="21.31977"></scales>
<clustering>
<clus scale="   21.320">  2  9  1 -1</clus>
<clus scale="   90.108">  5  6 -1 -1</clus>
<clus scale="   99.709">  7  8 -1 -1</clus>
<clus scale="  157.226">  1  5  2 -1</clus>
<clus scale="  157.226">  1  5  2 -1</clus>
</clustering>
</event>
<event>
 9    1  0.1748361E-005  0.1069044E+03  0.7546771E-02  0.1266884E+00
          1   -1    0    0  502    0  0.00000000000E+00  0.00000000000E+00  0.51108303751E+03  0.51108303751E+03  0.00000000000E+00 0. -1.
         -1   -1    0    0    0  501 -0.00000000000E+00 -0.00000000000E+00 -0.33885306235E+02  0.33885306235E+02  0.00000000000E+00 0.  1.
         23    2    1    2    0    0  0.91792144213E+01  0.44636864863E+02  0.11449855215E+03  0.15370203801E+03  0.91856901549E+02 0.  0.
         23    2    1    2    0    0 -0.18488214272E+02 -0.71986115622E+02  0.27608825396E+03  0.29996410777E+03  0.90718945466E+02 0.  0.
        -13    1    3    3    0    0  0.40275639003E+02  0.54275404051E+02  0.91876489674E+02  0.11405803758E+03  0.00000000000E+00 0. -1.
         13    1    3    3    0    0 -0.31096424582E+02 -0.96385391889E+01  0.22622062479E+02  0.39644000432E+02  0.00000000000E+00 0.  1.
        -13    1    4    4    0    0  0.14491707731E+02 -0.35047881277E+02  0.22732222880E+03  0.23046422560E+03  0.00000000000E+00 0. -1.
         13    1    4    4    0    0 -0.32979922002E+02 -0.36938234345E+02  0.48766025162E+02  0.69499882172E+02  0.00000000000E+00 0.  1.
         21    1    1    2  502  501  0.93089998503E+01  0.27349250759E+02  0.86610925158E+02  0.91302197959E+02  0.00000000000E+00 0. -1.
<scales pt_clust_5="13000.00000" pt_clust_6="13000.00000" pt_clust_7="13000.00000" pt_clust_8="13000.00000" pt_clust_9="28.89012"></scales>
<clustering>
<clus scale="   28.890">  1  9  2 -1</clus>
<clus scale="   90.719">  7  8 -1 -1</clus>
<clus scale="   91.857">  5  6 -1 -1</clus>
<clus scale="  105.928">  1  7  2 -1</clus>
<clus scale="   28.890">  1  5  2 -1</clus>
</clustering>
</event>
<event>
 9    1  0.1748361E-005  0.9263017E+02  0.7546771E-02  0.1301039E+00
         -1   -1    0    0    0  501 -0.00000000000E+00  0.00000000000E+00  0.20993081548E+03  0.20993081548E+03  0.00000000000E+00 0.  1.
          1   -1    0    0  502    0  0.00000000000E+00 -0.00000000000E+00 -0.65308609448E+02  0.65308609448E+02  0.00000000000E+00 0. -1.
         23    2    1    2    0    0 -0.19749305420E+01  0.14695072668E+02  0.13117306410E+03  0.15641686156E+03  0.83904805123E+02 0.  0.
         23    2    1    2    0    0  0.22738222243E+02 -0.12594243457E+02  0.18566855864E+01  0.94949716667E+02  0.91303667477E+02 0.  0.
        -11    1    3    3    0    0 -0.27580191446E+02 -0.88537259666E+01  0.11399784820E+03  0.11762042687E+03  0.00000000000E+00 0.  1.
         11    1    3    3    0    0  0.25605260904E+02  0.23548798634E+02  0.17175215903E+02  0.38796434687E+02  0.00000000000E+00 0. -1.
        -13    1    4    4    0    0 -0.38864607135E+01  0.28859702773E+02 -0.25403204460E+02  0.38643367062E+02  0.00000000000E+00 0. -1.
         13    1    4    4    0    0  0.26624682957E+02 -0.41453946230E+02  0.27259890046E+02  0.56306349606E+02  0.00000000000E+00 0.  1.
         21    1    1    2  502  501 -0.20763291701E+02 -0.21008292112E+01  0.11592456347E+02  0.23872846705E+02  0.00000000000E+00 0. -1.
<scales pt_clust_5="13000.00000" pt_clust_6="13000.00000" pt_clust_7="13000.00000" pt_clust_8="13000.00000" pt_clust_9="20.86930"></scales>
<clustering>
<clus scale="   20.869">  2  9  1 -1</clus>
<clus scale="   83.905">  5  6 -1 -1</clus>
<clus scale="   85.346">  1  5  2 -1</clus>
<clus scale="   91.304">  7  8 -1 -1</clus>
<clus scale="   20.869">  2  5  1 -1</clus>
</clustering>
</event>
<event>
 9    1  0.1748361E-005  0.1178377E+03  0.7546771E-02  0.1247961E+00
          2   -1    0    0  502    0  0.00000000000E+00  0.00000000000E+00  0.44477089587E+03  0.44477089587E+03  0.00000000000E+00 0. -1.
         -2   -1    0    0    0  501 -0.00000000000E+00 -0.00000000000E+00 -0.57916300063E+02  0.57916300063E+02  0.00000000000E+00 0.  1.
         23    2    1    2    0    0 -0.99976062947E+02  0.17095365445E+02  0.14146119424E+03  0.19695872982E+03  0.92162937748E+02 0.  0.
         23    2    1    2    0    0  0.62097307325E+02  0.77245261949E+01  0.23573926743E+03  0.25942480044E+03  0.88388240134E+02 0.  0.
        -11    1    4    4    0    0  0.73039244966E+02 -0.22146236899E+02  0.15977220609E+03  0.17706593391E+03  0.00000000000E+00 0.  1.
         11    1    4    4    0    0 -0.10941937641E+02  0.29870763094E+02  0.75967061343E+02  0.82358866530E+02  0.00000000000E+00 0. -1.
        -13    1    3    3    0    0  0.15303310657E+02  0.14647823247E+02  0.28794484393E+02  0.35747340802E+02  0.00000000000E+00 0.  1.
         13    1    3    3    0    0 -0.11527937360E+03  0.24475421986E+01  0.11266670985E+03  0.16121138902E+03  0.00000000000E+00 0. -1.
         21    1    1    2  502  501  0.37878755623E+02 -0.24819891640E+02  0.96541341348E+01  0.46303665670E+02  0.00000000000E+00 0.  1.
<scales pt_clust_5="13000.00000" pt_clust_6="13000.00000" pt_clust_7="13000.00000" pt_clust_8="13000.00000" pt_clust_9="45.28606"></scales>
<clustering>
<clus scale="   45.286">  2  9  1 -1</clus>
<clus scale="   88.388">  5  6 -1 -1</clus>
<clus scale="   92.163">  7  8 -1 -1</clus>
<clus scale="  114.910">  1  5  2 -1</clus>
<clus scale="  114.910">  1  5  2 -1</clus>
</clustering>
</event>
<event>
 9    1  0.1748361E-005  0.1025926E+03  0.7546771E-02  0.1274985E+00
         -1   -1    0    0    0  501 -0.00000000000E+00  0.00000000000E+00  0.99659834053E+02  0.99659834053E+02  0.00000000000E+00 0.  1.
          1   -1    0    0  502    0  0.00000000000E+00 -0.00000000000E+00 -0.25083091706E+03  0.25083091706E+03  0.00000000000E+00 0. -1.
         23    2    1    2    0    0  0.63537071434E+02 -0.17753785607E+02  0.35833163088E+02  0.11790079453E+03  0.90908885283E+02 0.  0.
         23    2    1    2    0    0 -0.37263391458E+02  0.24812960358E+02 -0.17640851971E+03  0.20339393587E+03  0.90801343490E+02 0.  0.
        -11    1    4    4    0    0 -0.14932781547E+02  0.46751051774E+02 -0.39635344638E+02  0.63084145007E+02  0.00000000000E+00 0. -1.
         11    1    4    4    0    0 -0.22330609911E+02 -0.21938091416E+02 -0.13677317507E+03  0.14030979087E+03  0.00000000000E+00 0.  1.
        -11    1    3    3    0    0  0.82236909116E+02  0.53067457432E+01  0.23008192900E+02  0.85559614959E+02  0.00000000000E+00 0. -1.
         11    1    3    3    0    0 -0.18699837683E+02 -0.23060531351E+02  0.12824970187E+02  0.32341179568E+02  0.00000000000E+00 0.  1.
         21    1    1    2  502  501 -0.26273679976E+02 -0.70591747506E+01 -0.10595726382E+02  0.29196020708E+02  0.00000000000E+00 0.  1.
<scales pt_clust_5="13000.00000" pt_clust_6="13000.00000" pt_clust_7="13000.00000" pt_clust_8="13000.00000" pt_clust_9="27.20548"></scales>
<clustering>
<clus scale="   27.205">  1  9  2 -1</clus>
<clus scale="   90.801">  5  6 -1 -1</clus>
<clus scale="   90.909">  7  8 -1 -1</clus>
<clus scale="  102.497">  2  5  1 -1</clus>
<clus scale="  102.497">  2  5  1 -1</clus>
</clustering>
</event>
<event>
 9    1  0.1748361E-005  0.1191208E+03  0.7546771E-02  0.1244768E+00
          1   -1    0    0  502    0  0.00000000000E+00  0.00000000000E+00  0.94599953994E+03  0.94599953994E+03  0.00000000000E+00 0. -1.
         -1   -1    0    0    0  501 -0.00000000000E+00 -0.00000000000E+00 -0.21891283660E+02  0.21891283660E+02  0.00000000000E+00 0.  1.
         23    2    1    2    0    0  0.29869328682E+02 -0.42591056521E+02  0.29421155074E+03  0.31270409332E+03  0.92288886098E+02 0.  0.
         23    2    1    2    0    0 -0.54645651627E+02  0.80350770948E+02  0.50547271848E+03  0.52281985086E+03  0.91627144950E+02 0.  0.
        -13    1    3    3    0    0  0.21954460988E+02 -0.71711633657E+02  0.19187963052E+03  0.20601541051E+03  0.00000000000E+00 0.  1.
         13    1    3    3    0    0  0.79148676943E+01  0.29120577136E+02  0.10233192023E+03  0.10668868281E+03  0.00000000000E+00 0. -1.
        -13    1    4    4    0    0 -0.65784140179E+02  0.56084991332E+02  0.47273793659E+03  0.48057698243E+03  0.00000000000E+00 0. -1.
         13    1    4    4    0    0  0.11138488552E+02  0.24265779616E+02  0.32734781888E+02  0.42242868426E+02  0.00000000000E+00 0.  1.
         21    1    1    2  502  501  0.24776322945E+02 -0.37759714427E+02  0.12442398706E+03  0.13236687943E+03  0.00000000000E+00 0.  1.
<scales pt_clust_5="13000.00000" pt_clust_6="13000.00000" pt_clust_7="13000.00000" pt_clust_8="13000.00000" pt_clust_9="45.16262"></scales>
<clustering>
<clus scale="   45.163">  2  9  1 -1</clus>
<clus scale="   91.627">  7  8 -1 -1</clus>
<clus scale="   92.289">  5  6 -1 -1</clus>
<clus scale="  118.609">  1  7  2 -1</clus>
<clus scale="  118.609">  1  5  2 -1</clus>
</clustering>
</event>
<event>
 9    1  0.1748361E-005  0.1442777E+03  0.7546771E-02  0.1208118E+00
          2   -1    0    0  502    0  0.00000000000E+00  0.00000000000E+00  0.12656358034E+03  0.12656358034E+03  0.00000000000E+00 0. -1.
         -2   -1    0    0    0  501 -0.00000000000E+00 -0.00000000000E+00 -0.24833457869E+03  0.24833457869E+03  0.00000000000E+00 0.  1.
         23    2    1    2    0    0  0.12042789357E+03 -0.73223407455E+02 -0.49153974417E+02  0.17544187131E+03  0.92191062785E+02 0.  0.
         23    2    1    2    0    0 -0.61814324670E+02  0.63175318374E+02 -0.46503407890E+02  0.13450680353E+03  0.90096513055E+02 0.  0.
        -11    1    3    3    0    0  0.10434378714E+03 -0.17791291727E+02 -0.51421494743E+02  0.11767891101E+03  0.00000000000E+00 0. -1.
         11    1    3    3    0    0  0.16084106437E+02 -0.55432115728E+02  0.22675203251E+01  0.57762960298E+02  0.00000000000E+00 0.  1.
        -13    1    4    4    0    0 -0.48452043301E+02  0.28287775786E+02 -0.70503553320E+02  0.90102995453E+02  0.00000000000E+00 0.  1.
         13    1    4    4    0    0 -0.13362281369E+02  0.34887542587E+02  0.24000145429E+02  0.44403808078E+02  0.00000000000E+00 0. -1.
         21    1    1    2  502  501 -0.58613568902E+02  0.10048089081E+02 -0.26113616048E+02  0.64949484192E+02  0.00000000000E+00 0. -1.
<scales pt_clust_5="13000.00000" pt_clust_6="13000.00000" pt_clust_7="13000.00000" pt_clust_8="13000.00000" pt_clust_9="59.46860"></scales>
<clustering>
<clus scale="   59.469">  2  9  1 -1</clus>
<clus scale="   90.097">  7  8 -1 -1</clus>
<clus scale="   92.191">  5  6 -1 -1</clus>
<clus scale="  142.948">  1  7  2 -1</clus>
<clus scale="  142.948">  1  5  2 -1</clus>
</clustering>
</event>
<event>
 9    1  0.1748361E-005  0.1054052E+03  0.7546771E-02  0.1272007E+00
         -1   -1    0    0    0  501 -0.00000000000E+00  0.00000000000E+00  0.22588378742E+03  0.22588378742E+03  0.00000000000E+00 0.  1.
          1   -1    0    0  502    0  0.00000000000E+00 -0.00000000000E+00 -0.21816688871E+03  0.21816688871E+03  0.00000000000E+00 0. -1.
         23    2    1    2    0    0  0.14649079259E+02  0.45226759513E+02 -0.66430782435E+02  0.12422658252E+03  0.93590275409E+02 0.  0.
         23    2    1    2    0    0 -0.34766881925E+01 -0.26435555694E+02 -0.10053656234E+03  0.14377717775E+03  0.99264044383E+02 0.  0.
        -11    1    3    3    0    0  0.33152846965E+02 -0.13749814373E+02 -0.35718435966E+01  0.36068361813E+02  0.00000000000E+00 0. -1.
         11    1    3    3    0    0 -0.18503767706E+02  0.58976573886E+02 -0.62858938838E+02  0.88158220709E+02  0.00000000000E+00 0.  1.
        -13    1    4    4    0    0  0.31403410819E+02  0.21183752524E+02 -0.17073190624E+02  0.41550203611E+02  0.00000000000E+00 0. -1.
         13    1    4    4    0    0 -0.34880099011E+02 -0.47619308218E+02 -0.83463371718E+02  0.10222697413E+03  0.00000000000E+00 0.  1.
         21    1    1    2  502  501 -0.11172391067E+02 -0.18791203818E+02  0.17468424348E+03  0.17604691586E+03  0.00000000000E+00 0.  1.
<scales pt_clust_5="13000.00000" pt_clust_6="13000.00000" pt_clust_7="13000.00000" pt_clust_8="13000.00000" pt_clust_9="21.86165"></scales>
<clustering>
<clus scale="   21.862">  1  9  2 -1</clus>
<clus scale="   93.590">  5  6 -1 -1</clus>
<clus scale="   99.264">  7  8 -1 -1</clus>
<clus scale="  100.080">  1  5  2 -1</clus>
<clus scale="  105.405">  2  5  1 -1</clus>
</clustering>
</event>
<event>
 9    1  0.1748361E-005  0.1205312E+03  0.7546771E-02  0.1242251E+00
         -3   -1    0    0    0  501 -0.00000000000E+00  0.00000000000E+00  0.24716510529E+03  0.24716510529E+03  0.00000000000E+00 0.  1.
          3   -1    0    0  502    0  0.00000000000E+00 -0.00000000000E+00 -0.10389589702E+03  0.10389589702E+03  0.00000000000E+00 0. -1.
         23    2    1    2    0    0 -0.46521507777E+02 -0.37826559173E+02  0.10823952144E+03  0.15404511760E+03  0.91755136049E+02 0.  0.
         23    2    1    2    0    0  0.36745011208E+02  0.79721591436E+02 -0.18586272151E+02  0.12827401486E+03  0.91668126339E+02 0.  0.
        -11    1    4    4    0    0 -0.27018051248E+02  0.10691981630E+02  0.88565395495E+01  0.30376501728E+02  0.00000000000E+00 0.  1.
         11    1    4    4    0    0  0.63763062456E+02  0.69029609806E+02 -0.27442811701E+02  0.97897513134E+02  0.00000000000E+00 0. -1.
        -11    1    3    3    0    0 -0.39431647400E+02 -0.60657098360E+02  0.10817584850E+03  0.13013897417E+03  0.00000000000E+00 0.  1.
         11    1    3    3    0    0 -0.70898603766E+01  0.22830539186E+02  0.63672935623E-01  0.23906143435E+02  0.00000000000E+00 0. -1.
         21    1    1    2  502  501  0.97764965691E+01 -0.41895032262E+02  0.53615958976E+02  0.68741869849E+02  0.00000000000E+00 0. -1.
<scales pt_clust_5="13000.00000" pt_clust_6="13000.00000" pt_clust_7="13000.00000" pt_clust_8="13000.00000" pt_clust_9="43.02062"></scales>
<clustering>
<clus scale="   43.021">  1  9  2 -1</clus>
<clus scale="   91.668">  5  6 -1 -1</clus>
<clus scale="   91.755">  7  8 -1 -1</clus>
<clus scale="  120.465">  2  5  1 -1</clus>
<clus scale="  120.465">  2  5  1 -1</clus>
</clustering>
</event>
<event>
 9    1  0.1748361E-005  0.1395651E+03  0.7546771E-02  0.1214492E+00
         -1   -1    0    0    0  501 -0.00000000000E+00  0.00000000000E+00  0.51983585139E+03  0.51983585139E+03  0.00000000000E+00 0.  1.
          1   -1    0    0  502    0  0.00000000000E+00 -0.00000000000E+00 -0.44343293660E+02  0.44343293660E+02  0.00000000000E+00 0. -1.
         23    2    1    2    0    0 -0.48459837302E+02 -0.83086325802E+02  0.26685849818E+03  0.29844148364E+03  0.92747871878E+02 0.  0.
         23    2    1    2    0    0  0.68893181401E+02  0.86173696053E+02  0.16911519071E+03  0.22114176025E+03  0.90175129960E+02 0.  0.
        -13    1    4    4    0    0  0.48386733229E+02  0.10411985110E+03  0.14311220036E+03  0.18347566933E+03  0.00000000000E+00 0.  1.
         13    1    4    4    0    0  0.20506448172E+02 -0.17946155051E+02  0.26002990355E+02  0.37666090919E+02  0.00000000000E+00 0. -1.
        -13    1    3    3    0    0 -0.40375475229E+02 -0.10282470343E+03  0.23951749087E+03  0.26376452959E+03  0.00000000000E+00 0. -1.
         13    1    3    3    0    0 -0.80843620731E+01  0.19738377628E+02  0.27341007312E+02  0.34676954052E+02  0.00000000000E+00 0.  1.
         21    1    1    2  502  501 -0.20433344098E+02 -0.30873702516E+01  0.39518868839E+02  0.44595901161E+02  0.00000000000E+00 0. -1.
<scales pt_clust_5="13000.00000" pt_clust_6="13000.00000" pt_clust_7="13000.00000" pt_clust_8="13000.00000" pt_clust_9="20.66527"></scales>
<clustering>
<clus scale="   20.665">  1  9  2 -1</clus>
<clus scale="   90.175">  5  6 -1 -1</clus>
<clus scale="   92.748">  7  8 -1 -1</clus>
<clus scale="  137.869">  2  5  1 -1</clus>
<clus scale="  137.869">  2  5  1 -1</clus>
</clustering>
</event>
<event>
 9    1  0.1748361E-005  0.1349472E+03  0.7546771E-02  0.1220475E+00
          1   -1    0    0  502    0  0.00000000000E+00  0.00000000000E+00  0.41849564432E+03  0.41849564432E+03  0.00000000000E+00 0. -1.
         -1   -1    0    0    0  501 -0.00000000000E+00 -0.00000000000E+00 -0.79316228533E+02  0.79316228533E+02  0.00000000000E+00 0.  1.
         23    2    1    2    0    0  0.34121360735E+02  0.65454106213E+02  0.39687440632E+02  0.12480825650E+03  0.92485137550E+02 0.  0.
         23    2    1    2    0    0 -0.54000645432E+02 -0.92540271010E+02  0.30763714323E+03  0.33843209561E+03  0.91738214364E+02 0.  0.
        -11    1    4    4    0    0 -0.71482881955E+02 -0.63237059689E+02  0.27548395474E+03  0.29154783046E+03  0.00000000000E+00 0. -1.
         11    1    4    4    0    0  0.17482236523E+02 -0.29303211322E+02  0.32153188498E+02  0.46884265145E+02  0.00000000000E+00 0.  1.
        -13    1    3    3    0    0  0.58659002139E+02  0.23384919459E+02  0.42347840477E+02  0.76033364934E+02  0.00000000000E+00 0.  1.
         13    1    3    3    0    0 -0.24537641404E+02  0.42069186753E+02 -0.26603998451E+01  0.48774891564E+02  0.00000000000E+00 0. -1.
         21    1    1    2  502  501  0.19879284697E+02  0.27086164798E+02 -0.81451680806E+01  0.34571520744E+02  0.00000000000E+00 0.  1.
<scales pt_clust_5="13000.00000" pt_clust_6="13000.00000" pt_clust_7="13000.00000" pt_clust_8="13000.00000" pt_clust_9="33.59831"></scales>
<clustering>
<clus scale="   33.598">  2  9  1 -1</clus>
<clus scale="   91.738">  5  6 -1 -1</clus>
<clus scale="   92.485">  7  8 -1 -1</clus>
<clus scale="  134.436">  1  5  2 -1</clus>
<clus scale="  134.436">  1  5  2 -1</clus>
</clustering>
</event>
<event>
 9    1  0.1748361E-005  0.1101007E+03  0.7546771E-02  0.1262902E+00
         -2   -1    0    0    0  501 -0.00000000000E+00  0.00000000000E+00  0.50100881292E+03  0.50100881292E+03  0.00000000000E+00 0.  1.
          2   -1    0    0  502    0  0.00000000000E+00 -0.00000000000E+00 -0.37728832367E+02  0.37728832367E+02  0.00000000000E+00 0. -1.
         23    2    1    2    0    0  0.59444531145E+02  0.32985979522E+02  0.16048276606E+03  0.19596030810E+03  0.89576766088E+02 0.  0.
         23    2    1    2    0    0 -0.15193692970E+02 -0.46287196285E+02  0.16016296828E+03  0.19284539516E+03  0.95727828653E+02 0.  0.
        -13    1    4    4    0    0  0.38563888952E+02 -0.34632773638E+02  0.67791015132E+02  0.85335949480E+02  0.00000000000E+00 0. -1.
         13    1    4    4    0    0 -0.53757581922E+02 -0.11654422647E+02  0.92371953150E+02  0.10750944568E+03  0.00000000000E+00 0.  1.
        -13    1    3    3    0    0  0.48587834814E+02 -0.12487484871E+02  0.13200990612E+03  0.14122085641E+03  0.00000000000E+00 0.  1.
         13    1    3    3    0    0  0.10856696331E+02  0.45473464393E+02  0.28472859937E+02  0.54739451698E+02  0.00000000000E+00 0. -1.
         21    1    1    2  502  501 -0.44250838176E+02  0.13301216763E+02  0.14263424621E+03  0.14993194202E+03  0.00000000000E+00 0.  1.
<scales pt_clust_5="13000.00000" pt_clust_6="13000.00000" pt_clust_7="13000.00000" pt_clust_8="13000.00000" pt_clust_9="46.20670"></scales>
<clustering>
<clus scale="   46.207">  1  9  2 -1</clus>
<clus scale="   89.577">  7  8 -1 -1</clus>
<clus scale="   95.728">  5  6 -1 -1</clus>
<clus scale="  104.797">  1  7  2 -1</clus>
<clus scale="  110.101">  2  5  1 -1</clus>
</clustering>
</event>
<event>
 9    1  0.1748361E-005  0.2861573E+03  0.7546771E-02  0.1115620E+00
         -2   -1    0    0    0  501 -0.00000000000E+00  0.00000000000E+00  0.20151446197E+03  0.20151446197E+03  0.00000000000E+00 0.  1.
          2   -1    0    0  502    0  0.00000000000E+00 -0.00000000000E+00 -0.77190267047E+03  0.77190267047E+03  0.00000000000E+00 0. -1.
         23    2    1    2    0    0 -0.25573728117E+03 -0.11413578005E+02 -0.31150606892E+03  0.41340946453E+03  0.91321014285E+02 0.  0.
         23    2    1    2    0    0  0.52198327432E+01 -0.12849318656E+03 -0.22005529743E+03  0.27045556827E+03  0.90466208258E+02 0.  0.
        -11    1    4    4    0    0  0.46049206444E+02 -0.88168258621E+02 -0.13039353593E+03  0.16400196784E+03  0.00000000000E+00 0. -1.
         11    1    4    4    0    0 -0.40829373701E+02 -0.40324927934E+02 -0.89661761503E+02  0.10645360043E+03  0.00000000000E+00 0.  1.
        -13    1    3    3    0    0 -0.55709728267E+02 -0.31640890599E+02 -0.39854103023E+02  0.75452430771E+02  0.00000000000E+00 0.  1.
         13    1    3    3    0    0 -0.20002755290E+03  0.20227312593E+02 -0.27165196589E+03  0.33795703376E+03  0.00000000000E+00 0. -1.
         21    1    1    2  502  501  0.25051744842E+03  0.13990676456E+03 -0.38826842153E+02  0.28955209964E+03  0.00000000000E+00 0.  1.
<scales pt_clust_5="13000.00000" pt_clust_6="13000.00000" pt_clust_7="13000.00000" pt_clust_8="13000.00000" pt_clust_9="271.19454"></scales>
<clustering>
<clus scale="   90.466">  5  6 -1 -1</clus>
<clus scale="   91.321">  7  8 -1 -1</clus>
<clus scale="  157.232">  2  5  1 -1</clus>
<clus scale="  271.195">  1  9  2 -1</clus>
<clus scale="  157.232">  2  5  1 -1</clus>
</clustering>
</event>
<event>
 9    1  0.1748361E-005  0.1154136E+03  0.7546771E-02  0.1254006E+00
         -2   -1    0    0    0  501 -0.00000000000E+00  0.00000000000E+00  0.12941936537E+02  0.12941936537E+02  0.00000000000E+00 0.  1.
          2   -1    0    0  502    0  0.00000000000E+00 -0.00000000000E+00 -0.11861032263E+04  0.11861032263E+04  0.00000000000E+00 0. -1.
         23    2    1    2    0    0  0.17515276791E+02 -0.48388539430E+02 -0.40460753013E+03  0.41745263889E+03  0.88945020149E+02 0.  0.
         23    2    1    2    0    0 -0.33092833843E+02  0.62800157049E+02 -0.67418840539E+03  0.68487036988E+03  0.97357188735E+02 0.  0.
        -11    1    3    3    0    0  0.66427616181E+01  0.25646314620E+02 -0.77772003387E+02  0.82160478616E+02  0.00000000000E+00 0.  1.
         11    1    3    3    0    0  0.10872515173E+02 -0.74034854050E+02 -0.32683552674E+03  0.33529216027E+03  0.00000000000E+00 0. -1.
        -13    1    4    4    0    0 -0.10347956173E+02 -0.26433575521E+02 -0.16341371516E+03  0.16586095506E+03  0.00000000000E+00 0. -1.
         13    1    4    4    0    0 -0.22744877670E+02  0.89233732570E+02 -0.51077469023E+03  0.51900941482E+03  0.00000000000E+00 0.  1.
         21    1    1    2  502  501  0.15577557052E+02 -0.14411617619E+02 -0.94365354266E+02  0.96722154090E+02  0.00000000000E+00 0.  1.
<scales pt_clust_5="13000.00000" pt_clust_6="13000.00000" pt_clust_7="13000.00000" pt_clust_8="13000.00000" pt_clust_9="21.22157"></scales>
<clustering>
<clus scale="   21.222">  1  9  2 -1</clus>
<clus scale="   88.945">  5  6 -1 -1</clus>
<clus scale="   97.357">  7  8 -1 -1</clus>
<clus scale="  108.412">  1  5  2 -1</clus>
<clus scale="  115.414">  2  5  1 -1</clus>
</clustering>
</event>
<event>
 9    1  0.1748361E-005  0.9606713E+02  0.7546771E-02  0.1290694E+00
          3   -1    0    0  502    0  0.00000000000E+00  0.00000000000E+00  0.59486296362E+02  0.59486296362E+02  0.00000000000E+00 0. -1.
         -3   -1    0    0    0  501 -0.00000000000E+00 -0.00000000000E+00 -0.20898273086E+03  0.20898273086E+03  0.00000000000E+00 0.  1.
         23    2    1    2    0    0  0.63768023732E+01 -0.30602047379E+02 -0.83349452550E+02  0.12743013545E+03  0.91182011763E+02 0.  0.
         23    2    1    2    0    0  0.59474307418E+01  0.74580256984E+01 -0.37514932225E+02  0.10221458581E+03  0.94601571518E+02 0.  0.
        -13    1    3    3    0    0  0.38451264155E+02  0.14392808100E+02 -0.33005833443E+02  0.52678626419E+02  0.00000000000E+00 0.  1.
         13    1    3    3    0    0 -0.32074461782E+02 -0.44994855479E+02 -0.50343619108E+02  0.74751509035E+02  0.00000000000E+00 0. -1.
        -13    1    4    4    0    0 -0.31980196926E+01 -0.43001177219E+02 -0.11079772769E+02  0.44520668647E+02  0.00000000000E+00 0. -1.
         13    1    4    4    0    0  0.91454504344E+01  0.50459202917E+02 -0.26435159455E+02  0.57693917167E+02  0.00000000000E+00 0.  1.
         21    1    1    2  502  501 -0.12324233115E+02  0.23144021681E+02 -0.28632049720E+02  0.38824305951E+02  0.00000000000E+00 0.  1.
<scales pt_clust_5="13000.00000" pt_clust_6="13000.00000" pt_clust_7="13000.00000" pt_clust_8="13000.00000" pt_clust_9="26.22084"></scales>
<clustering>
<clus scale="   26.221">  2  9  1 -1</clus>
<clus scale="   91.182">  5  6 -1 -1</clus>
<clus scale="   92.702">  2  5  1 -1</clus>
<clus scale="   94.602">  7  8 -1 -1</clus>
<clus scale="   96.067">  1  5  2 -1</clus>
</clustering>
</event>
<event>
 9    1  0.1748361E-005  0.1233691E+03  0.7546771E-02  0.1237822E+00
         -2   -1    0    0    0  501 -0.00000000000E+00  0.00000000000E+00  0.39993028885E+02  0.39993028885E+02  0.00000000000E+00 0.  1.
          2   -1    0    0  502    0  0.00000000000E+00 -0.00000000000E+00 -0.75984948032E+03  0.75984948032E+03  0.00000000000E+00 0. -1.
         23    2    1    2    0    0 -0.48052033156E+02 -0.29418271824E+02 -0.14211898270E+03  0.17849618361E+03  0.92133868427E+02 0.  0.
         23    2    1    2    0    0  0.74319583055E+02  0.55064398143E+02 -0.56889355573E+03  0.58358493301E+03  0.91520532792E+02 0.  0.
        -13    1    4    4    0    0  0.11937218146E+02 -0.24803319354E+02 -0.15788397192E+03  0.16026556217E+03  0.00000000000E+00 0. -1.
         13    1    4    4    0    0  0.62382364909E+02  0.79867717497E+02 -0.41100958381E+03  0.42331937084E+03  0.00000000000E+00 0.  1.
        -13    1    3    3    0    0  0.33455503077E+00  0.29495808952E+02 -0.24573206241E+02  0.38392149429E+02  0.00000000000E+00 0.  1.
         13    1    3    3    0    0 -0.48386588187E+02 -0.58914080775E+02 -0.11754577646E+03  0.14010403418E+03  0.00000000000E+00 0. -1.
         21    1    1    2  502  501 -0.26267549899E+02 -0.25646126319E+02 -0.88439130115E+01  0.37761392589E+02  0.00000000000E+00 0. -1.
<scales pt_clust_5="13000.00000" pt_clust_6="13000.00000" pt_clust_7="13000.00000" pt_clust_8="13000.00000" pt_clust_9="36.71114"></scales>
<clustering>
<clus scale="   36.711">  1  9  2 -1</clus>
<clus scale="   91.521">  5  6 -1 -1</clus>
<clus scale="   92.134">  7  8 -1 -1</clus>
<clus scale="  122.912">  2  5  1 -1</clus>
<clus scale="  122.912">  2  5  1 -1</clus>
</clustering>
</event>
<event>
 9    1  0.1748361E-005  0.9750755E+02  0.7546771E-02  0.1286500E+00
          2   -1    0    0  502    0  0.00000000000E+00  0.00000000000E+00  0.33797131281E+03  0.33797131281E+03  0.00000000000E+00 0. -1.
         -2   -1    0    0    0  501 -0.00000000000E+00 -0.00000000000E+00 -0.35662341416E+02  0.35662341416E+02  0.00000000000E+00 0.  1.
         23    2    1    2    0    0 -0.21130570606E+02 -0.16994980669E+02  0.98632747296E+02  0.13661827603E+03  0.90558291305E+02 0.  0.
         23    2    1    2    0    0  0.39787471512E+02  0.92963895316E+01  0.17384230457E+03  0.20099578615E+03  0.92242579341E+02 0.  0.
        -11    1    4    4    0    0  0.45441935010E+02 -0.28848751803E+02  0.59055513777E+02  0.79904778615E+02  0.00000000000E+00 0. -1.
         11    1    4    4    0    0 -0.56544634977E+01  0.38145141335E+02  0.11478679079E+03  0.12109100753E+03  0.00000000000E+00 0.  1.
        -13    1    3    3    0    0 -0.29574734535E+02  0.22441565216E+02  0.88093628106E+01  0.38156174406E+02  0.00000000000E+00 0.  1.
         13    1    3    3    0    0  0.84441639287E+01 -0.39436545886E+02  0.89823384486E+02  0.98462101624E+02  0.00000000000E+00 0. -1.
         21    1    1    2  502  501 -0.18656900906E+02  0.76985911379E+01  0.29833919531E+02  0.36019592051E+02  0.00000000000E+00 0.  1.
<scales pt_clust_5="13000.00000" pt_clust_6="13000.00000" pt_clust_7="13000.00000" pt_clust_8="13000.00000" pt_clust_9="20.18287"></scales>
<clustering>
<clus scale="   20.183">  1  9  2 -1</clus>
<clus scale="   90.558">  7  8 -1 -1</clus>
<clus scale="   92.243">  5  6 -1 -1</clus>
<clus scale="   95.916">  2  7  1 -1</clus>
<clus scale="   20.183">  1  5  2 -1</clus>
</clustering>
</event>
<event>
 9    1  0.1748361E-005  0.1269376E+03  0.7546771E-02  0.1233562E+00
          2   -1    0    0  502    0  0.00000000000E+00  0.00000000000E+00  0.22024302894E+03  0.22024302894E+03  0.00000000000E+00 0. -1.
         -2   -1    0    0    0  501 -0.00000000000E+00 -0.00000000000E+00 -0.11263998878E+03  0.11263998878E+03  0.00000000000E+00 0.  1.
         23    2    1    2    0    0 -0.44250934603E+02  0.85942413726E+02  0.65383044827E+01  0.13614187525E+03  0.95643175816E+02 0.  0.
         23    2    1    2    0    0  0.18785058112E+02 -0.76679021363E+02  0.11499393985E+03  0.16627240387E+03  0.90500582095E+02 0.  0.
        -11    1    4    4    0    0 -0.66075777412E+01 -0.89027859465E+02  0.71309900195E+02  0.11425726108E+03  0.00000000000E+00 0.  1.
         11    1    4    4    0    0  0.25392635853E+02  0.12348838102E+02  0.43684039654E+02  0.52015142781E+02  0.00000000000E+00 0. -1.
        -11    1    3    3    0    0  0.27193824417E+02  0.44819594157E+01 -0.45449323715E+00  0.27564444684E+02  0.00000000000E+00 0.  1.
         11    1    3    3    0    0 -0.71444759021E+02  0.81460454311E+02  0.69927977199E+01  0.10857743056E+03  0.00000000000E+00 0. -1.
         21    1    1    2  502  501  0.25465876491E+02 -0.92633923629E+01 -0.13929204169E+02  0.30468738607E+02  0.00000000000E+00 0. -1.
<scales pt_clust_5="13000.00000" pt_clust_6="13000.00000" pt_clust_7="13000.00000" pt_clust_8="13000.00000" pt_clust_9="27.09836"></scales>
<clustering>
<clus scale="   27.098">  2  9  1 -1</clus>
<clus scale="   90.501">  5  6 -1 -1</clus>
<clus scale="   95.643">  7  8 -1 -1</clus>
<clus scale="  123.109">  1  5  2 -1</clus>
<clus scale="  123.109">  1  5  2 -1</clus>
</clustering>
</event>
<event>
 9    1  0.1748361E-005  0.1228342E+03  0.7546771E-02  0.1239698E+00
         -1   -1    0    0    0  501 -0.00000000000E+00  0.00000000000E+00  0.10851112759E+03  0.10851112759E+03  0.00000000000E+00 0.  1.
          1   -1    0    0  502    0  0.00000000000E+00 -0.00000000000E+00 -0.46598681577E+03  0.46598681577E+03  0.00000000000E+00 0. -1.
         23    2    1    2    0    0 -0.96666848076E+02 -0.74317258131E+02 -0.77910519229E+02  0.17161922792E+03  0.92279878691E+02 0.  0.
         23    2    1    2    0    0  0.59375811290E+02  0.41525446680E+02 -0.31940809169E+03  0.33921253278E+03  0.88282295307E+02 0.  0.
        -11    1    4    4    0    0  0.68812478088E+02  0.80068937540E+01 -0.27013702574E+03  0.27887861188E+03  0.00000000000E+00 0.  1.
         11    1    4    4    0    0 -0.94366667978E+01  0.33518552926E+02 -0.49271065951E+02  0.60333920894E+02  0.00000000000E+00 0. -1.
        -13    1    3    3    0    0 -0.86644380342E+02 -0.19853008208E+02 -0.19254586367E+02  0.90951248897E+02  0.00000000000E+00 0.  1.
         13    1    3    3    0    0 -0.10022467733E+02 -0.54464249923E+02 -0.58655932863E+02  0.80667979020E+02  0.00000000000E+00 0. -1.
         21    1    1    2  502  501  0.37291036785E+02  0.32791811451E+02  0.39842922743E+02  0.63666182667E+02  0.00000000000E+00 0. -1.
<scales pt_clust_5="13000.00000" pt_clust_6="13000.00000" pt_clust_7="13000.00000" pt_clust_8="13000.00000" pt_clust_9="49.65807"></scales>
<clustering>
<clus scale="   49.658">  1  9  2 -1</clus>
<clus scale="   88.282">  5  6 -1 -1</clus>
<clus scale="   92.280">  7  8 -1 -1</clus>
<clus scale="  119.860">  2  5  1 -1</clus>
<clus scale="  119.860">  2  5  1 -1</clus>
</clustering>
</event>
<event>
 9    1  0.1748361E-005  0.1191311E+03  0.7546771E-02  0.1249806E+00
          1   -1    0    0  502    0  0.00000000000E+00  0.00000000000E+00  0.29385159248E+03  0.29385159248E+03  0.00000000000E+00 0. -1.
         -1   -1    0    0    0  501 -0.00000000000E+00 -0.00000000000E+00 -0.65866857316E+02  0.65866857316E+02  0.00000000000E+00 0.  1.
         23    2    1    2    0    0  0.61865158724E+01 -0.59193156147E+02  0.36237053731E+02  0.12233345575E+03  0.10054972710E+03 0.  0.
         23    2    1    2    0    0 -0.31905067802E+02  0.58582822580E+02  0.17678519618E+03  0.20762440962E+03  0.86052364456E+02 0.  0.
        -11    1    4    4    0    0  0.96461216437E+01  0.51886489636E+02  0.45245198595E+02  0.69515346978E+02  0.00000000000E+00 0.  1.
         11    1    4    4    0    0 -0.41551189446E+02  0.66963329439E+01  0.13153999758E+03  0.13810906264E+03  0.00000000000E+00 0. -1.
        -13    1    3    3    0    0  0.18847378959E+02  0.23847010450E+02  0.21046801620E+02  0.36971224749E+02  0.00000000000E+00 0.  1.
         13    1    3    3    0    0 -0.12660863087E+02 -0.83040166597E+02  0.15190252111E+02  0.85362231002E+02  0.00000000000E+00 0. -1.
         21    1    1    2  502  501  0.25718551929E+02  0.61033356689E+00  0.14962485256E+02  0.29760584427E+02  0.00000000000E+00 0.  1.
<scales pt_clust_5="13000.00000" pt_clust_6="13000.00000" pt_clust_7="13000.00000" pt_clust_8="13000.00000" pt_clust_9="25.72579"></scales>
<clustering>
<clus scale="   25.726">  2  9  1 -1</clus>
<clus scale="   86.052">  5  6 -1 -1</clus>
<clus scale="  100.550">  7  8 -1 -1</clus>
<clus scale="  107.177">  1  5  2 -1</clus>
<clus scale="  107.177">  1  5  2 -1</clus>
</clustering>
</event>
<event>
 9    1  0.1748361E-005  0.1176610E+03  0.7546771E-02  0.1248870E+00
          1   -1    0    0  502    0  0.00000000000E+00  0.00000000000E+00  0.95936957022E+02  0.95936957022E+02  0.00000000000E+00 0. -1.
         -1   -1    0    0    0  501 -0.00000000000E+00 -0.00000000000E+00 -0.18524156073E+03  0.18524156073E+03  0.00000000000E+00 0.  1.
         23    2    1    2    0    0  0.14805633314E+02 -0.59490480374E+02 -0.54390920149E+02  0.12294158669E+03  0.91640261402E+02 0.  0.
         23    2    1    2    0    0 -0.16358320265E+02  0.80723859588E+02 -0.20968990718E+01  0.11911905058E+03  0.86029152481E+02 0.  0.
        -11    1    4    4    0    0  0.28696101021E+02  0.51860893508E+01  0.88799084099E+01  0.30483020026E+02  0.00000000000E+00 0.  1.
         11    1    4    4    0    0 -0.45054421285E+02  0.75537770237E+02 -0.10976807482E+02  0.88636030553E+02  0.00000000000E+00 0. -1.
        -13    1    3    3    0    0  0.39648061224E+02 -0.23125289897E+02 -0.63120153203E+02  0.78044228051E+02  0.00000000000E+00 0.  1.
         13    1    3    3    0    0 -0.24842427910E+02 -0.36365190477E+02  0.87292330542E+01  0.44897358637E+02  0.00000000000E+00 0. -1.
         21    1    1    2  502  501  0.15526869502E+01 -0.21233379213E+02 -0.32816784491E+02  0.39117880489E+02  0.00000000000E+00 0. -1.
<scales pt_clust_5="13000.00000" pt_clust_6="13000.00000" pt_clust_7="13000.00000" pt_clust_8="13000.00000" pt_clust_9="21.29007"></scales>
<clustering>
<clus scale="   21.290">  2  9  1 -1</clus>
<clus scale="   86.029">  5  6 -1 -1</clus>
<clus scale="   91.640">  7  8 -1 -1</clus>
<clus scale="  113.345">  1  5  2 -1</clus>
<clus scale="  113.345">  1  5  2 -1</clus>
</clustering>
</event>
<event>
 9    1  0.1748361E-005  0.1071289E+03  0.7546771E-02  0.1266097E+00
          3   -1    0    0  502    0  0.00000000000E+00  0.00000000000E+00  0.12795173129E+03  0.12795173129E+03  0.00000000000E+00 0. -1.
         -3   -1    0    0    0  501 -0.00000000000E+00 -0.00000000000E+00 -0.22788549371E+03  0.22788549371E+03  0.00000000000E+00 0.  1.
         23    2    1    2    0    0  0.35241787033E+02 -0.14083957286E+02 -0.15629181546E+03  0.18524220650E+03  0.91908661635E+02 0.  0.
         23    2    1    2    0    0 -0.57775539559E+02  0.49312220286E+01  0.81474869749E+02  0.13563222332E+03  0.91627592345E+02 0.  0.
        -11    1    3    3    0    0 -0.19174800608E+02  0.24587409470E+02 -0.35652057425E+02  0.47363307332E+02  0.00000000000E+00 0. -1.
         11    1    3    3    0    0  0.54416587641E+02 -0.38671366756E+02 -0.12063975803E+03  0.13787889917E+03  0.00000000000E+00 0.  1.
        -13    1    4    4    0    0 -0.19287893575E+02 -0.38552655278E+02  0.59649174333E+02  0.73595883487E+02  0.00000000000E+00 0. -1.
         13    1    4    4    0    0 -0.38487645984E+02  0.43483877307E+02  0.21825695416E+02  0.62036339829E+02  0.00000000000E+00 0.  1.
         21    1    1    2  502  501  0.22533752526E+02  0.91527352574E+01 -0.25116816704E+02  0.34962795182E+02  0.00000000000E+00 0. -1.
<scales pt_clust_5="13000.00000" pt_clust_6="13000.00000" pt_clust_7="13000.00000" pt_clust_8="13000.00000" pt_clust_9="24.32165"></scales>
<clustering>
<clus scale="   24.322">  2  9  1 -1</clus>
<clus scale="   91.628">  7  8 -1 -1</clus>
<clus scale="   91.909">  5  6 -1 -1</clus>
<clus scale="  106.888">  1  7  2 -1</clus>
<clus scale="  106.888">  1  5  2 -1</clus>
</clustering>
</event>
<event>
 9    1  0.1748361E-005  0.1983405E+03  0.7546771E-02  0.1173605E+00
         -1   -1    0    0    0  501 -0.00000000000E+00  0.00000000000E+00  0.34423021681E+03  0.34423021681E+03  0.00000000000E+00 0.  1.
          1   -1    0    0  502    0  0.00000000000E+00 -0.00000000000E+00 -0.23797401745E+03  0.23797401745E+03  0.00000000000E+00 0. -1.
         23    2    1    2    0    0  0.16306549867E+01 -0.20861499493E+03  0.18463354321E+03  0.29316126302E+03  0.91274890936E+02 0.  0.
         23    2    1    2    0    0  0.42278473867E+00  0.70069153149E+02 -0.92439947484E+02  0.14977013214E+03  0.94742195565E+02 0.  0.
        -11    1    3    3    0    0  0.43284542027E+02 -0.11130148696E+03  0.11911822282E+03  0.16867342288E+03  0.00000000000E+00 0.  1.
         11    1    3    3    0    0 -0.41653887040E+02 -0.97313507965E+02  0.65515320396E+02  0.12448784015E+03  0.00000000000E+00 0. -1.
        -13    1    4    4    0    0  0.31409179620E+02 -0.66332823149E+01 -0.42062251861E+02  0.52912853167E+02  0.00000000000E+00 0.  1.
         13    1    4    4    0    0 -0.30986394881E+02  0.76702435464E+02 -0.50377695622E+02  0.96857278973E+02  0.00000000000E+00 0. -1.
         21    1    1    2  502  501 -0.20534397254E+01  0.13854584178E+03  0.14062603626E+02  0.13927283909E+03  0.00000000000E+00 0. -1.
<scales pt_clust_5="13000.00000" pt_clust_6="13000.00000" pt_clust_7="13000.00000" pt_clust_8="13000.00000" pt_clust_9="176.09041"></scales>
<clustering>
<clus scale="   91.275">  5  6 -1 -1</clus>
<clus scale="   94.742">  7  8 -1 -1</clus>
<clus scale="  117.839">  2  7  1 -1</clus>
<clus scale="  176.090">  2  9  1 -1</clus>
<clus scale="  117.839">  2  5  1 -1</clus>
</clustering>
</event>
<event>
 9    1  0.1748361E-005  0.1241512E+03  0.7546771E-02  0.1237103E+00
          1   -1    0    0  502    0  0.00000000000E+00  0.00000000000E+00  0.46933615850E+03  0.46933615850E+03  0.00000000000E+00 0. -1.
         -1   -1    0    0    0  501 -0.00000000000E+00 -0.00000000000E+00 -0.75984468388E+02  0.75984468388E+02  0.00000000000E+00 0.  1.
         23    2    1    2    0    0  0.76321797848E+02 -0.25141088186E+02  0.44790488574E+02  0.12964438539E+03  0.91347619867E+02 0.  0.
         23    2    1    2    0    0 -0.85192726308E+02  0.63052697829E+01  0.36743395921E+03  0.38757530896E+03  0.88934519095E+02 0.  0.
        -11    1    4    4    0    0 -0.77590507548E+02 -0.29082478587E+02  0.29757644618E+03  0.30889774804E+03  0.00000000000E+00 0. -1.
         11    1    4    4    0    0 -0.76022187605E+01  0.35387748370E+02  0.69857513032E+02  0.78677560917E+02  0.00000000000E+00 0.  1.
        -13    1    3    3    0    0  0.90691265340E+02 -0.41620980876E+02  0.37398503304E+02  0.10656387618E+03  0.00000000000E+00 0.  1.
         13    1    3    3    0    0 -0.14369467493E+02  0.16479892690E+02  0.73919852703E+01  0.23080509209E+02  0.00000000000E+00 0. -1.
         21    1    1    2  502  501  0.88709284606E+01  0.18835818403E+02 -0.18872757682E+02  0.28100932532E+02  0.00000000000E+00 0.  1.
<scales pt_clust_5="13000.00000" pt_clust_6="13000.00000" pt_clust_7="13000.00000" pt_clust_8="13000.00000" pt_clust_9="20.82022"></scales>
<clustering>
<clus scale="   20.820">  2  9  1 -1</clus>
<clus scale="   88.935">  5  6 -1 -1</clus>
<clus scale="   91.348">  7  8 -1 -1</clus>
<clus scale="  122.387">  1  5  2 -1</clus>
<clus scale="  122.387">  1  5  2 -1</clus>
</clustering>
</event>
<event>
 9    1  0.1748361E-005  0.1173931E+03  0.7546771E-02  0.1247948E+00
         -1   -1    0    0    0  501 -0.00000000000E+00  0.00000000000E+00  0.18565089059E+03  0.18565089059E+03  0.00000000000E+00 0.  1.
          1   -1    0    0  502    0  0.00000000000E+00 -0.00000000000E+00 -0.13496353033E+03  0.13496353033E+03  0.00000000000E+00 0. -1.
         23    2    1    2    0    0  0.37218516406E+02  0.30167151823E+01  0.77391266728E+02  0.12515687008E+03  0.90997337477E+02 0.  0.
         23    2    1    2    0    0 -0.80976959374E+02 -0.35233274839E+02 -0.48731594227E+02  0.13682371185E+03  0.92451653548E+02 0.  0.
        -11    1    3    3    0    0 -0.12165685328E+01  0.36111787652E+02  0.62675968363E+02  0.72345132916E+02  0.00000000000E+00 0.  1.
         11    1    3    3    0    0  0.38435084939E+02 -0.33095072470E+02  0.14715298365E+02  0.52811737161E+02  0.00000000000E+00 0. -1.
        -13    1    4    4    0    0  0.10074460362E+02  0.17357203077E+02  0.18268812329E+01  0.20152040722E+02  0.00000000000E+00 0.  1.
         13    1    4    4    0    0 -0.91051419735E+02 -0.52590477916E+02 -0.50558475460E+02  0.11667167113E+03  0.00000000000E+00 0. -1.
         21    1    1    2  502  501  0.43758442968E+02  0.32216559657E+02  0.22027687752E+02  0.58633838990E+02  0.00000000000E+00 0.  1.
<scales pt_clust_5="13000.00000" pt_clust_6="13000.00000" pt_clust_7="13000.00000" pt_clust_8="13000.00000" pt_clust_9="54.33883"></scales>
<clustering>
<clus scale="   54.339">  1  9  2 -1</clus>
<clus scale="   90.997">  5  6 -1 -1</clus>
<clus scale="   92.452">  7  8 -1 -1</clus>
<clus scale="  116.251">  1  5  2 -1</clus>
<clus scale="  117.393">  2  5  1 -1</clus>
</clustering>
</event>
<event>
 9    1  0.1748361E-005  0.1375829E+03  0.7546771E-02  0.1216722E+00
          1   -1    0    0  502    0  0.00000000000E+00  0.00000000000E+00  0.47617563930E+03  0.47617563930E+03  0.00000000000E+00 0. -1.
         -1   -1    0    0    0  501 -0.00000000000E+00 -0.00000000000E+00 -0.53420029389E+02  0.53420029389E+02  0.00000000000E+00 0.  1.
         23    2    1    2    0    0 -0.53636777995E+02  0.85642715836E+02  0.11440805944E+03  0.17787850233E+03  0.91323484370E+02 0.  0.
         23    2    1    2    0    0  0.78809113778E+02 -0.74620086826E+02  0.25229919533E+03  0.28929471084E+03  0.90870853313E+02 0.  0.
        -11    1    3    3    0    0 -0.39023041787E+01  0.84896888768E+02  0.59226898845E+02  0.10358829686E+03  0.00000000000E+00 0. -1.
         11    1    3    3    0    0 -0.49734473816E+02  0.74582706731E+00  0.55181160594E+02  0.74290205467E+02  0.00000000000E+00 0.  1.
        -11    1    4    4    0    0  0.76661501164E+02 -0.53563435773E+02  0.25126373585E+03  0.26810351054E+03  0.00000000000E+00 0. -1.
         11    1    4    4    0    0  0.21476126131E+01 -0.21056651054E+02  0.10354594796E+01  0.21191200293E+02  0.00000000000E+00 0.  1.
         21    1    1    2  502  501 -0.25172335783E+02 -0.11022629009E+02  0.56048355137E+02  0.62422455515E+02  0.00000000000E+00 0.  1.
<scales pt_clust_5="13000.00000" pt_clust_6="13000.00000" pt_clust_7="13000.00000" pt_clust_8="13000.00000" pt_clust_9="27.47990"></scales>
<clustering>
<clus scale="   27.480">  1  9  2 -1</clus>
<clus scale="   90.871">  7  8 -1 -1</clus>
<clus scale="   91.323">  5  6 -1 -1</clus>
<clus scale="  137.283">  1  7  2 -1</clus>
<clus scale="   27.480">  1  5  2 -1</clus>
</clustering>
</event>
<event>
 9    1  0.1748361E-005  0.1389838E+03  0.7546771E-02  0.1215374E+00
          2   -1    0    0  502    0  0.00000000000E+00  0.00000000000E+00  0.23387407822E+03  0.23387407822E+03  0.00000000000E+00 0. -1.
         -2   -1    0    0    0  501 -0.00000000000E+00 -0.00000000000E+00 -0.36416586037E+03  0.36416586037E+03  0.00000000000E+00 0.  1.
         23    2    1    2    0    0  0.10652533046E+03  0.61854532881E+02 -0.86710176107E+02  0.17761115351E+03  0.94092709297E+02 0.  0.
         23    2    1    2    0    0 -0.10120886459E+03  0.37852954011E+01  0.15783323597E+03  0.20852128061E+03  0.91171439361E+02 0.  0.
        -11    1    4    4    0    0 -0.89314337464E+02  0.24909980009E+02  0.66706447860E+02  0.11422481415E+03  0.00000000000E+00 0.  1.
         11    1    4    4    0    0 -0.11894527131E+02 -0.21124684608E+02  0.91126788114E+02  0.94296466463E+02  0.00000000000E+00 0. -1.
        -13    1    3    3    0    0  0.81560458751E+02  0.81452150868E+02 -0.89236179650E+02  0.14577262113E+03  0.00000000000E+00 0.  1.
         13    1    3    3    0    0  0.24964871707E+02 -0.19597617987E+02  0.25260035426E+01  0.31838532378E+02  0.00000000000E+00 0. -1.
         21    1    1    2  502  501 -0.53164658630E+01 -0.65639828282E+02 -0.20141484202E+03  0.21190750447E+03  0.00000000000E+00 0.  1.
<scales pt_clust_5="13000.00000" pt_clust_6="13000.00000" pt_clust_7="13000.00000" pt_clust_8="13000.00000" pt_clust_9="65.85478"></scales>
<clustering>
<clus scale="   65.855">  2  9  1 -1</clus>
<clus scale="   91.171">  5  6 -1 -1</clus>
<clus scale="   94.093">  7  8 -1 -1</clus>
<clus scale="  137.023">  1  5  2 -1</clus>
<clus scale="  137.023">  1  5  2 -1</clus>
</clustering>
</event>
<event>
 9    1  0.1748361E-005  0.8726486E+02  0.7546771E-02  0.1318232E+00
         -3   -1    0    0    0  501 -0.00000000000E+00  0.00000000000E+00  0.19278553454E+03  0.19278553454E+03  0.00000000000E+00 0.  1.
          3   -1    0    0  502    0  0.00000000000E+00 -0.00000000000E+00 -0.82627691676E+02  0.82627691676E+02  0.00000000000E+00 0. -1.
         23    2    1    2    0    0 -0.22017037978E+02  0.26581661992E+02  0.12027796134E+03  0.14281365444E+03  0.68830350818E+02 0.  0.
         23    2    1    2    0    0  0.21881812079E+02  0.16906221594E+02 -0.17298011693E+02  0.88523087622E+02  0.82295089799E+02 0.  0.
        -11    1    3    3    0    0 -0.39811108438E+02  0.80338424393E+01  0.10576839774E+03  0.11329792999E+03  0.00000000000E+00 0.  1.
         11    1    3    3    0    0  0.17794070460E+02  0.18547819553E+02  0.14509563598E+02  0.29515724445E+02  0.00000000000E+00 0. -1.
        -13    1    4    4    0    0 -0.16660755191E+02 -0.14796604305E+02  0.16949310961E+02  0.27996417709E+02  0.00000000000E+00 0. -1.
         13    1    4    4    0    0  0.38542567270E+02  0.31702825899E+02 -0.34247322654E+02  0.60526669912E+02  0.00000000000E+00 0.  1.
         21    1    1    2  502  501  0.13522589905E+00 -0.43487883586E+02  0.71778932177E+01  0.44076484160E+02  0.00000000000E+00 0. -1.
<scales pt_clust_5="13000.00000" pt_clust_6="13000.00000" pt_clust_7="13000.00000" pt_clust_8="13000.00000" pt_clust_9="43.48809"></scales>
<clustering>
<clus scale="   43.488">  2  9  1 -1</clus>
<clus scale="   68.830">  5  6 -1 -1</clus>
<clus scale="   74.701">  1  5  2 -1</clus>
<clus scale="   82.295">  7  8 -1 -1</clus>
<clus scale="   43.488">  2  5  1 -1</clus>
</clustering>
</event>
<event>
 9    1  0.1748361E-005  0.9567391E+02  0.7546771E-02  0.1290187E+00
          1   -1    0    0  502    0  0.00000000000E+00  0.00000000000E+00  0.13309198920E+03  0.13309198920E+03  0.00000000000E+00 0. -1.
         -1   -1    0    0    0  501 -0.00000000000E+00 -0.00000000000E+00 -0.17941790977E+03  0.17941790977E+03  0.00000000000E+00 0.  1.
         23    2    1    2    0    0  0.49229447410E+02  0.19465546811E+02 -0.10149105632E+03  0.14547573873E+03  0.89779229457E+02 0.  0.
         23    2    1    2    0    0 -0.26261890528E+02 -0.39361728389E+01  0.84394299850E+02  0.12674751035E+03  0.90759865478E+02 0.  0.
        -11    1    4    4    0    0 -0.11844901534E+02 -0.47347555863E+02  0.42415578888E+02  0.64661998662E+02  0.00000000000E+00 0.  1.
         11    1    4    4    0    0 -0.14416988994E+02  0.43411383024E+02  0.41978720961E+02  0.62085511686E+02  0.00000000000E+00 0. -1.
        -11    1    3    3    0    0  0.71022300221E+02  0.10540184270E+02 -0.98271668034E+02  0.12170695687E+03  0.00000000000E+00 0.  1.
         11    1    3    3    0    0 -0.21792852811E+02  0.89253625409E+01 -0.32193882859E+01  0.23768781859E+02  0.00000000000E+00 0. -1.
         21    1    1    2  502  501 -0.22967556882E+02 -0.15529373972E+02 -0.29229164106E+02  0.40286649891E+02  0.00000000000E+00 0.  1.
<scales pt_clust_5="13000.00000" pt_clust_6="13000.00000" pt_clust_7="13000.00000" pt_clust_8="13000.00000" pt_clust_9="27.72490"></scales>
<clustering>
<clus scale="   27.725">  2  9  1 -1</clus>
<clus scale="   89.779">  7  8 -1 -1</clus>
<clus scale="   90.760">  5  6 -1 -1</clus>
<clus scale="   94.744">  2  7  1 -1</clus>
<clus scale="   95.674">  1  5  2 -1</clus>
</clustering>
</event>
<event>
 9    1  0.1748361E-005  0.9941789E+02  0.7546771E-02  0.1283446E+00
         -1   -1    0    0    0  501 -0.00000000000E+00  0.00000000000E+00  0.84931055136E+02  0.84931055136E+02  0.00000000000E+00 0.  1.
          1   -1    0    0  502    0  0.00000000000E+00 -0.00000000000E+00 -0.43816204586E+03  0.43816204586E+03  0.00000000000E+00 0. -1.
         23    2    1    2    0    0 -0.12934651227E+02 -0.23705896080E+02 -0.13283357278E+03  0.16247964113E+03  0.89585718808E+02 0.  0.
         23    2    1    2    0    0  0.44755279903E+02  0.24855177428E+01 -0.27504962833E+03  0.29390723102E+03  0.93380669981E+02 0.  0.
        -11    1    4    4    0    0  0.22299997450E+01  0.30508058005E+02 -0.27372600678E+02  0.41048432004E+02  0.00000000000E+00 0.  1.
         11    1    4    4    0    0  0.42525280158E+02 -0.28022540263E+02 -0.24767702765E+03  0.25285879902E+03  0.00000000000E+00 0. -1.
        -13    1    3    3    0    0  0.87814151542E+01  0.31507683092E+02 -0.61847286009E+02  0.69963805876E+02  0.00000000000E+00 0.  1.
         13    1    3    3    0    0 -0.21716066381E+02 -0.55213579172E+02 -0.70986286767E+02  0.92515835256E+02  0.00000000000E+00 0. -1.
         21    1    1    2  502  501 -0.31820628676E+02  0.21220378337E+02  0.54652210383E+02  0.66706228839E+02  0.00000000000E+00 0.  1.
<scales pt_clust_5="13000.00000" pt_clust_6="13000.00000" pt_clust_7="13000.00000" pt_clust_8="13000.00000" pt_clust_9="38.24731"></scales>
<clustering>
<clus scale="   38.247">  1  9  2 -1</clus>
<clus scale="   89.586">  7  8 -1 -1</clus>
<clus scale="   93.381">  5  6 -1 -1</clus>
<clus scale="   95.862">  1  7  2 -1</clus>
<clus scale="   99.418">  2  5  1 -1</clus>
</clustering>
</event>
<event>
 9    1  0.1748361E-005  0.9208674E+02  0.7546771E-02  0.1298643E+00
         -1   -1    0    0    0  501 -0.00000000000E+00  0.00000000000E+00  0.33947249866E+03  0.33947249866E+03  0.00000000000E+00 0.  1.
          1   -1    0    0  502    0  0.00000000000E+00 -0.00000000000E+00 -0.51028117293E+02  0.51028117293E+02  0.00000000000E+00 0. -1.
         23    2    1    2    0    0  0.84293157169E+01  0.22278323547E+02  0.11323096359E+03  0.14767130530E+03  0.91750674282E+02 0.  0.
         23    2    1    2    0    0  0.13536198625E+02  0.39130548255E+01  0.34180004435E+02  0.97712475648E+02  0.90448408072E+02 0.  0.
        -11    1    3    3    0    0 -0.16319087654E+02 -0.15077800845E+02 -0.36306714493E+01  0.22512984594E+02  0.00000000000E+00 0.  1.
         11    1    3    3    0    0  0.24748403371E+02  0.37356124392E+02  0.11686163503E+03  0.12515832071E+03  0.00000000000E+00 0. -1.
        -13    1    4    4    0    0 -0.36564057395E+01 -0.36820432333E+02  0.38365975821E+02  0.53301610115E+02  0.00000000000E+00 0.  1.
         13    1    4    4    0    0  0.17192604364E+02  0.40733487159E+02 -0.41859713858E+01  0.44410865533E+02  0.00000000000E+00 0. -1.
         21    1    1    2  502  501 -0.21965514342E+02 -0.26191378372E+02  0.14103341334E+03  0.14511683500E+03  0.00000000000E+00 0.  1.
<scales pt_clust_5="13000.00000" pt_clust_6="13000.00000" pt_clust_7="13000.00000" pt_clust_8="13000.00000" pt_clust_9="34.18292"></scales>
<clustering>
<clus scale="   34.183">  1  9  2 -1</clus>
<clus scale="   90.448">  7  8 -1 -1</clus>
<clus scale="   90.789">  2  7  1 -1</clus>
<clus scale="   91.751">  5  6 -1 -1</clus>
<clus scale="   90.789">  2  5  1 -1</clus>
</clustering>
</event>
<event>
 9    1  0.1748361E-005  0.1027732E+03  0.7546771E-02  0.1278601E+00
         -2   -1    0    0    0  501 -0.00000000000E+00  0.00000000000E+00  0.28744348627E+03  0.28744348627E+03  0.00000000000E+00 0.  1.
          2   -1    0    0  502    0  0.00000000000E+00 -0.00000000000E+00 -0.95740656815E+02  0.95740656815E+02  0.00000000000E+00 0. -1.
         23    2    1    2    0    0 -0.34719309879E+02 -0.59765715982E+01  0.15156061786E+03  0.18442684662E+03  0.99002479682E+02 0.  0.
         23    2    1    2    0    0  0.19203580901E+02  0.19252226781E+02 -0.49269102282E+02  0.10704380827E+03  0.91057710791E+02 0.  0.
        -11    1    3    3    0    0 -0.50891622670E+02 -0.30501704240E+02  0.14139734858E+03  0.15334119279E+03  0.00000000000E+00 0.  1.
         11    1    3    3    0    0  0.16172312791E+02  0.24525132641E+02  0.10163269279E+02  0.31085653838E+02  0.00000000000E+00 0. -1.
        -13    1    4    4    0    0  0.19483470817E+02  0.55363942845E+02 -0.34059033059E+02  0.67858599568E+02  0.00000000000E+00 0. -1.
         13    1    4    4    0    0 -0.27988991600E+00 -0.36111716064E+02 -0.15210069223E+02  0.39185208705E+02  0.00000000000E+00 0.  1.
         21    1    1    2  502  501  0.15515728978E+02 -0.13275655183E+02  0.89411313882E+02  0.91713488192E+02  0.00000000000E+00 0.  1.
<scales pt_clust_5="13000.00000" pt_clust_6="13000.00000" pt_clust_7="13000.00000" pt_clust_8="13000.00000" pt_clust_9="20.42011"></scales>
<clustering>
<clus scale="   20.420">  1  9  2 -1</clus>
<clus scale="   91.058">  7  8 -1 -1</clus>
<clus scale="   95.144">  2  7  1 -1</clus>
<clus scale="   99.002">  5  6 -1 -1</clus>
<clus scale="   95.144">  2  5  1 -1</clus>
</clustering>
</event>
<event>
 9    1  0.1748361E-005  0.1342839E+03  0.7546771E-02  0.1221594E+00
          1   -1    0    0  502    0  0.00000000000E+00  0.00000000000E+00  0.39182560316E+03  0.39182560316E+03  0.00000000000E+00 0. -1.
         -1   -1    0    0    0  501 -0.00000000000E+00 -0.00000000000E+00 -0.82332229544E+02  0.82332229544E+02  0.00000000000E+00 0.  1.
         23    2    1    2    0    0 -0.73408672344E+02  0.10398953691E+03  0.10741537594E+03  0.19124344887E+03  0.93985832889E+02 0.  0.
         23    2    1    2    0    0  0.20938443795E+02 -0.81198158647E+02  0.18501625363E+03  0.22321786035E+03  0.92539935569E+02 0.  0.
        -11    1    4    4    0    0  0.51869550812E+02 -0.19763668650E+02  0.93512113196E+02  0.10874542848E+03  0.00000000000E+00 0.  1.
         11    1    4    4    0    0 -0.30931107016E+02 -0.61434489996E+02  0.91504140433E+02  0.11447243187E+03  0.00000000000E+00 0. -1.
        -13    1    3    3    0    0 -0.42905202848E+02  0.22693011459E+02 -0.54500771231E+01  0.48841913774E+02  0.00000000000E+00 0.  1.
         13    1    3    3    0    0 -0.30503469496E+02  0.81296525453E+02  0.11286545306E+03  0.14240153509E+03  0.00000000000E+00 0. -1.
         21    1    1    2  502  501  0.52470228549E+02 -0.22791378265E+02  0.17061744054E+02  0.59696523495E+02  0.00000000000E+00 0.  1.
<scales pt_clust_5="13000.00000" pt_clust_6="13000.00000" pt_clust_7="13000.00000" pt_clust_8="13000.00000" pt_clust_9="57.20640"></scales>
<clustering>
<clus scale="   57.206">  2  9  1 -1</clus>
<clus scale="   92.540">  5  6 -1 -1</clus>
<clus scale="   93.986">  7  8 -1 -1</clus>
<clus scale="  133.276">  1  5  2 -1</clus>
<clus scale="  133.276">  1  5  2 -1</clus>
</clustering>
</event>
<event>
 9    1  0.1748361E-005  0.9922803E+02  0.7546771E-02  0.1282530E+00
          3   -1    0    0  502    0  0.00000000000E+00  0.00000000000E+00  0.12310089626E+03  0.12310089626E+03  0.00000000000E+00 0. -1.
         -3   -1    0    0    0  501 -0.00000000000E+00 -0.00000000000E+00 -0.18010031374E+03  0.18010031374E+03  0.00000000000E+00 0.  1.
         23    2    1    2    0    0 -0.46010661755E+01 -0.59289148880E+02 -0.24185993036E+02  0.11116385072E+03  0.90752776607E+02 0.  0.
         23    2    1    2    0    0  0.15786107381E+02  0.24196854505E+02  0.44669019571E+02  0.10624631429E+03  0.91968848189E+02 0.  0.
        -11    1    4    4    0    0 -0.13396763854E+02  0.24629877151E+02  0.64924678529E+02  0.70719997259E+02  0.00000000000E+00 0. -1.
         11    1    4    4    0    0  0.29182871236E+02 -0.43302264584E+00 -0.20255658958E+02  0.35526317034E+02  0.00000000000E+00 0.  1.
        -13    1    3    3    0    0  0.29744862463E+02 -0.61366529513E+02 -0.32829565289E+02  0.75686115929E+02  0.00000000000E+00 0.  1.
         13    1    3    3    0    0 -0.34345928638E+02  0.20773806326E+01  0.86435722523E+01  0.35477734787E+02  0.00000000000E+00 0. -1.
         21    1    1    2  502  501 -0.11185041206E+02  0.35092294375E+02 -0.77482444007E+02  0.85791044991E+02  0.00000000000E+00 0. -1.
<scales pt_clust_5="13000.00000" pt_clust_6="13000.00000" pt_clust_7="13000.00000" pt_clust_8="13000.00000" pt_clust_9="36.83170"></scales>
<clustering>
<clus scale="   36.832">  2  9  1 -1</clus>
<clus scale="   90.753">  7  8 -1 -1</clus>
<clus scale="   91.969">  5  6 -1 -1</clus>
<clus scale="   98.102">  2  7  1 -1</clus>
<clus scale="   99.228">  1  5  2 -1</clus>
</clustering>
</event>
<event>
 9    1  0.1748361E-005  0.1281614E+03  0.7546771E-02  0.1231520E+00
         -1   -1    0    0    0  501 -0.00000000000E+00  0.00000000000E+00  0.65969920280E+02  0.65969920280E+02  0.00000000000E+00 0.  1.
          1   -1    0    0  502    0  0.00000000000E+00 -0.00000000000E+00 -0.68008640708E+03  0.68008640708E+03  0.00000000000E+00 0. -1.
         23    2    1    2    0    0 -0.54417246612E+02  0.11026852265E+03 -0.12171588267E+03  0.19538393019E+03  0.90773015079E+02 0.  0.
         23    2    1    2    0    0  0.16798442803E+02 -0.82968178041E+02 -0.48946246608E+03  0.50409862912E+03  0.85883734951E+02 0.  0.
        -11    1    4    4    0    0 -0.26492262471E+02 -0.25189230864E+01 -0.72098281887E+02  0.76852763096E+02  0.00000000000E+00 0.  1.
         11    1    4    4    0    0  0.43290705275E+02 -0.80449254955E+02 -0.41736418419E+03  0.42724586602E+03  0.00000000000E+00 0. -1.
        -11    1    3    3    0    0 -0.47845895377E+01  0.90939920808E+02 -0.43925495161E+02  0.10110593760E+03  0.00000000000E+00 0.  1.
         11    1    3    3    0    0 -0.49632657074E+02  0.19328601840E+02 -0.77790387507E+02  0.94277992585E+02  0.00000000000E+00 0. -1.
         21    1    1    2  502  501  0.37618803809E+02 -0.27300344606E+02 -0.29381380540E+01  0.46573768055E+02  0.00000000000E+00 0. -1.
<scales pt_clust_5="13000.00000" pt_clust_6="13000.00000" pt_clust_7="13000.00000" pt_clust_8="13000.00000" pt_clust_9="46.48100"></scales>
<clustering>
<clus scale="   46.481">  1  9  2 -1</clus>
<clus scale="   85.884">  5  6 -1 -1</clus>
<clus scale="   90.773">  7  8 -1 -1</clus>
<clus scale="  124.746">  2  5  1 -1</clus>
<clus scale="  124.746">  2  5  1 -1</clus>
</clustering>
</event>
<event>
 9    1  0.1748361E-005  0.1575273E+03  0.7546771E-02  0.1191968E+00
          2   -1    0    0  502    0  0.00000000000E+00  0.00000000000E+00  0.13400930934E+03  0.13400930934E+03  0.00000000000E+00 0. -1.
         -2   -1    0    0    0  501 -0.00000000000E+00 -0.00000000000E+00 -0.47750629478E+03  0.47750629478E+03  0.00000000000E+00 0.  1.
         23    2    1    2    0    0 -0.12126070293E+03 -0.19590650052E+02 -0.12605611253E+03  0.19949496415E+03  0.93915630061E+02 0.  0.
         23    2    1    2    0    0  0.10199113887E+03 -0.12037003793E+03 -0.42510294976E+02  0.18716286854E+03  0.91278013457E+02 0.  0.
        -13    1    4    4    0    0  0.27220823716E+02 -0.49629097750E+02 -0.60300533154E+02  0.82705349802E+02  0.00000000000E+00 0.  1.
         13    1    4    4    0    0  0.74770315156E+02 -0.70740940178E+02  0.17790238177E+02  0.10445751873E+03  0.00000000000E+00 0. -1.
        -13    1    3    3    0    0 -0.80007518468E+02  0.27595055070E+02 -0.41547744359E+02  0.94280990328E+02  0.00000000000E+00 0.  1.
         13    1    3    3    0    0 -0.41253184458E+02 -0.47185705122E+02 -0.84508368171E+02  0.10521397382E+03  0.00000000000E+00 0. -1.
         21    1    1    2  502  501  0.19269564055E+02  0.13996068798E+03 -0.17493057793E+03  0.22485777143E+03  0.00000000000E+00 0.  1.
<scales pt_clust_5="13000.00000" pt_clust_6="13000.00000" pt_clust_7="13000.00000" pt_clust_8="13000.00000" pt_clust_9="141.28096"></scales>
<clustering>
<clus scale="   91.278">  5  6 -1 -1</clus>
<clus scale="   93.916">  7  8 -1 -1</clus>
<clus scale="  141.281">  2  9  1 -1</clus>
<clus scale="  155.969">  1  5  2 -1</clus>
<clus scale="  155.969">  1  5  2 -1</clus>
</clustering>
</event>
<event>
 9    1  0.1748361E-005  0.1047376E+03  0.7546771E-02  0.1270984E+00
         -3   -1    0    0    0  501 -0.00000000000E+00  0.00000000000E+00  0.17121456249E+03  0.17121456249E+03  0.00000000000E+00 0.  1.
          3   -1    0    0  502    0  0.00000000000E+00 -0.00000000000E+00 -0.33398903964E+03  0.33398903964E+03  0.00000000000E+00 0. -1.
         23    2    1    2    0    0  0.47244315072E+02 -0.21657108231E+02  0.11900370977E+02  0.10354400576E+03  0.88761966267E+02 0.  0.
         23    2    1    2    0    0 -0.22713936775E+02  0.51892041679E+02 -0.27463935838E+03  0.29438054916E+03  0.89579147326E+02 0.  0.
        -11    1    4    4    0    0 -0.51596630646E+02  0.53329769400E+02 -0.22513422798E+03  0.23704787957E+03  0.00000000000E+00 0.  1.
         11    1    4    4    0    0  0.28882693871E+02 -0.14377277215E+01 -0.49505130396E+02  0.57332669585E+02  0.00000000000E+00 0. -1.
        -13    1    3    3    0    0 -0.41726710705E+01 -0.30978561502E+02  0.34549733200E+02  0.46591485496E+02  0.00000000000E+00 0.  1.
         13    1    3    3    0    0  0.51416986142E+02  0.93214532709E+01 -0.22649362223E+02  0.56952520262E+02  0.00000000000E+00 0. -1.
         21    1    1    2  502  501 -0.24530378297E+02 -0.30234933448E+02  0.99964510256E+02  0.10727904721E+03  0.00000000000E+00 0.  1.
<scales pt_clust_5="13000.00000" pt_clust_6="13000.00000" pt_clust_7="13000.00000" pt_clust_8="13000.00000" pt_clust_9="38.93444"></scales>
<clustering>
<clus scale="   38.934">  1  9  2 -1</clus>
<clus scale="   88.762">  7  8 -1 -1</clus>
<clus scale="   89.579">  5  6 -1 -1</clus>
<clus scale="  104.040">  1  7  2 -1</clus>
<clus scale="  104.738">  2  5  1 -1</clus>
</clustering>
</event>
<event>
 9    1  0.1748361E-005  0.1150116E+03  0.7546771E-02  0.1254279E+00
          2   -1    0    0  502    0  0.00000000000E+00  0.00000000000E+00  0.27704523636E+03  0.27704523636E+03  0.00000000000E+00 0. -1.
         -2   -1    0    0    0  501 -0.00000000000E+00 -0.00000000000E+00 -0.15705736999E+03  0.15705736999E+03  0.00000000000E+00 0.  1.
         23    2    1    2    0    0  0.97784815861E+02  0.16927225661E+02  0.30943272834E+02  0.13444025284E+03  0.85254291788E+02 0.  0.
         23    2    1    2    0    0 -0.58095869017E+02 -0.49847784962E+01  0.17369461394E+03  0.20541024213E+03  0.92863182420E+02 0.  0.
        -11    1    3    3    0    0  0.64104803994E+02  0.27888324945E+02 -0.19708478805E+02  0.72633385576E+02  0.00000000000E+00 0.  1.
         11    1    3    3    0    0  0.33680011867E+02 -0.10961099284E+02  0.50651751639E+02  0.61806867263E+02  0.00000000000E+00 0. -1.
        -11    1    4    4    0    0 -0.10524004583E+02  0.36524421917E+02  0.10709777044E+03  0.11364295184E+03  0.00000000000E+00 0.  1.
         11    1    4    4    0    0 -0.47571864434E+02 -0.41509200413E+02  0.66596843495E+02  0.91767290295E+02  0.00000000000E+00 0. -1.
         21    1    1    2  502  501 -0.39688946844E+02 -0.11942447165E+02 -0.84650020404E+02  0.94252111384E+02  0.00000000000E+00 0.  1.
<scales pt_clust_5="13000.00000" pt_clust_6="13000.00000" pt_clust_7="13000.00000" pt_clust_8="13000.00000" pt_clust_9="41.44677"></scales>
<clustering>
<clus scale="   41.447">  2  9  1 -1</clus>
<clus scale="   85.254">  5  6 -1 -1</clus>
<clus scale="   92.863">  7  8 -1 -1</clus>
<clus scale="  108.961">  2  5  1 -1</clus>
<clus scale="  115.012">  1  5  2 -1</clus>
</clustering>
</event>
<event>
 9    1  0.1748361E-005  0.3416836E+03  0.7546771E-02  0.1097856E+00
          1   -1    0    0  502    0  0.00000000000E+00  0.00000000000E+00  0.67034528455E+03  0.67034528455E+03  0.00000000000E+00 0. -1.
         -1   -1    0    0    0  501 -0.00000000000E+00 -0.00000000000E+00 -0.48517090964E+03  0.48517090964E+03  0.00000000000E+00 0.  1.
         23    2    1    2    0    0  0.28132564513E+03  0.19015105807E+03 -0.32611513757E+03  0.47946739082E+03  0.90754352012E+02 0.  0.
         23    2    1    2    0    0  0.29351651430E+01 -0.11366340312E+03  0.20262223190E+03  0.24951620236E+03  0.90964729311E+02 0.  0.
        -13    1    4    4    0    0 -0.34739399579E+02 -0.44616377557E+02  0.13281058198E+03  0.14434714308E+03  0.00000000000E+00 0.  1.
         13    1    4    4    0    0  0.37674564722E+02 -0.69047025560E+02  0.69811649918E+02  0.10516905928E+03  0.00000000000E+00 0. -1.
        -13    1    3    3    0    0  0.66758824260E+02  0.90545253498E+02 -0.79595436163E+02  0.13780644762E+03  0.00000000000E+00 0.  1.
         13    1    3    3    0    0  0.21456682087E+03  0.99605804571E+02 -0.24651970141E+03  0.34166094320E+03  0.00000000000E+00 0. -1.
         21    1    1    2  502  501 -0.28426081028E+03 -0.76487654951E+02  0.30866728058E+03  0.42653260101E+03  0.00000000000E+00 0. -1.
<scales pt_clust_5="13000.00000" pt_clust_6="13000.00000" pt_clust_7="13000.00000" pt_clust_8="13000.00000" pt_clust_9="329.41059"></scales>
<clustering>
<clus scale="   90.754">  7  8 -1 -1</clus>
<clus scale="   90.965">  5  6 -1 -1</clus>
<clus scale="  145.611">  1  5  2 -1</clus>
<clus scale="  329.411">  1  9  2 -1</clus>
<clus scale="  145.611">  1  5  2 -1</clus>
</clustering>
</event>
<event>
 9    1  0.1748361E-005  0.9868699E+02  0.7546771E-02  0.1284153E+00
         -1   -1    0    0    0  501 -0.00000000000E+00  0.00000000000E+00  0.99951469305E+02  0.99951469305E+02  0.00000000000E+00 0.  1.
          1   -1    0    0  502    0  0.00000000000E+00 -0.00000000000E+00 -0.24858924858E+03  0.24858924858E+03  0.00000000000E+00 0. -1.
         23    2    1    2    0    0 -0.34201095547E+02 -0.28399130039E+02  0.41803967906E+02  0.11124534090E+03  0.93014668818E+02 0.  0.
         23    2    1    2    0    0  0.21312719201E+02  0.10660056076E+02 -0.19173078786E+03  0.21533070954E+03  0.95072344358E+02 0.  0.
        -11    1    4    4    0    0  0.41311920719E+02  0.24652675238E+02 -0.18329902190E+03  0.18950715189E+03  0.00000000000E+00 0.  1.
         11    1    4    4    0    0 -0.19999201518E+02 -0.13992619161E+02 -0.84317659661E+01  0.25823557649E+02  0.00000000000E+00 0. -1.
        -11    1    3    3    0    0 -0.33062432854E+02 -0.12741548329E+01  0.66670708489E+02  0.74429371267E+02  0.00000000000E+00 0.  1.
         11    1    3    3    0    0 -0.11386626928E+01 -0.27124975206E+02 -0.24866740583E+02  0.36815969631E+02  0.00000000000E+00 0. -1.
         21    1    1    2  502  501  0.12888376346E+02  0.17739073962E+02  0.12890406887E+01  0.21964667440E+02  0.00000000000E+00 0.  1.
<scales pt_clust_5="13000.00000" pt_clust_6="13000.00000" pt_clust_7="13000.00000" pt_clust_8="13000.00000" pt_clust_9="21.92681"></scales>
<clustering>
<clus scale="   21.927">  1  9  2 -1</clus>
<clus scale="   93.015">  7  8 -1 -1</clus>
<clus scale="   95.072">  5  6 -1 -1</clus>
<clus scale="   96.706">  1  7  2 -1</clus>
<clus scale="   98.687">  2  5  1 -1</clus>
</clustering>
</event>
<event>
 9    1  0.1748361E-005  0.1020697E+03  0.7546771E-02  0.1276614E+00
          2   -1    0    0  502    0  0.00000000000E+00  0.00000000000E+00  0.39172357574E+03  0.39172357574E+03  0.00000000000E+00 0. -1.
         -2   -1    0    0    0  501 -0.00000000000E+00 -0.00000000000E+00 -0.88109033644E+02  0.88109033644E+02  0.00000000000E+00 0.  1.
         23    2    1    2    0    0 -0.33843819096E+02 -0.24192222902E+01  0.10470377014E+03  0.14199984920E+03  0.89720794489E+02 0.  0.
         23    2    1    2    0    0  0.49212914782E+02 -0.25129248626E+02  0.25339840505E+03  0.27487222085E+03  0.91052709995E+02 0.  0.
        -11    1    3    3    0    0 -0.57759183228E+02  0.21470307825E+02  0.60536725485E+02  0.86381667602E+02  0.00000000000E+00 0.  1.
         11    1    3    3    0    0  0.23915364131E+02 -0.23889530115E+02  0.44167044655E+02  0.55618181598E+02  0.00000000000E+00 0. -1.
        -11    1    4    4    0    0 -0.18867051642E+02 -0.14946197692E+02  0.19267866444E+02  0.30831885126E+02  0.00000000000E+00 0.  1.
         11    1    4    4    0    0  0.68079966423E+02 -0.10183050934E+02  0.23413053861E+03  0.24404033573E+03  0.00000000000E+00 0. -1.
         21    1    1    2  502  501 -0.15369095685E+02  0.27548470916E+02 -0.54487633097E+02  0.62960539328E+02  0.00000000000E+00 0.  1.
<scales pt_clust_5="13000.00000" pt_clust_6="13000.00000" pt_clust_7="13000.00000" pt_clust_8="13000.00000" pt_clust_9="31.54564"></scales>
<clustering>
<clus scale="   31.546">  2  9  1 -1</clus>
<clus scale="   89.721">  5  6 -1 -1</clus>
<clus scale="   91.053">  7  8 -1 -1</clus>
<clus scale="  100.883">  2  5  1 -1</clus>
<clus scale="  102.070">  1  5  2 -1</clus>
</clustering>
</event>
<event>
 9    1  0.1748361E-005  0.1065146E+03  0.7546771E-02  0.1267334E+00
         -2   -1    0    0    0  501 -0.00000000000E+00  0.00000000000E+00  0.62585845430E+02  0.62585845430E+02  0.00000000000E+00 0.  1.
          2   -1    0    0  502    0  0.00000000000E+00 -0.00000000000E+00 -0.50620561022E+03  0.50620561022E+03  0.00000000000E+00 0. -1.
         23    2    1    2    0    0 -0.39900135915E+01 -0.27034205427E+02 -0.38393083913E+02  0.10231456037E+03  0.90815592826E+02 0.  0.
         23    2    1    2    0    0  0.38571844233E+02  0.49590367327E+02 -0.41036064119E+03  0.42487111444E+03  0.90402524005E+02 0.  0.
        -13    1    4    4    0    0 -0.21942481859E+02  0.24209428138E+02 -0.59073470683E+02  0.67507361521E+02  0.00000000000E+00 0.  1.
         13    1    4    4    0    0  0.60514326092E+02  0.25380939189E+02 -0.35128717051E+03  0.35736375292E+03  0.00000000000E+00 0. -1.
        -13    1    3    3    0    0  0.38481083972E+02 -0.23361540883E+02 -0.39177518605E+02  0.59677746105E+02  0.00000000000E+00 0. -1.
         13    1    3    3    0    0 -0.42471097564E+02 -0.36726645444E+01  0.78443469228E+00  0.42636814268E+02  0.00000000000E+00 0.  1.
         21    1    1    2  502  501 -0.34581830641E+02 -0.22556161900E+02  0.51339603189E+01  0.41605780833E+02  0.00000000000E+00 0.  1.
<scales pt_clust_5="13000.00000" pt_clust_6="13000.00000" pt_clust_7="13000.00000" pt_clust_8="13000.00000" pt_clust_9="41.28781"></scales>
<clustering>
<clus scale="   41.288">  1  9  2 -1</clus>
<clus scale="   90.403">  5  6 -1 -1</clus>
<clus scale="   90.816">  7  8 -1 -1</clus>
<clus scale="  106.163">  2  5  1 -1</clus>
<clus scale="  106.163">  2  5  1 -1</clus>
</clustering>
</event>
<event>
 9    1  0.1748361E-005  0.1024106E+03  0.7546771E-02  0.1276208E+00
          1   -1    0    0  502    0  0.00000000000E+00  0.00000000000E+00  0.34166344578E+03  0.34166344578E+03  0.00000000000E+00 0. -1.
         -1   -1    0    0    0  501 -0.00000000000E+00 -0.00000000000E+00 -0.48700990273E+02  0.48700990273E+02  0.00000000000E+00 0.  1.
         23    2    1    2    0    0 -0.55816062751E+02  0.14275660943E+02  0.96453454322E+02  0.14593002988E+03  0.93129358501E+02 0.  0.
         23    2    1    2    0    0  0.28065164468E+02 -0.58697125702E+01  0.19052459939E+03  0.21482722143E+03  0.95021077202E+02 0.  0.
        -11    1    3    3    0    0 -0.39925492838E+02 -0.26050760159E+02  0.90353061599E+02  0.10215851812E+03  0.00000000000E+00 0. -1.
         11    1    3    3    0    0 -0.15890569913E+02  0.40326421102E+02  0.61003927230E+01  0.43771511768E+02  0.00000000000E+00 0.  1.
        -13    1    4    4    0    0 -0.25575267316E+02 -0.28360612267E+02  0.10189270435E+03  0.10881425379E+03  0.00000000000E+00 0. -1.
         13    1    4    4    0    0  0.53640431784E+02  0.22490899697E+02  0.88631895037E+02  0.10601296765E+03  0.00000000000E+00 0.  1.
         21    1    1    2  502  501  0.27750898283E+02 -0.84059483729E+01  0.59844017997E+01  0.29607184744E+02  0.00000000000E+00 0. -1.
<scales pt_clust_5="13000.00000" pt_clust_6="13000.00000" pt_clust_7="13000.00000" pt_clust_8="13000.00000" pt_clust_9="28.99607"></scales>
<clustering>
<clus scale="   28.996">  2  9  1 -1</clus>
<clus scale="   93.129">  5  6 -1 -1</clus>
<clus scale="   95.021">  7  8 -1 -1</clus>
<clus scale="  100.658">  2  5  1 -1</clus>
<clus scale="  102.411">  1  5  2 -1</clus>
</clustering>
</event>
<event>
 9    1  0.1748361E-005  0.1170504E+03  0.7546771E-02  0.1257009E+00
         -2   -1    0    0    0  501 -0.00000000000E+00  0.00000000000E+00  0.10465797968E+03  0.10465797968E+03  0.00000000000E+00 0.  1.
          2   -1    0    0  502    0  0.00000000000E+00 -0.00000000000E+00 -0.21493019749E+03  0.21493019749E+03  0.00000000000E+00 0. -1.
         23    2    1    2    0    0  0.21761336158E+01  0.58427710511E+01  0.65956582480E+01  0.11253234358E+03  0.11216573502E+03 0.  0.
         23    2    1    2    0    0 -0.15948996733E+02 -0.37927488950E+02 -0.13438220607E+03  0.16799341384E+03  0.92034476525E+02 0.  0.
        -11    1    3    3    0    0 -0.26787706338E+02 -0.45840148686E+02  0.30509633547E+01  0.53180906534E+02  0.00000000000E+00 0. -1.
         11    1    3    3    0    0  0.28963839953E+02  0.51682919737E+02  0.35446948933E+01  0.59351437045E+02  0.00000000000E+00 0.  1.
        -13    1    4    4    0    0 -0.22374630142E+02  0.27103390616E+02 -0.53500832333E+02  0.64012162260E+02  0.00000000000E+00 0.  1.
         13    1    4    4    0    0  0.64256334093E+01 -0.65030879566E+02 -0.80881373739E+02  0.10398125158E+03  0.00000000000E+00 0. -1.
         21    1    1    2  502  501  0.13772863117E+02  0.32084717899E+02  0.17514330012E+02  0.39062419752E+02  0.00000000000E+00 0.  1.
<scales pt_clust_5="13000.00000" pt_clust_6="13000.00000" pt_clust_7="13000.00000" pt_clust_8="13000.00000" pt_clust_9="34.91591"></scales>
<clustering>
<clus scale="   34.916">  1  9  2 -1</clus>
<clus scale="   92.034">  7  8 -1 -1</clus>
<clus scale="   97.929">  2  7  1 -1</clus>
<clus scale="  112.166">  5  6 -1 -1</clus>
<clus scale="   97.929">  2  5  1 -1</clus>
</clustering>
</event>
<event>
 9    1  0.1748361E-005  0.1490082E+03  0.7546771E-02  0.1202334E+00
         -2   -1    0    0    0  501 -0.00000000000E+00  0.00000000000E+00  0.23063376561E+03  0.23063376561E+03  0.00000000000E+00 0.  1.
          2   -1    0    0  502    0  0.00000000000E+00 -0.00000000000E+00 -0.14757130733E+03  0.14757130733E+03  0.00000000000E+00 0. -1.
         23    2    1    2    0    0 -0.53077834822E+02 -0.88645505759E+02  0.62919238813E+02  0.15044821058E+03  0.89445800428E+02 0.  0.
         23    2    1    2    0    0  0.60663182958E+02  0.10807936163E+03 -0.43482231319E+02  0.16079858992E+03  0.92759430259E+02 0.  0.
        -11    1    3    3    0    0  0.24871581656E+02 -0.13182626113E+02  0.13932811899E+02  0.31408604756E+02  0.00000000000E+00 0.  1.
         11    1    3    3    0    0 -0.77949416478E+02 -0.75462879646E+02  0.48986426914E+02  0.11903960583E+03  0.00000000000E+00 0. -1.
        -11    1    4    4    0    0  0.49734566975E+02  0.71605296746E+02  0.17484296766E+02  0.88918762405E+02  0.00000000000E+00 0.  1.
         11    1    4    4    0    0  0.10928615983E+02  0.36474064885E+02 -0.60966528085E+02  0.71879827513E+02  0.00000000000E+00 0. -1.
         21    1    1    2  502  501 -0.75853481363E+01 -0.19433855873E+02  0.63625450781E+02  0.66958272435E+02  0.00000000000E+00 0. -1.
<scales pt_clust_5="13000.00000" pt_clust_6="13000.00000" pt_clust_7="13000.00000" pt_clust_8="13000.00000" pt_clust_9="20.86174"></scales>
<clustering>
<clus scale="   20.862">  1  9  2 -1</clus>
<clus scale="   89.446">  5  6 -1 -1</clus>
<clus scale="   92.759">  7  8 -1 -1</clus>
<clus scale="  146.968">  1  5  2 -1</clus>
<clus scale="  149.008">  2  5  1 -1</clus>
</clustering>
</event>
<event>
 9    1  0.1748361E-005  0.1922844E+03  0.7546771E-02  0.1156733E+00
          1   -1    0    0  502    0  0.00000000000E+00  0.00000000000E+00  0.35880345565E+03  0.35880345565E+03  0.00000000000E+00 0. -1.
         -1   -1    0    0    0  501 -0.00000000000E+00 -0.00000000000E+00 -0.48362096104E+03  0.48362096104E+03  0.00000000000E+00 0.  1.
         23    2    1    2    0    0 -0.60874556974E+02  0.12762436087E+03 -0.35905456753E+03  0.39613158932E+03  0.89478290203E+02 0.  0.
         23    2    1    2    0    0  0.92496978335E+02 -0.14345783705E+03  0.30823867390E+03  0.36427505464E+03  0.92462929508E+02 0.  0.
        -11    1    4    4    0    0  0.48180362871E+02 -0.76899796280E+02  0.75058173347E+02  0.11776525557E+03  0.00000000000E+00 0.  1.
         11    1    4    4    0    0  0.44316615465E+02 -0.66558040769E+02  0.23318050055E+03  0.24650979906E+03  0.00000000000E+00 0. -1.
        -11    1    3    3    0    0 -0.83455603005E+02  0.94463544564E+02 -0.29109448397E+03  0.31721317362E+03  0.00000000000E+00 0.  1.
         11    1    3    3    0    0  0.22581046031E+02  0.33160816305E+02 -0.67960083567E+02  0.78918415697E+02  0.00000000000E+00 0. -1.
         21    1    1    2  502  501 -0.31622421362E+02  0.15833476180E+02 -0.74001611758E+02  0.82017772729E+02  0.00000000000E+00 0.  1.
<scales pt_clust_5="13000.00000" pt_clust_6="13000.00000" pt_clust_7="13000.00000" pt_clust_8="13000.00000" pt_clust_9="35.36490"></scales>
<clustering>
<clus scale="   35.365">  2  9  1 -1</clus>
<clus scale="   89.478">  7  8 -1 -1</clus>
<clus scale="   92.463">  5  6 -1 -1</clus>
<clus scale="  190.867">  2  7  1 -1</clus>
<clus scale="  192.284">  1  5  2 -1</clus>
</clustering>
</event>
<event>
 9    1  0.1748361E-005  0.9432848E+02  0.7546771E-02  0.1293185E+00
          2   -1    0    0  502    0  0.00000000000E+00  0.00000000000E+00  0.26368793480E+03  0.26368793480E+03  0.00000000000E+00 0. -1.
         -2   -1    0    0    0  501 -0.00000000000E+00 -0.00000000000E+00 -0.54756084535E+02  0.54756084535E+02  0.00000000000E+00 0.  1.
         23    2    1    2    0    0 -0.52195039657E+01 -0.15984288107E+02  0.89765315006E+02  0.13051287432E+03  0.93236569533E+02 0.  0.
         23    2    1    2    0    0 -0.30851841935E+02 -0.53631219142E+01  0.10589213060E+03  0.14396452439E+03  0.92369051811E+02 0.  0.
        -11    1    3    3    0    0  0.21794925808E+02  0.31496062142E+02  0.49806301909E+02  0.62830632906E+02  0.00000000000E+00 0.  1.
         11    1    3    3    0    0 -0.27014429774E+02 -0.47480350249E+02  0.39959013097E+02  0.67682241418E+02  0.00000000000E+00 0. -1.
        -11    1    4    4    0    0 -0.51905508304E+02 -0.25019676704E+02  0.98681121623E+02  0.11427217413E+03  0.00000000000E+00 0. -1.
         11    1    4    4    0    0  0.21053666369E+02  0.19656554790E+02  0.72110089790E+01  0.29692350266E+02  0.00000000000E+00 0.  1.
         21    1    1    2  502  501  0.36071345900E+02  0.21347410021E+02  0.13274404657E+02  0.43966620619E+02  0.00000000000E+00 0. -1.
<scales pt_clust_5="13000.00000" pt_clust_6="13000.00000" pt_clust_7="13000.00000" pt_clust_8="13000.00000" pt_clust_9="41.91484"></scales>
<clustering>
<clus scale="   41.915">  2  9  1 -1</clus>
<clus scale="   92.369">  7  8 -1 -1</clus>
<clus scale="   93.237">  5  6 -1 -1</clus>
<clus scale="   93.471">  1  7  2 -1</clus>
<clus scale="   93.471">  1  5  2 -1</clus>
</clustering>
</event>
<event>
 9    1  0.1748361E-005  0.1334264E+03  0.7546771E-02  0.1223067E+00
          2   -1    0    0  502    0  0.00000000000E+00  0.00000000000E+00  0.55237351249E+03  0.55237351249E+03  0.00000000000E+00 0. -1.
         -2   -1    0    0    0  501 -0.00000000000E+00 -0.00000000000E+00 -0.61268800816E+02  0.61268800816E+02  0.00000000000E+00 0.  1.
         23    2    1    2    0    0 -0.70005597498E+02  0.29381409140E+02  0.12421917244E+03  0.17234675889E+03  0.92243978753E+02 0.  0.
         23    2    1    2    0    0  0.10652156514E+03 -0.17677309710E+02  0.37643673702E+03  0.40177812515E+03  0.89787046686E+02 0.  0.
        -11    1    4    4    0    0  0.26280181866E+02 -0.29139169487E+02  0.41259666905E+02  0.56939435108E+02  0.00000000000E+00 0.  1.
         11    1    4    4    0    0  0.80241383274E+02  0.11461859777E+02  0.33517707011E+03  0.34483869004E+03  0.00000000000E+00 0. -1.
        -13    1    3    3    0    0 -0.33182620869E+02 -0.32805786837E+02  0.56823164079E+02  0.73526715918E+02  0.00000000000E+00 0.  1.
         13    1    3    3    0    0 -0.36822976630E+02  0.62187195977E+02  0.67396008359E+02  0.98820042977E+02  0.00000000000E+00 0. -1.
         21    1    1    2  502  501 -0.36515967642E+02 -0.11704099430E+02 -0.95511977832E+01  0.39517429261E+02  0.00000000000E+00 0. -1.
<scales pt_clust_5="13000.00000" pt_clust_6="13000.00000" pt_clust_7="13000.00000" pt_clust_8="13000.00000" pt_clust_9="38.34582"></scales>
<clustering>
<clus scale="   38.346">  2  9  1 -1</clus>
<clus scale="   89.787">  5  6 -1 -1</clus>
<clus scale="   92.244">  7  8 -1 -1</clus>
<clus scale="  131.740">  1  5  2 -1</clus>
<clus scale="  131.740">  1  5  2 -1</clus>
</clustering>
</event>
<event>
 9    1  0.1748361E-005  0.1147351E+03  0.7546771E-02  0.1252241E+00
         -2   -1    0    0    0  501 -0.00000000000E+00  0.00000000000E+00  0.14929096720E+03  0.14929096720E+03  0.00000000000E+00 0.  1.
          2   -1    0    0  502    0  0.00000000000E+00 -0.00000000000E+00 -0.25173364044E+03  0.25173364044E+03  0.00000000000E+00 0. -1.
         23    2    1    2    0    0 -0.17325099634E+02  0.56492849315E+02  0.66614934342E+02  0.12745877427E+03  0.91195331899E+02 0.  0.
         23    2    1    2    0    0  0.25337104228E+01 -0.70669876418E+02 -0.20311072270E+03  0.23382431929E+03  0.91756174162E+02 0.  0.
        -13    1    3    3    0    0  0.42800861783E+01  0.66355860470E+02  0.76827159150E+02  0.10160625837E+03  0.00000000000E+00 0.  1.
         13    1    3    3    0    0 -0.21605185812E+02 -0.98630111548E+01 -0.10212224808E+02  0.25852515904E+02  0.00000000000E+00 0. -1.
        -13    1    4    4    0    0  0.72473327730E+00 -0.92616444368E+02 -0.17613074056E+03  0.19899841401E+03  0.00000000000E+00 0. -1.
         13    1    4    4    0    0  0.18089771455E+01  0.21946567950E+02 -0.26979982132E+02  0.34825905285E+02  0.00000000000E+00 0.  1.
         21    1    1    2  502  501  0.14791389211E+02  0.14177027103E+02  0.34053115110E+02  0.39741514075E+02  0.00000000000E+00 0.  1.
<scales pt_clust_5="13000.00000" pt_clust_6="13000.00000" pt_clust_7="13000.00000" pt_clust_8="13000.00000" pt_clust_9="20.48837"></scales>
<clustering>
<clus scale="   20.488">  1  9  2 -1</clus>
<clus scale="   91.195">  5  6 -1 -1</clus>
<clus scale="   91.756">  7  8 -1 -1</clus>
<clus scale="  114.287">  1  5  2 -1</clus>
<clus scale="  114.735">  2  5  1 -1</clus>
</clustering>
</event>
<event>
 9    1  0.1748361E-005  0.1257902E+03  0.7546771E-02  0.1234245E+00
          1   -1    0    0  502    0  0.00000000000E+00  0.00000000000E+00  0.16000646197E+03  0.16000646197E+03  0.00000000000E+00 0. -1.
         -1   -1    0    0    0  501 -0.00000000000E+00 -0.00000000000E+00 -0.24395720256E+03  0.24395720256E+03  0.00000000000E+00 0.  1.
         23    2    1    2    0    0 -0.27387206133E+02 -0.91755777759E+02 -0.90943840760E+02  0.16074282937E+03  0.91642202127E+02 0.  0.
         23    2    1    2    0    0  0.73382970350E+02  0.49109477614E+02  0.78072084507E+02  0.14842347624E+03  0.90207964127E+02 0.  0.
        -13    1    3    3    0    0  0.27486847229E+02 -0.11310786229E+02 -0.36153631610E+01  0.29942135971E+02  0.00000000000E+00 0. -1.
         13    1    3    3    0    0 -0.54874053362E+02 -0.80444991530E+02 -0.87328477599E+02  0.13080069340E+03  0.00000000000E+00 0.  1.
        -13    1    4    4    0    0  0.94712436012E+02  0.38899032655E+02  0.60131945431E+02  0.11874102551E+03  0.00000000000E+00 0. -1.
         13    1    4    4    0    0 -0.21329465662E+02  0.10210444959E+02  0.17940139076E+02  0.29682450737E+02  0.00000000000E+00 0.  1.
         21    1    1    2  502  501 -0.45995764217E+02  0.42646300145E+02 -0.71078984342E+02  0.94797358914E+02  0.00000000000E+00 0. -1.
<scales pt_clust_5="13000.00000" pt_clust_6="13000.00000" pt_clust_7="13000.00000" pt_clust_8="13000.00000" pt_clust_9="62.72414"></scales>
<clustering>
<clus scale="   62.724">  2  9  1 -1</clus>
<clus scale="   90.208">  7  8 -1 -1</clus>
<clus scale="   91.642">  5  6 -1 -1</clus>
<clus scale="  124.749">  1  7  2 -1</clus>
<clus scale="  124.749">  1  5  2 -1</clus>
</clustering>
</event>
<event>
 9    1  0.1748361E-005  0.9616411E+02  0.7546771E-02  0.1288660E+00
         -1   -1    0    0    0  501 -0.00000000000E+00  0.00000000000E+00  0.16897472342E+03  0.16897472342E+03  0.00000000000E+00 0.  1.
          1   -1    0    0  502    0  0.00000000000E+00 -0.00000000000E+00 -0.17818340599E+03  0.17818340599E+03  0.00000000000E+00 0. -1.
         23    2    1    2    0    0  0.16469898677E+02 -0.26780484058E+01 -0.17885684316E+02  0.94158215566E+02  0.90925476900E+02 0.  0.
         23    2    1    2    0    0 -0.71585888532E+01  0.43999384946E+02 -0.96270028087E+02  0.13982733582E+03  0.91085532688E+02 0.  0.
        -11    1    3    3    0    0 -0.22443916874E+02  0.18420978465E+02 -0.36068690492E+02  0.46303480280E+02  0.00000000000E+00 0. -1.
         11    1    3    3    0    0  0.38913815552E+02 -0.21099026871E+02  0.18183006176E+02  0.47854735286E+02  0.00000000000E+00 0.  1.
        -13    1    4    4    0    0  0.35471767739E+01  0.64996657070E+02 -0.34408577325E+02  0.73628106637E+02  0.00000000000E+00 0. -1.
         13    1    4    4    0    0 -0.10705765627E+02 -0.20997272124E+02 -0.61861450762E+02  0.66199229185E+02  0.00000000000E+00 0.  1.
         21    1    1    2  502  501 -0.93113098241E+01 -0.41321336541E+02  0.10494702983E+03  0.11317257802E+03  0.00000000000E+00 0.  1.
<scales pt_clust_5="13000.00000" pt_clust_6="13000.00000" pt_clust_7="13000.00000" pt_clust_8="13000.00000" pt_clust_9="42.35745"></scales>
<clustering>
<clus scale="   42.357">  1  9  2 -1</clus>
<clus scale="   90.925">  5  6 -1 -1</clus>
<clus scale="   91.086">  7  8 -1 -1</clus>
<clus scale="   96.013">  1  5  2 -1</clus>
<clus scale="   96.164">  2  5  1 -1</clus>
</clustering>
</event>
<event>
 9    1  0.1748361E-005  0.9708525E+02  0.7546771E-02  0.1286901E+00
          1   -1    0    0  502    0  0.00000000000E+00  0.00000000000E+00  0.19659346293E+03  0.19659346293E+03  0.00000000000E+00 0. -1.
         -1   -1    0    0    0  501 -0.00000000000E+00 -0.00000000000E+00 -0.67293625256E+02  0.67293625256E+02  0.00000000000E+00 0.  1.
         23    2    1    2    0    0 -0.74641699652E+01  0.40253338213E+02  0.56435256444E+02  0.11538295830E+03  0.91936085551E+02 0.  0.
         23    2    1    2    0    0  0.11973981489E+02 -0.17673359274E+02  0.80179677592E+02  0.12434415299E+03  0.92611898928E+02 0.  0.
        -11    1    4    4    0    0 -0.21152774128E+02 -0.45128698896E+02  0.29707982529E+02  0.58022439998E+02  0.00000000000E+00 0.  1.
         11    1    4    4    0    0  0.33126755617E+02  0.27455339622E+02  0.50471695063E+02  0.66321712991E+02  0.00000000000E+00 0. -1.
        -13    1    3    3    0    0 -0.27859991002E+02  0.45026725856E+02 -0.23258282738E+01  0.52999949218E+02  0.00000000000E+00 0. -1.
         13    1    3    3    0    0  0.20395821037E+02 -0.47733876438E+01  0.58761084718E+02  0.62383009086E+02  0.00000000000E+00 0.  1.
         21    1    1    2  502  501 -0.45098115236E+01 -0.22579978939E+02 -0.73150963592E+01  0.24159976896E+02  0.00000000000E+00 0. -1.
<scales pt_clust_5="13000.00000" pt_clust_6="13000.00000" pt_clust_7="13000.00000" pt_clust_8="13000.00000" pt_clust_9="23.02594"></scales>
<clustering>
<clus scale="   23.026">  2  9  1 -1</clus>
<clus scale="   91.936">  7  8 -1 -1</clus>
<clus scale="   92.612">  5  6 -1 -1</clus>
<clus scale="   96.441">  2  7  1 -1</clus>
<clus scale="   97.085">  1  5  2 -1</clus>
</clustering>
</event>
<event>
 9    1  0.1748361E-005  0.9828489E+02  0.7546771E-02  0.1286241E+00
          1   -1    0    0  502    0  0.00000000000E+00  0.00000000000E+00  0.29724732461E+03  0.29724732461E+03  0.00000000000E+00 0. -1.
         -1   -1    0    0    0  501 -0.00000000000E+00 -0.00000000000E+00 -0.48731949198E+02  0.48731949198E+02  0.00000000000E+00 0.  1.
         23    2    1    2    0    0  0.15350776080E+02  0.11691841679E+02  0.51487041368E+02  0.10987855181E+03  0.95131673122E+02 0.  0.
         23    2    1    2    0    0 -0.37032341453E+01 -0.28271456710E+02  0.19334492106E+03  0.21550663550E+03  0.90817741851E+02 0.  0.
        -11    1    4    4    0    0 -0.45905540484E+02 -0.73154653117E+01  0.11561966248E+03  0.12461436928E+03  0.00000000000E+00 0.  1.
         11    1    4    4    0    0  0.42202306339E+02 -0.20955991399E+02  0.77725258586E+02  0.90892266217E+02  0.00000000000E+00 0. -1.
        -13    1    3    3    0    0 -0.19788212131E+02 -0.28497197220E+02 -0.14138288384E+01  0.34722651119E+02  0.00000000000E+00 0.  1.
         13    1    3    3    0    0  0.35138988211E+02  0.40189038899E+02  0.52900870207E+02  0.75155900692E+02  0.00000000000E+00 0. -1.
         21    1    1    2  502  501 -0.11647541935E+02  0.16579615031E+02  0.36834129850E+01  0.20594086504E+02  0.00000000000E+00 0.  1.
<scales pt_clust_5="13000.00000" pt_clust_6="13000.00000" pt_clust_7="13000.00000" pt_clust_8="13000.00000" pt_clust_9="20.26201"></scales>
<clustering>
<clus scale="   20.262">  2  9  1 -1</clus>
<clus scale="   90.818">  5  6 -1 -1</clus>
<clus scale="   94.116">  1  5  2 -1</clus>
<clus scale="   95.132">  7  8 -1 -1</clus>
<clus scale="   94.116">  1  5  2 -1</clus>
</clustering>
</event>
<event>
 9    1  0.1748361E-005  0.9745751E+02  0.7546771E-02  0.1291884E+00
         -1   -1    0    0    0  501 -0.00000000000E+00  0.00000000000E+00  0.48709966446E+02  0.48709966446E+02  0.00000000000E+00 0.  1.
          1   -1    0    0  502    0  0.00000000000E+00 -0.00000000000E+00 -0.47610241189E+03  0.47610241189E+03  0.00000000000E+00 0. -1.
         23    2    1    2    0    0 -0.31227992386E+02  0.21241182665E+02 -0.12438785359E+03  0.16109484236E+03  0.95146385973E+02 0.  0.
         23    2    1    2    0    0  0.14600124837E+02 -0.67902988719E+01 -0.32286257531E+03  0.33405858239E+03  0.84235515806E+02 0.  0.
        -11    1    3    3    0    0 -0.55372453211E+02  0.39564724865E+02 -0.10496167284E+03  0.12509368007E+03  0.00000000000E+00 0. -1.
         11    1    3    3    0    0  0.24144460825E+02 -0.18323542201E+02 -0.19426180747E+02  0.36001162283E+02  0.00000000000E+00 0.  1.
        -13    1    4    4    0    0 -0.20875472833E+02  0.26297907244E+02 -0.18214271142E+03  0.18521158877E+03  0.00000000000E+00 0.  1.
         13    1    4    4    0    0  0.35475597670E+02 -0.33088206115E+02 -0.14071986389E+03  0.14884699362E+03  0.00000000000E+00 0. -1.
         21    1    1    2  502  501  0.16627867549E+02 -0.14450883793E+02  0.19857983456E+02  0.29658953598E+02  0.00000000000E+00 0.  1.
<scales pt_clust_5="13000.00000" pt_clust_6="13000.00000" pt_clust_7="13000.00000" pt_clust_8="13000.00000" pt_clust_9="22.02984"></scales>
<clustering>
<clus scale="   22.030">  1  9  2 -1</clus>
<clus scale="   84.236">  7  8 -1 -1</clus>
<clus scale="   86.838">  2  7  1 -1</clus>
<clus scale="   95.146">  5  6 -1 -1</clus>
<clus scale="   86.838">  2  5  1 -1</clus>
</clustering>
</event>
<event>
 9    1  0.1748361E-005  0.1106861E+03  0.7546771E-02  0.1259365E+00
         -1   -1    0    0    0  501 -0.00000000000E+00  0.00000000000E+00  0.28108013378E+03  0.28108013378E+03  0.00000000000E+00 0.  1.
          1   -1    0    0  502    0  0.00000000000E+00 -0.00000000000E+00 -0.13011336811E+03  0.13011336811E+03  0.00000000000E+00 0. -1.
         23    2    1    2    0    0 -0.21062270327E+02  0.12591456106E+02  0.13467982065E+03  0.16475855462E+03  0.91676404991E+02 0.  0.
         23    2    1    2    0    0  0.68416067266E+02 -0.12861786758E+02 -0.79213638109E+02  0.13983843446E+03  0.91835741801E+02 0.  0.
        -13    1    3    3    0    0 -0.42301047983E+02  0.20534084198E+02  0.13406815023E+03  0.14207496677E+03  0.00000000000E+00 0.  1.
         13    1    3    3    0    0  0.21238777656E+02 -0.79426280929E+01  0.61167041824E+00  0.22683587857E+02  0.00000000000E+00 0. -1.
        -13    1    4    4    0    0  0.36914715958E+02  0.16990709994E+02 -0.86743680705E+02  0.95790639536E+02  0.00000000000E+00 0. -1.
         13    1    4    4    0    0  0.31501351307E+02 -0.29852496752E+02  0.75300425964E+01  0.44047794928E+02  0.00000000000E+00 0.  1.
         21    1    1    2  502  501 -0.47353796939E+02  0.27033065215E+00  0.95500583134E+02  0.10659651280E+03  0.00000000000E+00 0. -1.
<scales pt_clust_5="13000.00000" pt_clust_6="13000.00000" pt_clust_7="13000.00000" pt_clust_8="13000.00000" pt_clust_9="47.35457"></scales>
<clustering>
<clus scale="   47.355">  1  9  2 -1</clus>
<clus scale="   91.676">  5  6 -1 -1</clus>
<clus scale="   91.836">  7  8 -1 -1</clus>
<clus scale="  110.554">  1  5  2 -1</clus>
<clus scale="  110.686">  2  5  1 -1</clus>
</clustering>
</event>
<event>
 9    1  0.1748361E-005  0.9650667E+02  0.7546771E-02  0.1287884E+00
          2   -1    0    0  502    0  0.00000000000E+00  0.00000000000E+00  0.30668669010E+03  0.30668669010E+03  0.00000000000E+00 0.  1.
         -2   -1    0    0    0  501 -0.00000000000E+00 -0.00000000000E+00 -0.15972414200E+03  0.15972414200E+03  0.00000000000E+00 0. -1.
         23    2    1    2    0    0 -0.91068406305E+01  0.34425398029E+02 -0.10048047329E+03  0.13911993358E+03  0.89386731846E+02 0.  0.
         23    2    1    2    0    0  0.37786533238E+02 -0.17257944692E+01  0.26356107908E+03  0.28090576486E+03  0.89514277429E+02 0.  0.
        -11    1    3    3    0    0 -0.30716719725E+02  0.42426767395E+02 -0.21111399418E+02  0.56473344577E+02  0.00000000000E+00 0. -1.
         11    1    3    3    0    0  0.21609879095E+02 -0.80013693657E+01 -0.79369073870E+02  0.82646588999E+02  0.00000000000E+00 0.  1.
        -13    1    4    4    0    0  0.66959446702E+02  0.72580874564E-01  0.20085768950E+03  0.21172478410E+03  0.00000000000E+00 0.  1.
         13    1    4    4    0    0 -0.29172913464E+02 -0.17983753437E+01  0.62703389584E+02  0.69180980762E+02  0.00000000000E+00 0. -1.
         21    1    1    2  502  501 -0.28679692608E+02 -0.32699603560E+02 -0.16118057701E+02  0.46385133665E+02  0.00000000000E+00 0. -1.
<scales pt_clust_5="13000.00000" pt_clust_6="13000.00000" pt_clust_7="13000.00000" pt_clust_8="13000.00000" pt_clust_9="43.49470"></scales>
<clustering>
<clus scale="   43.495">  2  9  1 -1</clus>
<clus scale="   89.387">  5  6 -1 -1</clus>
<clus scale="   89.514">  7  8 -1 -1</clus>
<clus scale="   96.388">  2  5  1 -1</clus>
<clus scale="   96.507">  1  5  2 -1</clus>
</clustering>
</event>
<event>
 9    1  0.1748361E-005  0.2685558E+03  0.7546771E-02  0.1102208E+00
         -2   -1    0    0    0  501 -0.00000000000E+00  0.00000000000E+00  0.78561728594E+02  0.78561728594E+02  0.00000000000E+00 0.  1.
          2   -1    0    0  502    0  0.00000000000E+00 -0.00000000000E+00 -0.12978041347E+04  0.12978041347E+04  0.00000000000E+00 0. -1.
         23    2    1    2    0    0  0.20480271510E+03  0.11268854308E+03 -0.40877282316E+03  0.47979998634E+03  0.92032309992E+02 0.  0.
         23    2    1    2    0    0 -0.22968118424E+03 -0.13097552187E+03 -0.81834951401E+03  0.86469982703E+03  0.90010166463E+02 0.  0.
        -13    1    4    4    0    0 -0.31617277858E+02 -0.61934165864E+02 -0.20730416031E+03  0.21865614110E+03  0.00000000000E+00 0.  1.
         13    1    4    4    0    0 -0.19806390639E+03 -0.69041356007E+02 -0.61104535370E+03  0.64604368593E+03  0.00000000000E+00 0. -1.
        -13    1    3    3    0    0  0.14996056383E+03  0.10941976444E+03 -0.24719862307E+03  0.30914076858E+03  0.00000000000E+00 0.  1.
         13    1    3    3    0    0  0.54842151278E+02  0.32687786458E+01 -0.16157420010E+03  0.17065921776E+03  0.00000000000E+00 0. -1.
         21    1    1    2  502  501  0.24878469139E+02  0.18286978788E+02  0.78799311136E+01  0.31866049869E+02  0.00000000000E+00 0.  1.
<scales pt_clust_5="13000.00000" pt_clust_6="13000.00000" pt_clust_7="13000.00000" pt_clust_8="13000.00000" pt_clust_9="30.87640"></scales>
<clustering>
<clus scale="   30.876">  1  9  2 -1</clus>
<clus scale="   90.010">  5  6 -1 -1</clus>
<clus scale="   92.032">  7  8 -1 -1</clus>
<clus scale="  267.870">  2  5  1 -1</clus>
<clus scale="  267.870">  2  5  1 -1</clus>
</clustering>
</event>
<event>
 9    1  0.1748361E-005  0.9299881E+02  0.7546771E-02  0.1296299E+00
         -1   -1    0    0    0  501 -0.00000000000E+00  0.00000000000E+00  0.17128684225E+03  0.17128684225E+03  0.00000000000E+00 0.  1.
          1   -1    0    0  502    0  0.00000000000E+00 -0.00000000000E+00 -0.23302429848E+03  0.23302429848E+03  0.00000000000E+00 0. -1.
         23    2    1    2    0    0  0.13716080663E+02  0.41180089888E+02  0.42578861623E+02  0.10871216169E+03  0.90119054422E+02 0.  0.
         23    2    1    2    0    0  0.14411582755E+02 -0.11554004486E+02 -0.18395160763E+03  0.20609674574E+03  0.91085047720E+02 0.  0.
        -11    1    4    4    0    0  0.54886017852E+01  0.27601599155E+02 -0.13938093016E+02  0.31404513408E+02  0.00000000000E+00 0.  1.
         11    1    4    4    0    0  0.89229809700E+01 -0.39155603642E+02 -0.17001351462E+03  0.17469223234E+03  0.00000000000E+00 0. -1.
        -13    1    3    3    0    0  0.41940133865E+02 -0.54520861015E+01  0.51836200372E+01  0.42609505842E+02  0.00000000000E+00 0. -1.
         13    1    3    3    0    0 -0.28224053202E+02  0.46632175989E+02  0.37395241586E+02  0.66102655846E+02  0.00000000000E+00 0.  1.
         21    1    1    2  502  501 -0.28127663418E+02 -0.29626085402E+02  0.79635289789E+02  0.89502233298E+02  0.00000000000E+00 0. -1.
<scales pt_clust_5="13000.00000" pt_clust_6="13000.00000" pt_clust_7="13000.00000" pt_clust_8="13000.00000" pt_clust_9="40.85181"></scales>
<clustering>
<clus scale="   40.852">  1  9  2 -1</clus>
<clus scale="   90.119">  7  8 -1 -1</clus>
<clus scale="   91.085">  5  6 -1 -1</clus>
<clus scale="   92.053">  1  7  2 -1</clus>
<clus scale="   92.999">  2  5  1 -1</clus>
</clustering>
</event>
<event>
 9    1  0.1748361E-005  0.9341973E+02  0.7546771E-02  0.1295790E+00
         -1   -1    0    0    0  501 -0.00000000000E+00  0.00000000000E+00  0.17896797096E+03  0.17896797096E+03  0.00000000000E+00 0.  1.
          1   -1    0    0  502    0  0.00000000000E+00 -0.00000000000E+00 -0.19859761584E+03  0.19859761584E+03  0.00000000000E+00 0. -1.
         23    2    1    2    0    0 -0.66719874719E+02 -0.30337893897E+02 -0.78200291048E+01  0.11312698343E+03  0.85817434332E+02 0.  0.
         23    2    1    2    0    0 -0.35845069462E+01 -0.28498060870E+02 -0.99165519648E+02  0.13780752664E+03  0.91280479556E+02 0.  0.
        -11    1    4    4    0    0  0.43596875029E+02 -0.96623553128E+01 -0.51229618889E+02  0.67959712139E+02  0.00000000000E+00 0.  1.
         11    1    4    4    0    0 -0.47181381975E+02 -0.18835705557E+02 -0.47935900759E+02  0.69847814500E+02  0.00000000000E+00 0. -1.
        -13    1    3    3    0    0 -0.42821964857E+02 -0.55034548096E+02 -0.25787515011E+02  0.74347280306E+02  0.00000000000E+00 0. -1.
         13    1    3    3    0    0 -0.23897909861E+02  0.24696654199E+02  0.17967485906E+02  0.38779703121E+02  0.00000000000E+00 0.  1.
         21    1    1    2  502  501  0.70304381665E+02  0.58835954768E+02  0.87355903876E+02  0.12663107674E+03  0.00000000000E+00 0.  1.
<scales pt_clust_5="13000.00000" pt_clust_6="13000.00000" pt_clust_7="13000.00000" pt_clust_8="13000.00000" pt_clust_9="91.67538"></scales>
<clustering>
<clus scale="   85.817">  7  8 -1 -1</clus>
<clus scale="   91.280">  5  6 -1 -1</clus>
<clus scale="   91.675">  1  9  2 -1</clus>
<clus scale="   91.675">  1  7  2 -1</clus>
<clus scale="   93.420">  2  5  1 -1</clus>
</clustering>
</event>
<event>
 9    1  0.1748361E-005  0.1517656E+03  0.7546771E-02  0.1198919E+00
          1   -1    0    0  502    0  0.00000000000E+00  0.00000000000E+00  0.82252087511E+02  0.82252087511E+02  0.00000000000E+00 0. -1.
         -1   -1    0    0    0  501 -0.00000000000E+00 -0.00000000000E+00 -0.50218340344E+03  0.50218340344E+03  0.00000000000E+00 0.  1.
         23    2    1    2    0    0 -0.89472776692E+02 -0.68512931250E+02 -0.24503004071E+03  0.28419111410E+03  0.89584981791E+02 0.  0.
         23    2    1    2    0    0  0.73688479737E+02  0.99815988165E+02 -0.38855776999E+02  0.15975450893E+03  0.92835920739E+02 0.  0.
        -11    1    3    3    0    0 -0.61828523352E+02 -0.83778090031E+02 -0.13973401961E+03  0.17426167365E+03  0.00000000000E+00 0.  1.
         11    1    3    3    0    0 -0.27644253340E+02  0.15265158781E+02 -0.10529602111E+03  0.10992944044E+03  0.00000000000E+00 0. -1.
        -13    1    4    4    0    0  0.36296176297E+02 -0.19513064725E+00  0.16055649694E+02  0.39689222427E+02  0.00000000000E+00 0.  1.
         13    1    4    4    0    0  0.37392303440E+02  0.10001111881E+03 -0.54911426693E+02  0.12006528651E+03  0.00000000000E+00 0. -1.
         21    1    1    2  502  501  0.15784296955E+02 -0.31303056915E+02 -0.13604549822E+03  0.14048986792E+03  0.00000000000E+00 0.  1.
<scales pt_clust_5="13000.00000" pt_clust_6="13000.00000" pt_clust_7="13000.00000" pt_clust_8="13000.00000" pt_clust_9="35.05746"></scales>
<clustering>
<clus scale="   35.057">  2  9  1 -1</clus>
<clus scale="   89.585">  5  6 -1 -1</clus>
<clus scale="   92.836">  7  8 -1 -1</clus>
<clus scale="  149.799">  2  5  1 -1</clus>
<clus scale="  151.766">  1  5  2 -1</clus>
</clustering>
</event>
<event>
 9    1  0.1748361E-005  0.1732209E+03  0.7546771E-02  0.1174813E+00
          1   -1    0    0  502    0  0.00000000000E+00  0.00000000000E+00  0.63866688980E+03  0.63866688980E+03  0.00000000000E+00 0. -1.
         -1   -1    0    0    0  501 -0.00000000000E+00 -0.00000000000E+00 -0.20804085983E+03  0.20804085983E+03  0.00000000000E+00 0.  1.
         23    2    1    2    0    0 -0.14349922424E+03  0.82119845792E+02 -0.11826200190E+03  0.22230791407E+03  0.89995617311E+02 0.  0.
         23    2    1    2    0    0  0.11548296320E+03 -0.88360690665E+02  0.56558360007E+03  0.59119439887E+03  0.92098220126E+02 0.  0.
        -13    1    3    3    0    0 -0.90758897473E+02  0.89253890240E+02 -0.11042286711E+03  0.16851303799E+03  0.00000000000E+00 0.  1.
         13    1    3    3    0    0 -0.52740326771E+02 -0.71340444478E+01 -0.78391347876E+01  0.53794876078E+02  0.00000000000E+00 0. -1.
        -13    1    4    4    0    0  0.11783588164E+03 -0.43223582569E+02  0.38026441047E+03  0.40044299839E+03  0.00000000000E+00 0. -1.
         13    1    4    4    0    0 -0.23529184369E+01 -0.45137108096E+02  0.18531918960E+03  0.19075140049E+03  0.00000000000E+00 0.  1.
         21    1    1    2  502  501  0.28016261039E+02  0.62408448730E+01 -0.16695568210E+02  0.33205436682E+02  0.00000000000E+00 0.  1.
<scales pt_clust_5="13000.00000" pt_clust_6="13000.00000" pt_clust_7="13000.00000" pt_clust_8="13000.00000" pt_clust_9="28.70294"></scales>
<clustering>
<clus scale="   28.703">  2  9  1 -1</clus>
<clus scale="   89.996">  5  6 -1 -1</clus>
<clus scale="   92.098">  7  8 -1 -1</clus>
<clus scale="  172.112">  2  5  1 -1</clus>
<clus scale="  173.221">  1  5  2 -1</clus>
</clustering>
</event>
<event>
 9    1  0.1748361E-005  0.1547420E+03  0.7546771E-02  0.1194785E+00
          2   -1    0    0  502    0  0.00000000000E+00  0.00000000000E+00  0.88372696506E+03  0.88372696506E+03  0.00000000000E+00 0. -1.
         -2   -1    0    0    0  501 -0.00000000000E+00 -0.00000000000E+00 -0.40038266692E+02  0.40038266692E+02  0.00000000000E+00 0.  1.
         23    2    1    2    0    0  0.93785869490E+02 -0.12021079908E+03  0.37410467621E+03  0.41446201930E+03  0.92617661132E+02 0.  0.
         23    2    1    2    0    0 -0.73712063721E+02  0.77765481253E+02  0.40768522290E+03  0.43161135938E+03  0.92737188654E+02 0.  0.
        -11    1    4    4    0    0 -0.24948120309E+01  0.67041091715E+02  0.23800344684E+03  0.24727792617E+03  0.00000000000E+00 0. -1.
         11    1    4    4    0    0 -0.71217251690E+02  0.10724389537E+02  0.16968177606E+03  0.18433343320E+03  0.00000000000E+00 0.  1.
        -11    1    3    3    0    0  0.62612571015E+02 -0.10728288611E+03  0.18805696115E+03  0.22537828719E+03  0.00000000000E+00 0.  1.
         11    1    3    3    0    0  0.31173298475E+02 -0.12927912977E+02  0.18604771505E+03  0.18908373211E+03  0.00000000000E+00 0. -1.
         21    1    1    2  502  501 -0.20073805769E+02  0.42445317832E+02  0.61898799264E+02  0.77691853075E+02  0.00000000000E+00 0. -1.
<scales pt_clust_5="13000.00000" pt_clust_6="13000.00000" pt_clust_7="13000.00000" pt_clust_8="13000.00000" pt_clust_9="46.95277"></scales>
<clustering>
<clus scale="   46.953">  2  9  1 -1</clus>
<clus scale="   92.618">  7  8 -1 -1</clus>
<clus scale="   92.737">  5  6 -1 -1</clus>
<clus scale="  154.670">  2  7  1 -1</clus>
<clus scale="  154.742">  1  5  2 -1</clus>
</clustering>
</event>
<event>
 9    1  0.1748361E-005  0.2008101E+03  0.7546771E-02  0.1180385E+00
         -1   -1    0    0    0  501 -0.00000000000E+00  0.00000000000E+00  0.51244458904E+02  0.51244458904E+02  0.00000000000E+00 0.  1.
          1   -1    0    0  502    0  0.00000000000E+00 -0.00000000000E+00 -0.12343703824E+04  0.12343703824E+04  0.00000000000E+00 0. -1.
         23    2    1    2    0    0  0.18183870732E+03 -0.49809315955E+02 -0.34131573339E+03  0.40013682015E+03  0.89815152087E+02 0.  0.
         23    2    1    2    0    0 -0.12253403713E+02  0.34441001494E+02 -0.40743772899E+03  0.41892170595E+03  0.90297088677E+02 0.  0.
        -11    1    4    4    0    0 -0.10461440640E+02  0.62383877533E+02 -0.34111978251E+03  0.34693500246E+03  0.00000000000E+00 0. -1.
         11    1    4    4    0    0 -0.17919630735E+01 -0.27942876039E+02 -0.66317946486E+02  0.71986703488E+02  0.00000000000E+00 0.  1.
        -11    1    3    3    0    0  0.16575133073E+02  0.22361669731E+02 -0.57356173965E+02  0.63753509719E+02  0.00000000000E+00 0. -1.
         11    1    3    3    0    0  0.16526357424E+03 -0.72170985686E+02 -0.28395955943E+03  0.33638331043E+03  0.00000000000E+00 0.  1.
         21    1    1    2  502  501 -0.16958530360E+03  0.15368314461E+02 -0.43437246114E+03  0.46655631523E+03  0.00000000000E+00 0.  1.
<scales pt_clust_5="13000.00000" pt_clust_6="13000.00000" pt_clust_7="13000.00000" pt_clust_8="13000.00000" pt_clust_9="179.60495"></scales>
<clustering>
<clus scale="   89.815">  7  8 -1 -1</clus>
<clus scale="   90.297">  5  6 -1 -1</clus>
<clus scale="   97.416">  2  5  1 -1</clus>
<clus scale="  179.605">  2  9  1 -1</clus>
<clus scale="   97.416">  2  5  1 -1</clus>
</clustering>
</event>
<event>
 9    1  0.1748361E-005  0.1350734E+03  0.7546771E-02  0.1224517E+00
         -1   -1    0    0    0  501 -0.00000000000E+00  0.00000000000E+00  0.44737196558E+02  0.44737196558E+02  0.00000000000E+00 0.  1.
          1   -1    0    0  502    0  0.00000000000E+00 -0.00000000000E+00 -0.80056812604E+03  0.80056812604E+03  0.00000000000E+00 0. -1.
         23    2    1    2    0    0 -0.65591789301E+02 -0.17908923721E+01 -0.22263214479E+03  0.24903038860E+03  0.90252825079E+02 0.  0.
         23    2    1    2    0    0  0.95340107735E+02  0.19351143570E+02 -0.54189786847E+03  0.56065192275E+03  0.10589181145E+03 0.  0.
        -13    1    3    3    0    0 -0.20395310831E+02 -0.32386802767E+02 -0.29467789269E+02  0.48303460557E+02  0.00000000000E+00 0.  1.
         13    1    3    3    0    0 -0.45196478471E+02  0.30595910395E+02 -0.19316435552E+03  0.20072692805E+03  0.00000000000E+00 0. -1.
        -13    1    4    4    0    0  0.34665430151E+02 -0.40537698300E+02 -0.14011915649E+03  0.14992789949E+03  0.00000000000E+00 0.  1.
         13    1    4    4    0    0  0.60674677584E+02  0.59888841870E+02 -0.40177871198E+03  0.41072402326E+03  0.00000000000E+00 0. -1.
         21    1    1    2  502  501 -0.29748318434E+02 -0.17560251198E+02  0.86990837751E+01  0.35623011247E+02  0.00000000000E+00 0.  1.
<scales pt_clust_5="13000.00000" pt_clust_6="13000.00000" pt_clust_7="13000.00000" pt_clust_8="13000.00000" pt_clust_9="34.54453"></scales>
<clustering>
<clus scale="   34.545">  1  9  2 -1</clus>
<clus scale="   90.253">  5  6 -1 -1</clus>
<clus scale="  105.892">  7  8 -1 -1</clus>
<clus scale="  123.196">  1  5  2 -1</clus>
<clus scale="  135.073">  2  5  1 -1</clus>
</clustering>
</event>
<event>
 9    1  0.1748361E-005  0.1021908E+03  0.7546771E-02  0.1275987E+00
         -1   -1    0    0    0  501 -0.00000000000E+00  0.00000000000E+00  0.58569914233E+02  0.58569914233E+02  0.00000000000E+00 0.  1.
          1   -1    0    0  502    0  0.00000000000E+00 -0.00000000000E+00 -0.29585724802E+03  0.29585724802E+03  0.00000000000E+00 0. -1.
         23    2    1    2    0    0  0.54743220595E+00 -0.40270947087E+02 -0.51718527768E+02  0.11124568989E+03  0.89881858816E+02 0.  0.
         23    2    1    2    0    0 -0.29628986202E+02  0.44354073440E+02 -0.18627088837E+03  0.21380628515E+03  0.90394264549E+02 0.  0.
        -11    1    3    3    0    0 -0.63391483626E+01 -0.67588862801E+02 -0.47275517558E+02  0.82724928148E+02  0.00000000000E+00 0.  1.
         11    1    3    3    0    0  0.68865805686E+01  0.27317915714E+02 -0.44430102099E+01  0.28520761747E+02  0.00000000000E+00 0. -1.
        -13    1    4    4    0    0 -0.50786572155E+02  0.36461214411E+02 -0.64005133314E+02  0.89472639160E+02  0.00000000000E+00 0. -1.
         13    1    4    4    0    0  0.21157585954E+02  0.78928590292E+01 -0.12226575505E+03  0.12433364599E+03  0.00000000000E+00 0.  1.
         21    1    1    2  502  501  0.29081553996E+02 -0.40831263536E+01  0.70208235102E+00  0.29375187204E+02  0.00000000000E+00 0.  1.
<scales pt_clust_5="13000.00000" pt_clust_6="13000.00000" pt_clust_7="13000.00000" pt_clust_8="13000.00000" pt_clust_9="29.36680"></scales>
<clustering>
<clus scale="   29.367">  1  9  2 -1</clus>
<clus scale="   89.882">  5  6 -1 -1</clus>
<clus scale="   90.394">  7  8 -1 -1</clus>
<clus scale="  101.738">  1  5  2 -1</clus>
<clus scale="  102.191">  2  5  1 -1</clus>
</clustering>
</event>
<event>
 9    1  0.1748361E-005  0.1069626E+03  0.7546771E-02  0.1266492E+00
          1   -1    0    0  502    0  0.00000000000E+00  0.00000000000E+00  0.42855232329E+02  0.42855232329E+02  0.00000000000E+00 0. -1.
         -1   -1    0    0    0  501 -0.00000000000E+00 -0.00000000000E+00 -0.49934536191E+03  0.49934536191E+03  0.00000000000E+00 0.  1.
         23    2    1    2    0    0  0.60911523669E+02  0.16945267360E+02 -0.24837716567E+03  0.27200763547E+03  0.91102039088E+02 0.  0.
         23    2    1    2    0    0 -0.36313216668E+02 -0.41363284244E+02 -0.69834712405E+02  0.12763703607E+03  0.91568307471E+02 0.  0.
        -13    1    3    3    0    0  0.11401748056E+02  0.49987346361E+02 -0.10927527010E+03  0.12070550654E+03  0.00000000000E+00 0.  1.
         13    1    3    3    0    0  0.49509775613E+02 -0.33042079000E+02 -0.13910189557E+03  0.15130212893E+03  0.00000000000E+00 0. -1.
        -13    1    4    4    0    0 -0.65326719199E+02 -0.22241775976E+02 -0.60203374149E+02  0.91579053821E+02  0.00000000000E+00 0.  1.
         13    1    4    4    0    0  0.29013502532E+02 -0.19121508268E+02 -0.96313382562E+01  0.36057982253E+02  0.00000000000E+00 0. -1.
         21    1    1    2  502  501 -0.24598307001E+02  0.24418016883E+02 -0.13827825150E+03  0.14255592269E+03  0.00000000000E+00 0.  1.
<scales pt_clust_5="13000.00000" pt_clust_6="13000.00000" pt_clust_7="13000.00000" pt_clust_8="13000.00000" pt_clust_9="34.66001"></scales>
<clustering>
<clus scale="   34.660">  2  9  1 -1</clus>
<clus scale="   91.102">  5  6 -1 -1</clus>
<clus scale="   91.568">  7  8 -1 -1</clus>
<clus scale="  106.564">  2  5  1 -1</clus>
<clus scale="  106.963">  1  5  2 -1</clus>
</clustering>
</event>
<event>
 9    1  0.1748361E-005  0.1880299E+03  0.7546771E-02  0.1160310E+00
          2   -1    0    0  502    0  0.00000000000E+00  0.00000000000E+00  0.56250646058E+03  0.56250646058E+03  0.00000000000E+00 0. -1.
         -2   -1    0    0    0  501 -0.00000000000E+00 -0.00000000000E+00 -0.12989758023E+03  0.12989758023E+03  0.00000000000E+00 0.  1.
         23    2    1    2    0    0 -0.75242151735E+02 -0.14540368905E+03  0.42968823818E+01  0.18819476802E+03  0.92710265481E+02 0.  0.
         23    2    1    2    0    0  0.99502841337E+02  0.12990761916E+03  0.43555088166E+03  0.47452576425E+03  0.93238004472E+02 0.  0.
        -11    1    3    3    0    0 -0.13510652989E+02 -0.25924918595E+02  0.39536025212E+02  0.49170483401E+02  0.00000000000E+00 0. -1.
         11    1    3    3    0    0 -0.61731498745E+02 -0.11947877046E+03 -0.35239142830E+02  0.13902428462E+03  0.00000000000E+00 0.  1.
        -13    1    4    4    0    0  0.94327179352E+02  0.58728308092E+02  0.31967493681E+03  0.33843566030E+03  0.00000000000E+00 0. -1.
         13    1    4    4    0    0  0.51756619851E+01  0.71179311064E+02  0.11587594485E+03  0.13609010396E+03  0.00000000000E+00 0.  1.
         21    1    1    2  502  501 -0.24260689602E+02  0.15496069895E+02 -0.72388836933E+01  0.29683508540E+02  0.00000000000E+00 0. -1.
<scales pt_clust_5="13000.00000" pt_clust_6="13000.00000" pt_clust_7="13000.00000" pt_clust_8="13000.00000" pt_clust_9="28.78731"></scales>
<clustering>
<clus scale="   28.787">  2  9  1 -1</clus>
<clus scale="   92.710">  5  6 -1 -1</clus>
<clus scale="   93.238">  7  8 -1 -1</clus>
<clus scale="  187.769">  2  5  1 -1</clus>
<clus scale="  188.030">  1  5  2 -1</clus>
</clustering>
</event>
<event>
 9    1  0.1748361E-005  0.1665382E+03  0.7546771E-02  0.1183214E+00
          3   -1    0    0  502    0  0.00000000000E+00  0.00000000000E+00  0.75673081081E+02  0.75673081081E+02  0.00000000000E+00 0. -1.
         -3   -1    0    0    0  501 -0.00000000000E+00 -0.00000000000E+00 -0.43154885814E+03  0.43154885814E+03  0.00000000000E+00 0.  1.
         23    2    1    2    0    0 -0.13440472247E+03  0.42925535316E+02 -0.17080178866E+03  0.23656613082E+03  0.82964162357E+02 0.  0.
         23    2    1    2    0    0  0.11695392202E+03 -0.67851163941E+02 -0.14041453700E+03  0.21661615631E+03  0.94468601403E+02 0.  0.
        -11    1    3    3    0    0 -0.75760562329E+01 -0.20232723145E+02 -0.28429785653E+02  0.35707316144E+02  0.00000000000E+00 0.  1.
         11    1    3    3    0    0 -0.12682866624E+03  0.63158258461E+02 -0.14237200301E+03  0.20085881467E+03  0.00000000000E+00 0. -1.
        -13    1    4    4    0    0  0.34165167637E+02 -0.26779592612E+02 -0.11170418548E+03  0.11984252298E+03  0.00000000000E+00 0.  1.
         13    1    4    4    0    0  0.82788754385E+02 -0.41071571329E+02 -0.28710351513E+02  0.96773633331E+02  0.00000000000E+00 0. -1.
         21    1    1    2  502  501  0.17450800449E+02  0.24925628625E+02 -0.44659451404E+02  0.54039652093E+02  0.00000000000E+00 0. -1.
<scales pt_clust_5="13000.00000" pt_clust_6="13000.00000" pt_clust_7="13000.00000" pt_clust_8="13000.00000" pt_clust_9="30.42725"></scales>
<clustering>
<clus scale="   30.427">  2  9  1 -1</clus>
<clus scale="   82.964">  5  6 -1 -1</clus>
<clus scale="   94.469">  7  8 -1 -1</clus>
<clus scale="  160.293">  2  5  1 -1</clus>
<clus scale="  166.538">  1  5  2 -1</clus>
</clustering>
</event>
<event>
 9    1  0.1748361E-005  0.1093891E+03  0.7546771E-02  0.1267937E+00
         -1   -1    0    0    0  501 -0.00000000000E+00  0.00000000000E+00  0.32620101908E+03  0.32620101908E+03  0.00000000000E+00 0.  1.
          1   -1    0    0  502    0  0.00000000000E+00 -0.00000000000E+00 -0.31538697157E+03  0.31538697157E+03  0.00000000000E+00 0. -1.
         23    2    1    2    0    0 -0.15192098462E+02  0.72609708205E+02  0.17105008508E+03  0.21085370532E+03  0.98479357526E+02 0.  0.
         23    2    1    2    0    0 -0.22174256896E+01 -0.46560751719E+02 -0.28564720297E+03  0.30146866704E+03  0.84357643807E+02 0.  0.
        -13    1    4    4    0    0  0.35991976263E+02 -0.15443368848E+02 -0.18864319296E+03  0.19266596546E+03  0.00000000000E+00 0.  1.
         13    1    4    4    0    0 -0.38209401953E+02 -0.31117382872E+02 -0.97004010010E+02  0.10880270159E+03  0.00000000000E+00 0. -1.
        -13    1    3    3    0    0 -0.43674301788E+02  0.27528577779E+02  0.29200645384E+02  0.59312266203E+02  0.00000000000E+00 0. -1.
         13    1    3    3    0    0  0.28482203327E+02  0.45081130427E+02  0.14184943970E+03  0.15154143911E+03  0.00000000000E+00 0.  1.
         21    1    1    2  502  501  0.17409524151E+02 -0.26048956486E+02  0.12541116540E+03  0.12926561829E+03  0.00000000000E+00 0.  1.
<scales pt_clust_5="13000.00000" pt_clust_6="13000.00000" pt_clust_7="13000.00000" pt_clust_8="13000.00000" pt_clust_9="31.33113"></scales>
<clustering>
<clus scale="   31.331">  1  9  2 -1</clus>
<clus scale="   84.358">  5  6 -1 -1</clus>
<clus scale="   96.871">  2  5  1 -1</clus>
<clus scale="   98.479">  7  8 -1 -1</clus>
<clus scale="   96.871">  2  5  1 -1</clus>
</clustering>
</event>
<event>
 9    1  0.1748361E-005  0.1014470E+03  0.7546771E-02  0.1277965E+00
         -1   -1    0    0    0  501 -0.00000000000E+00  0.00000000000E+00  0.52342667818E+02  0.52342667818E+02  0.00000000000E+00 0.  1.
          1   -1    0    0  502    0  0.00000000000E+00 -0.00000000000E+00 -0.42557994474E+03  0.42557994474E+03  0.00000000000E+00 0. -1.
         23    2    1    2    0    0  0.25763740242E+02  0.49954165580E+02 -0.62354503358E+02  0.12355263152E+03  0.90653073290E+02 0.  0.
         23    2    1    2    0    0  0.31306484626E+02 -0.39613850470E+02 -0.25046135450E+03  0.27061629118E+03  0.89179223047E+02 0.  0.
        -11    1    3    3    0    0  0.34703737274E+01  0.20772108320E+02  0.22666206020E+02  0.30939955934E+02  0.00000000000E+00 0.  1.
         11    1    3    3    0    0  0.22293366515E+02  0.29182057261E+02 -0.85020709378E+02  0.92612675588E+02  0.00000000000E+00 0. -1.
        -11    1    4    4    0    0  0.19992118796E+02  0.25000281229E+02 -0.12508863889E+03  0.12911958200E+03  0.00000000000E+00 0.  1.
         11    1    4    4    0    0  0.11314365830E+02 -0.64614131699E+02 -0.12537271561E+03  0.14149670918E+03  0.00000000000E+00 0. -1.
         21    1    1    2  502  501 -0.57070224868E+02 -0.10340315111E+02 -0.60421419060E+02  0.83753689855E+02  0.00000000000E+00 0.  1.
<scales pt_clust_5="13000.00000" pt_clust_6="13000.00000" pt_clust_7="13000.00000" pt_clust_8="13000.00000" pt_clust_9="57.99942"></scales>
<clustering>
<clus scale="   57.999">  1  9  2 -1</clus>
<clus scale="   89.179">  7  8 -1 -1</clus>
<clus scale="   90.653">  5  6 -1 -1</clus>
<clus scale="  100.132">  2  7  1 -1</clus>
<clus scale="  100.132">  2  5  1 -1</clus>
</clustering>
</event>
<event>
 9    1  0.1748361E-005  0.1035509E+03  0.7546771E-02  0.1276423E+00
         -1   -1    0    0    0  501 -0.00000000000E+00  0.00000000000E+00  0.45745946799E+02  0.45745946799E+02  0.00000000000E+00 0.  1.
          1   -1    0    0  502    0  0.00000000000E+00 -0.00000000000E+00 -0.39051401927E+03  0.39051401927E+03  0.00000000000E+00 0. -1.
         23    2    1    2    0    0 -0.17754196936E+02  0.28039478456E+02 -0.15719374336E+03  0.18485175620E+03  0.91426883127E+02 0.  0.
         23    2    1    2    0    0  0.36237565579E+02 -0.72960658788E+01 -0.19598014483E+03  0.22238094993E+03  0.98380262185E+02 0.  0.
        -13    1    3    3    0    0  0.91604309434E+01 -0.29652488130E+02 -0.72802579405E+02  0.79141639579E+02  0.00000000000E+00 0.  1.
         13    1    3    3    0    0 -0.26914627879E+02  0.57691966586E+02 -0.84391163953E+02  0.10571011662E+03  0.00000000000E+00 0. -1.
        -13    1    4    4    0    0  0.57506103483E+02 -0.28340112428E+02 -0.17347346328E+03  0.18494095375E+03  0.00000000000E+00 0. -1.
         13    1    4    4    0    0 -0.21268537905E+02  0.21044046549E+02 -0.22506681550E+02  0.37439996183E+02  0.00000000000E+00 0.  1.
         21    1    1    2  502  501 -0.18483368643E+02 -0.20743412578E+02  0.84058157167E+01  0.29027259940E+02  0.00000000000E+00 0.  1.
<scales pt_clust_5="13000.00000" pt_clust_6="13000.00000" pt_clust_7="13000.00000" pt_clust_8="13000.00000" pt_clust_9="27.78352"></scales>
<clustering>
<clus scale="   27.784">  1  9  2 -1</clus>
<clus scale="   91.427">  5  6 -1 -1</clus>
<clus scale="   96.969">  1  5  2 -1</clus>
<clus scale="   98.380">  7  8 -1 -1</clus>
<clus scale="  103.551">  2  5  1 -1</clus>
</clustering>
</event>
<event>
 9    1  0.1748361E-005  0.9582550E+02  0.7546771E-02  0.1291918E+00
         -1   -1    0    0    0  501 -0.00000000000E+00  0.00000000000E+00  0.58659680073E+03  0.58659680073E+03  0.00000000000E+00 0.  1.
          1   -1    0    0  502    0  0.00000000000E+00 -0.00000000000E+00 -0.29656520750E+02  0.29656520750E+02  0.00000000000E+00 0. -1.
         23    2    1    2    0    0 -0.12057166397E+02 -0.71523465121E+00  0.27648924631E+03  0.29086624430E+03  0.89504088870E+02 0.  0.
         23    2    1    2    0    0 -0.14868451753E+02  0.22940870106E+02  0.94373697254E+02  0.13606263895E+03  0.94123815298E+02 0.  0.
        -11    1    3    3    0    0 -0.32553400265E+02  0.24741017687E+02  0.23248394085E+03  0.23605216495E+03  0.00000000000E+00 0. -1.
         11    1    3    3    0    0  0.20496233868E+02 -0.25456252339E+02  0.44005305459E+02  0.54814079345E+02  0.00000000000E+00 0.  1.
        -13    1    4    4    0    0  0.18765504418E+02  0.15820900650E+02 -0.97497896243E+01  0.26410290630E+02  0.00000000000E+00 0. -1.
         13    1    4    4    0    0 -0.33633956171E+02  0.71199694559E+01  0.10412348688E+03  0.10965234832E+03  0.00000000000E+00 0.  1.
         21    1    1    2  502  501  0.26925618151E+02 -0.22225635455E+02  0.18607733642E+03  0.18932443824E+03  0.00000000000E+00 0.  1.
<scales pt_clust_5="13000.00000" pt_clust_6="13000.00000" pt_clust_7="13000.00000" pt_clust_8="13000.00000" pt_clust_9="34.91372"></scales>
<clustering>
<clus scale="   34.914">  1  9  2 -1</clus>
<clus scale="   89.504">  5  6 -1 -1</clus>
<clus scale="   91.292">  1  5  2 -1</clus>
<clus scale="   94.124">  7  8 -1 -1</clus>
<clus scale="   95.825">  2  5  1 -1</clus>
</clustering>
</event>
<event>
 9    1  0.1748361E-005  0.1659986E+03  0.7546771E-02  0.1185539E+00
          3   -1    0    0  502    0  0.00000000000E+00  0.00000000000E+00  0.16130100706E+03  0.16130100706E+03  0.00000000000E+00 0. -1.
         -3   -1    0    0    0  501 -0.00000000000E+00 -0.00000000000E+00 -0.30320941586E+03  0.30320941586E+03  0.00000000000E+00 0.  1.
         23    2    1    2    0    0  0.14734106610E+00  0.10466594491E+03 -0.43821308345E+02  0.14554877843E+03  0.91154583563E+02 0.  0.
         23    2    1    2    0    0  0.54445363734E+02 -0.13327238438E+03  0.23054670598E+02  0.18304247553E+03  0.11066708609E+03 0.  0.
        -13    1    4    4    0    0 -0.54402112169E+01 -0.11451749268E+03 -0.39739870289E+01  0.11471549416E+03  0.00000000000E+00 0. -1.
         13    1    4    4    0    0  0.59885574951E+02 -0.18754891693E+02  0.27028657627E+02  0.68326981367E+02  0.00000000000E+00 0.  1.
        -13    1    3    3    0    0 -0.81043761394E+00  0.64482047970E+02  0.22244609781E+02  0.68215936436E+02  0.00000000000E+00 0. -1.
         13    1    3    3    0    0  0.95777868004E+00  0.40183896940E+02 -0.66065918126E+02  0.77332841996E+02  0.00000000000E+00 0.  1.
         21    1    1    2  502  501 -0.54592704800E+02  0.28606439466E+02 -0.12114177105E+03  0.13591916896E+03  0.00000000000E+00 0.  1.
<scales pt_clust_5="13000.00000" pt_clust_6="13000.00000" pt_clust_7="13000.00000" pt_clust_8="13000.00000" pt_clust_9="61.63353"></scales>
<clustering>
<clus scale="   61.634">  2  9  1 -1</clus>
<clus scale="   91.155">  7  8 -1 -1</clus>
<clus scale="  110.667">  5  6 -1 -1</clus>
<clus scale="  153.680">  2  7  1 -1</clus>
<clus scale="  165.999">  1  5  2 -1</clus>
</clustering>
</event>
<event>
 9    1  0.1748361E-005  0.9653015E+02  0.7546771E-02  0.1290432E+00
         -1   -1    0    0    0  501 -0.00000000000E+00  0.00000000000E+00  0.47138671997E+02  0.47138671997E+02  0.00000000000E+00 0.  1.
          1   -1    0    0  502    0  0.00000000000E+00 -0.00000000000E+00 -0.29564307189E+03  0.29564307189E+03  0.00000000000E+00 0. -1.
         23    2    1    2    0    0  0.49429506269E+02  0.20098758194E+02 -0.90204099629E+02  0.13591569406E+03  0.86539355959E+02 0.  0.
         23    2    1    2    0    0 -0.13490104992E+02 -0.87907284308E+01 -0.12975235705E+03  0.15959558164E+03  0.91519482514E+02 0.  0.
        -11    1    4    4    0    0 -0.39488760726E+02 -0.53213840121E+01 -0.12713893871E+03  0.13323659065E+03  0.00000000000E+00 0.  1.
         11    1    4    4    0    0  0.25998655734E+02 -0.34693444187E+01 -0.26134183414E+01  0.26358990992E+02  0.00000000000E+00 0. -1.
        -11    1    3    3    0    0  0.67394788717E+01 -0.32066216216E+02 -0.19046671010E+02  0.37900375650E+02  0.00000000000E+00 0.  1.
         11    1    3    3    0    0  0.42690027398E+02  0.52164974410E+02 -0.71157428618E+02  0.98015318405E+02  0.00000000000E+00 0. -1.
         21    1    1    2  502  501 -0.35939401277E+02 -0.11308029764E+02 -0.28547943212E+02  0.47270468190E+02  0.00000000000E+00 0.  1.
<scales pt_clust_5="13000.00000" pt_clust_6="13000.00000" pt_clust_7="13000.00000" pt_clust_8="13000.00000" pt_clust_9="37.67641"></scales>
<clustering>
<clus scale="   37.676">  1  9  2 -1</clus>
<clus scale="   86.539">  7  8 -1 -1</clus>
<clus scale="   91.519">  5  6 -1 -1</clus>
<clus scale="   91.822">  1  7  2 -1</clus>
<clus scale="   96.530">  2  5  1 -1</clus>
</clustering>
</event>
<event>
 9    1  0.1748361E-005  0.1035911E+03  0.7546771E-02  0.1274822E+00
         -1   -1    0    0    0  501 -0.00000000000E+00  0.00000000000E+00  0.10893429685E+03  0.10893429685E+03  0.00000000000E+00 0.  1.
          1   -1    0    0  502    0  0.00000000000E+00 -0.00000000000E+00 -0.21159210872E+03  0.21159210872E+03  0.00000000000E+00 0. -1.
         23    2    1    2    0    0  0.44376190944E+02  0.66851210256E+02 -0.74168183123E+02  0.14181239028E+03  0.90396371691E+02 0.  0.
         23    2    1    2    0    0 -0.43916131250E+01 -0.82305367699E+01 -0.46181678330E+02  0.10558291082E+03  0.94487965595E+02 0.  0.
        -13    1    3    3    0    0  0.92024160232E+01 -0.19487496121E+02  0.16950114316E+01  0.21617586116E+02  0.00000000000E+00 0.  1.
         13    1    3    3    0    0  0.35173774921E+02  0.86338706377E+02 -0.75863194555E+02  0.12019480417E+03  0.00000000000E+00 0. -1.
        -13    1    4    4    0    0 -0.46241959443E+02 -0.13804084667E+02 -0.85168656024E+01  0.49004168867E+02  0.00000000000E+00 0.  1.
         13    1    4    4    0    0  0.41850346318E+02  0.55735478975E+01 -0.37664812727E+02  0.56578741952E+02  0.00000000000E+00 0. -1.
         21    1    1    2  502  501 -0.39984577819E+02 -0.58620673486E+02  0.17692049584E+02  0.73131104476E+02  0.00000000000E+00 0.  1.
<scales pt_clust_5="13000.00000" pt_clust_6="13000.00000" pt_clust_7="13000.00000" pt_clust_8="13000.00000" pt_clust_9="70.95879"></scales>
<clustering>
<clus scale="   70.959">  1  9  2 -1</clus>
<clus scale="   90.396">  5  6 -1 -1</clus>
<clus scale="   94.488">  7  8 -1 -1</clus>
<clus scale="   99.873">  1  5  2 -1</clus>
<clus scale="  103.591">  2  5  1 -1</clus>
</clustering>
</event>
<event>
 9    1  0.1748361E-005  0.1282762E+03  0.7546771E-02  0.1230289E+00
          1   -1    0    0  502    0  0.00000000000E+00  0.00000000000E+00  0.50620225851E+03  0.50620225851E+03  0.00000000000E+00 0. -1.
         -1   -1    0    0    0  501 -0.00000000000E+00 -0.00000000000E+00 -0.63653873557E+02  0.63653873557E+02  0.00000000000E+00 0.  1.
         23    2    1    2    0    0 -0.33599987743E+02 -0.90525268493E+02  0.10635459101E+03  0.17071309695E+03  0.92238164712E+02 0.  0.
         23    2    1    2    0    0  0.57769157462E+02  0.66524177990E+02  0.34182841217E+03  0.36461840576E+03  0.91308141129E+02 0.  0.
        -11    1    3    3    0    0 -0.22736310840E+02  0.10493163876E+01 -0.77131240048E+01  0.24031919969E+02  0.00000000000E+00 0.  1.
         11    1    3    3    0    0 -0.10863676903E+02 -0.91574584881E+02  0.11406771501E+03  0.14668117698E+03  0.00000000000E+00 0. -1.
        -11    1    4    4    0    0  0.13379367033E+02  0.55813197197E+02  0.28964440253E+03  0.29527614255E+03  0.00000000000E+00 0.  1.
         11    1    4    4    0    0  0.44389790428E+02  0.10710980793E+02  0.52184009642E+02  0.69342263203E+02  0.00000000000E+00 0. -1.
         21    1    1    2  502  501 -0.24169169719E+02  0.24001090503E+02 -0.56346182248E+01  0.34524629365E+02  0.00000000000E+00 0.  1.
<scales pt_clust_5="13000.00000" pt_clust_6="13000.00000" pt_clust_7="13000.00000" pt_clust_8="13000.00000" pt_clust_9="34.06173"></scales>
<clustering>
<clus scale="   34.062">  2  9  1 -1</clus>
<clus scale="   91.308">  7  8 -1 -1</clus>
<clus scale="   92.238">  5  6 -1 -1</clus>
<clus scale="  127.609">  1  7  2 -1</clus>
<clus scale="  127.609">  1  5  2 -1</clus>
</clustering>
</event>
<event>
 9    1  0.1748361E-005  0.1109485E+03  0.7546771E-02  0.1258873E+00
         -1   -1    0    0    0  501 -0.00000000000E+00  0.00000000000E+00  0.16680980073E+03  0.16680980073E+03  0.00000000000E+00 0.  1.
          1   -1    0    0  502    0  0.00000000000E+00 -0.00000000000E+00 -0.11377302941E+03  0.11377302941E+03  0.00000000000E+00 0. -1.
         23    2    1    2    0    0  0.76557760499E+02 -0.27628652783E+02  0.50774899842E+02  0.13111588061E+03  0.89380370036E+02 0.  0.
         23    2    1    2    0    0 -0.47139171663E+02  0.35593305501E+02 -0.23229888288E+02  0.10973385402E+03  0.89514837352E+02 0.  0.
        -11    1    4    4    0    0  0.34099102610E+01  0.45501733639E+02  0.12178665448E+02  0.47226635961E+02  0.00000000000E+00 0. -1.
         11    1    4    4    0    0 -0.50549081924E+02 -0.99084281379E+01 -0.35408553736E+02  0.62507218057E+02  0.00000000000E+00 0.  1.
        -11    1    3    3    0    0 -0.18776476574E+01 -0.20218781938E+02  0.48184865317E+02  0.52288678979E+02  0.00000000000E+00 0.  1.
         11    1    3    3    0    0  0.78435408156E+02 -0.74098708452E+01  0.25900345252E+01  0.78827201634E+02  0.00000000000E+00 0. -1.
         21    1    1    2  502  501 -0.29418588836E+02 -0.79646527184E+01  0.25491759769E+02  0.39733095502E+02  0.00000000000E+00 0. -1.
<scales pt_clust_5="13000.00000" pt_clust_6="13000.00000" pt_clust_7="13000.00000" pt_clust_8="13000.00000" pt_clust_9="30.47768"></scales>
<clustering>
<clus scale="   30.478">  1  9  2 -1</clus>
<clus scale="   89.380">  7  8 -1 -1</clus>
<clus scale="   89.515">  5  6 -1 -1</clus>
<clus scale="  110.840">  1  7  2 -1</clus>
<clus scale="  110.948">  2  5  1 -1</clus>
</clustering>
</event>
<event>
 9    1  0.1748361E-005  0.2394601E+03  0.7546771E-02  0.1120391E+00
          2   -1    0    0  502    0  0.00000000000E+00  0.00000000000E+00  0.21973503763E+03  0.21973503763E+03  0.00000000000E+00 0. -1.
         -2   -1    0    0    0  501 -0.00000000000E+00 -0.00000000000E+00 -0.36367722051E+03  0.36367722051E+03  0.00000000000E+00 0.  1.
         23    2    1    2    0    0  0.20537948527E+03 -0.52985012982E+02 -0.75292466320E+02  0.24299642439E+03  0.91597828651E+02 0.  0.
         23    2    1    2    0    0 -0.19781763220E+03  0.12413614586E+03 -0.13134770962E+02  0.24985328896E+03  0.87821099287E+02 0.  0.
        -11    1    3    3    0    0  0.20273820219E+02  0.21425424486E+02 -0.21094404355E+02  0.36263624968E+02  0.00000000000E+00 0. -1.
         11    1    3    3    0    0  0.18510566505E+03 -0.74410437468E+02 -0.54198061964E+02  0.20673279942E+03  0.00000000000E+00 0.  1.
        -13    1    4    4    0    0 -0.12349748954E+03  0.82579955189E+02 -0.50437158214E+02  0.15689163729E+03  0.00000000000E+00 0.  1.
         13    1    4    4    0    0 -0.74320142657E+02  0.41556190674E+02  0.37302387252E+02  0.92961651677E+02  0.00000000000E+00 0. -1.
         21    1    1    2  502  501 -0.75618530714E+01 -0.71151132881E+02 -0.55514945602E+02  0.90562544782E+02  0.00000000000E+00 0.  1.
<scales pt_clust_5="13000.00000" pt_clust_6="13000.00000" pt_clust_7="13000.00000" pt_clust_8="13000.00000" pt_clust_9="71.55184"></scales>
<clustering>
<clus scale="   71.552">  2  9  1 -1</clus>
<clus scale="   87.821">  7  8 -1 -1</clus>
<clus scale="   91.598">  5  6 -1 -1</clus>
<clus scale="  238.041">  1  7  2 -1</clus>
<clus scale="  238.041">  1  5  2 -1</clus>
</clustering>
</event>
<event>
 9    1  0.1748361E-005  0.9279019E+02  0.7546771E-02  0.1299909E+00
         -1   -1    0    0    0  501 -0.00000000000E+00  0.00000000000E+00  0.39751600725E+02  0.39751600725E+02  0.00000000000E+00 0.  1.
          1   -1    0    0  502    0  0.00000000000E+00 -0.00000000000E+00 -0.62287045872E+03  0.62287045872E+03  0.00000000000E+00 0. -1.
         23    2    1    2    0    0  0.42001187901E+02 -0.14669862825E+02 -0.25679558974E+03  0.27589088647E+03  0.90512439292E+02 0.  0.
         23    2    1    2    0    0 -0.79742572947E+01 -0.17259363387E+01 -0.33701040083E+03  0.34747726821E+03  0.84248881405E+02 0.  0.
        -11    1    3    3    0    0  0.25525593352E+02  0.37743837059E+02 -0.10509458602E+03  0.11454704345E+03  0.00000000000E+00 0. -1.
         11    1    3    3    0    0  0.16475594549E+02 -0.52413699884E+02 -0.15170100372E+03  0.16134384302E+03  0.00000000000E+00 0.  1.
        -13    1    4    4    0    0 -0.38960571365E+02 -0.23024770113E+02 -0.14805642269E+03  0.15481850813E+03  0.00000000000E+00 0.  1.
         13    1    4    4    0    0  0.30986314070E+02  0.21298833775E+02 -0.18895397814E+03  0.19265876007E+03  0.00000000000E+00 0. -1.
         21    1    1    2  502  501 -0.34026930606E+02  0.16395799164E+02  0.10687132577E+02  0.39253904766E+02  0.00000000000E+00 0. -1.
<scales pt_clust_5="13000.00000" pt_clust_6="13000.00000" pt_clust_7="13000.00000" pt_clust_8="13000.00000" pt_clust_9="37.77108"></scales>
<clustering>
<clus scale="   37.771">  1  9  2 -1</clus>
<clus scale="   84.249">  7  8 -1 -1</clus>
<clus scale="   86.691">  2  7  1 -1</clus>
<clus scale="   90.512">  5  6 -1 -1</clus>
<clus scale="   86.691">  2  5  1 -1</clus>
</clustering>
</event>
<event>
 9    1  0.1748361E-005  0.1902520E+03  0.7546771E-02  0.1159725E+00
         -2   -1    0    0    0  501 -0.00000000000E+00  0.00000000000E+00  0.14041814681E+03  0.14041814681E+03  0.00000000000E+00 0.  1.
          2   -1    0    0  502    0  0.00000000000E+00 -0.00000000000E+00 -0.42242347542E+03  0.42242347542E+03  0.00000000000E+00 0. -1.
         23    2    1    2    0    0 -0.17212729716E+03  0.54576665352E+02 -0.13273628184E+03  0.24290439856E+03  0.93686751955E+02 0.  0.
         23    2    1    2    0    0  0.14148705119E+03 -0.27199317241E+02 -0.19082376754E+03  0.26149803578E+03  0.10587315025E+03 0.  0.
        -11    1    3    3    0    0 -0.72789021294E+02  0.15879522317E+02 -0.11165867361E+03  0.13423136832E+03  0.00000000000E+00 0.  1.
         11    1    3    3    0    0 -0.99338275870E+02  0.38697143035E+02 -0.21077608237E+02  0.10867303024E+03  0.00000000000E+00 0. -1.
        -13    1    4    4    0    0  0.13717642039E+03  0.11880615550E+02 -0.16278342489E+03  0.21320638535E+03  0.00000000000E+00 0.  1.
         13    1    4    4    0    0  0.43106308004E+01 -0.39079932791E+02 -0.28040342657E+02  0.48291650429E+02  0.00000000000E+00 0. -1.
         21    1    1    2  502  501  0.30640245973E+02 -0.27377348111E+02  0.41554720775E+02  0.58439187893E+02  0.00000000000E+00 0. -1.
<scales pt_clust_5="13000.00000" pt_clust_6="13000.00000" pt_clust_7="13000.00000" pt_clust_8="13000.00000" pt_clust_9="41.08946"></scales>
<clustering>
<clus scale="   41.089">  1  9  2 -1</clus>
<clus scale="   93.687">  5  6 -1 -1</clus>
<clus scale="  105.873">  7  8 -1 -1</clus>
<clus scale="  183.750">  1  5  2 -1</clus>
<clus scale="  190.252">  2  5  1 -1</clus>
</clustering>
</event>
<event>
 9    1  0.1748361E-005  0.1455175E+03  0.7546771E-02  0.1206652E+00
         -1   -1    0    0    0  501 -0.00000000000E+00  0.00000000000E+00  0.23877339068E+03  0.23877339068E+03  0.00000000000E+00 0.  1.
          1   -1    0    0  502    0  0.00000000000E+00 -0.00000000000E+00 -0.26175872267E+03  0.26175872267E+03  0.00000000000E+00 0. -1.
         23    2    1    2    0    0  0.88719603557E+02  0.93498520155E+02 -0.87258305525E+02  0.17955146384E+03  0.89507401697E+02 0.  0.
         23    2    1    2    0    0 -0.80702129301E+02 -0.59508684896E+02 -0.89669932602E+02  0.16312626361E+03  0.92278728938E+02 0.  0.
        -11    1    3    3    0    0  0.10107518940E+03  0.53444811535E+02 -0.56318584455E+02  0.12745322572E+03  0.00000000000E+00 0.  1.
         11    1    3    3    0    0 -0.12355585839E+02  0.40053708621E+02 -0.30939721070E+02  0.52098238123E+02  0.00000000000E+00 0. -1.
        -13    1    4    4    0    0 -0.90352002046E+02 -0.21880688164E+02 -0.43062505886E+02  0.10245305365E+03  0.00000000000E+00 0.  1.
         13    1    4    4    0    0  0.96498727452E+01 -0.37627996732E+02 -0.46607426717E+02  0.60673209963E+02  0.00000000000E+00 0. -1.
         21    1    1    2  502  501 -0.80174742553E+01 -0.33989835260E+02  0.15394290614E+03  0.15785438589E+03  0.00000000000E+00 0.  1.
<scales pt_clust_5="13000.00000" pt_clust_6="13000.00000" pt_clust_7="13000.00000" pt_clust_8="13000.00000" pt_clust_9="34.92261"></scales>
<clustering>
<clus scale="   34.923">  1  9  2 -1</clus>
<clus scale="   89.507">  5  6 -1 -1</clus>
<clus scale="   92.279">  7  8 -1 -1</clus>
<clus scale="  143.776">  1  5  2 -1</clus>
<clus scale="  145.517">  2  5  1 -1</clus>
</clustering>
</event>
<event>
 9    1  0.1748361E-005  0.1094109E+03  0.7546771E-02  0.1262412E+00
         -2   -1    0    0    0  501 -0.00000000000E+00  0.00000000000E+00  0.35466875426E+02  0.35466875426E+02  0.00000000000E+00 0. -1.
          2   -1    0    0  502    0  0.00000000000E+00 -0.00000000000E+00 -0.48648032346E+03  0.48648032346E+03  0.00000000000E+00 0.  1.
         23    2    1    2    0    0  0.45155383184E+02  0.42476704896E+02 -0.17903627463E+03  0.20974824152E+03  0.89983654632E+02 0.  0.
         23    2    1    2    0    0 -0.55195736808E+02 -0.21857953070E+02 -0.26726566495E+03  0.28878656877E+03  0.91882572709E+02 0.  0.
        -11    1    4    4    0    0  0.21275535444E+02  0.10976804984E+02 -0.87067771054E+02  0.90299144029E+02  0.00000000000E+00 0. -1.
         11    1    4    4    0    0 -0.76471272252E+02 -0.32834758055E+02 -0.18019789389E+03  0.19848742474E+03  0.00000000000E+00 0.  1.
        -13    1    3    3    0    0 -0.25106288717E+02  0.22955800142E+02 -0.78455822402E+02  0.85513803342E+02  0.00000000000E+00 0.  1.
         13    1    3    3    0    0  0.70261671900E+02  0.19520904754E+02 -0.10058045223E+03  0.12423443818E+03  0.00000000000E+00 0. -1.
         21    1    1    2  502  501  0.10040353624E+02 -0.20618751826E+02 -0.47115084637E+01  0.23412388596E+02  0.00000000000E+00 0.  1.
<scales pt_clust_5="13000.00000" pt_clust_6="13000.00000" pt_clust_7="13000.00000" pt_clust_8="13000.00000" pt_clust_9="22.93342"></scales>
<clustering>
<clus scale="   22.933">  1  9  2 -1</clus>
<clus scale="   89.984">  7  8 -1 -1</clus>
<clus scale="   91.883">  5  6 -1 -1</clus>
<clus scale="  107.821">  1  7  2 -1</clus>
<clus scale="  109.411">  2  5  1 -1</clus>
</clustering>
</event>
<event>
 9    1  0.1748361E-005  0.1003211E+03  0.7546771E-02  0.1280770E+00
         -3   -1    0    0    0  501 -0.00000000000E+00  0.00000000000E+00  0.12312919982E+03  0.12312919982E+03  0.00000000000E+00 0.  1.
          3   -1    0    0  502    0  0.00000000000E+00 -0.00000000000E+00 -0.20286929052E+03  0.20286929052E+03  0.00000000000E+00 0. -1.
         23    2    1    2    0    0  0.60643880824E+02 -0.65933918455E+02 -0.11920955470E+02  0.12692470971E+03  0.89122448752E+02 0.  0.
         23    2    1    2    0    0 -0.25650508426E+02  0.46156504743E+01 -0.83688526992E+02  0.12671147211E+03  0.91502867723E+02 0.  0.
        -13    1    4    4    0    0 -0.30183353955E+02  0.31940121171E+02 -0.88301135594E+02  0.98632128354E+02  0.00000000000E+00 0. -1.
         13    1    4    4    0    0  0.45328455293E+01 -0.27324470697E+02  0.46126086024E+01  0.28079343752E+02  0.00000000000E+00 0.  1.
        -13    1    3    3    0    0  0.32018199302E+02 -0.15290386136E+01  0.30844785743E+02  0.44484872183E+02  0.00000000000E+00 0. -1.
         13    1    3    3    0    0  0.28625681522E+02 -0.64404879842E+02 -0.42765741213E+02  0.82439837527E+02  0.00000000000E+00 0.  1.
         21    1    1    2  502  501 -0.34993372398E+02  0.61318267981E+02  0.15869391763E+02  0.72362308524E+02  0.00000000000E+00 0. -1.
<scales pt_clust_5="13000.00000" pt_clust_6="13000.00000" pt_clust_7="13000.00000" pt_clust_8="13000.00000" pt_clust_9="70.60075"></scales>
<clustering>
<clus scale="   70.601">  1  9  2 -1</clus>
<clus scale="   89.122">  7  8 -1 -1</clus>
<clus scale="   91.503">  5  6 -1 -1</clus>
<clus scale="   98.155">  1  7  2 -1</clus>
<clus scale="  100.321">  2  5  1 -1</clus>
</clustering>
</event>
<event>
 9    1  0.1748361E-005  0.1136487E+03  0.7546771E-02  0.1260882E+00
         -2   -1    0    0    0  501 -0.00000000000E+00  0.00000000000E+00  0.41826869259E+03  0.41826869259E+03  0.00000000000E+00 0.  1.
          2   -1    0    0  502    0  0.00000000000E+00 -0.00000000000E+00 -0.36249117415E+02  0.36249117415E+02  0.00000000000E+00 0. -1.
         23    2    1    2    0    0 -0.28483913666E+02 -0.14524484615E+02  0.17625302840E+03  0.20931965274E+03  0.10829262675E+03 0.  0.
         23    2    1    2    0    0  0.38461100788E+02 -0.44478127968E+01  0.11927330837E+03  0.15608826656E+03  0.92942915586E+02 0.  0.
        -11    1    4    4    0    0 -0.26511864141E+02 -0.16180071768E+02  0.59068127394E+02  0.66736177119E+02  0.00000000000E+00 0. -1.
         11    1    4    4    0    0  0.64972964928E+02  0.11732258971E+02  0.60205180973E+02  0.89352089445E+02  0.00000000000E+00 0.  1.
        -11    1    3    3    0    0  0.90116410255E+01  0.37167959126E+02  0.11357064473E+03  0.11983721544E+03  0.00000000000E+00 0. -1.
         11    1    3    3    0    0 -0.37495554692E+02 -0.51692443741E+02  0.62682383669E+02  0.89482437293E+02  0.00000000000E+00 0.  1.
         21    1    1    2  502  501 -0.99771871216E+01  0.18972297412E+02  0.86493238403E+02  0.89109890705E+02  0.00000000000E+00 0.  1.
<scales pt_clust_5="13000.00000" pt_clust_6="13000.00000" pt_clust_7="13000.00000" pt_clust_8="13000.00000" pt_clust_9="21.43577"></scales>
<clustering>
<clus scale="   21.436">  1  9  2 -1</clus>
<clus scale="   92.943">  5  6 -1 -1</clus>
<clus scale="   99.132">  2  5  1 -1</clus>
<clus scale="  108.293">  7  8 -1 -1</clus>
<clus scale="   99.132">  2  5  1 -1</clus>
</clustering>
</event>
<event>
 9    1  0.1748361E-005  0.1117739E+03  0.7546771E-02  0.1257476E+00
         -1   -1    0    0    0  501 -0.00000000000E+00  0.00000000000E+00  0.30138165119E+03  0.30138165119E+03  0.00000000000E+00 0.  1.
          1   -1    0    0  502    0  0.00000000000E+00 -0.00000000000E+00 -0.32484920592E+03  0.32484920592E+03  0.00000000000E+00 0. -1.
         23    2    1    2    0    0 -0.30006761688E+02 -0.44922064795E+02  0.18811326139E+03  0.21587257987E+03  0.91082237444E+02 0.  0.
         23    2    1    2    0    0  0.53506963902E+02  0.37778500729E+02 -0.29916831990E+03  0.31939201520E+03  0.90660716056E+02 0.  0.
        -11    1    4    4    0    0  0.33692355360E+01  0.56272868064E+02 -0.12314000158E+03  0.13543060000E+03  0.00000000000E+00 0.  1.
         11    1    4    4    0    0  0.50137728366E+02 -0.18494367335E+02 -0.17602831833E+03  0.18396141520E+03  0.00000000000E+00 0. -1.
        -11    1    3    3    0    0  0.28752429873E+02 -0.35959027509E+02  0.72696791936E+02  0.86049854391E+02  0.00000000000E+00 0. -1.
         11    1    3    3    0    0 -0.58759191561E+02 -0.89630372866E+01  0.11541646945E+03  0.12982272548E+03  0.00000000000E+00 0.  1.
         21    1    1    2  502  501 -0.23500202214E+02  0.71435640664E+01  0.87587503778E+02  0.90966262041E+02  0.00000000000E+00 0.  1.
<scales pt_clust_5="13000.00000" pt_clust_6="13000.00000" pt_clust_7="13000.00000" pt_clust_8="13000.00000" pt_clust_9="24.56196"></scales>
<clustering>
<clus scale="   24.562">  1  9  2 -1</clus>
<clus scale="   90.661">  5  6 -1 -1</clus>
<clus scale="   91.082">  7  8 -1 -1</clus>
<clus scale="  111.431">  2  5  1 -1</clus>
<clus scale="  111.431">  2  5  1 -1</clus>
</clustering>
</event>
<event>
 9    1  0.1748361E-005  0.9866539E+02  0.7546771E-02  0.1284443E+00
         -1   -1    0    0    0  501 -0.00000000000E+00  0.00000000000E+00  0.14311971707E+02  0.14311971707E+02  0.00000000000E+00 0.  1.
          1   -1    0    0  502    0  0.00000000000E+00 -0.00000000000E+00 -0.81819750110E+03  0.81819750110E+03  0.00000000000E+00 0. -1.
         23    2    1    2    0    0  0.14116068072E+02 -0.21962013805E+02 -0.33287574766E+03  0.34600191260E+03  0.90716408183E+02 0.  0.
         23    2    1    2    0    0 -0.40345620363E+01  0.39282918914E+02 -0.40800893960E+03  0.42039586209E+03  0.93284300208E+02 0.  0.
        -13    1    3    3    0    0  0.44846566112E+02  0.12665691935E+02 -0.13624345244E+03  0.14399275182E+03  0.00000000000E+00 0.  1.
         13    1    3    3    0    0 -0.30730498040E+02 -0.34627705740E+02 -0.19663229522E+03  0.20200916078E+03  0.00000000000E+00 0. -1.
        -13    1    4    4    0    0 -0.44818744119E+02  0.21556877355E+01 -0.15047773804E+03  0.15702520963E+03  0.00000000000E+00 0. -1.
         13    1    4    4    0    0  0.40784182083E+02  0.37127231178E+02 -0.25753120156E+03  0.26337065246E+03  0.00000000000E+00 0.  1.
         21    1    1    2  502  501 -0.10081506036E+02 -0.17320905109E+02 -0.63000842132E+02  0.66111698111E+02  0.00000000000E+00 0. -1.
<scales pt_clust_5="13000.00000" pt_clust_6="13000.00000" pt_clust_7="13000.00000" pt_clust_8="13000.00000" pt_clust_9="20.04122"></scales>
<clustering>
<clus scale="   20.041">  1  9  2 -1</clus>
<clus scale="   90.716">  5  6 -1 -1</clus>
<clus scale="   93.284">  7  8 -1 -1</clus>
<clus scale="   96.241">  1  5  2 -1</clus>
<clus scale="   98.665">  2  5  1 -1</clus>
</clustering>
</event>
<event>
 9    1  0.1748361E-005  0.1015069E+03  0.7546771E-02  0.1278911E+00
          1   -1    0    0  502    0  0.00000000000E+00  0.00000000000E+00  0.41756862584E+03  0.41756862584E+03  0.00000000000E+00 0. -1.
         -1   -1    0    0    0  501 -0.00000000000E+00 -0.00000000000E+00 -0.56904132637E+02  0.56904132637E+02  0.00000000000E+00 0.  1.
         23    2    1    2    0    0  0.65413517029E+01 -0.27954511967E+02  0.10852869212E+03  0.14654594015E+03  0.94196557999E+02 0.  0.
         23    2    1    2    0    0 -0.49304444909E+02  0.84847343843E+01  0.26040873939E+03  0.28021732360E+03  0.90587625476E+02 0.  0.
        -11    1    3    3    0    0 -0.19042498372E+01  0.25623285648E+02  0.53826194652E+00  0.25699584837E+02  0.00000000000E+00 0.  1.
         11    1    3    3    0    0  0.84456015401E+01 -0.53577797616E+02  0.10799043017E+03  0.12084635531E+03  0.00000000000E+00 0. -1.
        -13    1    4    4    0    0  0.35489309652E+01  0.24727031000E+02  0.16075814568E+02  0.29706106899E+02  0.00000000000E+00 0.  1.
         13    1    4    4    0    0 -0.52853375874E+02 -0.16242296616E+02  0.24433292482E+03  0.25051121670E+03  0.00000000000E+00 0. -1.
         21    1    1    2  502  501  0.42763093206E+02  0.19469777583E+02 -0.82729383016E+01  0.47709494735E+02  0.00000000000E+00 0.  1.
<scales pt_clust_5="13000.00000" pt_clust_6="13000.00000" pt_clust_7="13000.00000" pt_clust_8="13000.00000" pt_clust_9="46.98675"></scales>
<clustering>
<clus scale="   46.987">  2  9  1 -1</clus>
<clus scale="   90.588">  7  8 -1 -1</clus>
<clus scale="   94.197">  5  6 -1 -1</clus>
<clus scale="   98.167">  1  7  2 -1</clus>
<clus scale="   98.167">  1  5  2 -1</clus>
</clustering>
</event>
<event>
 9    1  0.1748361E-005  0.1254528E+03  0.7546771E-02  0.1234591E+00
         -1   -1    0    0    0  501 -0.00000000000E+00  0.00000000000E+00  0.10161583319E+03  0.10161583319E+03  0.00000000000E+00 0.  1.
          1   -1    0    0  502    0  0.00000000000E+00 -0.00000000000E+00 -0.37441845049E+03  0.37441845049E+03  0.00000000000E+00 0. -1.
         23    2    1    2    0    0 -0.12760035790E+03  0.14633011066E+02 -0.14771986838E+03  0.21618568149E+03  0.91755724723E+02 0.  0.
         23    2    1    2    0    0  0.57179783920E+02  0.35427367237E+02 -0.13119345676E+03  0.17323197869E+03  0.90955864601E+02 0.  0.
        -11    1    4    4    0    0  0.21856997621E+02 -0.30553089828E+02 -0.34911016117E+02  0.51283512841E+02  0.00000000000E+00 0.  1.
         11    1    4    4    0    0  0.35322786298E+02  0.65980457064E+02 -0.96282440642E+02  0.12194846585E+03  0.00000000000E+00 0. -1.
        -13    1    3    3    0    0 -0.81204113030E+02  0.52052953268E+02 -0.75150211070E+02  0.12227498575E+03  0.00000000000E+00 0. -1.
         13    1    3    3    0    0 -0.46396244868E+02 -0.37419942202E+02 -0.72569657308E+02  0.93910695738E+02  0.00000000000E+00 0.  1.
         21    1    1    2  502  501  0.70420573979E+02 -0.50060378303E+02  0.61107078381E+01  0.86616623495E+02  0.00000000000E+00 0.  1.
<scales pt_clust_5="13000.00000" pt_clust_6="13000.00000" pt_clust_7="13000.00000" pt_clust_8="13000.00000" pt_clust_9="86.40080"></scales>
<clustering>
<clus scale="   86.401">  1  9  2 -1</clus>
<clus scale="   90.956">  5  6 -1 -1</clus>
<clus scale="   91.756">  7  8 -1 -1</clus>
<clus scale="  124.869">  2  5  1 -1</clus>
<clus scale="  124.869">  2  5  1 -1</clus>
</clustering>
</event>
<event>
 9    1  0.1748361E-005  0.1112778E+03  0.7546771E-02  0.1261246E+00
          1   -1    0    0  502    0  0.00000000000E+00  0.00000000000E+00  0.36905929395E+03  0.36905929395E+03  0.00000000000E+00 0. -1.
         -1   -1    0    0    0  501 -0.00000000000E+00 -0.00000000000E+00 -0.62804283170E+02  0.62804283170E+02  0.00000000000E+00 0.  1.
         23    2    1    2    0    0  0.18018328796E+02 -0.68450112143E+02  0.42209738920E+02  0.12822006027E+03  0.98227510254E+02 0.  0.
         23    2    1    2    0    0  0.85131211514E+01  0.48215190354E+02  0.24344501719E+03  0.26442948379E+03  0.90886179887E+02 0.  0.
        -11    1    4    4    0    0  0.44704650261E+02  0.38017202167E+02  0.19159427001E+03  0.20038008314E+03  0.00000000000E+00 0. -1.
         11    1    4    4    0    0 -0.36191529110E+02  0.10197988188E+02  0.51850747172E+02  0.64049400658E+02  0.00000000000E+00 0.  1.
        -13    1    3    3    0    0  0.34315274732E+02 -0.48394689775E+02  0.68999768321E+02  0.90997539014E+02  0.00000000000E+00 0. -1.
         13    1    3    3    0    0 -0.16296945937E+02 -0.20055422368E+02 -0.26790029401E+02  0.37222521254E+02  0.00000000000E+00 0.  1.
         21    1    1    2  502  501 -0.26531449947E+02  0.20234921788E+02  0.20600254678E+02  0.39214033060E+02  0.00000000000E+00 0.  1.
<scales pt_clust_5="13000.00000" pt_clust_6="13000.00000" pt_clust_7="13000.00000" pt_clust_8="13000.00000" pt_clust_9="33.36720"></scales>
<clustering>
<clus scale="   33.367">  2  9  1 -1</clus>
<clus scale="   90.886">  5  6 -1 -1</clus>
<clus scale="   98.228">  7  8 -1 -1</clus>
<clus scale="  104.854">  1  5  2 -1</clus>
<clus scale="  104.854">  1  5  2 -1</clus>
</clustering>
</event>
<event>
 9    1  0.1748361E-005  0.2121588E+03  0.7546771E-02  0.1140131E+00
         -1   -1    0    0    0  501 -0.00000000000E+00  0.00000000000E+00  0.14829974878E+03  0.14829974878E+03  0.00000000000E+00 0.  1.
          1   -1    0    0  502    0  0.00000000000E+00 -0.00000000000E+00 -0.41062916589E+03  0.41062916589E+03  0.00000000000E+00 0. -1.
         23    2    1    2    0    0  0.16789348250E+03  0.30685848884E+01 -0.70768399655E+02  0.20263142262E+03  0.88621043569E+02 0.  0.
         23    2    1    2    0    0 -0.20804631868E+03 -0.52682645813E+02 -0.17062262666E+03  0.28912442078E+03  0.91772098585E+02 0.  0.
        -13    1    3    3    0    0  0.75757244433E+02  0.44025728403E+02 -0.45285536859E+02  0.98631661723E+02  0.00000000000E+00 0.  1.
         13    1    3    3    0    0  0.92136238070E+02 -0.40957143515E+02 -0.25482862795E+02  0.10399976090E+03  0.00000000000E+00 0. -1.
        -13    1    4    4    0    0 -0.37291723144E+02  0.21529085429E+02 -0.12451766188E+02  0.44824330621E+02  0.00000000000E+00 0.  1.
         13    1    4    4    0    0 -0.17075459553E+03 -0.74211731242E+02 -0.15817086047E+03  0.24430009016E+03  0.00000000000E+00 0. -1.
         21    1    1    2  502  501  0.40152836172E+02  0.49614060925E+02 -0.20938390795E+02  0.67173071265E+02  0.00000000000E+00 0. -1.
<scales pt_clust_5="13000.00000" pt_clust_6="13000.00000" pt_clust_7="13000.00000" pt_clust_8="13000.00000" pt_clust_9="63.82637"></scales>
<clustering>
<clus scale="   63.826">  1  9  2 -1</clus>
<clus scale="   88.621">  5  6 -1 -1</clus>
<clus scale="   91.772">  7  8 -1 -1</clus>
<clus scale="  210.815">  1  5  2 -1</clus>
<clus scale="  212.159">  2  5  1 -1</clus>
</clustering>
</event>
<event>
 9    1  0.1748361E-005  0.9406681E+02  0.7546771E-02  0.1293396E+00
         -3   -1    0    0    0  501 -0.00000000000E+00  0.00000000000E+00  0.34785808302E+03  0.34785808302E+03  0.00000000000E+00 0.  1.
          3   -1    0    0  502    0  0.00000000000E+00 -0.00000000000E+00 -0.40595411800E+02  0.40595411800E+02  0.00000000000E+00 0. -1.
         23    2    1    2    0    0 -0.15392235293E+00  0.21408226061E+01  0.12581185034E+03  0.15551435009E+03  0.91386457331E+02 0.  0.
         23    2    1    2    0    0 -0.54142668121E+01 -0.35709087428E+02  0.82956799489E+02  0.12873307301E+03  0.91574670601E+02 0.  0.
        -13    1    3    3    0    0  0.42447662498E+02  0.14411250479E+02  0.80386113134E+02  0.92040292137E+02  0.00000000000E+00 0.  1.
         13    1    3    3    0    0 -0.42601584851E+02 -0.12270427873E+02  0.45425737206E+02  0.63474057951E+02  0.00000000000E+00 0. -1.
        -13    1    4    4    0    0 -0.11225185082E+02 -0.66040695676E+02  0.50176872477E+02  0.83696456300E+02  0.00000000000E+00 0. -1.
         13    1    4    4    0    0  0.58109182694E+01  0.30331608248E+02  0.32779927011E+02  0.45036616713E+02  0.00000000000E+00 0.  1.
         21    1    1    2  502  501  0.55681891650E+01  0.33568264822E+02  0.98494021392E+02  0.10420607172E+03  0.00000000000E+00 0.  1.
<scales pt_clust_5="13000.00000" pt_clust_6="13000.00000" pt_clust_7="13000.00000" pt_clust_8="13000.00000" pt_clust_9="34.02695"></scales>
<clustering>
<clus scale="   34.027">  1  9  2 -1</clus>
<clus scale="   91.386">  5  6 -1 -1</clus>
<clus scale="   91.575">  7  8 -1 -1</clus>
<clus scale="   93.884">  1  5  2 -1</clus>
<clus scale="   94.067">  2  5  1 -1</clus>
</clustering>
</event>
<event>
 9    1  0.1748361E-005  0.1120949E+03  0.7546771E-02  0.1257206E+00
         -2   -1    0    0    0  501 -0.00000000000E+00  0.00000000000E+00  0.11297562890E+03  0.11297562890E+03  0.00000000000E+00 0.  1.
          2   -1    0    0  502    0  0.00000000000E+00 -0.00000000000E+00 -0.24210304561E+03  0.24210304561E+03  0.00000000000E+00 0. -1.
         23    2    1    2    0    0  0.85340090913E+02  0.19643305286E+02  0.10746194444E+02  0.12631578723E+03  0.90395834251E+02 0.  0.
         23    2    1    2    0    0 -0.54220042215E+02 -0.23505399765E+02 -0.15842138092E+03  0.19232948271E+03  0.91656855666E+02 0.  0.
        -13    1    3    3    0    0  0.22402387350E+02  0.37816930043E+02  0.35281473460E+02  0.56362838168E+02  0.00000000000E+00 0.  1.
         13    1    3    3    0    0  0.62937703563E+02 -0.18173624758E+02 -0.24535279016E+02  0.69952949065E+02  0.00000000000E+00 0. -1.
        -13    1    4    4    0    0  0.35571829699E+01  0.29991682123E+02 -0.40064439197E+02  0.50172839619E+02  0.00000000000E+00 0.  1.
         13    1    4    4    0    0 -0.57777225185E+02 -0.53497081888E+02 -0.11835694172E+03  0.14215664309E+03  0.00000000000E+00 0. -1.
         21    1    1    2  502  501 -0.31120048697E+02  0.38620944796E+01  0.18547769765E+02  0.36433404562E+02  0.00000000000E+00 0. -1.
<scales pt_clust_5="13000.00000" pt_clust_6="13000.00000" pt_clust_7="13000.00000" pt_clust_8="13000.00000" pt_clust_9="31.35878"></scales>
<clustering>
<clus scale="   31.359">  1  9  2 -1</clus>
<clus scale="   90.396">  5  6 -1 -1</clus>
<clus scale="   91.657">  7  8 -1 -1</clus>
<clus scale="  111.066">  1  5  2 -1</clus>
<clus scale="  112.095">  2  5  1 -1</clus>
</clustering>
</event>
<event>
 9    1  0.1748361E-005  0.9378921E+02  0.7546771E-02  0.1294327E+00
          1   -1    0    0  502    0  0.00000000000E+00  0.00000000000E+00  0.87759712937E+02  0.87759712937E+02  0.00000000000E+00 0. -1.
         -1   -1    0    0    0  501 -0.00000000000E+00 -0.00000000000E+00 -0.27760226100E+03  0.27760226100E+03  0.00000000000E+00 0.  1.
         23    2    1    2    0    0  0.61780422538E+01  0.13317301328E+01 -0.51971399196E+02  0.10441676454E+03  0.90343193830E+02 0.  0.
         23    2    1    2    0    0 -0.26776558953E+02 -0.14423095926E+02  0.22599089615E+02  0.98629528740E+02  0.91060723051E+02 0.  0.
        -11    1    4    4    0    0  0.32027051313E+02 -0.60262645984E+01 -0.52771132057E+01  0.33013570007E+02  0.00000000000E+00 0.  1.
         11    1    4    4    0    0 -0.58803610266E+02 -0.83968313278E+01  0.27876202821E+02  0.65615958733E+02  0.00000000000E+00 0. -1.
        -11    1    3    3    0    0 -0.19310490140E+02  0.35882371941E+02 -0.54509932114E+01  0.41111470085E+02  0.00000000000E+00 0. -1.
         11    1    3    3    0    0  0.25488532394E+02 -0.34550641808E+02 -0.46520405985E+02  0.63305294454E+02  0.00000000000E+00 0.  1.
         21    1    1    2  502  501  0.20598516699E+02  0.13091365793E+02 -0.16047023848E+03  0.16231568066E+03  0.00000000000E+00 0.  1.
<scales pt_clust_5="13000.00000" pt_clust_6="13000.00000" pt_clust_7="13000.00000" pt_clust_8="13000.00000" pt_clust_9="24.40661"></scales>
<clustering>
<clus scale="   24.407">  2  9  1 -1</clus>
<clus scale="   90.343">  7  8 -1 -1</clus>
<clus scale="   91.061">  5  6 -1 -1</clus>
<clus scale="   93.093">  2  7  1 -1</clus>
<clus scale="   93.789">  1  5  2 -1</clus>
</clustering>
</event>
<event>
 9    1  0.1748361E-005  0.3348923E+03  0.7546771E-02  0.1069094E+00
         -1   -1    0    0    0  501 -0.00000000000E+00  0.00000000000E+00  0.10890518107E+04  0.10890518107E+04  0.00000000000E+00 0.  1.
          1   -1    0    0  502    0  0.00000000000E+00 -0.00000000000E+00 -0.29302439933E+03  0.29302439933E+03  0.00000000000E+00 0. -1.
         23    2    1    2    0    0  0.19157908908E+03  0.24417249883E+03  0.68738028669E+03  0.75968490214E+03  0.91141293848E+02 0.  0.
         23    2    1    2    0    0 -0.35815148614E+03 -0.20903902075E+03  0.65830064572E+01  0.42390249469E+03  0.87636692126E+02 0.  0.
        -13    1    4    4    0    0 -0.37091898307E+02 -0.57750881049E+02  0.69105009791E+01  0.68983535758E+02  0.00000000000E+00 0.  1.
         13    1    4    4    0    0 -0.32105958784E+03 -0.15128813970E+03 -0.32749452185E+00  0.35491895893E+03  0.00000000000E+00 0. -1.
        -13    1    3    3    0    0  0.13103170345E+03  0.95289228568E+02  0.31965547252E+03  0.35836987248E+03  0.00000000000E+00 0.  1.
         13    1    3    3    0    0  0.60547385635E+02  0.14888327027E+03  0.36772481417E+03  0.40131502966E+03  0.00000000000E+00 0. -1.
         21    1    1    2  502  501  0.16657239706E+03 -0.35133478084E+02  0.10206411824E+03  0.19848881323E+03  0.00000000000E+00 0. -1.
<scales pt_clust_5="13000.00000" pt_clust_6="13000.00000" pt_clust_7="13000.00000" pt_clust_8="13000.00000" pt_clust_9="170.23726"></scales>
<clustering>
<clus scale="   87.637">  5  6 -1 -1</clus>
<clus scale="   91.141">  7  8 -1 -1</clus>
<clus scale="  170.237">  2  9  1 -1</clus>
<clus scale="  333.956">  2  5  1 -1</clus>
<clus scale="  170.237">  2  5  1 -1</clus>
</clustering>
</event>
<event>
 9    1  0.1748361E-005  0.1150286E+03  0.7546771E-02  0.1252177E+00
         -2   -1    0    0    0  501 -0.00000000000E+00  0.00000000000E+00  0.17195139262E+03  0.17195139262E+03  0.00000000000E+00 0.  1.
          2   -1    0    0  502    0  0.00000000000E+00 -0.00000000000E+00 -0.33161004912E+03  0.33161004912E+03  0.00000000000E+00 0. -1.
         23    2    1    2    0    0  0.37491419069E+02 -0.81965162122E+02  0.92242402304E+02  0.15891654102E+03  0.92854250957E+02 0.  0.
         23    2    1    2    0    0 -0.34338974412E+02  0.56405161967E+02 -0.28284799040E+03  0.30438370239E+03  0.91026068530E+02 0.  0.
        -11    1    4    4    0    0  0.52306049712E+01  0.66893163765E+02 -0.21413448441E+03  0.22440060606E+03  0.00000000000E+00 0. -1.
         11    1    4    4    0    0 -0.39569579383E+02 -0.10488001798E+02 -0.68713505990E+02  0.79983096338E+02  0.00000000000E+00 0.  1.
        -11    1    3    3    0    0  0.35481713259E+02  0.88920237464E+01  0.39524195618E+02  0.53853338813E+02  0.00000000000E+00 0. -1.
         11    1    3    3    0    0  0.20097058107E+01 -0.90857185868E+02  0.52718206686E+02  0.10506320220E+03  0.00000000000E+00 0.  1.
         21    1    1    2  502  501 -0.31524446576E+01  0.25560000155E+02  0.30946931597E+02  0.40261198325E+02  0.00000000000E+00 0. -1.
<scales pt_clust_5="13000.00000" pt_clust_6="13000.00000" pt_clust_7="13000.00000" pt_clust_8="13000.00000" pt_clust_9="25.75367"></scales>
<clustering>
<clus scale="   25.754">  1  9  2 -1</clus>
<clus scale="   91.026">  5  6 -1 -1</clus>
<clus scale="   92.854">  7  8 -1 -1</clus>
<clus scale="  113.558">  2  5  1 -1</clus>
<clus scale="  113.558">  2  5  1 -1</clus>
</clustering>
</event>
<event>
 9    1  0.1748361E-005  0.1988473E+03  0.7546771E-02  0.1152379E+00
          1   -1    0    0  502    0  0.00000000000E+00  0.00000000000E+00  0.46255957786E+03  0.46255957786E+03  0.00000000000E+00 0. -1.
         -1   -1    0    0    0  501 -0.00000000000E+00 -0.00000000000E+00 -0.44724183204E+03  0.44724183204E+03  0.00000000000E+00 0.  1.
         23    2    1    2    0    0  0.36611668916E+02  0.13470522917E+03  0.78961973090E+02  0.19179062149E+03  0.10517954283E+03 0.  0.
         23    2    1    2    0    0  0.17239112557E+01 -0.18826086033E+03  0.29058431331E+03  0.35771135558E+03  0.89850138386E+02 0.  0.
        -13    1    3    3    0    0 -0.20790755541E+02  0.61656043342E+02 -0.67131082630E+01  0.65412453089E+02  0.00000000000E+00 0.  1.
         13    1    3    3    0    0  0.57402424457E+02  0.73049185832E+02  0.85675081353E+02  0.12637816840E+03  0.00000000000E+00 0. -1.
        -13    1    4    4    0    0  0.39683824671E+02 -0.10534704056E+03  0.12171281728E+03  0.16579147984E+03  0.00000000000E+00 0. -1.
         13    1    4    4    0    0 -0.37959913416E+02 -0.82913819765E+02  0.16887149603E+03  0.19191987574E+03  0.00000000000E+00 0.  1.
         21    1    1    2  502  501 -0.38335580172E+02  0.53555631153E+02 -0.35422854058E+03  0.36029943283E+03  0.00000000000E+00 0.  1.
<scales pt_clust_5="13000.00000" pt_clust_6="13000.00000" pt_clust_7="13000.00000" pt_clust_8="13000.00000" pt_clust_9="65.86215"></scales>
<clustering>
<clus scale="   65.862">  2  9  1 -1</clus>
<clus scale="   89.850">  7  8 -1 -1</clus>
<clus scale="  105.180">  5  6 -1 -1</clus>
<clus scale="  191.182">  1  7  2 -1</clus>
<clus scale="  191.182">  1  5  2 -1</clus>
</clustering>
</event>
<event>
 9    1  0.1748361E-005  0.1184329E+03  0.7546771E-02  0.1245828E+00
          2   -1    0    0  502    0  0.00000000000E+00  0.00000000000E+00  0.45277010295E+03  0.45277010295E+03  0.00000000000E+00 0. -1.
         -2   -1    0    0    0  501 -0.00000000000E+00 -0.00000000000E+00 -0.26491176541E+03  0.26491176541E+03  0.00000000000E+00 0.  1.
         23    2    1    2    0    0 -0.26945254562E+02  0.65909908957E+02 -0.17596426353E+03  0.21111553679E+03  0.92391476841E+02 0.  0.
         23    2    1    2    0    0  0.59351010192E+02 -0.44441164567E+02  0.42099892440E+03  0.43742754410E+03  0.92764230577E+02 0.  0.
        -13    1    3    3    0    0 -0.38378061199E+02  0.30778662445E+02 -0.16558790238E+03  0.17274129517E+03  0.00000000000E+00 0.  1.
         13    1    3    3    0    0  0.11432806637E+02  0.35131246512E+02 -0.10376361150E+02  0.38374241619E+02  0.00000000000E+00 0. -1.
        -13    1    4    4    0    0 -0.34583159615E+01  0.23512854354E+02  0.55059116310E+02  0.59969330145E+02  0.00000000000E+00 0.  1.
         13    1    4    4    0    0  0.62809326154E+02 -0.67954018920E+02  0.36593980809E+03  0.37745821396E+03  0.00000000000E+00 0. -1.
         21    1    1    2  502  501 -0.32405755630E+02 -0.21468744390E+02 -0.57176323326E+02  0.69138787469E+02  0.00000000000E+00 0.  1.
<scales pt_clust_5="13000.00000" pt_clust_6="13000.00000" pt_clust_7="13000.00000" pt_clust_8="13000.00000" pt_clust_9="38.87210"></scales>
<clustering>
<clus scale="   38.872">  2  9  1 -1</clus>
<clus scale="   92.391">  5  6 -1 -1</clus>
<clus scale="   92.764">  7  8 -1 -1</clus>
<clus scale="  118.141">  2  5  1 -1</clus>
<clus scale="  118.433">  1  5  2 -1</clus>
</clustering>
</event>
<event>
 9    1  0.1748361E-005  0.1572882E+03  0.7546771E-02  0.1191911E+00
          1   -1    0    0  502    0  0.00000000000E+00  0.00000000000E+00  0.15992506052E+03  0.15992506052E+03  0.00000000000E+00 0. -1.
         -1   -1    0    0    0  501 -0.00000000000E+00 -0.00000000000E+00 -0.39269582583E+03  0.39269582583E+03  0.00000000000E+00 0.  1.
         23    2    1    2    0    0  0.97532577051E+02  0.36523511905E+02 -0.30125809151E+03  0.33150060145E+03  0.91047463215E+02 0.  0.
         23    2    1    2    0    0 -0.12851679296E+03 -0.27536304847E+02  0.88555871638E+02  0.18312636377E+03  0.91751340857E+02 0.  0.
        -11    1    3    3    0    0  0.19849526230E+02 -0.29699738192E+02 -0.91397110850E+02  0.98130066808E+02  0.00000000000E+00 0. -1.
         11    1    3    3    0    0  0.77683050822E+02  0.66223250097E+02 -0.20986098066E+03  0.23337053464E+03  0.00000000000E+00 0.  1.
        -11    1    4    4    0    0 -0.22496138641E+02  0.26193484320E+02 -0.62135060991E+00  0.34533475805E+02  0.00000000000E+00 0.  1.
         11    1    4    4    0    0 -0.10602065432E+03 -0.53729789167E+02  0.89177222248E+02  0.14859288796E+03  0.00000000000E+00 0. -1.
         21    1    1    2  502  501  0.30984215908E+02 -0.89872070576E+01 -0.20068545450E+02  0.37993921127E+02  0.00000000000E+00 0.  1.
<scales pt_clust_5="13000.00000" pt_clust_6="13000.00000" pt_clust_7="13000.00000" pt_clust_8="13000.00000" pt_clust_9="32.26130"></scales>
<clustering>
<clus scale="   32.261">  2  9  1 -1</clus>
<clus scale="   91.047">  5  6 -1 -1</clus>
<clus scale="   91.751">  7  8 -1 -1</clus>
<clus scale="  156.879">  2  5  1 -1</clus>
<clus scale="  157.288">  1  5  2 -1</clus>
</clustering>
</event>
<event>
 9    1  0.1748361E-005  0.1105610E+03  0.7546771E-02  0.1259986E+00
         -1   -1    0    0    0  501 -0.00000000000E+00  0.00000000000E+00  0.45187690156E+02  0.45187690156E+02  0.00000000000E+00 0.  1.
          1   -1    0    0  502    0  0.00000000000E+00 -0.00000000000E+00 -0.42116783563E+03  0.42116783563E+03  0.00000000000E+00 0. -1.
         23    2    1    2    0    0 -0.69245420355E+00 -0.66940727548E+02 -0.71081966159E+02  0.13317531011E+03  0.90562005346E+02 0.  0.
         23    2    1    2    0    0  0.19827971434E+02  0.57454528321E+02 -0.27689318137E+03  0.29796039305E+03  0.91740888731E+02 0.  0.
        -13    1    3    3    0    0 -0.38117756936E+02 -0.43369613561E+01 -0.15091817842E+02  0.41225424115E+02  0.00000000000E+00 0.  1.
         13    1    3    3    0    0  0.37425302733E+02 -0.62603766192E+02 -0.55990148316E+02  0.91949885995E+02  0.00000000000E+00 0. -1.
        -13    1    4    4    0    0 -0.17513503239E+02  0.62350720852E+02 -0.11737565675E+03  0.13405737571E+03  0.00000000000E+00 0.  1.
         13    1    4    4    0    0  0.37341474673E+02 -0.48961925315E+01 -0.15951752462E+03  0.16390301734E+03  0.00000000000E+00 0. -1.
         21    1    1    2  502  501 -0.19135517230E+02  0.94861992269E+01 -0.28004997945E+02  0.35219822619E+02  0.00000000000E+00 0.  1.
<scales pt_clust_5="13000.00000" pt_clust_6="13000.00000" pt_clust_7="13000.00000" pt_clust_8="13000.00000" pt_clust_9="21.35781"></scales>
<clustering>
<clus scale="   21.358">  1  9  2 -1</clus>
<clus scale="   90.562">  5  6 -1 -1</clus>
<clus scale="   91.741">  7  8 -1 -1</clus>
<clus scale="  109.585">  1  5  2 -1</clus>
<clus scale="  110.561">  2  5  1 -1</clus>
</clustering>
</event>
<event>
 9    1  0.1748361E-005  0.1265441E+03  0.7546771E-02  0.1232811E+00
          3   -1    0    0  502    0  0.00000000000E+00  0.00000000000E+00  0.15347807585E+03  0.15347807585E+03  0.00000000000E+00 0. -1.
         -3   -1    0    0    0  501 -0.00000000000E+00 -0.00000000000E+00 -0.21043049175E+03  0.21043049175E+03  0.00000000000E+00 0.  1.
         23    2    1    2    0    0  0.22926779636E+02 -0.38279539667E+02 -0.94097798492E+02  0.13879978756E+03  0.91760694005E+02 0.  0.
         23    2    1    2    0    0 -0.20406148014E+02  0.10072208254E+03  0.69652004394E+02  0.15466656822E+03  0.92244223780E+02 0.  0.
        -11    1    3    3    0    0 -0.21042602965E+02  0.10677724051E+02 -0.60450365141E+02  0.64892615729E+02  0.00000000000E+00 0. -1.
         11    1    3    3    0    0  0.43969382601E+02 -0.48957263718E+02 -0.33647433351E+02  0.73907171832E+02  0.00000000000E+00 0.  1.
        -13    1    4    4    0    0  0.25487666084E+02  0.84905003654E+02  0.36418733180E+02  0.95837387769E+02  0.00000000000E+00 0. -1.
         13    1    4    4    0    0 -0.45893814099E+02  0.15817078887E+02  0.33233271214E+02  0.58829180452E+02  0.00000000000E+00 0.  1.
         21    1    1    2  502  501 -0.25206316215E+01 -0.62442542874E+02 -0.32506621801E+02  0.70442211815E+02  0.00000000000E+00 0.  1.
<scales pt_clust_5="13000.00000" pt_clust_6="13000.00000" pt_clust_7="13000.00000" pt_clust_8="13000.00000" pt_clust_9="62.49340"></scales>
<clustering>
<clus scale="   62.493">  2  9  1 -1</clus>
<clus scale="   91.761">  5  6 -1 -1</clus>
<clus scale="   92.244">  7  8 -1 -1</clus>
<clus scale="  126.192">  2  5  1 -1</clus>
<clus scale="  126.544">  1  5  2 -1</clus>
</clustering>
</event>
<event>
 9    1  0.1748361E-005  0.1079714E+03  0.7546771E-02  0.1265581E+00
         -1   -1    0    0    0  501 -0.00000000000E+00  0.00000000000E+00  0.30128684687E+02  0.30128684687E+02  0.00000000000E+00 0.  1.
          1   -1    0    0  502    0  0.00000000000E+00 -0.00000000000E+00 -0.78224835898E+03  0.78224835898E+03  0.00000000000E+00 0. -1.
         23    2    1    2    0    0 -0.92904124752E+02 -0.19853056064E+02 -0.39538013445E+03  0.41719197626E+03  0.93265074432E+02 0.  0.
         23    2    1    2    0    0  0.20094757077E+02  0.93117984875E+01 -0.23763022794E+03  0.25518738773E+03  0.90343615003E+02 0.  0.
        -11    1    4    4    0    0  0.27035648047E+02  0.39121694921E+02 -0.20502212844E+03  0.21046497673E+03  0.00000000000E+00 0. -1.
         11    1    4    4    0    0 -0.69408909701E+01 -0.29809896434E+02 -0.32608099504E+02  0.44722411005E+02  0.00000000000E+00 0.  1.
        -13    1    3    3    0    0 -0.87931053973E+02  0.17113362066E+02 -0.32976906978E+03  0.34171973429E+03  0.00000000000E+00 0. -1.
         13    1    3    3    0    0 -0.49730707790E+01 -0.36966418131E+02 -0.65611064668E+02  0.75472241979E+02  0.00000000000E+00 0.  1.
         21    1    1    2  502  501  0.72809367675E+02  0.10541257577E+02 -0.11910931190E+03  0.13999767967E+03  0.00000000000E+00 0. -1.
<scales pt_clust_5="13000.00000" pt_clust_6="13000.00000" pt_clust_7="13000.00000" pt_clust_8="13000.00000" pt_clust_9="73.56849"></scales>
<clustering>
<clus scale="   73.568">  1  9  2 -1</clus>
<clus scale="   90.344">  5  6 -1 -1</clus>
<clus scale="   93.265">  7  8 -1 -1</clus>
<clus scale="  105.458">  2  5  1 -1</clus>
<clus scale="  105.458">  2  5  1 -1</clus>
</clustering>
</event>
<event>
 9    1  0.1748361E-005  0.1109462E+03  0.7546771E-02  0.1259002E+00
         -3   -1    0    0    0  501 -0.00000000000E+00  0.00000000000E+00  0.59283820091E+02  0.59283820091E+02  0.00000000000E+00 0.  1.
          3   -1    0    0  502    0  0.00000000000E+00 -0.00000000000E+00 -0.33143581412E+03  0.33143581412E+03  0.00000000000E+00 0. -1.
         23    2    1    2    0    0 -0.15976052963E+02  0.66111514154E+02 -0.44149803115E+02  0.12237377780E+03  0.91652440261E+02 0.  0.
         23    2    1    2    0    0  0.37471149345E+02 -0.49436197333E+02 -0.20471776103E+03  0.23253705813E+03  0.91192637207E+02 0.  0.
        -11    1    3    3    0    0 -0.35670332964E+02  0.60288850075E+02  0.38587509771E+01  0.70157024283E+02  0.00000000000E+00 0.  1.
         11    1    3    3    0    0  0.19694280001E+02  0.58226640791E+01 -0.48008554092E+02  0.52216753516E+02  0.00000000000E+00 0. -1.
        -11    1    4    4    0    0  0.23126420260E+02  0.18775807995E+02 -0.22167332764E+02  0.37131562340E+02  0.00000000000E+00 0.  1.
         11    1    4    4    0    0  0.14344729084E+02 -0.68212005328E+02 -0.18255042827E+03  0.19540549579E+03  0.00000000000E+00 0. -1.
         21    1    1    2  502  501 -0.21495096382E+02 -0.16675316821E+02 -0.23284429876E+02  0.35808798279E+02  0.00000000000E+00 0.  1.
<scales pt_clust_5="13000.00000" pt_clust_6="13000.00000" pt_clust_7="13000.00000" pt_clust_8="13000.00000" pt_clust_9="27.20488"></scales>
<clustering>
<clus scale="   27.205">  1  9  2 -1</clus>
<clus scale="   91.193">  7  8 -1 -1</clus>
<clus scale="   91.652">  5  6 -1 -1</clus>
<clus scale="  110.567">  2  7  1 -1</clus>
<clus scale="  110.567">  2  5  1 -1</clus>
</clustering>
</event>
<event>
 9    1  0.1748361E-005  0.1250068E+03  0.7546771E-02  0.1235349E+00
          2   -1    0    0  502    0  0.00000000000E+00  0.00000000000E+00  0.36348595597E+03  0.36348595597E+03  0.00000000000E+00 0. -1.
         -2   -1    0    0    0  501 -0.00000000000E+00 -0.00000000000E+00 -0.15373988980E+03  0.15373988980E+03  0.00000000000E+00 0.  1.
         23    2    1    2    0    0  0.76300912073E+02  0.59655580802E+01 -0.87358831964E+02  0.14750075674E+03  0.90925742509E+02 0.  0.
         23    2    1    2    0    0 -0.83444117884E+02  0.25483704575E+02  0.31048610016E+03  0.33480893119E+03  0.89905850792E+02 0.  0.
        -11    1    4    4    0    0 -0.68956615758E+02  0.74725347153E+01  0.30250545745E+03  0.31035528902E+03  0.00000000000E+00 0. -1.
         11    1    4    4    0    0 -0.14487502126E+02  0.18011169860E+02  0.79806427014E+01  0.24453642172E+02  0.00000000000E+00 0.  1.
        -13    1    3    3    0    0 -0.14393563013E+02  0.22299513638E+02 -0.22718955360E+02  0.34936998974E+02  0.00000000000E+00 0. -1.
         13    1    3    3    0    0  0.90694475086E+02 -0.16333955558E+02 -0.64639876604E+02  0.11256375777E+03  0.00000000000E+00 0.  1.
         21    1    1    2  502  501  0.71432058114E+01 -0.31449262655E+02 -0.13381202023E+02  0.34916157841E+02  0.00000000000E+00 0.  1.
<scales pt_clust_5="13000.00000" pt_clust_6="13000.00000" pt_clust_7="13000.00000" pt_clust_8="13000.00000" pt_clust_9="32.25029"></scales>
<clustering>
<clus scale="   32.250">  2  9  1 -1</clus>
<clus scale="   89.906">  5  6 -1 -1</clus>
<clus scale="   90.926">  7  8 -1 -1</clus>
<clus scale="  124.267">  1  5  2 -1</clus>
<clus scale="  124.267">  1  5  2 -1</clus>
</clustering>
</event>
<event>
 9    1  0.1748361E-005  0.9352392E+02  0.7546771E-02  0.1295030E+00
         -2   -1    0    0    0  501 -0.00000000000E+00  0.00000000000E+00  0.17143872134E+03  0.17143872134E+03  0.00000000000E+00 0.  1.
          2   -1    0    0  502    0  0.00000000000E+00 -0.00000000000E+00 -0.16832537995E+03  0.16832537995E+03  0.00000000000E+00 0. -1.
         23    2    1    2    0    0 -0.11114170319E+02 -0.82071001163E+01 -0.52473696835E+02  0.10656182017E+03  0.91711784329E+02 0.  0.
         23    2    1    2    0    0  0.80443300999E+01 -0.26647842864E+02 -0.59094596475E+02  0.11330162096E+03  0.92575737657E+02 0.  0.
        -13    1    4    4    0    0  0.19163672624E+02  0.29027890058E+02 -0.40881804241E+02  0.53676686444E+02  0.00000000000E+00 0.  1.
         13    1    4    4    0    0 -0.11119342524E+02 -0.55675732922E+02 -0.18212792234E+02  0.59624934511E+02  0.00000000000E+00 0. -1.
        -13    1    3    3    0    0  0.40022472772E+02 -0.46763451839E+01 -0.14714979885E+02  0.42897519323E+02  0.00000000000E+00 0.  1.
         13    1    3    3    0    0 -0.51136643091E+02 -0.35307549324E+01 -0.37758716950E+02  0.63664300850E+02  0.00000000000E+00 0. -1.
         21    1    1    2  502  501  0.30698402192E+01  0.34854942980E+02  0.11468163470E+03  0.11990066016E+03  0.00000000000E+00 0.  1.
<scales pt_clust_5="13000.00000" pt_clust_6="13000.00000" pt_clust_7="13000.00000" pt_clust_8="13000.00000" pt_clust_9="34.98987"></scales>
<clustering>
<clus scale="   34.990">  1  9  2 -1</clus>
<clus scale="   91.712">  7  8 -1 -1</clus>
<clus scale="   92.576">  5  6 -1 -1</clus>
<clus scale="   92.669">  1  7  2 -1</clus>
<clus scale="   93.524">  2  5  1 -1</clus>
</clustering>
</event>
<event>
 9    1  0.1748361E-005  0.1006996E+03  0.7546771E-02  0.1280705E+00
         -1   -1    0    0    0  501 -0.00000000000E+00  0.00000000000E+00  0.16518913058E+03  0.16518913058E+03  0.00000000000E+00 0.  1.
          1   -1    0    0  502    0  0.00000000000E+00 -0.00000000000E+00 -0.10797704642E+03  0.10797704642E+03  0.00000000000E+00 0. -1.
         23    2    1    2    0    0 -0.67623842937E+01  0.19954464145E+02  0.72225307065E+02  0.12062241595E+03  0.94283411941E+02 0.  0.
         23    2    1    2    0    0 -0.32518649192E+02 -0.30688707260E+02 -0.35437513756E+02  0.10698747473E+03  0.90505486410E+02 0.  0.
        -11    1    3    3    0    0 -0.25290772941E+01  0.52884422149E+02  0.69416351533E+02  0.87302853321E+02  0.00000000000E+00 0.  1.
         11    1    3    3    0    0 -0.42333069996E+01 -0.32929958003E+02  0.28089555321E+01  0.33319562624E+02  0.00000000000E+00 0. -1.
        -11    1    4    4    0    0 -0.45816187316E+02  0.18401882978E+02 -0.11106225651E+02  0.50607317312E+02  0.00000000000E+00 0.  1.
         11    1    4    4    0    0  0.13297538124E+02 -0.49090590238E+02 -0.24331288105E+02  0.56380157422E+02  0.00000000000E+00 0. -1.
         21    1    1    2  502  501  0.39281033486E+02  0.10734243115E+02  0.20424290850E+02  0.45556286324E+02  0.00000000000E+00 0. -1.
<scales pt_clust_5="13000.00000" pt_clust_6="13000.00000" pt_clust_7="13000.00000" pt_clust_8="13000.00000" pt_clust_9="40.72129"></scales>
<clustering>
<clus scale="   40.721">  1  9  2 -1</clus>
<clus scale="   90.505">  7  8 -1 -1</clus>
<clus scale="   94.283">  5  6 -1 -1</clus>
<clus scale="   97.171">  2  7  1 -1</clus>
<clus scale="   97.171">  2  5  1 -1</clus>
</clustering>
</event>
<event>
 9    1  0.1748361E-005  0.1506042E+03  0.7546771E-02  0.1199961E+00
          1   -1    0    0  502    0  0.00000000000E+00  0.00000000000E+00  0.66871446244E+03  0.66871446244E+03  0.00000000000E+00 0. -1.
         -1   -1    0    0    0  501 -0.00000000000E+00 -0.00000000000E+00 -0.95634089414E+02  0.95634089414E+02  0.00000000000E+00 0.  1.
         23    2    1    2    0    0  0.94210985240E+02 -0.78473064775E+02  0.27269178407E+03  0.31303150265E+03  0.92704805248E+02 0.  0.
         23    2    1    2    0    0 -0.11250265751E+03  0.39069942292E+02  0.35268699844E+03  0.38332944026E+03  0.91487882067E+02 0.  0.
        -13    1    4    4    0    0 -0.56128110428E+02  0.64735120762E+02  0.16897283424E+03  0.18945400326E+03  0.00000000000E+00 0. -1.
         13    1    4    4    0    0 -0.56374547078E+02 -0.25665178470E+02  0.18371416420E+03  0.19387543700E+03  0.00000000000E+00 0.  1.
        -13    1    3    3    0    0  0.20226671569E+02 -0.33006729953E+02  0.18724117489E+03  0.19120099382E+03  0.00000000000E+00 0. -1.
         13    1    3    3    0    0  0.73984313670E+02 -0.45466334822E+02  0.85450609183E+02  0.12183050883E+03  0.00000000000E+00 0.  1.
         21    1    1    2  502  501  0.18291672266E+02  0.39403122484E+02 -0.52298409484E+02  0.67987608947E+02  0.00000000000E+00 0.  1.
<scales pt_clust_5="13000.00000" pt_clust_6="13000.00000" pt_clust_7="13000.00000" pt_clust_8="13000.00000" pt_clust_9="43.44182"></scales>
<clustering>
<clus scale="   43.442">  2  9  1 -1</clus>
<clus scale="   91.488">  5  6 -1 -1</clus>
<clus scale="   92.705">  7  8 -1 -1</clus>
<clus scale="  149.858">  1  5  2 -1</clus>
<clus scale="  149.858">  1  5  2 -1</clus>
</clustering>
</event>
<event>
 9    1  0.1748361E-005  0.8931542E+02  0.7546771E-02  0.1315496E+00
         -3   -1    0    0    0  501 -0.00000000000E+00  0.00000000000E+00  0.29012837065E+03  0.29012837065E+03  0.00000000000E+00 0.  1.
          3   -1    0    0  502    0  0.00000000000E+00 -0.00000000000E+00 -0.11105935265E+03  0.11105935265E+03  0.00000000000E+00 0. -1.
         23    2    1    2    0    0 -0.13213120853E+02 -0.68284238000E+01  0.22134420433E+03  0.23892843761E+03  0.88726138043E+02 0.  0.
         23    2    1    2    0    0 -0.41873040304E+02  0.34296690175E+01 -0.61393781404E+02  0.10385074725E+03  0.72461487538E+02 0.  0.
        -11    1    3    3    0    0  0.79935419845E+01 -0.34274288696E+02  0.18639978016E+03  0.18969317759E+03  0.00000000000E+00 0.  1.
         11    1    3    3    0    0 -0.21206662838E+02  0.27445864896E+02  0.34944424168E+02  0.49235260018E+02  0.00000000000E+00 0. -1.
        -13    1    4    4    0    0 -0.38822325854E+02 -0.27479118924E+02 -0.18819296566E+02  0.51151157218E+02  0.00000000000E+00 0.  1.
         13    1    4    4    0    0 -0.30507144508E+01  0.30908787942E+02 -0.42574484837E+02  0.52699590035E+02  0.00000000000E+00 0. -1.
         21    1    1    2  502  501  0.55086161158E+02  0.33987547824E+01  0.19118595079E+02  0.58408538442E+02  0.00000000000E+00 0.  1.
<scales pt_clust_5="13000.00000" pt_clust_6="13000.00000" pt_clust_7="13000.00000" pt_clust_8="13000.00000" pt_clust_9="55.19091"></scales>
<clustering>
<clus scale="   55.191">  2  9  1 -1</clus>
<clus scale="   72.461">  7  8 -1 -1</clus>
<clus scale="   73.182">  2  7  1 -1</clus>
<clus scale="   88.726">  5  6 -1 -1</clus>
<clus scale="   55.191">  2  5  1 -1</clus>
</clustering>
</event>
<event>
 9    1  0.1748361E-005  0.2797026E+03  0.7546771E-02  0.1096513E+00
          1   -1    0    0  502    0  0.00000000000E+00  0.00000000000E+00  0.21511945819E+03  0.21511945819E+03  0.00000000000E+00 0. -1.
         -1   -1    0    0    0  501 -0.00000000000E+00 -0.00000000000E+00 -0.60344049672E+03  0.60344049672E+03  0.00000000000E+00 0.  1.
         23    2    1    2    0    0  0.16693381786E+03 -0.16524221564E+03 -0.36878906655E+03  0.44588559672E+03  0.87388216528E+02 0.  0.
         23    2    1    2    0    0 -0.19119515632E+03  0.18803739638E+03  0.54180590396E+02  0.29179312018E+03  0.10145954055E+03 0.  0.
        -11    1    4    4    0    0 -0.35553832867E+02  0.15944230585E+00  0.30193187639E+02  0.46644710666E+02  0.00000000000E+00 0.  1.
         11    1    4    4    0    0 -0.15564132345E+03  0.18787795408E+03  0.23987402757E+02  0.24514840951E+03  0.00000000000E+00 0. -1.
        -13    1    3    3    0    0  0.11726791565E+03 -0.12288745997E+03 -0.18649027991E+03  0.25225327820E+03  0.00000000000E+00 0.  1.
         13    1    3    3    0    0  0.49665902203E+02 -0.42354755666E+02 -0.18229878663E+03  0.19363231852E+03  0.00000000000E+00 0. -1.
         21    1    1    2  502  501  0.24261338461E+02 -0.22795180744E+02 -0.73712562378E+02  0.80881238006E+02  0.00000000000E+00 0.  1.
<scales pt_clust_5="13000.00000" pt_clust_6="13000.00000" pt_clust_7="13000.00000" pt_clust_8="13000.00000" pt_clust_9="33.29013"></scales>
<clustering>
<clus scale="   33.290">  2  9  1 -1</clus>
<clus scale="   87.388">  7  8 -1 -1</clus>
<clus scale="  101.460">  5  6 -1 -1</clus>
<clus scale="  274.911">  2  7  1 -1</clus>
<clus scale="  279.703">  1  5  2 -1</clus>
</clustering>
</event>
<event>
 9    1  0.1748361E-005  0.1081479E+03  0.7546771E-02  0.1268298E+00
          1   -1    0    0  502    0  0.00000000000E+00  0.00000000000E+00  0.86040143052E+02  0.86040143052E+02  0.00000000000E+00 0. -1.
         -1   -1    0    0    0  501 -0.00000000000E+00 -0.00000000000E+00 -0.40982475925E+03  0.40982475925E+03  0.00000000000E+00 0.  1.
         23    2    1    2    0    0  0.26434449182E+02 -0.63106685648E+02 -0.24706069830E+03  0.27540587267E+03  0.10063882043E+03 0.  0.
         23    2    1    2    0    0 -0.37649347511E+02  0.91448516111E+01  0.27159000674E+02  0.10286092486E+03  0.91332671404E+02 0.  0.
        -13    1    3    3    0    0  0.94635531926E+01 -0.87175983955E+02 -0.21320505286E+03  0.23053330688E+03  0.00000000000E+00 0.  1.
         13    1    3    3    0    0  0.16970895989E+02  0.24069298307E+02 -0.33855645441E+02  0.44872565782E+02  0.00000000000E+00 0. -1.
        -13    1    4    4    0    0 -0.18941908303E+02  0.40249139304E+02 -0.15263885763E+02  0.47029515344E+02  0.00000000000E+00 0.  1.
         13    1    4    4    0    0 -0.18707439207E+02 -0.31104287692E+02  0.42422886437E+02  0.55831409513E+02  0.00000000000E+00 0. -1.
         21    1    1    2  502  501  0.11214898329E+02  0.53961834037E+02 -0.10388291857E+03  0.11759810478E+03  0.00000000000E+00 0.  1.
<scales pt_clust_5="13000.00000" pt_clust_6="13000.00000" pt_clust_7="13000.00000" pt_clust_8="13000.00000" pt_clust_9="55.11491"></scales>
<clustering>
<clus scale="   55.115">  2  9  1 -1</clus>
<clus scale="   91.333">  7  8 -1 -1</clus>
<clus scale="   99.546">  1  7  2 -1</clus>
<clus scale="  100.639">  5  6 -1 -1</clus>
<clus scale="   99.546">  1  5  2 -1</clus>
</clustering>
</event>
<event>
 9    1  0.1748361E-005  0.1564492E+03  0.7546771E-02  0.1192921E+00
         -1   -1    0    0    0  501 -0.00000000000E+00  0.00000000000E+00  0.30661029189E+03  0.30661029189E+03  0.00000000000E+00 0.  1.
          1   -1    0    0  502    0  0.00000000000E+00 -0.00000000000E+00 -0.13862398409E+03  0.13862398409E+03  0.00000000000E+00 0. -1.
         23    2    1    2    0    0  0.72586580091E+02  0.10592316209E+03  0.16207182563E+03  0.22554929086E+03  0.90092608297E+02 0.  0.
         23    2    1    2    0    0 -0.25194971166E+02 -0.12802855150E+03 -0.23363031643E+02  0.15975347711E+03  0.89158542102E+02 0.  0.
        -11    1    3    3    0    0  0.43969576579E+02  0.10175291367E+03  0.16240575724E+03  0.19662809842E+03  0.00000000000E+00 0.  1.
         11    1    3    3    0    0  0.28617003512E+02  0.41702484226E+01 -0.33393161088E+00  0.28921192441E+02  0.00000000000E+00 0. -1.
        -11    1    4    4    0    0 -0.55967942503E+02 -0.55054470414E+02 -0.64608327486E+01  0.78772759634E+02  0.00000000000E+00 0.  1.
         11    1    4    4    0    0  0.30772971337E+02 -0.72974081089E+02 -0.16902198895E+02  0.80980717478E+02  0.00000000000E+00 0. -1.
         21    1    1    2  502  501 -0.47391608925E+02  0.22105389414E+02  0.29277513812E+02  0.59931508012E+02  0.00000000000E+00 0. -1.
<scales pt_clust_5="13000.00000" pt_clust_6="13000.00000" pt_clust_7="13000.00000" pt_clust_8="13000.00000" pt_clust_9="52.29353"></scales>
<clustering>
<clus scale="   52.294">  1  9  2 -1</clus>
<clus scale="   89.159">  7  8 -1 -1</clus>
<clus scale="   90.093">  5  6 -1 -1</clus>
<clus scale="  155.913">  2  7  1 -1</clus>
<clus scale="  155.913">  2  5  1 -1</clus>
</clustering>
</event>
<event>
 9    1  0.1748361E-005  0.9576997E+02  0.7546771E-02  0.1290734E+00
         -1   -1    0    0    0  501 -0.00000000000E+00  0.00000000000E+00  0.85310938771E+02  0.85310938771E+02  0.00000000000E+00 0.  1.
          1   -1    0    0  502    0  0.00000000000E+00 -0.00000000000E+00 -0.32159153406E+03  0.32159153406E+03  0.00000000000E+00 0. -1.
         23    2    1    2    0    0  0.29695928973E+01  0.35262289312E+01  0.54897794638E+01  0.88769839019E+02  0.88479906580E+02 0.  0.
         23    2    1    2    0    0  0.25061069939E+02  0.27108228398E+02 -0.25607106151E+03  0.27421569315E+03  0.90878735428E+02 0.  0.
        -11    1    3    3    0    0 -0.59660328351E+01  0.22657541971E+02  0.41135161836E+02  0.47339827791E+02  0.00000000000E+00 0.  1.
         11    1    3    3    0    0  0.89356257324E+01 -0.19131313040E+02 -0.35645382373E+02  0.41430011228E+02  0.00000000000E+00 0. -1.
        -13    1    4    4    0    0 -0.18380365128E+02 -0.16942941513E+02 -0.26399090162E+02  0.36356746976E+02  0.00000000000E+00 0.  1.
         13    1    4    4    0    0  0.43441435067E+02  0.44051169911E+02 -0.22967197135E+03  0.23785894617E+03  0.00000000000E+00 0. -1.
         21    1    1    2  502  501 -0.28030662836E+02 -0.30634457330E+02  0.14300686762E+02  0.43916940658E+02  0.00000000000E+00 0.  1.
<scales pt_clust_5="13000.00000" pt_clust_6="13000.00000" pt_clust_7="13000.00000" pt_clust_8="13000.00000" pt_clust_9="41.52334"></scales>
<clustering>
<clus scale="   41.523">  1  9  2 -1</clus>
<clus scale="   88.480">  5  6 -1 -1</clus>
<clus scale="   90.879">  7  8 -1 -1</clus>
<clus scale="   93.497">  1  5  2 -1</clus>
<clus scale="   95.770">  2  5  1 -1</clus>
</clustering>
</event>
<event>
 9    1  0.1748361E-005  0.1036915E+03  0.7546771E-02  0.1276755E+00
          1   -1    0    0  502    0  0.00000000000E+00  0.00000000000E+00  0.47620669364E+03  0.47620669364E+03  0.00000000000E+00 0. -1.
         -1   -1    0    0    0  501 -0.00000000000E+00 -0.00000000000E+00 -0.11459147250E+03  0.11459147250E+03  0.00000000000E+00 0.  1.
         23    2    1    2    0    0 -0.63832372939E+02  0.10483182820E+02 -0.11741522322E+02  0.11181985670E+03  0.90450804583E+02 0.  0.
         23    2    1    2    0    0  0.28373350976E+02 -0.45249462654E+01  0.41292824430E+03  0.42551106244E+03  0.98612408614E+02 0.  0.
        -11    1    4    4    0    0  0.58358841164E+02  0.22285276363E+02  0.25531173642E+03  0.26284305325E+03  0.00000000000E+00 0.  1.
         11    1    4    4    0    0 -0.29985490188E+02 -0.26810222628E+02  0.15761650788E+03  0.16266800919E+03  0.00000000000E+00 0. -1.
        -13    1    3    3    0    0 -0.54721088615E+02 -0.18059390772E+02 -0.40387027315E+02  0.70367969344E+02  0.00000000000E+00 0.  1.
         13    1    3    3    0    0 -0.91112843233E+01  0.28542573593E+02  0.28645504993E+02  0.41451887359E+02  0.00000000000E+00 0. -1.
         21    1    1    2  502  501  0.35459021963E+02 -0.59582365549E+01 -0.39571500845E+02  0.53467246989E+02  0.00000000000E+00 0. -1.
<scales pt_clust_5="13000.00000" pt_clust_6="13000.00000" pt_clust_7="13000.00000" pt_clust_8="13000.00000" pt_clust_9="35.95612"></scales>
<clustering>
<clus scale="   35.956">  2  9  1 -1</clus>
<clus scale="   90.451">  7  8 -1 -1</clus>
<clus scale="   95.963">  2  7  1 -1</clus>
<clus scale="   98.612">  5  6 -1 -1</clus>
<clus scale="  103.692">  1  5  2 -1</clus>
</clustering>
</event>
<event>
 9    1  0.1748361E-005  0.9041735E+02  0.7546771E-02  0.1303490E+00
          2   -1    0    0  502    0  0.00000000000E+00  0.00000000000E+00  0.46304161835E+03  0.46304161835E+03  0.00000000000E+00 0. -1.
         -2   -1    0    0    0  501 -0.00000000000E+00 -0.00000000000E+00 -0.22499377917E+02  0.22499377917E+02  0.00000000000E+00 0.  1.
         23    2    1    2    0    0 -0.32054102726E+02  0.26971292214E+02  0.17406500979E+03  0.19795688281E+03  0.84459361312E+02 0.  0.
         23    2    1    2    0    0  0.10907467849E+02 -0.25132103465E+02  0.22699058856E+03  0.24275379241E+03  0.81572550266E+02 0.  0.
        -13    1    3    3    0    0  0.10486407455E+02 -0.24984949122E+02  0.52375936200E+02  0.58969917049E+02  0.00000000000E+00 0.  1.
         13    1    3    3    0    0 -0.42540510181E+02  0.51956241335E+02  0.12168907359E+03  0.13898696576E+03  0.00000000000E+00 0. -1.
        -13    1    4    4    0    0 -0.33951728837E+02 -0.33868111432E+01  0.11931586356E+03  0.12409861271E+03  0.00000000000E+00 0.  1.
         13    1    4    4    0    0  0.44859196686E+02 -0.21745292322E+02  0.10767472500E+03  0.11865517970E+03  0.00000000000E+00 0. -1.
         21    1    1    2  502  501  0.21146634877E+02 -0.18391887487E+01  0.39486642087E+02  0.44830321047E+02  0.00000000000E+00 0.  1.
<scales pt_clust_5="13000.00000" pt_clust_6="13000.00000" pt_clust_7="13000.00000" pt_clust_8="13000.00000" pt_clust_9="21.22646"></scales>
<clustering>
<clus scale="   21.226">  2  9  1 -1</clus>
<clus scale="   81.573">  7  8 -1 -1</clus>
<clus scale="   84.459">  5  6 -1 -1</clus>
<clus scale="   87.727">  1  7  2 -1</clus>
<clus scale="   87.727">  1  5  2 -1</clus>
</clustering>
</event>
<event>
 9    1  0.1748361E-005  0.9677949E+02  0.7546771E-02  0.1288477E+00
         -3   -1    0    0    0  501 -0.00000000000E+00  0.00000000000E+00  0.18682374673E+03  0.18682374673E+03  0.00000000000E+00 0.  1.
          3   -1    0    0  502    0  0.00000000000E+00 -0.00000000000E+00 -0.75585465453E+02  0.75585465453E+02  0.00000000000E+00 0. -1.
         23    2    1    2    0    0  0.17263567835E+02  0.53213829571E+01  0.91874563523E+02  0.12931522093E+03  0.89191608636E+02 0.  0.
         23    2    1    2    0    0 -0.27834753455E+02 -0.24996318346E+02 -0.62258887692E+01  0.99128111168E+02  0.91586196023E+02 0.  0.
        -11    1    3    3    0    0 -0.12235108150E+02 -0.22110880315E+02 -0.37548556387E+01  0.25547756077E+02  0.00000000000E+00 0. -1.
         11    1    3    3    0    0  0.29498675984E+02  0.27432263272E+02  0.95629419161E+02  0.10376746485E+03  0.00000000000E+00 0.  1.
        -13    1    4    4    0    0  0.14053118343E+02 -0.38425027720E+02 -0.28461174794E+02  0.49839857153E+02  0.00000000000E+00 0. -1.
         13    1    4    4    0    0 -0.41887871798E+02  0.13428709374E+02  0.22235286025E+02  0.49288254015E+02  0.00000000000E+00 0.  1.
         21    1    1    2  502  501  0.10571185621E+02  0.19674935389E+02  0.25589606528E+02  0.33965880089E+02  0.00000000000E+00 0.  1.
<scales pt_clust_5="13000.00000" pt_clust_6="13000.00000" pt_clust_7="13000.00000" pt_clust_8="13000.00000" pt_clust_9="22.33502"></scales>
<clustering>
<clus scale="   22.335">  1  9  2 -1</clus>
<clus scale="   89.192">  5  6 -1 -1</clus>
<clus scale="   91.586">  7  8 -1 -1</clus>
<clus scale="   94.517">  1  5  2 -1</clus>
<clus scale="   96.779">  2  5  1 -1</clus>
</clustering>
</event>
<event>
 9    1  0.1748361E-005  0.1453207E+03  0.7546771E-02  0.1207417E+00
         -1   -1    0    0    0  501 -0.00000000000E+00  0.00000000000E+00  0.30309705914E+03  0.30309705914E+03  0.00000000000E+00 0.  1.
          1   -1    0    0  502    0  0.00000000000E+00 -0.00000000000E+00 -0.10467851238E+03  0.10467851238E+03  0.00000000000E+00 0. -1.
         23    2    1    2    0    0  0.93047863659E+02 -0.12585293718E+02  0.16261738995E+03  0.21057434517E+03  0.95293466621E+02 0.  0.
         23    2    1    2    0    0 -0.11372275896E+03  0.20578828724E+02 -0.93736573497E+01  0.14688113362E+03  0.90165669003E+02 0.  0.
        -11    1    4    4    0    0 -0.54539591846E+02  0.53037245152E+02  0.98169866577E+01  0.76706516536E+02  0.00000000000E+00 0. -1.
         11    1    4    4    0    0 -0.59183167109E+02 -0.32458416428E+02 -0.19190644007E+02  0.70174617089E+02  0.00000000000E+00 0.  1.
        -13    1    3    3    0    0  0.89635229178E+02 -0.39223135009E+02  0.89199821035E+02  0.13239915673E+03  0.00000000000E+00 0. -1.
         13    1    3    3    0    0  0.34126344810E+01  0.26637841291E+02  0.73417568911E+02  0.78175188440E+02  0.00000000000E+00 0.  1.
         21    1    1    2  502  501  0.20674895296E+02 -0.79935350063E+01  0.45174814160E+02  0.50320092724E+02  0.00000000000E+00 0.  1.
<scales pt_clust_5="13000.00000" pt_clust_6="13000.00000" pt_clust_7="13000.00000" pt_clust_8="13000.00000" pt_clust_9="22.16637"></scales>
<clustering>
<clus scale="   22.166">  1  9  2 -1</clus>
<clus scale="   90.166">  5  6 -1 -1</clus>
<clus scale="   95.293">  7  8 -1 -1</clus>
<clus scale="  142.011">  2  5  1 -1</clus>
<clus scale="  142.011">  2  5  1 -1</clus>
</clustering>
</event>
<event>
 9    1  0.1748361E-005  0.1110414E+03  0.7546771E-02  0.1259857E+00
         -1   -1    0    0    0  501 -0.00000000000E+00  0.00000000000E+00  0.22974086576E+03  0.22974086576E+03  0.00000000000E+00 0.  1.
          1   -1    0    0  502    0  0.00000000000E+00 -0.00000000000E+00 -0.79869550211E+02  0.79869550211E+02  0.00000000000E+00 0. -1.
         23    2    1    2    0    0 -0.25085017446E+02  0.38860958073E+02  0.49447996811E+02  0.10954282003E+03  0.86110933499E+02 0.  0.
         23    2    1    2    0    0  0.29973764881E+02 -0.84607963960E+02  0.79362025036E+02  0.14946851995E+03  0.89362034960E+02 0.  0.
        -11    1    3    3    0    0 -0.42018451529E+02  0.56629939070E+02  0.24779073032E+02  0.74742910889E+02  0.00000000000E+00 0. -1.
         11    1    3    3    0    0  0.16933434083E+02 -0.17768980997E+02  0.24668923779E+02  0.34799909137E+02  0.00000000000E+00 0.  1.
        -11    1    4    4    0    0  0.42748724458E+02 -0.11765620347E+02  0.56986676205E+02  0.72203632387E+02  0.00000000000E+00 0.  1.
         11    1    4    4    0    0 -0.12774959577E+02 -0.72842343613E+02  0.22375348831E+02  0.77264887566E+02  0.00000000000E+00 0. -1.
         21    1    1    2  502  501 -0.48887474351E+01  0.45747005887E+02  0.21061293704E+02  0.50599075996E+02  0.00000000000E+00 0. -1.
<scales pt_clust_5="13000.00000" pt_clust_6="13000.00000" pt_clust_7="13000.00000" pt_clust_8="13000.00000" pt_clust_9="46.00748"></scales>
<clustering>
<clus scale="   46.007">  2  9  1 -1</clus>
<clus scale="   86.111">  5  6 -1 -1</clus>
<clus scale="   89.362">  7  8 -1 -1</clus>
<clus scale="  108.442">  1  5  2 -1</clus>
<clus scale="   46.007">  2  5  1 -1</clus>
</clustering>
</event>
<event>
 9    1  0.1748361E-005  0.1189887E+03  0.7546771E-02  0.1245933E+00
          2   -1    0    0  502    0  0.00000000000E+00  0.00000000000E+00  0.95990458222E+03  0.95990458222E+03  0.00000000000E+00 0. -1.
         -2   -1    0    0    0  501 -0.00000000000E+00 -0.00000000000E+00 -0.19941688743E+02  0.19941688743E+02  0.00000000000E+00 0.  1.
         23    2    1    2    0    0 -0.27006831438E+02  0.91598379239E+02  0.40098587894E+03  0.42229095442E+03  0.91762427262E+02 0.  0.
         23    2    1    2    0    0  0.15509351222E+02 -0.61892869099E+02  0.45226794839E+03  0.46518069050E+03  0.88178854894E+02 0.  0.
        -11    1    4    4    0    0  0.50450090258E+02 -0.23304072911E+02  0.26797002633E+03  0.27367174943E+03  0.00000000000E+00 0.  1.
         11    1    4    4    0    0 -0.34940739036E+02 -0.38588796188E+02  0.18429792206E+03  0.19150894107E+03  0.00000000000E+00 0. -1.
        -11    1    3    3    0    0  0.31979581791E+02  0.22126684608E+02  0.85958485733E+02  0.94345880105E+02  0.00000000000E+00 0.  1.
         11    1    3    3    0    0 -0.58986413229E+02  0.69471694631E+02  0.31502739320E+03  0.32794507432E+03  0.00000000000E+00 0. -1.
         21    1    1    2  502  501  0.11497480216E+02 -0.29705510140E+02  0.86709066147E+02  0.92374626041E+02  0.00000000000E+00 0.  1.
<scales pt_clust_5="13000.00000" pt_clust_6="13000.00000" pt_clust_7="13000.00000" pt_clust_8="13000.00000" pt_clust_9="31.85293"></scales>
<clustering>
<clus scale="   31.853">  2  9  1 -1</clus>
<clus scale="   88.179">  5  6 -1 -1</clus>
<clus scale="   91.762">  7  8 -1 -1</clus>
<clus scale="  116.247">  1  5  2 -1</clus>
<clus scale="  116.247">  1  5  2 -1</clus>
</clustering>
</event>
<event>
 9    1  0.1748361E-005  0.1018554E+03  0.7546771E-02  0.1277407E+00
         -1   -1    0    0    0  501 -0.00000000000E+00  0.00000000000E+00  0.31895615411E+03  0.31895615411E+03  0.00000000000E+00 0.  1.
          1   -1    0    0  502    0  0.00000000000E+00 -0.00000000000E+00 -0.15929700105E+03  0.15929700105E+03  0.00000000000E+00 0. -1.
         23    2    1    2    0    0  0.65546600305E+02 -0.32625537605E+02  0.12862283559E+03  0.17375368765E+03  0.91025972229E+02 0.  0.
         23    2    1    2    0    0 -0.34454782341E+02  0.14712991850E+02 -0.11587394241E+03  0.15327055198E+03  0.93067112444E+02 0.  0.
        -11    1    3    3    0    0  0.15402536819E+02 -0.57206315547E+02  0.81044222450E+02  0.10038907646E+03  0.00000000000E+00 0. -1.
         11    1    3    3    0    0  0.50144063486E+02  0.24580777942E+02  0.47578613142E+02  0.73364611194E+02  0.00000000000E+00 0.  1.
        -13    1    4    4    0    0 -0.47112257933E+02  0.33269670461E+02 -0.11735249130E+03  0.13075948545E+03  0.00000000000E+00 0. -1.
         13    1    4    4    0    0  0.12657475592E+02 -0.18556678610E+02  0.14785488931E+01  0.22511066528E+02  0.00000000000E+00 0.  1.
         21    1    1    2  502  501 -0.31091817964E+02  0.17912545755E+02  0.14691025987E+03  0.15122891553E+03  0.00000000000E+00 0.  1.
<scales pt_clust_5="13000.00000" pt_clust_6="13000.00000" pt_clust_7="13000.00000" pt_clust_8="13000.00000" pt_clust_9="35.88259"></scales>
<clustering>
<clus scale="   35.883">  1  9  2 -1</clus>
<clus scale="   91.026">  5  6 -1 -1</clus>
<clus scale="   93.067">  7  8 -1 -1</clus>
<clus scale="   99.994">  1  5  2 -1</clus>
<clus scale="  101.855">  2  5  1 -1</clus>
</clustering>
</event>
<event>
 9    1  0.1748361E-005  0.9602168E+02  0.7546771E-02  0.1292947E+00
          3   -1    0    0  502    0  0.00000000000E+00  0.00000000000E+00  0.16577812486E+03  0.16577812486E+03  0.00000000000E+00 0. -1.
         -3   -1    0    0    0  501 -0.00000000000E+00 -0.00000000000E+00 -0.84545530251E+02  0.84545530251E+02  0.00000000000E+00 0.  1.
         23    2    1    2    0    0 -0.22732229898E+02 -0.23831464512E+01  0.46281085064E+02  0.10087118122E+03  0.86663848884E+02 0.  0.
         23    2    1    2    0    0  0.11988296705E+02 -0.23457034586E+02  0.57797180395E+02  0.11332669731E+03  0.93853473738E+02 0.  0.
        -11    1    4    4    0    0  0.33122196923E+02 -0.37474278416E+02 -0.21413846005E+00  0.50014471176E+02  0.00000000000E+00 0.  1.
         11    1    4    4    0    0 -0.21133900218E+02  0.14017243830E+02  0.58011318855E+02  0.63312226136E+02  0.00000000000E+00 0. -1.
        -11    1    3    3    0    0  0.11925366543E+02  0.32244452623E+02  0.13658551360E+01  0.34406171720E+02  0.00000000000E+00 0.  1.
         11    1    3    3    0    0 -0.34657596441E+02 -0.34627599075E+02  0.44915229928E+02  0.66465009503E+02  0.00000000000E+00 0. -1.
         21    1    1    2  502  501  0.10743933193E+02  0.25840181037E+02 -0.22845670851E+02  0.36125776574E+02  0.00000000000E+00 0.  1.
<scales pt_clust_5="13000.00000" pt_clust_6="13000.00000" pt_clust_7="13000.00000" pt_clust_8="13000.00000" pt_clust_9="27.98476"></scales>
<clustering>
<clus scale="   27.985">  2  9  1 -1</clus>
<clus scale="   86.664">  7  8 -1 -1</clus>
<clus scale="   89.007">  2  7  1 -1</clus>
<clus scale="   93.853">  5  6 -1 -1</clus>
<clus scale="   96.022">  1  5  2 -1</clus>
</clustering>
</event>
<event>
 9    1  0.1748361E-005  0.1135218E+03  0.7546771E-02  0.1255292E+00
         -4   -1    0    0    0  501 -0.00000000000E+00  0.00000000000E+00  0.99544160591E+02  0.99544160591E+02  0.00000000000E+00 0.  1.
          4   -1    0    0  502    0  0.00000000000E+00 -0.00000000000E+00 -0.19674373901E+03  0.19674373901E+03  0.00000000000E+00 0. -1.
         23    2    1    2    0    0 -0.38429894207E+00  0.79277735185E+02 -0.24937253118E+02  0.12343303355E+03  0.91261931807E+02 0.  0.
         23    2    1    2    0    0  0.10204401747E+02 -0.61124814322E+02 -0.93907449756E+02  0.14294710170E+03  0.88175348168E+02 0.  0.
        -11    1    3    3    0    0 -0.24255184834E+02  0.89214222664E+02 -0.86090838594E+01  0.92852613543E+02  0.00000000000E+00 0.  1.
         11    1    3    3    0    0  0.23870885892E+02 -0.99364874784E+01 -0.16328169259E+02  0.30580420010E+02  0.00000000000E+00 0. -1.
        -13    1    4    4    0    0  0.44944996662E+02 -0.57034001582E+02 -0.67176485971E+02  0.98922243852E+02  0.00000000000E+00 0. -1.
         13    1    4    4    0    0 -0.34740594914E+02 -0.40908127396E+01 -0.26730963786E+02  0.44024857851E+02  0.00000000000E+00 0.  1.
         21    1    1    2  502  501 -0.98201028054E+01 -0.18152920863E+02  0.21645124460E+02  0.29907764341E+02  0.00000000000E+00 0. -1.
<scales pt_clust_5="13000.00000" pt_clust_6="13000.00000" pt_clust_7="13000.00000" pt_clust_8="13000.00000" pt_clust_9="20.63887"></scales>
<clustering>
<clus scale="   20.639">  1  9  2 -1</clus>
<clus scale="   88.175">  7  8 -1 -1</clus>
<clus scale="   91.262">  5  6 -1 -1</clus>
<clus scale="  111.056">  2  7  1 -1</clus>
<clus scale="  111.056">  2  5  1 -1</clus>
</clustering>
</event>
<event>
 9    1  0.1748361E-005  0.1345510E+03  0.7546771E-02  0.1223960E+00
          1   -1    0    0  502    0  0.00000000000E+00  0.00000000000E+00  0.35299526528E+03  0.35299526528E+03  0.00000000000E+00 0. -1.
         -1   -1    0    0    0  501 -0.00000000000E+00 -0.00000000000E+00 -0.18433307588E+03  0.18433307588E+03  0.00000000000E+00 0.  1.
         23    2    1    2    0    0 -0.61697853011E+02 -0.61796979809E+02 -0.12351201015E+03  0.17758016986E+03  0.93026922429E+02 0.  0.
         23    2    1    2    0    0  0.44445570693E+02  0.72591973720E+02  0.30658547709E+03  0.33481108929E+03  0.10420560133E+03 0.  0.
        -11    1    3    3    0    0 -0.61998566821E+02  0.84243591564E+00 -0.80427256250E+02  0.10155331375E+03  0.00000000000E+00 0.  1.
         11    1    3    3    0    0  0.30071380996E+00 -0.62639415725E+02 -0.43084753902E+02  0.76026856110E+02  0.00000000000E+00 0. -1.
        -13    1    4    4    0    0  0.63280434701E+02  0.14033884502E+02  0.99230437941E+02  0.11852444113E+03  0.00000000000E+00 0. -1.
         13    1    4    4    0    0 -0.18834864008E+02  0.58558089218E+02  0.20735503915E+03  0.21628664817E+03  0.00000000000E+00 0.  1.
         21    1    1    2  502  501  0.17252282318E+02 -0.10794993911E+02 -0.14411277534E+02  0.24937082004E+02  0.00000000000E+00 0.  1.
<scales pt_clust_5="13000.00000" pt_clust_6="13000.00000" pt_clust_7="13000.00000" pt_clust_8="13000.00000" pt_clust_9="20.35124"></scales>
<clustering>
<clus scale="   20.351">  2  9  1 -1</clus>
<clus scale="   93.027">  5  6 -1 -1</clus>
<clus scale="  104.206">  7  8 -1 -1</clus>
<clus scale="  126.092">  2  5  1 -1</clus>
<clus scale="  134.551">  1  5  2 -1</clus>
</clustering>
</event>
<event>
 9    1  0.1748361E-005  0.9628518E+02  0.7546771E-02  0.1288872E+00
         -4   -1    0    0    0  501 -0.00000000000E+00  0.00000000000E+00  0.15996401948E+03  0.15996401948E+03  0.00000000000E+00 0.  1.
          4   -1    0    0  502    0  0.00000000000E+00 -0.00000000000E+00 -0.12605602462E+03  0.12605602462E+03  0.00000000000E+00 0. -1.
         23    2    1    2    0    0  0.48532731646E+01 -0.54318620423E+01  0.26747556098E+02  0.95233593969E+02  0.91109529015E+02 0.  0.
         23    2    1    2    0    0 -0.43094946885E+02  0.39607249942E+01 -0.57783750464E+02  0.11540516885E+03  0.90036267085E+02 0.  0.
        -11    1    4    4    0    0 -0.26818252587E+02  0.32766505663E+02 -0.68583196447E+02  0.80600976421E+02  0.00000000000E+00 0. -1.
         11    1    4    4    0    0 -0.16276694298E+02 -0.28805780668E+02  0.10799445983E+02  0.34804192431E+02  0.00000000000E+00 0.  1.
        -13    1    3    3    0    0 -0.19955866473E+02  0.19227275739E+02  0.47185392385E+02  0.54720983119E+02  0.00000000000E+00 0. -1.
         13    1    3    3    0    0  0.24809139638E+02 -0.24659137782E+02 -0.20437836287E+02  0.40512610849E+02  0.00000000000E+00 0.  1.
         21    1    1    2  502  501  0.38241673720E+02  0.14711370481E+01  0.64944189229E+02  0.75381281283E+02  0.00000000000E+00 0.  1.
<scales pt_clust_5="13000.00000" pt_clust_6="13000.00000" pt_clust_7="13000.00000" pt_clust_8="13000.00000" pt_clust_9="38.26996"></scales>
<clustering>
<clus scale="   38.270">  1  9  2 -1</clus>
<clus scale="   90.036">  5  6 -1 -1</clus>
<clus scale="   91.110">  7  8 -1 -1</clus>
<clus scale="   95.270">  2  5  1 -1</clus>
<clus scale="   95.270">  2  5  1 -1</clus>
</clustering>
</event>
<event>
 9    1  0.1748361E-005  0.2135494E+03  0.7546771E-02  0.1139205E+00
          1   -1    0    0  502    0  0.00000000000E+00  0.00000000000E+00  0.25068393582E+03  0.25068393582E+03  0.00000000000E+00 0. -1.
         -1   -1    0    0    0  501 -0.00000000000E+00 -0.00000000000E+00 -0.29937414773E+03  0.29937414773E+03  0.00000000000E+00 0.  1.
         23    2    1    2    0    0 -0.64808234337E+02 -0.21717286151E+03 -0.54598531222E+02  0.24915318959E+03  0.87932663207E+02 0.  0.
         23    2    1    2    0    0  0.11700375246E+02  0.17714448489E+03  0.66282535730E+02  0.21108417451E+03  0.92984336746E+02 0.  0.
        -11    1    4    4    0    0  0.42906621614E+02  0.12483394027E+03  0.17725297563E+02  0.13318662469E+03  0.00000000000E+00 0.  1.
         11    1    4    4    0    0 -0.31206246367E+02  0.52310544616E+02  0.48557238167E+02  0.77897549825E+02  0.00000000000E+00 0. -1.
        -13    1    3    3    0    0 -0.25577730707E+02 -0.50457771375E+02 -0.53528236739E+02  0.77881185974E+02  0.00000000000E+00 0.  1.
         13    1    3    3    0    0 -0.39230503630E+02 -0.16671509013E+03 -0.10702944829E+01  0.17127200362E+03  0.00000000000E+00 0. -1.
         21    1    1    2  502  501  0.53107859090E+02  0.40028376620E+02 -0.60374216423E+02  0.89820719439E+02  0.00000000000E+00 0.  1.
<scales pt_clust_5="13000.00000" pt_clust_6="13000.00000" pt_clust_7="13000.00000" pt_clust_8="13000.00000" pt_clust_9="66.50350"></scales>
<clustering>
<clus scale="   66.504">  2  9  1 -1</clus>
<clus scale="   87.933">  7  8 -1 -1</clus>
<clus scale="   92.984">  5  6 -1 -1</clus>
<clus scale="  211.399">  2  7  1 -1</clus>
<clus scale="  213.549">  1  5  2 -1</clus>
</clustering>
</event>
<event>
 9    1  0.1748361E-005  0.1041650E+03  0.7546771E-02  0.1272275E+00
         -1   -1    0    0    0  501 -0.00000000000E+00  0.00000000000E+00  0.12350964085E+03  0.12350964085E+03  0.00000000000E+00 0.  1.
          1   -1    0    0  502    0  0.00000000000E+00 -0.00000000000E+00 -0.12519231466E+03  0.12519231466E+03  0.00000000000E+00 0. -1.
         23    2    1    2    0    0 -0.42887781035E+02  0.45367879218E+02  0.30949159791E+02  0.11438894672E+03  0.90715899451E+02 0.  0.
         23    2    1    2    0    0  0.11259751589E+02 -0.34767434837E+02 -0.27485750070E+02  0.10056121116E+03  0.89563018047E+02 0.  0.
        -11    1    3    3    0    0 -0.71025933894E+02  0.27861385413E+02  0.27373219821E+02  0.81056975307E+02  0.00000000000E+00 0. -1.
         11    1    3    3    0    0  0.28138152858E+02  0.17506493806E+02  0.35759399694E+01  0.33331971413E+02  0.00000000000E+00 0.  1.
        -11    1    4    4    0    0  0.23267305040E+02  0.90793191663E+01  0.22056972639E+02  0.33321337943E+02  0.00000000000E+00 0.  1.
         11    1    4    4    0    0 -0.12007553450E+02 -0.43846754004E+02 -0.49542722709E+02  0.67239873215E+02  0.00000000000E+00 0. -1.
         21    1    1    2  502  501  0.31628029446E+02 -0.10600444381E+02 -0.51460835273E+01  0.33751797632E+02  0.00000000000E+00 0.  1.
<scales pt_clust_5="13000.00000" pt_clust_6="13000.00000" pt_clust_7="13000.00000" pt_clust_8="13000.00000" pt_clust_9="33.35718"></scales>
<clustering>
<clus scale="   33.357">  2  9  1 -1</clus>
<clus scale="   89.563">  7  8 -1 -1</clus>
<clus scale="   90.716">  5  6 -1 -1</clus>
<clus scale="  103.163">  2  7  1 -1</clus>
<clus scale="   33.357">  2  5  1 -1</clus>
</clustering>
</event>
<event>
 9    1  0.1748361E-005  0.9374685E+02  0.7546771E-02  0.1295854E+00
          1   -1    0    0  502    0  0.00000000000E+00  0.00000000000E+00  0.87226201338E+02  0.87226201338E+02  0.00000000000E+00 0. -1.
         -1   -1    0    0    0  501 -0.00000000000E+00 -0.00000000000E+00 -0.13152779840E+03  0.13152779840E+03  0.00000000000E+00 0.  1.
         23    2    1    2    0    0 -0.13994538097E+02 -0.14841959421E+02 -0.32834331534E+02  0.97666568871E+02  0.89691328966E+02 0.  0.
         23    2    1    2    0    0 -0.21129513318E+01  0.35890583526E+02 -0.45798446908E+01  0.93702537985E+02  0.86409444497E+02 0.  0.
        -11    1    4    4    0    0 -0.18598449311E+02  0.15524983433E+02 -0.41723636713E+02  0.48247168704E+02  0.00000000000E+00 0.  1.
         11    1    4    4    0    0  0.16485497979E+02  0.20365600093E+02  0.37143792022E+02  0.45455369282E+02  0.00000000000E+00 0. -1.
        -13    1    3    3    0    0  0.38206313515E+02 -0.10240616687E+02 -0.13027243010E+02  0.41644947869E+02  0.00000000000E+00 0. -1.
         13    1    3    3    0    0 -0.52200851612E+02 -0.46013427337E+01 -0.19807088524E+02  0.56021621002E+02  0.00000000000E+00 0.  1.
         21    1    1    2  502  501  0.16107489429E+02 -0.21048624105E+02 -0.68874208387E+01  0.27384892883E+02  0.00000000000E+00 0. -1.
<scales pt_clust_5="13000.00000" pt_clust_6="13000.00000" pt_clust_7="13000.00000" pt_clust_8="13000.00000" pt_clust_9="26.50464"></scales>
<clustering>
<clus scale="   26.505">  2  9  1 -1</clus>
<clus scale="   86.409">  5  6 -1 -1</clus>
<clus scale="   89.691">  7  8 -1 -1</clus>
<clus scale="   90.612">  1  5  2 -1</clus>
<clus scale="   90.612">  1  5  2 -1</clus>
</clustering>
</event>
<event>
 9    1  0.1748361E-005  0.1600011E+03  0.7546771E-02  0.1192740E+00
         -1   -1    0    0    0  501 -0.00000000000E+00  0.00000000000E+00  0.11395579803E+03  0.11395579803E+03  0.00000000000E+00 0.  1.
          1   -1    0    0  502    0  0.00000000000E+00 -0.00000000000E+00 -0.56559267385E+03  0.56559267385E+03  0.00000000000E+00 0. -1.
         23    2    1    2    0    0 -0.50445675439E+02 -0.13370312588E+03 -0.82912392909E+01  0.15654166908E+03  0.63366059288E+02 0.  0.
         23    2    1    2    0    0 -0.10047232035E+01  0.13134400259E+03 -0.44368995816E+03  0.47150119591E+03  0.90555741313E+02 0.  0.
        -11    1    3    3    0    0 -0.65111174308E+01 -0.98688789163E+02  0.41875547920E+01  0.98991956096E+02  0.00000000000E+00 0.  1.
         11    1    3    3    0    0 -0.43934558008E+02 -0.35014336717E+02 -0.12478794083E+02  0.57549712987E+02  0.00000000000E+00 0. -1.
        -13    1    4    4    0    0  0.31391039685E+02  0.19774473369E+02 -0.17299679946E+03  0.17693026817E+03  0.00000000000E+00 0.  1.
         13    1    4    4    0    0 -0.32395762888E+02  0.11156952922E+03 -0.27069315870E+03  0.29457092774E+03  0.00000000000E+00 0. -1.
         21    1    1    2  502  501  0.51450398642E+02  0.23591232889E+01  0.34432163976E+00  0.51505606884E+02  0.00000000000E+00 0. -1.
<scales pt_clust_5="13000.00000" pt_clust_6="13000.00000" pt_clust_7="13000.00000" pt_clust_8="13000.00000" pt_clust_9="51.50446"></scales>
<clustering>
<clus scale="   51.504">  1  9  2 -1</clus>
<clus scale="   63.366">  5  6 -1 -1</clus>
<clus scale="   90.556">  7  8 -1 -1</clus>
<clus scale="  146.340">  1  5  2 -1</clus>
<clus scale="  160.001">  2  5  1 -1</clus>
</clustering>
</event>
<event>
 9    1  0.1748361E-005  0.9956171E+02  0.7546771E-02  0.1281386E+00
         -3   -1    0    0    0  501 -0.00000000000E+00  0.00000000000E+00  0.19336144960E+03  0.19336144960E+03  0.00000000000E+00 0.  1.
          3   -1    0    0  502    0  0.00000000000E+00 -0.00000000000E+00 -0.11291485884E+03  0.11291485884E+03  0.00000000000E+00 0. -1.
         23    2    1    2    0    0  0.29795041435E+02 -0.11720362502E+02  0.10825774093E+03  0.14517258254E+03  0.91270087428E+02 0.  0.
         23    2    1    2    0    0 -0.68518049570E+02  0.13143812955E+02 -0.37605012132E+02  0.12113602266E+03  0.91609585270E+02 0.  0.
        -13    1    4    4    0    0 -0.35862496805E+02  0.37118277855E+02  0.15916612172E+02  0.54011330025E+02  0.00000000000E+00 0. -1.
         13    1    4    4    0    0 -0.32655552765E+02 -0.23974464900E+02 -0.53521624304E+02  0.67124692639E+02  0.00000000000E+00 0.  1.
        -13    1    3    3    0    0  0.83955606563E+01 -0.51043713620E+02  0.53085783603E+02  0.74121835916E+02  0.00000000000E+00 0.  1.
         13    1    3    3    0    0  0.21399480778E+02  0.39323351117E+02  0.55171957327E+02  0.71050746625E+02  0.00000000000E+00 0. -1.
         21    1    1    2  502  501  0.38723008135E+02 -0.14234504527E+01  0.97938619629E+01  0.39967703241E+02  0.00000000000E+00 0.  1.
<scales pt_clust_5="13000.00000" pt_clust_6="13000.00000" pt_clust_7="13000.00000" pt_clust_8="13000.00000" pt_clust_9="38.74916"></scales>
<clustering>
<clus scale="   38.749">  2  9  1 -1</clus>
<clus scale="   91.270">  7  8 -1 -1</clus>
<clus scale="   91.610">  5  6 -1 -1</clus>
<clus scale="   99.249">  1  7  2 -1</clus>
<clus scale="   38.749">  2  5  1 -1</clus>
</clustering>
</event>
<event>
 9    1  0.1748361E-005  0.1620851E+03  0.7546771E-02  0.1187889E+00
         -1   -1    0    0    0  501 -0.00000000000E+00  0.00000000000E+00  0.41421819174E+03  0.41421819174E+03  0.00000000000E+00 0.  1.
          1   -1    0    0  502    0  0.00000000000E+00 -0.00000000000E+00 -0.94957261171E+02  0.94957261171E+02  0.00000000000E+00 0. -1.
         23    2    1    2    0    0  0.12424814388E+03  0.11294598751E+03  0.12968716343E+03  0.23122866562E+03  0.91943124214E+02 0.  0.
         23    2    1    2    0    0 -0.62933807415E+02 -0.87188512720E+02  0.11073255584E+03  0.17480207360E+03  0.82046115975E+02 0.  0.
        -13    1    4    4    0    0 -0.66615592957E+02 -0.27246773643E+02  0.79036593984E+02  0.10689624450E+03  0.00000000000E+00 0.  1.
         13    1    4    4    0    0  0.36817855414E+01 -0.59941739077E+02  0.31695961851E+02  0.67905829102E+02  0.00000000000E+00 0. -1.
        -13    1    3    3    0    0  0.56143765732E+02  0.32986404409E+02  0.10063298924E+01  0.65124787955E+02  0.00000000000E+00 0. -1.
         13    1    3    3    0    0  0.68104378151E+02  0.79959583104E+02  0.12868083354E+03  0.16610387766E+03  0.00000000000E+00 0.  1.
         21    1    1    2  502  501 -0.61314336467E+02 -0.25757474792E+02  0.78841211304E+02  0.10314471370E+03  0.00000000000E+00 0.  1.
<scales pt_clust_5="13000.00000" pt_clust_6="13000.00000" pt_clust_7="13000.00000" pt_clust_8="13000.00000" pt_clust_9="66.50485"></scales>
<clustering>
<clus scale="   66.505">  1  9  2 -1</clus>
<clus scale="   82.046">  5  6 -1 -1</clus>
<clus scale="   91.943">  7  8 -1 -1</clus>
<clus scale="  156.683">  2  5  1 -1</clus>
<clus scale="  156.683">  2  5  1 -1</clus>
</clustering>
</event>
<event>
 9    1  0.1748361E-005  0.9399609E+02  0.7546771E-02  0.1293651E+00
         -2   -1    0    0    0  501 -0.00000000000E+00  0.00000000000E+00  0.64495032064E+02  0.64495032064E+02  0.00000000000E+00 0.  1.
          2   -1    0    0  502    0  0.00000000000E+00 -0.00000000000E+00 -0.58435843439E+03  0.58435843439E+03  0.00000000000E+00 0. -1.
         23    2    1    2    0    0 -0.30283676246E+02 -0.16875846466E+01 -0.22998627751E+03  0.24959676014E+03  0.92113548639E+02 0.  0.
         23    2    1    2    0    0  0.90436697631E+01 -0.12506193087E+02 -0.33484805327E+03  0.34753644328E+03  0.91761472339E+02 0.  0.
        -11    1    3    3    0    0 -0.11437204258E+02  0.45054486582E+02 -0.11591996944E+03  0.12489257671E+03  0.00000000000E+00 0.  1.
         11    1    3    3    0    0 -0.18846471988E+02 -0.46742071229E+02 -0.11406630806E+03  0.12470418343E+03  0.00000000000E+00 0. -1.
        -13    1    4    4    0    0  0.38992776934E+02  0.18035502650E+02 -0.10020728679E+03  0.10902851156E+03  0.00000000000E+00 0.  1.
         13    1    4    4    0    0 -0.29949107171E+02 -0.30541695737E+02 -0.23464076648E+03  0.23850793172E+03  0.00000000000E+00 0. -1.
         21    1    1    2  502  501  0.21240006482E+02  0.14193777734E+02  0.44970928450E+02  0.51720263025E+02  0.00000000000E+00 0.  1.
<scales pt_clust_5="13000.00000" pt_clust_6="13000.00000" pt_clust_7="13000.00000" pt_clust_8="13000.00000" pt_clust_9="25.54606"></scales>
<clustering>
<clus scale="   25.546">  1  9  2 -1</clus>
<clus scale="   91.761">  7  8 -1 -1</clus>
<clus scale="   92.114">  5  6 -1 -1</clus>
<clus scale="   93.651">  2  7  1 -1</clus>
<clus scale="   93.651">  2  5  1 -1</clus>
</clustering>
</event>
<event>
 9    1  0.1748361E-005  0.9449996E+02  0.7546771E-02  0.1292612E+00
          2   -1    0    0  502    0  0.00000000000E+00  0.00000000000E+00  0.42108054437E+03  0.42108054437E+03  0.00000000000E+00 0. -1.
         -2   -1    0    0    0  501 -0.00000000000E+00 -0.00000000000E+00 -0.34115585567E+02  0.34115585567E+02  0.00000000000E+00 0.  1.
         23    2    1    2    0    0  0.10849738703E+02  0.13410816047E+02  0.94334637093E+02  0.13286742420E+03  0.91962828580E+02 0.  0.
         23    2    1    2    0    0  0.90801304941E+01 -0.24785799891E+02  0.28086102000E+03  0.29653904877E+03  0.91409574145E+02 0.  0.
        -11    1    3    3    0    0  0.84076369810E+01  0.50599905217E+02  0.75051225812E+02  0.90905034313E+02  0.00000000000E+00 0.  1.
         11    1    3    3    0    0  0.24421017218E+01 -0.37189089170E+02  0.19283411281E+02  0.41962389884E+02  0.00000000000E+00 0. -1.
        -13    1    4    4    0    0  0.27940680117E+02  0.23828916552E+02  0.17143256174E+03  0.17532148213E+03  0.00000000000E+00 0. -1.
         13    1    4    4    0    0 -0.18860549623E+02 -0.48614716443E+02  0.10942845826E+03  0.12121756665E+03  0.00000000000E+00 0.  1.
         21    1    1    2  502  501 -0.19929869197E+02  0.11374983845E+02  0.11769301707E+02  0.25789656964E+02  0.00000000000E+00 0.  1.
<scales pt_clust_5="13000.00000" pt_clust_6="13000.00000" pt_clust_7="13000.00000" pt_clust_8="13000.00000" pt_clust_9="22.94755"></scales>
<clustering>
<clus scale="   22.948">  2  9  1 -1</clus>
<clus scale="   91.410">  7  8 -1 -1</clus>
<clus scale="   91.963">  5  6 -1 -1</clus>
<clus scale="   93.962">  1  7  2 -1</clus>
<clus scale="   93.962">  1  5  2 -1</clus>
</clustering>
</event>
<event>
 9    1  0.1748361E-005  0.9442774E+02  0.7546771E-02  0.1293607E+00
         -1   -1    0    0    0  501 -0.00000000000E+00  0.00000000000E+00  0.59692480781E+02  0.59692480781E+02  0.00000000000E+00 0.  1.
          1   -1    0    0  502    0  0.00000000000E+00 -0.00000000000E+00 -0.25606052601E+03  0.25606052601E+03  0.00000000000E+00 0. -1.
         23    2    1    2    0    0 -0.23839010405E+02  0.20031654132E+02 -0.73993154288E+02  0.12049552617E+03  0.89858885825E+02 0.  0.
         23    2    1    2    0    0  0.18079098583E+02  0.28926361793E+02 -0.10328698530E+03  0.14239528194E+03  0.91894650409E+02 0.  0.
        -13    1    3    3    0    0  0.92534699981E+01  0.49663259421E+02 -0.42881816612E+02  0.66263989008E+02  0.00000000000E+00 0.  1.
         13    1    3    3    0    0 -0.33092480403E+02 -0.29631605289E+02 -0.31111337676E+02  0.54231537164E+02  0.00000000000E+00 0. -1.
        -13    1    4    4    0    0  0.41672848694E+02 -0.18039352988E+02 -0.45548332816E+02  0.64317145434E+02  0.00000000000E+00 0. -1.
         13    1    4    4    0    0 -0.23593750111E+02  0.46965714781E+02 -0.57738652487E+02  0.78078136506E+02  0.00000000000E+00 0.  1.
         21    1    1    2  502  501  0.57599118218E+01 -0.48958015925E+02 -0.19087905639E+02  0.52862198679E+02  0.00000000000E+00 0. -1.
<scales pt_clust_5="13000.00000" pt_clust_6="13000.00000" pt_clust_7="13000.00000" pt_clust_8="13000.00000" pt_clust_9="49.29568"></scales>
<clustering>
<clus scale="   49.296">  1  9  2 -1</clus>
<clus scale="   89.859">  5  6 -1 -1</clus>
<clus scale="   91.895">  7  8 -1 -1</clus>
<clus scale="   92.448">  1  5  2 -1</clus>
<clus scale="   94.428">  2  5  1 -1</clus>
</clustering>
</event>
<event>
 9    1  0.1748361E-005  0.1610889E+03  0.7546771E-02  0.1188268E+00
          1   -1    0    0  502    0  0.00000000000E+00  0.00000000000E+00  0.65981901659E+03  0.65981901659E+03  0.00000000000E+00 0. -1.
         -1   -1    0    0    0  501 -0.00000000000E+00 -0.00000000000E+00 -0.18078880471E+03  0.18078880471E+03  0.00000000000E+00 0.  1.
         23    2    1    2    0    0 -0.99886778215E+02 -0.58897336223E+02  0.13404231585E+02  0.14829796315E+03  0.91467741710E+02 0.  0.
         23    2    1    2    0    0  0.13586821802E+03  0.16572250725E+02  0.55993092901E+03  0.58285895489E+03  0.86412405807E+02 0.  0.
        -11    1    3    3    0    0 -0.89231840619E+02 -0.67312115087E+01  0.26768227695E+02  0.93403257987E+02  0.00000000000E+00 0.  1.
         11    1    3    3    0    0 -0.10654937596E+02 -0.52166124714E+02 -0.13363996110E+02  0.54894705163E+02  0.00000000000E+00 0. -1.
        -11    1    4    4    0    0  0.36238232021E+02  0.38141742185E+02  0.28103733160E+03  0.28591954063E+03  0.00000000000E+00 0. -1.
         11    1    4    4    0    0  0.99629986000E+02 -0.21569491461E+02  0.27889359740E+03  0.29693941427E+03  0.00000000000E+00 0.  1.
         21    1    1    2  502  501 -0.35981439806E+02  0.42325085498E+02 -0.94304948713E+02  0.10945090326E+03  0.00000000000E+00 0. -1.
<scales pt_clust_5="13000.00000" pt_clust_6="13000.00000" pt_clust_7="13000.00000" pt_clust_8="13000.00000" pt_clust_9="55.55247"></scales>
<clustering>
<clus scale="   55.552">  2  9  1 -1</clus>
<clus scale="   86.412">  7  8 -1 -1</clus>
<clus scale="   91.468">  5  6 -1 -1</clus>
<clus scale="  158.273">  1  7  2 -1</clus>
<clus scale="  158.273">  1  5  2 -1</clus>
</clustering>
</event>
<event>
 9    1  0.1748361E-005  0.1012047E+03  0.7546771E-02  0.1278402E+00
         -4   -1    0    0    0  501 -0.00000000000E+00  0.00000000000E+00  0.10579123823E+03  0.10579123823E+03  0.00000000000E+00 0.  1.
          4   -1    0    0  502    0  0.00000000000E+00 -0.00000000000E+00 -0.32477412699E+03  0.32477412699E+03  0.00000000000E+00 0. -1.
         23    2    1    2    0    0 -0.43954390277E+02 -0.34959185892E+02  0.55010158086E+02  0.12108455428E+03  0.92093532291E+02 0.  0.
         23    2    1    2    0    0  0.35501789864E+02  0.12106884073E+02 -0.26507356177E+03  0.28353410853E+03  0.93384387478E+02 0.  0.
        -11    1    4    4    0    0 -0.31799030142E+02 -0.18191135727E+01 -0.79505924761E+02  0.85648581799E+02  0.00000000000E+00 0.  1.
         11    1    4    4    0    0  0.67300820007E+02  0.13925997646E+02 -0.18556763701E+03  0.19788552673E+03  0.00000000000E+00 0. -1.
        -11    1    3    3    0    0  0.26798190246E+02 -0.13609146258E+01  0.28556168520E+01  0.26984247936E+02  0.00000000000E+00 0. -1.
         11    1    3    3    0    0 -0.70752580524E+02 -0.33598271266E+02  0.52154541234E+02  0.94100306345E+02  0.00000000000E+00 0.  1.
         21    1    1    2  502  501  0.84526004131E+01  0.22852301819E+02 -0.89194850785E+01  0.25946702416E+02  0.00000000000E+00 0. -1.
<scales pt_clust_5="13000.00000" pt_clust_6="13000.00000" pt_clust_7="13000.00000" pt_clust_8="13000.00000" pt_clust_9="24.36543"></scales>
<clustering>
<clus scale="   24.365">  1  9  2 -1</clus>
<clus scale="   92.094">  7  8 -1 -1</clus>
<clus scale="   93.384">  5  6 -1 -1</clus>
<clus scale="  100.015">  1  7  2 -1</clus>
<clus scale="  101.205">  2  5  1 -1</clus>
</clustering>
</event>
<event>
 9    1  0.1748361E-005  0.1393249E+03  0.7546771E-02  0.1214249E+00
          2   -1    0    0  502    0  0.00000000000E+00  0.00000000000E+00  0.39772917584E+03  0.39772917584E+03  0.00000000000E+00 0. -1.
         -2   -1    0    0    0  501 -0.00000000000E+00 -0.00000000000E+00 -0.12951354528E+03  0.12951354528E+03  0.00000000000E+00 0.  1.
         23    2    1    2    0    0 -0.56770803833E+02 -0.76796274816E+02  0.11289310782E+03  0.17426790696E+03  0.92216363013E+02 0.  0.
         23    2    1    2    0    0  0.24900478168E+02  0.11177723158E+03  0.22498741792E+03  0.26875734202E+03  0.92179104750E+02 0.  0.
        -11    1    4    4    0    0 -0.20418289320E+02  0.88769652855E+02  0.17596689322E+03  0.19814465755E+03  0.00000000000E+00 0.  1.
         11    1    4    4    0    0  0.45318767488E+02  0.23007578725E+02  0.49020524700E+02  0.70612684464E+02  0.00000000000E+00 0. -1.
        -13    1    3    3    0    0 -0.19869653481E+01  0.20140318150E+02  0.96452474685E+01  0.22418992957E+02  0.00000000000E+00 0.  1.
         13    1    3    3    0    0 -0.54783838485E+02 -0.96936592966E+02  0.10324786035E+03  0.15184891400E+03  0.00000000000E+00 0. -1.
         21    1    1    2  502  501  0.31870325665E+02 -0.34980956763E+02 -0.69664895185E+02  0.84217472150E+02  0.00000000000E+00 0. -1.
<scales pt_clust_5="13000.00000" pt_clust_6="13000.00000" pt_clust_7="13000.00000" pt_clust_8="13000.00000" pt_clust_9="47.32214"></scales>
<clustering>
<clus scale="   47.322">  2  9  1 -1</clus>
<clus scale="   92.179">  5  6 -1 -1</clus>
<clus scale="   92.216">  7  8 -1 -1</clus>
<clus scale="  139.300">  1  5  2 -1</clus>
<clus scale="  139.300">  1  5  2 -1</clus>
</clustering>
</event>
<event>
 9    1  0.1748361E-005  0.1016903E+03  0.7546771E-02  0.1290893E+00
          1   -1    0    0  502    0  0.00000000000E+00  0.00000000000E+00  0.72826379076E+03  0.72826379076E+03  0.00000000000E+00 0. -1.
         -1   -1    0    0    0  501 -0.00000000000E+00 -0.00000000000E+00 -0.32259656335E+02  0.32259656335E+02  0.00000000000E+00 0.  1.
         23    2    1    2    0    0 -0.14204984741E+01  0.18987318934E+02  0.55881725357E+02  0.92454709089E+02  0.71151738613E+02 0.  0.
         23    2    1    2    0    0  0.21977022641E+02  0.39369422648E+02  0.53955231620E+03  0.54999069791E+03  0.96644321636E+02 0.  0.
        -11    1    4    4    0    0  0.58761293710E+02  0.11409629492E+02  0.27568495160E+03  0.28210859934E+03  0.00000000000E+00 0.  1.
         11    1    4    4    0    0 -0.36784271069E+02  0.27959793157E+02  0.26386736461E+03  0.26788209857E+03  0.00000000000E+00 0. -1.
        -13    1    3    3    0    0 -0.12446634390E+02  0.40997810057E+02  0.52249561146E+02  0.67570376476E+02  0.00000000000E+00 0.  1.
         13    1    3    3    0    0  0.11026135916E+02 -0.22010491123E+02  0.36321642105E+01  0.24884332613E+02  0.00000000000E+00 0. -1.
         21    1    1    2  502  501 -0.20556524167E+02 -0.58356741582E+02  0.10057009286E+03  0.11807804010E+03  0.00000000000E+00 0.  1.
<scales pt_clust_5="13000.00000" pt_clust_6="13000.00000" pt_clust_7="13000.00000" pt_clust_8="13000.00000" pt_clust_9="61.87148"></scales>
<clustering>
<clus scale="   61.871">  2  9  1 -1</clus>
<clus scale="   71.152">  7  8 -1 -1</clus>
<clus scale="   77.868">  2  7  1 -1</clus>
<clus scale="   96.644">  5  6 -1 -1</clus>
<clus scale="  101.690">  1  5  2 -1</clus>
</clustering>
</event>
<event>
 9    1  0.1748361E-005  0.9573871E+02  0.7546771E-02  0.1290027E+00
         -3   -1    0    0    0  501 -0.00000000000E+00  0.00000000000E+00  0.47570456557E+03  0.47570456557E+03  0.00000000000E+00 0.  1.
          3   -1    0    0  502    0  0.00000000000E+00 -0.00000000000E+00 -0.29381287629E+02  0.29381287629E+02  0.00000000000E+00 0. -1.
         23    2    1    2    0    0 -0.28980054776E+02 -0.99890744913E+01  0.16881191091E+03  0.19427243400E+03  0.91130083740E+02 0.  0.
         23    2    1    2    0    0  0.10842709152E+02  0.32591228867E+02  0.13843316049E+03  0.16874805318E+03  0.90179892367E+02 0.  0.
        -11    1    3    3    0    0 -0.66130314878E+01 -0.49931718154E+02  0.88029152842E+02  0.10142011839E+03  0.00000000000E+00 0.  1.
         11    1    3    3    0    0 -0.22367023288E+02  0.39942643663E+02  0.80782758071E+02  0.92852315615E+02  0.00000000000E+00 0. -1.
        -13    1    4    4    0    0  0.25845876545E+02  0.12039625114E+02  0.14036301832E+03  0.14322967157E+03  0.00000000000E+00 0.  1.
         13    1    4    4    0    0 -0.15003167393E+02  0.20551603753E+02 -0.19298578257E+01  0.25518381608E+02  0.00000000000E+00 0. -1.
         21    1    1    2  502  501  0.18137345624E+02 -0.22602154376E+02  0.13907820654E+03  0.14206536602E+03  0.00000000000E+00 0.  1.
<scales pt_clust_5="13000.00000" pt_clust_6="13000.00000" pt_clust_7="13000.00000" pt_clust_8="13000.00000" pt_clust_9="28.97966"></scales>
<clustering>
<clus scale="   28.980">  1  9  2 -1</clus>
<clus scale="   90.180">  7  8 -1 -1</clus>
<clus scale="   91.130">  5  6 -1 -1</clus>
<clus scale="   94.835">  2  7  1 -1</clus>
<clus scale="   94.835">  2  5  1 -1</clus>
</clustering>
</event>
<event>
 9    1  0.1748361E-005  0.2212002E+03  0.7546771E-02  0.1133895E+00
         -1   -1    0    0    0  501 -0.00000000000E+00  0.00000000000E+00  0.24215532977E+03  0.24215532977E+03  0.00000000000E+00 0.  1.
          1   -1    0    0  502    0  0.00000000000E+00 -0.00000000000E+00 -0.76136603219E+03  0.76136603219E+03  0.00000000000E+00 0. -1.
         23    2    1    2    0    0  0.13939689423E+03  0.11109514413E+03  0.11434738326E+03  0.23135147354E+03  0.93137291568E+02 0.  0.
         23    2    1    2    0    0 -0.19311902560E+03 -0.65513526704E+02 -0.66106877265E+03  0.69653531204E+03  0.81009496395E+02 0.  0.
        -11    1    4    4    0    0 -0.11344753907E+03 -0.58197101940E+02 -0.28765769325E+03  0.31464932112E+03  0.00000000000E+00 0.  1.
         11    1    4    4    0    0 -0.79671486535E+02 -0.73164247631E+01 -0.37341107940E+03  0.38188599092E+03  0.00000000000E+00 0. -1.
        -11    1    3    3    0    0  0.12061229759E+02  0.41753333468E+02 -0.47463798098E+01  0.43718900264E+02  0.00000000000E+00 0. -1.
         11    1    3    3    0    0  0.12733566447E+03  0.69341810664E+02  0.11909376307E+03  0.18763257328E+03  0.00000000000E+00 0.  1.
         21    1    1    2  502  501  0.53722131376E+02 -0.45581617429E+02  0.27510686964E+02  0.75634576380E+02  0.00000000000E+00 0. -1.
<scales pt_clust_5="13000.00000" pt_clust_6="13000.00000" pt_clust_7="13000.00000" pt_clust_8="13000.00000" pt_clust_9="70.45389"></scales>
<clustering>
<clus scale="   70.454">  1  9  2 -1</clus>
<clus scale="   81.009">  5  6 -1 -1</clus>
<clus scale="   93.137">  7  8 -1 -1</clus>
<clus scale="  216.374">  2  5  1 -1</clus>
<clus scale="  216.374">  2  5  1 -1</clus>
</clustering>
</event>
<event>
 9    1  0.1748361E-005  0.9308493E+02  0.7546771E-02  0.1295933E+00
          2   -1    0    0  502    0  0.00000000000E+00  0.00000000000E+00  0.16681691667E+03  0.16681691667E+03  0.00000000000E+00 0. -1.
         -2   -1    0    0    0  501 -0.00000000000E+00 -0.00000000000E+00 -0.66074781739E+02  0.66074781739E+02  0.00000000000E+00 0.  1.
         23    2    1    2    0    0 -0.14613651618E+02  0.11654904435E+02  0.44389134147E+02  0.10385573100E+03  0.92012075403E+02 0.  0.
         23    2    1    2    0    0  0.26246262189E+01  0.79898805411E+01  0.45799832988E+02  0.10371752241E+03  0.92676711741E+02 0.  0.
        -11    1    3    3    0    0  0.24563363887E+02 -0.25045188293E+02  0.14443903845E+01  0.35109921185E+02  0.00000000000E+00 0.  1.
         11    1    3    3    0    0 -0.39177015504E+02  0.36700092728E+02  0.42944743763E+02  0.68745809814E+02  0.00000000000E+00 0. -1.
        -13    1    4    4    0    0  0.20380386697E+02  0.46289722918E+02  0.28842521319E+02  0.58223617594E+02  0.00000000000E+00 0.  1.
         13    1    4    4    0    0 -0.17755760478E+02 -0.38299842377E+02  0.16957311669E+02  0.45493904815E+02  0.00000000000E+00 0. -1.
         21    1    1    2  502  501  0.11989025399E+02 -0.19644784976E+02  0.10553167796E+02  0.25318445002E+02  0.00000000000E+00 0. -1.
<scales pt_clust_5="13000.00000" pt_clust_6="13000.00000" pt_clust_7="13000.00000" pt_clust_8="13000.00000" pt_clust_9="23.01422"></scales>
<clustering>
<clus scale="   23.014">  2  9  1 -1</clus>
<clus scale="   92.012">  5  6 -1 -1</clus>
<clus scale="   92.423">  2  5  1 -1</clus>
<clus scale="   92.677">  7  8 -1 -1</clus>
<clus scale="   93.085">  1  5  2 -1</clus>
</clustering>
</event>
<event>
 9    1  0.1748361E-005  0.1037655E+03  0.7546771E-02  0.1272778E+00
         -1   -1    0    0    0  501 -0.00000000000E+00  0.00000000000E+00  0.19660126030E+03  0.19660126030E+03  0.00000000000E+00 0.  1.
          1   -1    0    0  502    0  0.00000000000E+00 -0.00000000000E+00 -0.15824950866E+03  0.15824950866E+03  0.00000000000E+00 0. -1.
         23    2    1    2    0    0 -0.45666021537E+02  0.18901816165E+02 -0.18950265451E+02  0.10514774384E+03  0.90853020293E+02 0.  0.
         23    2    1    2    0    0  0.52655861586E+02  0.38910144673E+01 -0.66246022714E+02  0.12387580577E+03  0.90381967100E+02 0.  0.
        -11    1    3    3    0    0 -0.56427743629E+02 -0.98228433625E-01  0.20517388593E+02  0.60042177964E+02  0.00000000000E+00 0.  1.
         11    1    3    3    0    0  0.10761722092E+02  0.19000044599E+02 -0.39467654044E+02  0.45105565875E+02  0.00000000000E+00 0. -1.
        -13    1    4    4    0    0 -0.63081369853E+01 -0.32942311230E+02 -0.32075056470E+02  0.46409026158E+02  0.00000000000E+00 0.  1.
         13    1    4    4    0    0  0.58963998571E+02  0.36833325697E+02 -0.34170966244E+02  0.77466779612E+02  0.00000000000E+00 0. -1.
         21    1    1    2  502  501 -0.69898400486E+01 -0.22792830632E+02  0.12354803980E+03  0.12582721936E+03  0.00000000000E+00 0.  1.
<scales pt_clust_5="13000.00000" pt_clust_6="13000.00000" pt_clust_7="13000.00000" pt_clust_8="13000.00000" pt_clust_9="23.84053"></scales>
<clustering>
<clus scale="   23.841">  1  9  2 -1</clus>
<clus scale="   90.382">  7  8 -1 -1</clus>
<clus scale="   90.853">  5  6 -1 -1</clus>
<clus scale="  103.353">  2  7  1 -1</clus>
<clus scale="  103.353">  2  5  1 -1</clus>
</clustering>
</event>
<event>
 9    1  0.1748361E-005  0.1073747E+03  0.7546771E-02  0.1266408E+00
          2   -1    0    0  502    0  0.00000000000E+00  0.00000000000E+00  0.13669451417E+03  0.13669451417E+03  0.00000000000E+00 0. -1.
         -2   -1    0    0    0  501 -0.00000000000E+00 -0.00000000000E+00 -0.35175779103E+03  0.35175779103E+03  0.00000000000E+00 0.  1.
         23    2    1    2    0    0 -0.33861169299E+02  0.20184821850E+02 -0.92784317444E+02  0.13755022538E+03  0.93579533655E+02 0.  0.
         23    2    1    2    0    0  0.24128364468E+02 -0.51555900872E+02  0.87373805002E+02  0.13869191579E+03  0.91438923983E+02 0.  0.
        -11    1    4    4    0    0  0.55013558368E+01 -0.66354850862E+02  0.92873047048E+02  0.11427438040E+03  0.00000000000E+00 0. -1.
         11    1    4    4    0    0  0.18627008631E+02  0.14798949990E+02 -0.54992420460E+01  0.24417535388E+02  0.00000000000E+00 0.  1.
        -13    1    3    3    0    0  0.28155119516E+02 -0.22373210478E+00 -0.55833077653E+02  0.62530739411E+02  0.00000000000E+00 0. -1.
         13    1    3    3    0    0 -0.62016288815E+02  0.20408553955E+02 -0.36951239791E+02  0.75019485969E+02  0.00000000000E+00 0.  1.
         21    1    1    2  502  501  0.97328048307E+01  0.31371079021E+02 -0.20965276442E+03  0.21221016403E+03  0.00000000000E+00 0.  1.
<scales pt_clust_5="13000.00000" pt_clust_6="13000.00000" pt_clust_7="13000.00000" pt_clust_8="13000.00000" pt_clust_9="32.84619"></scales>
<clustering>
<clus scale="   32.846">  2  9  1 -1</clus>
<clus scale="   91.439">  5  6 -1 -1</clus>
<clus scale="   93.580">  7  8 -1 -1</clus>
<clus scale="  105.514">  1  5  2 -1</clus>
<clus scale="  105.514">  1  5  2 -1</clus>
</clustering>
</event>
<event>
 9    1  0.1748361E-005  0.2361421E+03  0.7546771E-02  0.1122523E+00
         -1   -1    0    0    0  501 -0.00000000000E+00  0.00000000000E+00  0.96227836552E+02  0.96227836552E+02  0.00000000000E+00 0.  1.
          1   -1    0    0  502    0  0.00000000000E+00 -0.00000000000E+00 -0.67326150260E+03  0.67326150260E+03  0.00000000000E+00 0. -1.
         23    2    1    2    0    0  0.13836673084E+03  0.18115619676E+03 -0.28198778873E+03  0.37367619275E+03  0.90298749792E+02 0.  0.
         23    2    1    2    0    0 -0.11501039190E+03 -0.17589568416E+03 -0.29378892570E+03  0.37183875404E+03  0.88235164150E+02 0.  0.
        -11    1    3    3    0    0 -0.68911299687E+01  0.44084860161E+02 -0.64123960660E+02  0.78120707232E+02  0.00000000000E+00 0.  1.
         11    1    3    3    0    0  0.14525786081E+03  0.13707133659E+03 -0.21786382807E+03  0.29555548552E+03  0.00000000000E+00 0. -1.
        -13    1    4    4    0    0 -0.15149498785E+02 -0.86299325934E+02 -0.75720388090E+02  0.11580439604E+03  0.00000000000E+00 0.  1.
         13    1    4    4    0    0 -0.99860893118E+02 -0.89596358223E+02 -0.21806853761E+03  0.25603435800E+03  0.00000000000E+00 0. -1.
         21    1    1    2  502  501 -0.23356338936E+02 -0.52605125989E+01 -0.12569516180E+01  0.23974392353E+02  0.00000000000E+00 0. -1.
<scales pt_clust_5="13000.00000" pt_clust_6="13000.00000" pt_clust_7="13000.00000" pt_clust_8="13000.00000" pt_clust_9="23.94142"></scales>
<clustering>
<clus scale="   23.941">  1  9  2 -1</clus>
<clus scale="   88.235">  7  8 -1 -1</clus>
<clus scale="   90.299">  5  6 -1 -1</clus>
<clus scale="  235.361">  2  7  1 -1</clus>
<clus scale="  235.361">  2  5  1 -1</clus>
</clustering>
</event>
<event>
 9    1  0.1748361E-005  0.1055669E+03  0.7546771E-02  0.1269730E+00
         -1   -1    0    0    0  501 -0.00000000000E+00  0.00000000000E+00  0.46877284300E+02  0.46877284300E+02  0.00000000000E+00 0.  1.
          1   -1    0    0  502    0  0.00000000000E+00 -0.00000000000E+00 -0.46375521757E+03  0.46375521757E+03  0.00000000000E+00 0. -1.
         23    2    1    2    0    0  0.46362854093E+01  0.32469459125E+02 -0.45366357066E+02  0.10889056756E+03  0.93398546202E+02 0.  0.
         23    2    1    2    0    0  0.21585773602E+02 -0.50006659674E+02 -0.34304111107E+03  0.35924820340E+03  0.91735795211E+02 0.  0.
        -11    1    4    4    0    0  0.31624026369E+02  0.13524502264E+02 -0.61607475628E+02  0.70558289794E+02  0.00000000000E+00 0.  1.
         11    1    4    4    0    0 -0.10038252768E+02 -0.63531161938E+02 -0.28143363545E+03  0.28868991360E+03  0.00000000000E+00 0. -1.
        -13    1    3    3    0    0 -0.23027131208E+02 -0.15784604626E+02 -0.45367627944E+02  0.53269354982E+02  0.00000000000E+00 0. -1.
         13    1    3    3    0    0  0.27663416617E+02  0.48254063751E+02  0.12708784274E-02  0.55621212582E+02  0.00000000000E+00 0.  1.
         21    1    1    2  502  501 -0.26222059011E+02  0.17537200548E+02 -0.28470465125E+02  0.42493730906E+02  0.00000000000E+00 0. -1.
<scales pt_clust_5="13000.00000" pt_clust_6="13000.00000" pt_clust_7="13000.00000" pt_clust_8="13000.00000" pt_clust_9="31.54599"></scales>
<clustering>
<clus scale="   31.546">  1  9  2 -1</clus>
<clus scale="   91.736">  5  6 -1 -1</clus>
<clus scale="   93.399">  7  8 -1 -1</clus>
<clus scale="  104.099">  2  5  1 -1</clus>
<clus scale="  104.099">  2  5  1 -1</clus>
</clustering>
</event>
<event>
 9    1  0.1748361E-005  0.1026143E+03  0.7546771E-02  0.1279930E+00
         -1   -1    0    0    0  501 -0.00000000000E+00  0.00000000000E+00  0.59427271631E+03  0.59427271631E+03  0.00000000000E+00 0.  1.
          1   -1    0    0  502    0  0.00000000000E+00 -0.00000000000E+00 -0.42804441102E+02  0.42804441102E+02  0.00000000000E+00 0. -1.
         23    2    1    2    0    0  0.11832661920E+02 -0.44731420491E+02  0.20937719284E+03  0.23326128737E+03  0.91821062065E+02 0.  0.
         23    2    1    2    0    0 -0.38486830145E+02 -0.54360758481E+02  0.15747009003E+03  0.19259414902E+03  0.88652968512E+02 0.  0.
        -11    1    4    4    0    0 -0.55887227851E+02 -0.66966282729E+02  0.10920674047E+03  0.13976400618E+03  0.00000000000E+00 0.  1.
         11    1    4    4    0    0  0.17400397706E+02  0.12605524249E+02  0.48263349559E+02  0.52830142841E+02  0.00000000000E+00 0. -1.
        -13    1    3    3    0    0  0.10347525206E+02 -0.65888179345E+02  0.19854180325E+03  0.20944491184E+03  0.00000000000E+00 0.  1.
         13    1    3    3    0    0  0.14851367148E+01  0.21156758854E+02  0.10835389587E+02  0.23816375538E+02  0.00000000000E+00 0. -1.
         21    1    1    2  502  501  0.26654168225E+02  0.99092178971E+02  0.18462099233E+03  0.21122172101E+03  0.00000000000E+00 0. -1.
<scales pt_clust_5="13000.00000" pt_clust_6="13000.00000" pt_clust_7="13000.00000" pt_clust_8="13000.00000" pt_clust_9="102.61435"></scales>
<clustering>
<clus scale="   88.653">  5  6 -1 -1</clus>
<clus scale="   91.821">  7  8 -1 -1</clus>
<clus scale="  102.614">  1  9  2 -1</clus>
<clus scale="   93.196">  2  5  1 -1</clus>
<clus scale="   93.196">  2  5  1 -1</clus>
</clustering>
</event>
<event>
 9    1  0.1748361E-005  0.1574132E+03  0.7546771E-02  0.1192541E+00
          1   -1    0    0  502    0  0.00000000000E+00  0.00000000000E+00  0.16377246386E+03  0.16377246386E+03  0.00000000000E+00 0. -1.
         -1   -1    0    0    0  501 -0.00000000000E+00 -0.00000000000E+00 -0.26612164744E+03  0.26612164744E+03  0.00000000000E+00 0.  1.
         23    2    1    2    0    0 -0.56198824300E+02  0.12435134200E+03 -0.14842695376E+03  0.22098248976E+03  0.90449632764E+02 0.  0.
         23    2    1    2    0    0  0.72239744457E+02 -0.99026433708E+02  0.70082623542E+02  0.17050725870E+03  0.95584182243E+02 0.  0.
        -11    1    4    4    0    0 -0.15500729493E+02 -0.51827732157E+02  0.36956493932E+02  0.65514646294E+02  0.00000000000E+00 0. -1.
         11    1    4    4    0    0  0.87740473950E+02 -0.47198701551E+02  0.33126129611E+02  0.10499261241E+03  0.00000000000E+00 0.  1.
        -13    1    3    3    0    0 -0.57627114855E+01  0.76219264791E+02 -0.12667658408E+03  0.14795114776E+03  0.00000000000E+00 0.  1.
         13    1    3    3    0    0 -0.50436112815E+02  0.48132077211E+02 -0.21750369671E+02  0.73031341993E+02  0.00000000000E+00 0. -1.
         21    1    1    2  502  501 -0.16040920157E+02 -0.25324908293E+02 -0.24004853369E+02  0.38404362835E+02  0.00000000000E+00 0. -1.
<scales pt_clust_5="13000.00000" pt_clust_6="13000.00000" pt_clust_7="13000.00000" pt_clust_8="13000.00000" pt_clust_9="29.97769"></scales>
<clustering>
<clus scale="   29.978">  2  9  1 -1</clus>
<clus scale="   90.450">  7  8 -1 -1</clus>
<clus scale="   95.584">  5  6 -1 -1</clus>
<clus scale="  154.349">  2  7  1 -1</clus>
<clus scale="  157.413">  1  5  2 -1</clus>
</clustering>
</event>
<event>
 9    1  0.1748361E-005  0.1461439E+03  0.7546771E-02  0.1212874E+00
         -2   -1    0    0    0  501 -0.00000000000E+00  0.00000000000E+00  0.10769689790E+03  0.10769689790E+03  0.00000000000E+00 0.  1.
          2   -1    0    0  502    0  0.00000000000E+00 -0.00000000000E+00 -0.26974248211E+03  0.26974248211E+03  0.00000000000E+00 0. -1.
         23    2    1    2    0    0  0.51513181981E+02  0.38288026604E+02  0.13105953449E+02  0.13899241475E+03  0.12258688528E+03 0.  0.
         23    2    1    2    0    0 -0.76691946901E+02 -0.34710324366E+02 -0.17022056787E+03  0.21254166427E+03  0.95459184946E+02 0.  0.
        -11    1    3    3    0    0  0.29206287733E+02  0.67522451175E+02 -0.32483607032E+02  0.80420602967E+02  0.00000000000E+00 0. -1.
         11    1    3    3    0    0  0.22306894248E+02 -0.29234424571E+02  0.45589560481E+02  0.58571811785E+02  0.00000000000E+00 0.  1.
        -11    1    4    4    0    0 -0.35109370104E+01 -0.26961127583E+02 -0.10262561218E+00  0.27188961202E+02  0.00000000000E+00 0.  1.
         11    1    4    4    0    0 -0.73181009891E+02 -0.77491967837E+01 -0.17011794225E+03  0.18535270307E+03  0.00000000000E+00 0. -1.
         21    1    1    2  502  501  0.25178764920E+02 -0.35777022373E+01 -0.49309697885E+01  0.25905300988E+02  0.00000000000E+00 0.  1.
<scales pt_clust_5="13000.00000" pt_clust_6="13000.00000" pt_clust_7="13000.00000" pt_clust_8="13000.00000" pt_clust_9="25.43168"></scales>
<clustering>
<clus scale="   25.432">  1  9  2 -1</clus>
<clus scale="   95.459">  7  8 -1 -1</clus>
<clus scale="  122.587">  5  6 -1 -1</clus>
<clus scale="  124.270">  2  7  1 -1</clus>
<clus scale="  124.270">  2  5  1 -1</clus>
</clustering>
</event>
<event>
 9    1  0.2198492E-005  0.1014205E+03  0.7546771E-02  0.1280744E+00
         -3   -1    0    0    0  501 -0.00000000000E+00  0.00000000000E+00  0.37674911199E+03  0.37674911199E+03  0.00000000000E+00 0.  1.
          3   -1    0    0  502    0  0.00000000000E+00 -0.00000000000E+00 -0.17744956061E+03  0.17744956061E+03  0.00000000000E+00 0. -1.
         23    2    1    2    0    0  0.26763853377E+02 -0.39806176135E+02  0.30196878048E+03  0.31663007182E+03  0.82271638447E+02 0.  0.
         23    2    1    2    0    0  0.31106643389E+02  0.66717971368E+02 -0.12449714101E+03  0.17011716004E+03  0.89562263572E+02 0.  0.
        -11    1    4    4    0    0  0.35869835735E+02  0.39108443645E+02 -0.12298886240E+02  0.54473645763E+02  0.00000000000E+00 0.  1.
         11    1    4    4    0    0 -0.47631923460E+01  0.27609527722E+02 -0.11219825477E+03  0.11564351428E+03  0.00000000000E+00 0. -1.
        -13    1    3    3    0    0  0.46409685295E+02 -0.14293053430E+02  0.25563094738E+03  0.26020248178E+03  0.00000000000E+00 0.  1.
         13    1    3    3    0    0 -0.19645831918E+02 -0.25513122704E+02  0.46337833098E+02  0.56427590043E+02  0.00000000000E+00 0. -1.
         21    1    1    2  502  501 -0.57870496766E+02 -0.26911795233E+02  0.21827911901E+02  0.67451440730E+02  0.00000000000E+00 0.  1.
<scales pt_clust_5="13000.00000" pt_clust_6="13000.00000" pt_clust_7="13000.00000" pt_clust_8="13000.00000" pt_clust_9="63.82193"></scales>
<clustering>
<clus scale="   63.822">  2  9  1 -1</clus>
<clus scale="   82.272">  7  8 -1 -1</clus>
<clus scale="   89.562">  5  6 -1 -1</clus>
<clus scale="   95.044">  1  7  2 -1</clus>
<clus scale="   63.822">  2  5  1 -1</clus>
</clustering>
</event>
<event>
 9    1  0.1748361E-005  0.9806104E+02  0.7546771E-02  0.1285315E+00
         -1   -1    0    0    0  501 -0.00000000000E+00  0.00000000000E+00  0.37283017080E+03  0.37283017080E+03  0.00000000000E+00 0.  1.
          1   -1    0    0  502    0  0.00000000000E+00 -0.00000000000E+00 -0.14661462994E+03  0.14661462994E+03  0.00000000000E+00 0. -1.
         23    2    1    2    0    0  0.99337200159E+01  0.58333984816E+02  0.28884270381E+03  0.30771536378E+03  0.88074428658E+02 0.  0.
         23    2    1    2    0    0  0.44591296667E+01 -0.37949230175E+02 -0.11670856173E+03  0.15216862739E+03  0.89857525406E+02 0.  0.
        -11    1    3    3    0    0 -0.22092424029E+01 -0.23383186889E+02  0.62712743025E+02  0.66966725460E+02  0.00000000000E+00 0. -1.
         11    1    3    3    0    0  0.12142962419E+02  0.81717171706E+02  0.22612996079E+03  0.24074863832E+03  0.00000000000E+00 0.  1.
        -13    1    4    4    0    0 -0.40553141186E+02 -0.27510932910E+02 -0.43111558911E+02  0.65268791940E+02  0.00000000000E+00 0.  1.
         13    1    4    4    0    0  0.45012270852E+02 -0.10438297265E+02 -0.73597002819E+02  0.86899835449E+02  0.00000000000E+00 0. -1.
         21    1    1    2  502  501 -0.14392849683E+02 -0.20384754642E+02  0.54081398775E+02  0.59560809576E+02  0.00000000000E+00 0. -1.
<scales pt_clust_5="13000.00000" pt_clust_6="13000.00000" pt_clust_7="13000.00000" pt_clust_8="13000.00000" pt_clust_9="24.95380"></scales>
<clustering>
<clus scale="   24.954">  1  9  2 -1</clus>
<clus scale="   88.074">  5  6 -1 -1</clus>
<clus scale="   89.858">  7  8 -1 -1</clus>
<clus scale="   96.430">  1  5  2 -1</clus>
<clus scale="   98.061">  2  5  1 -1</clus>
</clustering>
</event>
<event>
 9    1  0.1748361E-005  0.1242091E+03  0.7546771E-02  0.1237090E+00
          1   -1    0    0  502    0  0.00000000000E+00  0.00000000000E+00  0.18887747772E+03  0.18887747772E+03  0.00000000000E+00 0. -1.
         -1   -1    0    0    0  501 -0.00000000000E+00 -0.00000000000E+00 -0.17347072355E+03  0.17347072355E+03  0.00000000000E+00 0.  1.
         23    2    1    2    0    0 -0.54082023723E+02  0.79185929877E+02  0.15894868036E+02  0.13192151593E+03  0.89192840266E+02 0.  0.
         23    2    1    2    0    0  0.48291446448E+02 -0.59981810691E+02  0.82195894795E+02  0.14534452348E+03  0.91863942715E+02 0.  0.
        -11    1    4    4    0    0  0.48671631497E+02 -0.83337657649E+02  0.65869767831E+02  0.11684570685E+03  0.00000000000E+00 0. -1.
         11    1    4    4    0    0 -0.38018504896E+00  0.23355846958E+02  0.16326126964E+02  0.28498816632E+02  0.00000000000E+00 0.  1.
        -13    1    3    3    0    0 -0.14679602629E+02  0.40498425139E+02  0.50791610952E+02  0.66598805659E+02  0.00000000000E+00 0. -1.
         13    1    3    3    0    0 -0.39402421094E+02  0.38687504737E+02 -0.34896742916E+02  0.65322710270E+02  0.00000000000E+00 0.  1.
         21    1    1    2  502  501  0.57905772749E+01 -0.19204119186E+02 -0.82684008664E+02  0.85082161865E+02  0.00000000000E+00 0.  1.
<scales pt_clust_5="13000.00000" pt_clust_6="13000.00000" pt_clust_7="13000.00000" pt_clust_8="13000.00000" pt_clust_9="20.05814"></scales>
<clustering>
<clus scale="   20.058">  2  9  1 -1</clus>
<clus scale="   89.193">  7  8 -1 -1</clus>
<clus scale="   91.864">  5  6 -1 -1</clus>
<clus scale="  122.247">  2  7  1 -1</clus>
<clus scale="  124.209">  1  5  2 -1</clus>
</clustering>
</event>
<event>
 9    1  0.1748361E-005  0.1328713E+03  0.7546771E-02  0.1223339E+00
          1   -1    0    0  502    0  0.00000000000E+00  0.00000000000E+00  0.42114074987E+03  0.42114074987E+03  0.00000000000E+00 0. -1.
         -1   -1    0    0    0  501 -0.00000000000E+00 -0.00000000000E+00 -0.15283503105E+03  0.15283503105E+03  0.00000000000E+00 0.  1.
         23    2    1    2    0    0  0.48096095062E+02 -0.10317403135E+03  0.19307181570E+03  0.24187446624E+03  0.90930832498E+02 0.  0.
         23    2    1    2    0    0 -0.14595841819E+02  0.83138730860E+02  0.18087630862E+03  0.21947805744E+03  0.91264952267E+02 0.  0.
        -11    1    4    4    0    0 -0.28635877806E+02  0.62585443965E+02  0.18198248330E+03  0.19456252343E+03  0.00000000000E+00 0. -1.
         11    1    4    4    0    0  0.14040035987E+02  0.20553286894E+02 -0.11061746868E+01  0.24915534012E+02  0.00000000000E+00 0.  1.
        -11    1    3    3    0    0  0.70464632463E+02 -0.80799446632E+02  0.11293400040E+03  0.15571738326E+03  0.00000000000E+00 0.  1.
         11    1    3    3    0    0 -0.22368537401E+02 -0.22374584713E+02  0.80137815299E+02  0.86157082979E+02  0.00000000000E+00 0. -1.
         21    1    1    2  502  501 -0.33500253243E+02  0.20035300485E+02 -0.10564240550E+03  0.11262325724E+03  0.00000000000E+00 0.  1.
<scales pt_clust_5="13000.00000" pt_clust_6="13000.00000" pt_clust_7="13000.00000" pt_clust_8="13000.00000" pt_clust_9="39.03435"></scales>
<clustering>
<clus scale="   39.034">  2  9  1 -1</clus>
<clus scale="   90.931">  7  8 -1 -1</clus>
<clus scale="   91.265">  5  6 -1 -1</clus>
<clus scale="  132.642">  2  7  1 -1</clus>
<clus scale="  132.871">  1  5  2 -1</clus>
</clustering>
</event>
<event>
 9    1  0.1748361E-005  0.1034332E+03  0.7546771E-02  0.1273685E+00
         -2   -1    0    0    0  501 -0.00000000000E+00  0.00000000000E+00  0.42239149618E+02  0.42239149618E+02  0.00000000000E+00 0.  1.
          2   -1    0    0  502    0  0.00000000000E+00 -0.00000000000E+00 -0.51997257219E+03  0.51997257219E+03  0.00000000000E+00 0. -1.
         23    2    1    2    0    0  0.75800951932E+02  0.44339069598E+01 -0.18011928902E+03  0.21482833650E+03  0.89122455315E+02 0.  0.
         23    2    1    2    0    0 -0.38841195889E+02  0.76857055151E+01 -0.29191682165E+03  0.30807221722E+03  0.90140732711E+02 0.  0.
        -11    1    4    4    0    0 -0.50120248860E+02 -0.16306937149E+02 -0.26537278000E+03  0.27055621950E+03  0.00000000000E+00 0. -1.
         11    1    4    4    0    0  0.11279052971E+02  0.23992642664E+02 -0.26544041651E+02  0.37515997722E+02  0.00000000000E+00 0.  1.
        -11    1    3    3    0    0  0.47352932519E+01  0.21160420275E+02 -0.13498797095E+01  0.21725758068E+02  0.00000000000E+00 0. -1.
         11    1    3    3    0    0  0.71065658680E+02 -0.16726513316E+02 -0.17876940931E+03  0.19310257843E+03  0.00000000000E+00 0.  1.
         21    1    1    2  502  501 -0.36959756043E+02 -0.12119612475E+02 -0.56973118988E+01  0.39311168085E+02  0.00000000000E+00 0.  1.
<scales pt_clust_5="13000.00000" pt_clust_6="13000.00000" pt_clust_7="13000.00000" pt_clust_8="13000.00000" pt_clust_9="38.89613"></scales>
<clustering>
<clus scale="   38.896">  1  9  2 -1</clus>
<clus scale="   89.122">  7  8 -1 -1</clus>
<clus scale="   90.141">  5  6 -1 -1</clus>
<clus scale="  102.547">  1  7  2 -1</clus>
<clus scale="  103.433">  2  5  1 -1</clus>
</clustering>
</event>
<event>
 9    1  0.1748361E-005  0.1082280E+03  0.7546771E-02  0.1263944E+00
          1   -1    0    0  502    0  0.00000000000E+00  0.00000000000E+00  0.39764890363E+03  0.39764890363E+03  0.00000000000E+00 0. -1.
         -1   -1    0    0    0  501 -0.00000000000E+00 -0.00000000000E+00 -0.52947710453E+02  0.52947710453E+02  0.00000000000E+00 0.  1.
         23    2    1    2    0    0  0.44715964920E+02  0.12552135418E+02  0.13449786375E+03  0.16861400424E+03  0.90465095218E+02 0.  0.
         23    2    1    2    0    0 -0.70391310897E+02 -0.90616279915E+00  0.22317856591E+03  0.25094700398E+03  0.90608877830E+02 0.  0.
        -13    1    4    4    0    0 -0.78253278827E+02 -0.24207467828E+02  0.20377476459E+03  0.21962179270E+03  0.00000000000E+00 0. -1.
         13    1    4    4    0    0  0.78619679304E+01  0.23301305029E+02  0.19403801327E+02  0.31325211280E+02  0.00000000000E+00 0.  1.
        -13    1    3    3    0    0  0.70080432798E+02  0.10816476175E+02  0.11989483221E+03  0.13929477380E+03  0.00000000000E+00 0.  1.
         13    1    3    3    0    0 -0.25364467878E+02  0.17356592427E+01  0.14603031540E+02  0.29319230446E+02  0.00000000000E+00 0. -1.
         21    1    1    2  502  501  0.25675345977E+02 -0.11645972618E+02 -0.12975236483E+02  0.31035605860E+02  0.00000000000E+00 0.  1.
<scales pt_clust_5="13000.00000" pt_clust_6="13000.00000" pt_clust_7="13000.00000" pt_clust_8="13000.00000" pt_clust_9="28.19312"></scales>
<clustering>
<clus scale="   28.193">  2  9  1 -1</clus>
<clus scale="   90.465">  7  8 -1 -1</clus>
<clus scale="   90.609">  5  6 -1 -1</clus>
<clus scale="  108.108">  2  7  1 -1</clus>
<clus scale="  108.228">  1  5  2 -1</clus>
</clustering>
</event>
<event>
 9    1  0.1748361E-005  0.1104972E+03  0.7546771E-02  0.1260075E+00
          1   -1    0    0  502    0  0.00000000000E+00  0.00000000000E+00  0.84333187387E+03  0.84333187387E+03  0.00000000000E+00 0. -1.
         -1   -1    0    0    0  501 -0.00000000000E+00 -0.00000000000E+00 -0.32038654408E+02  0.32038654408E+02  0.00000000000E+00 0.  1.
         23    2    1    2    0    0 -0.35029676345E+02  0.37287655674E+02  0.12953597978E+03  0.16668263486E+03  0.91575560140E+02 0.  0.
         23    2    1    2    0    0  0.29157692805E+02 -0.92523567360E+02  0.39732515837E+03  0.41888262258E+03  0.90468715339E+02 0.  0.
        -11    1    3    3    0    0  0.31403782794E+02  0.10385166065E+02  0.45076571420E+02  0.55910164898E+02  0.00000000000E+00 0.  1.
         11    1    3    3    0    0 -0.66433459139E+02  0.26902489609E+02  0.84459408359E+02  0.11077246996E+03  0.00000000000E+00 0. -1.
        -13    1    4    4    0    0  0.57452040438E+02 -0.59978034710E+02  0.31715280015E+03  0.32784752591E+03  0.00000000000E+00 0.  1.
         13    1    4    4    0    0 -0.28294347633E+02 -0.32545532650E+02  0.80172358220E+02  0.91035096672E+02  0.00000000000E+00 0. -1.
         21    1    1    2  502  501  0.58719835401E+01  0.55235911686E+02  0.28443208131E+03  0.28980527084E+03  0.00000000000E+00 0.  1.
<scales pt_clust_5="13000.00000" pt_clust_6="13000.00000" pt_clust_7="13000.00000" pt_clust_8="13000.00000" pt_clust_9="55.54715"></scales>
<clustering>
<clus scale="   55.547">  1  9  2 -1</clus>
<clus scale="   90.469">  7  8 -1 -1</clus>
<clus scale="   91.576">  5  6 -1 -1</clus>
<clus scale="  109.582">  1  7  2 -1</clus>
<clus scale="   55.547">  1  5  2 -1</clus>
</clustering>
</event>
<event>
 9    1  0.1748361E-005  0.9015332E+02  0.7546771E-02  0.1302696E+00
         -1   -1    0    0    0  501 -0.00000000000E+00  0.00000000000E+00  0.49090479663E+03  0.49090479663E+03  0.00000000000E+00 0.  1.
          1   -1    0    0  502    0  0.00000000000E+00 -0.00000000000E+00 -0.37659584316E+02  0.37659584316E+02  0.00000000000E+00 0. -1.
         23    2    1    2    0    0 -0.13571618417E+01 -0.17809132671E+02  0.29845503754E+03  0.31214062386E+03  0.89651282940E+02 0.  0.
         23    2    1    2    0    0 -0.42232642479E+01 -0.90471842509E+01  0.41061024297E+02  0.99433490051E+02  0.90007353719E+02 0.  0.
        -11    1    3    3    0    0  0.34991334230E+02 -0.29531124783E+02  0.22205426223E+03  0.22672577307E+03  0.00000000000E+00 0.  1.
         11    1    3    3    0    0 -0.36348496072E+02  0.11721992112E+02  0.76400775317E+02  0.85414850786E+02  0.00000000000E+00 0. -1.
        -13    1    4    4    0    0  0.27392374876E+02  0.56512862066E+00  0.56626449053E+02  0.62906409086E+02  0.00000000000E+00 0.  1.
         13    1    4    4    0    0 -0.31615639124E+02 -0.96123128715E+01 -0.15565424756E+02  0.36527080965E+02  0.00000000000E+00 0. -1.
         21    1    1    2  502  501  0.55804260897E+01  0.26856316922E+02  0.11372915048E+03  0.11699026704E+03  0.00000000000E+00 0.  1.
<scales pt_clust_5="13000.00000" pt_clust_6="13000.00000" pt_clust_7="13000.00000" pt_clust_8="13000.00000" pt_clust_9="27.42996"></scales>
<clustering>
<clus scale="   27.430">  1  9  2 -1</clus>
<clus scale="   89.651">  5  6 -1 -1</clus>
<clus scale="   89.798">  1  5  2 -1</clus>
<clus scale="   90.007">  7  8 -1 -1</clus>
<clus scale="   90.153">  2  5  1 -1</clus>
</clustering>
</event>
<event>
 9    1  0.1748361E-005  0.9224290E+02  0.7546771E-02  0.1298004E+00
          3   -1    0    0  502    0  0.00000000000E+00  0.00000000000E+00  0.21001319770E+03  0.21001319770E+03  0.00000000000E+00 0. -1.
         -3   -1    0    0    0  501 -0.00000000000E+00 -0.00000000000E+00 -0.82604500510E+02  0.82604500510E+02  0.00000000000E+00 0.  1.
         23    2    1    2    0    0 -0.13705556106E+02  0.59749158963E+00  0.36261707360E+02  0.98884639701E+02  0.90967363838E+02 0.  0.
         23    2    1    2    0    0 -0.18461131916E+02  0.21129313519E+02  0.11453647213E+03  0.14841399231E+03  0.90115749933E+02 0.  0.
        -13    1    3    3    0    0  0.32380217872E+01  0.42482351952E+02  0.28692924772E+01  0.42702082522E+02  0.00000000000E+00 0.  1.
         13    1    3    3    0    0 -0.16943577893E+02 -0.41884860362E+02  0.33392414883E+02  0.56182557178E+02  0.00000000000E+00 0. -1.
        -13    1    4    4    0    0 -0.18324762170E+02  0.55943104195E+02  0.80483257301E+02  0.99714505070E+02  0.00000000000E+00 0.  1.
         13    1    4    4    0    0 -0.13636974631E+00 -0.34813790676E+02  0.34053214824E+02  0.48699487243E+02  0.00000000000E+00 0. -1.
         21    1    1    2  502  501  0.32166688022E+02 -0.21726805109E+02 -0.23389482297E+02  0.45319066194E+02  0.00000000000E+00 0.  1.
<scales pt_clust_5="13000.00000" pt_clust_6="13000.00000" pt_clust_7="13000.00000" pt_clust_8="13000.00000" pt_clust_9="38.81688"></scales>
<clustering>
<clus scale="   38.817">  2  9  1 -1</clus>
<clus scale="   90.116">  7  8 -1 -1</clus>
<clus scale="   90.967">  5  6 -1 -1</clus>
<clus scale="   91.403">  1  7  2 -1</clus>
<clus scale="   91.403">  1  5  2 -1</clus>
</clustering>
</event>
<event>
 9    1  0.1748361E-005  0.1332187E+03  0.7546771E-02  0.1223064E+00
          2   -1    0    0  502    0  0.00000000000E+00  0.00000000000E+00  0.10299374917E+03  0.10299374917E+03  0.00000000000E+00 0. -1.
         -2   -1    0    0    0  501 -0.00000000000E+00 -0.00000000000E+00 -0.63945893440E+03  0.63945893440E+03  0.00000000000E+00 0.  1.
         23    2    1    2    0    0  0.13089765191E+03 -0.11732880125E+02 -0.24444440754E+03  0.29248568553E+03  0.92319835954E+02 0.  0.
         23    2    1    2    0    0 -0.87655021716E+02 -0.20527942021E+02  0.23208824577E+02  0.13015394662E+03  0.91085679708E+02 0.  0.
        -11    1    4    4    0    0 -0.66325652022E+02 -0.54929111371E+02  0.64966813822E+01  0.86362643898E+02  0.00000000000E+00 0. -1.
         11    1    4    4    0    0 -0.21329369694E+02  0.34401169350E+02  0.16712143195E+02  0.43791302725E+02  0.00000000000E+00 0.  1.
        -11    1    3    3    0    0  0.28128929682E+02  0.19305981908E+02 -0.13474484673E+03  0.13899687530E+03  0.00000000000E+00 0.  1.
         11    1    3    3    0    0  0.10276872223E+03 -0.31038862033E+02 -0.10969956082E+03  0.15348881023E+03  0.00000000000E+00 0. -1.
         21    1    1    2  502  501 -0.43242630192E+02  0.32260822146E+02 -0.31522960227E+03  0.31981305142E+03  0.00000000000E+00 0.  1.
<scales pt_clust_5="13000.00000" pt_clust_6="13000.00000" pt_clust_7="13000.00000" pt_clust_8="13000.00000" pt_clust_9="53.95077"></scales>
<clustering>
<clus scale="   53.951">  2  9  1 -1</clus>
<clus scale="   91.086">  5  6 -1 -1</clus>
<clus scale="   92.320">  7  8 -1 -1</clus>
<clus scale="  132.366">  1  5  2 -1</clus>
<clus scale="  132.366">  1  5  2 -1</clus>
</clustering>
</event>
<event>
 9    1  0.1748361E-005  0.9994939E+02  0.7546771E-02  0.1284034E+00
          3   -1    0    0  502    0  0.00000000000E+00  0.00000000000E+00  0.87691219806E+02  0.87691219806E+02  0.00000000000E+00 0. -1.
         -3   -1    0    0    0  501 -0.00000000000E+00 -0.00000000000E+00 -0.26845210000E+03  0.26845210000E+03  0.00000000000E+00 0.  1.
         23    2    1    2    0    0  0.32860137253E+01  0.14403431651E+02 -0.23802930258E+02  0.10168672962E+03  0.97751494936E+02 0.  0.
         23    2    1    2    0    0  0.30013098672E+02 -0.14022321327E+02 -0.28881884786E+01  0.96828967203E+02  0.90940066360E+02 0.  0.
        -11    1    4    4    0    0  0.17043089348E+02 -0.44163250549E+02 -0.28454676176E+02  0.55231586885E+02  0.00000000000E+00 0.  1.
         11    1    4    4    0    0  0.12970009325E+02  0.30140929221E+02  0.25566487697E+02  0.41597380318E+02  0.00000000000E+00 0. -1.
        -13    1    3    3    0    0  0.47322640497E+02  0.19019588723E+02 -0.26212197464E+02  0.57343320053E+02  0.00000000000E+00 0. -1.
         13    1    3    3    0    0 -0.44036626771E+02 -0.46161570713E+01  0.24092672067E+01  0.44343409567E+02  0.00000000000E+00 0.  1.
         21    1    1    2  502  501 -0.33299112398E+02 -0.38111032383E+00 -0.15406976146E+03  0.15762762298E+03  0.00000000000E+00 0.  1.
<scales pt_clust_5="13000.00000" pt_clust_6="13000.00000" pt_clust_7="13000.00000" pt_clust_8="13000.00000" pt_clust_9="33.30129"></scales>
<clustering>
<clus scale="   33.301">  2  9  1 -1</clus>
<clus scale="   90.940">  5  6 -1 -1</clus>
<clus scale="   93.299">  1  5  2 -1</clus>
<clus scale="   97.751">  7  8 -1 -1</clus>
<clus scale="   93.299">  1  5  2 -1</clus>
</clustering>
</event>
<event>
 9    1  0.1748361E-005  0.1767031E+03  0.7546771E-02  0.1171567E+00
         -2   -1    0    0    0  501 -0.00000000000E+00  0.00000000000E+00  0.12874995266E+03  0.12874995266E+03  0.00000000000E+00 0.  1.
          2   -1    0    0  502    0  0.00000000000E+00 -0.00000000000E+00 -0.52912126233E+03  0.52912126233E+03  0.00000000000E+00 0. -1.
         23    2    1    2    0    0  0.36303194388E+02 -0.15583103794E+03 -0.21609735496E+03  0.28377148258E+03  0.90702553414E+02 0.  0.
         23    2    1    2    0    0 -0.39429144973E+02  0.13528166005E+03 -0.25165357831E+03  0.30358688128E+03  0.94761205084E+02 0.  0.
        -11    1    3    3    0    0  0.12156661201E+02 -0.15905859613E+03 -0.18541040802E+03  0.24459035308E+03  0.00000000000E+00 0.  1.
         11    1    3    3    0    0  0.24146533187E+02  0.32275581897E+01 -0.30686946934E+02  0.39181129500E+02  0.00000000000E+00 0. -1.
        -11    1    4    4    0    0 -0.25224953090E+02  0.10779095481E+03 -0.10121489401E+03  0.14999880988E+03  0.00000000000E+00 0.  1.
         11    1    4    4    0    0 -0.14204191883E+02  0.27490705248E+02 -0.15043868430E+03  0.15358807140E+03  0.00000000000E+00 0. -1.
         21    1    1    2  502  501  0.31259505858E+01  0.20549377889E+02  0.67379623593E+02  0.70512851128E+02  0.00000000000E+00 0.  1.
<scales pt_clust_5="13000.00000" pt_clust_6="13000.00000" pt_clust_7="13000.00000" pt_clust_8="13000.00000" pt_clust_9="20.78578"></scales>
<clustering>
<clus scale="   20.786">  1  9  2 -1</clus>
<clus scale="   90.703">  5  6 -1 -1</clus>
<clus scale="   94.761">  7  8 -1 -1</clus>
<clus scale="  174.560">  1  5  2 -1</clus>
<clus scale="  176.703">  2  5  1 -1</clus>
</clustering>
</event>
<event>
 9    1  0.1748361E-005  0.9986531E+02  0.7546771E-02  0.1281292E+00
          1   -1    0    0  502    0  0.00000000000E+00  0.00000000000E+00  0.10933021499E+03  0.10933021499E+03  0.00000000000E+00 0. -1.
         -1   -1    0    0    0  501 -0.00000000000E+00 -0.00000000000E+00 -0.15925642640E+03  0.15925642640E+03  0.00000000000E+00 0.  1.
         23    2    1    2    0    0  0.20685379479E+02 -0.21436281074E+02 -0.15645020818E+02  0.97916681754E+02  0.91953851572E+02 0.  0.
         23    2    1    2    0    0 -0.89267052728E+01  0.47072549702E+02  0.24665310714E+02  0.10532338586E+03  0.90493795667E+02 0.  0.
        -11    1    3    3    0    0  0.51756523738E+02 -0.20411050884E+02 -0.30515582732E+02  0.63455098590E+02  0.00000000000E+00 0.  1.
         11    1    3    3    0    0 -0.31071144259E+02 -0.10252301908E+01  0.14870561914E+02  0.34461583164E+02  0.00000000000E+00 0. -1.
        -13    1    4    4    0    0  0.35960601607E+02 -0.11803599810E+01  0.13774271465E+02  0.38526467162E+02  0.00000000000E+00 0.  1.
         13    1    4    4    0    0 -0.44887306880E+02  0.48252909683E+02  0.10891039249E+02  0.66796918699E+02  0.00000000000E+00 0. -1.
         21    1    1    2  502  501 -0.11758674206E+02 -0.25636268627E+02 -0.58946501307E+02  0.65346573778E+02  0.00000000000E+00 0.  1.
<scales pt_clust_5="13000.00000" pt_clust_6="13000.00000" pt_clust_7="13000.00000" pt_clust_8="13000.00000" pt_clust_9="28.20434"></scales>
<clustering>
<clus scale="   28.204">  2  9  1 -1</clus>
<clus scale="   90.494">  7  8 -1 -1</clus>
<clus scale="   91.954">  5  6 -1 -1</clus>
<clus scale="   98.523">  1  7  2 -1</clus>
<clus scale="   98.523">  1  5  2 -1</clus>
</clustering>
</event>
<event>
 9    1  0.1748361E-005  0.1757354E+03  0.7546771E-02  0.1172158E+00
         -3   -1    0    0    0  501 -0.00000000000E+00  0.00000000000E+00  0.59697862369E+03  0.59697862369E+03  0.00000000000E+00 0.  1.
          3   -1    0    0  502    0  0.00000000000E+00 -0.00000000000E+00 -0.16250386356E+03  0.16250386356E+03  0.00000000000E+00 0. -1.
         23    2    1    2    0    0  0.50666218614E+02  0.19156500689E+03  0.19973322717E+03  0.29649549502E+03  0.93552118936E+02 0.  0.
         23    2    1    2    0    0  0.24169628951E+02 -0.13715647662E+03 -0.41074734922E+02  0.17206551507E+03  0.92321923637E+02 0.  0.
        -11    1    3    3    0    0 -0.96526129501E+01  0.13718107278E+03  0.13402771640E+03  0.19202929055E+03  0.00000000000E+00 0. -1.
         11    1    3    3    0    0  0.60318831564E+02  0.54383934109E+02  0.65705510775E+02  0.10446620447E+03  0.00000000000E+00 0.  1.
        -13    1    4    4    0    0  0.52340477102E+02 -0.12661875333E+03 -0.34104180967E+02  0.14119110948E+03  0.00000000000E+00 0.  1.
         13    1    4    4    0    0 -0.28170848151E+02 -0.10537723292E+02 -0.69705539553E+01  0.30874405584E+02  0.00000000000E+00 0. -1.
         21    1    1    2  502  501 -0.74835847565E+02 -0.54408530272E+02  0.27581626788E+03  0.29092147716E+03  0.00000000000E+00 0. -1.
<scales pt_clust_5="13000.00000" pt_clust_6="13000.00000" pt_clust_7="13000.00000" pt_clust_8="13000.00000" pt_clust_9="92.52401"></scales>
<clustering>
<clus scale="   92.322">  7  8 -1 -1</clus>
<clus scale="   92.524">  1  9  2 -1</clus>
<clus scale="   93.552">  5  6 -1 -1</clus>
<clus scale="  175.084">  2  7  1 -1</clus>
<clus scale="  175.084">  2  5  1 -1</clus>
</clustering>
</event>
<event>
 9    1  0.1748361E-005  0.1077047E+03  0.7546771E-02  0.1265256E+00
         -1   -1    0    0    0  501 -0.00000000000E+00  0.00000000000E+00  0.45910528584E+02  0.45910528584E+02  0.00000000000E+00 0.  1.
          1   -1    0    0  502    0  0.00000000000E+00 -0.00000000000E+00 -0.37398375249E+03  0.37398375249E+03  0.00000000000E+00 0. -1.
         23    2    1    2    0    0  0.63912426857E+02 -0.21235643040E+02 -0.10873181294E+03  0.15820600793E+03  0.93117039024E+02 0.  0.
         23    2    1    2    0    0 -0.47882165521E+02  0.53003106065E+01 -0.21475211084E+03  0.23862388991E+03  0.92206814599E+02 0.  0.
        -11    1    4    4    0    0 -0.44924765097E+01  0.44956840561E+02 -0.97702523838E+02  0.10764331388E+03  0.00000000000E+00 0.  1.
         11    1    4    4    0    0 -0.43389689011E+02 -0.39656529954E+02 -0.11704958701E+03  0.13098057604E+03  0.00000000000E+00 0. -1.
        -11    1    3    3    0    0 -0.13410519083E+02 -0.29209777203E+02 -0.12465156501E+02  0.34473659987E+02  0.00000000000E+00 0.  1.
         11    1    3    3    0    0  0.77322945940E+02  0.79741341629E+01 -0.96266656441E+02  0.12373234794E+03  0.00000000000E+00 0. -1.
         21    1    1    2  502  501 -0.16030261337E+02  0.15935332434E+02 -0.45893001205E+01  0.23064383232E+02  0.00000000000E+00 0.  1.
<scales pt_clust_5="13000.00000" pt_clust_6="13000.00000" pt_clust_7="13000.00000" pt_clust_8="13000.00000" pt_clust_9="22.60319"></scales>
<clustering>
<clus scale="   22.603">  1  9  2 -1</clus>
<clus scale="   92.207">  5  6 -1 -1</clus>
<clus scale="   93.117">  7  8 -1 -1</clus>
<clus scale="  106.919">  2  5  1 -1</clus>
<clus scale="  106.919">  2  5  1 -1</clus>
</clustering>
</event>
<event>
 9    1  0.1748361E-005  0.1024297E+03  0.7546771E-02  0.1275972E+00
         -3   -1    0    0    0  501 -0.00000000000E+00  0.00000000000E+00  0.28445027497E+02  0.28445027497E+02  0.00000000000E+00 0.  1.
          3   -1    0    0  502    0  0.00000000000E+00 -0.00000000000E+00 -0.58831268033E+03  0.58831268033E+03  0.00000000000E+00 0. -1.
         23    2    1    2    0    0 -0.34370510917E+02  0.79246874555E+01 -0.21739741403E+03  0.23861999512E+03  0.91835362210E+02 0.  0.
         23    2    1    2    0    0  0.42083067609E+02 -0.35990375124E+02 -0.32979938274E+03  0.34639315493E+03  0.90301125397E+02 0.  0.
        -11    1    3    3    0    0  0.90220705011E+01 -0.28373790681E+02 -0.13771664521E+03  0.14089834677E+03  0.00000000000E+00 0. -1.
         11    1    3    3    0    0 -0.43392581418E+02  0.36298478136E+02 -0.79680768820E+02  0.97721648354E+02  0.00000000000E+00 0.  1.
        -11    1    4    4    0    0  0.61726592787E+02 -0.25726290729E+02 -0.30846270269E+03  0.31562834670E+03  0.00000000000E+00 0. -1.
         11    1    4    4    0    0 -0.19643525178E+02 -0.10264084396E+02 -0.21336680052E+02  0.30764808232E+02  0.00000000000E+00 0.  1.
         21    1    1    2  502  501 -0.77125566919E+01  0.28065687669E+02 -0.12670856067E+02  0.31744557778E+02  0.00000000000E+00 0.  1.
<scales pt_clust_5="13000.00000" pt_clust_6="13000.00000" pt_clust_7="13000.00000" pt_clust_8="13000.00000" pt_clust_9="29.10612"></scales>
<clustering>
<clus scale="   29.106">  1  9  2 -1</clus>
<clus scale="   90.301">  7  8 -1 -1</clus>
<clus scale="   91.835">  5  6 -1 -1</clus>
<clus scale="  101.056">  2  7  1 -1</clus>
<clus scale="  101.056">  2  5  1 -1</clus>
</clustering>
</event>
<event>
 9    1  0.1748361E-005  0.1034264E+03  0.7546771E-02  0.1273294E+00
          2   -1    0    0  502    0  0.00000000000E+00  0.00000000000E+00  0.14490004780E+03  0.14490004780E+03  0.00000000000E+00 0. -1.
         -2   -1    0    0    0  501 -0.00000000000E+00 -0.00000000000E+00 -0.24265698631E+03  0.24265698631E+03  0.00000000000E+00 0.  1.
         23    2    1    2    0    0  0.86912685605E+01 -0.24844643684E+02 -0.25803469750E+02  0.98697062316E+02  0.91555975172E+02 0.  0.
         23    2    1    2    0    0 -0.27860284169E+02  0.50393584315E+02  0.79357705686E+02  0.13421434128E+03  0.91652251367E+02 0.  0.
        -11    1    4    4    0    0 -0.61488556652E+02  0.26708083626E+02  0.46844242339E+02  0.81783539728E+02  0.00000000000E+00 0.  1.
         11    1    4    4    0    0  0.33628272483E+02  0.23685500689E+02  0.32513463346E+02  0.52430801557E+02  0.00000000000E+00 0. -1.
        -13    1    3    3    0    0 -0.14905673190E+02 -0.53325919770E+02 -0.27187675856E+02  0.61684702569E+02  0.00000000000E+00 0.  1.
         13    1    3    3    0    0  0.23596941750E+02  0.28481276086E+02  0.13842061054E+01  0.37012359747E+02  0.00000000000E+00 0. -1.
         21    1    1    2  502  501  0.19169015609E+02 -0.25548940632E+02 -0.15131117444E+03  0.15464563051E+03  0.00000000000E+00 0.  1.
<scales pt_clust_5="13000.00000" pt_clust_6="13000.00000" pt_clust_7="13000.00000" pt_clust_8="13000.00000" pt_clust_9="31.94056"></scales>
<clustering>
<clus scale="   31.941">  2  9  1 -1</clus>
<clus scale="   91.556">  7  8 -1 -1</clus>
<clus scale="   91.652">  5  6 -1 -1</clus>
<clus scale="  103.341">  2  7  1 -1</clus>
<clus scale="  103.426">  1  5  2 -1</clus>
</clustering>
</event>
<event>
 9    1  0.1748361E-005  0.1931343E+03  0.7546771E-02  0.1156013E+00
         -1   -1    0    0    0  501 -0.00000000000E+00  0.00000000000E+00  0.46319527830E+02  0.46319527830E+02  0.00000000000E+00 0.  1.
          1   -1    0    0  502    0  0.00000000000E+00 -0.00000000000E+00 -0.10554488421E+04  0.10554488421E+04  0.00000000000E+00 0. -1.
         23    2    1    2    0    0  0.83606385024E+02 -0.15108272043E+03 -0.34032820956E+03  0.39175970861E+03  0.88523234451E+02 0.  0.
         23    2    1    2    0    0 -0.56306505909E+02  0.15954412367E+03 -0.64401638801E+03  0.67217797370E+03  0.91876930137E+02 0.  0.
        -13    1    3    3    0    0  0.83521285464E+02 -0.68434413284E+02 -0.22826819781E+03  0.25251820564E+03  0.00000000000E+00 0.  1.
         13    1    3    3    0    0  0.85099559899E-01 -0.82648307146E+02 -0.11206001174E+03  0.13924150296E+03  0.00000000000E+00 0. -1.
        -13    1    4    4    0    0 -0.31018745524E+02  0.16119139686E+03 -0.59170287093E+03  0.61404976709E+03  0.00000000000E+00 0. -1.
         13    1    4    4    0    0 -0.25287760386E+02 -0.16472731837E+01 -0.52313517084E+02  0.58128206612E+02  0.00000000000E+00 0.  1.
         21    1    1    2  502  501 -0.27299879115E+02 -0.84614032436E+01 -0.24784716714E+02  0.37830687638E+02  0.00000000000E+00 0. -1.
<scales pt_clust_5="13000.00000" pt_clust_6="13000.00000" pt_clust_7="13000.00000" pt_clust_8="13000.00000" pt_clust_9="28.58109"></scales>
<clustering>
<clus scale="   28.581">  1  9  2 -1</clus>
<clus scale="   88.523">  5  6 -1 -1</clus>
<clus scale="   91.877">  7  8 -1 -1</clus>
<clus scale="  191.562">  1  5  2 -1</clus>
<clus scale="  193.134">  2  5  1 -1</clus>
</clustering>
</event>
<event>
 9    1  0.1748361E-005  0.1127599E+03  0.7546771E-02  0.1266435E+00
         -2   -1    0    0    0  501 -0.00000000000E+00  0.00000000000E+00  0.38832204687E+02  0.38832204687E+02  0.00000000000E+00 0.  1.
          2   -1    0    0  502    0  0.00000000000E+00 -0.00000000000E+00 -0.45107997367E+03  0.45107997367E+03  0.00000000000E+00 0. -1.
         23    2    1    2    0    0 -0.57425745715E+02  0.41717317869E+02 -0.19506918544E+03  0.21794718392E+03  0.66414885282E+02 0.  0.
         23    2    1    2    0    0  0.34047908946E+02 -0.41784461457E+02 -0.22295253224E+03  0.24788458241E+03  0.93987942002E+02 0.  0.
        -11    1    4    4    0    0  0.47138957515E+02  0.13439460580E+02 -0.76914377728E+02  0.91205931373E+02  0.00000000000E+00 0.  1.
         11    1    4    4    0    0 -0.13091048569E+02 -0.55223922037E+02 -0.14603815451E+03  0.15667865103E+03  0.00000000000E+00 0. -1.
        -13    1    3    3    0    0 -0.57373715518E+02  0.37717120828E+01 -0.96560423046E+02  0.11238275821E+03  0.00000000000E+00 0. -1.
         13    1    3    3    0    0 -0.52030197039E-01  0.37945605786E+02 -0.98508762398E+02  0.10556442571E+03  0.00000000000E+00 0.  1.
         21    1    1    2  502  501  0.23377836769E+02  0.67143587305E-01  0.57739486936E+01  0.24080412035E+02  0.00000000000E+00 0.  1.
<scales pt_clust_5="13000.00000" pt_clust_6="13000.00000" pt_clust_7="13000.00000" pt_clust_8="13000.00000" pt_clust_9="23.37793"></scales>
<clustering>
<clus scale="   23.378">  1  9  2 -1</clus>
<clus scale="   66.415">  7  8 -1 -1</clus>
<clus scale="   91.060">  1  7  2 -1</clus>
<clus scale="   93.988">  5  6 -1 -1</clus>
<clus scale="  112.760">  2  5  1 -1</clus>
</clustering>
</event>
<event>
 9    1  0.1748361E-005  0.9674493E+02  0.7546771E-02  0.1287514E+00
         -4   -1    0    0    0  501 -0.00000000000E+00  0.00000000000E+00  0.26896948827E+03  0.26896948827E+03  0.00000000000E+00 0.  1.
          4   -1    0    0  502    0  0.00000000000E+00 -0.00000000000E+00 -0.79510659004E+02  0.79510659004E+02  0.00000000000E+00 0. -1.
         23    2    1    2    0    0  0.45559207691E+02 -0.19899976669E+02  0.40003790220E+02  0.11093743032E+03  0.90747780896E+02 0.  0.
         23    2    1    2    0    0 -0.22835497437E+02  0.33991756956E+01  0.82703446773E+01  0.93592165149E+02  0.90322092744E+02 0.  0.
        -11    1    3    3    0    0 -0.25887076683E+02 -0.15405155337E+02  0.27843407447E+01  0.30252472684E+02  0.00000000000E+00 0. -1.
         11    1    3    3    0    0  0.71446284374E+02 -0.44948213312E+01  0.37219449475E+02  0.80684957637E+02  0.00000000000E+00 0.  1.
        -11    1    4    4    0    0  0.11133331616E+02  0.21990853378E+02  0.37638759515E+02  0.44991387209E+02  0.00000000000E+00 0.  1.
         11    1    4    4    0    0 -0.33968829053E+02 -0.18591677682E+02 -0.29368414838E+02  0.48600777940E+02  0.00000000000E+00 0. -1.
         21    1    1    2  502  501 -0.22723710254E+02  0.16500800973E+02  0.14118469437E+03  0.14395055180E+03  0.00000000000E+00 0.  1.
<scales pt_clust_5="13000.00000" pt_clust_6="13000.00000" pt_clust_7="13000.00000" pt_clust_8="13000.00000" pt_clust_9="28.08280"></scales>
<clustering>
<clus scale="   28.083">  1  9  2 -1</clus>
<clus scale="   90.322">  7  8 -1 -1</clus>
<clus scale="   90.748">  5  6 -1 -1</clus>
<clus scale="   96.346">  2  7  1 -1</clus>
<clus scale="   96.346">  2  5  1 -1</clus>
</clustering>
</event>
<event>
 9    1  0.1748361E-005  0.9558687E+02  0.7546771E-02  0.1290432E+00
          1   -1    0    0  502    0  0.00000000000E+00  0.00000000000E+00  0.40166508713E+03  0.40166508713E+03  0.00000000000E+00 0. -1.
         -1   -1    0    0    0  501 -0.00000000000E+00 -0.00000000000E+00 -0.12261405147E+03  0.12261405147E+03  0.00000000000E+00 0.  1.
         23    2    1    2    0    0  0.38635141283E+02  0.18699598890E+02  0.25657778867E+02  0.10628314089E+03  0.93783982005E+02 0.  0.
         23    2    1    2    0    0 -0.11669269904E+02 -0.86902782908E+01  0.32634426459E+03  0.33957919940E+03  0.92745678271E+02 0.  0.
        -11    1    4    4    0    0  0.39727288810E+02  0.31170503494E+01  0.11324331560E+03  0.12005008124E+03  0.00000000000E+00 0.  1.
         11    1    4    4    0    0 -0.51396558714E+02 -0.11807328640E+02  0.21310094899E+03  0.21952911816E+03  0.00000000000E+00 0. -1.
        -13    1    3    3    0    0  0.14998847432E+01  0.23425452483E+02 -0.30687558582E+02  0.38635834791E+02  0.00000000000E+00 0. -1.
         13    1    3    3    0    0  0.37135256540E+02 -0.47258535933E+01  0.56345337449E+02  0.67647306101E+02  0.00000000000E+00 0.  1.
         21    1    1    2  502  501 -0.26965871379E+02 -0.10009320599E+02 -0.72951007799E+02  0.78416798309E+02  0.00000000000E+00 0. -1.
<scales pt_clust_5="13000.00000" pt_clust_6="13000.00000" pt_clust_7="13000.00000" pt_clust_8="13000.00000" pt_clust_9="28.76360"></scales>
<clustering>
<clus scale="   28.764">  2  9  1 -1</clus>
<clus scale="   92.746">  5  6 -1 -1</clus>
<clus scale="   93.784">  7  8 -1 -1</clus>
<clus scale="   94.568">  1  5  2 -1</clus>
<clus scale="   94.568">  1  5  2 -1</clus>
</clustering>
</event>
<event>
 9    1  0.1748361E-005  0.1283132E+03  0.7546771E-02  0.1230324E+00
         -1   -1    0    0    0  501 -0.00000000000E+00  0.00000000000E+00  0.45732109179E+02  0.45732109179E+02  0.00000000000E+00 0.  1.
          1   -1    0    0  502    0  0.00000000000E+00 -0.00000000000E+00 -0.51162645205E+03  0.51162645205E+03  0.00000000000E+00 0. -1.
         23    2    1    2    0    0 -0.97171961593E+02 -0.15777544035E+02 -0.20847978444E+03  0.24770955380E+03  0.90580800994E+02 0.  0.
         23    2    1    2    0    0  0.74586462105E+02  0.40873952047E+02 -0.24215353771E+03  0.27259724315E+03  0.91853692719E+02 0.  0.
        -11    1    4    4    0    0  0.63271082632E+02  0.11093005758E+01 -0.65128271935E+02  0.90808326989E+02  0.00000000000E+00 0.  1.
         11    1    4    4    0    0  0.11315379473E+02  0.39764651472E+02 -0.17702526577E+03  0.18178891616E+03  0.00000000000E+00 0. -1.
        -13    1    3    3    0    0 -0.21348922419E+02  0.28853661792E+02 -0.10972388379E+03  0.11544540251E+03  0.00000000000E+00 0.  1.
         13    1    3    3    0    0 -0.75823039174E+02 -0.44631205827E+02 -0.98755900656E+02  0.13226415129E+03  0.00000000000E+00 0. -1.
         21    1    1    2  502  501  0.22585499489E+02 -0.25096408012E+02 -0.15261020724E+02  0.37051764274E+02  0.00000000000E+00 0. -1.
<scales pt_clust_5="13000.00000" pt_clust_6="13000.00000" pt_clust_7="13000.00000" pt_clust_8="13000.00000" pt_clust_9="33.76292"></scales>
<clustering>
<clus scale="   33.763">  1  9  2 -1</clus>
<clus scale="   90.581">  7  8 -1 -1</clus>
<clus scale="   91.854">  5  6 -1 -1</clus>
<clus scale="  127.405">  1  7  2 -1</clus>
<clus scale="  128.313">  2  5  1 -1</clus>
</clustering>
</event>
<event>
 9    1  0.1748361E-005  0.9523622E+02  0.7546771E-02  0.1293098E+00
          1   -1    0    0  502    0  0.00000000000E+00  0.00000000000E+00  0.31678179118E+03  0.31678179118E+03  0.00000000000E+00 0. -1.
         -1   -1    0    0    0  501 -0.00000000000E+00 -0.00000000000E+00 -0.10703728050E+03  0.10703728050E+03  0.00000000000E+00 0.  1.
         23    2    1    2    0    0  0.67015741825E+02 -0.56927294092E+02  0.84562430545E+01  0.12682939816E+03  0.91007481710E+02 0.  0.
         23    2    1    2    0    0  0.21755855173E+01  0.22275024821E+02  0.20058988517E+03  0.21960293510E+03  0.86534600982E+02 0.  0.
        -11    1    3    3    0    0  0.39016037245E+02 -0.38906993546E+02  0.49436592750E+02  0.74026900596E+02  0.00000000000E+00 0. -1.
         11    1    3    3    0    0  0.27999704580E+02 -0.18020300546E+02 -0.40980349696E+02  0.52802497569E+02  0.00000000000E+00 0.  1.
        -13    1    4    4    0    0 -0.27454091802E+02  0.18032730103E+02  0.18070949256E+03  0.18367043097E+03  0.00000000000E+00 0. -1.
         13    1    4    4    0    0  0.29629677320E+02  0.42422947176E+01  0.19880392615E+02  0.35932504130E+02  0.00000000000E+00 0.  1.
         21    1    1    2  502  501 -0.69191327342E+02  0.34652269271E+02  0.69838244564E+00  0.77386738418E+02  0.00000000000E+00 0.  1.
<scales pt_clust_5="13000.00000" pt_clust_6="13000.00000" pt_clust_7="13000.00000" pt_clust_8="13000.00000" pt_clust_9="77.38359"></scales>
<clustering>
<clus scale="   77.384">  2  9  1 -1</clus>
<clus scale="   86.535">  7  8 -1 -1</clus>
<clus scale="   90.971">  1  7  2 -1</clus>
<clus scale="   91.007">  5  6 -1 -1</clus>
<clus scale="   90.971">  1  5  2 -1</clus>
</clustering>
</event>
<event>
 9    1  0.1748361E-005  0.1319342E+03  0.7546771E-02  0.1225378E+00
         -2   -1    0    0    0  501 -0.00000000000E+00  0.00000000000E+00  0.41205223767E+03  0.41205223767E+03  0.00000000000E+00 0.  1.
          2   -1    0    0  502    0  0.00000000000E+00 -0.00000000000E+00 -0.69491432603E+02  0.69491432603E+02  0.00000000000E+00 0. -1.
         23    2    1    2    0    0 -0.61969428716E+02 -0.56782937388E+01  0.18755039425E+03  0.21827941397E+03  0.92727013675E+02 0.  0.
         23    2    1    2    0    0  0.10735412198E+03  0.26326440841E+02  0.57118638381E+02  0.15340564047E+03  0.89737186752E+02 0.  0.
        -11    1    4    4    0    0  0.24438998049E+02 -0.47533730201E+01 -0.23071189907E+02  0.33943172869E+02  0.00000000000E+00 0.  1.
         11    1    4    4    0    0  0.82915123927E+02  0.31079813861E+02  0.80189828288E+02  0.11946246761E+03  0.00000000000E+00 0. -1.
        -11    1    3    3    0    0 -0.23404163301E+02 -0.23063833164E+02  0.80076366722E+01  0.33820371156E+02  0.00000000000E+00 0. -1.
         11    1    3    3    0    0 -0.38565265415E+02  0.17385539425E+02  0.17954275758E+03  0.18445904282E+03  0.00000000000E+00 0.  1.
         21    1    1    2  502  501 -0.45384693259E+02 -0.20648147102E+02  0.97891772439E+02  0.10985861583E+03  0.00000000000E+00 0.  1.
<scales pt_clust_5="13000.00000" pt_clust_6="13000.00000" pt_clust_7="13000.00000" pt_clust_8="13000.00000" pt_clust_9="49.86097"></scales>
<clustering>
<clus scale="   49.861">  1  9  2 -1</clus>
<clus scale="   89.737">  5  6 -1 -1</clus>
<clus scale="   92.727">  7  8 -1 -1</clus>
<clus scale="  129.850">  2  5  1 -1</clus>
<clus scale="  129.850">  2  5  1 -1</clus>
</clustering>
</event>
<event>
 9    1  0.1748361E-005  0.1012174E+03  0.7546771E-02  0.1278484E+00
         -1   -1    0    0    0  501 -0.00000000000E+00  0.00000000000E+00  0.74726230328E+02  0.74726230328E+02  0.00000000000E+00 0.  1.
          1   -1    0    0  502    0  0.00000000000E+00 -0.00000000000E+00 -0.23586869405E+03  0.23586869405E+03  0.00000000000E+00 0. -1.
         23    2    1    2    0    0 -0.26554686956E+02  0.11721220452E+02 -0.82824002907E+02  0.12692071209E+03  0.91687039936E+02 0.  0.
         23    2    1    2    0    0  0.40929800143E+02 -0.29299398980E+02 -0.10464938480E+03  0.14890419938E+03  0.93205490887E+02 0.  0.
        -11    1    3    3    0    0 -0.21434366372E+02 -0.33108645686E+02 -0.69434524262E+02  0.79854665740E+02  0.00000000000E+00 0. -1.
         11    1    3    3    0    0 -0.51203205843E+01  0.44829866138E+02 -0.13389478646E+02  0.47066046353E+02  0.00000000000E+00 0.  1.
        -13    1    4    4    0    0  0.81477867948E+01 -0.44792208637E+02 -0.10299413568E+03  0.11260781664E+03  0.00000000000E+00 0. -1.
         13    1    4    4    0    0  0.32782013349E+02  0.15492809657E+02 -0.16552491290E+01  0.36296382739E+02  0.00000000000E+00 0.  1.
         21    1    1    2  502  501 -0.14375113187E+02  0.17578178528E+02  0.26330923990E+02  0.34770012909E+02  0.00000000000E+00 0.  1.
<scales pt_clust_5="13000.00000" pt_clust_6="13000.00000" pt_clust_7="13000.00000" pt_clust_8="13000.00000" pt_clust_9="22.70763"></scales>
<clustering>
<clus scale="   22.708">  1  9  2 -1</clus>
<clus scale="   91.687">  5  6 -1 -1</clus>
<clus scale="   93.205">  7  8 -1 -1</clus>
<clus scale="   99.821">  1  5  2 -1</clus>
<clus scale="  101.217">  2  5  1 -1</clus>
</clustering>
</event>
<event>
 9    1  0.1748361E-005  0.1342734E+03  0.7546771E-02  0.1235982E+00
          1   -1    0    0  502    0  0.00000000000E+00  0.00000000000E+00  0.86196557287E+03  0.86196557287E+03  0.00000000000E+00 0. -1.
         -1   -1    0    0    0  501 -0.00000000000E+00 -0.00000000000E+00 -0.47153614734E+02  0.47153614734E+02  0.00000000000E+00 0.  1.
         23    2    1    2    0    0  0.37606339360E+02  0.18231593968E+02  0.68810977175E+02  0.12055064027E+03  0.89726687836E+02 0.  0.
         23    2    1    2    0    0  0.46384488942E+02  0.50646927407E+02  0.18641980437E+03  0.21854240484E+03  0.91059360742E+02 0.  0.
        -11    1    4    4    0    0  0.19043098778E+02  0.28313926317E+02  0.17931333582E+03  0.18253106705E+03  0.00000000000E+00 0. -1.
         11    1    4    4    0    0  0.27341390164E+02  0.22333001090E+02  0.71064685490E+01  0.36011337784E+02  0.00000000000E+00 0.  1.
        -13    1    3    3    0    0  0.62048108497E+02 -0.81021498829E+01  0.49325962856E+02  0.79678499060E+02  0.00000000000E+00 0.  1.
         13    1    3    3    0    0 -0.24441769137E+02  0.26333743851E+02  0.19485014319E+02  0.40872141206E+02  0.00000000000E+00 0. -1.
         21    1    1    2  502  501 -0.83990828301E+02 -0.68878521374E+02  0.55958117658E+03  0.57002614250E+03  0.00000000000E+00 0. -1.
<scales pt_clust_5="13000.00000" pt_clust_6="13000.00000" pt_clust_7="13000.00000" pt_clust_8="13000.00000" pt_clust_9="98.67897"></scales>
<clustering>
<clus scale="   89.727">  7  8 -1 -1</clus>
<clus scale="   91.059">  5  6 -1 -1</clus>
<clus scale="   98.982">  2  7  1 -1</clus>
<clus scale="   98.679">  1  9  2 -1</clus>
<clus scale="   98.679">  1  5  2 -1</clus>
</clustering>
</event>
<event>
 9    1  0.1748361E-005  0.9536938E+02  0.7546771E-02  0.1291238E+00
          1   -1    0    0  502    0  0.00000000000E+00  0.00000000000E+00  0.26805612294E+03  0.26805612294E+03  0.00000000000E+00 0. -1.
         -1   -1    0    0    0  501 -0.00000000000E+00 -0.00000000000E+00 -0.70411377604E+02  0.70411377604E+02  0.00000000000E+00 0.  1.
         23    2    1    2    0    0  0.20790303816E+02 -0.85057394445E+01  0.42318789278E+02  0.10478038243E+03  0.93185107606E+02 0.  0.
         23    2    1    2    0    0  0.37202629862E+02 -0.27436809671E+02  0.11635379317E+03  0.15511309777E+03  0.91569938953E+02 0.  0.
        -11    1    4    4    0    0 -0.22075340277E+02  0.12636336329E+02  0.10893824236E+02  0.27670797796E+02  0.00000000000E+00 0.  1.
         11    1    4    4    0    0  0.59277970139E+02 -0.40073146000E+02  0.10545996893E+03  0.12744229997E+03  0.00000000000E+00 0. -1.
        -13    1    3    3    0    0  0.42796121957E+02 -0.36170984893E+02  0.40951970381E+02  0.69403977413E+02  0.00000000000E+00 0.  1.
         13    1    3    3    0    0 -0.22005818142E+02  0.27665245449E+02  0.13668188976E+01  0.35376405014E+02  0.00000000000E+00 0. -1.
         21    1    1    2  502  501 -0.57992933678E+02  0.35942549116E+02  0.38972162885E+02  0.78574020346E+02  0.00000000000E+00 0.  1.
<scales pt_clust_5="13000.00000" pt_clust_6="13000.00000" pt_clust_7="13000.00000" pt_clust_8="13000.00000" pt_clust_9="68.22791"></scales>
<clustering>
<clus scale="   68.228">  2  9  1 -1</clus>
<clus scale="   91.570">  5  6 -1 -1</clus>
<clus scale="   93.185">  7  8 -1 -1</clus>
<clus scale="   93.792">  1  5  2 -1</clus>
<clus scale="   93.792">  1  5  2 -1</clus>
</clustering>
</event>
<event>
 9    1  0.1748361E-005  0.1833636E+03  0.7546771E-02  0.1178733E+00
          2   -1    0    0  502    0  0.00000000000E+00  0.00000000000E+00  0.50468104069E+03  0.50468104069E+03  0.00000000000E+00 0.  1.
         -2   -1    0    0    0  501 -0.00000000000E+00 -0.00000000000E+00 -0.14163183102E+03  0.14163183102E+03  0.00000000000E+00 0. -1.
         23    2    1    2    0    0 -0.11788767613E+03 -0.19823143975E+03  0.16333507717E+03  0.29651168502E+03  0.89708550481E+02 0.  0.
         23    2    1    2    0    0  0.70878579276E+02  0.72764400292E+02  0.16422069146E+03  0.21119520726E+03  0.85536828989E+02 0.  0.
        -11    1    3    3    0    0 -0.19895071354E+02 -0.30549238374E+02 -0.82255907873E+01  0.37372853426E+02  0.00000000000E+00 0. -1.
         11    1    3    3    0    0 -0.97992604781E+02 -0.16768220138E+03  0.17156066795E+03  0.25913883159E+03  0.00000000000E+00 0.  1.
        -13    1    4    4    0    0  0.90933561389E+02  0.57690201688E+02  0.13455848356E+03  0.17234574974E+03  0.00000000000E+00 0.  1.
         13    1    4    4    0    0 -0.20054982113E+02  0.15074198604E+02  0.29662207906E+02  0.38849457512E+02  0.00000000000E+00 0. -1.
         21    1    1    2  502  501  0.47009096859E+02  0.12546703946E+03  0.35493441049E+02  0.13860597944E+03  0.00000000000E+00 0. -1.
<scales pt_clust_5="13000.00000" pt_clust_6="13000.00000" pt_clust_7="13000.00000" pt_clust_8="13000.00000" pt_clust_9="159.92059"></scales>
<clustering>
<clus scale="   85.537">  7  8 -1 -1</clus>
<clus scale="   89.709">  5  6 -1 -1</clus>
<clus scale="  132.797">  1  7  2 -1</clus>
<clus scale="  159.921">  2  9  1 -1</clus>
<clus scale="  132.797">  1  5  2 -1</clus>
</clustering>
</event>
<event>
 9    1  0.1748361E-005  0.1225423E+03  0.7546771E-02  0.1239048E+00
          2   -1    0    0  502    0  0.00000000000E+00  0.00000000000E+00  0.25514243688E+03  0.25514243688E+03  0.00000000000E+00 0. -1.
         -2   -1    0    0    0  501 -0.00000000000E+00 -0.00000000000E+00 -0.12172124988E+03  0.12172124988E+03  0.00000000000E+00 0.  1.
         23    2    1    2    0    0  0.53442452921E+01  0.12545128792E+03  0.10894336970E+02  0.15555741466E+03  0.91174755708E+02 0.  0.
         23    2    1    2    0    0  0.92933528634E+00 -0.67496972728E+02  0.11638573603E+03  0.16269079852E+03  0.91465574833E+02 0.  0.
        -13    1    3    3    0    0 -0.28748455219E+02  0.42114246323E+01  0.49596508938E+01  0.29475547694E+02  0.00000000000E+00 0. -1.
         13    1    3    3    0    0  0.34092700511E+02  0.12123986329E+03  0.59346860765E+01  0.12608186696E+03  0.00000000000E+00 0.  1.
        -13    1    4    4    0    0  0.17873521155E+02  0.18031500869E+02  0.36328652081E+02  0.44321199714E+02  0.00000000000E+00 0.  1.
         13    1    4    4    0    0 -0.16944185869E+02 -0.85528473597E+02  0.80057083948E+02  0.11836959880E+03  0.00000000000E+00 0. -1.
         21    1    1    2  502  501 -0.62735805785E+01 -0.57954315191E+02  0.61411140054E+01  0.58615473586E+02  0.00000000000E+00 0. -1.
<scales pt_clust_5="13000.00000" pt_clust_6="13000.00000" pt_clust_7="13000.00000" pt_clust_8="13000.00000" pt_clust_9="58.29289"></scales>
<clustering>
<clus scale="   58.293">  2  9  1 -1</clus>
<clus scale="   91.175">  5  6 -1 -1</clus>
<clus scale="   91.466">  7  8 -1 -1</clus>
<clus scale="  122.325">  2  5  1 -1</clus>
<clus scale="  122.542">  1  5  2 -1</clus>
</clustering>
</event>
<event>
 9    1  0.1748361E-005  0.1405353E+03  0.7546771E-02  0.1212958E+00
          2   -1    0    0  502    0  0.00000000000E+00  0.00000000000E+00  0.11303885604E+04  0.11303885604E+04  0.00000000000E+00 0. -1.
         -2   -1    0    0    0  501 -0.00000000000E+00 -0.00000000000E+00 -0.12669568284E+03  0.12669568284E+03  0.00000000000E+00 0.  1.
         23    2    1    2    0    0 -0.60523009643E+02 -0.72295888383E+02 -0.46518739546E+02  0.14067720204E+03  0.93468453879E+02 0.  0.
         23    2    1    2    0    0  0.12380607478E+03  0.15724280107E+03  0.39113803076E+03  0.44887523182E+03  0.91906321858E+02 0.  0.
        -11    1    3    3    0    0 -0.46539191006E+02  0.11158609279E+02 -0.21275362876E+02  0.52374153225E+02  0.00000000000E+00 0. -1.
         11    1    3    3    0    0 -0.13983818637E+02 -0.83454497662E+02 -0.25243376670E+02  0.88303048811E+02  0.00000000000E+00 0.  1.
        -13    1    4    4    0    0  0.68613119442E+02  0.67027774851E+02  0.27763178898E+03  0.29373439195E+03  0.00000000000E+00 0. -1.
         13    1    4    4    0    0  0.55192955336E+02  0.90215026217E+02  0.11350624178E+03  0.15514083988E+03  0.00000000000E+00 0.  1.
         21    1    1    2  502  501 -0.63283065135E+02 -0.84946912685E+02  0.65907358631E+03  0.66753180934E+03  0.00000000000E+00 0. -1.
<scales pt_clust_5="13000.00000" pt_clust_6="13000.00000" pt_clust_7="13000.00000" pt_clust_8="13000.00000" pt_clust_9="105.92792"></scales>
<clustering>
<clus scale="   91.906">  7  8 -1 -1</clus>
<clus scale="   93.468">  5  6 -1 -1</clus>
<clus scale="  105.928">  1  9  2 -1</clus>
<clus scale="  139.501">  1  7  2 -1</clus>
<clus scale="  105.928">  1  5  2 -1</clus>
</clustering>
</event>
<event>
 9    1  0.1748361E-005  0.3533494E+03  0.7546771E-02  0.1061377E+00
         -1   -1    0    0    0  501 -0.00000000000E+00  0.00000000000E+00  0.13510145532E+03  0.13510145532E+03  0.00000000000E+00 0.  1.
          1   -1    0    0  502    0  0.00000000000E+00 -0.00000000000E+00 -0.22421058851E+04  0.22421058851E+04  0.00000000000E+00 0. -1.
         23    2    1    2    0    0 -0.21909785285E+03 -0.27349829116E+03 -0.26557083241E+03  0.44840040417E+03  0.87919685174E+02 0.  0.
         23    2    1    2    0    0  0.23594696577E+03  0.24404022522E+03 -0.18580063773E+04  0.18910401878E+04  0.92836908654E+02 0.  0.
        -13    1    4    4    0    0  0.16919075601E+03  0.22646789651E+03 -0.15178524395E+04  0.15439524760E+04  0.00000000000E+00 0. -1.
         13    1    4    4    0    0  0.66756209764E+02  0.17572328711E+02 -0.34015393774E+03  0.34708771174E+03  0.00000000000E+00 0.  1.
        -13    1    3    3    0    0 -0.14677340107E+03 -0.18234932589E+03 -0.12317522245E+03  0.26451057321E+03  0.00000000000E+00 0.  1.
         13    1    3    3    0    0 -0.72324451785E+02 -0.91148965275E+02 -0.14239560996E+03  0.18388983097E+03  0.00000000000E+00 0. -1.
         21    1    1    2  502  501 -0.16849112921E+02  0.29458065943E+02  0.16572779921E+02  0.37766748465E+02  0.00000000000E+00 0. -1.
<scales pt_clust_5="13000.00000" pt_clust_6="13000.00000" pt_clust_7="13000.00000" pt_clust_8="13000.00000" pt_clust_9="33.93627"></scales>
<clustering>
<clus scale="   33.936">  1  9  2 -1</clus>
<clus scale="   87.920">  7  8 -1 -1</clus>
<clus scale="   92.837">  5  6 -1 -1</clus>
<clus scale="  352.089">  1  7  2 -1</clus>
<clus scale="  353.349">  2  5  1 -1</clus>
</clustering>
</event>
<event>
 9    1  0.1748361E-005  0.1193120E+03  0.7546771E-02  0.1244508E+00
         -1   -1    0    0    0  501 -0.00000000000E+00  0.00000000000E+00  0.22006685310E+02  0.22006685310E+02  0.00000000000E+00 0.  1.
          1   -1    0    0  502    0  0.00000000000E+00 -0.00000000000E+00 -0.90318423199E+03  0.90318423199E+03  0.00000000000E+00 0. -1.
         23    2    1    2    0    0  0.47498244245E+02  0.42384611330E+02 -0.29807779918E+03  0.31820389146E+03  0.91382731927E+02 0.  0.
         23    2    1    2    0    0 -0.37006456311E+02 -0.80774606952E+02 -0.46780455713E+03  0.48501633140E+03  0.92226477324E+02 0.  0.
        -13    1    3    3    0    0 -0.23669104707E+02  0.27194744630E+02 -0.69082949247E+02  0.77924543821E+02  0.00000000000E+00 0.  1.
         13    1    3    3    0    0  0.71167348952E+02  0.15189866700E+02 -0.22899484993E+03  0.24027934764E+03  0.00000000000E+00 0. -1.
        -13    1    4    4    0    0 -0.18919020875E+02  0.18561126794E+02 -0.11741479271E+03  0.12036892591E+03  0.00000000000E+00 0.  1.
         13    1    4    4    0    0 -0.18087435436E+02 -0.99335733746E+02 -0.35038976442E+03  0.36464740549E+03  0.00000000000E+00 0. -1.
         21    1    1    2  502  501 -0.10491787934E+02  0.38389995622E+02 -0.11529519037E+03  0.12197069443E+03  0.00000000000E+00 0.  1.
<scales pt_clust_5="13000.00000" pt_clust_6="13000.00000" pt_clust_7="13000.00000" pt_clust_8="13000.00000" pt_clust_9="39.79786"></scales>
<clustering>
<clus scale="   39.798">  1  9  2 -1</clus>
<clus scale="   91.383">  5  6 -1 -1</clus>
<clus scale="   92.226">  7  8 -1 -1</clus>
<clus scale="  118.661">  1  5  2 -1</clus>
<clus scale="  119.312">  2  5  1 -1</clus>
</clustering>
</event>
<event>
 9    1  0.1748361E-005  0.9216368E+02  0.7546771E-02  0.1297814E+00
          1   -1    0    0  502    0  0.00000000000E+00  0.00000000000E+00  0.33797035857E+02  0.33797035857E+02  0.00000000000E+00 0. -1.
         -1   -1    0    0    0  501 -0.00000000000E+00 -0.00000000000E+00 -0.92616060331E+03  0.92616060331E+03  0.00000000000E+00 0.  1.
         23    2    1    2    0    0  0.26295520686E+02 -0.29997797981E+02 -0.56394131168E+03  0.57272332437E+03  0.91601751988E+02 0.  0.
         23    2    1    2    0    0  0.10261784464E+02  0.22693556055E+01 -0.50017478605E+02  0.10507385863E+03  0.91805846248E+02 0.  0.
        -13    1    4    4    0    0  0.20106954479E+02 -0.41691578751E+02 -0.33305940307E+02  0.57024231839E+02  0.00000000000E+00 0.  1.
         13    1    4    4    0    0 -0.98451700151E+01  0.43960934356E+02 -0.16711538298E+02  0.48049626787E+02  0.00000000000E+00 0. -1.
        -13    1    3    3    0    0 -0.31305680863E+02  0.61530575997E+01 -0.17917178787E+03  0.18199020672E+03  0.00000000000E+00 0.  1.
         13    1    3    3    0    0  0.57601201549E+02 -0.36150855581E+02 -0.38476952380E+03  0.39073311765E+03  0.00000000000E+00 0. -1.
         21    1    1    2  502  501 -0.36557305150E+02  0.27728442375E+02 -0.27840477717E+03  0.28216045617E+03  0.00000000000E+00 0.  1.
<scales pt_clust_5="13000.00000" pt_clust_6="13000.00000" pt_clust_7="13000.00000" pt_clust_8="13000.00000" pt_clust_9="45.88358"></scales>
<clustering>
<clus scale="   45.884">  2  9  1 -1</clus>
<clus scale="   91.602">  7  8 -1 -1</clus>
<clus scale="   91.806">  5  6 -1 -1</clus>
<clus scale="   91.960">  2  7  1 -1</clus>
<clus scale="   92.164">  1  5  2 -1</clus>
</clustering>
</event>
<event>
 9    1  0.1748361E-005  0.9326023E+02  0.7546771E-02  0.1297070E+00
          2   -1    0    0  502    0  0.00000000000E+00  0.00000000000E+00  0.19830429463E+03  0.19830429463E+03  0.00000000000E+00 0. -1.
         -2   -1    0    0    0  501 -0.00000000000E+00 -0.00000000000E+00 -0.68714825754E+02  0.68714825754E+02  0.00000000000E+00 0.  1.
         23    2    1    2    0    0 -0.25583816977E+02 -0.34196659649E+02  0.27263066250E+02  0.10393780063E+03  0.90751575171E+02 0.  0.
         23    2    1    2    0    0  0.91570752758E+01  0.81721663335E+01  0.98214472777E+02  0.13203264728E+03  0.87383642378E+02 0.  0.
        -11    1    4    4    0    0  0.11751957824E+02  0.40038081244E+02  0.17558083529E+02  0.45270771582E+02  0.00000000000E+00 0.  1.
         11    1    4    4    0    0 -0.25948825481E+01 -0.31865914910E+02  0.80656389249E+02  0.86761875701E+02  0.00000000000E+00 0. -1.
        -13    1    3    3    0    0 -0.46578010398E+02 -0.10157910821E+02  0.46563738729E+02  0.66639897729E+02  0.00000000000E+00 0.  1.
         13    1    3    3    0    0  0.20994193421E+02 -0.24038748828E+02 -0.19300672479E+02  0.37297902900E+02  0.00000000000E+00 0. -1.
         21    1    1    2  502  501  0.16426741702E+02  0.26024493316E+02  0.41119298501E+01  0.31048672474E+02  0.00000000000E+00 0. -1.
<scales pt_clust_5="13000.00000" pt_clust_6="13000.00000" pt_clust_7="13000.00000" pt_clust_8="13000.00000" pt_clust_9="30.77519"></scales>
<clustering>
<clus scale="   30.775">  2  9  1 -1</clus>
<clus scale="   87.384">  5  6 -1 -1</clus>
<clus scale="   89.986">  1  5  2 -1</clus>
<clus scale="   90.752">  7  8 -1 -1</clus>
<clus scale="   89.986">  1  5  2 -1</clus>
</clustering>
</event>
<event>
 9    1  0.1748361E-005  0.1053060E+03  0.7546771E-02  0.1270061E+00
          1   -1    0    0  502    0  0.00000000000E+00  0.00000000000E+00  0.81742930101E+02  0.81742930101E+02  0.00000000000E+00 0. -1.
         -1   -1    0    0    0  501 -0.00000000000E+00 -0.00000000000E+00 -0.29129790589E+03  0.29129790589E+03  0.00000000000E+00 0.  1.
         23    2    1    2    0    0 -0.51598501694E+02  0.41193948977E+02 -0.10666526267E+03  0.15562870513E+03  0.92105747878E+02 0.  0.
         23    2    1    2    0    0 -0.11497280778E+02 -0.54574571260E+02 -0.13891913731E+02  0.10749976979E+03  0.90844063894E+02 0.  0.
        -13    1    3    3    0    0 -0.18922218814E+02 -0.26914028329E+02 -0.55069855784E+02  0.64149078729E+02  0.00000000000E+00 0. -1.
         13    1    3    3    0    0 -0.32676282880E+02  0.68107977306E+02 -0.51595406885E+02  0.91479626405E+02  0.00000000000E+00 0.  1.
        -13    1    4    4    0    0 -0.45449380100E+02 -0.33894429134E+02 -0.30541956922E+02  0.64399453495E+02  0.00000000000E+00 0. -1.
         13    1    4    4    0    0  0.33952099322E+02 -0.20680142126E+02  0.16650043190E+02  0.43100316298E+02  0.00000000000E+00 0.  1.
         21    1    1    2  502  501  0.63095782472E+02  0.13380622283E+02 -0.88997799387E+02  0.10991236106E+03  0.00000000000E+00 0. -1.
<scales pt_clust_5="13000.00000" pt_clust_6="13000.00000" pt_clust_7="13000.00000" pt_clust_8="13000.00000" pt_clust_9="64.49898"></scales>
<clustering>
<clus scale="   64.499">  2  9  1 -1</clus>
<clus scale="   90.844">  7  8 -1 -1</clus>
<clus scale="   92.106">  5  6 -1 -1</clus>
<clus scale="  104.204">  1  7  2 -1</clus>
<clus scale="  104.204">  1  5  2 -1</clus>
</clustering>
</event>
<event>
 9    1  0.1748361E-005  0.2703000E+03  0.7546771E-02  0.1101152E+00
          2   -1    0    0  502    0  0.00000000000E+00  0.00000000000E+00  0.12739074472E+04  0.12739074472E+04  0.00000000000E+00 0. -1.
         -2   -1    0    0    0  501 -0.00000000000E+00 -0.00000000000E+00 -0.27085444587E+03  0.27085444587E+03  0.00000000000E+00 0.  1.
         23    2    1    2    0    0  0.23963643924E+03  0.22393024707E+02 -0.15889905918E+03  0.30264899495E+03  0.91762915005E+02 0.  0.
         23    2    1    2    0    0 -0.25202462156E+03 -0.39997744858E+02  0.11820349305E+04  0.12126728760E+04  0.90844360413E+02 0.  0.
        -11    1    3    3    0    0  0.17175734914E+03  0.45637694700E+02 -0.14545154444E+03  0.22965090450E+03  0.00000000000E+00 0.  1.
         11    1    3    3    0    0  0.67879090098E+02 -0.23244669993E+02 -0.13447514738E+02  0.72998090442E+02  0.00000000000E+00 0. -1.
        -13    1    4    4    0    0 -0.48022821405E+02  0.53951341896E+01  0.10552242365E+03  0.11606153860E+03  0.00000000000E+00 0.  1.
         13    1    4    4    0    0 -0.20400180015E+03 -0.45392879048E+02  0.10765125068E+04  0.10966113374E+04  0.00000000000E+00 0. -1.
         21    1    1    2  502  501  0.12388182323E+02  0.17604720151E+02 -0.20082870010E+02  0.29440022091E+02  0.00000000000E+00 0.  1.
<scales pt_clust_5="13000.00000" pt_clust_6="13000.00000" pt_clust_7="13000.00000" pt_clust_8="13000.00000" pt_clust_9="21.52657"></scales>
<clustering>
<clus scale="   21.527">  2  9  1 -1</clus>
<clus scale="   90.844">  7  8 -1 -1</clus>
<clus scale="   91.763">  5  6 -1 -1</clus>
<clus scale="  269.990">  1  7  2 -1</clus>
<clus scale="  269.990">  1  5  2 -1</clus>
</clustering>
</event>
<event>
 9    1  0.1748361E-005  0.9285376E+02  0.7546771E-02  0.1296309E+00
          1   -1    0    0  502    0  0.00000000000E+00  0.00000000000E+00  0.18811320813E+03  0.18811320813E+03  0.00000000000E+00 0. -1.
         -1   -1    0    0    0  501 -0.00000000000E+00 -0.00000000000E+00 -0.10117483392E+03  0.10117483392E+03  0.00000000000E+00 0.  1.
         23    2    1    2    0    0 -0.13373654541E+02  0.23479886114E+01 -0.47898249003E+02  0.10387240866E+03  0.91163958547E+02 0.  0.
         23    2    1    2    0    0  0.38279059870E+02 -0.11629402489E+01  0.12361933505E+03  0.15807498401E+03  0.90770709576E+02 0.  0.
        -11    1    4    4    0    0  0.20611927066E+02  0.30569545693E+02  0.11497423050E+03  0.12074113773E+03  0.00000000000E+00 0.  1.
         11    1    4    4    0    0  0.17667132804E+02 -0.31732485942E+02  0.86451045553E+01  0.37333846284E+02  0.00000000000E+00 0. -1.
        -13    1    3    3    0    0 -0.42764406569E+01  0.23094262030E+02 -0.69015805377E+02  0.72902772754E+02  0.00000000000E+00 0.  1.
         13    1    3    3    0    0 -0.90972138837E+01 -0.20746273419E+02  0.21117556374E+02  0.30969635910E+02  0.00000000000E+00 0. -1.
         21    1    1    2  502  501 -0.24905405329E+02 -0.11850483625E+01  0.11217288160E+02  0.27340649369E+02  0.00000000000E+00 0. -1.
<scales pt_clust_5="13000.00000" pt_clust_6="13000.00000" pt_clust_7="13000.00000" pt_clust_8="13000.00000" pt_clust_9="24.93358"></scales>
<clustering>
<clus scale="   24.934">  1  9  2 -1</clus>
<clus scale="   90.771">  5  6 -1 -1</clus>
<clus scale="   91.164">  7  8 -1 -1</clus>
<clus scale="   92.468">  1  5  2 -1</clus>
<clus scale="   24.934">  1  5  2 -1</clus>
</clustering>
</event>
<event>
 9    1  0.1748361E-005  0.2033659E+03  0.7546771E-02  0.1148023E+00
          3   -1    0    0  502    0  0.00000000000E+00  0.00000000000E+00  0.12399713820E+03  0.12399713820E+03  0.00000000000E+00 0. -1.
         -3   -1    0    0    0  501 -0.00000000000E+00 -0.00000000000E+00 -0.52353186187E+03  0.52353186187E+03  0.00000000000E+00 0.  1.
         23    2    1    2    0    0 -0.16445488644E+03  0.54222259298E+02 -0.13195000203E+03  0.23501688533E+03  0.88524969807E+02 0.  0.
         23    2    1    2    0    0  0.18736329291E+03  0.13567589411E+02 -0.10995867704E+03  0.23940455103E+03  0.99672189624E+02 0.  0.
        -11    1    3    3    0    0 -0.79546441900E+02  0.74375588839E+01 -0.10942956462E+03  0.13549089753E+03  0.00000000000E+00 0.  1.
         11    1    3    3    0    0 -0.84908444536E+02  0.46784700414E+02 -0.22520437409E+02  0.99525987799E+02  0.00000000000E+00 0. -1.
        -13    1    4    4    0    0  0.69620462894E+02  0.53331397411E+02 -0.36112539352E+02  0.94843883840E+02  0.00000000000E+00 0. -1.
         13    1    4    4    0    0  0.11774283001E+03 -0.39763808000E+02 -0.73846137686E+02  0.14456066719E+03  0.00000000000E+00 0.  1.
         21    1    1    2  502  501 -0.22908406473E+02 -0.67789848709E+02 -0.15762604460E+03  0.17310756371E+03  0.00000000000E+00 0. -1.
<scales pt_clust_5="13000.00000" pt_clust_6="13000.00000" pt_clust_7="13000.00000" pt_clust_8="13000.00000" pt_clust_9="71.55598"></scales>
<clustering>
<clus scale="   71.556">  2  9  1 -1</clus>
<clus scale="   88.525">  5  6 -1 -1</clus>
<clus scale="   99.672">  7  8 -1 -1</clus>
<clus scale="  198.141">  2  5  1 -1</clus>
<clus scale="  203.366">  1  5  2 -1</clus>
</clustering>
</event>
<event>
 9    1  0.1748361E-005  0.1193331E+03  0.7546771E-02  0.1247077E+00
         -1   -1    0    0    0  501 -0.00000000000E+00  0.00000000000E+00  0.33920303937E+02  0.33920303937E+02  0.00000000000E+00 0.  1.
          1   -1    0    0  502    0  0.00000000000E+00 -0.00000000000E+00 -0.61925799218E+03  0.61925799218E+03  0.00000000000E+00 0. -1.
         23    2    1    2    0    0 -0.18759750578E+00  0.50268161586E+02 -0.17916619320E+03  0.20762619161E+03  0.92093362393E+02 0.  0.
         23    2    1    2    0    0  0.54953339715E+01 -0.95536485940E+02 -0.35527520026E+03  0.37723061390E+03  0.83216881089E+02 0.  0.
        -11    1    3    3    0    0 -0.13437061260E+02 -0.25054231947E+02 -0.49876239438E+02  0.57410002737E+02  0.00000000000E+00 0. -1.
         11    1    3    3    0    0  0.13249463755E+02  0.75322393533E+02 -0.12928995376E+03  0.15021618888E+03  0.00000000000E+00 0.  1.
        -13    1    4    4    0    0  0.23548723283E+02  0.52640429757E+01 -0.58342612837E+02  0.63135671291E+02  0.00000000000E+00 0.  1.
         13    1    4    4    0    0 -0.18053389312E+02 -0.10080052892E+03 -0.29693258743E+03  0.31409494261E+03  0.00000000000E+00 0. -1.
         21    1    1    2  502  501 -0.53077364658E+01  0.45268324354E+02 -0.50896294780E+02  0.68321490605E+02  0.00000000000E+00 0. -1.
<scales pt_clust_5="13000.00000" pt_clust_6="13000.00000" pt_clust_7="13000.00000" pt_clust_8="13000.00000" pt_clust_9="45.57843"></scales>
<clustering>
<clus scale="   45.578">  1  9  2 -1</clus>
<clus scale="   83.217">  7  8 -1 -1</clus>
<clus scale="   92.093">  5  6 -1 -1</clus>
<clus scale="  112.624">  2  7  1 -1</clus>
<clus scale="  112.624">  2  5  1 -1</clus>
</clustering>
</event>
<event>
 9    1  0.1748361E-005  0.4027641E+03  0.7546771E-02  0.1042850E+00
         -1   -1    0    0    0  501 -0.00000000000E+00  0.00000000000E+00  0.54012087424E+03  0.54012087424E+03  0.00000000000E+00 0.  1.
          1   -1    0    0  502    0  0.00000000000E+00 -0.00000000000E+00 -0.48823209742E+03  0.48823209742E+03  0.00000000000E+00 0. -1.
         23    2    1    2    0    0 -0.36464531369E+03 -0.17555262674E+03  0.31195687170E+02  0.41617807509E+03  0.91902610081E+02 0.  0.
         23    2    1    2    0    0  0.35575746423E+03  0.14697325995E+03 -0.16176800244E+03  0.42727539901E+03  0.90724128479E+02 0.  0.
        -11    1    3    3    0    0 -0.26904877691E+03 -0.82566568964E+02  0.14925036858E+02  0.28182838642E+03  0.00000000000E+00 0.  1.
         11    1    3    3    0    0 -0.95596536780E+02 -0.92986057777E+02  0.16270650312E+02  0.13434968867E+03  0.00000000000E+00 0. -1.
        -11    1    4    4    0    0  0.15281588608E+03  0.16952847665E+02 -0.75417769351E+02  0.17125400438E+03  0.00000000000E+00 0.  1.
         11    1    4    4    0    0  0.20294157815E+03  0.13002041228E+03 -0.86350233091E+02  0.25602139462E+03  0.00000000000E+00 0. -1.
         21    1    1    2  502  501  0.88878494596E+01  0.28579366795E+02  0.18246109209E+03  0.18489949756E+03  0.00000000000E+00 0.  1.
<scales pt_clust_5="13000.00000" pt_clust_6="13000.00000" pt_clust_7="13000.00000" pt_clust_8="13000.00000" pt_clust_9="29.92949"></scales>
<clustering>
<clus scale="   29.929">  1  9  2 -1</clus>
<clus scale="   90.724">  7  8 -1 -1</clus>
<clus scale="   91.903">  5  6 -1 -1</clus>
<clus scale="  402.497">  2  7  1 -1</clus>
<clus scale="  402.497">  2  5  1 -1</clus>
</clustering>
</event>
<event>
 9    1  0.1748361E-005  0.9425543E+02  0.7546771E-02  0.1292995E+00
          1   -1    0    0  502    0  0.00000000000E+00  0.00000000000E+00  0.19070325511E+03  0.19070325511E+03  0.00000000000E+00 0. -1.
         -1   -1    0    0    0  501 -0.00000000000E+00 -0.00000000000E+00 -0.69588391996E+02  0.69588391996E+02  0.00000000000E+00 0.  1.
         23    2    1    2    0    0  0.35323437647E+02 -0.44652780896E+00  0.18310560775E+02  0.98668907264E+02  0.90290265204E+02 0.  0.
         23    2    1    2    0    0 -0.16775795999E+02 -0.19372901054E+02  0.94213038778E+02  0.13315109464E+03  0.90533864937E+02 0.  0.
        -11    1    4    4    0    0 -0.35276070057E+02 -0.44949460584E+02  0.37810875938E+02  0.68516548838E+02  0.00000000000E+00 0.  1.
         11    1    4    4    0    0  0.18500274057E+02  0.25576559530E+02  0.56402162839E+02  0.64634545798E+02  0.00000000000E+00 0. -1.
        -13    1    3    3    0    0 -0.83528135018E+00  0.41341444385E+02  0.37315026333E+01  0.41517909758E+02  0.00000000000E+00 0. -1.
         13    1    3    3    0    0  0.36158718997E+02 -0.41787972194E+02  0.14579058142E+02  0.57150997506E+02  0.00000000000E+00 0.  1.
         21    1    1    2  502  501 -0.18547641648E+02  0.19819428863E+02  0.85912635611E+01  0.28471645206E+02  0.00000000000E+00 0. -1.
<scales pt_clust_5="13000.00000" pt_clust_6="13000.00000" pt_clust_7="13000.00000" pt_clust_8="13000.00000" pt_clust_9="27.14452"></scales>
<clustering>
<clus scale="   27.145">  2  9  1 -1</clus>
<clus scale="   90.290">  7  8 -1 -1</clus>
<clus scale="   90.534">  5  6 -1 -1</clus>
<clus scale="   94.021">  2  7  1 -1</clus>
<clus scale="   94.255">  1  5  2 -1</clus>
</clustering>
</event>
<event>
 9    1  0.1748361E-005  0.2100096E+03  0.7546771E-02  0.1141770E+00
         -2   -1    0    0    0  501 -0.00000000000E+00  0.00000000000E+00  0.31191786575E+03  0.31191786575E+03  0.00000000000E+00 0.  1.
          2   -1    0    0  502    0  0.00000000000E+00 -0.00000000000E+00 -0.36082377467E+03  0.36082377467E+03  0.00000000000E+00 0. -1.
         23    2    1    2    0    0  0.52269338946E+02  0.16541213417E+03  0.16104429587E+02  0.19659600968E+03  0.91089957979E+02 0.  0.
         23    2    1    2    0    0 -0.78210130835E+02 -0.17781953595E+03 -0.22615737907E+03  0.31245312332E+03  0.93504985078E+02 0.  0.
        -11    1    4    4    0    0 -0.73391185352E+02 -0.60867383402E+02 -0.12851547992E+03  0.16002291408E+03  0.00000000000E+00 0.  1.
         11    1    4    4    0    0 -0.48189454835E+01 -0.11695215255E+03 -0.97641899143E+02  0.15243020924E+03  0.00000000000E+00 0. -1.
        -13    1    3    3    0    0 -0.11265421590E+02  0.63556788581E+02  0.37511355250E+02  0.74655722292E+02  0.00000000000E+00 0.  1.
         13    1    3    3    0    0  0.63534760536E+02  0.10185534559E+03 -0.21406925663E+02  0.12194028739E+03  0.00000000000E+00 0. -1.
         21    1    1    2  502  501  0.25940791889E+02  0.12407401783E+02  0.16114704057E+03  0.16369250742E+03  0.00000000000E+00 0.  1.
<scales pt_clust_5="13000.00000" pt_clust_6="13000.00000" pt_clust_7="13000.00000" pt_clust_8="13000.00000" pt_clust_9="28.75532"></scales>
<clustering>
<clus scale="   28.755">  1  9  2 -1</clus>
<clus scale="   91.090">  7  8 -1 -1</clus>
<clus scale="   93.505">  5  6 -1 -1</clus>
<clus scale="  208.945">  1  7  2 -1</clus>
<clus scale="  210.010">  2  5  1 -1</clus>
</clustering>
</event>
<event>
 9    1  0.1748361E-005  0.9309829E+02  0.7546771E-02  0.1295544E+00
          1   -1    0    0  502    0  0.00000000000E+00  0.00000000000E+00  0.46430578341E+03  0.46430578341E+03  0.00000000000E+00 0. -1.
         -1   -1    0    0    0  501 -0.00000000000E+00 -0.00000000000E+00 -0.38516672986E+02  0.38516672986E+02  0.00000000000E+00 0.  1.
         23    2    1    2    0    0  0.22933279603E+02  0.39244671135E+01  0.77405246262E+02  0.12159691454E+03  0.90845477170E+02 0.  0.
         23    2    1    2    0    0  0.67435855097E+00 -0.24205692491E+02  0.33390232239E+03  0.34689823882E+03  0.90891456610E+02 0.  0.
        -11    1    4    4    0    0  0.28118207171E+02  0.22052878790E+02  0.18870525069E+03  0.19205893542E+03  0.00000000000E+00 0. -1.
         11    1    4    4    0    0 -0.27443848620E+02 -0.46258571281E+02  0.14519707171E+03  0.15483930340E+03  0.00000000000E+00 0.  1.
        -13    1    3    3    0    0  0.50610733841E+02 -0.21968712988E+02  0.38472253612E+02  0.67262062326E+02  0.00000000000E+00 0.  1.
         13    1    3    3    0    0 -0.27677454238E+02  0.25893180102E+02  0.38932992649E+02  0.54334852218E+02  0.00000000000E+00 0. -1.
         21    1    1    2  502  501 -0.23607638154E+02  0.20281225377E+02  0.14481541772E+02  0.34327303041E+02  0.00000000000E+00 0. -1.
<scales pt_clust_5="13000.00000" pt_clust_6="13000.00000" pt_clust_7="13000.00000" pt_clust_8="13000.00000" pt_clust_9="31.12312"></scales>
<clustering>
<clus scale="   31.123">  2  9  1 -1</clus>
<clus scale="   90.845">  7  8 -1 -1</clus>
<clus scale="   90.891">  5  6 -1 -1</clus>
<clus scale="   93.053">  2  7  1 -1</clus>
<clus scale="   93.098">  1  5  2 -1</clus>
</clustering>
</event>
<event>
 9    1  0.1748361E-005  0.1089796E+03  0.7546771E-02  0.1263265E+00
          2   -1    0    0  502    0  0.00000000000E+00  0.00000000000E+00  0.23541769383E+03  0.23541769383E+03  0.00000000000E+00 0.  1.
         -2   -1    0    0    0  501 -0.00000000000E+00 -0.00000000000E+00 -0.91348922511E+02  0.91348922511E+02  0.00000000000E+00 0. -1.
         23    2    1    2    0    0 -0.31157979528E+02  0.29720741633E+02  0.76283969106E+01  0.99029611773E+02  0.88851164297E+02 0.  0.
         23    2    1    2    0    0  0.34379651889E+01 -0.72888963684E+02  0.13223615709E+03  0.17626303024E+03  0.90871524460E+02 0.  0.
        -11    1    4    4    0    0  0.31130920888E+02  0.42794054613E+01  0.19917320280E+02  0.37204128717E+02  0.00000000000E+00 0. -1.
         11    1    4    4    0    0 -0.27692955700E+02 -0.77168369145E+02  0.11231883681E+03  0.13905890152E+03  0.00000000000E+00 0.  1.
        -13    1    3    3    0    0 -0.58718089250E+02  0.11587901104E+02  0.21006465530E+02  0.63430001192E+02  0.00000000000E+00 0.  1.
         13    1    3    3    0    0  0.27560109722E+02  0.18132840529E+02 -0.13378068619E+02  0.35599610581E+02  0.00000000000E+00 0. -1.
         21    1    1    2  502  501  0.27720014339E+02  0.43168222050E+02  0.42042173269E+01  0.51473974329E+02  0.00000000000E+00 0.  1.
<scales pt_clust_5="13000.00000" pt_clust_6="13000.00000" pt_clust_7="13000.00000" pt_clust_8="13000.00000" pt_clust_9="51.30199"></scales>
<clustering>
<clus scale="   51.302">  2  9  1 -1</clus>
<clus scale="   88.851">  7  8 -1 -1</clus>
<clus scale="   90.872">  5  6 -1 -1</clus>
<clus scale="  107.301">  2  7  1 -1</clus>
<clus scale="  108.980">  1  5  2 -1</clus>
</clustering>
</event>
<event>
 9    1  0.1748361E-005  0.1112837E+03  0.7546771E-02  0.1259162E+00
         -1   -1    0    0    0  501 -0.00000000000E+00  0.00000000000E+00  0.17044363540E+03  0.17044363540E+03  0.00000000000E+00 0.  1.
          1   -1    0    0  502    0  0.00000000000E+00 -0.00000000000E+00 -0.14358299424E+03  0.14358299424E+03  0.00000000000E+00 0. -1.
         23    2    1    2    0    0 -0.40955700743E+02  0.67042952228E+02  0.35415971371E+02  0.12693763594E+03  0.93202711999E+02 0.  0.
         23    2    1    2    0    0  0.47729534985E+02 -0.29557078495E+02 -0.60516773962E+02  0.12266021754E+03  0.90727722546E+02 0.  0.
        -13    1    4    4    0    0  0.60752682887E+02 -0.49469381033E+02 -0.60302968819E+02  0.98866355178E+02  0.00000000000E+00 0. -1.
         13    1    4    4    0    0 -0.13023147903E+02  0.19912302538E+02 -0.21380514225E+00  0.23793862366E+02  0.00000000000E+00 0.  1.
        -13    1    3    3    0    0  0.11369914344E+02  0.66544361796E+02  0.31405331539E+02  0.74456174278E+02  0.00000000000E+00 0. -1.
         13    1    3    3    0    0 -0.52325615087E+02  0.49859043183E+00  0.40106398316E+01  0.52481461665E+02  0.00000000000E+00 0.  1.
         21    1    1    2  502  501 -0.67738342415E+01 -0.37485873733E+02  0.51961443755E+02  0.64428776156E+02  0.00000000000E+00 0. -1.
<scales pt_clust_5="13000.00000" pt_clust_6="13000.00000" pt_clust_7="13000.00000" pt_clust_8="13000.00000" pt_clust_9="38.09299"></scales>
<clustering>
<clus scale="   38.093">  1  9  2 -1</clus>
<clus scale="   90.728">  5  6 -1 -1</clus>
<clus scale="   93.203">  7  8 -1 -1</clus>
<clus scale="  109.219">  2  5  1 -1</clus>
<clus scale="  109.219">  2  5  1 -1</clus>
</clustering>
</event>
<event>
 9    1  0.1748361E-005  0.2071506E+03  0.7546771E-02  0.1143909E+00
         -1   -1    0    0    0  501 -0.00000000000E+00  0.00000000000E+00  0.14949597797E+04  0.14949597797E+04  0.00000000000E+00 0.  1.
          1   -1    0    0  502    0  0.00000000000E+00 -0.00000000000E+00 -0.35424303329E+02  0.35424303329E+02  0.00000000000E+00 0. -1.
         23    2    1    2    0    0  0.10894709967E+03 -0.15989190321E+03  0.75234444395E+03  0.78223839621E+03  0.91868683047E+02 0.  0.
         23    2    1    2    0    0 -0.12529131378E+03  0.13091859995E+03  0.52262447561E+03  0.56060529242E+03  0.91128251734E+02 0.  0.
        -11    1    4    4    0    0  0.56599319086E+01  0.25898182138E+02  0.14427201987E+03  0.14668730819E+03  0.00000000000E+00 0.  1.
         11    1    4    4    0    0 -0.13095124569E+03  0.10502041781E+03  0.37835245574E+03  0.41391798423E+03  0.00000000000E+00 0. -1.
        -11    1    3    3    0    0  0.79378387491E+02 -0.12524539477E+03  0.68547538320E+03  0.70133004947E+03  0.00000000000E+00 0.  1.
         11    1    3    3    0    0  0.29568712175E+02 -0.34646508447E+02  0.66869060746E+02  0.80908346741E+02  0.00000000000E+00 0. -1.
         21    1    1    2  502  501  0.16344214117E+02  0.28973303261E+02  0.18456655685E+03  0.18754039443E+03  0.00000000000E+00 0. -1.
<scales pt_clust_5="13000.00000" pt_clust_6="13000.00000" pt_clust_7="13000.00000" pt_clust_8="13000.00000" pt_clust_9="33.26538"></scales>
<clustering>
<clus scale="   33.265">  1  9  2 -1</clus>
<clus scale="   91.128">  5  6 -1 -1</clus>
<clus scale="   91.869">  7  8 -1 -1</clus>
<clus scale="  206.823">  2  5  1 -1</clus>
<clus scale="  206.823">  2  5  1 -1</clus>
</clustering>
</event>
<event>
 9    1  0.1748361E-005  0.1042465E+03  0.7546771E-02  0.1277160E+00
          1   -1    0    0  502    0  0.00000000000E+00  0.00000000000E+00  0.84142710023E+02  0.84142710023E+02  0.00000000000E+00 0. -1.
         -1   -1    0    0    0  501 -0.00000000000E+00 -0.00000000000E+00 -0.18415016769E+03  0.18415016769E+03  0.00000000000E+00 0.  1.
         23    2    1    2    0    0 -0.48259559654E+00 -0.91079211860E+01 -0.67837484018E+02  0.11501275111E+03  0.92427385297E+02 0.  0.
         23    2    1    2    0    0 -0.22581321831E+02  0.30379321922E+01  0.87218678755E+01  0.10594164589E+03  0.10309421044E+03 0.  0.
        -11    1    4    4    0    0 -0.46919543912E+02  0.35539588241E+01 -0.33114476066E+02  0.57538185142E+02  0.00000000000E+00 0.  1.
         11    1    4    4    0    0  0.24338222082E+02 -0.51602663193E+00  0.41836343942E+02  0.48403460744E+02  0.00000000000E+00 0. -1.
        -13    1    3    3    0    0 -0.32103162344E+02 -0.21402689312E+02  0.64307135504E+00  0.38588880303E+02  0.00000000000E+00 0. -1.
         13    1    3    3    0    0  0.31620566748E+02  0.12294768126E+02 -0.68480555373E+02  0.76423870805E+02  0.00000000000E+00 0.  1.
         21    1    1    2  502  501  0.23063917427E+02  0.60699889938E+01 -0.40891841530E+02  0.47338480723E+02  0.00000000000E+00 0.  1.
<scales pt_clust_5="13000.00000" pt_clust_6="13000.00000" pt_clust_7="13000.00000" pt_clust_8="13000.00000" pt_clust_9="23.84930"></scales>
<clustering>
<clus scale="   23.849">  2  9  1 -1</clus>
<clus scale="   92.427">  7  8 -1 -1</clus>
<clus scale="   93.711">  2  7  1 -1</clus>
<clus scale="  103.094">  5  6 -1 -1</clus>
<clus scale="  104.246">  1  5  2 -1</clus>
</clustering>
</event>
<event>
 9    1  0.1748361E-005  0.9232710E+02  0.7546771E-02  0.1301007E+00
         -1   -1    0    0    0  501 -0.00000000000E+00  0.00000000000E+00  0.19232344249E+03  0.19232344249E+03  0.00000000000E+00 0.  1.
          1   -1    0    0  502    0  0.00000000000E+00 -0.00000000000E+00 -0.60112231676E+02  0.60112231676E+02  0.00000000000E+00 0. -1.
         23    2    1    2    0    0  0.15891703940E+02 -0.20610629333E+02  0.94168752702E+02  0.13325373303E+03  0.90617101501E+02 0.  0.
         23    2    1    2    0    0  0.69914061785E+01  0.16332266134E+02  0.17240221432E+02  0.87962169019E+02  0.84406725242E+02 0.  0.
        -13    1    3    3    0    0  0.32265628077E+02 -0.91187435120E+01  0.10519685769E+03  0.11041105518E+03  0.00000000000E+00 0.  1.
         13    1    3    3    0    0 -0.16373924138E+02 -0.11491885821E+02 -0.11028104990E+02  0.22842677843E+02  0.00000000000E+00 0. -1.
        -13    1    4    4    0    0 -0.25219838316E+02 -0.18746777517E+02  0.24422858373E+02  0.39798968869E+02  0.00000000000E+00 0.  1.
         13    1    4    4    0    0  0.32211244494E+02  0.35079043651E+02 -0.71826369409E+01  0.48163200151E+02  0.00000000000E+00 0. -1.
         21    1    1    2  502  501 -0.22883110118E+02  0.42783631989E+01  0.20802236685E+02  0.31219772123E+02  0.00000000000E+00 0.  1.
<scales pt_clust_5="13000.00000" pt_clust_6="13000.00000" pt_clust_7="13000.00000" pt_clust_8="13000.00000" pt_clust_9="23.27963"></scales>
<clustering>
<clus scale="   23.280">  1  9  2 -1</clus>
<clus scale="   84.407">  7  8 -1 -1</clus>
<clus scale="   86.240">  2  7  1 -1</clus>
<clus scale="   90.617">  5  6 -1 -1</clus>
<clus scale="   86.240">  2  5  1 -1</clus>
</clustering>
</event>
<event>
 9    1  0.1748361E-005  0.9625551E+02  0.7546771E-02  0.1288858E+00
          1   -1    0    0  502    0  0.00000000000E+00  0.00000000000E+00  0.27880051003E+03  0.27880051003E+03  0.00000000000E+00 0. -1.
         -1   -1    0    0    0  501 -0.00000000000E+00 -0.00000000000E+00 -0.54139137246E+02  0.54139137246E+02  0.00000000000E+00 0.  1.
         23    2    1    2    0    0  0.16432963699E+02  0.29999274484E+02  0.39963173721E+02  0.10509115346E+03  0.90978549760E+02 0.  0.
         23    2    1    2    0    0  0.46082877152E+01 -0.28133913252E+02  0.18288215429E+03  0.20664679925E+03  0.91892675956E+02 0.  0.
        -11    1    3    3    0    0 -0.34276906827E+02  0.24574467426E+02  0.33471276402E+01  0.42308557696E+02  0.00000000000E+00 0.  1.
         11    1    3    3    0    0  0.50709870526E+02  0.54248070578E+01  0.36616046081E+02  0.62782595765E+02  0.00000000000E+00 0. -1.
        -13    1    4    4    0    0  0.21475277204E+02  0.26877633132E+02  0.40880037234E+02  0.53430067734E+02  0.00000000000E+00 0.  1.
         13    1    4    4    0    0 -0.16866989489E+02 -0.55011546384E+02  0.14200211705E+03  0.15321673152E+03  0.00000000000E+00 0. -1.
         21    1    1    2  502  501 -0.21041251414E+02 -0.18653612323E+01  0.18160447749E+01  0.21201694560E+02  0.00000000000E+00 0. -1.
<scales pt_clust_5="13000.00000" pt_clust_6="13000.00000" pt_clust_7="13000.00000" pt_clust_8="13000.00000" pt_clust_9="21.12377"></scales>
<clustering>
<clus scale="   21.124">  2  9  1 -1</clus>
<clus scale="   90.979">  5  6 -1 -1</clus>
<clus scale="   91.893">  7  8 -1 -1</clus>
<clus scale="   95.383">  2  5  1 -1</clus>
<clus scale="   96.256">  1  5  2 -1</clus>
</clustering>
</event>
<event>
 9    1  0.1748361E-005  0.1117626E+03  0.7546771E-02  0.1257625E+00
          2   -1    0    0  502    0  0.00000000000E+00  0.00000000000E+00  0.73063032720E+02  0.73063032720E+02  0.00000000000E+00 0. -1.
         -2   -1    0    0    0  501 -0.00000000000E+00 -0.00000000000E+00 -0.42611563048E+03  0.42611563048E+03  0.00000000000E+00 0.  1.
         23    2    1    2    0    0  0.61701366735E+02 -0.39678843023E+01 -0.75426243914E+02  0.13371911584E+03  0.91481587800E+02 0.  0.
         23    2    1    2    0    0 -0.57080275207E+02 -0.48308051832E+02 -0.43227260173E+02  0.12525741769E+03  0.90713830116E+02 0.  0.
        -13    1    4    4    0    0 -0.66297196453E+02 -0.74418837138E+01 -0.49264668977E+02  0.82931944992E+02  0.00000000000E+00 0. -1.
         13    1    4    4    0    0  0.92169212457E+01 -0.40866168118E+02  0.60374088039E+01  0.42325472696E+02  0.00000000000E+00 0.  1.
        -13    1    3    3    0    0 -0.17702231271E+02 -0.18282354702E+02 -0.35549050061E+02  0.43718971233E+02  0.00000000000E+00 0.  1.
         13    1    3    3    0    0  0.79403598007E+02  0.14314470399E+02 -0.39877193853E+02  0.90000144604E+02  0.00000000000E+00 0. -1.
         21    1    1    2  502  501 -0.46210915280E+01  0.52275936134E+02 -0.23439909367E+03  0.24020212968E+03  0.00000000000E+00 0.  1.
<scales pt_clust_5="13000.00000" pt_clust_6="13000.00000" pt_clust_7="13000.00000" pt_clust_8="13000.00000" pt_clust_9="52.47979"></scales>
<clustering>
<clus scale="   52.480">  2  9  1 -1</clus>
<clus scale="   90.714">  5  6 -1 -1</clus>
<clus scale="   91.482">  7  8 -1 -1</clus>
<clus scale="  111.135">  1  5  2 -1</clus>
<clus scale="  111.135">  1  5  2 -1</clus>
</clustering>
</event>
<event>
 9    1  0.1748361E-005  0.9488581E+02  0.7546771E-02  0.1291784E+00
         -1   -1    0    0    0  501 -0.00000000000E+00  0.00000000000E+00  0.12004652812E+03  0.12004652812E+03  0.00000000000E+00 0.  1.
          1   -1    0    0  502    0  0.00000000000E+00 -0.00000000000E+00 -0.26578771753E+03  0.26578771753E+03  0.00000000000E+00 0. -1.
         23    2    1    2    0    0 -0.21933128803E+02  0.33342897140E+02  0.58358218140E+02  0.11525448841E+03  0.91022549659E+02 0.  0.
         23    2    1    2    0    0  0.22030891434E+02 -0.82593133665E+01 -0.22094869508E+03  0.24036230826E+03  0.91663171109E+02 0.  0.
        -11    1    3    3    0    0 -0.31777465990E+02  0.21414503984E+01 -0.14794983695E+02  0.35118153384E+02  0.00000000000E+00 0. -1.
         11    1    3    3    0    0  0.98443371874E+01  0.31201446742E+02  0.73153201835E+02  0.80136335031E+02  0.00000000000E+00 0.  1.
        -13    1    4    4    0    0  0.51558733570E+02  0.17323093165E+02 -0.14676960063E+03  0.15652382641E+03  0.00000000000E+00 0.  1.
         13    1    4    4    0    0 -0.29527842136E+02 -0.25582406531E+02 -0.74179094451E+02  0.83838481849E+02  0.00000000000E+00 0. -1.
         21    1    1    2  502  501 -0.97762631463E-01 -0.25083583774E+02  0.16849287531E+02  0.30217448978E+02  0.00000000000E+00 0.  1.
<scales pt_clust_5="13000.00000" pt_clust_6="13000.00000" pt_clust_7="13000.00000" pt_clust_8="13000.00000" pt_clust_9="25.08377"></scales>
<clustering>
<clus scale="   25.084">  1  9  2 -1</clus>
<clus scale="   91.023">  5  6 -1 -1</clus>
<clus scale="   91.663">  7  8 -1 -1</clus>
<clus scale="   94.267">  1  5  2 -1</clus>
<clus scale="   94.886">  2  5  1 -1</clus>
</clustering>
</event>
<event>
 9    1  0.1748361E-005  0.9344007E+02  0.7546771E-02  0.1295065E+00
         -3   -1    0    0    0  501 -0.00000000000E+00  0.00000000000E+00  0.57688155620E+02  0.57688155620E+02  0.00000000000E+00 0.  1.
          3   -1    0    0  502    0  0.00000000000E+00 -0.00000000000E+00 -0.24665825782E+03  0.24665825782E+03  0.00000000000E+00 0. -1.
         23    2    1    2    0    0 -0.10946783557E+02 -0.39473390637E+02 -0.51000207619E+02  0.11178254532E+03  0.90644004890E+02 0.  0.
         23    2    1    2    0    0  0.13597939467E+02  0.35213724128E+01 -0.12236362487E+03  0.15328115059E+03  0.91241166225E+02 0.  0.
        -11    1    3    3    0    0 -0.31123144801E+02 -0.64257619820E+01  0.15093879081E+02  0.35181895131E+02  0.00000000000E+00 0.  1.
         11    1    3    3    0    0  0.20176361243E+02 -0.33047628655E+02 -0.66094086699E+02  0.76600650189E+02  0.00000000000E+00 0. -1.
        -11    1    4    4    0    0 -0.22158004788E+02  0.30005518281E+02 -0.92378538421E+02  0.99624809482E+02  0.00000000000E+00 0.  1.
         11    1    4    4    0    0  0.35755944255E+02 -0.26484145868E+02 -0.29985086447E+02  0.53656341109E+02  0.00000000000E+00 0. -1.
         21    1    1    2  502  501 -0.26511559099E+01  0.35952018224E+02 -0.15606269712E+02  0.39282717528E+02  0.00000000000E+00 0.  1.
<scales pt_clust_5="13000.00000" pt_clust_6="13000.00000" pt_clust_7="13000.00000" pt_clust_8="13000.00000" pt_clust_9="36.04964"></scales>
<clustering>
<clus scale="   36.050">  1  9  2 -1</clus>
<clus scale="   90.644">  5  6 -1 -1</clus>
<clus scale="   91.241">  7  8 -1 -1</clus>
<clus scale="   92.857">  1  5  2 -1</clus>
<clus scale="   93.440">  2  5  1 -1</clus>
</clustering>
</event>
<event>
 9    1  0.1748361E-005  0.1194007E+03  0.7546771E-02  0.1245150E+00
         -1   -1    0    0    0  501 -0.00000000000E+00  0.00000000000E+00  0.35655043036E+03  0.35655043036E+03  0.00000000000E+00 0.  1.
          1   -1    0    0  502    0  0.00000000000E+00 -0.00000000000E+00 -0.58507604299E+02  0.58507604299E+02  0.00000000000E+00 0. -1.
         23    2    1    2    0    0 -0.47093872671E+01 -0.84952847103E+02  0.22406905218E+03  0.25570740424E+03  0.89107642095E+02 0.  0.
         23    2    1    2    0    0  0.10128827406E+02  0.53705356177E+02  0.45022275839E+02  0.11640921382E+03  0.92397193210E+02 0.  0.
        -11    1    4    4    0    0 -0.38084446040E+02  0.36944617672E+02  0.37125951699E+02  0.64758521406E+02  0.00000000000E+00 0.  1.
         11    1    4    4    0    0  0.48213273446E+02  0.16760738505E+02  0.78963241401E+01  0.51650692411E+02  0.00000000000E+00 0. -1.
        -13    1    3    3    0    0  0.58771047927E+01 -0.37485266350E+02  0.14581403572E+02  0.40648528684E+02  0.00000000000E+00 0. -1.
         13    1    3    3    0    0 -0.10586492060E+02 -0.47467580753E+02  0.20948764861E+03  0.21505887556E+03  0.00000000000E+00 0.  1.
         21    1    1    2  502  501 -0.54194401392E+01  0.31247490925E+02  0.28951498036E+02  0.42941416594E+02  0.00000000000E+00 0.  1.
<scales pt_clust_5="13000.00000" pt_clust_6="13000.00000" pt_clust_7="13000.00000" pt_clust_8="13000.00000" pt_clust_9="31.71397"></scales>
<clustering>
<clus scale="   31.714">  2  9  1 -1</clus>
<clus scale="   89.108">  7  8 -1 -1</clus>
<clus scale="   92.397">  5  6 -1 -1</clus>
<clus scale="  116.874">  1  7  2 -1</clus>
<clus scale="   31.714">  2  5  1 -1</clus>
</clustering>
</event>
<event>
 9    1  0.1748361E-005  0.1974190E+03  0.7546771E-02  0.1151965E+00
          1   -1    0    0  502    0  0.00000000000E+00  0.00000000000E+00  0.26064370689E+03  0.26064370689E+03  0.00000000000E+00 0. -1.
         -1   -1    0    0    0  501 -0.00000000000E+00 -0.00000000000E+00 -0.36505429422E+03  0.36505429422E+03  0.00000000000E+00 0.  1.
         23    2    1    2    0    0  0.18077822817E+03  0.17769740501E+02 -0.24769530199E+03  0.32024138353E+03  0.90581729057E+02 0.  0.
         23    2    1    2    0    0 -0.17096887775E+03 -0.35371258343E+02  0.17809585338E+03  0.26523408454E+03  0.90274600709E+02 0.  0.
        -11    1    3    3    0    0  0.70122766278E+02  0.51493840562E+02 -0.97724495930E+02  0.13083919547E+03  0.00000000000E+00 0.  1.
         11    1    3    3    0    0  0.11065546189E+03 -0.33724100061E+02 -0.14997080606E+03  0.18940218806E+03  0.00000000000E+00 0. -1.
        -11    1    4    4    0    0 -0.55244755009E+02 -0.16094388595E+02  0.72654957586E+01  0.57998273499E+02  0.00000000000E+00 0.  1.
         11    1    4    4    0    0 -0.11572412274E+03 -0.19276869748E+02  0.17083035762E+03  0.20723581104E+03  0.00000000000E+00 0. -1.
         21    1    1    2  502  501 -0.98093504177E+01  0.17601517842E+02 -0.34811138712E+02  0.40222533043E+02  0.00000000000E+00 0.  1.
<scales pt_clust_5="13000.00000" pt_clust_6="13000.00000" pt_clust_7="13000.00000" pt_clust_8="13000.00000" pt_clust_9="20.15035"></scales>
<clustering>
<clus scale="   20.150">  2  9  1 -1</clus>
<clus scale="   90.275">  7  8 -1 -1</clus>
<clus scale="   90.582">  5  6 -1 -1</clus>
<clus scale="  197.278">  1  7  2 -1</clus>
<clus scale="  197.278">  1  5  2 -1</clus>
</clustering>
</event>
<event>
 9    1  0.1748361E-005  0.9714575E+02  0.7546771E-02  0.1287290E+00
          3   -1    0    0  502    0  0.00000000000E+00  0.00000000000E+00  0.40875602375E+02  0.40875602375E+02  0.00000000000E+00 0. -1.
         -3   -1    0    0    0  501 -0.00000000000E+00 -0.00000000000E+00 -0.31176526723E+03  0.31176526723E+03  0.00000000000E+00 0.  1.
         23    2    1    2    0    0  0.24469690720E+02 -0.30595658189E+01 -0.13281149456E+03  0.16431162853E+03  0.93548337651E+02 0.  0.
         23    2    1    2    0    0 -0.16522621553E+02  0.27125290080E+02 -0.83547380489E+02  0.12819670388E+03  0.91899138806E+02 0.  0.
        -11    1    3    3    0    0  0.22805451726E+02 -0.47279786877E+02 -0.72012634779E+02  0.89113895905E+02  0.00000000000E+00 0.  1.
         11    1    3    3    0    0  0.16642389943E+01  0.44220221058E+02 -0.60798859782E+02  0.75197732630E+02  0.00000000000E+00 0. -1.
        -13    1    4    4    0    0  0.11788297109E+02 -0.19504561201E+02 -0.67635705347E+02  0.71372126872E+02  0.00000000000E+00 0.  1.
         13    1    4    4    0    0 -0.28310918662E+02  0.46629851280E+02 -0.15911675141E+02  0.56824577004E+02  0.00000000000E+00 0. -1.
         21    1    1    2  502  501 -0.79470691673E+01 -0.24065724261E+02 -0.54530789807E+02  0.60132537195E+02  0.00000000000E+00 0.  1.
<scales pt_clust_5="13000.00000" pt_clust_6="13000.00000" pt_clust_7="13000.00000" pt_clust_8="13000.00000" pt_clust_9="25.34393"></scales>
<clustering>
<clus scale="   25.344">  2  9  1 -1</clus>
<clus scale="   91.899">  7  8 -1 -1</clus>
<clus scale="   93.548">  5  6 -1 -1</clus>
<clus scale="   95.559">  1  7  2 -1</clus>
<clus scale="   95.559">  1  5  2 -1</clus>
</clustering>
</event>
<event>
 9    1  0.1748361E-005  0.2041616E+03  0.7546771E-02  0.1147021E+00
          1   -1    0    0  502    0  0.00000000000E+00  0.00000000000E+00  0.81192307668E+03  0.81192307668E+03  0.00000000000E+00 0. -1.
         -1   -1    0    0    0  501 -0.00000000000E+00 -0.00000000000E+00 -0.29043151538E+03  0.29043151538E+03  0.00000000000E+00 0.  1.
         23    2    1    2    0    0  0.61069598715E+02  0.14927013392E+03 -0.23578365871E+03  0.29848473181E+03  0.86533997029E+02 0.  0.
         23    2    1    2    0    0 -0.63964954643E+02 -0.17032596451E+03  0.75516627947E+03  0.78251151954E+03  0.94581810914E+02 0.  0.
        -11    1    4    4    0    0 -0.16097611420E+02 -0.14440625595E+03  0.61994433229E+03  0.63674427754E+03  0.00000000000E+00 0. -1.
         11    1    4    4    0    0 -0.47867343223E+02 -0.25919708563E+02  0.13522194718E+03  0.14576724199E+03  0.00000000000E+00 0.  1.
        -13    1    3    3    0    0  0.65434123377E+02  0.66129028117E+02 -0.16403165378E+03  0.18857639381E+03  0.00000000000E+00 0. -1.
         13    1    3    3    0    0 -0.43645246625E+01  0.83141105806E+02 -0.71752004927E+02  0.10990833800E+03  0.00000000000E+00 0.  1.
         21    1    1    2  502  501  0.28953559284E+01  0.21055830586E+02  0.21089405416E+01  0.21358340709E+02  0.00000000000E+00 0. -1.
<scales pt_clust_5="13000.00000" pt_clust_6="13000.00000" pt_clust_7="13000.00000" pt_clust_8="13000.00000" pt_clust_9="21.25397"></scales>
<clustering>
<clus scale="   21.254">  2  9  1 -1</clus>
<clus scale="   86.534">  7  8 -1 -1</clus>
<clus scale="   94.582">  5  6 -1 -1</clus>
<clus scale="  200.560">  2  7  1 -1</clus>
<clus scale="  204.162">  1  5  2 -1</clus>
</clustering>
</event>
<event>
 9    1  0.1748361E-005  0.1788759E+03  0.7546771E-02  0.1169012E+00
          1   -1    0    0  502    0  0.00000000000E+00  0.00000000000E+00  0.12489668697E+03  0.12489668697E+03  0.00000000000E+00 0. -1.
         -1   -1    0    0    0  501 -0.00000000000E+00 -0.00000000000E+00 -0.45046238106E+03  0.45046238106E+03  0.00000000000E+00 0.  1.
         23    2    1    2    0    0  0.25312190501E+02 -0.13155741692E+03 -0.13518728221E+03  0.21090897389E+03  0.90878672214E+02 0.  0.
         23    2    1    2    0    0 -0.27937429509E+02  0.16294597151E+03 -0.18838852135E+02  0.19004265796E+03  0.91811872295E+02 0.  0.
        -11    1    4    4    0    0  0.23903103244E+02  0.81216381722E+02  0.17878050984E+02  0.86527936019E+02  0.00000000000E+00 0.  1.
         11    1    4    4    0    0 -0.51840532753E+02  0.81729589790E+02 -0.36716903119E+02  0.10351472194E+03  0.00000000000E+00 0. -1.
        -13    1    3    3    0    0  0.35631571538E+02 -0.90885931254E+01 -0.46827103676E+02  0.59539810665E+02  0.00000000000E+00 0.  1.
         13    1    3    3    0    0 -0.10319381037E+02 -0.12246882379E+03 -0.88360178534E+02  0.15136916323E+03  0.00000000000E+00 0. -1.
         21    1    1    2  502  501  0.26252390074E+01 -0.31388554595E+02 -0.17153955974E+03  0.17440743618E+03  0.00000000000E+00 0. -1.
<scales pt_clust_5="13000.00000" pt_clust_6="13000.00000" pt_clust_7="13000.00000" pt_clust_8="13000.00000" pt_clust_9="31.49815"></scales>
<clustering>
<clus scale="   31.498">  2  9  1 -1</clus>
<clus scale="   90.879">  7  8 -1 -1</clus>
<clus scale="   91.812">  5  6 -1 -1</clus>
<clus scale="  178.399">  2  7  1 -1</clus>
<clus scale="  178.876">  1  5  2 -1</clus>
</clustering>
</event>
<event>
 9    1  0.1748361E-005  0.9436379E+02  0.7546771E-02  0.1292671E+00
         -2   -1    0    0    0  501 -0.00000000000E+00  0.00000000000E+00  0.10417628907E+03  0.10417628907E+03  0.00000000000E+00 0.  1.
          2   -1    0    0  502    0  0.00000000000E+00 -0.00000000000E+00 -0.15294142582E+03  0.15294142582E+03  0.00000000000E+00 0. -1.
         23    2    1    2    0    0 -0.20434082003E+02  0.26584921395E+02  0.69137951679E+01  0.97533825238E+02  0.91327634093E+02 0.  0.
         23    2    1    2    0    0  0.24172691672E+02  0.22394572590E+02 -0.52254931292E+02  0.11034272990E+03  0.91428137316E+02 0.  0.
        -11    1    4    4    0    0 -0.16694613891E+01  0.27538589804E+02  0.19577880134E+02  0.33829785992E+02  0.00000000000E+00 0.  1.
         11    1    4    4    0    0  0.25842153061E+02 -0.51440172139E+01 -0.71832811426E+02  0.76512943907E+02  0.00000000000E+00 0. -1.
        -13    1    3    3    0    0  0.35092882355E+02  0.20406065286E+02  0.91746535537E+01  0.41618411314E+02  0.00000000000E+00 0. -1.
         13    1    3    3    0    0 -0.55526964359E+02  0.61788561098E+01 -0.22608583858E+01  0.55915413925E+02  0.00000000000E+00 0.  1.
         21    1    1    2  502  501 -0.37386096687E+01 -0.48979493985E+02 -0.34240006206E+01  0.49241159750E+02  0.00000000000E+00 0.  1.
<scales pt_clust_5="13000.00000" pt_clust_6="13000.00000" pt_clust_7="13000.00000" pt_clust_8="13000.00000" pt_clust_9="49.12197"></scales>
<clustering>
<clus scale="   49.122">  1  9  2 -1</clus>
<clus scale="   91.328">  7  8 -1 -1</clus>
<clus scale="   91.428">  5  6 -1 -1</clus>
<clus scale="   94.266">  1  7  2 -1</clus>
<clus scale="   94.364">  2  5  1 -1</clus>
</clustering>
</event>
<event>
 9    1  0.1748361E-005  0.9585438E+02  0.7546771E-02  0.1289558E+00
         -1   -1    0    0    0  501 -0.00000000000E+00  0.00000000000E+00  0.37277639283E+02  0.37277639283E+02  0.00000000000E+00 0.  1.
          1   -1    0    0  502    0  0.00000000000E+00 -0.00000000000E+00 -0.48981263274E+03  0.48981263274E+03  0.00000000000E+00 0. -1.
         23    2    1    2    0    0 -0.26063322041E+02  0.48045390624E+02 -0.19090401445E+03  0.21955305592E+03  0.93656528420E+02 0.  0.
         23    2    1    2    0    0 -0.10150235626E+02  0.74168381859E+00 -0.20073557868E+03  0.22151483429E+03  0.93115368684E+02 0.  0.
        -13    1    4    4    0    0  0.85519695622E+01  0.43700816895E+02 -0.73623298233E+02  0.86042359471E+02  0.00000000000E+00 0.  1.
         13    1    4    4    0    0 -0.18702205188E+02 -0.42959133076E+02 -0.12711228044E+03  0.13547247482E+03  0.00000000000E+00 0. -1.
        -13    1    3    3    0    0  0.19448842320E+02  0.52971786662E+02 -0.14079146436E+03  0.15167895070E+03  0.00000000000E+00 0.  1.
         13    1    3    3    0    0 -0.45512164361E+02 -0.49263960383E+01 -0.50112550090E+02  0.67874105219E+02  0.00000000000E+00 0. -1.
         21    1    1    2  502  501  0.36213557666E+02 -0.48787074442E+02 -0.60895400335E+02  0.86022381817E+02  0.00000000000E+00 0.  1.
<scales pt_clust_5="13000.00000" pt_clust_6="13000.00000" pt_clust_7="13000.00000" pt_clust_8="13000.00000" pt_clust_9="60.75854"></scales>
<clustering>
<clus scale="   60.759">  1  9  2 -1</clus>
<clus scale="   93.115">  5  6 -1 -1</clus>
<clus scale="   93.657">  7  8 -1 -1</clus>
<clus scale="   95.326">  2  5  1 -1</clus>
<clus scale="   95.326">  2  5  1 -1</clus>
</clustering>
</event>
<event>
 9    1  0.1748361E-005  0.1560298E+03  0.7546771E-02  0.1195554E+00
          1   -1    0    0  502    0  0.00000000000E+00  0.00000000000E+00  0.49504239596E+03  0.49504239596E+03  0.00000000000E+00 0. -1.
         -1   -1    0    0    0  501 -0.00000000000E+00 -0.00000000000E+00 -0.74748822405E+02  0.74748822405E+02  0.00000000000E+00 0.  1.
         23    2    1    2    0    0 -0.10707069915E+03  0.87391395311E+02  0.11578985919E+03  0.20190324370E+03  0.90863841735E+02 0.  0.
         23    2    1    2    0    0  0.69908463046E+02 -0.83831860954E+02  0.29240247139E+03  0.32864332969E+03  0.10291869976E+03 0.  0.
        -11    1    3    3    0    0 -0.31018895607E+02  0.37711739118E+02 -0.68251607717E+01  0.49304461984E+02  0.00000000000E+00 0. -1.
         11    1    3    3    0    0 -0.76051803547E+02  0.49679656193E+02  0.12261501996E+03  0.15259878172E+03  0.00000000000E+00 0.  1.
        -13    1    4    4    0    0  0.94181424895E+02 -0.83105025640E+02  0.24999851443E+03  0.27977820376E+03  0.00000000000E+00 0. -1.
         13    1    4    4    0    0 -0.24272961849E+02 -0.72683531368E+00  0.42403956960E+02  0.48865125933E+02  0.00000000000E+00 0.  1.
         21    1    1    2  502  501  0.37162236108E+02 -0.35595343572E+01  0.12101242982E+02  0.39244644973E+02  0.00000000000E+00 0.  1.
<scales pt_clust_5="13000.00000" pt_clust_6="13000.00000" pt_clust_7="13000.00000" pt_clust_8="13000.00000" pt_clust_9="37.33232"></scales>
<clustering>
<clus scale="   37.332">  2  9  1 -1</clus>
<clus scale="   90.864">  5  6 -1 -1</clus>
<clus scale="  102.919">  7  8 -1 -1</clus>
<clus scale="  148.355">  2  5  1 -1</clus>
<clus scale="  156.030">  1  5  2 -1</clus>
</clustering>
</event>
<event>
 9    1  0.1748361E-005  0.2310061E+03  0.7546771E-02  0.1154955E+00
          2   -1    0    0  502    0  0.00000000000E+00  0.00000000000E+00  0.93007303016E+03  0.93007303016E+03  0.00000000000E+00 0. -1.
         -2   -1    0    0    0  501 -0.00000000000E+00 -0.00000000000E+00 -0.10330635004E+03  0.10330635004E+03  0.00000000000E+00 0.  1.
         23    2    1    2    0    0 -0.70056286599E+02 -0.67738166251E+01  0.11304273579E+03  0.16108614215E+03  0.90643903238E+02 0.  0.
         23    2    1    2    0    0 -0.87629326243E+02 -0.18106601738E+03  0.50194251782E+03  0.54825631368E+03  0.90415113932E+02 0.  0.
        -11    1    3    3    0    0 -0.22265204378E+02 -0.43386186901E+02  0.26034227603E+02  0.55280028461E+02  0.00000000000E+00 0.  1.
         11    1    3    3    0    0 -0.47791082221E+02  0.36612370276E+02  0.87008508188E+02  0.10580611369E+03  0.00000000000E+00 0. -1.
        -13    1    4    4    0    0 -0.25992101021E+02 -0.11498499644E+03  0.19101489867E+03  0.22446342739E+03  0.00000000000E+00 0.  1.
         13    1    4    4    0    0 -0.61637225222E+02 -0.66081020940E+02  0.31092761915E+03  0.32379288629E+03  0.00000000000E+00 0. -1.
         21    1    1    2  502  501  0.15768561284E+03  0.18783983401E+03  0.21178142652E+03  0.32403692437E+03  0.00000000000E+00 0.  1.
<scales pt_clust_5="13000.00000" pt_clust_6="13000.00000" pt_clust_7="13000.00000" pt_clust_8="13000.00000" pt_clust_9="212.57684"></scales>
<clustering>
<clus scale="   90.415">  7  8 -1 -1</clus>
<clus scale="   90.644">  5  6 -1 -1</clus>
<clus scale="  114.761">  2  5  1 -1</clus>
<clus scale="  212.577">  2  9  1 -1</clus>
<clus scale="  231.006">  1  5  2 -1</clus>
</clustering>
</event>
<event>
 9    1  0.1748361E-005  0.9407684E+02  0.7546771E-02  0.1293690E+00
         -3   -1    0    0    0  501 -0.00000000000E+00  0.00000000000E+00  0.61942463757E+02  0.61942463757E+02  0.00000000000E+00 0.  1.
          3   -1    0    0  502    0  0.00000000000E+00 -0.00000000000E+00 -0.23917309417E+03  0.23917309417E+03  0.00000000000E+00 0. -1.
         23    2    1    2    0    0  0.93196989279E+01  0.20242462841E+02 -0.76843602794E+01  0.93402483739E+02  0.90378982544E+02 0.  0.
         23    2    1    2    0    0  0.12085709538E+02 -0.22882478718E+02 -0.15512777225E+03  0.18176978456E+03  0.91137021290E+02 0.  0.
        -11    1    3    3    0    0 -0.30796011130E+02 -0.10028841983E+02 -0.24279327818E+02  0.40477867191E+02  0.00000000000E+00 0. -1.
         11    1    3    3    0    0  0.40115710058E+02  0.30271304824E+02  0.16594967538E+02  0.52924616548E+02  0.00000000000E+00 0.  1.
        -13    1    4    4    0    0 -0.29263568619E+02  0.18168136906E+02 -0.40370606626E+02  0.53068102720E+02  0.00000000000E+00 0.  1.
         13    1    4    4    0    0  0.41349278157E+02 -0.41050615624E+02 -0.11475716562E+03  0.12870168184E+03  0.00000000000E+00 0. -1.
         21    1    1    2  502  501 -0.21405408466E+02  0.26400158774E+01 -0.14418497890E+02  0.25943289630E+02  0.00000000000E+00 0.  1.
<scales pt_clust_5="13000.00000" pt_clust_6="13000.00000" pt_clust_7="13000.00000" pt_clust_8="13000.00000" pt_clust_9="21.56760"></scales>
<clustering>
<clus scale="   21.568">  1  9  2 -1</clus>
<clus scale="   90.379">  5  6 -1 -1</clus>
<clus scale="   91.137">  7  8 -1 -1</clus>
<clus scale="   93.343">  1  5  2 -1</clus>
<clus scale="   94.077">  2  5  1 -1</clus>
</clustering>
</event>
<event>
 9    1  0.1748361E-005  0.1199960E+03  0.7546771E-02  0.1243346E+00
         -2   -1    0    0    0  501 -0.00000000000E+00  0.00000000000E+00  0.22436517364E+03  0.22436517364E+03  0.00000000000E+00 0.  1.
          2   -1    0    0  502    0  0.00000000000E+00 -0.00000000000E+00 -0.40350375896E+03  0.40350375896E+03  0.00000000000E+00 0. -1.
         23    2    1    2    0    0 -0.41615966871E+02  0.37030973261E+02 -0.55093707707E+02  0.12188398140E+03  0.93365982106E+02 0.  0.
         23    2    1    2    0    0  0.60453421086E+02 -0.56293524465E+02 -0.30173785897E+03  0.32626102072E+03  0.92611776181E+02 0.  0.
        -11    1    3    3    0    0 -0.22946719044E+02  0.66562240861E+02 -0.50501759361E+02  0.86645897317E+02  0.00000000000E+00 0.  1.
         11    1    3    3    0    0 -0.18669247826E+02 -0.29531267600E+02 -0.45919483466E+01  0.35238084087E+02  0.00000000000E+00 0. -1.
        -13    1    4    4    0    0  0.41756969386E+02 -0.30893473298E+02 -0.28661474945E+03  0.29128348011E+03  0.00000000000E+00 0. -1.
         13    1    4    4    0    0  0.18696451699E+02 -0.25400051167E+02 -0.15123109524E+02  0.34977540610E+02  0.00000000000E+00 0.  1.
         21    1    1    2  502  501 -0.18837454215E+02  0.19262551205E+02  0.17769298136E+03  0.17972393047E+03  0.00000000000E+00 0.  1.
<scales pt_clust_5="13000.00000" pt_clust_6="13000.00000" pt_clust_7="13000.00000" pt_clust_8="13000.00000" pt_clust_9="26.94245"></scales>
<clustering>
<clus scale="   26.942">  1  9  2 -1</clus>
<clus scale="   92.612">  7  8 -1 -1</clus>
<clus scale="   93.366">  5  6 -1 -1</clus>
<clus scale="  119.410">  2  7  1 -1</clus>
<clus scale="  119.410">  2  5  1 -1</clus>
</clustering>
</event>
<event>
 9    1  0.1748361E-005  0.9703878E+02  0.7546771E-02  0.1296470E+00
          1   -1    0    0  502    0  0.00000000000E+00  0.00000000000E+00  0.24381223155E+03  0.24381223155E+03  0.00000000000E+00 0. -1.
         -1   -1    0    0    0  501 -0.00000000000E+00 -0.00000000000E+00 -0.44467802016E+02  0.44467802016E+02  0.00000000000E+00 0.  1.
         23    2    1    2    0    0 -0.36981982049E+01 -0.30978428327E+00  0.42541552669E+02  0.90904368648E+02  0.80249909031E+02 0.  0.
         23    2    1    2    0    0  0.16666547068E+02  0.15796685720E+02  0.13585617113E+03  0.16827606579E+03  0.96605517504E+02 0.  0.
        -11    1    4    4    0    0 -0.10354805158E+02 -0.37543937392E+02  0.62446977450E+02  0.73596156268E+02  0.00000000000E+00 0.  1.
         11    1    4    4    0    0  0.27021352226E+02  0.53340623112E+02  0.73409193679E+02  0.94679909520E+02  0.00000000000E+00 0. -1.
        -13    1    3    3    0    0 -0.39137456084E+02 -0.11694750398E+02  0.11496907245E+02  0.42434496955E+02  0.00000000000E+00 0.  1.
         13    1    3    3    0    0  0.35439257879E+02  0.11384966115E+02  0.31044645424E+02  0.48469871693E+02  0.00000000000E+00 0. -1.
         21    1    1    2  502  501 -0.12968348863E+02 -0.15486901436E+02  0.20946705734E+02  0.29099599129E+02  0.00000000000E+00 0.  1.
<scales pt_clust_5="13000.00000" pt_clust_6="13000.00000" pt_clust_7="13000.00000" pt_clust_8="13000.00000" pt_clust_9="20.19956"></scales>
<clustering>
<clus scale="   20.200">  1  9  2 -1</clus>
<clus scale="   80.250">  7  8 -1 -1</clus>
<clus scale="   80.771">  2  7  1 -1</clus>
<clus scale="   96.606">  5  6 -1 -1</clus>
<clus scale="   20.200">  1  5  2 -1</clus>
</clustering>
</event>
<event>
 9    1  0.1748361E-005  0.1207075E+03  0.7546771E-02  0.1242714E+00
          1   -1    0    0  502    0  0.00000000000E+00  0.00000000000E+00  0.29835974123E+03  0.29835974123E+03  0.00000000000E+00 0. -1.
         -1   -1    0    0    0  501 -0.00000000000E+00 -0.00000000000E+00 -0.92771449304E+02  0.92771449304E+02  0.00000000000E+00 0.  1.
         23    2    1    2    0    0  0.82465571781E+02 -0.37672810869E+02  0.20579795958E+01  0.12867806630E+03  0.91290734792E+02 0.  0.
         23    2    1    2    0    0 -0.76754433255E+02  0.65603481576E+01  0.19811713116E+03  0.23036099171E+03  0.88777855643E+02 0.  0.
        -11    1    4    4    0    0 -0.48602662346E+02  0.31190221974E+02  0.17953490263E+03  0.18859435303E+03  0.00000000000E+00 0. -1.
         11    1    4    4    0    0 -0.28151770909E+02 -0.24629873817E+02  0.18582228529E+02  0.41766638681E+02  0.00000000000E+00 0.  1.
        -13    1    3    3    0    0  0.92751526283E+02 -0.55481522785E+02  0.96324466757E+00  0.10808317556E+03  0.00000000000E+00 0.  1.
         13    1    3    3    0    0 -0.10285954503E+02  0.17808711916E+02  0.10947349282E+01  0.20594890742E+02  0.00000000000E+00 0. -1.
         21    1    1    2  502  501 -0.57111385255E+01  0.31112462712E+02  0.54131811727E+01  0.32092132520E+02  0.00000000000E+00 0. -1.
<scales pt_clust_5="13000.00000" pt_clust_6="13000.00000" pt_clust_7="13000.00000" pt_clust_8="13000.00000" pt_clust_9="31.63230"></scales>
<clustering>
<clus scale="   31.632">  2  9  1 -1</clus>
<clus scale="   88.778">  5  6 -1 -1</clus>
<clus scale="   91.291">  7  8 -1 -1</clus>
<clus scale="  118.818">  1  5  2 -1</clus>
<clus scale="  118.818">  1  5  2 -1</clus>
</clustering>
</event>
<event>
 9    1  0.1748361E-005  0.9443924E+02  0.7546771E-02  0.1298675E+00
          2   -1    0    0  502    0  0.00000000000E+00  0.00000000000E+00  0.25508966359E+03  0.25508966359E+03  0.00000000000E+00 0. -1.
         -2   -1    0    0    0  501 -0.00000000000E+00 -0.00000000000E+00 -0.68170841975E+02  0.68170841975E+02  0.00000000000E+00 0.  1.
         23    2    1    2    0    0 -0.30783100918E+02  0.16133568065E+02  0.31224957022E+02  0.10534322471E+03  0.94415601097E+02 0.  0.
         23    2    1    2    0    0 -0.93426892818E+01  0.76904666719E+01  0.14795534906E+03  0.17061455056E+03  0.84095840723E+02 0.  0.
        -13    1    4    4    0    0  0.93938410286E+01 -0.34691564028E+02  0.86315534339E+02  0.93499306586E+02  0.00000000000E+00 0. -1.
         13    1    4    4    0    0 -0.18736530310E+02  0.42382030700E+02  0.61639814726E+02  0.77115243978E+02  0.00000000000E+00 0.  1.
        -13    1    3    3    0    0 -0.29334234273E+02  0.49102049577E+02 -0.36707764166E+01  0.57314772726E+02  0.00000000000E+00 0.  1.
         13    1    3    3    0    0 -0.14488666444E+01 -0.32968481512E+02  0.34895733438E+02  0.48028451984E+02  0.00000000000E+00 0. -1.
         21    1    1    2  502  501  0.40125790200E+02 -0.23824034737E+02  0.77385155264E+01  0.47302730290E+02  0.00000000000E+00 0.  1.
<scales pt_clust_5="13000.00000" pt_clust_6="13000.00000" pt_clust_7="13000.00000" pt_clust_8="13000.00000" pt_clust_9="46.66544"></scales>
<clustering>
<clus scale="   46.665">  2  9  1 -1</clus>
<clus scale="   84.096">  5  6 -1 -1</clus>
<clus scale="   84.122">  1  5  2 -1</clus>
<clus scale="   94.416">  7  8 -1 -1</clus>
<clus scale="   84.122">  1  5  2 -1</clus>
</clustering>
</event>
<event>
 9    1  0.1748361E-005  0.9160932E+02  0.7546771E-02  0.1299356E+00
          1   -1    0    0  502    0  0.00000000000E+00  0.00000000000E+00  0.10925033868E+03  0.10925033868E+03  0.00000000000E+00 0. -1.
         -1   -1    0    0    0  501 -0.00000000000E+00 -0.00000000000E+00 -0.15256695361E+03  0.15256695361E+03  0.00000000000E+00 0.  1.
         23    2    1    2    0    0 -0.20001483919E+02  0.71645972945E+01 -0.28261295134E+02  0.96768136824E+02  0.90077637005E+02 0.  0.
         23    2    1    2    0    0  0.19564124079E+01  0.18848721466E+02  0.40498671091E+02  0.10110728137E+03  0.90683174494E+02 0.  0.
        -13    1    4    4    0    0 -0.27846498715E+02  0.41735938925E+02  0.38917121382E+02  0.63496916660E+02  0.00000000000E+00 0. -1.
         13    1    4    4    0    0  0.29802911123E+02 -0.22887217459E+02  0.15815497094E+01  0.37610364714E+02  0.00000000000E+00 0.  1.
        -13    1    3    3    0    0  0.21529090538E+02  0.27176678657E+02 -0.36047052624E+02  0.50014633909E+02  0.00000000000E+00 0.  1.
         13    1    3    3    0    0 -0.41530574457E+02 -0.20012081362E+02  0.77857574898E+01  0.46753502915E+02  0.00000000000E+00 0. -1.
         21    1    1    2  502  501  0.18045071511E+02 -0.26013318760E+02 -0.55553990887E+02  0.63941874091E+02  0.00000000000E+00 0.  1.
<scales pt_clust_5="13000.00000" pt_clust_6="13000.00000" pt_clust_7="13000.00000" pt_clust_8="13000.00000" pt_clust_9="31.65940"></scales>
<clustering>
<clus scale="   31.659">  2  9  1 -1</clus>
<clus scale="   90.078">  7  8 -1 -1</clus>
<clus scale="   90.683">  5  6 -1 -1</clus>
<clus scale="   91.010">  2  7  1 -1</clus>
<clus scale="   91.609">  1  5  2 -1</clus>
</clustering>
</event>
<event>
 9    1  0.1748361E-005  0.1063850E+03  0.7546771E-02  0.1268866E+00
          1   -1    0    0  502    0  0.00000000000E+00  0.00000000000E+00  0.33506617907E+03  0.33506617907E+03  0.00000000000E+00 0. -1.
         -1   -1    0    0    0  501 -0.00000000000E+00 -0.00000000000E+00 -0.84693636588E+02  0.84693636588E+02  0.00000000000E+00 0.  1.
         23    2    1    2    0    0  0.30199246838E+02 -0.20697741122E+02  0.78822680494E+02  0.12996629627E+03  0.96632459392E+02 0.  0.
         23    2    1    2    0    0 -0.26274390682E+02  0.41754177626E+02  0.21601064922E+03  0.24044233283E+03  0.93371086996E+02 0.  0.
        -13    1    3    3    0    0  0.39420888058E+02  0.27391801352E+02  0.16611192928E+02  0.50796150711E+02  0.00000000000E+00 0.  1.
         13    1    3    3    0    0 -0.92216412204E+01 -0.48089542474E+02  0.62211487566E+02  0.79170145556E+02  0.00000000000E+00 0. -1.
        -13    1    4    4    0    0 -0.36000483737E+02 -0.14772465199E+01  0.17934284678E+03  0.18292641629E+03  0.00000000000E+00 0. -1.
         13    1    4    4    0    0  0.97260930543E+01  0.43231424146E+02  0.36667802443E+02  0.57515916543E+02  0.00000000000E+00 0.  1.
         21    1    1    2  502  501 -0.39248561553E+01 -0.21056436504E+02 -0.44460787228E+02  0.49351186561E+02  0.00000000000E+00 0.  1.
<scales pt_clust_5="13000.00000" pt_clust_6="13000.00000" pt_clust_7="13000.00000" pt_clust_8="13000.00000" pt_clust_9="21.41910"></scales>
<clustering>
<clus scale="   21.419">  2  9  1 -1</clus>
<clus scale="   93.371">  7  8 -1 -1</clus>
<clus scale="   96.632">  5  6 -1 -1</clus>
<clus scale="  103.432">  1  7  2 -1</clus>
<clus scale="  103.432">  1  5  2 -1</clus>
</clustering>
</event>
<event>
 9    1  0.1748361E-005  0.1104244E+03  0.7546771E-02  0.1260849E+00
         -3   -1    0    0    0  501 -0.00000000000E+00  0.00000000000E+00  0.82144129750E+02  0.82144129750E+02  0.00000000000E+00 0.  1.
          3   -1    0    0  502    0  0.00000000000E+00 -0.00000000000E+00 -0.27741016124E+03  0.27741016124E+03  0.00000000000E+00 0. -1.
         23    2    1    2    0    0  0.63105928201E+01 -0.69946459276E+02 -0.41516118717E+00  0.11684652256E+03  0.93384188851E+02 0.  0.
         23    2    1    2    0    0 -0.28967555425E+02  0.49496675572E+02 -0.17802876604E+03  0.20785787891E+03  0.90673127918E+02 0.  0.
        -11    1    3    3    0    0 -0.19227835112E+02 -0.54514553615E+02 -0.37759121722E+02  0.69045618777E+02  0.00000000000E+00 0. -1.
         11    1    3    3    0    0  0.25538427932E+02 -0.15431905661E+02  0.37343960535E+02  0.47800903779E+02  0.00000000000E+00 0.  1.
        -13    1    4    4    0    0 -0.60469394605E+02  0.37120737007E+02 -0.13996663165E+03  0.15692404142E+03  0.00000000000E+00 0. -1.
         13    1    4    4    0    0  0.31501839180E+02  0.12375938565E+02 -0.38062134393E+02  0.50933837492E+02  0.00000000000E+00 0.  1.
         21    1    1    2  502  501  0.22656962604E+02  0.20449783704E+02 -0.16822104257E+02  0.34849889521E+02  0.00000000000E+00 0.  1.
<scales pt_clust_5="13000.00000" pt_clust_6="13000.00000" pt_clust_7="13000.00000" pt_clust_8="13000.00000" pt_clust_9="30.52100"></scales>
<clustering>
<clus scale="   30.521">  1  9  2 -1</clus>
<clus scale="   90.673">  7  8 -1 -1</clus>
<clus scale="   93.384">  5  6 -1 -1</clus>
<clus scale="  108.141">  2  7  1 -1</clus>
<clus scale="  108.141">  2  5  1 -1</clus>
</clustering>
</event>
<event>
 9    1  0.1748361E-005  0.2406787E+03  0.7546771E-02  0.1119681E+00
         -1   -1    0    0    0  501 -0.00000000000E+00  0.00000000000E+00  0.31261923882E+03  0.31261923882E+03  0.00000000000E+00 0.  1.
          1   -1    0    0  502    0  0.00000000000E+00 -0.00000000000E+00 -0.56182321909E+03  0.56182321909E+03  0.00000000000E+00 0. -1.
         23    2    1    2    0    0  0.39276175273E+02  0.20636068931E+03  0.14058504561E+03  0.26894461871E+03  0.91867844452E+02 0.  0.
         23    2    1    2    0    0 -0.97164463571E+02 -0.20038920684E+03 -0.45641401862E+03  0.51703540547E+03  0.97031370762E+02 0.  0.
        -11    1    4    4    0    0 -0.61961880751E+02 -0.15093722106E+03 -0.22588963522E+03  0.27865291434E+03  0.00000000000E+00 0. -1.
         11    1    4    4    0    0 -0.35202582820E+02 -0.49451985778E+02 -0.23052438340E+03  0.23838249113E+03  0.00000000000E+00 0.  1.
        -11    1    3    3    0    0  0.44039664535E+02  0.35418583058E+02  0.21085775938E+02  0.60320626862E+02  0.00000000000E+00 0.  1.
         11    1    3    3    0    0 -0.47634892620E+01  0.17094210625E+03  0.11949926967E+03  0.20862399184E+03  0.00000000000E+00 0. -1.
         21    1    1    2  502  501  0.57888288298E+02 -0.59714824669E+01  0.66624992735E+02  0.88462433733E+02  0.00000000000E+00 0.  1.
<scales pt_clust_5="13000.00000" pt_clust_6="13000.00000" pt_clust_7="13000.00000" pt_clust_8="13000.00000" pt_clust_9="58.19547"></scales>
<clustering>
<clus scale="   58.195">  1  9  2 -1</clus>
<clus scale="   91.868">  7  8 -1 -1</clus>
<clus scale="   97.031">  5  6 -1 -1</clus>
<clus scale="  238.644">  1  7  2 -1</clus>
<clus scale="  240.679">  2  5  1 -1</clus>
</clustering>
</event>
<event>
 9    1  0.1748361E-005  0.2060540E+03  0.7546771E-02  0.1145621E+00
         -1   -1    0    0    0  501 -0.00000000000E+00  0.00000000000E+00  0.14099466971E+03  0.14099466971E+03  0.00000000000E+00 0.  1.
          1   -1    0    0  502    0  0.00000000000E+00 -0.00000000000E+00 -0.46138403611E+03  0.46138403611E+03  0.00000000000E+00 0. -1.
         23    2    1    2    0    0  0.16693194781E+03 -0.64055707797E+02 -0.23274013499E+02  0.20203929397E+03  0.91152551818E+02 0.  0.
         23    2    1    2    0    0 -0.17614659690E+03  0.40719541155E+02 -0.30960123561E+03  0.37231471384E+03  0.10039729288E+03 0.  0.
        -11    1    4    4    0    0 -0.14674958379E+02  0.27786211103E+02 -0.11448489352E+03  0.11871907503E+03  0.00000000000E+00 0.  1.
         11    1    4    4    0    0 -0.16147163852E+03  0.12933330053E+02 -0.19511634209E+03  0.25359563881E+03  0.00000000000E+00 0. -1.
        -11    1    3    3    0    0  0.94834331736E+02 -0.74918232728E+01 -0.48794549784E+02  0.10691391855E+03  0.00000000000E+00 0. -1.
         11    1    3    3    0    0  0.72097616071E+02 -0.56563884524E+02  0.25520536286E+02  0.95125375415E+02  0.00000000000E+00 0.  1.
         21    1    1    2  502  501  0.92146490958E+01  0.23336166641E+02  0.12485882710E+02  0.28024698009E+02  0.00000000000E+00 0.  1.
<scales pt_clust_5="13000.00000" pt_clust_6="13000.00000" pt_clust_7="13000.00000" pt_clust_8="13000.00000" pt_clust_9="25.08957"></scales>
<clustering>
<clus scale="   25.090">  1  9  2 -1</clus>
<clus scale="   91.153">  7  8 -1 -1</clus>
<clus scale="  100.397">  5  6 -1 -1</clus>
<clus scale="  201.711">  1  7  2 -1</clus>
<clus scale="  206.054">  2  5  1 -1</clus>
</clustering>
</event>
<event>
 9    1  0.1748361E-005  0.1855000E+03  0.7546771E-02  0.1162780E+00
         -2   -1    0    0    0  501 -0.00000000000E+00  0.00000000000E+00  0.52232888444E+03  0.52232888444E+03  0.00000000000E+00 0.  1.
          2   -1    0    0  502    0  0.00000000000E+00 -0.00000000000E+00 -0.12811883250E+03  0.12811883250E+03  0.00000000000E+00 0. -1.
         23    2    1    2    0    0  0.23570778447E+02 -0.18439028106E+03  0.27833044890E+03  0.34647987919E+03  0.89582981390E+02 0.  0.
         23    2    1    2    0    0 -0.22841450471E+02  0.15293890218E+03 -0.44097378522E+01  0.17963261873E+03  0.91303845834E+02 0.  0.
        -11    1    3    3    0    0  0.55114867382E+02 -0.11889266367E+03  0.15169189926E+03  0.20045834077E+03  0.00000000000E+00 0. -1.
         11    1    3    3    0    0 -0.31544088935E+02 -0.65497617397E+02  0.12663854963E+03  0.14602153843E+03  0.00000000000E+00 0.  1.
        -13    1    4    4    0    0  0.35176822738E+02  0.47497310715E+02  0.16807455436E+01  0.59128912459E+02  0.00000000000E+00 0.  1.
         13    1    4    4    0    0 -0.58018273208E+02  0.10544159147E+03 -0.60904833958E+01  0.12050370627E+03  0.00000000000E+00 0. -1.
         21    1    1    2  502  501 -0.72932797665E+00  0.31451378880E+02  0.12028934090E+03  0.12433521901E+03  0.00000000000E+00 0.  1.
<scales pt_clust_5="13000.00000" pt_clust_6="13000.00000" pt_clust_7="13000.00000" pt_clust_8="13000.00000" pt_clust_9="31.45983"></scales>
<clustering>
<clus scale="   31.460">  1  9  2 -1</clus>
<clus scale="   89.583">  5  6 -1 -1</clus>
<clus scale="   91.304">  7  8 -1 -1</clus>
<clus scale="  184.659">  1  5  2 -1</clus>
<clus scale="  185.500">  2  5  1 -1</clus>
</clustering>
</event>
<event>
 9    1  0.1748361E-005  0.1101836E+03  0.7546771E-02  0.1263801E+00
         -1   -1    0    0    0  501 -0.00000000000E+00  0.00000000000E+00  0.18635247000E+03  0.18635247000E+03  0.00000000000E+00 0.  1.
          1   -1    0    0  502    0  0.00000000000E+00 -0.00000000000E+00 -0.10833724570E+03  0.10833724570E+03  0.00000000000E+00 0. -1.
         23    2    1    2    0    0  0.20738357322E+02  0.33376274790E+02  0.51121180731E+02  0.10851967909E+03  0.87287401428E+02 0.  0.
         23    2    1    2    0    0 -0.87470727322E+01 -0.79003950800E+02  0.49243125878E+02  0.13396699834E+03  0.95938186742E+02 0.  0.
        -13    1    3    3    0    0 -0.13677346792E+02  0.38227490525E+02  0.60186961841E+02  0.72600834862E+02  0.00000000000E+00 0.  1.
         13    1    3    3    0    0  0.34415704114E+02 -0.48512157348E+01 -0.90657811101E+01  0.35918844231E+02  0.00000000000E+00 0. -1.
        -13    1    4    4    0    0 -0.29142207275E+01  0.22519212429E+02  0.61704135164E+01  0.23530440154E+02  0.00000000000E+00 0.  1.
         13    1    4    4    0    0 -0.58328520047E+01 -0.10152316323E+03  0.43072712361E+02  0.11043655819E+03  0.00000000000E+00 0. -1.
         21    1    1    2  502  501 -0.11991284590E+02  0.45627676010E+02 -0.22349082312E+02  0.52203038268E+02  0.00000000000E+00 0.  1.
<scales pt_clust_5="13000.00000" pt_clust_6="13000.00000" pt_clust_7="13000.00000" pt_clust_8="13000.00000" pt_clust_9="47.17707"></scales>
<clustering>
<clus scale="   47.177">  2  9  1 -1</clus>
<clus scale="   87.287">  5  6 -1 -1</clus>
<clus scale="   95.938">  7  8 -1 -1</clus>
<clus scale="  102.739">  1  5  2 -1</clus>
<clus scale="   47.177">  2  5  1 -1</clus>
</clustering>
</event>
<event>
 9    1  0.1748361E-005  0.1207371E+03  0.7546771E-02  0.1243112E+00
         -1   -1    0    0    0  501 -0.00000000000E+00  0.00000000000E+00  0.36775899734E+02  0.36775899734E+02  0.00000000000E+00 0.  1.
          1   -1    0    0  502    0  0.00000000000E+00 -0.00000000000E+00 -0.93734839728E+03  0.93734839728E+03  0.00000000000E+00 0. -1.
         23    2    1    2    0    0 -0.55157313404E+01 -0.45623315501E+02 -0.23739539597E+03  0.25802609896E+03  0.90049894537E+02 0.  0.
         23    2    1    2    0    0  0.97531047726E+02  0.73891613607E+02 -0.26651256902E+03  0.30792094917E+03  0.93883361975E+02 0.  0.
        -11    1    4    4    0    0 -0.10405779172E+02  0.23592621048E+02 -0.15477600456E+02  0.30074044024E+02  0.00000000000E+00 0.  1.
         11    1    4    4    0    0  0.10793682690E+03  0.50298992559E+02 -0.25103496857E+03  0.27784690514E+03  0.00000000000E+00 0. -1.
        -13    1    3    3    0    0  0.26750332886E+02 -0.22242345266E+02 -0.27400641981E+02  0.44284279529E+02  0.00000000000E+00 0. -1.
         13    1    3    3    0    0 -0.32266064226E+02 -0.23380970235E+02 -0.20999475399E+03  0.21374181943E+03  0.00000000000E+00 0.  1.
         21    1    1    2  502  501 -0.92015316385E+02 -0.28268298106E+02 -0.39666453255E+03  0.40817724889E+03  0.00000000000E+00 0.  1.
<scales pt_clust_5="13000.00000" pt_clust_6="13000.00000" pt_clust_7="13000.00000" pt_clust_8="13000.00000" pt_clust_9="96.25962"></scales>
<clustering>
<clus scale="   90.050">  7  8 -1 -1</clus>
<clus scale="   93.883">  5  6 -1 -1</clus>
<clus scale="   96.260">  2  9  1 -1</clus>
<clus scale="  117.781">  1  7  2 -1</clus>
<clus scale="   96.260">  2  5  1 -1</clus>
</clustering>
</event>
<event>
 9    1  0.1748361E-005  0.1037859E+03  0.7546771E-02  0.1274571E+00
          1   -1    0    0  502    0  0.00000000000E+00  0.00000000000E+00  0.54027062364E+03  0.54027062364E+03  0.00000000000E+00 0. -1.
         -1   -1    0    0    0  501 -0.00000000000E+00 -0.00000000000E+00 -0.34130553603E+02  0.34130553603E+02  0.00000000000E+00 0.  1.
         23    2    1    2    0    0 -0.56838136788E+01  0.31057400341E+02  0.13049206491E+03  0.16078285383E+03  0.88465129996E+02 0.  0.
         23    2    1    2    0    0 -0.17237660479E+02 -0.52541861878E+02  0.36462135162E+03  0.38032323139E+03  0.92947544833E+02 0.  0.
        -11    1    3    3    0    0 -0.28889097126E+02  0.17259100465E+02  0.12946334173E+03  0.13376551623E+03  0.00000000000E+00 0. -1.
         11    1    3    3    0    0  0.23205283447E+02  0.13798299876E+02  0.10287231867E+01  0.27017337595E+02  0.00000000000E+00 0.  1.
        -13    1    4    4    0    0 -0.53483178790E+02 -0.16742940651E+02  0.21863062306E+03  0.22569919321E+03  0.00000000000E+00 0.  1.
         13    1    4    4    0    0  0.36245518311E+02 -0.35798921227E+02  0.14599072856E+03  0.15462403818E+03  0.00000000000E+00 0. -1.
         21    1    1    2  502  501  0.22921474158E+02  0.21484461537E+02  0.11026653495E+02  0.33295092017E+02  0.00000000000E+00 0.  1.
<scales pt_clust_5="13000.00000" pt_clust_6="13000.00000" pt_clust_7="13000.00000" pt_clust_8="13000.00000" pt_clust_9="31.41618"></scales>
<clustering>
<clus scale="   31.416">  2  9  1 -1</clus>
<clus scale="   88.465">  5  6 -1 -1</clus>
<clus scale="   92.948">  7  8 -1 -1</clus>
<clus scale="   99.792">  2  5  1 -1</clus>
<clus scale="  103.786">  1  5  2 -1</clus>
</clustering>
</event>
<event>
 9    1  0.1748361E-005  0.1036759E+03  0.7546771E-02  0.1273007E+00
         -1   -1    0    0    0  501 -0.00000000000E+00  0.00000000000E+00  0.55812322773E+03  0.55812322773E+03  0.00000000000E+00 0.  1.
          1   -1    0    0  502    0  0.00000000000E+00 -0.00000000000E+00 -0.24280415866E+02  0.24280415866E+02  0.00000000000E+00 0. -1.
         23    2    1    2    0    0 -0.58254058369E+02  0.69209687344E+01  0.28581120061E+03  0.30548416092E+03  0.90504668684E+02 0.  0.
         23    2    1    2    0    0  0.41706158524E+02  0.95377662357E+01  0.20726026030E+03  0.22994048732E+03  0.89919072313E+02 0.  0.
        -11    1    3    3    0    0 -0.35489190967E+02  0.41510445990E+02  0.89448225424E+02  0.10480259936E+03  0.00000000000E+00 0.  1.
         11    1    3    3    0    0 -0.22764867403E+02 -0.34589477256E+02  0.19636297518E+03  0.20068156155E+03  0.00000000000E+00 0. -1.
        -13    1    4    4    0    0  0.69864287899E+02  0.13217913868E+02  0.14395869114E+03  0.16056100624E+03  0.00000000000E+00 0.  1.
         13    1    4    4    0    0 -0.28158129375E+02 -0.36801476322E+01  0.63301569154E+02  0.69379481073E+02  0.00000000000E+00 0. -1.
         21    1    1    2  502  501  0.16547899845E+02 -0.16458734970E+02  0.40771350962E+02  0.46978995364E+02  0.00000000000E+00 0. -1.
<scales pt_clust_5="13000.00000" pt_clust_6="13000.00000" pt_clust_7="13000.00000" pt_clust_8="13000.00000" pt_clust_9="23.33930"></scales>
<clustering>
<clus scale="   23.339">  2  9  1 -1</clus>
<clus scale="   89.919">  7  8 -1 -1</clus>
<clus scale="   90.505">  5  6 -1 -1</clus>
<clus scale="  103.165">  2  7  1 -1</clus>
<clus scale="   23.339">  2  5  1 -1</clus>
</clustering>
</event>
<event>
 9    1  0.1748361E-005  0.1006773E+03  0.7546771E-02  0.1279237E+00
          1   -1    0    0  502    0  0.00000000000E+00  0.00000000000E+00  0.38878139242E+03  0.38878139242E+03  0.00000000000E+00 0. -1.
         -1   -1    0    0    0  501 -0.00000000000E+00 -0.00000000000E+00 -0.41761674438E+02  0.41761674438E+02  0.00000000000E+00 0.  1.
         23    2    1    2    0    0  0.89507292304E+01 -0.32164698478E+02  0.11025567226E+03  0.14639394160E+03  0.90333767171E+02 0.  0.
         23    2    1    2    0    0  0.14424930664E+02  0.48922080332E+02  0.23277207514E+03  0.25511178462E+03  0.91091904779E+02 0.  0.
        -11    1    3    3    0    0  0.20764515259E+02  0.13520064649E+02  0.92848848677E+02  0.96098209882E+02  0.00000000000E+00 0. -1.
         11    1    3    3    0    0 -0.11813786028E+02 -0.45684763126E+02  0.17406823583E+02  0.50295731723E+02  0.00000000000E+00 0.  1.
        -13    1    4    4    0    0  0.74381396969E+01 -0.22996176264E+02  0.23475791698E+02  0.33693661730E+02  0.00000000000E+00 0.  1.
         13    1    4    4    0    0  0.69867909670E+01  0.71918256596E+02  0.20929628345E+03  0.22141812289E+03  0.00000000000E+00 0. -1.
         21    1    1    2  502  501 -0.23375659894E+02 -0.16757381855E+02  0.39919705811E+01  0.29037340637E+02  0.00000000000E+00 0.  1.
<scales pt_clust_5="13000.00000" pt_clust_6="13000.00000" pt_clust_7="13000.00000" pt_clust_8="13000.00000" pt_clust_9="28.76163"></scales>
<clustering>
<clus scale="   28.762">  2  9  1 -1</clus>
<clus scale="   90.334">  5  6 -1 -1</clus>
<clus scale="   91.092">  7  8 -1 -1</clus>
<clus scale="   99.992">  2  5  1 -1</clus>
<clus scale="  100.677">  1  5  2 -1</clus>
</clustering>
</event>
<event>
 9    1  0.1748361E-005  0.1038794E+03  0.7546771E-02  0.1276249E+00
          2   -1    0    0  502    0  0.00000000000E+00  0.00000000000E+00  0.23653182271E+03  0.23653182271E+03  0.00000000000E+00 0. -1.
         -2   -1    0    0    0  501 -0.00000000000E+00 -0.00000000000E+00 -0.94345520123E+02  0.94345520123E+02  0.00000000000E+00 0.  1.
         23    2    1    2    0    0  0.72834064838E+01 -0.47389065235E+01 -0.32317228605E+02  0.10443115938E+03  0.98924003855E+02 0.  0.
         23    2    1    2    0    0 -0.54198373763E+01  0.36334742328E+02  0.16733601039E+03  0.19399401736E+03  0.91009616315E+02 0.  0.
        -11    1    3    3    0    0  0.39239763294E+02 -0.36699908701E+02 -0.22094255460E+02  0.58093015469E+02  0.00000000000E+00 0.  1.
         11    1    3    3    0    0 -0.31956356810E+02  0.31961002177E+02 -0.10222973145E+02  0.46338143906E+02  0.00000000000E+00 0. -1.
        -11    1    4    4    0    0 -0.25852178685E+00 -0.25869239401E+02  0.94958671522E+02  0.98419681355E+02  0.00000000000E+00 0.  1.
         11    1    4    4    0    0 -0.51613155895E+01  0.62203981729E+02  0.72377338865E+02  0.95574336005E+02  0.00000000000E+00 0. -1.
         21    1    1    2  502  501 -0.18635691074E+01 -0.31595835805E+02  0.71675208072E+01  0.32452166099E+02  0.00000000000E+00 0.  1.
<scales pt_clust_5="13000.00000" pt_clust_6="13000.00000" pt_clust_7="13000.00000" pt_clust_8="13000.00000" pt_clust_9="31.65075"></scales>
<clustering>
<clus scale="   31.651">  2  9  1 -1</clus>
<clus scale="   91.010">  7  8 -1 -1</clus>
<clus scale="   96.373">  1  7  2 -1</clus>
<clus scale="   98.924">  5  6 -1 -1</clus>
<clus scale="   96.373">  1  5  2 -1</clus>
</clustering>
</event>
<event>
 9    1  0.1748361E-005  0.1301662E+03  0.7546771E-02  0.1227233E+00
          4   -1    0    0  502    0  0.00000000000E+00  0.00000000000E+00  0.28259439550E+03  0.28259439550E+03  0.00000000000E+00 0. -1.
         -4   -1    0    0    0  501 -0.00000000000E+00 -0.00000000000E+00 -0.10507689277E+03  0.10507689277E+03  0.00000000000E+00 0.  1.
         23    2    1    2    0    0 -0.64044249864E+02  0.39851577740E+02  0.19702070297E+02  0.11994853683E+03  0.91157367910E+02 0.  0.
         23    2    1    2    0    0  0.55487924498E+02 -0.88486853179E+02  0.16751032372E+03  0.21739789041E+03  0.91067564208E+02 0.  0.
        -13    1    3    3    0    0  0.23621927066E+01 -0.22520537469E+02  0.17835361546E+02  0.28824550018E+02  0.00000000000E+00 0. -1.
         13    1    3    3    0    0 -0.66406442571E+02  0.62372115209E+02  0.18667087508E+01  0.91123986810E+02  0.00000000000E+00 0.  1.
        -13    1    4    4    0    0  0.75154834920E+02 -0.39702644356E+02  0.90683479484E+02  0.12429015501E+03  0.00000000000E+00 0.  1.
         13    1    4    4    0    0 -0.19666910423E+02 -0.48784208823E+02  0.76826844237E+02  0.93107735401E+02  0.00000000000E+00 0. -1.
         21    1    1    2  502  501  0.85563253666E+01  0.48635275439E+02 -0.96948912886E+01  0.50324861032E+02  0.00000000000E+00 0.  1.
<scales pt_clust_5="13000.00000" pt_clust_6="13000.00000" pt_clust_7="13000.00000" pt_clust_8="13000.00000" pt_clust_9="49.38219"></scales>
<clustering>
<clus scale="   49.382">  2  9  1 -1</clus>
<clus scale="   91.068">  7  8 -1 -1</clus>
<clus scale="   91.157">  5  6 -1 -1</clus>
<clus scale="  130.103">  1  7  2 -1</clus>
<clus scale="  130.103">  1  5  2 -1</clus>
</clustering>
</event>
<event>
 9    1  0.1748361E-005  0.1064094E+03  0.7546771E-02  0.1268113E+00
          1   -1    0    0  502    0  0.00000000000E+00  0.00000000000E+00  0.14865854408E+03  0.14865854408E+03  0.00000000000E+00 0. -1.
         -1   -1    0    0    0  501 -0.00000000000E+00 -0.00000000000E+00 -0.34408549190E+03  0.34408549190E+03  0.00000000000E+00 0.  1.
         23    2    1    2    0    0  0.93815680034E+01 -0.36652196502E+02 -0.11580703602E+03  0.15103949255E+03  0.89276320446E+02 0.  0.
         23    2    1    2    0    0 -0.58737846041E+02  0.16961514081E+02  0.10363460239E+03  0.15090102636E+03  0.91066796516E+02 0.  0.
        -11    1    4    4    0    0 -0.34349810358E+02  0.10392376033E+02 -0.77280145815E+01  0.36710123407E+02  0.00000000000E+00 0. -1.
         11    1    4    4    0    0 -0.24388035683E+02  0.65691380483E+01  0.11136261697E+03  0.11419090296E+03  0.00000000000E+00 0.  1.
        -13    1    3    3    0    0  0.26892051894E+02 -0.61173355041E+02 -0.80673425074E+02  0.10475477715E+03  0.00000000000E+00 0.  1.
         13    1    3    3    0    0 -0.17510483890E+02  0.24521158539E+02 -0.35133610945E+02  0.46284715405E+02  0.00000000000E+00 0. -1.
         21    1    1    2  502  501  0.49356278037E+02  0.19690682421E+02 -0.18325451419E+03  0.19080351707E+03  0.00000000000E+00 0.  1.
<scales pt_clust_5="13000.00000" pt_clust_6="13000.00000" pt_clust_7="13000.00000" pt_clust_8="13000.00000" pt_clust_9="53.13911"></scales>
<clustering>
<clus scale="   53.139">  2  9  1 -1</clus>
<clus scale="   89.276">  7  8 -1 -1</clus>
<clus scale="   91.067">  5  6 -1 -1</clus>
<clus scale="  104.881">  2  7  1 -1</clus>
<clus scale="  106.409">  1  5  2 -1</clus>
</clustering>
</event>
<event>
 9    1  0.1748361E-005  0.9323198E+02  0.7546771E-02  0.1296728E+00
         -1   -1    0    0    0  501 -0.00000000000E+00  0.00000000000E+00  0.71261187617E+02  0.71261187617E+02  0.00000000000E+00 0.  1.
          1   -1    0    0  502    0  0.00000000000E+00 -0.00000000000E+00 -0.23067908270E+03  0.23067908270E+03  0.00000000000E+00 0. -1.
         23    2    1    2    0    0  0.11944925156E+02  0.35826980765E+01 -0.41374249835E+02  0.10066529237E+03  0.90918400643E+02 0.  0.
         23    2    1    2    0    0 -0.86441016062E+01 -0.24970156659E+02 -0.14182480722E+03  0.16912124589E+03  0.88258091149E+02 0.  0.
        -13    1    4    4    0    0  0.92551694921E+01 -0.44527833443E+02 -0.30685109061E+02  0.54863120870E+02  0.00000000000E+00 0. -1.
         13    1    4    4    0    0 -0.17899271098E+02  0.19557676784E+02 -0.11113969816E+03  0.11425812502E+03  0.00000000000E+00 0.  1.
        -13    1    3    3    0    0  0.34218773755E+02 -0.27733300755E+02 -0.43855411397E+02  0.62155913290E+02  0.00000000000E+00 0.  1.
         13    1    3    3    0    0 -0.22273848599E+02  0.31315998832E+02  0.24811615615E+01  0.38509379078E+02  0.00000000000E+00 0. -1.
         21    1    1    2  502  501 -0.33008235498E+01  0.21387458583E+02  0.23781161969E+02  0.32153732059E+02  0.00000000000E+00 0.  1.
<scales pt_clust_5="13000.00000" pt_clust_6="13000.00000" pt_clust_7="13000.00000" pt_clust_8="13000.00000" pt_clust_9="21.64068"></scales>
<clustering>
<clus scale="   21.641">  1  9  2 -1</clus>
<clus scale="   88.258">  5  6 -1 -1</clus>
<clus scale="   90.640">  2  5  1 -1</clus>
<clus scale="   90.918">  7  8 -1 -1</clus>
<clus scale="   90.640">  2  5  1 -1</clus>
</clustering>
</event>
<event>
 9    1  0.1748361E-005  0.9633974E+02  0.7546771E-02  0.1291755E+00
          1   -1    0    0  502    0  0.00000000000E+00  0.00000000000E+00  0.27654210898E+03  0.27654210898E+03  0.00000000000E+00 0. -1.
         -1   -1    0    0    0  501 -0.00000000000E+00 -0.00000000000E+00 -0.22274967661E+03  0.22274967661E+03  0.00000000000E+00 0.  1.
         23    2    1    2    0    0 -0.88152964073E+01 -0.17721842034E+02 -0.16932926323E+03  0.19104604473E+03  0.86223075140E+02 0.  0.
         23    2    1    2    0    0 -0.13477239219E+02  0.23311252576E+02  0.25285872159E+03  0.27066264134E+03  0.92712900176E+02 0.  0.
        -11    1    4    4    0    0 -0.29440427853E+02  0.43539529410E+02  0.23090260450E+03  0.23680887268E+03  0.00000000000E+00 0. -1.
         11    1    4    4    0    0  0.15963188634E+02 -0.20228276834E+02  0.21956117092E+02  0.33853768665E+02  0.00000000000E+00 0.  1.
        -11    1    3    3    0    0  0.19560258101E+02 -0.33375236692E+02 -0.14620125753E+03  0.15123266123E+03  0.00000000000E+00 0.  1.
         11    1    3    3    0    0 -0.28375554508E+02  0.15653394658E+02 -0.23128005703E+02  0.39813383500E+02  0.00000000000E+00 0. -1.
         21    1    1    2  502  501  0.22292535626E+02 -0.55894105415E+01 -0.29737025990E+02  0.37583099521E+02  0.00000000000E+00 0.  1.
<scales pt_clust_5="13000.00000" pt_clust_6="13000.00000" pt_clust_7="13000.00000" pt_clust_8="13000.00000" pt_clust_9="22.98257"></scales>
<clustering>
<clus scale="   22.983">  2  9  1 -1</clus>
<clus scale="   86.223">  7  8 -1 -1</clus>
<clus scale="   90.112">  2  7  1 -1</clus>
<clus scale="   92.713">  5  6 -1 -1</clus>
<clus scale="   96.340">  1  5  2 -1</clus>
</clustering>
</event>
<event>
 9    1  0.1748361E-005  0.9775988E+02  0.7546771E-02  0.1288398E+00
          3   -1    0    0  502    0  0.00000000000E+00  0.00000000000E+00  0.54661393132E+02  0.54661393132E+02  0.00000000000E+00 0. -1.
         -3   -1    0    0    0  501 -0.00000000000E+00 -0.00000000000E+00 -0.25112205620E+03  0.25112205620E+03  0.00000000000E+00 0.  1.
         23    2    1    2    0    0  0.25891362659E+02 -0.35030191239E+02 -0.13385323212E+03  0.16360900486E+03  0.83389098596E+02 0.  0.
         23    2    1    2    0    0 -0.33895536532E+02  0.60829103841E+01 -0.38480286627E+02  0.10365002414E+03  0.89870383611E+02 0.  0.
        -13    1    4    4    0    0 -0.45371562184E+02 -0.25285908494E+02 -0.46033105571E+02  0.69404629758E+02  0.00000000000E+00 0.  1.
         13    1    4    4    0    0  0.11476025651E+02  0.31368818878E+02  0.75528189446E+01  0.34245394385E+02  0.00000000000E+00 0. -1.
        -13    1    3    3    0    0 -0.11270444028E+02  0.22577940909E+02 -0.30489391421E+02  0.39577636533E+02  0.00000000000E+00 0.  1.
         13    1    3    3    0    0  0.37161806688E+02 -0.57608132148E+02 -0.10336384070E+03  0.12403136833E+03  0.00000000000E+00 0. -1.
         21    1    1    2  502  501  0.80041738729E+01  0.28947280855E+02 -0.24127144317E+02  0.38524420323E+02  0.00000000000E+00 0. -1.
<scales pt_clust_5="13000.00000" pt_clust_6="13000.00000" pt_clust_7="13000.00000" pt_clust_8="13000.00000" pt_clust_9="30.03351"></scales>
<clustering>
<clus scale="   30.034">  1  9  2 -1</clus>
<clus scale="   83.389">  7  8 -1 -1</clus>
<clus scale="   89.870">  5  6 -1 -1</clus>
<clus scale="   91.837">  2  7  1 -1</clus>
<clus scale="   30.034">  1  5  2 -1</clus>
</clustering>
</event>
<event>
 9    1  0.1748361E-005  0.1022960E+03  0.7546771E-02  0.1276352E+00
         -1   -1    0    0    0  501 -0.00000000000E+00  0.00000000000E+00  0.14119163851E+03  0.14119163851E+03  0.00000000000E+00 0.  1.
          1   -1    0    0  502    0  0.00000000000E+00 -0.00000000000E+00 -0.18827581921E+03  0.18827581921E+03  0.00000000000E+00 0. -1.
         23    2    1    2    0    0 -0.20373420189E+02 -0.43860898362E+01  0.59729856596E+02  0.11326852676E+03  0.93956316185E+02 0.  0.
         23    2    1    2    0    0  0.42000202897E+02  0.13883227233E+02 -0.14127380036E+03  0.17442108252E+03  0.92237011653E+02 0.  0.
        -11    1    3    3    0    0  0.17395147809E+02  0.19542340771E+02 -0.11969598716E+02  0.28770914888E+02  0.00000000000E+00 0. -1.
         11    1    3    3    0    0 -0.37768567998E+02 -0.23928430607E+02  0.71699455311E+02  0.84497611871E+02  0.00000000000E+00 0.  1.
        -13    1    4    4    0    0 -0.10084534476E+02 -0.29691494255E+02 -0.26467860961E+02  0.41034501709E+02  0.00000000000E+00 0.  1.
         13    1    4    4    0    0  0.52084737372E+02  0.43574721488E+02 -0.11480593940E+03  0.13338658081E+03  0.00000000000E+00 0. -1.
         21    1    1    2  502  501 -0.21626782708E+02 -0.94971373970E+01  0.34459763064E+02  0.41777848430E+02  0.00000000000E+00 0.  1.
<scales pt_clust_5="13000.00000" pt_clust_6="13000.00000" pt_clust_7="13000.00000" pt_clust_8="13000.00000" pt_clust_9="23.62019"></scales>
<clustering>
<clus scale="   23.620">  1  9  2 -1</clus>
<clus scale="   92.237">  7  8 -1 -1</clus>
<clus scale="   93.956">  5  6 -1 -1</clus>
<clus scale="  100.719">  2  7  1 -1</clus>
<clus scale="  100.719">  2  5  1 -1</clus>
</clustering>
</event>
<event>
 9    1  0.1748361E-005  0.3214273E+03  0.7546771E-02  0.1101606E+00
         -2   -1    0    0    0  501 -0.00000000000E+00  0.00000000000E+00  0.88311843523E+02  0.88311843523E+02  0.00000000000E+00 0.  1.
          2   -1    0    0  502    0  0.00000000000E+00 -0.00000000000E+00 -0.18539423179E+04  0.18539423179E+04  0.00000000000E+00 0. -1.
         23    2    1    2    0    0  0.35638255150E+03  0.54643451317E+02 -0.58226838585E+03  0.69087523220E+03  0.90981775761E+02 0.  0.
         23    2    1    2    0    0 -0.12702382880E+03  0.24530566411E+02 -0.36991999601E+03  0.40251970259E+03  0.91893991948E+02 0.  0.
        -11    1    4    4    0    0 -0.60945111477E+02  0.36993578997E+02 -0.28719726950E+03  0.29591401303E+03  0.00000000000E+00 0. -1.
         11    1    4    4    0    0 -0.66078717322E+02 -0.12463012586E+02 -0.82722726510E+02  0.10660568956E+03  0.00000000000E+00 0.  1.
        -13    1    3    3    0    0  0.23056217055E+03  0.54491136674E+02 -0.44852549582E+03  0.50725074556E+03  0.00000000000E+00 0. -1.
         13    1    3    3    0    0  0.12582038095E+03  0.15231464340E+00 -0.13374289003E+03  0.18362448664E+03  0.00000000000E+00 0.  1.
         21    1    1    2  502  501 -0.22935872270E+03 -0.79174017728E+02 -0.81344209256E+03  0.84885922668E+03  0.00000000000E+00 0.  1.
<scales pt_clust_5="13000.00000" pt_clust_6="13000.00000" pt_clust_7="13000.00000" pt_clust_8="13000.00000" pt_clust_9="308.28204"></scales>
<clustering>
<clus scale="   90.982">  7  8 -1 -1</clus>
<clus scale="   91.894">  5  6 -1 -1</clus>
<clus scale="  158.686">  2  5  1 -1</clus>
<clus scale="  308.282">  2  9  1 -1</clus>
<clus scale="  158.686">  2  5  1 -1</clus>
</clustering>
</event>
<event>
 9    1  0.1748361E-005  0.1166749E+03  0.7546771E-02  0.1250893E+00
         -1   -1    0    0    0  501 -0.00000000000E+00  0.00000000000E+00  0.68319843482E+02  0.68319843482E+02  0.00000000000E+00 0.  1.
          1   -1    0    0  502    0  0.00000000000E+00 -0.00000000000E+00 -0.38826807341E+03  0.38826807341E+03  0.00000000000E+00 0. -1.
         23    2    1    2    0    0  0.28419393524E+02 -0.59327928078E+02 -0.32946381172E+02  0.11312995943E+03  0.85938691583E+02 0.  0.
         23    2    1    2    0    0 -0.53762836006E+02  0.50616332563E+02 -0.29302296571E+03  0.31599096231E+03  0.92387088777E+02 0.  0.
        -13    1    4    4    0    0 -0.33081608561E+02 -0.15898020139E+02 -0.17616677892E+03  0.17994964258E+03  0.00000000000E+00 0. -1.
         13    1    4    4    0    0 -0.20681227445E+02  0.66514352702E+02 -0.11685618679E+03  0.13604131974E+03  0.00000000000E+00 0.  1.
        -13    1    3    3    0    0 -0.25841159943E+02 -0.50055010134E+00  0.17432763578E+01  0.25904731423E+02  0.00000000000E+00 0.  1.
         13    1    3    3    0    0  0.54260553468E+02 -0.58827377976E+02 -0.34689657530E+02  0.87225228012E+02  0.00000000000E+00 0. -1.
         21    1    1    2  502  501  0.25343442482E+02  0.87115955143E+01  0.60211169476E+01  0.27466995149E+02  0.00000000000E+00 0.  1.
<scales pt_clust_5="13000.00000" pt_clust_6="13000.00000" pt_clust_7="13000.00000" pt_clust_8="13000.00000" pt_clust_9="26.79892"></scales>
<clustering>
<clus scale="   26.799">  1  9  2 -1</clus>
<clus scale="   85.939">  7  8 -1 -1</clus>
<clus scale="   92.387">  5  6 -1 -1</clus>
<clus scale="  111.638">  1  7  2 -1</clus>
<clus scale="  116.675">  2  5  1 -1</clus>
</clustering>
</event>
<event>
 9    1  0.1748361E-005  0.9718628E+02  0.7546771E-02  0.1286862E+00
          3   -1    0    0  502    0  0.00000000000E+00  0.00000000000E+00  0.24851119396E+03  0.24851119396E+03  0.00000000000E+00 0. -1.
         -3   -1    0    0    0  501 -0.00000000000E+00 -0.00000000000E+00 -0.31041925438E+03  0.31041925438E+03  0.00000000000E+00 0.  1.
         23    2    1    2    0    0  0.17229310479E+01  0.24619328137E+02 -0.18108456881E+03  0.20397903487E+03  0.90591091164E+02 0.  0.
         23    2    1    2    0    0 -0.27498819497E+02  0.21466573713E+02  0.22015554730E+03  0.24099934865E+03  0.91625445064E+02 0.  0.
        -13    1    3    3    0    0  0.17501535745E+02  0.54513454868E+02 -0.88385216994E+02  0.10530891272E+03  0.00000000000E+00 0. -1.
         13    1    3    3    0    0 -0.15778604697E+02 -0.29894126731E+02 -0.92699351812E+02  0.98670122153E+02  0.00000000000E+00 0.  1.
        -13    1    4    4    0    0 -0.42325629113E+02 -0.20088522727E+02  0.68009678043E+02  0.82585252513E+02  0.00000000000E+00 0. -1.
         13    1    4    4    0    0  0.14826809617E+02  0.41555096440E+02  0.15214586926E+03  0.15841409614E+03  0.00000000000E+00 0.  1.
         21    1    1    2  502  501  0.25775888449E+02 -0.46085901850E+02 -0.10097903891E+03  0.11395206481E+03  0.00000000000E+00 0.  1.
<scales pt_clust_5="13000.00000" pt_clust_6="13000.00000" pt_clust_7="13000.00000" pt_clust_8="13000.00000" pt_clust_9="52.80442"></scales>
<clustering>
<clus scale="   52.804">  2  9  1 -1</clus>
<clus scale="   90.591">  5  6 -1 -1</clus>
<clus scale="   91.625">  7  8 -1 -1</clus>
<clus scale="   96.212">  2  5  1 -1</clus>
<clus scale="   97.186">  1  5  2 -1</clus>
</clustering>
</event>
<event>
 9    1  0.1748361E-005  0.1128462E+03  0.7546771E-02  0.1256052E+00
         -2   -1    0    0    0  501 -0.00000000000E+00  0.00000000000E+00  0.11863383976E+03  0.11863383976E+03  0.00000000000E+00 0.  1.
          2   -1    0    0  502    0  0.00000000000E+00 -0.00000000000E+00 -0.30472009360E+03  0.30472009360E+03  0.00000000000E+00 0. -1.
         23    2    1    2    0    0 -0.95269832199E+02  0.41319983324E+01 -0.19248646838E+02  0.13398455161E+03  0.92129991467E+02 0.  0.
         23    2    1    2    0    0  0.54875531976E+02 -0.91730061703E+00 -0.20604050389E+03  0.23298763917E+03  0.93906258109E+02 0.  0.
        -11    1    4    4    0    0 -0.17176474562E+02  0.26577618120E+02 -0.60813689914E+02  0.68554401349E+02  0.00000000000E+00 0. -1.
         11    1    4    4    0    0  0.72052006537E+02 -0.27494918737E+02 -0.14522681398E+03  0.16443323782E+03  0.00000000000E+00 0.  1.
        -11    1    3    3    0    0 -0.40581365613E+02  0.25771676996E+02  0.30516648283E+02  0.56941130939E+02  0.00000000000E+00 0.  1.
         11    1    3    3    0    0 -0.54688466587E+02 -0.21639678663E+02 -0.49765295121E+02  0.77043420672E+02  0.00000000000E+00 0. -1.
         21    1    1    2  502  501  0.40394300224E+02 -0.32146977154E+01  0.39202896883E+02  0.56381742577E+02  0.00000000000E+00 0.  1.
<scales pt_clust_5="13000.00000" pt_clust_6="13000.00000" pt_clust_7="13000.00000" pt_clust_8="13000.00000" pt_clust_9="40.52202"></scales>
<clustering>
<clus scale="   40.522">  1  9  2 -1</clus>
<clus scale="   92.130">  7  8 -1 -1</clus>
<clus scale="   93.906">  5  6 -1 -1</clus>
<clus scale="  111.372">  1  7  2 -1</clus>
<clus scale="  112.846">  2  5  1 -1</clus>
</clustering>
</event>
<event>
 9    1  0.1748361E-005  0.1673551E+03  0.7546771E-02  0.1180753E+00
          1   -1    0    0  502    0  0.00000000000E+00  0.00000000000E+00  0.25931818862E+03  0.25931818862E+03  0.00000000000E+00 0. -1.
         -1   -1    0    0    0  501 -0.00000000000E+00 -0.00000000000E+00 -0.39909149365E+03  0.39909149365E+03  0.00000000000E+00 0.  1.
         23    2    1    2    0    0  0.19192752636E+03  0.27565191585E+02 -0.73629789948E+02  0.22642708699E+03  0.90839774284E+02 0.  0.
         23    2    1    2    0    0 -0.12685999815E+03 -0.13584262698E+02  0.14304520216E+03  0.21246227955E+03  0.91653145324E+02 0.  0.
        -11    1    3    3    0    0  0.12643870836E+03  0.40972927050E+02 -0.86356903075E+01  0.13319197750E+03  0.00000000000E+00 0. -1.
         11    1    3    3    0    0  0.65488817999E+02 -0.13407735465E+02 -0.64994099641E+02  0.93235109488E+02  0.00000000000E+00 0.  1.
        -13    1    4    4    0    0 -0.32102748547E+02 -0.29662066246E+02  0.46333363564E+01  0.43953298443E+02  0.00000000000E+00 0.  1.
         13    1    4    4    0    0 -0.94757249605E+02  0.16077803548E+02  0.13841186580E+03  0.16850898111E+03  0.00000000000E+00 0. -1.
         21    1    1    2  502  501 -0.65067528208E+02 -0.13980928887E+02 -0.20918871724E+03  0.21952031573E+03  0.00000000000E+00 0.  1.
<scales pt_clust_5="13000.00000" pt_clust_6="13000.00000" pt_clust_7="13000.00000" pt_clust_8="13000.00000" pt_clust_9="66.55261"></scales>
<clustering>
<clus scale="   66.553">  2  9  1 -1</clus>
<clus scale="   90.840">  5  6 -1 -1</clus>
<clus scale="   91.653">  7  8 -1 -1</clus>
<clus scale="  166.911">  2  5  1 -1</clus>
<clus scale="  167.355">  1  5  2 -1</clus>
</clustering>
</event>
<event>
 9    1  0.1748361E-005  0.1765158E+03  0.7546771E-02  0.1171643E+00
         -1   -1    0    0    0  501 -0.00000000000E+00  0.00000000000E+00  0.20047223616E+03  0.20047223616E+03  0.00000000000E+00 0.  1.
          1   -1    0    0  502    0  0.00000000000E+00 -0.00000000000E+00 -0.46201739183E+03  0.46201739183E+03  0.00000000000E+00 0. -1.
         23    2    1    2    0    0 -0.15537791014E+02  0.90201058624E+02  0.43112030459E+01  0.13008300182E+03  0.92332805456E+02 0.  0.
         23    2    1    2    0    0 -0.28697359275E+02 -0.16913630922E+03 -0.35481204353E+03  0.40551834394E+03  0.95513933584E+02 0.  0.
        -11    1    3    3    0    0  0.27728228107E+02  0.20420988012E+02  0.28269803315E+02  0.44553935458E+02  0.00000000000E+00 0. -1.
         11    1    3    3    0    0 -0.43266019122E+02  0.69780070611E+02 -0.23958600269E+02  0.85529066358E+02  0.00000000000E+00 0.  1.
        -13    1    4    4    0    0  0.20232016111E+02 -0.19896275768E+02 -0.17248863349E+02  0.33207221386E+02  0.00000000000E+00 0.  1.
         13    1    4    4    0    0 -0.48929375386E+02 -0.14924003345E+03 -0.33756318019E+03  0.37231112255E+03  0.00000000000E+00 0. -1.
         21    1    1    2  502  501  0.44235150289E+02  0.78935250593E+02  0.88955684821E+02  0.12688828224E+03  0.00000000000E+00 0.  1.
<scales pt_clust_5="13000.00000" pt_clust_6="13000.00000" pt_clust_7="13000.00000" pt_clust_8="13000.00000" pt_clust_9="90.48493"></scales>
<clustering>
<clus scale="   90.485">  1  9  2 -1</clus>
<clus scale="   92.333">  5  6 -1 -1</clus>
<clus scale="   95.514">  7  8 -1 -1</clus>
<clus scale="  174.815">  1  5  2 -1</clus>
<clus scale="  176.516">  2  5  1 -1</clus>
</clustering>
</event>
<event>
 9    1  0.1748361E-005  0.1025820E+03  0.7546771E-02  0.1275261E+00
          1   -1    0    0  502    0  0.00000000000E+00  0.00000000000E+00  0.10594598460E+03  0.10594598460E+03  0.00000000000E+00 0. -1.
         -1   -1    0    0    0  501 -0.00000000000E+00 -0.00000000000E+00 -0.14977599460E+03  0.14977599460E+03  0.00000000000E+00 0.  1.
         23    2    1    2    0    0 -0.52269528805E+02  0.20200689780E+01 -0.48098759815E+02  0.11466980218E+03  0.89997158373E+02 0.  0.
         23    2    1    2    0    0  0.41491993048E+02 -0.23732032893E+02  0.28899943497E+02  0.10649410479E+03  0.90669690348E+02 0.  0.
        -13    1    4    4    0    0  0.26726008546E+02  0.32151787308E+02 -0.13556608573E+00  0.41809512531E+02  0.00000000000E+00 0. -1.
         13    1    4    4    0    0  0.14765984502E+02 -0.55883820201E+02  0.29035509582E+02  0.64684592256E+02  0.00000000000E+00 0.  1.
        -13    1    3    3    0    0 -0.39767270033E+02  0.36943600594E+02 -0.44577916551E+00  0.54281342188E+02  0.00000000000E+00 0. -1.
         13    1    3    3    0    0 -0.12502258773E+02 -0.34923531616E+02 -0.47652980650E+02  0.60388459988E+02  0.00000000000E+00 0.  1.
         21    1    1    2  502  501  0.10777535757E+02  0.21711963915E+02 -0.24631193690E+02  0.34558072235E+02  0.00000000000E+00 0.  1.
<scales pt_clust_5="13000.00000" pt_clust_6="13000.00000" pt_clust_7="13000.00000" pt_clust_8="13000.00000" pt_clust_9="24.23973"></scales>
<clustering>
<clus scale="   24.240">  2  9  1 -1</clus>
<clus scale="   89.997">  7  8 -1 -1</clus>
<clus scale="   90.670">  5  6 -1 -1</clus>
<clus scale="  101.988">  2  7  1 -1</clus>
<clus scale="  102.582">  1  5  2 -1</clus>
</clustering>
</event>
<event>
 9    1  0.1748361E-005  0.9295891E+02  0.7546771E-02  0.1296830E+00
          4   -1    0    0  502    0  0.00000000000E+00  0.00000000000E+00  0.20156244101E+03  0.20156244101E+03  0.00000000000E+00 0. -1.
         -4   -1    0    0    0  501 -0.00000000000E+00 -0.00000000000E+00 -0.88578122153E+02  0.88578122153E+02  0.00000000000E+00 0.  1.
         23    2    1    2    0    0  0.12725273554E+01  0.12057264934E+02  0.21015645047E+02  0.95639427548E+02  0.92510787487E+02 0.  0.
         23    2    1    2    0    0 -0.11964769535E+02  0.77775018777E+01  0.12460320786E+03  0.15484316252E+03  0.90811895290E+02 0.  0.
        -11    1    4    4    0    0 -0.77222494501E+01 -0.39857133202E+02  0.36482975640E+02  0.54582338858E+02  0.00000000000E+00 0.  1.
         11    1    4    4    0    0 -0.42425200846E+01  0.47634635080E+02  0.88120232217E+02  0.10026082366E+03  0.00000000000E+00 0. -1.
        -11    1    3    3    0    0  0.31060050856E+02  0.95190032143E+01 -0.24843303542E+02  0.40896551349E+02  0.00000000000E+00 0.  1.
         11    1    3    3    0    0 -0.29787523501E+02  0.25382617192E+01  0.45858948589E+02  0.54742876199E+02  0.00000000000E+00 0. -1.
         21    1    1    2  502  501  0.10692242179E+02 -0.19834766811E+02 -0.32634534048E+02  0.39657973092E+02  0.00000000000E+00 0.  1.
<scales pt_clust_5="13000.00000" pt_clust_6="13000.00000" pt_clust_7="13000.00000" pt_clust_8="13000.00000" pt_clust_9="22.53313"></scales>
<clustering>
<clus scale="   22.533">  2  9  1 -1</clus>
<clus scale="   90.812">  5  6 -1 -1</clus>
<clus scale="   91.268">  1  5  2 -1</clus>
<clus scale="   92.511">  7  8 -1 -1</clus>
<clus scale="   91.268">  1  5  2 -1</clus>
</clustering>
</event>
<event>
 9    1  0.1748361E-005  0.1367643E+03  0.7546771E-02  0.1218034E+00
          3   -1    0    0  502    0  0.00000000000E+00  0.00000000000E+00  0.18378285033E+03  0.18378285033E+03  0.00000000000E+00 0. -1.
         -3   -1    0    0    0  501 -0.00000000000E+00 -0.00000000000E+00 -0.13203863995E+03  0.13203863995E+03  0.00000000000E+00 0.  1.
         23    2    1    2    0    0 -0.75429608729E+02  0.91087173311E+02  0.23073388677E+02  0.15001653556E+03  0.89364873761E+02 0.  0.
         23    2    1    2    0    0  0.45553760705E+02 -0.78590144151E+02  0.34605393133E+02  0.13288138913E+03  0.90600079863E+02 0.  0.
        -11    1    4    4    0    0  0.30896606698E+01 -0.46021046856E+02  0.58312666650E+02  0.74349511422E+02  0.00000000000E+00 0. -1.
         11    1    4    4    0    0  0.42464100035E+02 -0.32569097295E+02 -0.23707273517E+02  0.58531877708E+02  0.00000000000E+00 0.  1.
        -13    1    3    3    0    0 -0.55526190361E+02  0.10258576475E+03  0.37913941897E+02  0.12265587607E+03  0.00000000000E+00 0.  1.
         13    1    3    3    0    0 -0.19903418368E+02 -0.11498591438E+02 -0.14840553221E+02  0.27360659489E+02  0.00000000000E+00 0. -1.
         21    1    1    2  502  501  0.29875848024E+02 -0.12497029160E+02 -0.59345714231E+01  0.32923565587E+02  0.00000000000E+00 0.  1.
<scales pt_clust_5="13000.00000" pt_clust_6="13000.00000" pt_clust_7="13000.00000" pt_clust_8="13000.00000" pt_clust_9="32.38429"></scales>
<clustering>
<clus scale="   32.384">  2  9  1 -1</clus>
<clus scale="   89.365">  7  8 -1 -1</clus>
<clus scale="   90.600">  5  6 -1 -1</clus>
<clus scale="  135.949">  2  7  1 -1</clus>
<clus scale="  136.764">  1  5  2 -1</clus>
</clustering>
</event>
<event>
 9    1  0.1748361E-005  0.1125639E+03  0.7546771E-02  0.1256131E+00
          2   -1    0    0  502    0  0.00000000000E+00  0.00000000000E+00  0.10059856604E+04  0.10059856604E+04  0.00000000000E+00 0. -1.
         -2   -1    0    0    0  501 -0.00000000000E+00 -0.00000000000E+00 -0.33602750356E+02  0.33602750356E+02  0.00000000000E+00 0.  1.
         23    2    1    2    0    0 -0.13734794856E+00 -0.99659950042E+02  0.56752007371E+03  0.58284447990E+03  0.87729864862E+02 0.  0.
         23    2    1    2    0    0 -0.28401216993E+02  0.41892045704E+02  0.37005346500E+03  0.38350956190E+03  0.87054261740E+02 0.  0.
        -13    1    3    3    0    0  0.39671754757E+02 -0.41620387780E+02  0.17922117705E+03  0.18821884897E+03  0.00000000000E+00 0. -1.
         13    1    3    3    0    0 -0.39809102705E+02 -0.58039562262E+02  0.38829889666E+03  0.39462563094E+03  0.00000000000E+00 0.  1.
        -13    1    4    4    0    0  0.25325017200E+02  0.33174144823E+02  0.10632280521E+03  0.11422092316E+03  0.00000000000E+00 0.  1.
         13    1    4    4    0    0 -0.53726234192E+02  0.87179008810E+01  0.26373065979E+03  0.26928863874E+03  0.00000000000E+00 0. -1.
         21    1    1    2  502  501  0.28538564941E+02  0.57767904339E+02  0.34809371303E+02  0.73234368920E+02  0.00000000000E+00 0.  1.
<scales pt_clust_5="13000.00000" pt_clust_6="13000.00000" pt_clust_7="13000.00000" pt_clust_8="13000.00000" pt_clust_9="64.43276"></scales>
<clustering>
<clus scale="   64.433">  2  9  1 -1</clus>
<clus scale="   87.054">  7  8 -1 -1</clus>
<clus scale="   87.730">  5  6 -1 -1</clus>
<clus scale="  112.038">  1  7  2 -1</clus>
<clus scale="  112.038">  1  5  2 -1</clus>
</clustering>
</event>
<event>
 9    1  0.1748361E-005  0.1304292E+03  0.7546771E-02  0.1227412E+00
         -2   -1    0    0    0  501 -0.00000000000E+00  0.00000000000E+00  0.17822015904E+03  0.17822015904E+03  0.00000000000E+00 0.  1.
          2   -1    0    0  502    0  0.00000000000E+00 -0.00000000000E+00 -0.23353810444E+03  0.23353810444E+03  0.00000000000E+00 0. -1.
         23    2    1    2    0    0  0.10134708039E+03  0.65568384238E+02 -0.31191565730E+01  0.15168084948E+03  0.91798187590E+02 0.  0.
         23    2    1    2    0    0 -0.78078311935E+02 -0.21786545704E+02 -0.12226759696E+03  0.17424080849E+03  0.94019241163E+02 0.  0.
        -13    1    4    4    0    0 -0.98668676396E+02 -0.74193262269E+01 -0.10005461156E+03  0.14071772951E+03  0.00000000000E+00 0. -1.
         13    1    4    4    0    0  0.20590364461E+02 -0.14367219477E+02 -0.22212985399E+02  0.33523078982E+02  0.00000000000E+00 0.  1.
        -13    1    3    3    0    0  0.64556916272E+02  0.68644078942E+02  0.33183631277E+02  0.99903745661E+02  0.00000000000E+00 0.  1.
         13    1    3    3    0    0  0.36790164121E+02 -0.30756947045E+01 -0.36302787850E+02  0.51777103816E+02  0.00000000000E+00 0. -1.
         21    1    1    2  502  501 -0.23268768459E+02 -0.43781838534E+02  0.70068808142E+02  0.85836605509E+02  0.00000000000E+00 0.  1.
<scales pt_clust_5="13000.00000" pt_clust_6="13000.00000" pt_clust_7="13000.00000" pt_clust_8="13000.00000" pt_clust_9="49.58109"></scales>
<clustering>
<clus scale="   49.581">  1  9  2 -1</clus>
<clus scale="   91.798">  7  8 -1 -1</clus>
<clus scale="   94.019">  5  6 -1 -1</clus>
<clus scale="  128.837">  1  7  2 -1</clus>
<clus scale="  130.429">  2  5  1 -1</clus>
</clustering>
</event>
<event>
 9    1  0.1748361E-005  0.2049353E+03  0.7546771E-02  0.1145849E+00
         -1   -1    0    0    0  501 -0.00000000000E+00  0.00000000000E+00  0.46471483250E+02  0.46471483250E+02  0.00000000000E+00 0.  1.
          1   -1    0    0  502    0  0.00000000000E+00 -0.00000000000E+00 -0.10171369868E+04  0.10171369868E+04  0.00000000000E+00 0. -1.
         23    2    1    2    0    0  0.84562788998E+02  0.17492453863E+03 -0.46518451334E+03  0.51202099961E+03  0.89551175837E+02 0.  0.
         23    2    1    2    0    0 -0.68753266619E+02 -0.15985535872E+03 -0.47453339303E+03  0.51370904714E+03  0.91838426728E+02 0.  0.
        -11    1    3    3    0    0  0.99723106086E+02  0.12833779121E+03 -0.38716127555E+03  0.41989181919E+03  0.00000000000E+00 0. -1.
         11    1    3    3    0    0 -0.15160317088E+02  0.46586747416E+02 -0.78023237788E+02  0.92129180415E+02  0.00000000000E+00 0.  1.
        -13    1    4    4    0    0 -0.48639651638E+02 -0.12547721333E+03 -0.23431302148E+03  0.27020906501E+03  0.00000000000E+00 0.  1.
         13    1    4    4    0    0 -0.20113614981E+02 -0.34378145390E+02 -0.24022037155E+03  0.24349998213E+03  0.00000000000E+00 0. -1.
         21    1    1    2  502  501 -0.15809522379E+02 -0.15069179906E+02 -0.30947597182E+02  0.37878423307E+02  0.00000000000E+00 0. -1.
<scales pt_clust_5="13000.00000" pt_clust_6="13000.00000" pt_clust_7="13000.00000" pt_clust_8="13000.00000" pt_clust_9="21.84081"></scales>
<clustering>
<clus scale="   21.841">  1  9  2 -1</clus>
<clus scale="   89.551">  5  6 -1 -1</clus>
<clus scale="   91.838">  7  8 -1 -1</clus>
<clus scale="  203.921">  1  5  2 -1</clus>
<clus scale="  204.935">  2  5  1 -1</clus>
</clustering>
</event>
<event>
 9    1  0.1748361E-005  0.1104393E+03  0.7546771E-02  0.1260202E+00
         -2   -1    0    0    0  501 -0.00000000000E+00  0.00000000000E+00  0.44323961662E+03  0.44323961662E+03  0.00000000000E+00 0.  1.
          2   -1    0    0  502    0  0.00000000000E+00 -0.00000000000E+00 -0.82899619098E+02  0.82899619098E+02  0.00000000000E+00 0. -1.
         23    2    1    2    0    0  0.66573468391E+02 -0.33879366000E+02  0.59310732729E+02  0.13289608047E+03  0.92540623793E+02 0.  0.
         23    2    1    2    0    0 -0.28875891391E+02  0.46281249119E+02  0.18612398689E+02  0.10805164017E+03  0.91394553637E+02 0.  0.
        -11    1    4    4    0    0 -0.33621687261E+02 -0.18901151350E+02 -0.42714593070E+01  0.38806143087E+02  0.00000000000E+00 0. -1.
         11    1    4    4    0    0  0.47457958705E+01  0.65182400469E+02  0.22883857996E+02  0.69245497082E+02  0.00000000000E+00 0.  1.
        -13    1    3    3    0    0  0.25682209473E+02  0.21168457700E+02 -0.10638451966E+02  0.34940751924E+02  0.00000000000E+00 0. -1.
         13    1    3    3    0    0  0.40891258918E+02 -0.55047823700E+02  0.69949184695E+02  0.97955328541E+02  0.00000000000E+00 0.  1.
         21    1    1    2  502  501 -0.37697577000E+02 -0.12401883119E+02  0.28241686610E+03  0.28519151508E+03  0.00000000000E+00 0. -1.
<scales pt_clust_5="13000.00000" pt_clust_6="13000.00000" pt_clust_7="13000.00000" pt_clust_8="13000.00000" pt_clust_9="39.68519"></scales>
<clustering>
<clus scale="   39.685">  1  9  2 -1</clus>
<clus scale="   91.395">  5  6 -1 -1</clus>
<clus scale="   92.541">  7  8 -1 -1</clus>
<clus scale="  109.481">  2  5  1 -1</clus>
<clus scale="  109.481">  2  5  1 -1</clus>
</clustering>
</event>
<event>
 9    1  0.1748361E-005  0.9173624E+02  0.7546771E-02  0.1302194E+00
         -1   -1    0    0    0  501 -0.00000000000E+00  0.00000000000E+00  0.44209083606E+02  0.44209083606E+02  0.00000000000E+00 0.  1.
          1   -1    0    0  502    0  0.00000000000E+00 -0.00000000000E+00 -0.37430905715E+03  0.37430905715E+03  0.00000000000E+00 0. -1.
         23    2    1    2    0    0 -0.25073560936E+02  0.14192742136E+02 -0.13600765611E+03  0.16624553482E+03  0.91155789406E+02 0.  0.
         23    2    1    2    0    0 -0.44358506731E+01  0.21436508282E+02 -0.18527021828E+03  0.20517612738E+03  0.85398997681E+02 0.  0.
        -11    1    4    4    0    0  0.18805480878E+01  0.54462779149E+02 -0.11155572756E+03  0.12415478696E+03  0.00000000000E+00 0. -1.
         11    1    4    4    0    0 -0.63163987609E+01 -0.33026270866E+02 -0.73714490729E+02  0.81021340424E+02  0.00000000000E+00 0.  1.
        -11    1    3    3    0    0 -0.50623647236E+02  0.31276521059E+02 -0.61154224580E+02  0.85327683743E+02  0.00000000000E+00 0. -1.
         11    1    3    3    0    0  0.25550086301E+02 -0.17083778924E+02 -0.74853431526E+02  0.80917851080E+02  0.00000000000E+00 0.  1.
         21    1    1    2  502  501  0.29509411609E+02 -0.35629250418E+02 -0.88220991570E+01  0.47096478556E+02  0.00000000000E+00 0.  1.
<scales pt_clust_5="13000.00000" pt_clust_6="13000.00000" pt_clust_7="13000.00000" pt_clust_8="13000.00000" pt_clust_9="46.26282"></scales>
<clustering>
<clus scale="   46.263">  1  9  2 -1</clus>
<clus scale="   85.399">  5  6 -1 -1</clus>
<clus scale="   86.018">  2  5  1 -1</clus>
<clus scale="   91.156">  7  8 -1 -1</clus>
<clus scale="   86.018">  2  5  1 -1</clus>
</clustering>
</event>
<event>
 9    1  0.1748361E-005  0.1033799E+03  0.7546771E-02  0.1273753E+00
          2   -1    0    0  502    0  0.00000000000E+00  0.00000000000E+00  0.13430592569E+03  0.13430592569E+03  0.00000000000E+00 0. -1.
         -2   -1    0    0    0  501 -0.00000000000E+00 -0.00000000000E+00 -0.11483950238E+03  0.11483950238E+03  0.00000000000E+00 0.  1.
         23    2    1    2    0    0  0.33481973576E+02 -0.50189043428E+02 -0.75502902121E+01  0.10905383063E+03  0.90530373127E+02 0.  0.
         23    2    1    2    0    0 -0.13800688285E+02  0.39786737578E+02  0.46139080496E+02  0.11074494727E+03  0.91444984075E+02 0.  0.
        -11    1    4    4    0    0  0.16451016452E+02 -0.24560639921E+02  0.12808416923E+02  0.32216711808E+02  0.00000000000E+00 0.  1.
         11    1    4    4    0    0 -0.30251704737E+02  0.64347377499E+02  0.33330663573E+02  0.78528235462E+02  0.00000000000E+00 0. -1.
        -11    1    3    3    0    0 -0.16661802012E+02 -0.40515714512E+02  0.23067819347E+02  0.49510231853E+02  0.00000000000E+00 0.  1.
         11    1    3    3    0    0  0.50143775588E+02 -0.96733289158E+01 -0.30618109559E+02  0.59543598779E+02  0.00000000000E+00 0. -1.
         21    1    1    2  502  501 -0.19681285291E+02  0.10402305850E+02 -0.19122366975E+02  0.29346650173E+02  0.00000000000E+00 0. -1.
<scales pt_clust_5="13000.00000" pt_clust_6="13000.00000" pt_clust_7="13000.00000" pt_clust_8="13000.00000" pt_clust_9="22.26120"></scales>
<clustering>
<clus scale="   22.261">  2  9  1 -1</clus>
<clus scale="   90.530">  7  8 -1 -1</clus>
<clus scale="   91.445">  5  6 -1 -1</clus>
<clus scale="  102.572">  2  7  1 -1</clus>
<clus scale="  103.380">  1  5  2 -1</clus>
</clustering>
</event>
<event>
 9    1  0.1748361E-005  0.1222594E+03  0.7546771E-02  0.1240113E+00
         -2   -1    0    0    0  501 -0.00000000000E+00  0.00000000000E+00  0.52297069871E+02  0.52297069871E+02  0.00000000000E+00 0.  1.
          2   -1    0    0  502    0  0.00000000000E+00 -0.00000000000E+00 -0.52244943809E+03  0.52244943809E+03  0.00000000000E+00 0. -1.
         23    2    1    2    0    0 -0.36915812092E+02 -0.49161038010E+02 -0.68358376669E+02  0.12878197836E+03  0.90179517907E+02 0.  0.
         23    2    1    2    0    0  0.75659365690E+02  0.44283784367E+02 -0.38096183614E+03  0.40170586663E+03  0.92467775556E+02 0.  0.
        -11    1    3    3    0    0 -0.23815224993E+02 -0.69216498908E+02 -0.74089785300E+02  0.10415077987E+03  0.00000000000E+00 0. -1.
         11    1    3    3    0    0 -0.13100587099E+02  0.20055460899E+02  0.57314086306E+01  0.24631198490E+02  0.00000000000E+00 0.  1.
        -13    1    4    4    0    0  0.26090049743E+00  0.45208356129E+02 -0.21067404330E+03  0.21547022081E+03  0.00000000000E+00 0.  1.
         13    1    4    4    0    0  0.75398465193E+02 -0.92457176156E+00 -0.17028779284E+03  0.18623564583E+03  0.00000000000E+00 0. -1.
         21    1    1    2  502  501 -0.38743553598E+02  0.48772536427E+01 -0.20832155411E+02  0.44258662967E+02  0.00000000000E+00 0.  1.
<scales pt_clust_5="13000.00000" pt_clust_6="13000.00000" pt_clust_7="13000.00000" pt_clust_8="13000.00000" pt_clust_9="39.04933"></scales>
<clustering>
<clus scale="   39.049">  1  9  2 -1</clus>
<clus scale="   90.180">  5  6 -1 -1</clus>
<clus scale="   92.468">  7  8 -1 -1</clus>
<clus scale="  120.538">  1  5  2 -1</clus>
<clus scale="  122.259">  2  5  1 -1</clus>
</clustering>
</event>
<event>
 9    1  0.1748361E-005  0.9703322E+02  0.7546771E-02  0.1291221E+00
          1   -1    0    0  502    0  0.00000000000E+00  0.00000000000E+00  0.18664786656E+03  0.18664786656E+03  0.00000000000E+00 0. -1.
         -1   -1    0    0    0  501 -0.00000000000E+00 -0.00000000000E+00 -0.71370774360E+02  0.71370774360E+02  0.00000000000E+00 0.  1.
         23    2    1    2    0    0  0.46847055250E+01  0.22702600612E+02  0.22952043234E+02  0.95731143437E+02  0.90001672178E+02 0.  0.
         23    2    1    2    0    0  0.86733512328E+00 -0.42744372591E+02  0.10371222046E+03  0.13857746892E+03  0.81361271876E+02 0.  0.
        -13    1    4    4    0    0 -0.29482774937E+02 -0.25888871120E+02  0.12814403134E+02  0.41275617421E+02  0.00000000000E+00 0.  1.
         13    1    4    4    0    0  0.30350110060E+02 -0.16855501471E+02  0.90897817330E+02  0.97301851503E+02  0.00000000000E+00 0. -1.
        -13    1    3    3    0    0  0.41045941265E+02  0.61555716091E+01  0.34690114409E+02  0.54093108562E+02  0.00000000000E+00 0. -1.
         13    1    3    3    0    0 -0.36361235740E+02  0.16547029003E+02 -0.11738071175E+02  0.41638034875E+02  0.00000000000E+00 0.  1.
         21    1    1    2  502  501 -0.55520406482E+01  0.20041771979E+02 -0.11387171500E+02  0.23710028557E+02  0.00000000000E+00 0.  1.
<scales pt_clust_5="13000.00000" pt_clust_6="13000.00000" pt_clust_7="13000.00000" pt_clust_8="13000.00000" pt_clust_9="20.79658"></scales>
<clustering>
<clus scale="   20.797">  2  9  1 -1</clus>
<clus scale="   81.361">  5  6 -1 -1</clus>
<clus scale="   89.078">  1  5  2 -1</clus>
<clus scale="   90.002">  7  8 -1 -1</clus>
<clus scale="   89.078">  1  5  2 -1</clus>
</clustering>
</event>
<event>
 9    1  0.1748361E-005  0.1244397E+03  0.7546771E-02  0.1237866E+00
         -1   -1    0    0    0  501 -0.00000000000E+00  0.00000000000E+00  0.48753668686E+02  0.48753668686E+02  0.00000000000E+00 0.  1.
          1   -1    0    0  502    0  0.00000000000E+00 -0.00000000000E+00 -0.70374116881E+03  0.70374116881E+03  0.00000000000E+00 0. -1.
         23    2    1    2    0    0 -0.98799944477E+01  0.79665857187E+02 -0.29573197682E+03  0.31970593145E+03  0.91160393801E+02 0.  0.
         23    2    1    2    0    0 -0.13014134854E+02 -0.88711314430E+02 -0.38069894201E+03  0.40014259448E+03  0.84518320254E+02 0.  0.
        -11    1    3    3    0    0 -0.10684297163E+02  0.45791021573E+02 -0.27705159994E+03  0.28101345323E+03  0.00000000000E+00 0. -1.
         11    1    3    3    0    0  0.80430271521E+00  0.33874835614E+02 -0.18680376874E+02  0.38692478221E+02  0.00000000000E+00 0.  1.
        -13    1    4    4    0    0 -0.46251860302E+02 -0.42552176373E+02 -0.15209727574E+03  0.16457066441E+03  0.00000000000E+00 0. -1.
         13    1    4    4    0    0  0.33237725448E+02 -0.46159138057E+02 -0.22860166627E+03  0.23557193007E+03  0.00000000000E+00 0.  1.
         21    1    1    2  502  501  0.22894129301E+02  0.90454572437E+01  0.21443418703E+02  0.32646311566E+02  0.00000000000E+00 0.  1.
<scales pt_clust_5="13000.00000" pt_clust_6="13000.00000" pt_clust_7="13000.00000" pt_clust_8="13000.00000" pt_clust_9="24.61628"></scales>
<clustering>
<clus scale="   24.616">  1  9  2 -1</clus>
<clus scale="   84.518">  7  8 -1 -1</clus>
<clus scale="   91.160">  5  6 -1 -1</clus>
<clus scale="  119.659">  2  7  1 -1</clus>
<clus scale="  119.659">  2  5  1 -1</clus>
</clustering>
</event>
<event>
 9    1  0.1748361E-005  0.1444548E+03  0.7546771E-02  0.1207601E+00
         -4   -1    0    0    0  501 -0.00000000000E+00  0.00000000000E+00  0.54981096177E+02  0.54981096177E+02  0.00000000000E+00 0.  1.
          4   -1    0    0  502    0  0.00000000000E+00 -0.00000000000E+00 -0.59398238898E+03  0.59398238898E+03  0.00000000000E+00 0. -1.
         23    2    1    2    0    0 -0.48858022235E+02 -0.85116951248E+02 -0.21751345096E+03  0.25611926088E+03  0.93021356248E+02 0.  0.
         23    2    1    2    0    0  0.96510013541E+02  0.79461382164E+02 -0.30395093695E+03  0.34175370881E+03  0.93707691500E+02 0.  0.
        -11    1    3    3    0    0 -0.27124264320E+02  0.15901117071E+02 -0.59980268948E+02  0.67721517276E+02  0.00000000000E+00 0. -1.
         11    1    3    3    0    0 -0.21733757915E+02 -0.10101806832E+03 -0.15753318201E+03  0.18839774361E+03  0.00000000000E+00 0.  1.
        -13    1    4    4    0    0  0.81281255174E+02  0.44250831033E+02 -0.28361877150E+03  0.29833602872E+03  0.00000000000E+00 0. -1.
         13    1    4    4    0    0  0.15228758367E+02  0.35210551131E+02 -0.20332165453E+02  0.43417680090E+02  0.00000000000E+00 0.  1.
         21    1    1    2  502  501 -0.47651991305E+02  0.56555690840E+01 -0.17536904892E+02  0.51090515462E+02  0.00000000000E+00 0.  1.
<scales pt_clust_5="13000.00000" pt_clust_6="13000.00000" pt_clust_7="13000.00000" pt_clust_8="13000.00000" pt_clust_9="47.98643"></scales>
<clustering>
<clus scale="   47.986">  1  9  2 -1</clus>
<clus scale="   93.021">  5  6 -1 -1</clus>
<clus scale="   93.708">  7  8 -1 -1</clus>
<clus scale="  144.010">  1  5  2 -1</clus>
<clus scale="  144.455">  2  5  1 -1</clus>
</clustering>
</event>
<event>
 9    1  0.1748361E-005  0.1152448E+03  0.7546771E-02  0.1251365E+00
         -3   -1    0    0    0  501 -0.00000000000E+00  0.00000000000E+00  0.12959679852E+03  0.12959679852E+03  0.00000000000E+00 0.  1.
          3   -1    0    0  502    0  0.00000000000E+00 -0.00000000000E+00 -0.22808673520E+03  0.22808673520E+03  0.00000000000E+00 0. -1.
         23    2    1    2    0    0  0.29225910485E+02 -0.46055167673E+02 -0.57630310264E+02  0.12107653496E+03  0.91449671102E+02 0.  0.
         23    2    1    2    0    0 -0.18848588635E+02  0.84524611467E+02 -0.10329110363E+03  0.16254434784E+03  0.90840154600E+02 0.  0.
        -11    1    3    3    0    0 -0.15595469677E+00 -0.41412182405E+02  0.13839244121E+02  0.43663690308E+02  0.00000000000E+00 0.  1.
         11    1    3    3    0    0  0.29381865182E+02 -0.46429852679E+01 -0.71469554385E+02  0.77412844656E+02  0.00000000000E+00 0. -1.
        -11    1    4    4    0    0  0.24592271336E+02  0.98648129143E+01  0.17426860485E+01  0.26554308463E+02  0.00000000000E+00 0.  1.
         11    1    4    4    0    0 -0.43440859971E+02  0.74659798553E+02 -0.10503378968E+03  0.13599003937E+03  0.00000000000E+00 0. -1.
         21    1    1    2  502  501 -0.10377321850E+02 -0.38469443794E+02  0.62431477215E+02  0.74062650924E+02  0.00000000000E+00 0.  1.
<scales pt_clust_5="13000.00000" pt_clust_6="13000.00000" pt_clust_7="13000.00000" pt_clust_8="13000.00000" pt_clust_9="39.84453"></scales>
<clustering>
<clus scale="   39.845">  1  9  2 -1</clus>
<clus scale="   90.840">  7  8 -1 -1</clus>
<clus scale="   91.450">  5  6 -1 -1</clus>
<clus scale="  114.762">  2  7  1 -1</clus>
<clus scale="  114.762">  2  5  1 -1</clus>
</clustering>
</event>
<event>
 9    1  0.1748361E-005  0.1181329E+03  0.7546771E-02  0.1247121E+00
          1   -1    0    0  502    0  0.00000000000E+00  0.00000000000E+00  0.14909035345E+03  0.14909035345E+03  0.00000000000E+00 0. -1.
         -1   -1    0    0    0  501 -0.00000000000E+00 -0.00000000000E+00 -0.23920093659E+03  0.23920093659E+03  0.00000000000E+00 0.  1.
         23    2    1    2    0    0  0.82762419172E+02  0.70392269958E+02 -0.13910344416E+03  0.19886569430E+03  0.91613899030E+02 0.  0.
         23    2    1    2    0    0 -0.55481828582E+02 -0.40685778757E+02  0.80520580225E+02  0.13823279039E+03  0.88832283564E+02 0.  0.
        -11    1    3    3    0    0  0.71980896250E+02  0.51999313612E+02 -0.15046017123E+03  0.17470959095E+03  0.00000000000E+00 0.  1.
         11    1    3    3    0    0  0.10781522922E+02  0.18392956345E+02  0.11356727070E+02  0.24156103356E+02  0.00000000000E+00 0. -1.
        -11    1    4    4    0    0  0.18628277630E+02  0.10597343952E+02  0.92893036294E+01  0.23358244545E+02  0.00000000000E+00 0.  1.
         11    1    4    4    0    0 -0.74110106212E+02 -0.51283122710E+02  0.71231276595E+02  0.11487454584E+03  0.00000000000E+00 0. -1.
         21    1    1    2  502  501 -0.27280590590E+02 -0.29706491200E+02 -0.31527719200E+02  0.51192805357E+02  0.00000000000E+00 0. -1.
<scales pt_clust_5="13000.00000" pt_clust_6="13000.00000" pt_clust_7="13000.00000" pt_clust_8="13000.00000" pt_clust_9="40.33245"></scales>
<clustering>
<clus scale="   40.332">  2  9  1 -1</clus>
<clus scale="   88.832">  7  8 -1 -1</clus>
<clus scale="   91.614">  5  6 -1 -1</clus>
<clus scale="  115.989">  1  7  2 -1</clus>
<clus scale="  115.989">  1  5  2 -1</clus>
</clustering>
</event>
<event>
 9    1  0.1748361E-005  0.1144854E+03  0.7546771E-02  0.1252687E+00
          3   -1    0    0  502    0  0.00000000000E+00  0.00000000000E+00  0.32704826421E+03  0.32704826421E+03  0.00000000000E+00 0. -1.
         -3   -1    0    0    0  501 -0.00000000000E+00 -0.00000000000E+00 -0.67465834599E+02  0.67465834599E+02  0.00000000000E+00 0.  1.
         23    2    1    2    0    0 -0.39403822340E+02 -0.33363045879E+02  0.58246079504E+02  0.11924531624E+03  0.90338727152E+02 0.  0.
         23    2    1    2    0    0  0.46568150884E+02  0.64655299375E+02  0.20973571074E+03  0.24208622703E+03  0.90927292615E+02 0.  0.
        -11    1    4    4    0    0  0.70726799149E+02  0.40790627536E+02  0.11186499559E+03  0.13849163387E+03  0.00000000000E+00 0. -1.
         11    1    4    4    0    0 -0.24158648265E+02  0.23864671839E+02  0.97870715154E+02  0.10359459316E+03  0.00000000000E+00 0.  1.
        -11    1    3    3    0    0 -0.22744397585E+02 -0.22071164697E+02 -0.20647329337E+02  0.37825337293E+02  0.00000000000E+00 0.  1.
         11    1    3    3    0    0 -0.16659424755E+02 -0.11291881182E+02  0.78893408842E+02  0.81419978952E+02  0.00000000000E+00 0. -1.
         21    1    1    2  502  501 -0.71643285442E+01 -0.31292253496E+02 -0.83993606413E+01  0.33182555530E+02  0.00000000000E+00 0.  1.
<scales pt_clust_5="13000.00000" pt_clust_6="13000.00000" pt_clust_7="13000.00000" pt_clust_8="13000.00000" pt_clust_9="32.10191"></scales>
<clustering>
<clus scale="   32.102">  2  9  1 -1</clus>
<clus scale="   90.339">  7  8 -1 -1</clus>
<clus scale="   90.927">  5  6 -1 -1</clus>
<clus scale="  114.018">  2  7  1 -1</clus>
<clus scale="  114.485">  1  5  2 -1</clus>
</clustering>
</event>
<event>
 9    1  0.1748361E-005  0.9267357E+02  0.7546771E-02  0.1297569E+00
         -1   -1    0    0    0  501 -0.00000000000E+00  0.00000000000E+00  0.43729472754E+03  0.43729472754E+03  0.00000000000E+00 0.  1.
          1   -1    0    0  502    0  0.00000000000E+00 -0.00000000000E+00 -0.30967951744E+02  0.30967951744E+02  0.00000000000E+00 0. -1.
         23    2    1    2    0    0 -0.16458839287E+02  0.13698226174E+02  0.23869794130E+03  0.25640323105E+03  0.91144801944E+02 0.  0.
         23    2    1    2    0    0 -0.91004757255E+01 -0.17949235228E+02  0.83759824401E+02  0.12407926530E+03  0.89302643798E+02 0.  0.
        -11    1    4    4    0    0  0.69553141114E+01  0.31150629268E+02  0.89175939540E+01  0.33140029875E+02  0.00000000000E+00 0. -1.
         11    1    4    4    0    0 -0.16055789837E+02 -0.49099864496E+02  0.74842230447E+02  0.90939235422E+02  0.00000000000E+00 0.  1.
        -13    1    3    3    0    0 -0.50429487559E+02  0.20767041951E+02  0.10553823340E+03  0.11879697789E+03  0.00000000000E+00 0.  1.
         13    1    3    3    0    0  0.33970648272E+02 -0.70688157767E+01  0.13315970791E+03  0.13760625316E+03  0.00000000000E+00 0. -1.
         21    1    1    2  502  501  0.25559315013E+02  0.42510090538E+01  0.83869010095E+02  0.87780182936E+02  0.00000000000E+00 0. -1.
<scales pt_clust_5="13000.00000" pt_clust_6="13000.00000" pt_clust_7="13000.00000" pt_clust_8="13000.00000" pt_clust_9="25.91042"></scales>
<clustering>
<clus scale="   25.910">  1  9  2 -1</clus>
<clus scale="   89.303">  5  6 -1 -1</clus>
<clus scale="   90.862">  2  5  1 -1</clus>
<clus scale="   91.145">  7  8 -1 -1</clus>
<clus scale="   90.862">  2  5  1 -1</clus>
</clustering>
</event>
<event>
 9    1  0.1748361E-005  0.1053625E+03  0.7546771E-02  0.1269546E+00
         -2   -1    0    0    0  501 -0.00000000000E+00  0.00000000000E+00  0.69361427920E+02  0.69361427920E+02  0.00000000000E+00 0.  1.
          2   -1    0    0  502    0  0.00000000000E+00 -0.00000000000E+00 -0.26746588324E+03  0.26746588324E+03  0.00000000000E+00 0. -1.
         23    2    1    2    0    0  0.64770175299E+02  0.27788213744E+02 -0.69516396341E+02  0.13578085047E+03  0.92933038056E+02 0.  0.
         23    2    1    2    0    0 -0.40427491344E+02  0.11418727113E+01 -0.12819229719E+03  0.16323544653E+03  0.92611338489E+02 0.  0.
        -11    1    3    3    0    0  0.10343332346E+02 -0.27542631268E+02  0.29857602047E+01  0.29571875578E+02  0.00000000000E+00 0. -1.
         11    1    3    3    0    0  0.54426842953E+02  0.55330845012E+02 -0.72502156545E+02  0.10620897489E+03  0.00000000000E+00 0.  1.
        -13    1    4    4    0    0  0.28041320614E+02  0.11332342163E+02 -0.53065939564E+02  0.61079714983E+02  0.00000000000E+00 0.  1.
         13    1    4    4    0    0 -0.68468811957E+02 -0.10190469451E+02 -0.75126357626E+02  0.10215573155E+03  0.00000000000E+00 0. -1.
         21    1    1    2  502  501 -0.24342683955E+02 -0.28930086455E+02 -0.39576179314E+00  0.37811014161E+02  0.00000000000E+00 0. -1.
<scales pt_clust_5="13000.00000" pt_clust_6="13000.00000" pt_clust_7="13000.00000" pt_clust_8="13000.00000" pt_clust_9="37.80894"></scales>
<clustering>
<clus scale="   37.809">  1  9  2 -1</clus>
<clus scale="   92.611">  7  8 -1 -1</clus>
<clus scale="   92.933">  5  6 -1 -1</clus>
<clus scale="  105.079">  2  7  1 -1</clus>
<clus scale="  105.079">  2  5  1 -1</clus>
</clustering>
</event>
<event>
 9    1  0.1748361E-005  0.1263297E+03  0.7546771E-02  0.1233625E+00
          2   -1    0    0  502    0  0.00000000000E+00  0.00000000000E+00  0.10783588156E+04  0.10783588156E+04  0.00000000000E+00 0. -1.
         -2   -1    0    0    0  501 -0.00000000000E+00 -0.00000000000E+00 -0.28323900351E+02  0.28323900351E+02  0.00000000000E+00 0.  1.
         23    2    1    2    0    0  0.54259755418E+02  0.92007758438E+02  0.33079685922E+03  0.35853091029E+03  0.87796941225E+02 0.  0.
         23    2    1    2    0    0 -0.56362960462E+02 -0.60021749075E+02  0.70044600764E+03  0.71099444637E+03  0.90050538447E+02 0.  0.
        -11    1    4    4    0    0 -0.13260910573E+02  0.24093025409E+02  0.15615629225E+03  0.15855949430E+03  0.00000000000E+00 0. -1.
         11    1    4    4    0    0 -0.43102049889E+02 -0.84114774483E+02  0.54428971539E+03  0.55243495208E+03  0.00000000000E+00 0.  1.
        -13    1    3    3    0    0  0.50111419149E+02  0.49779479829E+01  0.10332371673E+03  0.11494226696E+03  0.00000000000E+00 0.  1.
         13    1    3    3    0    0  0.41483362689E+01  0.87029810455E+02  0.22747314249E+03  0.24358864332E+03  0.00000000000E+00 0. -1.
         21    1    1    2  502  501  0.21032050440E+01 -0.31986009363E+02  0.18792048364E+02  0.37157359273E+02  0.00000000000E+00 0.  1.
<scales pt_clust_5="13000.00000" pt_clust_6="13000.00000" pt_clust_7="13000.00000" pt_clust_8="13000.00000" pt_clust_9="32.05508"></scales>
<clustering>
<clus scale="   32.055">  2  9  1 -1</clus>
<clus scale="   87.797">  7  8 -1 -1</clus>
<clus scale="   90.051">  5  6 -1 -1</clus>
<clus scale="  124.733">  2  7  1 -1</clus>
<clus scale="  126.330">  1  5  2 -1</clus>
</clustering>
</event>
<event>
 9    1  0.1748361E-005  0.1121494E+03  0.7546771E-02  0.1286209E+00
         -1   -1    0    0    0  501 -0.00000000000E+00  0.00000000000E+00  0.13304849381E+03  0.13304849381E+03  0.00000000000E+00 0.  1.
          1   -1    0    0  502    0  0.00000000000E+00 -0.00000000000E+00 -0.31664521746E+03  0.31664521746E+03  0.00000000000E+00 0. -1.
         23    2    1    2    0    0 -0.45135311534E+02  0.30238713794E+02 -0.21423439331E+02  0.10866784575E+03  0.91641479621E+02 0.  0.
         23    2    1    2    0    0 -0.87613090854E+01  0.91025040148E+01 -0.23432606583E+03  0.24274768375E+03  0.62113740222E+02 0.  0.
        -11    1    4    4    0    0  0.24917172836E+02  0.37464075731E+01 -0.59314449460E+02  0.64444588498E+02  0.00000000000E+00 0. -1.
         11    1    4    4    0    0 -0.33678481922E+02  0.53560964417E+01 -0.17501161637E+03  0.17830309525E+03  0.00000000000E+00 0.  1.
        -11    1    3    3    0    0 -0.77631046727E+01  0.26301691296E+02 -0.52940647123E+02  0.59621781900E+02  0.00000000000E+00 0. -1.
         11    1    3    3    0    0 -0.37372206862E+02  0.39370224983E+01  0.31517207791E+02  0.49046063846E+02  0.00000000000E+00 0.  1.
         21    1    1    2  502  501  0.53896620620E+02 -0.39341217809E+02  0.72152781509E+02  0.98278181772E+02  0.00000000000E+00 0.  1.
<scales pt_clust_5="13000.00000" pt_clust_6="13000.00000" pt_clust_7="13000.00000" pt_clust_8="13000.00000" pt_clust_9="64.64768"></scales>
<clustering>
<clus scale="   62.114">  5  6 -1 -1</clus>
<clus scale="   63.386">  2  5  1 -1</clus>
<clus scale="   64.648">  1  9  2 -1</clus>
<clus scale="   91.641">  7  8 -1 -1</clus>
<clus scale="   63.386">  2  5  1 -1</clus>
</clustering>
</event>
<event>
 9    1  0.1748361E-005  0.9456074E+02  0.7546771E-02  0.1298050E+00
         -2   -1    0    0    0  501 -0.00000000000E+00  0.00000000000E+00  0.20671666555E+03  0.20671666555E+03  0.00000000000E+00 0.  1.
          2   -1    0    0  502    0  0.00000000000E+00 -0.00000000000E+00 -0.19939067240E+03  0.19939067240E+03  0.00000000000E+00 0. -1.
         23    2    1    2    0    0 -0.45103554497E+02 -0.13877677359E+00  0.46899979743E+02  0.11183761389E+03  0.90959847703E+02 0.  0.
         23    2    1    2    0    0  0.21899442790E+02  0.87941952354E+01 -0.15492694111E+03  0.17628815268E+03  0.80735569804E+02 0.  0.
        -11    1    4    4    0    0  0.56788915828E+00 -0.31914364897E+02 -0.32654526736E+02  0.45663632151E+02  0.00000000000E+00 0.  1.
         11    1    4    4    0    0  0.21331553631E+02  0.40708560132E+02 -0.12227241437E+03  0.13062452053E+03  0.00000000000E+00 0. -1.
        -13    1    3    3    0    0 -0.38287349066E+02 -0.43257828555E+02  0.24177888794E+02  0.62623726624E+02  0.00000000000E+00 0.  1.
         13    1    3    3    0    0 -0.68162054305E+01  0.43119051781E+02  0.22722090949E+02  0.49213887268E+02  0.00000000000E+00 0. -1.
         21    1    1    2  502  501  0.23204111707E+02 -0.86554184618E+01  0.11535295451E+03  0.11798157137E+03  0.00000000000E+00 0.  1.
<scales pt_clust_5="13000.00000" pt_clust_6="13000.00000" pt_clust_7="13000.00000" pt_clust_8="13000.00000" pt_clust_9="24.76584"></scales>
<clustering>
<clus scale="   24.766">  1  9  2 -1</clus>
<clus scale="   80.736">  5  6 -1 -1</clus>
<clus scale="   84.772">  2  5  1 -1</clus>
<clus scale="   90.960">  7  8 -1 -1</clus>
<clus scale="   84.772">  2  5  1 -1</clus>
</clustering>
</event>
<event>
 9    1  0.1748361E-005  0.3245488E+03  0.7546771E-02  0.1073666E+00
         -1   -1    0    0    0  501 -0.00000000000E+00  0.00000000000E+00  0.11315505173E+03  0.11315505173E+03  0.00000000000E+00 0.  1.
          1   -1    0    0  502    0  0.00000000000E+00 -0.00000000000E+00 -0.19191648191E+04  0.19191648191E+04  0.00000000000E+00 0. -1.
         23    2    1    2    0    0 -0.12650423873E+03  0.28327777982E+03 -0.89985827571E+03  0.95631236538E+03  0.92405632234E+02 0.  0.
         23    2    1    2    0    0  0.88563822852E+02 -0.29877466863E+03 -0.95685415684E+03  0.10108124982E+04  0.95195460816E+02 0.  0.
        -13    1    4    4    0    0  0.56150934510E+02 -0.64184153707E+02 -0.19086340942E+03  0.20904873616E+03  0.00000000000E+00 0.  1.
         13    1    4    4    0    0  0.32412888342E+02 -0.23459051492E+03 -0.76599074741E+03  0.80176376206E+03  0.00000000000E+00 0. -1.
        -13    1    3    3    0    0  0.11106984675E+02  0.50824158996E+02 -0.18281533582E+03  0.19007342597E+03  0.00000000000E+00 0. -1.
         13    1    3    3    0    0 -0.13761122341E+03  0.23245362082E+03 -0.71704293989E+03  0.76623893942E+03  0.00000000000E+00 0.  1.
         21    1    1    2  502  501  0.37940415878E+02  0.15496888812E+02  0.50702665142E+02  0.65195007266E+02  0.00000000000E+00 0.  1.
<scales pt_clust_5="13000.00000" pt_clust_6="13000.00000" pt_clust_7="13000.00000" pt_clust_8="13000.00000" pt_clust_9="40.98327"></scales>
<clustering>
<clus scale="   40.983">  1  9  2 -1</clus>
<clus scale="   92.406">  7  8 -1 -1</clus>
<clus scale="   95.195">  5  6 -1 -1</clus>
<clus scale="  323.742">  1  7  2 -1</clus>
<clus scale="  324.549">  2  5  1 -1</clus>
</clustering>
</event>
<event>
 9    1  0.1748361E-005  0.1212025E+03  0.7546771E-02  0.1241753E+00
         -1   -1    0    0    0  501 -0.00000000000E+00  0.00000000000E+00  0.48197651311E+02  0.48197651311E+02  0.00000000000E+00 0.  1.
          1   -1    0    0  502    0  0.00000000000E+00 -0.00000000000E+00 -0.51054076379E+03  0.51054076379E+03  0.00000000000E+00 0. -1.
         23    2    1    2    0    0  0.52630606690E+02 -0.64234578681E+02 -0.88297006104E+02  0.15216177730E+03  0.91982516404E+02 0.  0.
         23    2    1    2    0    0 -0.27740626206E+02  0.70171018592E+02 -0.35436317278E+03  0.37429397493E+03  0.93963861422E+02 0.  0.
        -11    1    3    3    0    0  0.33675313382E+02  0.50517200733E+00  0.79728893407E+01  0.34609953693E+02  0.00000000000E+00 0.  1.
         11    1    3    3    0    0  0.18955293307E+02 -0.64739750688E+02 -0.96269895444E+02  0.11755182360E+03  0.00000000000E+00 0. -1.
        -13    1    4    4    0    0 -0.17046783448E+02  0.90709786225E+02 -0.31850788122E+03  0.33161141196E+03  0.00000000000E+00 0.  1.
         13    1    4    4    0    0 -0.10693842758E+02 -0.20538767634E+02 -0.35855291566E+02  0.42682562975E+02  0.00000000000E+00 0. -1.
         21    1    1    2  502  501 -0.24889980484E+02 -0.59364399106E+01 -0.19682933588E+02  0.32282662869E+02  0.00000000000E+00 0.  1.
<scales pt_clust_5="13000.00000" pt_clust_6="13000.00000" pt_clust_7="13000.00000" pt_clust_8="13000.00000" pt_clust_9="25.58813"></scales>
<clustering>
<clus scale="   25.588">  1  9  2 -1</clus>
<clus scale="   91.983">  5  6 -1 -1</clus>
<clus scale="   93.964">  7  8 -1 -1</clus>
<clus scale="  119.673">  1  5  2 -1</clus>
<clus scale="  121.203">  2  5  1 -1</clus>
</clustering>
</event>
<event>
 9    1  0.1748361E-005  0.1126074E+03  0.7546771E-02  0.1258336E+00
         -1   -1    0    0    0  501 -0.00000000000E+00  0.00000000000E+00  0.49792062731E+02  0.49792062731E+02  0.00000000000E+00 0.  1.
          1   -1    0    0  502    0  0.00000000000E+00 -0.00000000000E+00 -0.78328769707E+03  0.78328769707E+03  0.00000000000E+00 0. -1.
         23    2    1    2    0    0  0.12695738509E+02 -0.26910342835E+02 -0.16044154810E+03  0.19017041500E+03  0.97662418857E+02 0.  0.
         23    2    1    2    0    0  0.21205474430E+02  0.65191560713E+02 -0.58015542875E+03  0.59128403176E+03  0.91306478251E+02 0.  0.
        -11    1    3    3    0    0  0.39351623259E+02  0.90230151228E+01 -0.24896218267E+02  0.47431916881E+02  0.00000000000E+00 0. -1.
         11    1    3    3    0    0 -0.26655884750E+02 -0.35933357958E+02 -0.13554532983E+03  0.14273849812E+03  0.00000000000E+00 0.  1.
        -13    1    4    4    0    0 -0.68392947778E+01  0.80009738454E+02 -0.46293336261E+03  0.46984639236E+03  0.00000000000E+00 0. -1.
         13    1    4    4    0    0  0.28044769208E+02 -0.14818177741E+02 -0.11722206614E+03  0.12143763940E+03  0.00000000000E+00 0.  1.
         21    1    1    2  502  501 -0.33901212940E+02 -0.38281217878E+02  0.71013425122E+01  0.51625313040E+02  0.00000000000E+00 0. -1.
<scales pt_clust_5="13000.00000" pt_clust_6="13000.00000" pt_clust_7="13000.00000" pt_clust_8="13000.00000" pt_clust_9="51.13457"></scales>
<clustering>
<clus scale="   51.135">  1  9  2 -1</clus>
<clus scale="   91.306">  7  8 -1 -1</clus>
<clus scale="   97.662">  5  6 -1 -1</clus>
<clus scale="  107.142">  2  7  1 -1</clus>
<clus scale="  107.142">  2  5  1 -1</clus>
</clustering>
</event>
<event>
 9    1  0.1748361E-005  0.1002081E+03  0.7546771E-02  0.1279993E+00
          2   -1    0    0  502    0  0.00000000000E+00  0.00000000000E+00  0.95012114440E+02  0.95012114440E+02  0.00000000000E+00 0. -1.
         -2   -1    0    0    0  501 -0.00000000000E+00 -0.00000000000E+00 -0.20708005160E+03  0.20708005160E+03  0.00000000000E+00 0.  1.
         23    2    1    2    0    0 -0.17799035048E+02  0.79009662442E-01 -0.12180186918E+03  0.15351851866E+03  0.91735643800E+02 0.  0.
         23    2    1    2    0    0  0.45449828684E+02 -0.88443401035E+01  0.36786458399E+02  0.10890960082E+03  0.91455717971E+02 0.  0.
        -13    1    3    3    0    0 -0.41986547991E+02 -0.16753207908E+02 -0.23609015715E+02  0.50999272646E+02  0.00000000000E+00 0. -1.
         13    1    3    3    0    0  0.24187512943E+02  0.16832217570E+02 -0.98192853468E+02  0.10251924601E+03  0.00000000000E+00 0.  1.
        -13    1    4    4    0    0  0.39684909085E+02  0.37879818956E+02  0.25494836000E+02  0.60495944954E+02  0.00000000000E+00 0.  1.
         13    1    4    4    0    0  0.57649195991E+01 -0.46724159059E+02  0.11291622399E+02  0.48413655865E+02  0.00000000000E+00 0. -1.
         21    1    1    2  502  501 -0.27650793636E+02  0.87653304411E+01 -0.27052526373E+02  0.39664046561E+02  0.00000000000E+00 0. -1.
<scales pt_clust_5="13000.00000" pt_clust_6="13000.00000" pt_clust_7="13000.00000" pt_clust_8="13000.00000" pt_clust_9="29.00685"></scales>
<clustering>
<clus scale="   29.007">  2  9  1 -1</clus>
<clus scale="   91.456">  7  8 -1 -1</clus>
<clus scale="   91.736">  5  6 -1 -1</clus>
<clus scale="   99.952">  1  7  2 -1</clus>
<clus scale="   99.952">  1  5  2 -1</clus>
</clustering>
</event>
<event>
 9    1  0.1748361E-005  0.2370866E+03  0.7546771E-02  0.1121773E+00
          1   -1    0    0  502    0  0.00000000000E+00  0.00000000000E+00  0.80810416033E+02  0.80810416033E+02  0.00000000000E+00 0. -1.
         -1   -1    0    0    0  501 -0.00000000000E+00 -0.00000000000E+00 -0.79572625135E+03  0.79572625135E+03  0.00000000000E+00 0.  1.
         23    2    1    2    0    0  0.12529539336E+03 -0.16892086659E+03 -0.38807007426E+03  0.45060425852E+03  0.90623509624E+02 0.  0.
         23    2    1    2    0    0 -0.15177501461E+03  0.16736483599E+03 -0.27271067725E+03  0.36564809189E+03  0.90998737536E+02 0.  0.
        -11    1    4    4    0    0 -0.11410969175E+03  0.16863179137E+03 -0.21012950159E+03  0.29259547202E+03  0.00000000000E+00 0. -1.
         11    1    4    4    0    0 -0.37665322867E+02 -0.12669553819E+01 -0.62581175662E+02  0.73052619870E+02  0.00000000000E+00 0.  1.
        -13    1    3    3    0    0  0.12039858942E+03 -0.14775095789E+03 -0.38371541648E+03  0.42844332967E+03  0.00000000000E+00 0.  1.
         13    1    3    3    0    0  0.48968039360E+01 -0.21169908702E+02 -0.43546577747E+01  0.22160928851E+02  0.00000000000E+00 0. -1.
         21    1    1    2  502  501  0.26479621256E+02  0.15560306039E+01 -0.54135083804E+02  0.60284316962E+02  0.00000000000E+00 0.  1.
<scales pt_clust_5="13000.00000" pt_clust_6="13000.00000" pt_clust_7="13000.00000" pt_clust_8="13000.00000" pt_clust_9="26.52530"></scales>
<clustering>
<clus scale="   26.525">  2  9  1 -1</clus>
<clus scale="   90.624">  7  8 -1 -1</clus>
<clus scale="   90.999">  5  6 -1 -1</clus>
<clus scale="  236.943">  2  7  1 -1</clus>
<clus scale="  237.087">  1  5  2 -1</clus>
</clustering>
</event>
<event>
 9    1  0.1748361E-005  0.2275701E+03  0.7546771E-02  0.1128584E+00
          2   -1    0    0  502    0  0.00000000000E+00  0.00000000000E+00  0.38158453758E+03  0.38158453758E+03  0.00000000000E+00 0. -1.
         -2   -1    0    0    0  501 -0.00000000000E+00 -0.00000000000E+00 -0.20178367666E+03  0.20178367666E+03  0.00000000000E+00 0.  1.
         23    2    1    2    0    0  0.16458960110E+03  0.12223641091E+03  0.11166089275E+03  0.25170222982E+03  0.94097718278E+02 0.  0.
         23    2    1    2    0    0 -0.18420870180E+03 -0.10130140754E+03  0.13004493861E+03  0.26343542791E+03  0.91058869037E+02 0.  0.
        -11    1    3    3    0    0  0.85867550680E+02  0.37033945845E+02  0.42526634807E+01  0.93610013093E+02  0.00000000000E+00 0. -1.
         11    1    3    3    0    0  0.78722050419E+02  0.85202465065E+02  0.10740822927E+03  0.15809221673E+03  0.00000000000E+00 0.  1.
        -13    1    4    4    0    0 -0.96832330650E+02 -0.36086102003E+02  0.11292131054E+03  0.15306838142E+03  0.00000000000E+00 0. -1.
         13    1    4    4    0    0 -0.87376371146E+02 -0.65215305536E+02  0.17123628068E+02  0.11036704648E+03  0.00000000000E+00 0.  1.
         21    1    1    2  502  501  0.19619100697E+02 -0.20935003371E+02 -0.61904970435E+02  0.68230556519E+02  0.00000000000E+00 0. -1.
<scales pt_clust_5="13000.00000" pt_clust_6="13000.00000" pt_clust_7="13000.00000" pt_clust_8="13000.00000" pt_clust_9="28.69117"></scales>
<clustering>
<clus scale="   28.691">  2  9  1 -1</clus>
<clus scale="   91.059">  7  8 -1 -1</clus>
<clus scale="   94.098">  5  6 -1 -1</clus>
<clus scale="  226.331">  1  7  2 -1</clus>
<clus scale="  226.331">  1  5  2 -1</clus>
</clustering>
</event>
<event>
 9    1  0.1748361E-005  0.1179255E+03  0.7546771E-02  0.1246797E+00
         -1   -1    0    0    0  501 -0.00000000000E+00  0.00000000000E+00  0.15575483882E+02  0.15575483882E+02  0.00000000000E+00 0.  1.
          1   -1    0    0  502    0  0.00000000000E+00 -0.00000000000E+00 -0.10985864460E+04  0.10985864460E+04  0.00000000000E+00 0. -1.
         23    2    1    2    0    0  0.42273916708E+02 -0.54426178399E+02 -0.46957103530E+03  0.48326660236E+03  0.91106305129E+02 0.  0.
         23    2    1    2    0    0 -0.64856398371E+02  0.47519204122E+02 -0.54485729752E+03  0.55836084046E+03  0.91830966074E+02 0.  0.
        -11    1    4    4    0    0 -0.87190904189E+02  0.30375279170E+02 -0.45177669625E+03  0.46111505574E+03  0.00000000000E+00 0.  1.
         11    1    4    4    0    0  0.22334505817E+02  0.17143924951E+02 -0.93080601274E+02  0.97245784723E+02  0.00000000000E+00 0. -1.
        -13    1    3    3    0    0 -0.97371249903E+01  0.19843476280E+02 -0.64854046707E+02  0.68517315536E+02  0.00000000000E+00 0.  1.
         13    1    3    3    0    0  0.52011041699E+02 -0.74269654680E+02 -0.40471698859E+03  0.41474928682E+03  0.00000000000E+00 0. -1.
         21    1    1    2  502  501  0.22582481663E+02  0.69069742775E+01 -0.68582629299E+02  0.72534487062E+02  0.00000000000E+00 0. -1.
<scales pt_clust_5="13000.00000" pt_clust_6="13000.00000" pt_clust_7="13000.00000" pt_clust_8="13000.00000" pt_clust_9="23.61514"></scales>
<clustering>
<clus scale="   23.615">  1  9  2 -1</clus>
<clus scale="   91.106">  7  8 -1 -1</clus>
<clus scale="   91.831">  5  6 -1 -1</clus>
<clus scale="  117.362">  1  7  2 -1</clus>
<clus scale="  117.926">  2  5  1 -1</clus>
</clustering>
</event>
<event>
 9    1  0.1748361E-005  0.1062714E+03  0.7546771E-02  0.1267883E+00
          2   -1    0    0  502    0  0.00000000000E+00  0.00000000000E+00  0.15556407035E+03  0.15556407035E+03  0.00000000000E+00 0. -1.
         -2   -1    0    0    0  501 -0.00000000000E+00 -0.00000000000E+00 -0.13213020457E+03  0.13213020457E+03  0.00000000000E+00 0.  1.
         23    2    1    2    0    0 -0.25320332950E+02 -0.28386632646E+02 -0.64177874536E+02  0.11788196505E+03  0.91271232761E+02 0.  0.
         23    2    1    2    0    0  0.41053968021E+02  0.42006420259E+02  0.98611472855E+02  0.14627425551E+03  0.90675066110E+02 0.  0.
        -11    1    4    4    0    0  0.11097777019E+01 -0.21454651162E+02  0.56108111136E+02  0.60080394458E+02  0.00000000000E+00 0. -1.
         11    1    4    4    0    0  0.39944190319E+02  0.63461071421E+02  0.42503361719E+02  0.86193861055E+02  0.00000000000E+00 0.  1.
        -11    1    3    3    0    0 -0.47571077894E+02 -0.12132266513E+02 -0.73849181880E+02  0.88678638956E+02  0.00000000000E+00 0.  1.
         11    1    3    3    0    0  0.22250744945E+02 -0.16254366133E+02  0.96713073442E+01  0.29203326090E+02  0.00000000000E+00 0. -1.
         21    1    1    2  502  501 -0.15733635071E+02 -0.13619787613E+02 -0.10999732536E+02  0.23538054360E+02  0.00000000000E+00 0.  1.
<scales pt_clust_5="13000.00000" pt_clust_6="13000.00000" pt_clust_7="13000.00000" pt_clust_8="13000.00000" pt_clust_9="20.80975"></scales>
<clustering>
<clus scale="   20.810">  2  9  1 -1</clus>
<clus scale="   90.675">  5  6 -1 -1</clus>
<clus scale="   91.271">  7  8 -1 -1</clus>
<clus scale="  105.760">  1  5  2 -1</clus>
<clus scale="  105.760">  1  5  2 -1</clus>
</clustering>
</event>
<event>
 9    1  0.1748361E-005  0.1076260E+03  0.7546771E-02  0.1278645E+00
         -1   -1    0    0    0  501 -0.00000000000E+00  0.00000000000E+00  0.12241317702E+03  0.12241317702E+03  0.00000000000E+00 0.  1.
          1   -1    0    0  502    0  0.00000000000E+00 -0.00000000000E+00 -0.11785686901E+03  0.11785686901E+03  0.00000000000E+00 0. -1.
         23    2    1    2    0    0  0.34707516575E+02 -0.14645429862E+02  0.45006574493E+02  0.99443826562E+02  0.80276911818E+02 0.  0.
         23    2    1    2    0    0 -0.11456054767E+02  0.18898061475E+01 -0.41799532003E+02  0.11427142837E+03  0.10571634646E+03 0.  0.
        -11    1    4    4    0    0 -0.55648397720E+02  0.99323071912E+01 -0.60252093877E+01  0.56848025851E+02  0.00000000000E+00 0.  1.
         11    1    4    4    0    0  0.44192342953E+02 -0.80425010437E+01 -0.35774322615E+02  0.57423402523E+02  0.00000000000E+00 0. -1.
        -13    1    3    3    0    0  0.58255246534E+02 -0.12090393693E+02  0.15266366104E+02  0.61424044986E+02  0.00000000000E+00 0. -1.
         13    1    3    3    0    0 -0.23547729959E+02 -0.25550361689E+01  0.29740208389E+02  0.38019781576E+02  0.00000000000E+00 0.  1.
         21    1    1    2  502  501 -0.23251461808E+02  0.12755623715E+02  0.13492655277E+01  0.26554791094E+02  0.00000000000E+00 0.  1.
<scales pt_clust_5="13000.00000" pt_clust_6="13000.00000" pt_clust_7="13000.00000" pt_clust_8="13000.00000" pt_clust_9="26.52049"></scales>
<clustering>
<clus scale="   26.520">  1  9  2 -1</clus>
<clus scale="   80.277">  7  8 -1 -1</clus>
<clus scale="   82.776">  1  7  2 -1</clus>
<clus scale="  105.716">  5  6 -1 -1</clus>
<clus scale="  107.626">  2  5  1 -1</clus>
</clustering>
</event>
<event>
 9    1  0.1748361E-005  0.9292663E+02  0.7546771E-02  0.1296147E+00
         -2   -1    0    0    0  501 -0.00000000000E+00  0.00000000000E+00  0.10049527698E+03  0.10049527698E+03  0.00000000000E+00 0.  1.
          2   -1    0    0  502    0  0.00000000000E+00 -0.00000000000E+00 -0.35652927602E+03  0.35652927602E+03  0.00000000000E+00 0. -1.
         23    2    1    2    0    0 -0.86409953313E+01 -0.13951113296E+02 -0.14542325957E+03  0.17205971227E+03  0.90483809589E+02 0.  0.
         23    2    1    2    0    0  0.28321607609E+02 -0.68502861895E+01 -0.18339700494E+03  0.20674805761E+03  0.90891462878E+02 0.  0.
        -11    1    4    4    0    0  0.31955928326E+02  0.32235989689E+02 -0.14459670603E+03  0.15155377851E+03  0.00000000000E+00 0. -1.
         11    1    4    4    0    0 -0.36343207169E+01 -0.39086275879E+02 -0.38800298910E+02  0.55194279093E+02  0.00000000000E+00 0.  1.
        -11    1    3    3    0    0 -0.27721505233E+02 -0.40675538423E+02 -0.12248091291E+03  0.13200210342E+03  0.00000000000E+00 0.  1.
         11    1    3    3    0    0  0.19080509902E+02  0.26724425127E+02 -0.22942346660E+02  0.40057608850E+02  0.00000000000E+00 0. -1.
         21    1    1    2  502  501 -0.19680612278E+02  0.20801399485E+02  0.72786265474E+02  0.78216783121E+02  0.00000000000E+00 0.  1.
<scales pt_clust_5="13000.00000" pt_clust_6="13000.00000" pt_clust_7="13000.00000" pt_clust_8="13000.00000" pt_clust_9="28.63607"></scales>
<clustering>
<clus scale="   28.636">  1  9  2 -1</clus>
<clus scale="   90.484">  7  8 -1 -1</clus>
<clus scale="   90.891">  5  6 -1 -1</clus>
<clus scale="   92.528">  1  7  2 -1</clus>
<clus scale="   92.927">  2  5  1 -1</clus>
</clustering>
</event>
<event>
 9    1  0.1748361E-005  0.9878073E+02  0.7546771E-02  0.1283065E+00
          2   -1    0    0  502    0  0.00000000000E+00  0.00000000000E+00  0.34503668649E+03  0.34503668649E+03  0.00000000000E+00 0. -1.
         -2   -1    0    0    0  501 -0.00000000000E+00 -0.00000000000E+00 -0.56861612246E+02  0.56861612246E+02  0.00000000000E+00 0.  1.
         23    2    1    2    0    0 -0.48405163603E+02  0.74421024532E+00  0.27083362250E+02  0.10974850745E+03  0.94697479711E+02 0.  0.
         23    2    1    2    0    0  0.21459506055E+02 -0.46355623539E+01  0.23497970484E+03  0.25442648285E+03  0.95054587735E+02 0.  0.
        -11    1    4    4    0    0  0.28978162607E+01  0.39567522356E+02  0.16429335157E+03  0.16901565470E+03  0.00000000000E+00 0.  1.
         11    1    4    4    0    0  0.18561689794E+02 -0.44203084710E+02  0.70686353268E+02  0.85410828143E+02  0.00000000000E+00 0. -1.
        -13    1    3    3    0    0 -0.25707892841E+02  0.54608955392E+01 -0.34832491693E+02  0.43635073187E+02  0.00000000000E+00 0.  1.
         13    1    3    3    0    0 -0.22697270762E+02 -0.47166852939E+01  0.61915853943E+02  0.66113434260E+02  0.00000000000E+00 0. -1.
         21    1    1    2  502  501  0.26945657548E+02  0.38913521086E+01  0.26112007150E+02  0.37723308436E+02  0.00000000000E+00 0.  1.
<scales pt_clust_5="13000.00000" pt_clust_6="13000.00000" pt_clust_7="13000.00000" pt_clust_8="13000.00000" pt_clust_9="27.22519"></scales>
<clustering>
<clus scale="   27.225">  2  9  1 -1</clus>
<clus scale="   94.697">  7  8 -1 -1</clus>
<clus scale="   95.055">  5  6 -1 -1</clus>
<clus scale="   98.437">  2  7  1 -1</clus>
<clus scale="   98.781">  1  5  2 -1</clus>
</clustering>
</event>
<event>
 9    1  0.1748361E-005  0.1256403E+03  0.7546771E-02  0.1241525E+00
         -4   -1    0    0    0  501 -0.00000000000E+00  0.00000000000E+00  0.16320486884E+03  0.16320486884E+03  0.00000000000E+00 0.  1.
          4   -1    0    0  502    0  0.00000000000E+00 -0.00000000000E+00 -0.13830710992E+03  0.13830710992E+03  0.00000000000E+00 0. -1.
         23    2    1    2    0    0 -0.26361519120E+01 -0.78586504781E+02  0.24361479081E+02  0.13748646796E+03  0.11011929522E+03 0.  0.
         23    2    1    2    0    0  0.23658631184E+02  0.48702064725E+02 -0.37737810312E+02  0.11111114253E+03  0.89386362095E+02 0.  0.
        -13    1    3    3    0    0  0.23725252601E+02 -0.95573352048E+01 -0.34548242441E+02  0.42986175952E+02  0.00000000000E+00 0. -1.
         13    1    3    3    0    0 -0.26361404513E+02 -0.69029169577E+02  0.58909721522E+02  0.94500292011E+02  0.00000000000E+00 0.  1.
        -13    1    4    4    0    0 -0.19231950631E+02  0.67264840233E+01 -0.46210845007E+02  0.50503026728E+02  0.00000000000E+00 0.  1.
         13    1    4    4    0    0  0.42890581816E+02  0.41975580702E+02  0.84730346959E+01  0.60608115799E+02  0.00000000000E+00 0. -1.
         21    1    1    2  502  501 -0.21022479272E+02  0.29884440056E+02  0.38274090152E+02  0.52914368268E+02  0.00000000000E+00 0.  1.
<scales pt_clust_5="13000.00000" pt_clust_6="13000.00000" pt_clust_7="13000.00000" pt_clust_8="13000.00000" pt_clust_9="36.53799"></scales>
<clustering>
<clus scale="   36.538">  1  9  2 -1</clus>
<clus scale="   89.386">  7  8 -1 -1</clus>
<clus scale="  107.931">  2  7  1 -1</clus>
<clus scale="  110.119">  5  6 -1 -1</clus>
<clus scale="  107.931">  2  5  1 -1</clus>
</clustering>
</event>
<event>
 9    1  0.1748361E-005  0.9458162E+02  0.7546771E-02  0.1297895E+00
          2   -1    0    0  502    0  0.00000000000E+00  0.00000000000E+00  0.44832721064E+03  0.44832721064E+03  0.00000000000E+00 0. -1.
         -2   -1    0    0    0  501 -0.00000000000E+00 -0.00000000000E+00 -0.33119842750E+02  0.33119842750E+02  0.00000000000E+00 0.  1.
         23    2    1    2    0    0 -0.15133184250E+02  0.34748822051E+02  0.12483843551E+03  0.15940024672E+03  0.91582256888E+02 0.  0.
         23    2    1    2    0    0 -0.15678782923E+02 -0.17840031441E+02  0.26607738034E+03  0.27932252760E+03  0.81607665945E+02 0.  0.
        -13    1    3    3    0    0 -0.43070328752E+02  0.49869709416E+02  0.70825436129E+02  0.96738221707E+02  0.00000000000E+00 0. -1.
         13    1    3    3    0    0  0.27937144502E+02 -0.15120887365E+02  0.54012999377E+02  0.62662025018E+02  0.00000000000E+00 0.  1.
        -13    1    4    4    0    0 -0.49067557324E+02 -0.54094765105E+01  0.15385378705E+03  0.16157931615E+03  0.00000000000E+00 0. -1.
         13    1    4    4    0    0  0.33388774400E+02 -0.12430554930E+02  0.11222359329E+03  0.11774321145E+03  0.00000000000E+00 0.  1.
         21    1    1    2  502  501  0.30811967173E+02 -0.16908790611E+02  0.24291552046E+02  0.42724279067E+02  0.00000000000E+00 0.  1.
<scales pt_clust_5="13000.00000" pt_clust_6="13000.00000" pt_clust_7="13000.00000" pt_clust_8="13000.00000" pt_clust_9="35.14661"></scales>
<clustering>
<clus scale="   35.147">  2  9  1 -1</clus>
<clus scale="   81.608">  7  8 -1 -1</clus>
<clus scale="   84.960">  1  7  2 -1</clus>
<clus scale="   91.582">  5  6 -1 -1</clus>
<clus scale="   84.960">  1  5  2 -1</clus>
</clustering>
</event>
<event>
 9    1  0.1748361E-005  0.1017654E+03  0.7546771E-02  0.1277133E+00
         -1   -1    0    0    0  501 -0.00000000000E+00  0.00000000000E+00  0.14256127649E+03  0.14256127649E+03  0.00000000000E+00 0.  1.
          1   -1    0    0  502    0  0.00000000000E+00 -0.00000000000E+00 -0.15383969921E+03  0.15383969921E+03  0.00000000000E+00 0. -1.
         23    2    1    2    0    0  0.38726697251E+02 -0.21445138394E+02  0.70580051380E+02  0.12317153911E+03  0.90719531270E+02 0.  0.
         23    2    1    2    0    0 -0.12278960763E+02  0.44843688578E+02 -0.90313264226E+02  0.13691885421E+03  0.91807176522E+02 0.  0.
        -11    1    4    4    0    0 -0.45713108695E+02  0.42069952456E+02 -0.81037900662E+02  0.10211126554E+03  0.00000000000E+00 0. -1.
         11    1    4    4    0    0  0.33434147932E+02  0.27737361222E+01 -0.92753635632E+01  0.34807588673E+02  0.00000000000E+00 0.  1.
        -13    1    3    3    0    0  0.61570581919E+02 -0.17350536855E+02  0.76001425595E+02  0.99338785876E+02  0.00000000000E+00 0.  1.
         13    1    3    3    0    0 -0.22843884667E+02 -0.40946015394E+01 -0.54213742147E+01  0.23832753237E+02  0.00000000000E+00 0. -1.
         21    1    1    2  502  501 -0.26447736488E+02 -0.23398550184E+02  0.84547901267E+01  0.36310582371E+02  0.00000000000E+00 0. -1.
<scales pt_clust_5="13000.00000" pt_clust_6="13000.00000" pt_clust_7="13000.00000" pt_clust_8="13000.00000" pt_clust_9="35.31253"></scales>
<clustering>
<clus scale="   35.313">  1  9  2 -1</clus>
<clus scale="   90.720">  7  8 -1 -1</clus>
<clus scale="   91.807">  5  6 -1 -1</clus>
<clus scale="  100.785">  1  7  2 -1</clus>
<clus scale="  101.765">  2  5  1 -1</clus>
</clustering>
</event>
<event>
 9    1  0.1748361E-005  0.2262366E+03  0.7546771E-02  0.1129467E+00
         -1   -1    0    0    0  501 -0.00000000000E+00  0.00000000000E+00  0.68601964737E+03  0.68601964737E+03  0.00000000000E+00 0.  1.
          1   -1    0    0  502    0  0.00000000000E+00 -0.00000000000E+00 -0.13816846671E+03  0.13816846671E+03  0.00000000000E+00 0. -1.
         23    2    1    2    0    0 -0.52723479409E+02  0.17715598532E+03  0.34012334587E+03  0.39752173402E+03  0.90419191524E+02 0.  0.
         23    2    1    2    0    0  0.61994153703E+02 -0.20463621742E+03  0.16818232038E+02  0.23356644485E+03  0.92472561647E+02 0.  0.
        -11    1    4    4    0    0  0.77448039450E+02 -0.17699092560E+03 -0.79536975505E+01  0.19335782339E+03  0.00000000000E+00 0. -1.
         11    1    4    4    0    0 -0.15453885747E+02 -0.27645291816E+02  0.24771929588E+02  0.40208621461E+02  0.00000000000E+00 0.  1.
        -11    1    3    3    0    0 -0.44165966740E+02  0.82067458181E+02  0.24765423027E+03  0.26460974676E+03  0.00000000000E+00 0.  1.
         11    1    3    3    0    0 -0.85575126696E+01  0.95088527142E+02  0.92469115596E+02  0.13291198726E+03  0.00000000000E+00 0. -1.
         21    1    1    2  502  501 -0.92706742934E+01  0.27480232094E+02  0.19090960276E+03  0.19309993522E+03  0.00000000000E+00 0.  1.
<scales pt_clust_5="13000.00000" pt_clust_6="13000.00000" pt_clust_7="13000.00000" pt_clust_8="13000.00000" pt_clust_9="29.00187"></scales>
<clustering>
<clus scale="   29.002">  1  9  2 -1</clus>
<clus scale="   90.419">  7  8 -1 -1</clus>
<clus scale="   92.473">  5  6 -1 -1</clus>
<clus scale="  225.405">  1  7  2 -1</clus>
<clus scale="  226.237">  2  5  1 -1</clus>
</clustering>
</event>
<event>
 9    1  0.1748361E-005  0.1044148E+03  0.7546771E-02  0.1273592E+00
          1   -1    0    0  502    0  0.00000000000E+00  0.00000000000E+00  0.23583351605E+03  0.23583351605E+03  0.00000000000E+00 0. -1.
         -1   -1    0    0    0  501 -0.00000000000E+00 -0.00000000000E+00 -0.14932187245E+03  0.14932187245E+03  0.00000000000E+00 0.  1.
         23    2    1    2    0    0  0.59296286115E+02 -0.13979389336E+02 -0.86307284494E+02  0.13870340913E+03  0.89878893374E+02 0.  0.
         23    2    1    2    0    0 -0.52330157838E+02 -0.57359543628E+01  0.19313192158E+03  0.21729997387E+03  0.84545803689E+02 0.  0.
        -11    1    4    4    0    0 -0.17855765159E+02  0.26881890643E+02  0.20428235936E+02  0.38193942156E+02  0.00000000000E+00 0.  1.
         11    1    4    4    0    0 -0.34474392678E+02 -0.32617845006E+02  0.17270368564E+03  0.17910603172E+03  0.00000000000E+00 0. -1.
        -13    1    3    3    0    0  0.77224802678E+02 -0.30756489023E+02 -0.73749842135E+02  0.11112457415E+03  0.00000000000E+00 0.  1.
         13    1    3    3    0    0 -0.17928516563E+02  0.16777099687E+02 -0.12557442359E+02  0.27578834976E+02  0.00000000000E+00 0. -1.
         21    1    1    2  502  501 -0.69661282777E+01  0.19715343699E+02 -0.20312993482E+02  0.29152005498E+02  0.00000000000E+00 0. -1.
<scales pt_clust_5="13000.00000" pt_clust_6="13000.00000" pt_clust_7="13000.00000" pt_clust_8="13000.00000" pt_clust_9="20.90985"></scales>
<clustering>
<clus scale="   20.910">  2  9  1 -1</clus>
<clus scale="   84.546">  5  6 -1 -1</clus>
<clus scale="   89.879">  7  8 -1 -1</clus>
<clus scale="   99.861">  1  5  2 -1</clus>
<clus scale="   99.861">  1  5  2 -1</clus>
</clustering>
</event>
<event>
 9    1  0.1748361E-005  0.1303525E+03  0.7546771E-02  0.1227149E+00
         -2   -1    0    0    0  501 -0.00000000000E+00  0.00000000000E+00  0.41167237224E+02  0.41167237224E+02  0.00000000000E+00 0.  1.
          2   -1    0    0  502    0  0.00000000000E+00 -0.00000000000E+00 -0.58796325549E+03  0.58796325549E+03  0.00000000000E+00 0. -1.
         23    2    1    2    0    0 -0.82582235670E+02  0.47466634648E+02 -0.22089701349E+03  0.25662670573E+03  0.89380470292E+02 0.  0.
         23    2    1    2    0    0  0.10020640187E+03 -0.42980799145E+01 -0.24266025756E+03  0.27709506417E+03  0.88531788203E+02 0.  0.
        -11    1    4    4    0    0  0.58976913098E+02  0.38508575979E+01 -0.43077371525E+02  0.73135253608E+02  0.00000000000E+00 0.  1.
         11    1    4    4    0    0  0.41229488768E+02 -0.81489375124E+01 -0.19958288603E+03  0.20395981056E+03  0.00000000000E+00 0. -1.
        -11    1    3    3    0    0 -0.61036760602E+02  0.44175353764E+02 -0.22236375067E+03  0.23478199598E+03  0.00000000000E+00 0.  1.
         11    1    3    3    0    0 -0.21545475067E+02  0.32912808837E+01  0.14667371822E+01  0.21844709742E+02  0.00000000000E+00 0. -1.
         21    1    1    2  502  501 -0.17624166196E+02 -0.43168554733E+02 -0.83238747224E+02  0.95408722826E+02  0.00000000000E+00 0. -1.
<scales pt_clust_5="13000.00000" pt_clust_6="13000.00000" pt_clust_7="13000.00000" pt_clust_8="13000.00000" pt_clust_9="46.62762"></scales>
<clustering>
<clus scale="   46.628">  2  9  1 -1</clus>
<clus scale="   88.532">  5  6 -1 -1</clus>
<clus scale="   89.380">  7  8 -1 -1</clus>
<clus scale="  129.772">  2  5  1 -1</clus>
<clus scale="   46.628">  2  5  1 -1</clus>
</clustering>
</event>
<event>
 9    1  0.1748361E-005  0.1048434E+03  0.7546771E-02  0.1271476E+00
         -2   -1    0    0    0  501 -0.00000000000E+00  0.00000000000E+00  0.41563843271E+02  0.41563843271E+02  0.00000000000E+00 0.  1.
          2   -1    0    0  502    0  0.00000000000E+00 -0.00000000000E+00 -0.43762831892E+03  0.43762831892E+03  0.00000000000E+00 0. -1.
         23    2    1    2    0    0  0.11208979375E+02  0.41144847569E+02 -0.15967037922E+03  0.18808849362E+03  0.89800399396E+02 0.  0.
         23    2    1    2    0    0  0.10590842427E+02 -0.57192026508E+02 -0.24018984993E+03  0.26376958862E+03  0.92196193131E+02 0.  0.
        -11    1    3    3    0    0 -0.89451122985E+01  0.66291988530E+02 -0.11434315659E+03  0.13247263957E+03  0.00000000000E+00 0.  1.
         11    1    3    3    0    0  0.20154091674E+02 -0.25147140960E+02 -0.45327222626E+02  0.55615854041E+02  0.00000000000E+00 0. -1.
        -13    1    4    4    0    0  0.23312612176E+02 -0.39065907366E+02 -0.23708232816E+03  0.24140764970E+03  0.00000000000E+00 0. -1.
         13    1    4    4    0    0 -0.12721769749E+02 -0.18126119142E+02 -0.31075217715E+01  0.22361938920E+02  0.00000000000E+00 0.  1.
         21    1    1    2  502  501 -0.21799821802E+02  0.16047178939E+02  0.37957535024E+01  0.27334079958E+02  0.00000000000E+00 0.  1.
<scales pt_clust_5="13000.00000" pt_clust_6="13000.00000" pt_clust_7="13000.00000" pt_clust_8="13000.00000" pt_clust_9="27.06925"></scales>
<clustering>
<clus scale="   27.069">  1  9  2 -1</clus>
<clus scale="   89.800">  5  6 -1 -1</clus>
<clus scale="   92.196">  7  8 -1 -1</clus>
<clus scale="  102.743">  1  5  2 -1</clus>
<clus scale="  104.843">  2  5  1 -1</clus>
</clustering>
</event>
<event>
 9    1  0.1748361E-005  0.1181154E+03  0.7546771E-02  0.1248837E+00
         -3   -1    0    0    0  501 -0.00000000000E+00  0.00000000000E+00  0.21891692371E+03  0.21891692371E+03  0.00000000000E+00 0.  1.
          3   -1    0    0  502    0  0.00000000000E+00 -0.00000000000E+00 -0.11117980743E+03  0.11117980743E+03  0.00000000000E+00 0. -1.
         23    2    1    2    0    0  0.40696659123E+02 -0.55211024631E+02  0.79446915135E+02  0.13986230424E+03  0.92440123960E+02 0.  0.
         23    2    1    2    0    0 -0.14528587181E+02  0.61211883695E+02 -0.33805167978E+02  0.12258375681E+03  0.99629380705E+02 0.  0.
        -11    1    3    3    0    0  0.10895437570E+02 -0.61192993099E+02  0.88501043548E+02  0.10814678762E+03  0.00000000000E+00 0.  1.
         11    1    3    3    0    0  0.29801221553E+02  0.59819684680E+01 -0.90541284128E+01  0.31715516614E+02  0.00000000000E+00 0. -1.
        -13    1    4    4    0    0  0.26622620946E+02 -0.13725735230E+02  0.17234425060E+01  0.30002166717E+02  0.00000000000E+00 0.  1.
         13    1    4    4    0    0 -0.41151208127E+02  0.74937618925E+02 -0.35528610484E+02  0.92581590089E+02  0.00000000000E+00 0. -1.
         21    1    1    2  502  501 -0.26168071942E+02 -0.60008590636E+01  0.62095369123E+02  0.67650670101E+02  0.00000000000E+00 0.  1.
<scales pt_clust_5="13000.00000" pt_clust_6="13000.00000" pt_clust_7="13000.00000" pt_clust_8="13000.00000" pt_clust_9="26.84731"></scales>
<clustering>
<clus scale="   26.847">  1  9  2 -1</clus>
<clus scale="   92.440">  5  6 -1 -1</clus>
<clus scale="   99.629">  7  8 -1 -1</clus>
<clus scale="  112.118">  1  5  2 -1</clus>
<clus scale="  118.115">  2  5  1 -1</clus>
</clustering>
</event>
<event>
 9    1  0.1748361E-005  0.1302997E+03  0.7546771E-02  0.1227432E+00
         -2   -1    0    0    0  501 -0.00000000000E+00  0.00000000000E+00  0.39832869542E+02  0.39832869542E+02  0.00000000000E+00 0.  1.
          2   -1    0    0  502    0  0.00000000000E+00 -0.00000000000E+00 -0.55573546557E+03  0.55573546557E+03  0.00000000000E+00 0. -1.
         23    2    1    2    0    0  0.30387340976E+02  0.82829416244E+02 -0.19378670298E+03  0.23206843278E+03  0.92295008291E+02 0.  0.
         23    2    1    2    0    0 -0.41182242989E+01 -0.93661410582E+02 -0.29812092555E+03  0.32630908280E+03  0.93872848370E+02 0.  0.
        -13    1    4    4    0    0 -0.28298573353E+02 -0.57171864448E+02 -0.72885295845E+02  0.96859164195E+02  0.00000000000E+00 0.  1.
         13    1    4    4    0    0  0.24180349054E+02 -0.36489546135E+02 -0.22523562970E+03  0.22944991860E+03  0.00000000000E+00 0. -1.
        -13    1    3    3    0    0  0.41027469832E+02 -0.21966776300E+01 -0.50358990151E+02  0.64993127041E+02  0.00000000000E+00 0. -1.
         13    1    3    3    0    0 -0.10640128856E+02  0.85026093874E+02 -0.14342771283E+03  0.16707530574E+03  0.00000000000E+00 0.  1.
         21    1    1    2  502  501 -0.26269116677E+02  0.10831994338E+02 -0.23994967498E+02  0.37190819534E+02  0.00000000000E+00 0.  1.
<scales pt_clust_5="13000.00000" pt_clust_6="13000.00000" pt_clust_7="13000.00000" pt_clust_8="13000.00000" pt_clust_9="28.41476"></scales>
<clustering>
<clus scale="   28.415">  1  9  2 -1</clus>
<clus scale="   92.295">  7  8 -1 -1</clus>
<clus scale="   93.873">  5  6 -1 -1</clus>
<clus scale="  129.168">  1  7  2 -1</clus>
<clus scale="  130.300">  2  5  1 -1</clus>
</clustering>
</event>
<event>
 9    1  0.1748361E-005  0.1067237E+03  0.7546771E-02  0.1267029E+00
          3   -1    0    0  502    0  0.00000000000E+00  0.00000000000E+00  0.11394837401E+03  0.11394837401E+03  0.00000000000E+00 0. -1.
         -3   -1    0    0    0  501 -0.00000000000E+00 -0.00000000000E+00 -0.28915032080E+03  0.28915032080E+03  0.00000000000E+00 0.  1.
         23    2    1    2    0    0 -0.31147814427E+01 -0.10161682010E+02 -0.17160388434E+03  0.19448765369E+03  0.90909805139E+02 0.  0.
         23    2    1    2    0    0 -0.58951274119E+02 -0.35860950676E+02  0.38096314231E+02  0.12081184398E+03  0.91558243666E+02 0.  0.
        -11    1    4    4    0    0 -0.27251122417E+02 -0.58442916009E+02 -0.25520147793E+01  0.64534571232E+02  0.00000000000E+00 0.  1.
         11    1    4    4    0    0 -0.31700151702E+02  0.22581965333E+02  0.40648329010E+02  0.56277272744E+02  0.00000000000E+00 0. -1.
        -13    1    3    3    0    0  0.13817241880E+02 -0.34845836363E+02 -0.25470124152E+02  0.45319705529E+02  0.00000000000E+00 0.  1.
         13    1    3    3    0    0 -0.16932023322E+02  0.24684154353E+02 -0.14613376019E+03  0.14916794816E+03  0.00000000000E+00 0. -1.
         21    1    1    2  502  501  0.62066055562E+02  0.46022632685E+02 -0.41694376682E+02  0.87799197144E+02  0.00000000000E+00 0.  1.
<scales pt_clust_5="13000.00000" pt_clust_6="13000.00000" pt_clust_7="13000.00000" pt_clust_8="13000.00000" pt_clust_9="77.26757"></scales>
<clustering>
<clus scale="   77.268">  2  9  1 -1</clus>
<clus scale="   90.910">  7  8 -1 -1</clus>
<clus scale="   91.558">  5  6 -1 -1</clus>
<clus scale="  106.168">  2  7  1 -1</clus>
<clus scale="  106.724">  1  5  2 -1</clus>
</clustering>
</event>
<event>
 9    1  0.1748361E-005  0.9990646E+02  0.7546771E-02  0.1282554E+00
         -2   -1    0    0    0  501 -0.00000000000E+00  0.00000000000E+00  0.16563613282E+03  0.16563613282E+03  0.00000000000E+00 0.  1.
          2   -1    0    0  502    0  0.00000000000E+00 -0.00000000000E+00 -0.80448611723E+02  0.80448611723E+02  0.00000000000E+00 0. -1.
         23    2    1    2    0    0  0.38214114333E+02  0.27752702906E+02  0.50746832543E+02  0.11498742452E+03  0.91740589334E+02 0.  0.
         23    2    1    2    0    0 -0.36573538968E+02  0.35572515714E+01  0.28974188168E+02  0.99271428628E+02  0.87550186582E+02 0.  0.
        -11    1    4    4    0    0  0.24075489637E+02  0.76028508645E+01 -0.99007097336E+01  0.27119303010E+02  0.00000000000E+00 0.  1.
         11    1    4    4    0    0 -0.60649028605E+02 -0.40455992931E+01  0.38874897901E+02  0.72152125618E+02  0.00000000000E+00 0. -1.
        -13    1    3    3    0    0  0.44042315097E+02 -0.19601577278E+02  0.42956851006E+01  0.48398349779E+02  0.00000000000E+00 0. -1.
         13    1    3    3    0    0 -0.58282007638E+01  0.47354280184E+02  0.46451147442E+02  0.66589074739E+02  0.00000000000E+00 0.  1.
         21    1    1    2  502  501 -0.16405753650E+01 -0.31309954477E+02  0.54665003889E+01  0.31825891400E+02  0.00000000000E+00 0. -1.
<scales pt_clust_5="13000.00000" pt_clust_6="13000.00000" pt_clust_7="13000.00000" pt_clust_8="13000.00000" pt_clust_9="31.35291"></scales>
<clustering>
<clus scale="   31.353">  2  9  1 -1</clus>
<clus scale="   87.550">  5  6 -1 -1</clus>
<clus scale="   91.741">  7  8 -1 -1</clus>
<clus scale="   96.073">  2  5  1 -1</clus>
<clus scale="   31.353">  2  5  1 -1</clus>
</clustering>
</event>
<event>
 9    1  0.1748361E-005  0.1320157E+03  0.7546771E-02  0.1225911E+00
          1   -1    0    0  502    0  0.00000000000E+00  0.00000000000E+00  0.23009055994E+03  0.23009055994E+03  0.00000000000E+00 0. -1.
         -1   -1    0    0    0  501 -0.00000000000E+00 -0.00000000000E+00 -0.11897723425E+03  0.11897723425E+03  0.00000000000E+00 0.  1.
         23    2    1    2    0    0  0.16245920045E+02 -0.92837515104E+02 -0.34052176123E+02  0.13822730110E+03  0.95207677950E+02 0.  0.
         23    2    1    2    0    0 -0.39102362405E+02  0.77416450875E+02  0.11218876637E+03  0.16785571370E+03  0.89816032585E+02 0.  0.
        -13    1    4    4    0    0 -0.51588232034E+02  0.70591495063E+01  0.35402149163E+02  0.62964191740E+02  0.00000000000E+00 0. -1.
         13    1    4    4    0    0  0.12485869629E+02  0.70357301368E+02  0.76786617210E+02  0.10489152196E+03  0.00000000000E+00 0.  1.
        -13    1    3    3    0    0 -0.33414754184E+02 -0.68461851621E+02 -0.65906289468E+01  0.76465726403E+02  0.00000000000E+00 0. -1.
         13    1    3    3    0    0  0.49660674229E+02 -0.24375663484E+02 -0.27461547177E+02  0.61761574693E+02  0.00000000000E+00 0.  1.
         21    1    1    2  502  501  0.22856442360E+02  0.15421064230E+02  0.32976735439E+02  0.42984779394E+02  0.00000000000E+00 0.  1.
<scales pt_clust_5="13000.00000" pt_clust_6="13000.00000" pt_clust_7="13000.00000" pt_clust_8="13000.00000" pt_clust_9="27.57220"></scales>
<clustering>
<clus scale="   27.572">  1  9  2 -1</clus>
<clus scale="   89.816">  5  6 -1 -1</clus>
<clus scale="   95.208">  7  8 -1 -1</clus>
<clus scale="  128.182">  1  5  2 -1</clus>
<clus scale="   27.572">  1  5  2 -1</clus>
</clustering>
</event>
<event>
 9    1  0.1748361E-005  0.1273407E+03  0.7546771E-02  0.1233397E+00
          2   -1    0    0  502    0  0.00000000000E+00  0.00000000000E+00  0.37157594907E+03  0.37157594907E+03  0.00000000000E+00 0. -1.
         -2   -1    0    0    0  501 -0.00000000000E+00 -0.00000000000E+00 -0.66109815280E+02  0.66109815280E+02  0.00000000000E+00 0.  1.
         23    2    1    2    0    0  0.10327001103E+03 -0.22395649859E+02  0.13677781779E+03  0.19212181852E+03  0.83883022123E+02 0.  0.
         23    2    1    2    0    0 -0.71952060910E+02  0.31734595664E+02  0.17493615569E+03  0.21229135338E+03  0.90998772089E+02 0.  0.
        -13    1    4    4    0    0 -0.21308332009E+02  0.42918588124E+02  0.14431582701E+03  0.15206284275E+03  0.00000000000E+00 0. -1.
         13    1    4    4    0    0 -0.50643728901E+02 -0.11183992460E+02  0.30620328677E+02  0.60228510629E+02  0.00000000000E+00 0.  1.
        -13    1    3    3    0    0  0.54582240585E+02  0.16077158364E+02  0.20793842810E+02  0.60581184432E+02  0.00000000000E+00 0. -1.
         13    1    3    3    0    0  0.48687770441E+02 -0.38472808222E+02  0.11598397498E+03  0.13154063408E+03  0.00000000000E+00 0.  1.
         21    1    1    2  502  501 -0.31317950116E+02 -0.93389458053E+01 -0.62478396826E+01  0.33272592459E+02  0.00000000000E+00 0.  1.
<scales pt_clust_5="13000.00000" pt_clust_6="13000.00000" pt_clust_7="13000.00000" pt_clust_8="13000.00000" pt_clust_9="32.68073"></scales>
<clustering>
<clus scale="   32.681">  2  9  1 -1</clus>
<clus scale="   83.883">  7  8 -1 -1</clus>
<clus scale="   90.999">  5  6 -1 -1</clus>
<clus scale="  122.357">  2  7  1 -1</clus>
<clus scale="  127.341">  1  5  2 -1</clus>
</clustering>
</event>
<event>
 9    1  0.1748361E-005  0.1065828E+03  0.7546771E-02  0.1267493E+00
         -1   -1    0    0    0  501 -0.00000000000E+00  0.00000000000E+00  0.21358805693E+02  0.21358805693E+02  0.00000000000E+00 0.  1.
          1   -1    0    0  502    0  0.00000000000E+00 -0.00000000000E+00 -0.97165739374E+03  0.97165739374E+03  0.00000000000E+00 0. -1.
         23    2    1    2    0    0 -0.27291961197E+02  0.40217824537E+02 -0.34052726206E+03  0.35617632787E+03  0.92414478148E+02 0.  0.
         23    2    1    2    0    0  0.56451442766E+02 -0.20468893462E+02 -0.58149173470E+03  0.59167317003E+03  0.91316820039E+02 0.  0.
        -11    1    4    4    0    0  0.80944441794E+02 -0.21879889551E+02 -0.47919257879E+03  0.48647328785E+03  0.00000000000E+00 0.  1.
         11    1    4    4    0    0 -0.24492999028E+02  0.14109960889E+01 -0.10229915591E+03  0.10519988218E+03  0.00000000000E+00 0. -1.
        -13    1    3    3    0    0 -0.18638386897E+02  0.70472663643E+02 -0.24296536020E+03  0.25366503907E+03  0.00000000000E+00 0. -1.
         13    1    3    3    0    0 -0.86535743002E+01 -0.30254839106E+02 -0.97561901860E+02  0.10251128880E+03  0.00000000000E+00 0.  1.
         21    1    1    2  502  501 -0.29159481569E+02 -0.19748931075E+02 -0.28279591289E+02  0.45166701534E+02  0.00000000000E+00 0. -1.
<scales pt_clust_5="13000.00000" pt_clust_6="13000.00000" pt_clust_7="13000.00000" pt_clust_8="13000.00000" pt_clust_9="35.21783"></scales>
<clustering>
<clus scale="   35.218">  1  9  2 -1</clus>
<clus scale="   91.317">  5  6 -1 -1</clus>
<clus scale="   92.414">  7  8 -1 -1</clus>
<clus scale="  105.632">  2  5  1 -1</clus>
<clus scale="  105.632">  2  5  1 -1</clus>
</clustering>
</event>
<event>
 9    1  0.1748361E-005  0.1832322E+03  0.7546771E-02  0.1164882E+00
         -2   -1    0    0    0  501 -0.00000000000E+00  0.00000000000E+00  0.29334112241E+03  0.29334112241E+03  0.00000000000E+00 0.  1.
          2   -1    0    0  502    0  0.00000000000E+00 -0.00000000000E+00 -0.15128600461E+03  0.15128600461E+03  0.00000000000E+00 0. -1.
         23    2    1    2    0    0 -0.16791711594E+03 -0.47071294195E+02  0.11570870318E+03  0.22772509623E+03  0.89768317886E+02 0.  0.
         23    2    1    2    0    0  0.14126038226E+03  0.54230439229E+02 -0.28701733670E+01  0.17670944663E+03  0.91228035703E+02 0.  0.
        -11    1    4    4    0    0  0.73444612424E+01  0.24015586251E+02  0.26297641466E+02  0.36362830481E+02  0.00000000000E+00 0.  1.
         11    1    4    4    0    0  0.13391592102E+03  0.30214852978E+02 -0.29167814833E+02  0.14034661615E+03  0.00000000000E+00 0. -1.
        -13    1    3    3    0    0 -0.13139406267E+03 -0.53752708235E+02  0.12532850510E+03  0.18936997528E+03  0.00000000000E+00 0.  1.
         13    1    3    3    0    0 -0.36523053272E+02  0.66814140404E+01 -0.96198019164E+01  0.38355120946E+02  0.00000000000E+00 0. -1.
         21    1    1    2  502  501  0.26656733681E+02 -0.71591450343E+01  0.29216587988E+02  0.40192584165E+02  0.00000000000E+00 0. -1.
<scales pt_clust_5="13000.00000" pt_clust_6="13000.00000" pt_clust_7="13000.00000" pt_clust_8="13000.00000" pt_clust_9="27.60136"></scales>
<clustering>
<clus scale="   27.601">  1  9  2 -1</clus>
<clus scale="   89.768">  7  8 -1 -1</clus>
<clus scale="   91.228">  5  6 -1 -1</clus>
<clus scale="  182.510">  1  7  2 -1</clus>
<clus scale="  183.232">  2  5  1 -1</clus>
</clustering>
</event>
<event>
 9    1  0.1748361E-005  0.1145939E+03  0.7546771E-02  0.1253863E+00
         -2   -1    0    0    0  501 -0.00000000000E+00  0.00000000000E+00  0.22878155207E+02  0.22878155207E+02  0.00000000000E+00 0.  1.
          2   -1    0    0  502    0  0.00000000000E+00 -0.00000000000E+00 -0.85829511395E+03  0.85829511395E+03  0.00000000000E+00 0. -1.
         23    2    1    2    0    0  0.79736098156E+02  0.17295613445E+02 -0.44006483602E+03  0.45695644409E+03  0.92169128797E+02 0.  0.
         23    2    1    2    0    0 -0.43803128735E+02  0.52591620186E+01 -0.32715952150E+03  0.34390414208E+03  0.96386376398E+02 0.  0.
        -11    1    3    3    0    0  0.22797074395E+02  0.51616544624E+02 -0.18962546154E+03  0.19784284153E+03  0.00000000000E+00 0.  1.
         11    1    3    3    0    0  0.56939023762E+02 -0.34320931179E+02 -0.25043937448E+03  0.25911360256E+03  0.00000000000E+00 0. -1.
        -11    1    4    4    0    0 -0.28718359080E+02 -0.44216928318E+02 -0.19443576825E+03  0.20145756098E+03  0.00000000000E+00 0. -1.
         11    1    4    4    0    0 -0.15084769655E+02  0.49476090337E+02 -0.13272375325E+03  0.14244658110E+03  0.00000000000E+00 0.  1.
         21    1    1    2  502  501 -0.35932969422E+02 -0.22554775464E+02 -0.68192601220E+02  0.80312682989E+02  0.00000000000E+00 0.  1.
<scales pt_clust_5="13000.00000" pt_clust_6="13000.00000" pt_clust_7="13000.00000" pt_clust_8="13000.00000" pt_clust_9="42.42518"></scales>
<clustering>
<clus scale="   42.425">  1  9  2 -1</clus>
<clus scale="   92.169">  5  6 -1 -1</clus>
<clus scale="   96.386">  7  8 -1 -1</clus>
<clus scale="  111.070">  1  5  2 -1</clus>
<clus scale="  114.594">  2  5  1 -1</clus>
</clustering>
</event>
<event>
 9    1  0.1748361E-005  0.1473555E+03  0.7546771E-02  0.1204097E+00
          1   -1    0    0  502    0  0.00000000000E+00  0.00000000000E+00  0.95722834332E+02  0.95722834332E+02  0.00000000000E+00 0. -1.
         -1   -1    0    0    0  501 -0.00000000000E+00 -0.00000000000E+00 -0.68854998908E+03  0.68854998908E+03  0.00000000000E+00 0.  1.
         23    2    1    2    0    0 -0.12307660911E+03  0.43419595123E+02 -0.73221000880E+02  0.17581585293E+03  0.92286435745E+02 0.  0.
         23    2    1    2    0    0  0.10612729310E+03  0.20851940626E+02 -0.76672593123E+02  0.16056384834E+03  0.90577354182E+02 0.  0.
        -13    1    4    4    0    0  0.21047002684E+02 -0.27350966346E+02  0.27022748858E+01  0.34617249625E+02  0.00000000000E+00 0.  1.
         13    1    4    4    0    0  0.85080290415E+02  0.48202906972E+02 -0.79374868008E+02  0.12594659872E+03  0.00000000000E+00 0. -1.
        -13    1    3    3    0    0 -0.40592590010E+02  0.92602526246E+00 -0.72420299046E+02  0.83025993523E+02  0.00000000000E+00 0.  1.
         13    1    3    3    0    0 -0.82484019097E+02  0.42493569861E+02 -0.80070183422E+00  0.92789859410E+02  0.00000000000E+00 0. -1.
         21    1    1    2  502  501  0.16949316007E+02 -0.64271535750E+02 -0.44293356074E+03  0.44789312213E+03  0.00000000000E+00 0.  1.
<scales pt_clust_5="13000.00000" pt_clust_6="13000.00000" pt_clust_7="13000.00000" pt_clust_8="13000.00000" pt_clust_9="66.46886"></scales>
<clustering>
<clus scale="   66.469">  2  9  1 -1</clus>
<clus scale="   90.577">  5  6 -1 -1</clus>
<clus scale="   92.286">  7  8 -1 -1</clus>
<clus scale="  146.291">  1  5  2 -1</clus>
<clus scale="  146.291">  1  5  2 -1</clus>
</clustering>
</event>
<event>
 9    1  0.1748361E-005  0.1143973E+03  0.7546771E-02  0.1253154E+00
         -1   -1    0    0    0  501 -0.00000000000E+00  0.00000000000E+00  0.29000975384E+03  0.29000975384E+03  0.00000000000E+00 0.  1.
          1   -1    0    0  502    0  0.00000000000E+00 -0.00000000000E+00 -0.84971017886E+02  0.84971017886E+02  0.00000000000E+00 0. -1.
         23    2    1    2    0    0 -0.24906037821E+02  0.49821370226E+02  0.19058129008E+03  0.21951913727E+03  0.93621278809E+02 0.  0.
         23    2    1    2    0    0  0.49541864528E+02 -0.47800271298E+02 -0.16080005572E+02  0.11617366252E+03  0.92187260546E+02 0.  0.
        -11    1    3    3    0    0 -0.13944541650E+02 -0.22775869099E+02  0.18666160729E+02  0.32582449438E+02  0.00000000000E+00 0. -1.
         11    1    3    3    0    0 -0.10961496171E+02  0.72597239325E+02  0.17191512935E+03  0.18693668783E+03  0.00000000000E+00 0.  1.
        -13    1    4    4    0    0  0.45762612583E+02 -0.70530456756E+02 -0.29982757818E+02  0.89262129747E+02  0.00000000000E+00 0. -1.
         13    1    4    4    0    0  0.37792519455E+01  0.22730185458E+02  0.13902752246E+02  0.26911532773E+02  0.00000000000E+00 0.  1.
         21    1    1    2  502  501 -0.24635826708E+02 -0.20210989280E+01  0.30537451450E+02  0.39287971944E+02  0.00000000000E+00 0.  1.
<scales pt_clust_5="13000.00000" pt_clust_6="13000.00000" pt_clust_7="13000.00000" pt_clust_8="13000.00000" pt_clust_9="24.71859"></scales>
<clustering>
<clus scale="   24.719">  1  9  2 -1</clus>
<clus scale="   92.187">  7  8 -1 -1</clus>
<clus scale="   93.621">  5  6 -1 -1</clus>
<clus scale="  113.227">  2  7  1 -1</clus>
<clus scale="  113.227">  2  5  1 -1</clus>
</clustering>
</event>
<event>
 9    1  0.1748361E-005  0.1106011E+03  0.7546771E-02  0.1260761E+00
         -3   -1    0    0    0  501 -0.00000000000E+00  0.00000000000E+00  0.23649811558E+03  0.23649811558E+03  0.00000000000E+00 0.  1.
          3   -1    0    0  502    0  0.00000000000E+00 -0.00000000000E+00 -0.80654721635E+02  0.80654721635E+02  0.00000000000E+00 0. -1.
         23    2    1    2    0    0  0.18542156726E+02  0.25316268452E+02  0.94161224972E+02  0.13517283208E+03  0.91764008303E+02 0.  0.
         23    2    1    2    0    0 -0.31274592277E+02 -0.64567579905E+02  0.15538418158E+02  0.12007664412E+03  0.95025709823E+02 0.  0.
        -11    1    3    3    0    0  0.41073397333E+02  0.12712178788E+02  0.99870157106E+02  0.10873210997E+03  0.00000000000E+00 0. -1.
         11    1    3    3    0    0 -0.22531240608E+02  0.12604089664E+02 -0.57089321344E+01  0.26440722110E+02  0.00000000000E+00 0.  1.
        -11    1    4    4    0    0 -0.27674042672E+02  0.41924895847E+01  0.38407049621E+02  0.47524005169E+02  0.00000000000E+00 0.  1.
         11    1    4    4    0    0 -0.36005496050E+01 -0.68760069490E+02 -0.22868631463E+02  0.72552638950E+02  0.00000000000E+00 0. -1.
         21    1    1    2  502  501  0.12732435551E+02  0.39251311453E+02  0.46143750820E+02  0.61903361020E+02  0.00000000000E+00 0.  1.
<scales pt_clust_5="13000.00000" pt_clust_6="13000.00000" pt_clust_7="13000.00000" pt_clust_8="13000.00000" pt_clust_9="41.26476"></scales>
<clustering>
<clus scale="   41.265">  1  9  2 -1</clus>
<clus scale="   91.764">  5  6 -1 -1</clus>
<clus scale="   95.026">  7  8 -1 -1</clus>
<clus scale="  107.812">  1  5  2 -1</clus>
<clus scale="  110.601">  2  5  1 -1</clus>
</clustering>
</event>
<event>
 9    1  0.1748361E-005  0.1259963E+03  0.7546771E-02  0.1235328E+00
         -3   -1    0    0    0  501 -0.00000000000E+00  0.00000000000E+00  0.47837917112E+03  0.47837917112E+03  0.00000000000E+00 0.  1.
          3   -1    0    0  502    0  0.00000000000E+00 -0.00000000000E+00 -0.55703459982E+03  0.55703459982E+03  0.00000000000E+00 0. -1.
         23    2    1    2    0    0  0.81488180258E+02  0.90818143234E+02  0.32631746972E+03  0.35997277070E+03  0.90603785482E+02 0.  0.
         23    2    1    2    0    0 -0.73482219785E+02 -0.32044644711E+02 -0.52593461838E+03  0.54071848086E+03  0.96657937320E+02 0.  0.
        -11    1    3    3    0    0  0.14204417810E+02 -0.17088248684E+02  0.28474062151E+02  0.36118498637E+02  0.00000000000E+00 0. -1.
         11    1    3    3    0    0  0.67283762448E+02  0.10790639192E+03  0.29784340756E+03  0.32385427207E+03  0.00000000000E+00 0.  1.
        -11    1    4    4    0    0  0.17812452789E+02 -0.19306820313E+02 -0.56349469826E+02  0.62171533153E+02  0.00000000000E+00 0.  1.
         11    1    4    4    0    0 -0.91294672574E+02 -0.12737824398E+02 -0.46958514856E+03  0.47854694770E+03  0.00000000000E+00 0. -1.
         21    1    1    2  502  501 -0.80059604724E+01 -0.58773498523E+02  0.12096171996E+03  0.13472251938E+03  0.00000000000E+00 0.  1.
<scales pt_clust_5="13000.00000" pt_clust_6="13000.00000" pt_clust_7="13000.00000" pt_clust_8="13000.00000" pt_clust_9="59.31627"></scales>
<clustering>
<clus scale="   59.316">  1  9  2 -1</clus>
<clus scale="   90.604">  5  6 -1 -1</clus>
<clus scale="   96.658">  7  8 -1 -1</clus>
<clus scale="  121.414">  1  5  2 -1</clus>
<clus scale="  125.996">  2  5  1 -1</clus>
</clustering>
</event>
<event>
 9    1  0.1748361E-005  0.1130867E+03  0.7546771E-02  0.1255242E+00
          1   -1    0    0  502    0  0.00000000000E+00  0.00000000000E+00  0.74170193422E+03  0.74170193422E+03  0.00000000000E+00 0. -1.
         -1   -1    0    0    0  501 -0.00000000000E+00 -0.00000000000E+00 -0.23654232261E+02  0.23654232261E+02  0.00000000000E+00 0.  1.
         23    2    1    2    0    0 -0.54874466008E+02  0.53982509239E+02  0.26498513036E+03  0.29040629000E+03  0.90517267066E+02 0.  0.
         23    2    1    2    0    0  0.34448937869E+02 -0.51111492718E+02  0.43053974850E+03  0.44440937066E+03  0.91302243573E+02 0.  0.
        -11    1    4    4    0    0  0.18388533630E+02  0.24132687110E+02  0.17233366971E+03  0.17498405205E+03  0.00000000000E+00 0.  1.
         11    1    4    4    0    0  0.16060404239E+02 -0.75244179828E+02  0.25820607879E+03  0.26942531861E+03  0.00000000000E+00 0. -1.
        -13    1    3    3    0    0  0.23540566213E+02  0.13811231699E+02  0.36909464298E+02  0.45904432612E+02  0.00000000000E+00 0.  1.
         13    1    3    3    0    0 -0.78415032220E+02  0.40171277540E+02  0.22807566606E+03  0.24450185739E+03  0.00000000000E+00 0. -1.
         21    1    1    2  502  501  0.20425528139E+02 -0.28710165209E+01  0.22522823102E+02  0.30540505826E+02  0.00000000000E+00 0. -1.
<scales pt_clust_5="13000.00000" pt_clust_6="13000.00000" pt_clust_7="13000.00000" pt_clust_8="13000.00000" pt_clust_9="20.62632"></scales>
<clustering>
<clus scale="   20.626">  2  9  1 -1</clus>
<clus scale="   90.517">  7  8 -1 -1</clus>
<clus scale="   91.302">  5  6 -1 -1</clus>
<clus scale="  112.454">  2  7  1 -1</clus>
<clus scale="  113.087">  1  5  2 -1</clus>
</clustering>
</event>
<event>
 9    1  0.1748361E-005  0.2180415E+03  0.7546771E-02  0.1136595E+00
         -1   -1    0    0    0  501 -0.00000000000E+00  0.00000000000E+00  0.65364554619E+02  0.65364554619E+02  0.00000000000E+00 0.  1.
          1   -1    0    0  502    0  0.00000000000E+00 -0.00000000000E+00 -0.11446829401E+04  0.11446829401E+04  0.00000000000E+00 0. -1.
         23    2    1    2    0    0 -0.14402111086E+03  0.86986533279E+02 -0.20976981711E+03  0.28907125847E+03  0.10606638940E+03 0.  0.
         23    2    1    2    0    0  0.18667092593E+03 -0.69701327440E+02 -0.83519058460E+03  0.86354579037E+03  0.91998422878E+02 0.  0.
        -11    1    4    4    0    0  0.92512113333E+02 -0.75319460173E+01 -0.23173346366E+03  0.24963096664E+03  0.00000000000E+00 0.  1.
         11    1    4    4    0    0  0.94158812602E+02 -0.62169381423E+02 -0.60345712094E+03  0.61391482373E+03  0.00000000000E+00 0. -1.
        -13    1    3    3    0    0 -0.12843631756E+03  0.10846262242E+03 -0.19882451672E+03  0.26036746452E+03  0.00000000000E+00 0.  1.
         13    1    3    3    0    0 -0.15584793296E+02 -0.21476089141E+02 -0.10945300397E+02  0.28703793959E+02  0.00000000000E+00 0. -1.
         21    1    1    2  502  501 -0.42649815079E+02 -0.17285205839E+02 -0.34357983801E+02  0.57430445915E+02  0.00000000000E+00 0. -1.
<scales pt_clust_5="13000.00000" pt_clust_6="13000.00000" pt_clust_7="13000.00000" pt_clust_8="13000.00000" pt_clust_9="46.01940"></scales>
<clustering>
<clus scale="   46.019">  1  9  2 -1</clus>
<clus scale="   91.998">  5  6 -1 -1</clus>
<clus scale="  106.066">  7  8 -1 -1</clus>
<clus scale="  211.555">  2  5  1 -1</clus>
<clus scale="  211.555">  2  5  1 -1</clus>
</clustering>
</event>
<event>
 9    1  0.1748361E-005  0.9770044E+02  0.7546771E-02  0.1289284E+00
         -4   -1    0    0    0  501 -0.00000000000E+00  0.00000000000E+00  0.27211185397E+03  0.27211185397E+03  0.00000000000E+00 0.  1.
          4   -1    0    0  502    0  0.00000000000E+00 -0.00000000000E+00 -0.31447476897E+03  0.31447476897E+03  0.00000000000E+00 0. -1.
         23    2    1    2    0    0 -0.45168457417E+01  0.53483690496E+02  0.21157641259E+03  0.23482752793E+03  0.86593778449E+02 0.  0.
         23    2    1    2    0    0 -0.55617904169E+01 -0.24744283889E+02 -0.28919145944E+03  0.30517320445E+03  0.94105108288E+02 0.  0.
        -13    1    3    3    0    0 -0.41768853638E+02  0.48630963600E+02  0.14050077783E+03  0.15443469922E+03  0.00000000000E+00 0. -1.
         13    1    3    3    0    0  0.37252007896E+02  0.48527268969E+01  0.71075634763E+02  0.80392828707E+02  0.00000000000E+00 0.  1.
        -13    1    4    4    0    0  0.39757467732E+02 -0.11927910570E+02 -0.73603679339E+02  0.84501082261E+02  0.00000000000E+00 0.  1.
         13    1    4    4    0    0 -0.45319258149E+02 -0.12816373319E+02 -0.21558778010E+03  0.22067212219E+03  0.00000000000E+00 0. -1.
         21    1    1    2  502  501  0.10078636159E+02 -0.28739406608E+02  0.35252131852E+02  0.46585890559E+02  0.00000000000E+00 0. -1.
<scales pt_clust_5="13000.00000" pt_clust_6="13000.00000" pt_clust_7="13000.00000" pt_clust_8="13000.00000" pt_clust_9="30.45542"></scales>
<clustering>
<clus scale="   30.455">  1  9  2 -1</clus>
<clus scale="   86.594">  5  6 -1 -1</clus>
<clus scale="   90.488">  1  5  2 -1</clus>
<clus scale="   94.105">  7  8 -1 -1</clus>
<clus scale="   97.700">  2  5  1 -1</clus>
</clustering>
</event>
<event>
 9    1  0.1748361E-005  0.1013897E+03  0.7546771E-02  0.1279517E+00
          1   -1    0    0  502    0  0.00000000000E+00  0.00000000000E+00  0.73189566327E+02  0.73189566327E+02  0.00000000000E+00 0. -1.
         -1   -1    0    0    0  501 -0.00000000000E+00 -0.00000000000E+00 -0.34640629263E+03  0.34640629263E+03  0.00000000000E+00 0.  1.
         23    2    1    2    0    0  0.81067199238E+01 -0.88100656316E+01 -0.86745536251E+02  0.13080548442E+03  0.97169699659E+02 0.  0.
         23    2    1    2    0    0 -0.37212090402E+02  0.66444581964E+01 -0.32155214211E+00  0.10036664954E+03  0.92975655131E+02 0.  0.
        -13    1    3    3    0    0 -0.28341042436E+02  0.30161022958E+02 -0.54594425893E+02  0.68508782874E+02  0.00000000000E+00 0.  1.
         13    1    3    3    0    0  0.36447762360E+02 -0.38971088590E+02 -0.32151110357E+02  0.62296701551E+02  0.00000000000E+00 0. -1.
        -13    1    4    4    0    0 -0.53012303356E+02 -0.29677848423E+02 -0.49054038156E+00  0.60756231154E+02  0.00000000000E+00 0. -1.
         13    1    4    4    0    0  0.15800212954E+02  0.36322306620E+02  0.16898823945E+00  0.39610418385E+02  0.00000000000E+00 0.  1.
         21    1    1    2  502  501  0.29105370478E+02  0.21656074352E+01 -0.18614963791E+03  0.18842372499E+03  0.00000000000E+00 0.  1.
<scales pt_clust_5="13000.00000" pt_clust_6="13000.00000" pt_clust_7="13000.00000" pt_clust_8="13000.00000" pt_clust_9="29.18583"></scales>
<clustering>
<clus scale="   29.186">  2  9  1 -1</clus>
<clus scale="   92.976">  7  8 -1 -1</clus>
<clus scale="   97.170">  5  6 -1 -1</clus>
<clus scale="   97.378">  1  7  2 -1</clus>
<clus scale="   97.378">  1  5  2 -1</clus>
</clustering>
</event>
<event>
 9    1  0.1748361E-005  0.1566044E+03  0.7546771E-02  0.1193324E+00
          2   -1    0    0  502    0  0.00000000000E+00  0.00000000000E+00  0.91322897424E+03  0.91322897424E+03  0.00000000000E+00 0. -1.
         -2   -1    0    0    0  501 -0.00000000000E+00 -0.00000000000E+00 -0.84464240498E+02  0.84464240498E+02  0.00000000000E+00 0.  1.
         23    2    1    2    0    0  0.13505824958E+03  0.23212107351E+02  0.40758315493E+02  0.17084324271E+03  0.93523476155E+02 0.  0.
         23    2    1    2    0    0 -0.11806496059E+03 -0.39435795489E+02  0.78861350786E+03  0.80334787668E+03  0.89230203969E+02 0.  0.
        -13    1    4    4    0    0 -0.10029916185E+03 -0.66699770645E+02  0.60530268085E+03  0.61717105952E+03  0.00000000000E+00 0. -1.
         13    1    4    4    0    0 -0.17765798739E+02  0.27263975156E+02  0.18331082701E+03  0.18617681716E+03  0.00000000000E+00 0.  1.
        -13    1    3    3    0    0  0.61016664432E+02 -0.21894646568E+01  0.64725341407E+02  0.88978631784E+02  0.00000000000E+00 0. -1.
         13    1    3    3    0    0  0.74041585148E+02  0.25401572008E+02 -0.23967025914E+02  0.81864610930E+02  0.00000000000E+00 0.  1.
         21    1    1    2  502  501 -0.16993288993E+02  0.16223688138E+02 -0.60708961583E+00  0.23502095341E+02  0.00000000000E+00 0. -1.
<scales pt_clust_5="13000.00000" pt_clust_6="13000.00000" pt_clust_7="13000.00000" pt_clust_8="13000.00000" pt_clust_9="23.49425"></scales>
<clustering>
<clus scale="   23.494">  2  9  1 -1</clus>
<clus scale="   89.230">  5  6 -1 -1</clus>
<clus scale="   93.523">  7  8 -1 -1</clus>
<clus scale="  154.079">  1  5  2 -1</clus>
<clus scale="  154.079">  1  5  2 -1</clus>
</clustering>
</event>
<event>
 9    1  0.1748361E-005  0.1601384E+03  0.7546771E-02  0.1188574E+00
          2   -1    0    0  502    0  0.00000000000E+00  0.00000000000E+00  0.17936329926E+03  0.17936329926E+03  0.00000000000E+00 0. -1.
         -2   -1    0    0    0  501 -0.00000000000E+00 -0.00000000000E+00 -0.42145887888E+03  0.42145887888E+03  0.00000000000E+00 0.  1.
         23    2    1    2    0    0 -0.61851454998E+02 -0.90602099095E+02 -0.27064080984E+03  0.30614414112E+03  0.91888216585E+02 0.  0.
         23    2    1    2    0    0  0.33405640078E+02  0.13105444119E+03  0.11170467467E+03  0.19792551990E+03  0.91680825369E+02 0.  0.
        -11    1    3    3    0    0  0.99610079924E+01 -0.48118113217E+02 -0.16120806588E+03  0.16853075388E+03  0.00000000000E+00 0. -1.
         11    1    3    3    0    0 -0.71812462990E+02 -0.42483985877E+02 -0.10943274396E+03  0.13761338724E+03  0.00000000000E+00 0.  1.
        -13    1    4    4    0    0  0.10126307060E+02  0.81098597972E+02  0.11682458921E+03  0.14257457463E+03  0.00000000000E+00 0. -1.
         13    1    4    4    0    0  0.23279333018E+02  0.49955843217E+02 -0.51199145388E+01  0.55350945269E+02  0.00000000000E+00 0.  1.
         21    1    1    2  502  501  0.28445814919E+02 -0.40452342094E+02 -0.83159444447E+02  0.96752517115E+02  0.00000000000E+00 0.  1.
<scales pt_clust_5="13000.00000" pt_clust_6="13000.00000" pt_clust_7="13000.00000" pt_clust_8="13000.00000" pt_clust_9="49.45257"></scales>
<clustering>
<clus scale="   49.453">  2  9  1 -1</clus>
<clus scale="   91.681">  7  8 -1 -1</clus>
<clus scale="   91.888">  5  6 -1 -1</clus>
<clus scale="  160.019">  1  7  2 -1</clus>
<clus scale="  160.019">  1  5  2 -1</clus>
</clustering>
</event>
<event>
 9    1  0.1748361E-005  0.1206199E+03  0.7546771E-02  0.1242465E+00
          1   -1    0    0  502    0  0.00000000000E+00  0.00000000000E+00  0.36412998128E+03  0.36412998128E+03  0.00000000000E+00 0. -1.
         -1   -1    0    0    0  501 -0.00000000000E+00 -0.00000000000E+00 -0.22072557443E+03  0.22072557443E+03  0.00000000000E+00 0.  1.
         23    2    1    2    0    0  0.99156050091E+02 -0.14096693475E+02 -0.87238978183E+02  0.16162709886E+03  0.92097995279E+02 0.  0.
         23    2    1    2    0    0 -0.74302631341E+02 -0.55748388925E+01  0.31298743493E+03  0.33499465288E+03  0.93318396785E+02 0.  0.
        -13    1    4    4    0    0 -0.95514772327E+02  0.26819056046E+01  0.26899816484E+03  0.28546501894E+03  0.00000000000E+00 0. -1.
         13    1    4    4    0    0  0.21212140986E+02 -0.82567444972E+01  0.43989270090E+02  0.49529633937E+02  0.00000000000E+00 0.  1.
        -13    1    3    3    0    0  0.58938646169E+02  0.34240237077E+02 -0.66980159264E+02  0.95564112418E+02  0.00000000000E+00 0.  1.
         13    1    3    3    0    0  0.40217403922E+02 -0.48336930552E+02 -0.20258818920E+02  0.66062986441E+02  0.00000000000E+00 0. -1.
         21    1    1    2  502  501 -0.24853418750E+02  0.19671532368E+02 -0.82344049900E+02  0.88233803971E+02  0.00000000000E+00 0. -1.
<scales pt_clust_5="13000.00000" pt_clust_6="13000.00000" pt_clust_7="13000.00000" pt_clust_8="13000.00000" pt_clust_9="31.69640"></scales>
<clustering>
<clus scale="   31.696">  2  9  1 -1</clus>
<clus scale="   92.098">  7  8 -1 -1</clus>
<clus scale="   93.318">  5  6 -1 -1</clus>
<clus scale="  119.678">  2  7  1 -1</clus>
<clus scale="  120.620">  1  5  2 -1</clus>
</clustering>
</event>
<event>
 9    1  0.1748361E-005  0.1026101E+03  0.7546771E-02  0.1275850E+00
         -1   -1    0    0    0  501 -0.00000000000E+00  0.00000000000E+00  0.19685761064E+03  0.19685761064E+03  0.00000000000E+00 0.  1.
          1   -1    0    0  502    0  0.00000000000E+00 -0.00000000000E+00 -0.71803363920E+02  0.71803363920E+02  0.00000000000E+00 0. -1.
         23    2    1    2    0    0  0.10682914207E+02 -0.32203977221E+02  0.64482350531E+02  0.12109481593E+03  0.96720008843E+02 0.  0.
         23    2    1    2    0    0  0.95917162311E+01  0.35621508679E+02  0.22267304294E+02  0.10409223632E+03  0.94754777826E+02 0.  0.
        -11    1    3    3    0    0 -0.31590015833E+02 -0.11310007649E+02  0.65865821447E+02  0.73919901300E+02  0.00000000000E+00 0.  1.
         11    1    3    3    0    0  0.42272930040E+02 -0.20893969572E+02 -0.13834709162E+01  0.47174914631E+02  0.00000000000E+00 0. -1.
        -13    1    4    4    0    0  0.35281160048E+02  0.37121827908E+01 -0.23589138929E+02  0.42602676334E+02  0.00000000000E+00 0. -1.
         13    1    4    4    0    0 -0.25689443817E+02  0.31909325888E+02  0.45856443224E+02  0.61489559987E+02  0.00000000000E+00 0.  1.
         21    1    1    2  502  501 -0.20274630438E+02 -0.34175314575E+01  0.38304591893E+02  0.43473922307E+02  0.00000000000E+00 0.  1.
<scales pt_clust_5="13000.00000" pt_clust_6="13000.00000" pt_clust_7="13000.00000" pt_clust_8="13000.00000" pt_clust_9="20.56065"></scales>
<clustering>
<clus scale="   20.561">  1  9  2 -1</clus>
<clus scale="   94.755">  7  8 -1 -1</clus>
<clus scale="   96.720">  5  6 -1 -1</clus>
<clus scale="  100.760">  2  7  1 -1</clus>
<clus scale="  100.760">  2  5  1 -1</clus>
</clustering>
</event>
<event>
 9    1  0.1748361E-005  0.9352741E+02  0.7546771E-02  0.1294536E+00
         -1   -1    0    0    0  501 -0.00000000000E+00  0.00000000000E+00  0.35043980770E+03  0.35043980770E+03  0.00000000000E+00 0.  1.
          1   -1    0    0  502    0  0.00000000000E+00 -0.00000000000E+00 -0.10973486646E+03  0.10973486646E+03  0.00000000000E+00 0. -1.
         23    2    1    2    0    0  0.12090531099E+02  0.12241018739E+02  0.11865331392E+03  0.15012671987E+03  0.90351533647E+02 0.  0.
         23    2    1    2    0    0 -0.25444577918E+02  0.91344668057E+01 -0.69314185617E+02  0.11702951914E+03  0.90335967333E+02 0.  0.
        -13    1    3    3    0    0  0.25523761842E+02 -0.32333677400E+02  0.78482349081E+02  0.88636382090E+02  0.00000000000E+00 0.  1.
         13    1    3    3    0    0 -0.13433230742E+02  0.44574696139E+02  0.40170964843E+02  0.61490337781E+02  0.00000000000E+00 0. -1.
        -13    1    4    4    0    0  0.18834310052E+02  0.91288946192E+01  0.12228358391E+02  0.24240476502E+02  0.00000000000E+00 0.  1.
         13    1    4    4    0    0 -0.44278887970E+02  0.55721865301E-02 -0.81542544008E+02  0.92789042641E+02  0.00000000000E+00 0. -1.
         21    1    1    2  502  501  0.13354046819E+02 -0.21375485544E+02  0.19136581293E+03  0.19301843515E+03  0.00000000000E+00 0.  1.
<scales pt_clust_5="13000.00000" pt_clust_6="13000.00000" pt_clust_7="13000.00000" pt_clust_8="13000.00000" pt_clust_9="25.20401"></scales>
<clustering>
<clus scale="   25.204">  1  9  2 -1</clus>
<clus scale="   90.336">  7  8 -1 -1</clus>
<clus scale="   90.352">  5  6 -1 -1</clus>
<clus scale="   93.512">  2  7  1 -1</clus>
<clus scale="   93.512">  2  5  1 -1</clus>
</clustering>
</event>
<event>
 9    1  0.1748361E-005  0.1308104E+03  0.7546771E-02  0.1226400E+00
          2   -1    0    0  502    0  0.00000000000E+00  0.00000000000E+00  0.35202371631E+03  0.35202371631E+03  0.00000000000E+00 0. -1.
         -2   -1    0    0    0  501 -0.00000000000E+00 -0.00000000000E+00 -0.94257247863E+02  0.94257247863E+02  0.00000000000E+00 0.  1.
         23    2    1    2    0    0 -0.84687384422E+02  0.95386038131E+02  0.69932740149E+02  0.17108632363E+03  0.90052721431E+02 0.  0.
         23    2    1    2    0    0  0.39876851141E+02 -0.72905545503E+02  0.18850691712E+03  0.22505673448E+03  0.90610673271E+02 0.  0.
        -11    1    4    4    0    0 -0.25533602066E+02 -0.57224114902E+01  0.64379866167E+02  0.69494445789E+02  0.00000000000E+00 0. -1.
         11    1    4    4    0    0  0.65410453208E+02 -0.67183134013E+02  0.12412705095E+03  0.15556228869E+03  0.00000000000E+00 0.  1.
        -11    1    3    3    0    0 -0.14785995978E+01  0.67994461399E+02  0.23614889111E+02  0.71993722125E+02  0.00000000000E+00 0.  1.
         11    1    3    3    0    0 -0.83208784824E+02  0.27391576732E+02  0.46317851038E+02  0.99092601502E+02  0.00000000000E+00 0. -1.
         21    1    1    2  502  501  0.44810533280E+02 -0.22480492628E+02 -0.67318881958E+00  0.50137906068E+02  0.00000000000E+00 0.  1.
<scales pt_clust_5="13000.00000" pt_clust_6="13000.00000" pt_clust_7="13000.00000" pt_clust_8="13000.00000" pt_clust_9="50.13339"></scales>
<clustering>
<clus scale="   50.133">  2  9  1 -1</clus>
<clus scale="   90.053">  7  8 -1 -1</clus>
<clus scale="   90.611">  5  6 -1 -1</clus>
<clus scale="  130.425">  2  7  1 -1</clus>
<clus scale="  130.810">  1  5  2 -1</clus>
</clustering>
</event>
<event>
 9    1  0.1748361E-005  0.9247446E+02  0.7546771E-02  0.1297248E+00
         -1   -1    0    0    0  501 -0.00000000000E+00  0.00000000000E+00  0.18835182523E+03  0.18835182523E+03  0.00000000000E+00 0.  1.
          1   -1    0    0  502    0  0.00000000000E+00 -0.00000000000E+00 -0.77276663013E+02  0.77276663013E+02  0.00000000000E+00 0. -1.
         23    2    1    2    0    0  0.15241633911E+02  0.17605307021E+02  0.30637085947E+02  0.99489536454E+02  0.91745749705E+02 0.  0.
         23    2    1    2    0    0  0.13535745107E+01  0.10178189457E+02  0.16186226191E+02  0.94197142960E+02  0.92226244199E+02 0.  0.
        -11    1    4    4    0    0 -0.41973620160E+02  0.10779725956E+02 -0.87394080347E+01  0.44208195324E+02  0.00000000000E+00 0. -1.
         11    1    4    4    0    0  0.43327194671E+02 -0.60153649903E+00  0.24925634226E+02  0.49988947636E+02  0.00000000000E+00 0.  1.
        -11    1    3    3    0    0  0.52462676286E+02  0.10477383802E+02  0.49930891020E+01  0.53731172639E+02  0.00000000000E+00 0.  1.
         11    1    3    3    0    0 -0.37221042374E+02  0.71279232185E+01  0.25643996845E+02  0.45758363815E+02  0.00000000000E+00 0. -1.
         21    1    1    2  502  501 -0.16595208422E+02 -0.27783496478E+02  0.64251850080E+02  0.71941808830E+02  0.00000000000E+00 0.  1.
<scales pt_clust_5="13000.00000" pt_clust_6="13000.00000" pt_clust_7="13000.00000" pt_clust_8="13000.00000" pt_clust_9="32.36238"></scales>
<clustering>
<clus scale="   32.362">  1  9  2 -1</clus>
<clus scale="   91.746">  7  8 -1 -1</clus>
<clus scale="   91.995">  1  7  2 -1</clus>
<clus scale="   92.226">  5  6 -1 -1</clus>
<clus scale="   92.474">  2  5  1 -1</clus>
</clustering>
</event>
<event>
 9    1  0.1748361E-005  0.1033087E+03  0.7546771E-02  0.1273747E+00
          1   -1    0    0  502    0  0.00000000000E+00  0.00000000000E+00  0.73506624762E+02  0.73506624762E+02  0.00000000000E+00 0. -1.
         -1   -1    0    0    0  501 -0.00000000000E+00 -0.00000000000E+00 -0.32468004995E+03  0.32468004995E+03  0.00000000000E+00 0.  1.
         23    2    1    2    0    0  0.69334842397E+02  0.44332391675E+02 -0.62889309905E+02  0.13796664561E+03  0.91143012232E+02 0.  0.
         23    2    1    2    0    0 -0.16242677141E+01 -0.26797287370E+02 -0.56492987950E+02  0.11101847733E+03  0.91721926307E+02 0.  0.
        -11    1    3    3    0    0 -0.57563111562E+01  0.47172824949E+02 -0.27494421814E+02  0.54903130718E+02  0.00000000000E+00 0.  1.
         11    1    3    3    0    0  0.75091153553E+02 -0.28404332745E+01 -0.35394888091E+02  0.83063514892E+02  0.00000000000E+00 0. -1.
        -13    1    4    4    0    0 -0.22801959959E+02 -0.45125935237E+02 -0.64437993610E+02  0.81905643453E+02  0.00000000000E+00 0.  1.
         13    1    4    4    0    0  0.21177692245E+02  0.18328647867E+02  0.79450056603E+01  0.29112833878E+02  0.00000000000E+00 0. -1.
         21    1    1    2  502  501 -0.67710574683E+02 -0.17535104305E+02 -0.13179112734E+03  0.14920155177E+03  0.00000000000E+00 0.  1.
<scales pt_clust_5="13000.00000" pt_clust_6="13000.00000" pt_clust_7="13000.00000" pt_clust_8="13000.00000" pt_clust_9="69.94428"></scales>
<clustering>
<clus scale="   69.944">  2  9  1 -1</clus>
<clus scale="   91.143">  5  6 -1 -1</clus>
<clus scale="   91.722">  7  8 -1 -1</clus>
<clus scale="  102.795">  2  5  1 -1</clus>
<clus scale="  103.309">  1  5  2 -1</clus>
</clustering>
</event>
<event>
 9    1  0.1748361E-005  0.9840049E+02  0.7546771E-02  0.1284585E+00
          1   -1    0    0  502    0  0.00000000000E+00  0.00000000000E+00  0.32154805757E+03  0.32154805757E+03  0.00000000000E+00 0. -1.
         -1   -1    0    0    0  501 -0.00000000000E+00 -0.00000000000E+00 -0.66014584593E+02  0.66014584593E+02  0.00000000000E+00 0.  1.
         23    2    1    2    0    0 -0.42627729093E+02  0.57803090755E+02  0.12755725747E+03  0.17108718250E+03  0.88553088558E+02 0.  0.
         23    2    1    2    0    0  0.34892980874E+01 -0.18023627698E+02  0.13145868289E+03  0.16056168639E+03  0.90341814644E+02 0.  0.
        -11    1    4    4    0    0  0.46150022048E+02 -0.73897045970E+01  0.82015058957E+02  0.94397574995E+02  0.00000000000E+00 0.  1.
         11    1    4    4    0    0 -0.42660723961E+02 -0.10633923101E+02  0.49443623930E+02  0.66164111395E+02  0.00000000000E+00 0. -1.
        -11    1    3    3    0    0 -0.15428655381E+02 -0.14063052924E+02 -0.14530398876E+01  0.20926638271E+02  0.00000000000E+00 0.  1.
         11    1    3    3    0    0 -0.27199073712E+02  0.71866143679E+02  0.12901029736E+03  0.15016054423E+03  0.00000000000E+00 0. -1.
         21    1    1    2  502  501  0.39138431005E+02 -0.39779463057E+02 -0.34824673819E+01  0.55913773274E+02  0.00000000000E+00 0.  1.
<scales pt_clust_5="13000.00000" pt_clust_6="13000.00000" pt_clust_7="13000.00000" pt_clust_8="13000.00000" pt_clust_9="55.80522"></scales>
<clustering>
<clus scale="   55.805">  2  9  1 -1</clus>
<clus scale="   88.553">  7  8 -1 -1</clus>
<clus scale="   90.342">  5  6 -1 -1</clus>
<clus scale="   96.761">  2  7  1 -1</clus>
<clus scale="   98.400">  1  5  2 -1</clus>
</clustering>
</event>
<event>
 9    1  0.1748361E-005  0.9326333E+02  0.7546771E-02  0.1298713E+00
          1   -1    0    0  502    0  0.00000000000E+00  0.00000000000E+00  0.46722260071E+03  0.46722260071E+03  0.00000000000E+00 0. -1.
         -1   -1    0    0    0  501 -0.00000000000E+00 -0.00000000000E+00 -0.30840908422E+02  0.30840908422E+02  0.00000000000E+00 0.  1.
         23    2    1    2    0    0 -0.98469769620E+01 -0.17759415702E+02  0.10011800484E+03  0.13760189531E+03  0.92186261986E+02 0.  0.
         23    2    1    2    0    0  0.15370453601E+02 -0.80290384601E+01  0.31364065999E+03  0.32571460627E+03  0.86132600313E+02 0.  0.
        -13    1    3    3    0    0  0.32284835218E+02 -0.29396307448E+02  0.76079284175E+02  0.87718361574E+02  0.00000000000E+00 0. -1.
         13    1    3    3    0    0 -0.42131812180E+02  0.11636891746E+02  0.24038720668E+02  0.49883533740E+02  0.00000000000E+00 0.  1.
        -13    1    4    4    0    0  0.46287128664E+02  0.13722163338E+01  0.25093751178E+03  0.25517448163E+03  0.00000000000E+00 0. -1.
         13    1    4    4    0    0 -0.30916675063E+02 -0.94012547939E+01  0.62703148208E+02  0.70540124637E+02  0.00000000000E+00 0.  1.
         21    1    1    2  502  501 -0.55234766390E+01  0.25788454162E+02  0.22623027455E+02  0.34747007547E+02  0.00000000000E+00 0. -1.
<scales pt_clust_5="13000.00000" pt_clust_6="13000.00000" pt_clust_7="13000.00000" pt_clust_8="13000.00000" pt_clust_9="26.37334"></scales>
<clustering>
<clus scale="   26.373">  2  9  1 -1</clus>
<clus scale="   86.133">  7  8 -1 -1</clus>
<clus scale="   87.284">  1  7  2 -1</clus>
<clus scale="   92.186">  5  6 -1 -1</clus>
<clus scale="   87.284">  1  5  2 -1</clus>
</clustering>
</event>
<event>
 9    1  0.1748361E-005  0.4703446E+03  0.7546771E-02  0.1021854E+00
          2   -1    0    0  502    0  0.00000000000E+00  0.00000000000E+00  0.31683681030E+03  0.31683681030E+03  0.00000000000E+00 0. -1.
         -2   -1    0    0    0  501 -0.00000000000E+00 -0.00000000000E+00 -0.80903678958E+03  0.80903678958E+03  0.00000000000E+00 0.  1.
         23    2    1    2    0    0  0.47790136123E+03  0.23378176485E+02 -0.36701061807E+03  0.60962301744E+03  0.89482844260E+02 0.  0.
         23    2    1    2    0    0 -0.45134280388E+03 -0.13817993170E+02 -0.87267769453E+02  0.46897689848E+03  0.91773657290E+02 0.  0.
        -13    1    3    3    0    0  0.11330428489E+03  0.20876205231E+02 -0.46749549156E+02  0.12433502027E+03  0.00000000000E+00 0. -1.
         13    1    3    3    0    0  0.36459707634E+03  0.25019712540E+01 -0.32026106892E+03  0.48528799717E+03  0.00000000000E+00 0.  1.
        -13    1    4    4    0    0 -0.37913656254E+03  0.59187387328E+01 -0.42007640012E+02  0.38150256401E+03  0.00000000000E+00 0. -1.
         13    1    4    4    0    0 -0.72206241339E+02 -0.19736731903E+02 -0.45260129441E+02  0.87474334473E+02  0.00000000000E+00 0.  1.
         21    1    1    2  502  501 -0.26558557348E+02 -0.95601833145E+01 -0.37921591750E+02  0.47273683951E+02  0.00000000000E+00 0.  1.
<scales pt_clust_5="13000.00000" pt_clust_6="13000.00000" pt_clust_7="13000.00000" pt_clust_8="13000.00000" pt_clust_9="28.22683"></scales>
<clustering>
<clus scale="   28.227">  2  9  1 -1</clus>
<clus scale="   89.483">  5  6 -1 -1</clus>
<clus scale="   91.774">  7  8 -1 -1</clus>
<clus scale="  469.903">  2  5  1 -1</clus>
<clus scale="  470.345">  1  5  2 -1</clus>
</clustering>
</event>
<event>
 9    1  0.1748361E-005  0.1000357E+03  0.7546771E-02  0.1280729E+00
         -1   -1    0    0    0  501 -0.00000000000E+00  0.00000000000E+00  0.87618023460E+02  0.87618023460E+02  0.00000000000E+00 0.  1.
          1   -1    0    0  502    0  0.00000000000E+00 -0.00000000000E+00 -0.22036941552E+03  0.22036941552E+03  0.00000000000E+00 0. -1.
         23    2    1    2    0    0 -0.45421632230E+02  0.20840081291E+02  0.25117790281E+01  0.10296142006E+03  0.89985061677E+02 0.  0.
         23    2    1    2    0    0  0.18485847601E+02 -0.37014552947E+02 -0.14122426757E+03  0.17304657712E+03  0.91044057523E+02 0.  0.
        -11    1    4    4    0    0  0.54213619716E+02 -0.25073062313E+02 -0.10491147290E+03  0.12072361891E+03  0.00000000000E+00 0. -1.
         11    1    4    4    0    0 -0.35727772115E+02 -0.11941490634E+02 -0.36312794663E+02  0.52322958203E+02  0.00000000000E+00 0.  1.
        -13    1    3    3    0    0 -0.58574831665E+02  0.40337157622E+02 -0.16158414170E+02  0.72932787812E+02  0.00000000000E+00 0.  1.
         13    1    3    3    0    0  0.13153199435E+02 -0.19497076331E+02  0.18670193198E+02  0.30028632252E+02  0.00000000000E+00 0. -1.
         21    1    1    2  502  501  0.26935784629E+02  0.16174471656E+02  0.59610964743E+01  0.31979441804E+02  0.00000000000E+00 0.  1.
<scales pt_clust_5="13000.00000" pt_clust_6="13000.00000" pt_clust_7="13000.00000" pt_clust_8="13000.00000" pt_clust_9="31.41894"></scales>
<clustering>
<clus scale="   31.419">  1  9  2 -1</clus>
<clus scale="   89.985">  7  8 -1 -1</clus>
<clus scale="   91.044">  5  6 -1 -1</clus>
<clus scale="   99.073">  1  7  2 -1</clus>
<clus scale="  100.036">  2  5  1 -1</clus>
</clustering>
</event>
<event>
 9    1  0.1748361E-005  0.1525752E+03  0.7546771E-02  0.1197631E+00
          2   -1    0    0  502    0  0.00000000000E+00  0.00000000000E+00  0.63407887130E+03  0.63407887130E+03  0.00000000000E+00 0. -1.
         -2   -1    0    0    0  501 -0.00000000000E+00 -0.00000000000E+00 -0.60700538975E+02  0.60700538975E+02  0.00000000000E+00 0.  1.
         23    2    1    2    0    0  0.13070034722E+03 -0.27972834994E+02  0.19487212677E+03  0.25379907297E+03  0.92594618583E+02 0.  0.
         23    2    1    2    0    0 -0.90500342437E+02  0.79002921610E+02  0.31930917216E+03  0.35309177782E+03  0.91014738015E+02 0.  0.
        -11    1    3    3    0    0  0.29472459609E+02  0.39917628407E+01  0.12067107765E+03  0.12428221525E+03  0.00000000000E+00 0.  1.
         11    1    3    3    0    0  0.10122788761E+03 -0.31964597834E+02  0.74201049119E+02  0.12951685772E+03  0.00000000000E+00 0. -1.
        -13    1    4    4    0    0 -0.67279500206E+02  0.35362286413E-01  0.16528421225E+03  0.17845280389E+03  0.00000000000E+00 0.  1.
         13    1    4    4    0    0 -0.23220842231E+02  0.78967559324E+02  0.15402495991E+03  0.17463897393E+03  0.00000000000E+00 0. -1.
         21    1    1    2  502  501 -0.40200004781E+02 -0.51030086617E+02  0.59197033399E+02  0.87888559482E+02  0.00000000000E+00 0. -1.
<scales pt_clust_5="13000.00000" pt_clust_6="13000.00000" pt_clust_7="13000.00000" pt_clust_8="13000.00000" pt_clust_9="64.96237"></scales>
<clustering>
<clus scale="   64.962">  2  9  1 -1</clus>
<clus scale="   91.015">  7  8 -1 -1</clus>
<clus scale="   92.595">  5  6 -1 -1</clus>
<clus scale="  151.622">  1  7  2 -1</clus>
<clus scale="  151.622">  1  5  2 -1</clus>
</clustering>
</event>
<event>
 9    1  0.1748361E-005  0.9620682E+02  0.7546771E-02  0.1289114E+00
          1   -1    0    0  502    0  0.00000000000E+00  0.00000000000E+00  0.64514894007E+03  0.64514894007E+03  0.00000000000E+00 0. -1.
         -1   -1    0    0    0  501 -0.00000000000E+00 -0.00000000000E+00 -0.25639733753E+02  0.25639733753E+02  0.00000000000E+00 0.  1.
         23    2    1    2    0    0  0.24949793260E+02 -0.42286260595E+02  0.19095662300E+03  0.21633363500E+03  0.89023534785E+02 0.  0.
         23    2    1    2    0    0 -0.25539878993E+02  0.12860722765E+02  0.40729338629E+03  0.41814851136E+03  0.90236308854E+02 0.  0.
        -13    1    4    4    0    0 -0.13358308627E+01  0.49500734015E+02  0.18205229815E+03  0.18866676011E+03  0.00000000000E+00 0. -1.
         13    1    4    4    0    0 -0.24204048130E+02 -0.36640011250E+02  0.22524108814E+03  0.22948175125E+03  0.00000000000E+00 0.  1.
        -13    1    3    3    0    0 -0.10643461827E+02 -0.48167953578E+02  0.47757496292E+02  0.68660130233E+02  0.00000000000E+00 0.  1.
         13    1    3    3    0    0  0.35593255087E+02  0.58816929833E+01  0.14319912671E+03  0.14767350477E+03  0.00000000000E+00 0. -1.
         21    1    1    2  502  501  0.59008573242E+00  0.29425537829E+02  0.21259197034E+02  0.36306527461E+02  0.00000000000E+00 0.  1.
<scales pt_clust_5="13000.00000" pt_clust_6="13000.00000" pt_clust_7="13000.00000" pt_clust_8="13000.00000" pt_clust_9="29.43145"></scales>
<clustering>
<clus scale="   29.431">  2  9  1 -1</clus>
<clus scale="   89.024">  7  8 -1 -1</clus>
<clus scale="   90.236">  5  6 -1 -1</clus>
<clus scale="   95.070">  2  7  1 -1</clus>
<clus scale="   96.207">  1  5  2 -1</clus>
</clustering>
</event>
<event>
 9    1  0.1748361E-005  0.3400307E+03  0.7546771E-02  0.1077183E+00
          1   -1    0    0  502    0  0.00000000000E+00  0.00000000000E+00  0.27283478340E+04  0.27283478340E+04  0.00000000000E+00 0. -1.
         -1   -1    0    0    0  501 -0.00000000000E+00 -0.00000000000E+00 -0.14701431221E+03  0.14701431221E+03  0.00000000000E+00 0.  1.
         23    2    1    2    0    0 -0.83616361834E+01 -0.23866915719E+03  0.71957683631E+02  0.26577204255E+03  0.91782279398E+02 0.  0.
         23    2    1    2    0    0  0.24431847615E+03  0.35246821729E+03  0.18535162972E+04  0.19033482231E+04  0.57327413751E+02 0.  0.
        -13    1    3    3    0    0  0.16424380103E+02 -0.22843626408E+03  0.64880113804E+02  0.23803847625E+03  0.00000000000E+00 0.  1.
         13    1    3    3    0    0 -0.24786016286E+02 -0.10232893110E+02  0.70775698271E+01  0.27733566294E+02  0.00000000000E+00 0. -1.
        -13    1    4    4    0    0  0.22000272240E+03  0.30610074857E+03  0.16949272289E+04  0.17363401675E+04  0.00000000000E+00 0. -1.
         13    1    4    4    0    0  0.24315753754E+02  0.46367468718E+02  0.15858906839E+03  0.16700805564E+03  0.00000000000E+00 0.  1.
         21    1    1    2  502  501 -0.23595683997E+03 -0.11379906009E+03  0.65585954087E+03  0.70624188049E+03  0.00000000000E+00 0. -1.
<scales pt_clust_5="13000.00000" pt_clust_6="13000.00000" pt_clust_7="13000.00000" pt_clust_8="13000.00000" pt_clust_9="335.16332"></scales>
<clustering>
<clus scale="   57.327">  7  8 -1 -1</clus>
<clus scale="   91.782">  5  6 -1 -1</clus>
<clus scale="  255.845">  2  5  1 -1</clus>
<clus scale="  335.163">  2  9  1 -1</clus>
<clus scale="  340.031">  1  5  2 -1</clus>
</clustering>
</event>
<event>
 9    1  0.1748361E-005  0.1449255E+03  0.7546771E-02  0.1207070E+00
         -1   -1    0    0    0  501 -0.00000000000E+00  0.00000000000E+00  0.44092212264E+02  0.44092212264E+02  0.00000000000E+00 0.  1.
          1   -1    0    0  502    0  0.00000000000E+00 -0.00000000000E+00 -0.10003904663E+04  0.10003904663E+04  0.00000000000E+00 0. -1.
         23    2    1    2    0    0 -0.71565723754E+02 -0.96503570028E+02 -0.28785592760E+03  0.32478406452E+03  0.90493434384E+02 0.  0.
         23    2    1    2    0    0 -0.31276104956E+02  0.12741333250E+03 -0.37490167292E+03  0.40713186851E+03  0.89402136204E+02 0.  0.
        -11    1    4    4    0    0 -0.59690310118E+02  0.11066513536E+03 -0.30071973013E+03  0.32594794277E+03  0.00000000000E+00 0.  1.
         11    1    4    4    0    0  0.28414205162E+02  0.16748197137E+02 -0.74181942791E+02  0.81183925740E+02  0.00000000000E+00 0. -1.
        -13    1    3    3    0    0 -0.46418634596E+01 -0.36320079200E+02 -0.18977268092E+02  0.41241141518E+02  0.00000000000E+00 0. -1.
         13    1    3    3    0    0 -0.66923860294E+02 -0.60183490828E+02 -0.26887865951E+03  0.28354292300E+03  0.00000000000E+00 0.  1.
         21    1    1    2  502  501  0.10284182871E+03 -0.30909762473E+02 -0.29354065353E+03  0.31256674555E+03  0.00000000000E+00 0. -1.
<scales pt_clust_5="13000.00000" pt_clust_6="13000.00000" pt_clust_7="13000.00000" pt_clust_8="13000.00000" pt_clust_9="107.38648"></scales>
<clustering>
<clus scale="   89.402">  5  6 -1 -1</clus>
<clus scale="   90.493">  7  8 -1 -1</clus>
<clus scale="  107.386">  2  9  1 -1</clus>
<clus scale="  144.247">  2  5  1 -1</clus>
<clus scale="  107.386">  2  5  1 -1</clus>
</clustering>
</event>
<event>
 9    1  0.1748361E-005  0.9648097E+02  0.7546771E-02  0.1288942E+00
         -1   -1    0    0    0  501 -0.00000000000E+00  0.00000000000E+00  0.10779365196E+03  0.10779365196E+03  0.00000000000E+00 0.  1.
          1   -1    0    0  502    0  0.00000000000E+00 -0.00000000000E+00 -0.11318339942E+03  0.11318339942E+03  0.00000000000E+00 0. -1.
         23    2    1    2    0    0 -0.30433373522E+02 -0.29711719787E+02 -0.31224751021E+01  0.99637202784E+02  0.90049129986E+02 0.  0.
         23    2    1    2    0    0  0.13138860100E+02  0.11069044051E+02 -0.11363281013E+02  0.94332684245E+02  0.92056383704E+02 0.  0.
        -11    1    4    4    0    0 -0.15815920127E+02 -0.33054923983E+02  0.90526026529E+01  0.37745475806E+02  0.00000000000E+00 0.  1.
         11    1    4    4    0    0  0.28954780227E+02  0.44123968035E+02 -0.20415883665E+02  0.56587208440E+02  0.00000000000E+00 0. -1.
        -13    1    3    3    0    0  0.25357957727E+02 -0.83947658264E+01  0.22232342984E+02  0.34753060123E+02  0.00000000000E+00 0.  1.
         13    1    3    3    0    0 -0.55791331249E+02 -0.21316953960E+02 -0.25354818086E+02  0.64884142661E+02  0.00000000000E+00 0. -1.
         21    1    1    2  502  501  0.17294513422E+02  0.18642675735E+02  0.90960086504E+01  0.27007164354E+02  0.00000000000E+00 0. -1.
<scales pt_clust_5="13000.00000" pt_clust_6="13000.00000" pt_clust_7="13000.00000" pt_clust_8="13000.00000" pt_clust_9="25.42931"></scales>
<clustering>
<clus scale="   25.429">  1  9  2 -1</clus>
<clus scale="   90.049">  7  8 -1 -1</clus>
<clus scale="   92.056">  5  6 -1 -1</clus>
<clus scale="   94.568">  1  7  2 -1</clus>
<clus scale="   96.481">  2  5  1 -1</clus>
</clustering>
</event>
<event>
 9    1  0.1748361E-005  0.1301813E+03  0.7546771E-02  0.1227198E+00
          1   -1    0    0  502    0  0.00000000000E+00  0.00000000000E+00  0.47591370776E+03  0.47591370776E+03  0.00000000000E+00 0. -1.
         -1   -1    0    0    0  501 -0.00000000000E+00 -0.00000000000E+00 -0.54281159400E+02  0.54281159400E+02  0.00000000000E+00 0.  1.
         23    2    1    2    0    0 -0.98921403822E+02  0.54260129798E+02  0.20085213616E+03  0.24755579937E+03  0.90623878652E+02 0.  0.
         23    2    1    2    0    0  0.63220288758E+02 -0.50249204218E+02  0.21409496196E+03  0.24609659407E+03  0.90581970840E+02 0.  0.
        -11    1    3    3    0    0 -0.64559043297E+02  0.41827121778E+02  0.19617175896E+03  0.21071482435E+03  0.00000000000E+00 0. -1.
         11    1    3    3    0    0 -0.34362360525E+02  0.12433008020E+02  0.46803771936E+01  0.36840975014E+02  0.00000000000E+00 0.  1.
        -11    1    4    4    0    0 -0.15880514675E+01 -0.52573862488E+02  0.65776471535E+02  0.84220408049E+02  0.00000000000E+00 0.  1.
         11    1    4    4    0    0  0.64808340225E+02  0.23246582704E+01  0.14831849042E+03  0.16187618602E+03  0.00000000000E+00 0. -1.
         21    1    1    2  502  501  0.35701115064E+02 -0.40109255799E+01  0.66854502450E+01  0.36542473723E+02  0.00000000000E+00 0.  1.
<scales pt_clust_5="13000.00000" pt_clust_6="13000.00000" pt_clust_7="13000.00000" pt_clust_8="13000.00000" pt_clust_9="35.92572"></scales>
<clustering>
<clus scale="   35.926">  2  9  1 -1</clus>
<clus scale="   90.582">  7  8 -1 -1</clus>
<clus scale="   90.624">  5  6 -1 -1</clus>
<clus scale="  130.152">  1  7  2 -1</clus>
<clus scale="  130.152">  1  5  2 -1</clus>
</clustering>
</event>
<event>
 9    1  0.1748361E-005  0.2037711E+03  0.7546771E-02  0.1146696E+00
          2   -1    0    0  502    0  0.00000000000E+00  0.00000000000E+00  0.14598975983E+04  0.14598975983E+04  0.00000000000E+00 0. -1.
         -2   -1    0    0    0  501 -0.00000000000E+00 -0.00000000000E+00 -0.62507292465E+02  0.62507292465E+02  0.00000000000E+00 0.  1.
         23    2    1    2    0    0 -0.61189609607E+02  0.19579530628E+03  0.25693608773E+03  0.34104397574E+03  0.90635919599E+02 0.  0.
         23    2    1    2    0    0  0.39234885108E+02 -0.17285641097E+03  0.11306500742E+04  0.11481295431E+04  0.91723183612E+02 0.  0.
        -11    1    4    4    0    0 -0.17430348532E+02 -0.12215366008E+03  0.72101775930E+03  0.73149979012E+03  0.00000000000E+00 0.  1.
         11    1    4    4    0    0  0.56665233641E+02 -0.50702750891E+02  0.40963231487E+03  0.41662975295E+03  0.00000000000E+00 0. -1.
        -13    1    3    3    0    0  0.16287822779E+02  0.59810290985E+02  0.11056494630E+03  0.12675634670E+03  0.00000000000E+00 0. -1.
         13    1    3    3    0    0 -0.77477432385E+02  0.13598501530E+03  0.14637114144E+03  0.21428762904E+03  0.00000000000E+00 0.  1.
         21    1    1    2  502  501  0.21954724498E+02 -0.22938895312E+02  0.98041439650E+01  0.33231371997E+02  0.00000000000E+00 0.  1.
<scales pt_clust_5="13000.00000" pt_clust_6="13000.00000" pt_clust_7="13000.00000" pt_clust_8="13000.00000" pt_clust_9="31.75221"></scales>
<clustering>
<clus scale="   31.752">  2  9  1 -1</clus>
<clus scale="   90.636">  7  8 -1 -1</clus>
<clus scale="   91.723">  5  6 -1 -1</clus>
<clus scale="  203.284">  2  7  1 -1</clus>
<clus scale="  203.771">  1  5  2 -1</clus>
</clustering>
</event>
<event>
 9    1  0.1748361E-005  0.1057740E+03  0.7546771E-02  0.1270833E+00
          2   -1    0    0  502    0  0.00000000000E+00  0.00000000000E+00  0.13061643998E+03  0.13061643998E+03  0.00000000000E+00 0. -1.
         -2   -1    0    0    0  501 -0.00000000000E+00 -0.00000000000E+00 -0.11037092927E+03  0.11037092927E+03  0.00000000000E+00 0.  1.
         23    2    1    2    0    0  0.62220099515E+02 -0.64156294147E+01  0.97359635343E+01  0.11083296621E+03  0.90976130546E+02 0.  0.
         23    2    1    2    0    0 -0.47513809068E+02 -0.11552677827E+02  0.26210931117E+02  0.10212462421E+03  0.85740302903E+02 0.  0.
        -11    1    4    4    0    0 -0.67805119976E+02 -0.25646555924E+02  0.11582251436E+02  0.73412728284E+02  0.00000000000E+00 0. -1.
         11    1    4    4    0    0  0.20291310909E+02  0.14093878097E+02  0.14628679681E+02  0.28711895921E+02  0.00000000000E+00 0.  1.
        -13    1    3    3    0    0  0.45344872981E+02  0.12775012204E+02 -0.35424944763E+02  0.58943067055E+02  0.00000000000E+00 0.  1.
         13    1    3    3    0    0  0.16875226534E+02 -0.19190641618E+02  0.45160908297E+02  0.51889899157E+02  0.00000000000E+00 0. -1.
         21    1    1    2  502  501 -0.14706290447E+02  0.17968307242E+02 -0.15701383937E+02  0.28029778832E+02  0.00000000000E+00 0.  1.
<scales pt_clust_5="13000.00000" pt_clust_6="13000.00000" pt_clust_7="13000.00000" pt_clust_8="13000.00000" pt_clust_9="23.21928"></scales>
<clustering>
<clus scale="   23.219">  2  9  1 -1</clus>
<clus scale="   85.740">  5  6 -1 -1</clus>
<clus scale="   90.976">  7  8 -1 -1</clus>
<clus scale="  101.306">  1  5  2 -1</clus>
<clus scale="  101.306">  1  5  2 -1</clus>
</clustering>
</event>
<event>
 9    1  0.1748361E-005  0.1465381E+03  0.7546771E-02  0.1225777E+00
          1   -1    0    0  502    0  0.00000000000E+00  0.00000000000E+00  0.68007583132E+03  0.68007583132E+03  0.00000000000E+00 0. -1.
         -1   -1    0    0    0  501 -0.00000000000E+00 -0.00000000000E+00 -0.58001657056E+02  0.58001657056E+02  0.00000000000E+00 0.  1.
         23    2    1    2    0    0  0.24265865516E+02 -0.80768109081E+01  0.73595791330E+02  0.11937235334E+03  0.90439765244E+02 0.  0.
         23    2    1    2    0    0  0.40505040696E+02  0.10723222636E+03  0.41668213245E+03  0.44151225045E+03  0.90386166546E+02 0.  0.
        -11    1    4    4    0    0  0.53644636551E+02  0.24710275830E+02  0.12780535326E+03  0.14079258888E+03  0.00000000000E+00 0. -1.
         11    1    4    4    0    0 -0.13139595855E+02  0.82521950532E+02  0.28887677918E+03  0.30071966156E+03  0.00000000000E+00 0.  1.
        -13    1    3    3    0    0  0.52135862187E+02 -0.21527510834E+01  0.15123965598E+02  0.54327863924E+02  0.00000000000E+00 0. -1.
         13    1    3    3    0    0 -0.27869996671E+02 -0.59240598247E+01  0.58471825732E+02  0.65044489418E+02  0.00000000000E+00 0.  1.
         21    1    1    2  502  501 -0.64770906212E+02 -0.99155415454E+02  0.13179625049E+03  0.17719288458E+03  0.00000000000E+00 0.  1.
<scales pt_clust_5="13000.00000" pt_clust_6="13000.00000" pt_clust_7="13000.00000" pt_clust_8="13000.00000" pt_clust_9="115.34195"></scales>
<clustering>
<clus scale="   90.386">  5  6 -1 -1</clus>
<clus scale="   90.440">  7  8 -1 -1</clus>
<clus scale="   93.986">  2  7  1 -1</clus>
<clus scale="  115.342">  2  9  1 -1</clus>
<clus scale="  146.538">  1  5  2 -1</clus>
</clustering>
</event>
<event>
 9    1  0.1748361E-005  0.1299406E+03  0.7546771E-02  0.1227986E+00
          1   -1    0    0  502    0  0.00000000000E+00  0.00000000000E+00  0.29464730118E+03  0.29464730118E+03  0.00000000000E+00 0. -1.
         -1   -1    0    0    0  501 -0.00000000000E+00 -0.00000000000E+00 -0.13913844057E+03  0.13913844057E+03  0.00000000000E+00 0.  1.
         23    2    1    2    0    0 -0.65773915345E+02  0.10745170679E+03  0.29919251070E+02  0.15748614559E+03  0.89636193783E+02 0.  0.
         23    2    1    2    0    0  0.28519084364E+02 -0.77403956447E+02  0.17076019625E+03  0.21048795861E+03  0.91331404517E+02 0.  0.
        -13    1    3    3    0    0 -0.32332106548E+02  0.93535819968E+02 -0.14660358690E+02  0.10004619357E+03  0.00000000000E+00 0.  1.
         13    1    3    3    0    0 -0.33441808797E+02  0.13915886823E+02  0.44579609759E+02  0.57439952019E+02  0.00000000000E+00 0. -1.
        -13    1    4    4    0    0 -0.25750426327E+02  0.10754176623E+01  0.22690923193E+02  0.34338301858E+02  0.00000000000E+00 0.  1.
         13    1    4    4    0    0  0.54269510690E+02 -0.78479374110E+02  0.14806927306E+03  0.17614965676E+03  0.00000000000E+00 0. -1.
         21    1    1    2  502  501  0.37254830981E+02 -0.30047750344E+02 -0.45170586712E+02  0.65811637543E+02  0.00000000000E+00 0.  1.
<scales pt_clust_5="13000.00000" pt_clust_6="13000.00000" pt_clust_7="13000.00000" pt_clust_8="13000.00000" pt_clust_9="47.86220"></scales>
<clustering>
<clus scale="   47.862">  2  9  1 -1</clus>
<clus scale="   89.636">  5  6 -1 -1</clus>
<clus scale="   91.331">  7  8 -1 -1</clus>
<clus scale="  128.755">  2  5  1 -1</clus>
<clus scale="  129.941">  1  5  2 -1</clus>
</clustering>
</event>
<event>
 9    1  0.1748361E-005  0.9382514E+02  0.7546771E-02  0.1293949E+00
          1   -1    0    0  502    0  0.00000000000E+00  0.00000000000E+00  0.78823616242E+02  0.78823616242E+02  0.00000000000E+00 0. -1.
         -1   -1    0    0    0  501 -0.00000000000E+00 -0.00000000000E+00 -0.24268701973E+03  0.24268701973E+03  0.00000000000E+00 0.  1.
         23    2    1    2    0    0  0.64210765503E+01 -0.93468109821E+01 -0.13774789194E+03  0.16574293859E+03  0.91474842770E+02 0.  0.
         23    2    1    2    0    0 -0.21217890355E+02 -0.14658098462E+02  0.24370781315E+02  0.97939960581E+02  0.91286593621E+02 0.  0.
        -11    1    4    4    0    0 -0.34686319921E+01 -0.36530883755E+02  0.48522252172E+02  0.60835399494E+02  0.00000000000E+00 0.  1.
         11    1    4    4    0    0 -0.17749258363E+02  0.21872785293E+02 -0.24151470856E+02  0.37104561087E+02  0.00000000000E+00 0. -1.
        -13    1    3    3    0    0  0.42002654437E+02  0.19255795852E+02 -0.76145713924E+02  0.89068391714E+02  0.00000000000E+00 0.  1.
         13    1    3    3    0    0 -0.35581577886E+02 -0.28602606835E+02 -0.61602178014E+02  0.76674546876E+02  0.00000000000E+00 0. -1.
         21    1    1    2  502  501  0.14796813805E+02  0.24004909444E+02 -0.50486292870E+02  0.57827736805E+02  0.00000000000E+00 0.  1.
<scales pt_clust_5="13000.00000" pt_clust_6="13000.00000" pt_clust_7="13000.00000" pt_clust_8="13000.00000" pt_clust_9="28.19896"></scales>
<clustering>
<clus scale="   28.199">  2  9  1 -1</clus>
<clus scale="   91.287">  5  6 -1 -1</clus>
<clus scale="   91.475">  7  8 -1 -1</clus>
<clus scale="   93.642">  1  5  2 -1</clus>
<clus scale="   93.642">  1  5  2 -1</clus>
</clustering>
</event>
<event>
 9    1  0.1748361E-005  0.1649280E+03  0.7546771E-02  0.1183915E+00
          2   -1    0    0  502    0  0.00000000000E+00  0.00000000000E+00  0.13892045116E+03  0.13892045116E+03  0.00000000000E+00 0. -1.
         -2   -1    0    0    0  501 -0.00000000000E+00 -0.00000000000E+00 -0.35692678123E+03  0.35692678123E+03  0.00000000000E+00 0.  1.
         23    2    1    2    0    0  0.12776685121E+03  0.37759377736E+01 -0.21936539343E+03  0.26950103079E+03  0.90393604771E+02 0.  0.
         23    2    1    2    0    0 -0.13157031068E+03  0.44646911417E+02  0.28716462692E+02  0.17059975844E+03  0.94739374077E+02 0.  0.
        -11    1    3    3    0    0  0.40581865770E+02 -0.81065362554E+01 -0.15513765791E+03  0.16056243852E+03  0.00000000000E+00 0.  1.
         11    1    3    3    0    0  0.87184985444E+02  0.11882474029E+02 -0.64227735523E+02  0.10893859227E+03  0.00000000000E+00 0. -1.
        -11    1    4    4    0    0 -0.11915845113E+03 -0.19010819265E+01  0.28006122670E+02  0.12242015150E+03  0.00000000000E+00 0. -1.
         11    1    4    4    0    0 -0.12411859551E+02  0.46547993344E+02  0.71034002212E+00  0.48179606939E+02  0.00000000000E+00 0.  1.
         21    1    1    2  502  501  0.38034594637E+01 -0.48422849191E+02 -0.27357399321E+02  0.55746443162E+02  0.00000000000E+00 0. -1.
<scales pt_clust_5="13000.00000" pt_clust_6="13000.00000" pt_clust_7="13000.00000" pt_clust_8="13000.00000" pt_clust_9="48.57199"></scales>
<clustering>
<clus scale="   48.572">  2  9  1 -1</clus>
<clus scale="   90.394">  5  6 -1 -1</clus>
<clus scale="   94.739">  7  8 -1 -1</clus>
<clus scale="  162.471">  2  5  1 -1</clus>
<clus scale="  164.928">  1  5  2 -1</clus>
</clustering>
</event>
<event>
 9    1  0.1748361E-005  0.1012468E+03  0.7546771E-02  0.1284623E+00
         -2   -1    0    0    0  501 -0.00000000000E+00  0.00000000000E+00  0.49520389037E+02  0.49520389037E+02  0.00000000000E+00 0.  1.
          2   -1    0    0  502    0  0.00000000000E+00 -0.00000000000E+00 -0.39934145818E+03  0.39934145818E+03  0.00000000000E+00 0. -1.
         23    2    1    2    0    0  0.52479401499E+01 -0.34609985233E+02 -0.66144811152E+02  0.12558570985E+03  0.10085257816E+03 0.  0.
         23    2    1    2    0    0  0.12559264108E+02 -0.79140425544E+01 -0.25173825116E+03  0.26719204209E+03  0.88312360822E+02 0.  0.
        -11    1    3    3    0    0 -0.13300103499E+02  0.33487186867E+02 -0.25483461420E+02  0.44132655067E+02  0.00000000000E+00 0. -1.
         11    1    3    3    0    0  0.18548043648E+02 -0.68097172101E+02 -0.40661349732E+02  0.81453054782E+02  0.00000000000E+00 0.  1.
        -11    1    4    4    0    0  0.40124215006E+02 -0.30726630040E+02 -0.11077612675E+03  0.12175971699E+03  0.00000000000E+00 0.  1.
         11    1    4    4    0    0 -0.27564950898E+02  0.22812587485E+02 -0.14096212441E+03  0.14543232510E+03  0.00000000000E+00 0. -1.
         21    1    1    2  502  501 -0.17807204257E+02  0.42524027788E+02 -0.31938006829E+02  0.56084095276E+02  0.00000000000E+00 0. -1.
<scales pt_clust_5="13000.00000" pt_clust_6="13000.00000" pt_clust_7="13000.00000" pt_clust_8="13000.00000" pt_clust_9="46.10195"></scales>
<clustering>
<clus scale="   46.102">  1  9  2 -1</clus>
<clus scale="   88.312">  7  8 -1 -1</clus>
<clus scale="   88.762">  2  7  1 -1</clus>
<clus scale="  100.853">  5  6 -1 -1</clus>
<clus scale="   88.762">  2  5  1 -1</clus>
</clustering>
</event>
<event>
 9    1  0.1748361E-005  0.9867791E+02  0.7546771E-02  0.1284864E+00
         -1   -1    0    0    0  501 -0.00000000000E+00  0.00000000000E+00  0.18743402747E+03  0.18743402747E+03  0.00000000000E+00 0.  1.
          1   -1    0    0  502    0  0.00000000000E+00 -0.00000000000E+00 -0.19377240517E+03  0.19377240517E+03  0.00000000000E+00 0. -1.
         23    2    1    2    0    0  0.36771171999E+02 -0.10844431800E+02  0.73925429440E+02  0.12578191528E+03  0.94267705511E+02 0.  0.
         23    2    1    2    0    0 -0.18150268683E+02  0.22230073309E+02 -0.15257470019E+03  0.17989150388E+03  0.90875220032E+02 0.  0.
        -11    1    4    4    0    0 -0.22842165970E+02  0.55568472825E+02 -0.81553377508E+02  0.10129448702E+03  0.00000000000E+00 0. -1.
         11    1    4    4    0    0  0.46918972873E+01 -0.33338399517E+02 -0.71021322684E+02  0.78597016854E+02  0.00000000000E+00 0.  1.
        -11    1    3    3    0    0  0.28948143327E+02  0.36928001475E+02  0.14451249164E+02  0.49096954055E+02  0.00000000000E+00 0. -1.
         11    1    3    3    0    0  0.78230286722E+01 -0.47772433276E+02  0.59474180276E+02  0.76684961225E+02  0.00000000000E+00 0.  1.
         21    1    1    2  502  501 -0.18620903316E+02 -0.11385641508E+02  0.72310893050E+02  0.75533013488E+02  0.00000000000E+00 0. -1.
<scales pt_clust_5="13000.00000" pt_clust_6="13000.00000" pt_clust_7="13000.00000" pt_clust_8="13000.00000" pt_clust_9="21.82592"></scales>
<clustering>
<clus scale="   21.826">  1  9  2 -1</clus>
<clus scale="   90.875">  5  6 -1 -1</clus>
<clus scale="   94.268">  7  8 -1 -1</clus>
<clus scale="   95.442">  2  5  1 -1</clus>
<clus scale="   95.442">  2  5  1 -1</clus>
</clustering>
</event>
<event>
 9    1  0.1748361E-005  0.9696352E+02  0.7546771E-02  0.1287371E+00
         -2   -1    0    0    0  501 -0.00000000000E+00  0.00000000000E+00  0.30856551593E+03  0.30856551593E+03  0.00000000000E+00 0.  1.
          2   -1    0    0  502    0  0.00000000000E+00 -0.00000000000E+00 -0.31666840169E+03  0.31666840169E+03  0.00000000000E+00 0. -1.
         23    2    1    2    0    0 -0.28958224230E+02  0.37986122239E+02 -0.64460600390E+02  0.12099664263E+03  0.90573143330E+02 0.  0.
         23    2    1    2    0    0  0.28371350262E+02 -0.49010987259E+01 -0.21257759617E+03  0.23327387415E+03  0.91643394100E+02 0.  0.
        -11    1    3    3    0    0 -0.42180864557E+02 -0.14070113770E+02 -0.12319049433E+02  0.46140572333E+02  0.00000000000E+00 0.  1.
         11    1    3    3    0    0  0.13222640327E+02  0.52056236009E+02 -0.52141550957E+02  0.74856070301E+02  0.00000000000E+00 0. -1.
        -11    1    4    4    0    0 -0.23398380931E+02 -0.17142596199E+02 -0.14178361407E+03  0.14472023374E+03  0.00000000000E+00 0.  1.
         11    1    4    4    0    0  0.51769731194E+02  0.12241497473E+02 -0.70793982103E+02  0.88553640412E+02  0.00000000000E+00 0. -1.
         21    1    1    2  502  501  0.58687396791E+00 -0.33085023513E+02  0.26893531080E+03  0.27096340084E+03  0.00000000000E+00 0.  1.
<scales pt_clust_5="13000.00000" pt_clust_6="13000.00000" pt_clust_7="13000.00000" pt_clust_8="13000.00000" pt_clust_9="33.09023"></scales>
<clustering>
<clus scale="   33.090">  1  9  2 -1</clus>
<clus scale="   90.573">  5  6 -1 -1</clus>
<clus scale="   91.643">  7  8 -1 -1</clus>
<clus scale="   95.953">  1  5  2 -1</clus>
<clus scale="   96.964">  2  5  1 -1</clus>
</clustering>
</event>
<event>
 9    1  0.1748361E-005  0.1005718E+03  0.7546771E-02  0.1281432E+00
         -2   -1    0    0    0  501 -0.00000000000E+00  0.00000000000E+00  0.27805925201E+02  0.27805925201E+02  0.00000000000E+00 0.  1.
          2   -1    0    0  502    0  0.00000000000E+00 -0.00000000000E+00 -0.69108932665E+03  0.69108932665E+03  0.00000000000E+00 0. -1.
         23    2    1    2    0    0 -0.20210328013E+02  0.51868204993E+02 -0.25240596550E+03  0.27266021670E+03  0.86810450430E+02 0.  0.
         23    2    1    2    0    0  0.18319728976E+02 -0.28377073292E+02 -0.41122952067E+03  0.42266531735E+03  0.91626312057E+02 0.  0.
        -11    1    3    3    0    0 -0.13015148794E+02  0.72793006759E+02 -0.22811777685E+03  0.23980395336E+03  0.00000000000E+00 0. -1.
         11    1    3    3    0    0 -0.71951792187E+01 -0.20924801766E+02 -0.24288188650E+02  0.32856263343E+02  0.00000000000E+00 0.  1.
        -13    1    4    4    0    0  0.49898882025E+02 -0.39085835569E+02 -0.24067272819E+03  0.24887941470E+03  0.00000000000E+00 0.  1.
         13    1    4    4    0    0 -0.31579153049E+02  0.10708762277E+02 -0.17055679248E+03  0.17378590264E+03  0.00000000000E+00 0. -1.
         21    1    1    2  502  501  0.18905990363E+01 -0.23491131701E+02  0.35208472671E+00  0.23569717796E+02  0.00000000000E+00 0.  1.
<scales pt_clust_5="13000.00000" pt_clust_6="13000.00000" pt_clust_7="13000.00000" pt_clust_8="13000.00000" pt_clust_9="23.56709"></scales>
<clustering>
<clus scale="   23.567">  1  9  2 -1</clus>
<clus scale="   86.810">  5  6 -1 -1</clus>
<clus scale="   91.626">  7  8 -1 -1</clus>
<clus scale="   96.205">  1  5  2 -1</clus>
<clus scale="  100.572">  2  5  1 -1</clus>
</clustering>
</event>
<event>
 9    1  0.1748361E-005  0.9304823E+02  0.7546771E-02  0.1297688E+00
          1   -1    0    0  502    0  0.00000000000E+00  0.00000000000E+00  0.75543679318E+02  0.75543679318E+02  0.00000000000E+00 0. -1.
         -1   -1    0    0    0  501 -0.00000000000E+00 -0.00000000000E+00 -0.16344804225E+03  0.16344804225E+03  0.00000000000E+00 0.  1.
         23    2    1    2    0    0  0.26756409849E+01 -0.28031769848E+01 -0.43589025988E+02  0.10091985317E+03  0.90938422687E+02 0.  0.
         23    2    1    2    0    0 -0.24767944040E+02  0.30037341038E+02 -0.30913734138E+02  0.10053025810E+03  0.87378377918E+02 0.  0.
        -11    1    3    3    0    0  0.12128366795E+02 -0.40770761116E+02 -0.44796764770E+02  0.61774609484E+02  0.00000000000E+00 0.  1.
         11    1    3    3    0    0 -0.94527258099E+01  0.37967584131E+02  0.12077387820E+01  0.39145243683E+02  0.00000000000E+00 0. -1.
        -13    1    4    4    0    0 -0.23826440372E+02 -0.22607216596E+02  0.94597730158E+01  0.34180005976E+02  0.00000000000E+00 0.  1.
         13    1    4    4    0    0 -0.94150366853E+00  0.52644557634E+02 -0.40373507154E+02  0.66350252129E+02  0.00000000000E+00 0. -1.
         21    1    1    2  502  501  0.22092303055E+02 -0.27234164053E+02 -0.13401602808E+02  0.37541610298E+02  0.00000000000E+00 0.  1.
<scales pt_clust_5="13000.00000" pt_clust_6="13000.00000" pt_clust_7="13000.00000" pt_clust_8="13000.00000" pt_clust_9="35.06807"></scales>
<clustering>
<clus scale="   35.068">  1  9  2 -1</clus>
<clus scale="   87.378">  7  8 -1 -1</clus>
<clus scale="   89.572">  1  7  2 -1</clus>
<clus scale="   90.938">  5  6 -1 -1</clus>
<clus scale="   35.068">  1  5  2 -1</clus>
</clustering>
</event>
<event>
 9    1  0.1748361E-005  0.1211325E+03  0.7546771E-02  0.1244209E+00
         -2   -1    0    0    0  501 -0.00000000000E+00  0.00000000000E+00  0.86990370490E+02  0.86990370490E+02  0.00000000000E+00 0. -1.
          2   -1    0    0  502    0  0.00000000000E+00 -0.00000000000E+00 -0.37823776052E+03  0.37823776052E+03  0.00000000000E+00 0.  1.
         23    2    1    2    0    0  0.13578720118E+02 -0.64191596716E+02 -0.91554774744E+02  0.14001945442E+03  0.83175886591E+02 0.  0.
         23    2    1    2    0    0 -0.50179280699E+02  0.73037170215E+02 -0.23873330547E+03  0.27096827931E+03  0.92616568743E+02 0.  0.
        -13    1    3    3    0    0  0.30963792186E+02  0.48009042905E+01 -0.12697013605E+02  0.33808567894E+02  0.00000000000E+00 0.  1.
         13    1    3    3    0    0 -0.17385072068E+02 -0.68992501006E+02 -0.78857761138E+02  0.10621088653E+03  0.00000000000E+00 0. -1.
        -13    1    4    4    0    0  0.11915539007E+02  0.62942734612E+02 -0.13899765785E+03  0.15304939333E+03  0.00000000000E+00 0.  1.
         13    1    4    4    0    0 -0.62094819706E+02  0.10094435603E+02 -0.99735647623E+02  0.11791888598E+03  0.00000000000E+00 0. -1.
         21    1    1    2  502  501  0.36600560581E+02 -0.88455734992E+01  0.39040690192E+02  0.54240397270E+02  0.00000000000E+00 0. -1.
<scales pt_clust_5="13000.00000" pt_clust_6="13000.00000" pt_clust_7="13000.00000" pt_clust_8="13000.00000" pt_clust_9="37.65429"></scales>
<clustering>
<clus scale="   37.654">  1  9  2 -1</clus>
<clus scale="   83.176">  5  6 -1 -1</clus>
<clus scale="   92.617">  7  8 -1 -1</clus>
<clus scale="  114.077">  1  5  2 -1</clus>
<clus scale="  121.133">  2  5  1 -1</clus>
</clustering>
</event>
<event>
 9    1  0.1748361E-005  0.9880863E+02  0.7546771E-02  0.1283409E+00
         -1   -1    0    0    0  501 -0.00000000000E+00  0.00000000000E+00  0.44102945584E+03  0.44102945584E+03  0.00000000000E+00 0.  1.
          1   -1    0    0  502    0  0.00000000000E+00 -0.00000000000E+00 -0.54992570408E+02  0.54992570408E+02  0.00000000000E+00 0. -1.
         23    2    1    2    0    0  0.94444084364E+01  0.33892588531E+02  0.26623592373E+03  0.28396063682E+03  0.92272269782E+02 0.  0.
         23    2    1    2    0    0 -0.29809602513E+02 -0.21354318755E+02  0.88939771149E+01  0.98605192732E+02  0.91100284705E+02 0.  0.
        -11    1    3    3    0    0 -0.10160084879E+02  0.61479980928E+02  0.13952548726E+03  0.15280830139E+03  0.00000000000E+00 0.  1.
         11    1    3    3    0    0  0.19604493315E+02 -0.27587392396E+02  0.12671043648E+03  0.13115233543E+03  0.00000000000E+00 0. -1.
        -13    1    4    4    0    0 -0.14296959179E+02  0.14580967335E+02  0.42413324823E+02  0.47073323366E+02  0.00000000000E+00 0.  1.
         13    1    4    4    0    0 -0.15512643334E+02 -0.35935286090E+02 -0.33519347708E+02  0.51531869366E+02  0.00000000000E+00 0. -1.
         21    1    1    2  502  501  0.20365194077E+02 -0.12538269776E+02  0.11090698459E+03  0.11345619670E+03  0.00000000000E+00 0.  1.
<scales pt_clust_5="13000.00000" pt_clust_6="13000.00000" pt_clust_7="13000.00000" pt_clust_8="13000.00000" pt_clust_9="23.91546"></scales>
<clustering>
<clus scale="   23.915">  1  9  2 -1</clus>
<clus scale="   91.100">  7  8 -1 -1</clus>
<clus scale="   92.272">  5  6 -1 -1</clus>
<clus scale="   97.715">  2  7  1 -1</clus>
<clus scale="   97.715">  2  5  1 -1</clus>
</clustering>
</event>
<event>
 9    1  0.1748361E-005  0.1162844E+03  0.7546771E-02  0.1260517E+00
         -1   -1    0    0    0  501 -0.00000000000E+00  0.00000000000E+00  0.18748136239E+03  0.18748136239E+03  0.00000000000E+00 0.  1.
          1   -1    0    0  502    0  0.00000000000E+00 -0.00000000000E+00 -0.17750585963E+03  0.17750585963E+03  0.00000000000E+00 0. -1.
         23    2    1    2    0    0  0.15788748480E+02  0.89942267670E+01  0.98574162720E+01  0.11558692518E+03  0.11372329543E+03 0.  0.
         23    2    1    2    0    0 -0.50062339026E+01  0.32859544620E+02 -0.10108065580E+03  0.13935854913E+03  0.89992745196E+02 0.  0.
        -13    1    4    4    0    0 -0.44996735570E+02  0.23572757107E+02 -0.75461839897E+02  0.90966314481E+02  0.00000000000E+00 0. -1.
         13    1    4    4    0    0  0.39990501668E+02  0.92867875133E+01 -0.25618815903E+02  0.48392234648E+02  0.00000000000E+00 0.  1.
        -13    1    3    3    0    0  0.52263039576E+02  0.21037482876E+02  0.38011846149E+02  0.67962500242E+02  0.00000000000E+00 0.  1.
         13    1    3    3    0    0 -0.36474291096E+02 -0.12043256109E+02 -0.28154429877E+02  0.47624424935E+02  0.00000000000E+00 0. -1.
         21    1    1    2  502  501 -0.10782514578E+02 -0.41853771387E+02  0.10119874228E+03  0.11004174771E+03  0.00000000000E+00 0. -1.
<scales pt_clust_5="13000.00000" pt_clust_6="13000.00000" pt_clust_7="13000.00000" pt_clust_8="13000.00000" pt_clust_9="43.22037"></scales>
<clustering>
<clus scale="   43.220">  1  9  2 -1</clus>
<clus scale="   89.993">  5  6 -1 -1</clus>
<clus scale="   93.208">  2  5  1 -1</clus>
<clus scale="  113.723">  7  8 -1 -1</clus>
<clus scale="   93.208">  2  5  1 -1</clus>
</clustering>
</event>
<event>
 9    1  0.1748361E-005  0.9228395E+02  0.7546771E-02  0.1302145E+00
         -1   -1    0    0    0  501 -0.00000000000E+00  0.00000000000E+00  0.17901680856E+03  0.17901680856E+03  0.00000000000E+00 0.  1.
          1   -1    0    0  502    0  0.00000000000E+00 -0.00000000000E+00 -0.24744835142E+03  0.24744835142E+03  0.00000000000E+00 0. -1.
         23    2    1    2    0    0  0.15210952174E+02 -0.51316817497E+02 -0.62790236372E+02  0.11631574548E+03  0.81987499280E+02 0.  0.
         23    2    1    2    0    0  0.21208302980E+02  0.17398370043E+01 -0.13691338731E+03  0.16517838863E+03  0.89921105965E+02 0.  0.
        -11    1    3    3    0    0 -0.30261023055E+02 -0.48108568662E+01 -0.90645862532E+01  0.31953725668E+02  0.00000000000E+00 0.  1.
         11    1    3    3    0    0  0.45471975230E+02 -0.46505960631E+02 -0.53725650118E+02  0.84362019808E+02  0.00000000000E+00 0. -1.
        -13    1    4    4    0    0 -0.88993447224E+01 -0.23237289020E+02 -0.12001122707E+03  0.12256371633E+03  0.00000000000E+00 0. -1.
         13    1    4    4    0    0  0.30107647702E+02  0.24977126025E+02 -0.16902160239E+02  0.42614672301E+02  0.00000000000E+00 0.  1.
         21    1    1    2  502  501 -0.36419255154E+02  0.49576980492E+02  0.13127208082E+03  0.14497102587E+03  0.00000000000E+00 0.  1.
<scales pt_clust_5="13000.00000" pt_clust_6="13000.00000" pt_clust_7="13000.00000" pt_clust_8="13000.00000" pt_clust_9="61.51617"></scales>
<clustering>
<clus scale="   61.516">  1  9  2 -1</clus>
<clus scale="   81.987">  5  6 -1 -1</clus>
<clus scale="   84.572">  1  5  2 -1</clus>
<clus scale="   89.921">  7  8 -1 -1</clus>
<clus scale="   92.284">  2  5  1 -1</clus>
</clustering>
</event>
<event>
 9    1  0.1748361E-005  0.1904101E+03  0.7546771E-02  0.1158613E+00
          1   -1    0    0  502    0  0.00000000000E+00  0.00000000000E+00  0.34558011021E+03  0.34558011021E+03  0.00000000000E+00 0. -1.
         -1   -1    0    0    0  501 -0.00000000000E+00 -0.00000000000E+00 -0.17901706530E+03  0.17901706530E+03  0.00000000000E+00 0.  1.
         23    2    1    2    0    0 -0.17136276329E+03  0.77155207097E+02 -0.42442850135E+02  0.21216150060E+03  0.88842468357E+02 0.  0.
         23    2    1    2    0    0  0.14952773044E+03 -0.56525914388E+02  0.21282299919E+03  0.28215520825E+03  0.93617366937E+02 0.  0.
        -11    1    4    4    0    0  0.14191449231E+03 -0.36236865392E+02  0.12770812710E+03  0.19432498364E+03  0.00000000000E+00 0.  1.
         11    1    4    4    0    0  0.76132381306E+01 -0.20289048996E+02  0.85114872088E+02  0.87830224608E+02  0.00000000000E+00 0. -1.
        -13    1    3    3    0    0 -0.12257044990E+03  0.95867320183E+02 -0.32514929867E+02  0.15896942767E+03  0.00000000000E+00 0.  1.
         13    1    3    3    0    0 -0.48792313390E+02 -0.18712113086E+02 -0.99279202678E+01  0.53192072933E+02  0.00000000000E+00 0. -1.
         21    1    1    2  502  501  0.21835032851E+02 -0.20629292709E+02 -0.38171041410E+01  0.30280466663E+02  0.00000000000E+00 0. -1.
<scales pt_clust_5="13000.00000" pt_clust_6="13000.00000" pt_clust_7="13000.00000" pt_clust_8="13000.00000" pt_clust_9="30.03891"></scales>
<clustering>
<clus scale="   30.039">  2  9  1 -1</clus>
<clus scale="   88.842">  7  8 -1 -1</clus>
<clus scale="   93.617">  5  6 -1 -1</clus>
<clus scale="  188.108">  2  7  1 -1</clus>
<clus scale="  190.410">  1  5  2 -1</clus>
</clustering>
</event>
<event>
 9    1  0.2618182E-005  0.1372880E+03  0.7546771E-02  0.1217239E+00
         -2   -1    0    0    0  501 -0.00000000000E+00  0.00000000000E+00  0.19687648517E+03  0.19687648517E+03  0.00000000000E+00 0.  1.
          2   -1    0    0  502    0  0.00000000000E+00 -0.00000000000E+00 -0.42732850260E+03  0.42732850260E+03  0.00000000000E+00 0. -1.
         23    2    1    2    0    0 -0.83100949528E+02 -0.64855490236E+02  0.12928257951E+03  0.18917345675E+03  0.89222244687E+02 0.  0.
         23    2    1    2    0    0  0.93736485280E+02  0.46006828952E+02 -0.38093855308E+03  0.40473310848E+03  0.88269762073E+02 0.  0.
        -11    1    3    3    0    0 -0.35365008057E+02 -0.28878617432E+01  0.99219194326E+02  0.10537301392E+03  0.00000000000E+00 0.  1.
         11    1    3    3    0    0 -0.47735941471E+02 -0.61967628493E+02  0.30063385185E+02  0.83800442827E+02  0.00000000000E+00 0. -1.
        -13    1    4    4    0    0  0.19522230511E+02  0.67606997523E+01 -0.75074692987E+01  0.21981506785E+02  0.00000000000E+00 0.  1.
         13    1    4    4    0    0  0.74214254769E+02  0.39246129199E+02 -0.37343108378E+03  0.38275160169E+03  0.00000000000E+00 0. -1.
         21    1    1    2  502  501 -0.10635535752E+02  0.18848661284E+02  0.21203956131E+02  0.30298422542E+02  0.00000000000E+00 0.  1.
<scales pt_clust_5="13000.00000" pt_clust_6="13000.00000" pt_clust_7="13000.00000" pt_clust_8="13000.00000" pt_clust_9="21.64224"></scales>
<clustering>
<clus scale="   21.642">  1  9  2 -1</clus>
<clus scale="   88.270">  7  8 -1 -1</clus>
<clus scale="   89.222">  5  6 -1 -1</clus>
<clus scale="  136.671">  2  7  1 -1</clus>
<clus scale="  136.671">  2  5  1 -1</clus>
</clustering>
</event>
<event>
 9    1  0.1748361E-005  0.9921661E+02  0.7546771E-02  0.1291350E+00
         -1   -1    0    0    0  501 -0.00000000000E+00  0.00000000000E+00  0.32648594545E+03  0.32648594545E+03  0.00000000000E+00 0.  1.
          1   -1    0    0  502    0  0.00000000000E+00 -0.00000000000E+00 -0.51233850809E+02  0.51233850809E+02  0.00000000000E+00 0. -1.
         23    2    1    2    0    0 -0.27605925125E+02 -0.64119144459E+01  0.17764723882E+03  0.20147409100E+03  0.90719722957E+02 0.  0.
         23    2    1    2    0    0  0.67125630471E+02  0.22629361298E+02  0.53269365009E+02  0.11467908737E+03  0.72771763567E+02 0.  0.
        -11    1    4    4    0    0  0.14740476201E+02 -0.25355580147E+02  0.78540519824E+01  0.30362365122E+02  0.00000000000E+00 0.  1.
         11    1    4    4    0    0  0.52385154270E+02  0.47984941445E+02  0.45415313026E+02  0.84316722248E+02  0.00000000000E+00 0. -1.
        -11    1    3    3    0    0 -0.12833695930E+02  0.28890104156E+02  0.16138433101E+02  0.35493533106E+02  0.00000000000E+00 0. -1.
         11    1    3    3    0    0 -0.14772229195E+02 -0.35302018602E+02  0.16150880572E+03  0.16598055789E+03  0.00000000000E+00 0.  1.
         21    1    1    2  502  501 -0.39519705346E+02 -0.16217446852E+02  0.44335490808E+02  0.61566617889E+02  0.00000000000E+00 0.  1.
<scales pt_clust_5="13000.00000" pt_clust_6="13000.00000" pt_clust_7="13000.00000" pt_clust_8="13000.00000" pt_clust_9="42.71783"></scales>
<clustering>
<clus scale="   42.718">  2  9  1 -1</clus>
<clus scale="   72.772">  5  6 -1 -1</clus>
<clus scale="   83.124">  2  5  1 -1</clus>
<clus scale="   90.720">  7  8 -1 -1</clus>
<clus scale="   42.718">  2  5  1 -1</clus>
</clustering>
</event>
<event>
 9    1  0.1748361E-005  0.1228382E+03  0.7546771E-02  0.1240548E+00
         -2   -1    0    0    0  501 -0.00000000000E+00  0.00000000000E+00  0.22248855886E+03  0.22248855886E+03  0.00000000000E+00 0.  1.
          2   -1    0    0  502    0  0.00000000000E+00 -0.00000000000E+00 -0.56104724900E+03  0.56104724900E+03  0.00000000000E+00 0. -1.
         23    2    1    2    0    0 -0.32381857353E+02 -0.52067825409E+02 -0.58385363811E+01  0.10445545697E+03  0.84363563555E+02 0.  0.
         23    2    1    2    0    0 -0.29869388278E+01  0.87033111793E+02 -0.49423572141E+03  0.51008093791E+03  0.91268453247E+02 0.  0.
        -11    1    3    3    0    0 -0.61034264421E+02 -0.30929090954E+02 -0.32191969306E+00  0.68424365054E+02  0.00000000000E+00 0. -1.
         11    1    3    3    0    0  0.28652407068E+02 -0.21138734455E+02 -0.55166166881E+01  0.36031091918E+02  0.00000000000E+00 0.  1.
        -11    1    4    4    0    0 -0.32885059076E+02  0.90251351195E+02 -0.37225336437E+03  0.38444674637E+03  0.00000000000E+00 0. -1.
         11    1    4    4    0    0  0.29898120248E+02 -0.32182394014E+01 -0.12198235703E+03  0.12563419155E+03  0.00000000000E+00 0.  1.
         21    1    1    2  502  501  0.35368796181E+02 -0.34965286384E+02  0.16151556764E+03  0.16899941298E+03  0.00000000000E+00 0.  1.
<scales pt_clust_5="13000.00000" pt_clust_6="13000.00000" pt_clust_7="13000.00000" pt_clust_8="13000.00000" pt_clust_9="49.73453"></scales>
<clustering>
<clus scale="   49.735">  1  9  2 -1</clus>
<clus scale="   84.364">  5  6 -1 -1</clus>
<clus scale="   91.268">  7  8 -1 -1</clus>
<clus scale="  117.799">  1  5  2 -1</clus>
<clus scale="  122.838">  2  5  1 -1</clus>
</clustering>
</event>
<event>
 9    1  0.1748361E-005  0.1398757E+03  0.7546771E-02  0.1214838E+00
          2   -1    0    0  502    0  0.00000000000E+00  0.00000000000E+00  0.41979022426E+03  0.41979022426E+03  0.00000000000E+00 0. -1.
         -2   -1    0    0    0  501 -0.00000000000E+00 -0.00000000000E+00 -0.11541896019E+03  0.11541896019E+03  0.00000000000E+00 0.  1.
         23    2    1    2    0    0  0.83405341333E+02 -0.75573095235E+02  0.19841428634E+03  0.24707448255E+03  0.94920109667E+02 0.  0.
         23    2    1    2    0    0 -0.59748407830E+02  0.73304566503E+02  0.17338513791E+03  0.21664097134E+03  0.89036356095E+02 0.  0.
        -11    1    3    3    0    0  0.91502205669E+02 -0.26938756455E+02  0.10800375658E+03  0.14409428052E+03  0.00000000000E+00 0.  1.
         11    1    3    3    0    0 -0.80968643361E+01 -0.48634338780E+02  0.90410529755E+02  0.10298020204E+03  0.00000000000E+00 0. -1.
        -13    1    4    4    0    0 -0.69610598502E+01 -0.20017479669E+02  0.17722896177E+02  0.27627104362E+02  0.00000000000E+00 0.  1.
         13    1    4    4    0    0 -0.52787347980E+02  0.93322046172E+02  0.15566224173E+03  0.18901386697E+03  0.00000000000E+00 0. -1.
         21    1    1    2  502  501 -0.23656933502E+02  0.22685287318E+01 -0.67428160174E+02  0.71493730562E+02  0.00000000000E+00 0. -1.
<scales pt_clust_5="13000.00000" pt_clust_6="13000.00000" pt_clust_7="13000.00000" pt_clust_8="13000.00000" pt_clust_9="23.76545"></scales>
<clustering>
<clus scale="   23.765">  2  9  1 -1</clus>
<clus scale="   89.036">  7  8 -1 -1</clus>
<clus scale="   94.920">  5  6 -1 -1</clus>
<clus scale="  135.952">  1  7  2 -1</clus>
<clus scale="  135.952">  1  5  2 -1</clus>
</clustering>
</event>
<event>
 9    1  0.1748361E-005  0.9599327E+02  0.7546771E-02  0.1291513E+00
         -1   -1    0    0    0  501 -0.00000000000E+00  0.00000000000E+00  0.18237896662E+02  0.18237896662E+02  0.00000000000E+00 0.  1.
          1   -1    0    0  502    0  0.00000000000E+00 -0.00000000000E+00 -0.81383800905E+03  0.81383800905E+03  0.00000000000E+00 0. -1.
         23    2    1    2    0    0 -0.47066939990E+02  0.56018695939E+00 -0.23407191904E+03  0.25527453358E+03  0.90331686366E+02 0.  0.
         23    2    1    2    0    0  0.25368136426E+02 -0.12399477707E+02 -0.52514415897E+03  0.53281495561E+03  0.85545893068E+02 0.  0.
        -11    1    3    3    0    0 -0.27476813571E+02 -0.41811222609E+02 -0.80651460179E+02  0.94909491881E+02  0.00000000000E+00 0.  1.
         11    1    3    3    0    0 -0.19590126419E+02  0.42371409569E+02 -0.15342045886E+03  0.16036504170E+03  0.00000000000E+00 0. -1.
        -13    1    4    4    0    0  0.52341644760E+02 -0.27548445238E+02 -0.34553808048E+03  0.35056401651E+03  0.00000000000E+00 0.  1.
         13    1    4    4    0    0 -0.26973508333E+02  0.15148967530E+02 -0.17960607849E+03  0.18225093909E+03  0.00000000000E+00 0. -1.
         21    1    1    2  502  501  0.21698803563E+02  0.11839290748E+02 -0.36384034376E+02  0.43986416528E+02  0.00000000000E+00 0. -1.
<scales pt_clust_5="13000.00000" pt_clust_6="13000.00000" pt_clust_7="13000.00000" pt_clust_8="13000.00000" pt_clust_9="24.71855"></scales>
<clustering>
<clus scale="   24.719">  1  9  2 -1</clus>
<clus scale="   85.546">  7  8 -1 -1</clus>
<clus scale="   90.332">  5  6 -1 -1</clus>
<clus scale="   91.504">  2  7  1 -1</clus>
<clus scale="   91.504">  2  5  1 -1</clus>
</clustering>
</event>
<event>
 9    1  0.1748361E-005  0.9778445E+02  0.7546771E-02  0.1285727E+00
          2   -1    0    0  502    0  0.00000000000E+00  0.00000000000E+00  0.45309693342E+02  0.45309693342E+02  0.00000000000E+00 0. -1.
         -2   -1    0    0    0  501 -0.00000000000E+00 -0.00000000000E+00 -0.33288304668E+03  0.33288304668E+03  0.00000000000E+00 0.  1.
         23    2    1    2    0    0  0.21750392654E+02  0.38449944907E+02 -0.15828337065E+03  0.18683624703E+03  0.88897018723E+02 0.  0.
         23    2    1    2    0    0  0.31351259168E+01 -0.36643459340E+02 -0.52743815553E+02  0.11084644313E+03  0.90290928387E+02 0.  0.
        -11    1    3    3    0    0  0.18939904321E+02 -0.19803257337E+02 -0.10261873386E+03  0.10621437528E+03  0.00000000000E+00 0.  1.
         11    1    3    3    0    0  0.28104883332E+01  0.58253202245E+02 -0.55664636786E+02  0.80621871753E+02  0.00000000000E+00 0. -1.
        -13    1    4    4    0    0  0.33255410932E+02 -0.36819974312E+02 -0.61932439966E+02  0.79355276981E+02  0.00000000000E+00 0.  1.
         13    1    4    4    0    0 -0.30120285015E+02  0.17651497224E+00  0.91886244130E+01  0.31491166151E+02  0.00000000000E+00 0. -1.
         21    1    1    2  502  501 -0.24885518571E+02 -0.18064855671E+01 -0.76546167136E+02  0.80510049857E+02  0.00000000000E+00 0. -1.
<scales pt_clust_5="13000.00000" pt_clust_6="13000.00000" pt_clust_7="13000.00000" pt_clust_8="13000.00000" pt_clust_9="24.95100"></scales>
<clustering>
<clus scale="   24.951">  2  9  1 -1</clus>
<clus scale="   88.897">  5  6 -1 -1</clus>
<clus scale="   90.291">  7  8 -1 -1</clus>
<clus scale="   96.499">  2  5  1 -1</clus>
<clus scale="   97.784">  1  5  2 -1</clus>
</clustering>
</event>
<event>
 9    1  0.1748361E-005  0.1161453E+03  0.7546771E-02  0.1250262E+00
          1   -1    0    0  502    0  0.00000000000E+00  0.00000000000E+00  0.47239397405E+03  0.47239397405E+03  0.00000000000E+00 0. -1.
         -1   -1    0    0    0  501 -0.00000000000E+00 -0.00000000000E+00 -0.35878475062E+02  0.35878475062E+02  0.00000000000E+00 0.  1.
         23    2    1    2    0    0  0.65607258021E+02 -0.26431432983E+02  0.13776785797E+03  0.17750052062E+03  0.86738222121E+02 0.  0.
         23    2    1    2    0    0 -0.77855145129E+02  0.95737114067E+01  0.27340417291E+03  0.29796209931E+03  0.88760865729E+02 0.  0.
        -11    1    4    4    0    0  0.49710219014E+01  0.23999386082E+02  0.22221541063E+02  0.33082903111E+02  0.00000000000E+00 0. -1.
         11    1    4    4    0    0 -0.82826167030E+02 -0.14425674676E+02  0.25118263185E+03  0.26487919620E+03  0.00000000000E+00 0.  1.
        -13    1    3    3    0    0 -0.81354410174E+00  0.24349470465E+02  0.53533905762E+02  0.58816984214E+02  0.00000000000E+00 0.  1.
         13    1    3    3    0    0  0.66420802123E+02 -0.50780903448E+02  0.84233952212E+02  0.11868353641E+03  0.00000000000E+00 0. -1.
         21    1    1    2  502  501  0.12247887108E+02  0.16857721576E+02  0.25343468102E+02  0.32809829179E+02  0.00000000000E+00 0.  1.
<scales pt_clust_5="13000.00000" pt_clust_6="13000.00000" pt_clust_7="13000.00000" pt_clust_8="13000.00000" pt_clust_9="20.83731"></scales>
<clustering>
<clus scale="   20.837">  2  9  1 -1</clus>
<clus scale="   86.738">  7  8 -1 -1</clus>
<clus scale="   88.761">  5  6 -1 -1</clus>
<clus scale="  114.607">  2  7  1 -1</clus>
<clus scale="  116.145">  1  5  2 -1</clus>
</clustering>
</event>
<event>
 9    1  0.1748361E-005  0.1054987E+03  0.7546771E-02  0.1269145E+00
         -1   -1    0    0    0  501 -0.00000000000E+00  0.00000000000E+00  0.18728222472E+03  0.18728222472E+03  0.00000000000E+00 0.  1.
          1   -1    0    0  502    0  0.00000000000E+00 -0.00000000000E+00 -0.18558815906E+03  0.18558815906E+03  0.00000000000E+00 0. -1.
         23    2    1    2    0    0 -0.13163098205E+02  0.69200920180E+02  0.97829084095E+02  0.15157449262E+03  0.91881786068E+02 0.  0.
         23    2    1    2    0    0 -0.30209638951E+02 -0.42111694432E+02 -0.12421307143E+03  0.16295724582E+03  0.91870342110E+02 0.  0.
        -11    1    4    4    0    0 -0.29286825499E+02 -0.70451542871E+02 -0.99196006534E+02  0.12514386023E+03  0.00000000000E+00 0.  1.
         11    1    4    4    0    0 -0.92281345232E+00  0.28339848439E+02 -0.25017064895E+02  0.37813385595E+02  0.00000000000E+00 0. -1.
        -13    1    3    3    0    0  0.19407530495E+02  0.91282488969E+01  0.77304478097E+02  0.80224432074E+02  0.00000000000E+00 0.  1.
         13    1    3    3    0    0 -0.32570628700E+02  0.60072671283E+02  0.20524605998E+02  0.71350060549E+02  0.00000000000E+00 0. -1.
         21    1    1    2  502  501  0.43372737155E+02 -0.27089225748E+02  0.28078052988E+02  0.58338645335E+02  0.00000000000E+00 0.  1.
<scales pt_clust_5="13000.00000" pt_clust_6="13000.00000" pt_clust_7="13000.00000" pt_clust_8="13000.00000" pt_clust_9="51.13727"></scales>
<clustering>
<clus scale="   51.137">  1  9  2 -1</clus>
<clus scale="   91.870">  5  6 -1 -1</clus>
<clus scale="   91.882">  7  8 -1 -1</clus>
<clus scale="  105.489">  2  5  1 -1</clus>
<clus scale="  105.489">  2  5  1 -1</clus>
</clustering>
</event>
<event>
 9    1  0.1748361E-005  0.2357986E+03  0.7546771E-02  0.1122818E+00
         -2   -1    0    0    0  501 -0.00000000000E+00  0.00000000000E+00  0.14049980989E+03  0.14049980989E+03  0.00000000000E+00 0.  1.
          2   -1    0    0  502    0  0.00000000000E+00 -0.00000000000E+00 -0.67744120377E+03  0.67744120377E+03  0.00000000000E+00 0. -1.
         23    2    1    2    0    0  0.16973847993E+03  0.14506578980E+03 -0.25097064261E+03  0.34820009172E+03  0.91661363081E+02 0.  0.
         23    2    1    2    0    0 -0.12925831358E+03 -0.17173489833E+03 -0.33037729450E+03  0.40400032338E+03  0.88693391134E+02 0.  0.
        -13    1    4    4    0    0 -0.89660509363E+02 -0.16474677069E+03 -0.29915367129E+03  0.35309124096E+03  0.00000000000E+00 0. -1.
         13    1    4    4    0    0 -0.39597804213E+02 -0.69881276448E+01 -0.31223623208E+02  0.50909082419E+02  0.00000000000E+00 0.  1.
        -13    1    3    3    0    0  0.30307064883E+02  0.15525505295E+02 -0.98865682407E+02  0.10456568584E+03  0.00000000000E+00 0. -1.
         13    1    3    3    0    0  0.13943141505E+03  0.12954028450E+03 -0.15210496020E+03  0.24363440588E+03  0.00000000000E+00 0.  1.
         21    1    1    2  502  501 -0.40480166356E+02  0.26669108536E+02  0.44406543224E+02  0.65740598563E+02  0.00000000000E+00 0. -1.
<scales pt_clust_5="13000.00000" pt_clust_6="13000.00000" pt_clust_7="13000.00000" pt_clust_8="13000.00000" pt_clust_9="48.47561"></scales>
<clustering>
<clus scale="   48.476">  1  9  2 -1</clus>
<clus scale="   88.693">  5  6 -1 -1</clus>
<clus scale="   91.661">  7  8 -1 -1</clus>
<clus scale="  234.661">  2  5  1 -1</clus>
<clus scale="  234.661">  2  5  1 -1</clus>
</clustering>
</event>
<event>
 9    1  0.1748361E-005  0.1431760E+03  0.7546771E-02  0.1210059E+00
         -2   -1    0    0    0  501 -0.00000000000E+00  0.00000000000E+00  0.48211535155E+02  0.48211535155E+02  0.00000000000E+00 0.  1.
          2   -1    0    0  502    0  0.00000000000E+00 -0.00000000000E+00 -0.11073260746E+04  0.11073260746E+04  0.00000000000E+00 0. -1.
         23    2    1    2    0    0 -0.50814780038E+01 -0.11777616989E+03 -0.10053819155E+03  0.18143843341E+03  0.94418904603E+02 0.  0.
         23    2    1    2    0    0 -0.19255599892E+02  0.67620804825E+02 -0.55015255132E+03  0.56188824537E+03  0.90040097628E+02 0.  0.
        -11    1    4    4    0    0 -0.47469037237E+02  0.67128428545E+02 -0.46413362656E+03  0.47135926714E+03  0.00000000000E+00 0. -1.
         11    1    4    4    0    0  0.28213437345E+02  0.49237628034E+00 -0.86018924759E+02  0.90528978222E+02  0.00000000000E+00 0.  1.
        -11    1    3    3    0    0  0.39399571843E+02 -0.36369071680E+02 -0.16066499883E+02  0.55974709064E+02  0.00000000000E+00 0. -1.
         11    1    3    3    0    0 -0.44481049847E+02 -0.81407098214E+02 -0.84471691663E+02  0.12546372435E+03  0.00000000000E+00 0.  1.
         21    1    1    2  502  501  0.24337077896E+02  0.50155365069E+02 -0.40842379653E+03  0.41221093093E+03  0.00000000000E+00 0. -1.
<scales pt_clust_5="13000.00000" pt_clust_6="13000.00000" pt_clust_7="13000.00000" pt_clust_8="13000.00000" pt_clust_9="55.74813"></scales>
<clustering>
<clus scale="   55.748">  2  9  1 -1</clus>
<clus scale="   90.040">  5  6 -1 -1</clus>
<clus scale="   94.419">  7  8 -1 -1</clus>
<clus scale="  140.327">  2  5  1 -1</clus>
<clus scale="   55.748">  2  5  1 -1</clus>
</clustering>
</event>
<event>
 9    1  0.1748361E-005  0.9199405E+02  0.7546771E-02  0.1298220E+00
         -3   -1    0    0    0  501 -0.00000000000E+00  0.00000000000E+00  0.41266986417E+03  0.41266986417E+03  0.00000000000E+00 0.  1.
          3   -1    0    0  502    0  0.00000000000E+00 -0.00000000000E+00 -0.75643602313E+02  0.75643602313E+02  0.00000000000E+00 0. -1.
         23    2    1    2    0    0  0.53773635718E+01 -0.73840067931E+01  0.32085103538E+03  0.33358708285E+03  0.90837851932E+02 0.  0.
         23    2    1    2    0    0 -0.37550833265E+02  0.33353376145E+02 -0.12020333095E+02  0.10468110537E+03  0.91055656801E+02 0.  0.
        -11    1    4    4    0    0 -0.16233074220E+02  0.12528305268E+02  0.39874463278E+02  0.44837974455E+02  0.00000000000E+00 0.  1.
         11    1    4    4    0    0 -0.21317759044E+02  0.20825070877E+02 -0.51894796372E+02  0.59843130919E+02  0.00000000000E+00 0. -1.
        -11    1    3    3    0    0 -0.38229860481E+02 -0.12625749374E+02  0.21899299301E+03  0.22266311497E+03  0.00000000000E+00 0. -1.
         11    1    3    3    0    0  0.43607224053E+02  0.52417425810E+01  0.10185804237E+03  0.11092396788E+03  0.00000000000E+00 0.  1.
         21    1    1    2  502  501  0.32173469693E+02 -0.25969369351E+02  0.28195559574E+02  0.50045278261E+02  0.00000000000E+00 0.  1.
<scales pt_clust_5="13000.00000" pt_clust_6="13000.00000" pt_clust_7="13000.00000" pt_clust_8="13000.00000" pt_clust_9="41.34659"></scales>
<clustering>
<clus scale="   41.347">  2  9  1 -1</clus>
<clus scale="   90.838">  7  8 -1 -1</clus>
<clus scale="   91.056">  5  6 -1 -1</clus>
<clus scale="   91.778">  1  7  2 -1</clus>
<clus scale="   41.347">  2  5  1 -1</clus>
</clustering>
</event>
<event>
 9    1  0.1748361E-005  0.1230219E+03  0.7546771E-02  0.1238254E+00
         -1   -1    0    0    0  501 -0.00000000000E+00  0.00000000000E+00  0.62376117550E+02  0.62376117550E+02  0.00000000000E+00 0.  1.
          1   -1    0    0  502    0  0.00000000000E+00 -0.00000000000E+00 -0.68455144016E+03  0.68455144016E+03  0.00000000000E+00 0. -1.
         23    2    1    2    0    0  0.82978340129E+02  0.39660120195E+01 -0.24353172007E+03  0.27313608087E+03  0.91621426615E+02 0.  0.
         23    2    1    2    0    0 -0.77812687538E+02  0.33875761424E+02 -0.40734552757E+03  0.42601612456E+03  0.91416508347E+02 0.  0.
        -11    1    3    3    0    0  0.11365282164E+02 -0.33328360435E+02 -0.12389815038E+03  0.12880489476E+03  0.00000000000E+00 0. -1.
         11    1    3    3    0    0  0.71613057965E+02  0.37294372454E+02 -0.11963356969E+03  0.14433118611E+03  0.00000000000E+00 0.  1.
        -13    1    4    4    0    0  0.95560169849E+00  0.43082479888E+02 -0.18494830434E+03  0.18990231312E+03  0.00000000000E+00 0.  1.
         13    1    4    4    0    0 -0.78768289236E+02 -0.92067184642E+01 -0.22239722323E+03  0.23611381145E+03  0.00000000000E+00 0. -1.
         21    1    1    2  502  501 -0.51656525919E+01 -0.37841773444E+02  0.28701925033E+02  0.47775352271E+02  0.00000000000E+00 0. -1.
<scales pt_clust_5="13000.00000" pt_clust_6="13000.00000" pt_clust_7="13000.00000" pt_clust_8="13000.00000" pt_clust_9="38.19272"></scales>
<clustering>
<clus scale="   38.193">  1  9  2 -1</clus>
<clus scale="   91.417">  7  8 -1 -1</clus>
<clus scale="   91.621">  5  6 -1 -1</clus>
<clus scale="  122.869">  2  7  1 -1</clus>
<clus scale="  122.869">  2  5  1 -1</clus>
</clustering>
</event>
<event>
 9    1  0.1748361E-005  0.9281267E+02  0.7546771E-02  0.1296299E+00
         -3   -1    0    0    0  501 -0.00000000000E+00  0.00000000000E+00  0.36000737846E+02  0.36000737846E+02  0.00000000000E+00 0.  1.
          3   -1    0    0  502    0  0.00000000000E+00 -0.00000000000E+00 -0.37879164647E+03  0.37879164647E+03  0.00000000000E+00 0. -1.
         23    2    1    2    0    0 -0.86801796177E+01  0.38589465720E+00 -0.63205498825E+02  0.11195893316E+03  0.92002028236E+02 0.  0.
         23    2    1    2    0    0 -0.28830205932E+01  0.16610833386E+02 -0.24959367392E+03  0.26647275006E+03  0.91795930572E+02 0.  0.
        -11    1    3    3    0    0  0.28481314944E+02 -0.21954671818E+02 -0.80155684704E+00  0.35969923672E+02  0.00000000000E+00 0.  1.
         11    1    3    3    0    0 -0.37161494562E+02  0.22340566475E+02 -0.62403941978E+02  0.75989009487E+02  0.00000000000E+00 0. -1.
        -13    1    4    4    0    0  0.43698153296E+02 -0.46981805855E+00 -0.11939358827E+03  0.12713999469E+03  0.00000000000E+00 0.  1.
         13    1    4    4    0    0 -0.46581173889E+02  0.17080651445E+02 -0.13020008566E+03  0.13933275537E+03  0.00000000000E+00 0. -1.
         21    1    1    2  502  501  0.11563200211E+02 -0.16996728043E+02 -0.29991735880E+02  0.36360701099E+02  0.00000000000E+00 0.  1.
<scales pt_clust_5="13000.00000" pt_clust_6="13000.00000" pt_clust_7="13000.00000" pt_clust_8="13000.00000" pt_clust_9="20.55715"></scales>
<clustering>
<clus scale="   20.557">  1  9  2 -1</clus>
<clus scale="   91.796">  7  8 -1 -1</clus>
<clus scale="   92.002">  5  6 -1 -1</clus>
<clus scale="   92.608">  2  7  1 -1</clus>
<clus scale="   92.608">  2  5  1 -1</clus>
</clustering>
</event>
<event>
 9    1  0.1748361E-005  0.1259408E+03  0.7546771E-02  0.1235100E+00
         -2   -1    0    0    0  501 -0.00000000000E+00  0.00000000000E+00  0.23838291561E+03  0.23838291561E+03  0.00000000000E+00 0. -1.
          2   -1    0    0  502    0  0.00000000000E+00 -0.00000000000E+00 -0.44536795466E+03  0.44536795466E+03  0.00000000000E+00 0.  1.
         23    2    1    2    0    0 -0.71635257713E+02  0.11804778456E+03  0.14393833707E+03  0.21957244598E+03  0.91798281940E+02 0.  0.
         23    2    1    2    0    0  0.51370420305E+02 -0.58069485337E+02 -0.37612065544E+03  0.39603913389E+03  0.96794952933E+02 0.  0.
        -13    1    3    3    0    0 -0.65162073229E+02  0.20904200765E+02  0.57714708341E+02  0.89521332408E+02  0.00000000000E+00 0. -1.
         13    1    3    3    0    0 -0.64731844839E+01  0.97143583793E+02  0.86223628729E+02  0.13005111357E+03  0.00000000000E+00 0.  1.
        -13    1    4    4    0    0 -0.24144676268E+02 -0.52350267335E+01 -0.36064976573E+02  0.43715597128E+02  0.00000000000E+00 0. -1.
         13    1    4    4    0    0  0.75515096574E+02 -0.52834458603E+02 -0.34005567886E+03  0.35232353676E+03  0.00000000000E+00 0.  1.
         21    1    1    2  502  501  0.20264837407E+02 -0.59978299222E+02  0.25197279312E+02  0.68139290409E+02  0.00000000000E+00 0. -1.
<scales pt_clust_5="13000.00000" pt_clust_6="13000.00000" pt_clust_7="13000.00000" pt_clust_8="13000.00000" pt_clust_9="63.30924"></scales>
<clustering>
<clus scale="   63.309">  1  9  2 -1</clus>
<clus scale="   91.798">  5  6 -1 -1</clus>
<clus scale="   96.795">  7  8 -1 -1</clus>
<clus scale="  122.142">  1  5  2 -1</clus>
<clus scale="  125.941">  2  5  1 -1</clus>
</clustering>
</event>
<event>
 9    1  0.1748361E-005  0.9741335E+02  0.7546771E-02  0.1286041E+00
         -2   -1    0    0    0  501 -0.00000000000E+00  0.00000000000E+00  0.24427802961E+02  0.24427802961E+02  0.00000000000E+00 0.  1.
          2   -1    0    0  502    0  0.00000000000E+00 -0.00000000000E+00 -0.52065495733E+03  0.52065495733E+03  0.00000000000E+00 0. -1.
         23    2    1    2    0    0 -0.26931794760E+02  0.17531551822E+01 -0.14796601843E+03  0.17525717581E+03  0.89959657309E+02 0.  0.
         23    2    1    2    0    0  0.38002572893E+02 -0.19061710772E+02 -0.31746494431E+03  0.33280459524E+03  0.90373466140E+02 0.  0.
        -11    1    3    3    0    0 -0.15926966227E+02  0.42640030271E+02 -0.10727555120E+03  0.11653276071E+03  0.00000000000E+00 0. -1.
         11    1    3    3    0    0 -0.11004828533E+02 -0.40886875089E+02 -0.40690467230E+02  0.58724415101E+02  0.00000000000E+00 0.  1.
        -13    1    4    4    0    0  0.30842325801E+02 -0.50684726595E+02 -0.13472928140E+03  0.14721470659E+03  0.00000000000E+00 0.  1.
         13    1    4    4    0    0  0.71602470922E+01  0.31623015823E+02 -0.18273566291E+03  0.18558988864E+03  0.00000000000E+00 0. -1.
         21    1    1    2  502  501 -0.11070778133E+02  0.17308555590E+02 -0.30796191629E+02  0.37020989234E+02  0.00000000000E+00 0.  1.
<scales pt_clust_5="13000.00000" pt_clust_6="13000.00000" pt_clust_7="13000.00000" pt_clust_8="13000.00000" pt_clust_9="20.54625"></scales>
<clustering>
<clus scale="   20.546">  1  9  2 -1</clus>
<clus scale="   89.960">  5  6 -1 -1</clus>
<clus scale="   90.373">  7  8 -1 -1</clus>
<clus scale="   97.030">  1  5  2 -1</clus>
<clus scale="   97.413">  2  5  1 -1</clus>
</clustering>
</event>
<event>
 9    1  0.1748361E-005  0.1147157E+03  0.7546771E-02  0.1252793E+00
         -1   -1    0    0    0  501 -0.00000000000E+00  0.00000000000E+00  0.18681990785E+03  0.18681990785E+03  0.00000000000E+00 0.  1.
          1   -1    0    0  502    0  0.00000000000E+00 -0.00000000000E+00 -0.10117549633E+03  0.10117549633E+03  0.00000000000E+00 0. -1.
         23    2    1    2    0    0 -0.19198719226E+02  0.50007386363E+02  0.56927562665E+02  0.12064254220E+03  0.91894211394E+02 0.  0.
         23    2    1    2    0    0  0.48787698443E+02 -0.62664177728E+02 -0.59185613867E+01  0.12007375769E+03  0.89864560463E+02 0.  0.
        -13    1    3    3    0    0 -0.48611913771E+02  0.44068450456E+02  0.12132484871E+02  0.66725884597E+02  0.00000000000E+00 0. -1.
         13    1    3    3    0    0  0.29413194544E+02  0.59389359066E+01  0.44795077793E+02  0.53916657607E+02  0.00000000000E+00 0.  1.
        -13    1    4    4    0    0  0.47412762512E+02  0.88592656585E+01  0.63501353486E+00  0.48237535998E+02  0.00000000000E+00 0.  1.
         13    1    4    4    0    0  0.13749359308E+01 -0.71523443386E+02 -0.65535749215E+01  0.71836221691E+02  0.00000000000E+00 0. -1.
         21    1    1    2  502  501 -0.29588979216E+02  0.12656791365E+02  0.34635410248E+02  0.47279104283E+02  0.00000000000E+00 0. -1.
<scales pt_clust_5="13000.00000" pt_clust_6="13000.00000" pt_clust_7="13000.00000" pt_clust_8="13000.00000" pt_clust_9="32.18233"></scales>
<clustering>
<clus scale="   32.182">  1  9  2 -1</clus>
<clus scale="   89.865">  7  8 -1 -1</clus>
<clus scale="   91.894">  5  6 -1 -1</clus>
<clus scale="  113.096">  2  7  1 -1</clus>
<clus scale="  113.096">  2  5  1 -1</clus>
</clustering>
</event>
<event>
 9    1  0.1748361E-005  0.1202003E+03  0.7546771E-02  0.1243147E+00
         -2   -1    0    0    0  501 -0.00000000000E+00  0.00000000000E+00  0.41146958807E+03  0.41146958807E+03  0.00000000000E+00 0.  1.
          2   -1    0    0  502    0  0.00000000000E+00 -0.00000000000E+00 -0.13617427535E+03  0.13617427535E+03  0.00000000000E+00 0. -1.
         23    2    1    2    0    0  0.34968730871E+02  0.25272757851E+02  0.10323870036E+03  0.14319308547E+03  0.89356063286E+02 0.  0.
         23    2    1    2    0    0 -0.69623456310E+02 -0.56015843504E+02 -0.78593896276E+02  0.14955518208E+03  0.90578979697E+02 0.  0.
        -11    1    4    4    0    0 -0.21099327760E+02 -0.31172871570E+02  0.15581748571E+02  0.40739666695E+02  0.00000000000E+00 0.  1.
         11    1    4    4    0    0 -0.48524128550E+02 -0.24842971934E+02 -0.94175644847E+02  0.10881551538E+03  0.00000000000E+00 0. -1.
        -11    1    3    3    0    0 -0.21937561347E+02 -0.11738680705E+01  0.67484633695E+02  0.70970489283E+02  0.00000000000E+00 0.  1.
         11    1    3    3    0    0  0.56906292218E+02  0.26446625921E+02  0.35754066660E+02  0.72222596183E+02  0.00000000000E+00 0. -1.
         21    1    1    2  502  501  0.34654725439E+02  0.30743085654E+02  0.25065050865E+03  0.25489559588E+03  0.00000000000E+00 0.  1.
<scales pt_clust_5="13000.00000" pt_clust_6="13000.00000" pt_clust_7="13000.00000" pt_clust_8="13000.00000" pt_clust_9="46.32588"></scales>
<clustering>
<clus scale="   46.326">  1  9  2 -1</clus>
<clus scale="   89.356">  7  8 -1 -1</clus>
<clus scale="   90.579">  5  6 -1 -1</clus>
<clus scale="  119.281">  1  7  2 -1</clus>
<clus scale="  120.200">  2  5  1 -1</clus>
</clustering>
</event>
<event>
 9    1  0.1748361E-005  0.9703988E+02  0.7546771E-02  0.1287220E+00
          2   -1    0    0  502    0  0.00000000000E+00  0.00000000000E+00  0.50018636488E+03  0.50018636488E+03  0.00000000000E+00 0. -1.
         -2   -1    0    0    0  501 -0.00000000000E+00 -0.00000000000E+00 -0.33375308358E+02  0.33375308358E+02  0.00000000000E+00 0.  1.
         23    2    1    2    0    0 -0.31176059394E+02  0.27531495058E+02  0.11292160717E+03  0.15059643454E+03  0.90543176621E+02 0.  0.
         23    2    1    2    0    0  0.91246639687E+01 -0.28490477120E+02  0.34654255966E+03  0.35970238257E+03  0.91646558006E+02 0.  0.
        -11    1    4    4    0    0  0.30020687012E+02  0.24220906118E+02  0.16804007679E+03  0.17241044444E+03  0.00000000000E+00 0.  1.
         11    1    4    4    0    0 -0.20896023043E+02 -0.52711383238E+02  0.17850248287E+03  0.18729193814E+03  0.00000000000E+00 0. -1.
        -11    1    3    3    0    0 -0.38391627876E+02  0.56440552302E+02  0.90243636447E+02  0.11315196399E+03  0.00000000000E+00 0.  1.
         11    1    3    3    0    0  0.72155684827E+01 -0.28909057244E+02  0.22677970721E+02  0.37444470557E+02  0.00000000000E+00 0. -1.
         21    1    1    2  502  501  0.22051395425E+02  0.95898206162E+00  0.73468896965E+01  0.23262856123E+02  0.00000000000E+00 0. -1.
<scales pt_clust_5="13000.00000" pt_clust_6="13000.00000" pt_clust_7="13000.00000" pt_clust_8="13000.00000" pt_clust_9="22.07224"></scales>
<clustering>
<clus scale="   22.072">  2  9  1 -1</clus>
<clus scale="   90.543">  7  8 -1 -1</clus>
<clus scale="   91.647">  5  6 -1 -1</clus>
<clus scale="   95.999">  2  7  1 -1</clus>
<clus scale="   97.040">  1  5  2 -1</clus>
</clustering>
</event>
<event>
 9    1  0.1748361E-005  0.1668175E+03  0.7546771E-02  0.1181595E+00
          1   -1    0    0  502    0  0.00000000000E+00  0.00000000000E+00  0.53423496434E+02  0.53423496434E+02  0.00000000000E+00 0. -1.
         -1   -1    0    0    0  501 -0.00000000000E+00 -0.00000000000E+00 -0.12593681842E+04  0.12593681842E+04  0.00000000000E+00 0.  1.
         23    2    1    2    0    0  0.93897699729E+02 -0.61767039306E+02 -0.45762753578E+03  0.48051131676E+03  0.94001164210E+02 0.  0.
         23    2    1    2    0    0 -0.16114884799E+03 -0.34503630705E+02 -0.21375067357E+03  0.28496685345E+03  0.91418298898E+02 0.  0.
        -11    1    4    4    0    0 -0.14423043923E+03 -0.61341478007E+02 -0.17803439462E+03  0.23719494555E+03  0.00000000000E+00 0.  1.
         11    1    4    4    0    0 -0.16918408755E+02  0.26837847301E+02 -0.35716278953E+02  0.47771907904E+02  0.00000000000E+00 0. -1.
        -13    1    3    3    0    0  0.85134053806E+02 -0.90025994065E+01 -0.20276360420E+03  0.22009528187E+03  0.00000000000E+00 0. -1.
         13    1    3    3    0    0  0.87636459226E+01 -0.52764439900E+02 -0.25486393158E+03  0.26041603489E+03  0.00000000000E+00 0.  1.
         21    1    1    2  502  501  0.67251148260E+02  0.96270670012E+02 -0.53456647844E+03  0.54731351045E+03  0.00000000000E+00 0.  1.
<scales pt_clust_5="13000.00000" pt_clust_6="13000.00000" pt_clust_7="13000.00000" pt_clust_8="13000.00000" pt_clust_9="117.43406"></scales>
<clustering>
<clus scale="   91.418">  5  6 -1 -1</clus>
<clus scale="   94.001">  7  8 -1 -1</clus>
<clus scale="  117.434">  2  9  1 -1</clus>
<clus scale="  165.376">  1  5  2 -1</clus>
<clus scale="  165.376">  1  5  2 -1</clus>
</clustering>
</event>
<event>
 9    1  0.1748361E-005  0.1702995E+03  0.7546771E-02  0.1199855E+00
          4   -1    0    0  502    0  0.00000000000E+00  0.00000000000E+00  0.59653233512E+03  0.59653233512E+03  0.00000000000E+00 0. -1.
         -4   -1    0    0    0  501 -0.00000000000E+00 -0.00000000000E+00 -0.27288303444E+03  0.27288303444E+03  0.00000000000E+00 0.  1.
         23    2    1    2    0    0 -0.35442529925E+02 -0.12335638510E+02 -0.17784560307E+03  0.20596434187E+03  0.96870587314E+02 0.  0.
         23    2    1    2    0    0 -0.23980544015E+02 -0.13889163032E+03  0.46867112707E+03  0.49768556426E+03  0.90401018010E+02 0.  0.
        -11    1    4    4    0    0 -0.68307547784E+01 -0.50325946034E+02  0.57425719988E+02  0.76662072573E+02  0.00000000000E+00 0.  1.
         11    1    4    4    0    0 -0.17149789237E+02 -0.88565684281E+02  0.41124540708E+03  0.42102349168E+03  0.00000000000E+00 0. -1.
        -11    1    3    3    0    0 -0.64388380646E+02 -0.20212378362E+02 -0.85842034267E+02  0.10919367495E+03  0.00000000000E+00 0.  1.
         11    1    3    3    0    0  0.28945850721E+02  0.78767398520E+01 -0.92003568803E+02  0.96770666925E+02  0.00000000000E+00 0. -1.
         21    1    1    2  502  501  0.59423073940E+02  0.15122726883E+03  0.32823776678E+02  0.16576546344E+03  0.00000000000E+00 0.  1.
<scales pt_clust_5="13000.00000" pt_clust_6="13000.00000" pt_clust_7="13000.00000" pt_clust_8="13000.00000" pt_clust_9="144.32451"></scales>
<clustering>
<clus scale="   90.401">  5  6 -1 -1</clus>
<clus scale="   96.871">  7  8 -1 -1</clus>
<clus scale="  103.886">  2  7  1 -1</clus>
<clus scale="  144.325">  2  9  1 -1</clus>
<clus scale="  170.299">  1  5  2 -1</clus>
</clustering>
</event>
<event>
 9    1  0.1748361E-005  0.9684948E+02  0.7546771E-02  0.1287980E+00
         -3   -1    0    0    0  501 -0.00000000000E+00  0.00000000000E+00  0.51154470729E+02  0.51154470729E+02  0.00000000000E+00 0.  1.
          3   -1    0    0  502    0  0.00000000000E+00 -0.00000000000E+00 -0.26099231968E+03  0.26099231968E+03  0.00000000000E+00 0. -1.
         23    2    1    2    0    0 -0.94425330258E+01 -0.14384937513E+02 -0.39602072930E+02  0.99632665512E+02  0.89790066262E+02 0.  0.
         23    2    1    2    0    0  0.22642281993E+02  0.30970468319E+02 -0.16155238170E+03  0.18960747648E+03  0.91542232117E+02 0.  0.
        -11    1    3    3    0    0  0.75529650811E+01  0.32769613148E+02 -0.36175389715E+02  0.49391837873E+02  0.00000000000E+00 0. -1.
         11    1    3    3    0    0 -0.16995498107E+02 -0.47154550661E+02 -0.34266832156E+01  0.50240827639E+02  0.00000000000E+00 0.  1.
        -11    1    4    4    0    0  0.40752069624E+02  0.49900122192E+01 -0.15060255865E+03  0.15609856524E+03  0.00000000000E+00 0. -1.
         11    1    4    4    0    0 -0.18109787632E+02  0.25980456100E+02 -0.10949823059E+02  0.33508911237E+02  0.00000000000E+00 0.  1.
         21    1    1    2  502  501 -0.13199748967E+02 -0.16585530806E+02 -0.86833943186E+01  0.22906648419E+02  0.00000000000E+00 0.  1.
<scales pt_clust_5="13000.00000" pt_clust_6="13000.00000" pt_clust_7="13000.00000" pt_clust_8="13000.00000" pt_clust_9="21.19701"></scales>
<clustering>
<clus scale="   21.197">  1  9  2 -1</clus>
<clus scale="   89.790">  5  6 -1 -1</clus>
<clus scale="   91.542">  7  8 -1 -1</clus>
<clus scale="   95.195">  1  5  2 -1</clus>
<clus scale="   96.849">  2  5  1 -1</clus>
</clustering>
</event>
<event>
 9    1  0.1748361E-005  0.9796613E+02  0.7546771E-02  0.1285094E+00
          2   -1    0    0  502    0  0.00000000000E+00  0.00000000000E+00  0.73171690356E+02  0.73171690356E+02  0.00000000000E+00 0. -1.
         -2   -1    0    0    0  501 -0.00000000000E+00 -0.00000000000E+00 -0.21837739262E+03  0.21837739262E+03  0.00000000000E+00 0.  1.
         23    2    1    2    0    0 -0.28613269864E+02 -0.26504034441E+02 -0.89501719611E+02  0.13445874815E+03  0.92452225973E+02 0.  0.
         23    2    1    2    0    0  0.34159837984E+02 -0.99461257382E+01 -0.10534195414E+02  0.98783488963E+02  0.91549923377E+02 0.  0.
        -11    1    3    3    0    0 -0.23010628146E+01 -0.58621886195E+02 -0.48698499657E+02  0.76245421501E+02  0.00000000000E+00 0. -1.
         11    1    3    3    0    0 -0.26312207049E+02  0.32117851754E+02 -0.40803219954E+02  0.58213326651E+02  0.00000000000E+00 0.  1.
        -11    1    4    4    0    0  0.53009424094E+02  0.10198480748E+02  0.20059190032E+02  0.57588012269E+02  0.00000000000E+00 0. -1.
         11    1    4    4    0    0 -0.18849586110E+02 -0.20144606486E+02 -0.30593385446E+02  0.41195476694E+02  0.00000000000E+00 0.  1.
         21    1    1    2  502  501 -0.55465681207E+01  0.36450160179E+02 -0.45169787236E+02  0.58306845858E+02  0.00000000000E+00 0.  1.
<scales pt_clust_5="13000.00000" pt_clust_6="13000.00000" pt_clust_7="13000.00000" pt_clust_8="13000.00000" pt_clust_9="36.86975"></scales>
<clustering>
<clus scale="   36.870">  2  9  1 -1</clus>
<clus scale="   91.550">  7  8 -1 -1</clus>
<clus scale="   92.452">  5  6 -1 -1</clus>
<clus scale="   97.115">  1  7  2 -1</clus>
<clus scale="   97.115">  1  5  2 -1</clus>
</clustering>
</event>
<event>
 9    1  0.1748361E-005  0.1011208E+03  0.7546771E-02  0.1280281E+00
         -1   -1    0    0    0  501 -0.00000000000E+00  0.00000000000E+00  0.14354991194E+03  0.14354991194E+03  0.00000000000E+00 0.  1.
          1   -1    0    0  502    0  0.00000000000E+00 -0.00000000000E+00 -0.18710177637E+03  0.18710177637E+03  0.00000000000E+00 0. -1.
         23    2    1    2    0    0  0.23301641827E+01  0.70032318308E+01  0.49080322454E+02  0.10426773401E+03  0.91697368454E+02 0.  0.
         23    2    1    2    0    0 -0.21089314937E+02 -0.45710673469E+02 -0.13351669587E+03  0.16703991627E+03  0.86841238355E+02 0.  0.
        -11    1    3    3    0    0  0.26415904679E+02 -0.20879281147E+02  0.57351998202E+02  0.66505609530E+02  0.00000000000E+00 0.  1.
         11    1    3    3    0    0 -0.24085740496E+02  0.27882512978E+02 -0.82716757481E+01  0.37762124475E+02  0.00000000000E+00 0. -1.
        -13    1    4    4    0    0  0.26062372880E+02 -0.42492135427E+02 -0.47291807857E+02  0.68712036381E+02  0.00000000000E+00 0.  1.
         13    1    4    4    0    0 -0.47151687817E+02 -0.32185380419E+01 -0.86224888015E+02  0.98327879893E+02  0.00000000000E+00 0. -1.
         21    1    1    2  502  501  0.18759150755E+02  0.38707441638E+02  0.40884508987E+02  0.59344038035E+02  0.00000000000E+00 0. -1.
<scales pt_clust_5="13000.00000" pt_clust_6="13000.00000" pt_clust_7="13000.00000" pt_clust_8="13000.00000" pt_clust_9="43.01362"></scales>
<clustering>
<clus scale="   43.014">  1  9  2 -1</clus>
<clus scale="   86.841">  7  8 -1 -1</clus>
<clus scale="   91.697">  5  6 -1 -1</clus>
<clus scale="   96.739">  2  7  1 -1</clus>
<clus scale="   96.739">  2  5  1 -1</clus>
</clustering>
</event>
<event>
 9    1  0.1748361E-005  0.2253746E+03  0.7546771E-02  0.1130019E+00
          1   -1    0    0  502    0  0.00000000000E+00  0.00000000000E+00  0.44190360512E+03  0.44190360512E+03  0.00000000000E+00 0. -1.
         -1   -1    0    0    0  501 -0.00000000000E+00 -0.00000000000E+00 -0.14008824060E+03  0.14008824060E+03  0.00000000000E+00 0.  1.
         23    2    1    2    0    0 -0.96391816132E+02  0.16345820326E+03  0.11277277027E+03  0.23847117603E+03  0.90226590612E+02 0.  0.
         23    2    1    2    0    0  0.97920918205E+02 -0.20431555199E+03  0.14816994349E+03  0.28570860625E+03  0.91333041808E+02 0.  0.
        -13    1    4    4    0    0  0.11099081714E+02 -0.38258237869E+02 -0.93422993577E+01  0.40916511790E+02  0.00000000000E+00 0. -1.
         13    1    4    4    0    0  0.86821836491E+02 -0.16605731412E+03  0.15751224284E+03  0.24479209446E+03  0.00000000000E+00 0.  1.
        -13    1    3    3    0    0 -0.43078611676E+02  0.26916976595E+02 -0.41557749945E+01  0.50966271972E+02  0.00000000000E+00 0.  1.
         13    1    3    3    0    0 -0.53313204456E+02  0.13654122666E+03  0.11692854527E+03  0.18750490406E+03  0.00000000000E+00 0. -1.
         21    1    1    2  502  501 -0.15291020734E+01  0.40857348735E+02  0.40872650762E+02  0.57812063439E+02  0.00000000000E+00 0.  1.
<scales pt_clust_5="13000.00000" pt_clust_6="13000.00000" pt_clust_7="13000.00000" pt_clust_8="13000.00000" pt_clust_9="40.88595"></scales>
<clustering>
<clus scale="   40.886">  1  9  2 -1</clus>
<clus scale="   90.227">  7  8 -1 -1</clus>
<clus scale="   91.333">  5  6 -1 -1</clus>
<clus scale="  224.928">  2  7  1 -1</clus>
<clus scale="   40.886">  1  5  2 -1</clus>
</clustering>
</event>
<event>
 9    1  0.1748361E-005  0.1558132E+03  0.7546771E-02  0.1196557E+00
         -2   -1    0    0    0  501 -0.00000000000E+00  0.00000000000E+00  0.16773788863E+03  0.16773788863E+03  0.00000000000E+00 0.  1.
          2   -1    0    0  502    0  0.00000000000E+00 -0.00000000000E+00 -0.34818389441E+03  0.34818389441E+03  0.00000000000E+00 0. -1.
         23    2    1    2    0    0 -0.83750468177E+02 -0.32781537456E+02  0.77887761440E+01  0.11688738821E+03  0.74251103500E+02 0.  0.
         23    2    1    2    0    0  0.78698236310E+02  0.12565212950E+03 -0.23665799345E+03  0.29417601735E+03  0.92469742478E+02 0.  0.
        -11    1    3    3    0    0 -0.60116584277E+02 -0.34744634560E+02  0.37466437368E+02  0.78898208249E+02  0.00000000000E+00 0.  1.
         11    1    3    3    0    0 -0.23633883900E+02  0.19630971032E+01 -0.29677661224E+02  0.37989179962E+02  0.00000000000E+00 0. -1.
        -13    1    4    4    0    0  0.50015050963E+02  0.12859462895E+03 -0.15469263281E+03  0.20728698600E+03  0.00000000000E+00 0. -1.
         13    1    4    4    0    0  0.28683185347E+02 -0.29424994527E+01 -0.81965360637E+02  0.86889031351E+02  0.00000000000E+00 0.  1.
         21    1    1    2  502  501  0.50522318669E+01 -0.92870592041E+02  0.48423211523E+02  0.10485837748E+03  0.00000000000E+00 0.  1.
<scales pt_clust_5="13000.00000" pt_clust_6="13000.00000" pt_clust_7="13000.00000" pt_clust_8="13000.00000" pt_clust_9="93.00791"></scales>
<clustering>
<clus scale="   74.251">  5  6 -1 -1</clus>
<clus scale="   92.470">  7  8 -1 -1</clus>
<clus scale="   93.008">  1  9  2 -1</clus>
<clus scale="  145.741">  1  5  2 -1</clus>
<clus scale="  155.813">  2  5  1 -1</clus>
</clustering>
</event>
<event>
 9    1  0.1748361E-005  0.1524330E+03  0.7546771E-02  0.1197544E+00
         -2   -1    0    0    0  501 -0.00000000000E+00  0.00000000000E+00  0.60746160288E+02  0.60746160288E+02  0.00000000000E+00 0.  1.
          2   -1    0    0  502    0  0.00000000000E+00 -0.00000000000E+00 -0.59250555955E+03  0.59250555955E+03  0.00000000000E+00 0. -1.
         23    2    1    2    0    0 -0.28813793663E+02  0.12386773565E+03 -0.13100056985E+03  0.20403265550E+03  0.91075378494E+02 0.  0.
         23    2    1    2    0    0  0.83399636649E+01 -0.12034652240E+03 -0.40085810310E+03  0.42844440398E+03  0.91238961159E+02 0.  0.
        -11    1    3    3    0    0  0.16111790163E+02  0.34234553190E+02 -0.86354380651E+02  0.94279761731E+02  0.00000000000E+00 0. -1.
         11    1    3    3    0    0 -0.44925583826E+02  0.89633182464E+02 -0.44646189202E+02  0.10975289377E+03  0.00000000000E+00 0.  1.
        -13    1    4    4    0    0 -0.27481658793E+02 -0.10911268288E+03 -0.27570497268E+03  0.29778188510E+03  0.00000000000E+00 0.  1.
         13    1    4    4    0    0  0.35821622458E+02 -0.11233839529E+02 -0.12515313042E+03  0.13066251888E+03  0.00000000000E+00 0. -1.
         21    1    1    2  502  501  0.20473829998E+02 -0.35212132501E+01  0.99273691764E-01  0.20774660354E+02  0.00000000000E+00 0. -1.
<scales pt_clust_5="13000.00000" pt_clust_6="13000.00000" pt_clust_7="13000.00000" pt_clust_8="13000.00000" pt_clust_9="20.77442"></scales>
<clustering>
<clus scale="   20.774">  1  9  2 -1</clus>
<clus scale="   91.075">  5  6 -1 -1</clus>
<clus scale="   91.239">  7  8 -1 -1</clus>
<clus scale="  152.335">  1  5  2 -1</clus>
<clus scale="  152.433">  2  5  1 -1</clus>
</clustering>
</event>
<event>
 9    1  0.1748361E-005  0.1284456E+03  0.7546771E-02  0.1238150E+00
          2   -1    0    0  502    0  0.00000000000E+00  0.00000000000E+00  0.51513848968E+03  0.51513848968E+03  0.00000000000E+00 0. -1.
         -2   -1    0    0    0  501 -0.00000000000E+00 -0.00000000000E+00 -0.80774855249E+02  0.80774855249E+02  0.00000000000E+00 0.  1.
         23    2    1    2    0    0  0.14461189244E+02 -0.67373333230E+02 -0.10719421896E+02  0.11241002109E+03  0.88163568506E+02 0.  0.
         23    2    1    2    0    0 -0.32679515391E+02  0.53016894161E+02  0.44184902644E+03  0.46008380847E+03  0.11210623023E+03 0.  0.
        -11    1    4    4    0    0  0.14780965447E+02  0.64603437669E+02  0.34827219082E+03  0.35452164954E+03  0.00000000000E+00 0. -1.
         11    1    4    4    0    0 -0.47460480838E+02 -0.11586543508E+02  0.93576835629E+02  0.10556215893E+03  0.00000000000E+00 0.  1.
        -13    1    3    3    0    0  0.38223203568E+02  0.12830228509E+01  0.34109483166E+01  0.38396536394E+02  0.00000000000E+00 0.  1.
         13    1    3    3    0    0 -0.23762014325E+02 -0.68656356081E+02 -0.14130370213E+02  0.74013484700E+02  0.00000000000E+00 0. -1.
         21    1    1    2  502  501  0.18218326147E+02  0.14356439069E+02  0.32340298779E+01  0.23419515358E+02  0.00000000000E+00 0. -1.
<scales pt_clust_5="13000.00000" pt_clust_6="13000.00000" pt_clust_7="13000.00000" pt_clust_8="13000.00000" pt_clust_9="23.19514"></scales>
<clustering>
<clus scale="   23.195">  2  9  1 -1</clus>
<clus scale="   88.164">  7  8 -1 -1</clus>
<clus scale="  108.182">  2  7  1 -1</clus>
<clus scale="  112.106">  5  6 -1 -1</clus>
<clus scale="  128.446">  1  5  2 -1</clus>
</clustering>
</event>
<event>
 9    1  0.1748361E-005  0.1084143E+03  0.7546771E-02  0.1263974E+00
         -1   -1    0    0    0  501 -0.00000000000E+00  0.00000000000E+00  0.53635140907E+02  0.53635140907E+02  0.00000000000E+00 0.  1.
          1   -1    0    0  502    0  0.00000000000E+00 -0.00000000000E+00 -0.26693786832E+03  0.26693786832E+03  0.00000000000E+00 0. -1.
         23    2    1    2    0    0  0.42975821738E+02  0.40500379825E+02 -0.79812029945E+02  0.13586791304E+03  0.92751968440E+02 0.  0.
         23    2    1    2    0    0 -0.51001822982E+02 -0.21789153103E+02 -0.11542299324E+03  0.15748435708E+03  0.91667345418E+02 0.  0.
        -13    1    3    3    0    0 -0.16437549608E+02  0.46287630816E+02 -0.26392110836E+02  0.55760930032E+02  0.00000000000E+00 0.  1.
         13    1    3    3    0    0  0.59413371346E+02 -0.57872509912E+01 -0.53419919109E+02  0.80106983006E+02  0.00000000000E+00 0. -1.
        -13    1    4    4    0    0 -0.71683318920E+02  0.65964837609E+01 -0.75743635040E+02  0.10449454559E+03  0.00000000000E+00 0.  1.
         13    1    4    4    0    0  0.20681495938E+02 -0.28385636863E+02 -0.39679358200E+02  0.52989811488E+02  0.00000000000E+00 0. -1.
         21    1    1    2  502  501  0.80260012437E+01 -0.18711226722E+02 -0.18067704224E+02  0.27220739103E+02  0.00000000000E+00 0. -1.
<scales pt_clust_5="13000.00000" pt_clust_6="13000.00000" pt_clust_7="13000.00000" pt_clust_8="13000.00000" pt_clust_9="20.35993"></scales>
<clustering>
<clus scale="   20.360">  1  9  2 -1</clus>
<clus scale="   91.667">  7  8 -1 -1</clus>
<clus scale="   92.752">  5  6 -1 -1</clus>
<clus scale="  107.488">  2  7  1 -1</clus>
<clus scale="  107.488">  2  5  1 -1</clus>
</clustering>
</event>
<event>
 9    1  0.1748361E-005  0.9178853E+02  0.7546771E-02  0.1300832E+00
          2   -1    0    0  502    0  0.00000000000E+00  0.00000000000E+00  0.14708631726E+03  0.14708631726E+03  0.00000000000E+00 0. -1.
         -2   -1    0    0    0  501 -0.00000000000E+00 -0.00000000000E+00 -0.10899747889E+03  0.10899747889E+03  0.00000000000E+00 0.  1.
         23    2    1    2    0    0 -0.13378169946E+01  0.13814031114E+02  0.10126822272E+02  0.93261744131E+02  0.91665605214E+02 0.  0.
         23    2    1    2    0    0 -0.78477730458E+01  0.73173802692E+01  0.71322030219E+02  0.11372009243E+03  0.87922100930E+02 0.  0.
        -13    1    3    3    0    0  0.31475036776E+02  0.36411746573E+01 -0.27755380861E+02  0.42122408046E+02  0.00000000000E+00 0.  1.
         13    1    3    3    0    0 -0.32812853770E+02  0.10172856457E+02  0.37882203133E+02  0.51139336085E+02  0.00000000000E+00 0. -1.
        -13    1    4    4    0    0  0.17974552436E+02  0.38594347126E+02  0.56038409326E+02  0.70376924379E+02  0.00000000000E+00 0.  1.
         13    1    4    4    0    0 -0.25822325482E+02 -0.31276966857E+02  0.15283620894E+02  0.43343168051E+02  0.00000000000E+00 0. -1.
         21    1    1    2  502  501  0.91855900404E+01 -0.21131411383E+02 -0.43360014114E+02  0.49101959588E+02  0.00000000000E+00 0.  1.
<scales pt_clust_5="13000.00000" pt_clust_6="13000.00000" pt_clust_7="13000.00000" pt_clust_8="13000.00000" pt_clust_9="23.04152"></scales>
<clustering>
<clus scale="   23.042">  2  9  1 -1</clus>
<clus scale="   87.922">  7  8 -1 -1</clus>
<clus scale="   88.050">  1  7  2 -1</clus>
<clus scale="   91.666">  5  6 -1 -1</clus>
<clus scale="   88.050">  1  5  2 -1</clus>
</clustering>
</event>
<event>
 9    1  0.1748361E-005  0.9386519E+02  0.7546771E-02  0.1297112E+00
          1   -1    0    0  502    0  0.00000000000E+00  0.00000000000E+00  0.78045934701E+02  0.78045934701E+02  0.00000000000E+00 0. -1.
         -1   -1    0    0    0  501 -0.00000000000E+00 -0.00000000000E+00 -0.25839146225E+03  0.25839146225E+03  0.00000000000E+00 0.  1.
         23    2    1    2    0    0 -0.76030504998E+01 -0.12884811027E+02 -0.19045386461E+03  0.20967184149E+03  0.86404755874E+02 0.  0.
         23    2    1    2    0    0  0.27956017115E+02  0.23220886592E+02  0.21274191746E+02  0.10135386487E+03  0.92191465015E+02 0.  0.
        -11    1    3    3    0    0 -0.38583602027E+02 -0.20902188027E+02 -0.54334995317E+02  0.69841875159E+02  0.00000000000E+00 0. -1.
         11    1    3    3    0    0  0.30980551528E+02  0.80173770000E+01 -0.13611886929E+03  0.13982996633E+03  0.00000000000E+00 0.  1.
        -13    1    4    4    0    0  0.16015857245E+02 -0.34945795940E+02  0.49718329366E+00  0.38444291233E+02  0.00000000000E+00 0.  1.
         13    1    4    4    0    0  0.11940159870E+02  0.58166682531E+02  0.20777008452E+02  0.62909573633E+02  0.00000000000E+00 0. -1.
         21    1    1    2  502  501 -0.20352966615E+02 -0.10336075565E+02 -0.11165854690E+02  0.25411690599E+02  0.00000000000E+00 0. -1.
<scales pt_clust_5="13000.00000" pt_clust_6="13000.00000" pt_clust_7="13000.00000" pt_clust_8="13000.00000" pt_clust_9="22.82713"></scales>
<clustering>
<clus scale="   22.827">  1  9  2 -1</clus>
<clus scale="   86.405">  5  6 -1 -1</clus>
<clus scale="   88.188">  2  5  1 -1</clus>
<clus scale="   92.191">  7  8 -1 -1</clus>
<clus scale="   22.827">  1  5  2 -1</clus>
</clustering>
</event>
<event>
 9    1  0.1748361E-005  0.1044538E+03  0.7546771E-02  0.1276477E+00
          2   -1    0    0  502    0  0.00000000000E+00  0.00000000000E+00  0.24372921117E+03  0.24372921117E+03  0.00000000000E+00 0. -1.
         -2   -1    0    0    0  501 -0.00000000000E+00 -0.00000000000E+00 -0.17150561813E+03  0.17150561813E+03  0.00000000000E+00 0.  1.
         23    2    1    2    0    0 -0.36051154054E+01  0.33890922468E+02 -0.12262419835E+03  0.15730091071E+03  0.92440743218E+02 0.  0.
         23    2    1    2    0    0 -0.13623544558E+02 -0.47973331559E+02  0.21034863461E+03  0.23081534358E+03  0.80883454710E+02 0.  0.
        -11    1    3    3    0    0 -0.28672726825E+02  0.33040828586E+02 -0.12468249530E+03  0.13213457629E+03  0.00000000000E+00 0.  1.
         11    1    3    3    0    0  0.25067611420E+02  0.85009388148E+00  0.20582969484E+01  0.25166334422E+02  0.00000000000E+00 0. -1.
        -11    1    4    4    0    0 -0.39109134760E+02 -0.67640261276E+01  0.53249008113E+02  0.66413352092E+02  0.00000000000E+00 0.  1.
         11    1    4    4    0    0  0.25485590202E+02 -0.41209305432E+02  0.15709962649E+03  0.16440199149E+03  0.00000000000E+00 0. -1.
         21    1    1    2  502  501  0.17228659963E+02  0.14082409091E+02 -0.15500843215E+02  0.27118575005E+02  0.00000000000E+00 0.  1.
<scales pt_clust_5="13000.00000" pt_clust_6="13000.00000" pt_clust_7="13000.00000" pt_clust_8="13000.00000" pt_clust_9="22.25176"></scales>
<clustering>
<clus scale="   22.252">  2  9  1 -1</clus>
<clus scale="   80.883">  7  8 -1 -1</clus>
<clus scale="   92.441">  5  6 -1 -1</clus>
<clus scale="   94.379">  1  7  2 -1</clus>
<clus scale="   94.379">  1  5  2 -1</clus>
</clustering>
</event>
<event>
 9    1  0.1748361E-005  0.9125897E+02  0.7546771E-02  0.1301404E+00
         -2   -1    0    0    0  501 -0.00000000000E+00  0.00000000000E+00  0.79675661221E+02  0.79675661221E+02  0.00000000000E+00 0.  1.
          2   -1    0    0  502    0  0.00000000000E+00 -0.00000000000E+00 -0.17623804659E+03  0.17623804659E+03  0.00000000000E+00 0. -1.
         23    2    1    2    0    0 -0.49034563565E+01  0.11117858328E+02 -0.44726036432E+02  0.10001935329E+03  0.88632962489E+02 0.  0.
         23    2    1    2    0    0 -0.65540493243E+01  0.65623480904E+01 -0.79328450020E+02  0.12125796098E+03  0.91238534318E+02 0.  0.
        -11    1    3    3    0    0 -0.24684421863E+02 -0.29202136874E+02 -0.39215388788E+02  0.54771636807E+02  0.00000000000E+00 0.  1.
         11    1    3    3    0    0  0.19780965506E+02  0.40319995202E+02 -0.55106476431E+01  0.45247716483E+02  0.00000000000E+00 0. -1.
        -13    1    4    4    0    0 -0.83094970184E+00  0.30797587900E+02 -0.89276204036E+02  0.94442694291E+02  0.00000000000E+00 0. -1.
         13    1    4    4    0    0 -0.57230996225E+01 -0.24235239809E+02  0.99477540155E+01  0.26815266694E+02  0.00000000000E+00 0.  1.
         21    1    1    2  502  501  0.11457505681E+02 -0.17680206418E+02  0.27492101081E+02  0.34636393537E+02  0.00000000000E+00 0.  1.
<scales pt_clust_5="13000.00000" pt_clust_6="13000.00000" pt_clust_7="13000.00000" pt_clust_8="13000.00000" pt_clust_9="21.06808"></scales>
<clustering>
<clus scale="   21.068">  1  9  2 -1</clus>
<clus scale="   88.633">  5  6 -1 -1</clus>
<clus scale="   88.654">  1  5  2 -1</clus>
<clus scale="   91.239">  7  8 -1 -1</clus>
<clus scale="   91.259">  2  5  1 -1</clus>
</clustering>
</event>
<event>
 9    1  0.1748361E-005  0.1012165E+03  0.7546771E-02  0.1278028E+00
         -1   -1    0    0    0  501 -0.00000000000E+00  0.00000000000E+00  0.95001341329E+02  0.95001341329E+02  0.00000000000E+00 0.  1.
          1   -1    0    0  502    0  0.00000000000E+00 -0.00000000000E+00 -0.22746900217E+03  0.22746900217E+03  0.00000000000E+00 0. -1.
         23    2    1    2    0    0  0.29566608294E+02 -0.48536423401E+01  0.29418306088E+02  0.99634985793E+02  0.90354587548E+02 0.  0.
         23    2    1    2    0    0 -0.49103966989E+02 -0.48727472329E-01 -0.17212202765E+03  0.20024070008E+03  0.89772733150E+02 0.  0.
        -11    1    3    3    0    0  0.26987991944E+02 -0.45222390004E+02  0.62866313968E+01  0.53037137943E+02  0.00000000000E+00 0. -1.
         11    1    3    3    0    0  0.25786163503E+01  0.40368747664E+02  0.23131674691E+02  0.46597847850E+02  0.00000000000E+00 0.  1.
        -11    1    4    4    0    0 -0.16188006666E+02  0.43002760633E+02 -0.99777926474E+02  0.10984954981E+03  0.00000000000E+00 0.  1.
         11    1    4    4    0    0 -0.32915960323E+02 -0.43051488105E+02 -0.72344101175E+02  0.90391150268E+02  0.00000000000E+00 0. -1.
         21    1    1    2  502  501  0.19537358695E+02  0.49023698124E+01  0.10236060716E+02  0.22594657632E+02  0.00000000000E+00 0. -1.
<scales pt_clust_5="13000.00000" pt_clust_6="13000.00000" pt_clust_7="13000.00000" pt_clust_8="13000.00000" pt_clust_9="20.14303"></scales>
<clustering>
<clus scale="   20.143">  1  9  2 -1</clus>
<clus scale="   89.773">  7  8 -1 -1</clus>
<clus scale="   90.355">  5  6 -1 -1</clus>
<clus scale="  100.697">  2  7  1 -1</clus>
<clus scale="  100.697">  2  5  1 -1</clus>
</clustering>
</event>
<event>
 9    1  0.1748361E-005  0.2036468E+03  0.7546771E-02  0.1147134E+00
          1   -1    0    0  502    0  0.00000000000E+00  0.00000000000E+00  0.10976412289E+04  0.10976412289E+04  0.00000000000E+00 0. -1.
         -1   -1    0    0    0  501 -0.00000000000E+00 -0.00000000000E+00 -0.25003610701E+03  0.25003610701E+03  0.00000000000E+00 0.  1.
         23    2    1    2    0    0 -0.16087447778E+03  0.60953102014E+02 -0.12141098418E+03  0.23089397718E+03  0.94739238825E+02 0.  0.
         23    2    1    2    0    0  0.14655982460E+03 -0.24508646520E+03  0.30447467921E+03  0.42705492467E+03  0.90132795310E+02 0.  0.
        -11    1    4    4    0    0  0.92344258008E+02 -0.88574046403E+02  0.17515205820E+03  0.21691257957E+03  0.00000000000E+00 0.  1.
         11    1    4    4    0    0  0.54215566596E+02 -0.15651241880E+03  0.12932262101E+03  0.21014234510E+03  0.00000000000E+00 0. -1.
        -13    1    3    3    0    0 -0.12965681883E+03  0.73613034734E+02 -0.59734795850E+02  0.16061760609E+03  0.00000000000E+00 0.  1.
         13    1    3    3    0    0 -0.31217658958E+02 -0.12659932720E+02 -0.61676188329E+02  0.70276371094E+02  0.00000000000E+00 0. -1.
         21    1    1    2  502  501  0.14314653180E+02  0.18413336319E+03  0.66454142685E+03  0.68972843405E+03  0.00000000000E+00 0.  1.
<scales pt_clust_5="13000.00000" pt_clust_6="13000.00000" pt_clust_7="13000.00000" pt_clust_8="13000.00000" pt_clust_9="184.68894"></scales>
<clustering>
<clus scale="   90.133">  5  6 -1 -1</clus>
<clus scale="   94.739">  7  8 -1 -1</clus>
<clus scale="  184.689">  1  9  2 -1</clus>
<clus scale="  201.545">  1  5  2 -1</clus>
<clus scale="  184.689">  1  5  2 -1</clus>
</clustering>
</event>
<event>
 9    1  0.1748361E-005  0.1141954E+03  0.7546771E-02  0.1253174E+00
          2   -1    0    0  502    0  0.00000000000E+00  0.00000000000E+00  0.63626050649E+03  0.63626050649E+03  0.00000000000E+00 0. -1.
         -2   -1    0    0    0  501 -0.00000000000E+00 -0.00000000000E+00 -0.39259561398E+02  0.39259561398E+02  0.00000000000E+00 0.  1.
         23    2    1    2    0    0 -0.26103130116E+02  0.55661915823E+02  0.25821902966E+03  0.28070446868E+03  0.91314342704E+02 0.  0.
         23    2    1    2    0    0  0.56890144650E+02 -0.52385188381E+02  0.34339068732E+03  0.36351355478E+03  0.90797818567E+02 0.  0.
        -11    1    4    4    0    0 -0.52582662932E+01 -0.56625514607E+02  0.17155933233E+03  0.18073932272E+03  0.00000000000E+00 0. -1.
         11    1    4    4    0    0  0.62148410943E+02  0.42403262259E+01  0.17183135499E+03  0.18277423206E+03  0.00000000000E+00 0.  1.
        -11    1    3    3    0    0  0.52040459442E+01  0.67819013564E+02  0.21768811540E+03  0.22806713109E+03  0.00000000000E+00 0.  1.
         11    1    3    3    0    0 -0.31307176060E+02 -0.12157097741E+02  0.40530914260E+02  0.52637337595E+02  0.00000000000E+00 0. -1.
         21    1    1    2  502  501 -0.30787014534E+02 -0.32767274417E+01 -0.46087718873E+01  0.31302044421E+02  0.00000000000E+00 0.  1.
<scales pt_clust_5="13000.00000" pt_clust_6="13000.00000" pt_clust_7="13000.00000" pt_clust_8="13000.00000" pt_clust_9="30.96090"></scales>
<clustering>
<clus scale="   30.961">  2  9  1 -1</clus>
<clus scale="   90.798">  5  6 -1 -1</clus>
<clus scale="   91.314">  7  8 -1 -1</clus>
<clus scale="  113.783">  1  5  2 -1</clus>
<clus scale="  113.783">  1  5  2 -1</clus>
</clustering>
</event>
<event>
 9    1  0.1748361E-005  0.1049422E+03  0.7546771E-02  0.1271298E+00
          1   -1    0    0  502    0  0.00000000000E+00  0.00000000000E+00  0.89411428754E+02  0.89411428754E+02  0.00000000000E+00 0. -1.
         -1   -1    0    0    0  501 -0.00000000000E+00 -0.00000000000E+00 -0.18024656631E+03  0.18024656631E+03  0.00000000000E+00 0.  1.
         23    2    1    2    0    0  0.16009897752E+02 -0.53719726430E+02 -0.40853217550E+02  0.11480905727E+03  0.91487750076E+02 0.  0.
         23    2    1    2    0    0  0.96202974487E+01  0.49806448363E+02 -0.45841204905E+01  0.10256910562E+03  0.89029067418E+02 0.  0.
        -11    1    3    3    0    0 -0.88661647865E+01 -0.39813067327E+02 -0.65479156123E+02  0.77144080101E+02  0.00000000000E+00 0.  1.
         11    1    3    3    0    0  0.24876062538E+02 -0.13906659103E+02  0.24625938573E+02  0.37664977172E+02  0.00000000000E+00 0. -1.
        -11    1    4    4    0    0 -0.18689011090E+02 -0.11983506981E+02 -0.23188219539E+02  0.32102602706E+02  0.00000000000E+00 0. -1.
         11    1    4    4    0    0  0.28309308539E+02  0.61789955344E+02  0.18604099049E+02  0.70466502913E+02  0.00000000000E+00 0.  1.
         21    1    1    2  502  501 -0.25630195200E+02  0.39132780672E+01 -0.45397799516E+02  0.52279832174E+02  0.00000000000E+00 0.  1.
<scales pt_clust_5="13000.00000" pt_clust_6="13000.00000" pt_clust_7="13000.00000" pt_clust_8="13000.00000" pt_clust_9="25.92722"></scales>
<clustering>
<clus scale="   25.927">  2  9  1 -1</clus>
<clus scale="   89.029">  7  8 -1 -1</clus>
<clus scale="   91.488">  5  6 -1 -1</clus>
<clus scale="  102.806">  1  7  2 -1</clus>
<clus scale="  102.806">  1  5  2 -1</clus>
</clustering>
</event>
<event>
 9    1  0.1748361E-005  0.1455422E+03  0.7546771E-02  0.1206160E+00
         -2   -1    0    0    0  501 -0.00000000000E+00  0.00000000000E+00  0.30367880088E+02  0.30367880088E+02  0.00000000000E+00 0. -1.
          2   -1    0    0  502    0  0.00000000000E+00 -0.00000000000E+00 -0.94216857382E+03  0.94216857382E+03  0.00000000000E+00 0.  1.
         23    2    1    2    0    0  0.10302301123E+03  0.53499748906E+02 -0.44651701419E+03  0.47035657240E+03  0.91552702107E+02 0.  0.
         23    2    1    2    0    0 -0.10991004829E+03 -0.23184523318E+02 -0.43644747057E+03  0.45977739184E+03  0.91055558014E+02 0.  0.
        -11    1    3    3    0    0  0.78295570189E+02  0.65877375559E+02 -0.41912248713E+03  0.43143213156E+03  0.00000000000E+00 0.  1.
         11    1    3    3    0    0  0.24727441043E+02 -0.12377626653E+02 -0.27394527058E+02  0.38924440842E+02  0.00000000000E+00 0. -1.
        -11    1    4    4    0    0 -0.20339649069E+02 -0.38893841551E+02 -0.73470808874E+02  0.85582661746E+02  0.00000000000E+00 0.  1.
         11    1    4    4    0    0 -0.89570399217E+02  0.15709318233E+02 -0.36297666170E+03  0.37419473010E+03  0.00000000000E+00 0. -1.
         21    1    1    2  502  501  0.68870370543E+01 -0.30315225588E+02 -0.28836208966E+02  0.42402489660E+02  0.00000000000E+00 0. -1.
<scales pt_clust_5="13000.00000" pt_clust_6="13000.00000" pt_clust_7="13000.00000" pt_clust_8="13000.00000" pt_clust_9="31.08769"></scales>
<clustering>
<clus scale="   31.088">  1  9  2 -1</clus>
<clus scale="   91.056">  7  8 -1 -1</clus>
<clus scale="   91.553">  5  6 -1 -1</clus>
<clus scale="  145.230">  2  7  1 -1</clus>
<clus scale="  145.230">  2  5  1 -1</clus>
</clustering>
</event>
<event>
 9    1  0.1748361E-005  0.1965473E+03  0.7546771E-02  0.1153673E+00
          1   -1    0    0  502    0  0.00000000000E+00  0.00000000000E+00  0.52473551177E+03  0.52473551177E+03  0.00000000000E+00 0. -1.
         -1   -1    0    0    0  501 -0.00000000000E+00 -0.00000000000E+00 -0.90058335593E+02  0.90058335593E+02  0.00000000000E+00 0.  1.
         23    2    1    2    0    0  0.92841272141E+02  0.15143996865E+03  0.13198968650E+03  0.23921820788E+03  0.90832305492E+02 0.  0.
         23    2    1    2    0    0 -0.10384888596E+03 -0.11805484255E+03  0.26579800406E+03  0.32461910550E+03  0.10003723170E+03 0.  0.
        -11    1    4    4    0    0 -0.67702242669E+02 -0.82886228379E+02  0.84274525204E+02  0.13622010173E+03  0.00000000000E+00 0.  1.
         11    1    4    4    0    0 -0.36146643293E+02 -0.35168614170E+02  0.18152347886E+03  0.18839900377E+03  0.00000000000E+00 0. -1.
        -13    1    3    3    0    0  0.63603931072E+02  0.24308938486E+02  0.34284005677E+02  0.76235015468E+02  0.00000000000E+00 0.  1.
         13    1    3    3    0    0  0.29237341069E+02  0.12713103016E+03  0.97705680828E+02  0.16298319241E+03  0.00000000000E+00 0. -1.
         21    1    1    2  502  501  0.11007613821E+02 -0.33385126103E+02  0.36889485609E+02  0.50956533982E+02  0.00000000000E+00 0.  1.
<scales pt_clust_5="13000.00000" pt_clust_6="13000.00000" pt_clust_7="13000.00000" pt_clust_8="13000.00000" pt_clust_9="35.15301"></scales>
<clustering>
<clus scale="   35.153">  1  9  2 -1</clus>
<clus scale="   90.832">  7  8 -1 -1</clus>
<clus scale="  100.037">  5  6 -1 -1</clus>
<clus scale="  192.026">  2  7  1 -1</clus>
<clus scale="   35.153">  1  5  2 -1</clus>
</clustering>
</event>
<event>
 9    1  0.1748361E-005  0.3567404E+03  0.7546771E-02  0.1059886E+00
         -2   -1    0    0    0  501 -0.00000000000E+00  0.00000000000E+00  0.85648837310E+03  0.85648837310E+03  0.00000000000E+00 0.  1.
          2   -1    0    0  502    0  0.00000000000E+00 -0.00000000000E+00 -0.19330333043E+03  0.19330333043E+03  0.00000000000E+00 0. -1.
         23    2    1    2    0    0  0.26182451421E+03  0.23127565939E+03  0.35308020222E+03  0.50494141029E+03  0.90882846330E+02 0.  0.
         23    2    1    2    0    0 -0.23263135547E+03 -0.25180163136E+03  0.15743788858E+03  0.38806778708E+03  0.91041251668E+02 0.  0.
        -13    1    4    4    0    0 -0.14439668347E+03 -0.92898446351E+02  0.92705532010E+02  0.19512775096E+03  0.00000000000E+00 0.  1.
         13    1    4    4    0    0 -0.88234672001E+02 -0.15890318501E+03  0.64732356565E+02  0.19294003611E+03  0.00000000000E+00 0. -1.
        -13    1    3    3    0    0  0.14952603142E+03  0.14983336590E+03  0.15177896720E+03  0.26047058662E+03  0.00000000000E+00 0.  1.
         13    1    3    3    0    0  0.11229848278E+03  0.81442293495E+02  0.20130123501E+03  0.24447082367E+03  0.00000000000E+00 0. -1.
         21    1    1    2  502  501 -0.29193158741E+02  0.20525971965E+02  0.15266695189E+03  0.15678250617E+03  0.00000000000E+00 0.  1.
<scales pt_clust_5="13000.00000" pt_clust_6="13000.00000" pt_clust_7="13000.00000" pt_clust_8="13000.00000" pt_clust_9="35.68692"></scales>
<clustering>
<clus scale="   35.687">  1  9  2 -1</clus>
<clus scale="   90.883">  7  8 -1 -1</clus>
<clus scale="   91.041">  5  6 -1 -1</clus>
<clus scale="  356.700">  1  7  2 -1</clus>
<clus scale="  356.740">  2  5  1 -1</clus>
</clustering>
</event>
<event>
 9    1  0.1748361E-005  0.1265935E+03  0.7546771E-02  0.1233078E+00
          2   -1    0    0  502    0  0.00000000000E+00  0.00000000000E+00  0.56830520519E+03  0.56830520519E+03  0.00000000000E+00 0. -1.
         -2   -1    0    0    0  501 -0.00000000000E+00 -0.00000000000E+00 -0.39507640758E+02  0.39507640758E+02  0.00000000000E+00 0.  1.
         23    2    1    2    0    0  0.69106425227E+02  0.53843811833E+02  0.24521994729E+03  0.27569064366E+03  0.90540898881E+02 0.  0.
         23    2    1    2    0    0 -0.52413985888E+02 -0.69859191485E+02  0.28157409731E+03  0.30890272753E+03  0.92246356280E+02 0.  0.
        -11    1    3    3    0    0 -0.85914754346E+01  0.42340540548E+02  0.55344233676E+02  0.70210533577E+02  0.00000000000E+00 0.  1.
         11    1    3    3    0    0  0.77697900662E+02  0.11503271285E+02  0.18987571362E+03  0.20548011008E+03  0.00000000000E+00 0. -1.
        -13    1    4    4    0    0 -0.54780000889E+02 -0.21343131964E+02  0.68074514041E+02  0.89947302579E+02  0.00000000000E+00 0.  1.
         13    1    4    4    0    0  0.23660150011E+01 -0.48516059521E+02  0.21349958327E+03  0.21895542495E+03  0.00000000000E+00 0. -1.
         21    1    1    2  502  501 -0.16692439339E+02  0.16015379652E+02  0.20035198297E+01  0.23219474762E+02  0.00000000000E+00 0.  1.
<scales pt_clust_5="13000.00000" pt_clust_6="13000.00000" pt_clust_7="13000.00000" pt_clust_8="13000.00000" pt_clust_9="23.13288"></scales>
<clustering>
<clus scale="   23.133">  2  9  1 -1</clus>
<clus scale="   90.541">  5  6 -1 -1</clus>
<clus scale="   92.246">  7  8 -1 -1</clus>
<clus scale="  125.356">  2  5  1 -1</clus>
<clus scale="  126.593">  1  5  2 -1</clus>
</clustering>
</event>
<event>
 9    1  0.1748361E-005  0.1754206E+03  0.7546771E-02  0.1172353E+00
         -2   -1    0    0    0  501 -0.00000000000E+00  0.00000000000E+00  0.58445948348E+02  0.58445948348E+02  0.00000000000E+00 0.  1.
          2   -1    0    0  502    0  0.00000000000E+00 -0.00000000000E+00 -0.10843466921E+04  0.10843466921E+04  0.00000000000E+00 0. -1.
         23    2    1    2    0    0  0.14370350441E+03 -0.12123907728E+02 -0.45613979731E+03  0.48708853746E+03  0.91619006303E+02 0.  0.
         23    2    1    2    0    0 -0.15161499378E+03 -0.56348892410E+02 -0.55480573565E+03  0.58517202270E+03  0.91948832632E+02 0.  0.
        -11    1    4    4    0    0 -0.13052133963E+03 -0.79891744254E+02 -0.48434793624E+03  0.50794825941E+03  0.00000000000E+00 0. -1.
         11    1    4    4    0    0 -0.21093654143E+02  0.23542851844E+02 -0.70457799407E+02  0.77223763281E+02  0.00000000000E+00 0.  1.
        -11    1    3    3    0    0  0.12626852083E+03  0.23127267633E+02 -0.30494142990E+03  0.33085931380E+03  0.00000000000E+00 0.  1.
         11    1    3    3    0    0  0.17434983578E+02 -0.35251175361E+02 -0.15119836741E+03  0.15622922365E+03  0.00000000000E+00 0. -1.
         21    1    1    2  502  501  0.79114893708E+01  0.68472800138E+02 -0.14955210812E+02  0.70532080313E+02  0.00000000000E+00 0.  1.
<scales pt_clust_5="13000.00000" pt_clust_6="13000.00000" pt_clust_7="13000.00000" pt_clust_8="13000.00000" pt_clust_9="68.92834"></scales>
<clustering>
<clus scale="   68.928">  1  9  2 -1</clus>
<clus scale="   91.619">  7  8 -1 -1</clus>
<clus scale="   91.949">  5  6 -1 -1</clus>
<clus scale="  175.248">  1  7  2 -1</clus>
<clus scale="  175.421">  2  5  1 -1</clus>
</clustering>
</event>
<event>
 9    1  0.1748361E-005  0.1272102E+03  0.7546771E-02  0.1232483E+00
          1   -1    0    0  502    0  0.00000000000E+00  0.00000000000E+00  0.72152775417E+02  0.72152775417E+02  0.00000000000E+00 0. -1.
         -1   -1    0    0    0  501 -0.00000000000E+00 -0.00000000000E+00 -0.34935962323E+03  0.34935962323E+03  0.00000000000E+00 0.  1.
         23    2    1    2    0    0  0.59500068572E+02 -0.81442131927E+02 -0.11938424678E+03  0.18263140940E+03  0.94491027651E+02 0.  0.
         23    2    1    2    0    0 -0.60371168214E+02  0.47242937927E+02 -0.56847777325E+02  0.13226833190E+03  0.91578756820E+02 0.  0.
        -11    1    4    4    0    0 -0.20147742548E+02 -0.10685129114E+02 -0.57376456650E+02  0.61742702335E+02  0.00000000000E+00 0. -1.
         11    1    4    4    0    0 -0.40223425666E+02  0.57928067040E+02  0.52867932500E+00  0.70525629562E+02  0.00000000000E+00 0.  1.
        -13    1    3    3    0    0  0.36784924345E+02 -0.86941329080E+02 -0.44843250306E+02  0.10451240338E+03  0.00000000000E+00 0. -1.
         13    1    3    3    0    0  0.22715144228E+02  0.54991971532E+01 -0.74540996474E+02  0.78119006022E+02  0.00000000000E+00 0.  1.
         21    1    1    2  502  501  0.87109964148E+00  0.34199194000E+02 -0.10097482371E+03  0.10661265735E+03  0.00000000000E+00 0.  1.
<scales pt_clust_5="13000.00000" pt_clust_6="13000.00000" pt_clust_7="13000.00000" pt_clust_8="13000.00000" pt_clust_9="34.21029"></scales>
<clustering>
<clus scale="   34.210">  2  9  1 -1</clus>
<clus scale="   91.579">  5  6 -1 -1</clus>
<clus scale="   94.491">  7  8 -1 -1</clus>
<clus scale="  125.062">  1  5  2 -1</clus>
<clus scale="  125.062">  1  5  2 -1</clus>
</clustering>
</event>
<event>
 9    1  0.1748361E-005  0.9840870E+02  0.7546771E-02  0.1284135E+00
         -3   -1    0    0    0  501 -0.00000000000E+00  0.00000000000E+00  0.59400172401E+03  0.59400172401E+03  0.00000000000E+00 0.  1.
          3   -1    0    0  502    0  0.00000000000E+00 -0.00000000000E+00 -0.23203670494E+02  0.23203670494E+02  0.00000000000E+00 0. -1.
         23    2    1    2    0    0  0.30109766677E+02  0.11558792475E+02  0.31343937464E+03  0.32830038509E+03  0.92177532761E+02 0.  0.
         23    2    1    2    0    0 -0.20142100255E+02 -0.39538569182E+02  0.20329990107E+03  0.22722378263E+03  0.91273188637E+02 0.  0.
        -13    1    3    3    0    0  0.16900274673E+02 -0.38081689393E+02  0.92208687378E+02  0.10118436825E+03  0.00000000000E+00 0. -1.
         13    1    3    3    0    0  0.13209492004E+02  0.49640481868E+02  0.22123068726E+03  0.22711601684E+03  0.00000000000E+00 0.  1.
        -13    1    4    4    0    0 -0.36295348508E+02 -0.53134655807E+02  0.82677180856E+02  0.10476717141E+03  0.00000000000E+00 0. -1.
         13    1    4    4    0    0  0.16153248253E+02  0.13596086625E+02  0.12062272021E+03  0.12245661122E+03  0.00000000000E+00 0.  1.
         21    1    1    2  502  501 -0.99676664221E+01  0.27979776707E+02  0.54058777806E+02  0.61681226774E+02  0.00000000000E+00 0.  1.
<scales pt_clust_5="13000.00000" pt_clust_6="13000.00000" pt_clust_7="13000.00000" pt_clust_8="13000.00000" pt_clust_9="29.70223"></scales>
<clustering>
<clus scale="   29.702">  2  9  1 -1</clus>
<clus scale="   91.273">  7  8 -1 -1</clus>
<clus scale="   92.178">  5  6 -1 -1</clus>
<clus scale="   97.562">  2  7  1 -1</clus>
<clus scale="   29.702">  2  5  1 -1</clus>
</clustering>
</event>
<event>
 9    1  0.1748361E-005  0.1141774E+03  0.7546771E-02  0.1260229E+00
         -2   -1    0    0    0  501 -0.00000000000E+00  0.00000000000E+00  0.82869585287E+02  0.82869585287E+02  0.00000000000E+00 0. -1.
          2   -1    0    0  502    0  0.00000000000E+00 -0.00000000000E+00 -0.20005027709E+03  0.20005027709E+03  0.00000000000E+00 0.  1.
         23    2    1    2    0    0 -0.70393446906E+02  0.73905969336E+01 -0.70413719060E+02  0.12831255985E+03  0.80598777242E+02 0.  0.
         23    2    1    2    0    0  0.43011612520E+02 -0.34707381853E+01 -0.60752946000E+02  0.12361153515E+03  0.98624775487E+02 0.  0.
        -11    1    3    3    0    0 -0.79541375657E+02  0.27957627639E+02 -0.50637349445E+02  0.98349379985E+02  0.00000000000E+00 0.  1.
         11    1    3    3    0    0  0.91479287504E+01 -0.20567030706E+02 -0.19776369615E+02  0.29963179865E+02  0.00000000000E+00 0. -1.
        -13    1    4    4    0    0 -0.31517721338E+02 -0.15169178882E+01 -0.27974271920E+02  0.42169037073E+02  0.00000000000E+00 0.  1.
         13    1    4    4    0    0  0.74529333857E+02 -0.19538202972E+01 -0.32778674079E+02  0.81442498079E+02  0.00000000000E+00 0. -1.
         21    1    1    2  502  501  0.27381834387E+02 -0.39198587483E+01  0.13985973260E+02  0.30995767372E+02  0.00000000000E+00 0.  1.
<scales pt_clust_5="13000.00000" pt_clust_6="13000.00000" pt_clust_7="13000.00000" pt_clust_8="13000.00000" pt_clust_9="27.66099"></scales>
<clustering>
<clus scale="   27.661">  1  9  2 -1</clus>
<clus scale="   80.599">  5  6 -1 -1</clus>
<clus scale="   98.625">  7  8 -1 -1</clus>
<clus scale="   99.024">  1  5  2 -1</clus>
<clus scale="  114.177">  2  5  1 -1</clus>
</clustering>
</event>
<event>
 9    1  0.1748361E-005  0.1035207E+03  0.7546771E-02  0.1273679E+00
         -2   -1    0    0    0  501 -0.00000000000E+00  0.00000000000E+00  0.14806664828E+02  0.14806664828E+02  0.00000000000E+00 0.  1.
          2   -1    0    0  502    0  0.00000000000E+00 -0.00000000000E+00 -0.95336410485E+03  0.95336410485E+03  0.00000000000E+00 0. -1.
         23    2    1    2    0    0 -0.31806815721E+02 -0.23028955600E+02 -0.38029619043E+03  0.39246490583E+03  0.88665120126E+02 0.  0.
         23    2    1    2    0    0  0.43648989622E+02  0.45103229860E+02 -0.50571170125E+03  0.51749104015E+03  0.90072838435E+02 0.  0.
        -11    1    3    3    0    0  0.25185311262E+02  0.13735481944E+02 -0.13130371432E+03  0.13440099985E+03  0.00000000000E+00 0.  1.
         11    1    3    3    0    0 -0.56992126983E+02 -0.36764437544E+02 -0.24899247611E+03  0.25806390598E+03  0.00000000000E+00 0. -1.
        -13    1    4    4    0    0  0.83744286497E+00  0.62822397363E+02 -0.26341561135E+03  0.27080461448E+03  0.00000000000E+00 0. -1.
         13    1    4    4    0    0  0.42811546757E+02 -0.17719167503E+02 -0.24229608989E+03  0.24668642567E+03  0.00000000000E+00 0.  1.
         21    1    1    2  502  501 -0.11842173901E+02 -0.22074274260E+02 -0.52549548343E+02  0.58214823695E+02  0.00000000000E+00 0. -1.
<scales pt_clust_5="13000.00000" pt_clust_6="13000.00000" pt_clust_7="13000.00000" pt_clust_8="13000.00000" pt_clust_9="25.05016"></scales>
<clustering>
<clus scale="   25.050">  1  9  2 -1</clus>
<clus scale="   88.665">  5  6 -1 -1</clus>
<clus scale="   90.073">  7  8 -1 -1</clus>
<clus scale="  102.298">  1  5  2 -1</clus>
<clus scale="  103.521">  2  5  1 -1</clus>
</clustering>
</event>
<event>
 9    1  0.1748361E-005  0.1696408E+03  0.7546771E-02  0.1200449E+00
          1   -1    0    0  502    0  0.00000000000E+00  0.00000000000E+00  0.25185016273E+03  0.25185016273E+03  0.00000000000E+00 0. -1.
         -1   -1    0    0    0  501 -0.00000000000E+00 -0.00000000000E+00 -0.47680626099E+03  0.47680626099E+03  0.00000000000E+00 0.  1.
         23    2    1    2    0    0  0.12828029553E+03 -0.67362337417E+02 -0.80446948640E+02  0.18981976621E+03  0.92554380639E+02 0.  0.
         23    2    1    2    0    0  0.12923442562E+02  0.44430724735E+02  0.16668450844E+03  0.19633724535E+03  0.92862715268E+02 0.  0.
        -11    1    4    4    0    0 -0.10108129640E+02 -0.23884692529E+02  0.19512291216E+02  0.32455852023E+02  0.00000000000E+00 0.  1.
         11    1    4    4    0    0  0.23031572202E+02  0.68315417264E+02  0.14717221723E+03  0.16388139332E+03  0.00000000000E+00 0. -1.
        -13    1    3    3    0    0  0.11386198249E+03 -0.46520186885E+02 -0.99425086219E+02  0.15815823283E+03  0.00000000000E+00 0. -1.
         13    1    3    3    0    0  0.14418313043E+02 -0.20842150532E+02  0.18978137579E+02  0.31661533377E+02  0.00000000000E+00 0.  1.
         21    1    1    2  502  501 -0.14120373809E+03  0.22931612682E+02 -0.31119365806E+03  0.34249941216E+03  0.00000000000E+00 0.  1.
<scales pt_clust_5="13000.00000" pt_clust_6="13000.00000" pt_clust_7="13000.00000" pt_clust_8="13000.00000" pt_clust_9="142.16777"></scales>
<clustering>
<clus scale="   92.554">  7  8 -1 -1</clus>
<clus scale="   92.863">  5  6 -1 -1</clus>
<clus scale="  103.753">  1  5  2 -1</clus>
<clus scale="  142.168">  2  9  1 -1</clus>
<clus scale="  103.753">  1  5  2 -1</clus>
</clustering>
</event>
<event>
 9    1  0.1748361E-005  0.1375173E+03  0.7546771E-02  0.1216972E+00
          2   -1    0    0  502    0  0.00000000000E+00  0.00000000000E+00  0.28448883147E+03  0.28448883147E+03  0.00000000000E+00 0. -1.
         -2   -1    0    0    0  501 -0.00000000000E+00 -0.00000000000E+00 -0.27053589441E+03  0.27053589441E+03  0.00000000000E+00 0.  1.
         23    2    1    2    0    0 -0.29668823928E+02 -0.13244891885E+03  0.10801516105E+03  0.19708017385E+03  0.93543384007E+02 0.  0.
         23    2    1    2    0    0  0.76707727723E+00  0.76992804317E+02  0.97657703056E+02  0.15628339557E+03  0.94651954240E+02 0.  0.
        -11    1    3    3    0    0 -0.36858612495E+02 -0.41776671629E+02  0.87672179372E+02  0.10387616976E+03  0.00000000000E+00 0. -1.
         11    1    3    3    0    0  0.71897885670E+01 -0.90672247223E+02  0.20342981675E+02  0.93204004096E+02  0.00000000000E+00 0.  1.
        -11    1    4    4    0    0 -0.41146635880E+02  0.19109483865E+02  0.60837458068E+02  0.75890805254E+02  0.00000000000E+00 0. -1.
         11    1    4    4    0    0  0.41913713158E+02  0.57883320452E+02  0.36820244988E+02  0.80392590319E+02  0.00000000000E+00 0.  1.
         21    1    1    2  502  501  0.28901746651E+02  0.55456114534E+02 -0.19171992704E+03  0.20166115646E+03  0.00000000000E+00 0.  1.
<scales pt_clust_5="13000.00000" pt_clust_6="13000.00000" pt_clust_7="13000.00000" pt_clust_8="13000.00000" pt_clust_9="62.53552"></scales>
<clustering>
<clus scale="   62.536">  2  9  1 -1</clus>
<clus scale="   93.543">  5  6 -1 -1</clus>
<clus scale="   94.652">  7  8 -1 -1</clus>
<clus scale="  136.757">  2  5  1 -1</clus>
<clus scale="  137.517">  1  5  2 -1</clus>
</clustering>
</event>
<event>
 9    1  0.1748361E-005  0.1281324E+03  0.7546771E-02  0.1230518E+00
          1   -1    0    0  502    0  0.00000000000E+00  0.00000000000E+00  0.53534260852E+03  0.53534260852E+03  0.00000000000E+00 0. -1.
         -1   -1    0    0    0  501 -0.00000000000E+00 -0.00000000000E+00 -0.12258562494E+03  0.12258562494E+03  0.00000000000E+00 0.  1.
         23    2    1    2    0    0 -0.10453647345E+03  0.60699348132E+01  0.97309695961E+02  0.16966495994E+03  0.91390936710E+02 0.  0.
         23    2    1    2    0    0  0.82877287880E+02  0.27199053514E+02  0.38675672475E+03  0.40664843585E+03  0.90408809744E+02 0.  0.
        -13    1    3    3    0    0 -0.67963105844E+02  0.25204877727E+02  0.10508720988E+03  0.12766201979E+03  0.00000000000E+00 0. -1.
         13    1    3    3    0    0 -0.36573367607E+02 -0.19134942914E+02 -0.77775139155E+01  0.42002940149E+02  0.00000000000E+00 0.  1.
        -13    1    4    4    0    0  0.71761551993E+01  0.40022645147E+02  0.21055315341E+03  0.21444332524E+03  0.00000000000E+00 0.  1.
         13    1    4    4    0    0  0.75701132680E+02 -0.12823591633E+02  0.17620357134E+03  0.19220511061E+03  0.00000000000E+00 0. -1.
         21    1    1    2  502  501  0.21659185571E+02 -0.33268988327E+02 -0.71309437136E+02  0.81614837674E+02  0.00000000000E+00 0.  1.
<scales pt_clust_5="13000.00000" pt_clust_6="13000.00000" pt_clust_7="13000.00000" pt_clust_8="13000.00000" pt_clust_9="39.69819"></scales>
<clustering>
<clus scale="   39.698">  2  9  1 -1</clus>
<clus scale="   90.409">  7  8 -1 -1</clus>
<clus scale="   91.391">  5  6 -1 -1</clus>
<clus scale="  127.434">  1  7  2 -1</clus>
<clus scale="  127.434">  1  5  2 -1</clus>
</clustering>
</event>
<event>
 9    1  0.1748361E-005  0.1635376E+03  0.7546771E-02  0.1185107E+00
          1   -1    0    0  502    0  0.00000000000E+00  0.00000000000E+00  0.82272024029E+03  0.82272024029E+03  0.00000000000E+00 0. -1.
         -1   -1    0    0    0  501 -0.00000000000E+00 -0.00000000000E+00 -0.82212532769E+02  0.82212532769E+02  0.00000000000E+00 0.  1.
         23    2    1    2    0    0  0.63187832205E+02 -0.79929343896E+02  0.17102823106E+03  0.21768795152E+03  0.88068077444E+02 0.  0.
         23    2    1    2    0    0 -0.13064064691E+03  0.90010263220E+02  0.58871929121E+03  0.61638102530E+03  0.90367795128E+02 0.  0.
        -11    1    4    4    0    0 -0.41042866997E+02  0.60502589561E+02  0.38501817672E+03  0.39189804373E+03  0.00000000000E+00 0. -1.
         11    1    4    4    0    0 -0.89597779909E+02  0.29507673659E+02  0.20370111450E+03  0.22448298157E+03  0.00000000000E+00 0.  1.
        -13    1    3    3    0    0  0.42952304793E+02  0.79438357470E+01  0.67438173182E+02  0.80348691436E+02  0.00000000000E+00 0. -1.
         13    1    3    3    0    0  0.20235527412E+02 -0.87873179643E+02  0.10359005787E+03  0.13733926008E+03  0.00000000000E+00 0.  1.
         21    1    1    2  502  501  0.67452814702E+02 -0.10080919324E+02 -0.19239814748E+02  0.70863796237E+02  0.00000000000E+00 0.  1.
<scales pt_clust_5="13000.00000" pt_clust_6="13000.00000" pt_clust_7="13000.00000" pt_clust_8="13000.00000" pt_clust_9="68.20196"></scales>
<clustering>
<clus scale="   68.202">  2  9  1 -1</clus>
<clus scale="   88.068">  7  8 -1 -1</clus>
<clus scale="   90.368">  5  6 -1 -1</clus>
<clus scale="  162.278">  2  7  1 -1</clus>
<clus scale="  163.538">  1  5  2 -1</clus>
</clustering>
</event>
<event>
 9    1  0.1748361E-005  0.9326991E+02  0.7546771E-02  0.1296575E+00
          1   -1    0    0  502    0  0.00000000000E+00  0.00000000000E+00  0.14519377680E+03  0.14519377680E+03  0.00000000000E+00 0. -1.
         -1   -1    0    0    0  501 -0.00000000000E+00 -0.00000000000E+00 -0.13116161417E+03  0.13116161417E+03  0.00000000000E+00 0.  1.
         23    2    1    2    0    0 -0.27873634372E+02 -0.21106733872E+02  0.18258174014E+02  0.96335877446E+02  0.87890879260E+02 0.  0.
         23    2    1    2    0    0  0.91974442677E+01  0.12464759302E+02  0.61946587303E+02  0.11072090879E+03  0.90453174403E+02 0.  0.
        -11    1    4    4    0    0 -0.18438306107E+02  0.43558934462E+02  0.46545183678E+02  0.66361178615E+02  0.00000000000E+00 0. -1.
         11    1    4    4    0    0  0.27635750375E+02 -0.31094175161E+02  0.15401403626E+02  0.44359730177E+02  0.00000000000E+00 0.  1.
        -13    1    3    3    0    0  0.10587095389E+02 -0.19031588392E+02 -0.28428573727E+02  0.35811614731E+02  0.00000000000E+00 0.  1.
         13    1    3    3    0    0 -0.38460729761E+02 -0.20751454801E+01  0.46686747741E+02  0.60524262715E+02  0.00000000000E+00 0. -1.
         21    1    1    2  502  501  0.18676190104E+02  0.86419745708E+01 -0.66172598681E+02  0.69298604730E+02  0.00000000000E+00 0. -1.
<scales pt_clust_5="13000.00000" pt_clust_6="13000.00000" pt_clust_7="13000.00000" pt_clust_8="13000.00000" pt_clust_9="20.57872"></scales>
<clustering>
<clus scale="   20.579">  2  9  1 -1</clus>
<clus scale="   87.891">  7  8 -1 -1</clus>
<clus scale="   90.453">  5  6 -1 -1</clus>
<clus scale="   90.787">  2  7  1 -1</clus>
<clus scale="   93.270">  1  5  2 -1</clus>
</clustering>
</event>
<event>
 9    1  0.1748361E-005  0.1438051E+03  0.7546771E-02  0.1208561E+00
         -3   -1    0    0    0  501 -0.00000000000E+00  0.00000000000E+00  0.62843966013E+03  0.62843966013E+03  0.00000000000E+00 0.  1.
          3   -1    0    0  502    0  0.00000000000E+00 -0.00000000000E+00 -0.45929854958E+02  0.45929854958E+02  0.00000000000E+00 0. -1.
         23    2    1    2    0    0 -0.86583860498E+02  0.93391263491E+02  0.29951245322E+03  0.33825867670E+03  0.92154922451E+02 0.  0.
         23    2    1    2    0    0  0.69355024065E+02 -0.72974596916E+02  0.15774229564E+03  0.20803858452E+03  0.90895597575E+02 0.  0.
        -11    1    4    4    0    0 -0.16350731192E+02 -0.38991060507E+02  0.62710673884E+02  0.75632518330E+02  0.00000000000E+00 0.  1.
         11    1    4    4    0    0  0.85705755258E+02 -0.33983536408E+02  0.95031621757E+02  0.13240606619E+03  0.00000000000E+00 0. -1.
        -13    1    3    3    0    0 -0.49188795609E+02  0.64814692842E+02  0.81277570546E+02  0.11500663240E+03  0.00000000000E+00 0. -1.
         13    1    3    3    0    0 -0.37395064889E+02  0.28576570649E+02  0.21823488267E+03  0.22325204430E+03  0.00000000000E+00 0.  1.
         21    1    1    2  502  501  0.17228836432E+02 -0.20416666576E+02  0.12525505632E+03  0.12807225387E+03  0.00000000000E+00 0.  1.
<scales pt_clust_5="13000.00000" pt_clust_6="13000.00000" pt_clust_7="13000.00000" pt_clust_8="13000.00000" pt_clust_9="26.71466"></scales>
<clustering>
<clus scale="   26.715">  1  9  2 -1</clus>
<clus scale="   90.896">  5  6 -1 -1</clus>
<clus scale="   92.155">  7  8 -1 -1</clus>
<clus scale="  143.001">  2  5  1 -1</clus>
<clus scale="  143.001">  2  5  1 -1</clus>
</clustering>
</event>
<event>
 9    1  0.1748361E-005  0.1394766E+03  0.7546771E-02  0.1215394E+00
          2   -1    0    0  502    0  0.00000000000E+00  0.00000000000E+00  0.18308611680E+03  0.18308611680E+03  0.00000000000E+00 0. -1.
         -2   -1    0    0    0  501 -0.00000000000E+00 -0.00000000000E+00 -0.13765214442E+03  0.13765214442E+03  0.00000000000E+00 0.  1.
         23    2    1    2    0    0 -0.68708104988E+02  0.81203450728E+02  0.13354025323E+02  0.13634857451E+03  0.84248440205E+02 0.  0.
         23    2    1    2    0    0  0.87879456712E+02 -0.61913400914E+02  0.52902234276E+02  0.15013746935E+03  0.90479529102E+02 0.  0.
        -11    1    3    3    0    0 -0.73904591847E+02  0.48487215370E+02 -0.18595476108E+02  0.90325469731E+02  0.00000000000E+00 0.  1.
         11    1    3    3    0    0  0.51964868589E+01  0.32716235358E+02  0.31949501432E+02  0.46023104778E+02  0.00000000000E+00 0. -1.
        -13    1    4    4    0    0 -0.27434652451E+01 -0.21766742452E+02 -0.17911969999E+02  0.28322364798E+02  0.00000000000E+00 0.  1.
         13    1    4    4    0    0  0.90622921957E+02 -0.40146658463E+02  0.70814204275E+02  0.12181510455E+03  0.00000000000E+00 0. -1.
         21    1    1    2  502  501 -0.19171351724E+02 -0.19290049814E+02 -0.20822287223E+02  0.34252217358E+02  0.00000000000E+00 0.  1.
<scales pt_clust_5="13000.00000" pt_clust_6="13000.00000" pt_clust_7="13000.00000" pt_clust_8="13000.00000" pt_clust_9="27.19645"></scales>
<clustering>
<clus scale="   27.196">  2  9  1 -1</clus>
<clus scale="   84.248">  5  6 -1 -1</clus>
<clus scale="   90.480">  7  8 -1 -1</clus>
<clus scale="  135.517">  2  5  1 -1</clus>
<clus scale="  139.477">  1  5  2 -1</clus>
</clustering>
</event>
<event>
 9    1  0.1748361E-005  0.1233982E+03  0.7546771E-02  0.1239206E+00
         -1   -1    0    0    0  501 -0.00000000000E+00  0.00000000000E+00  0.21394727054E+03  0.21394727054E+03  0.00000000000E+00 0.  1.
          1   -1    0    0  502    0  0.00000000000E+00 -0.00000000000E+00 -0.11328520990E+03  0.11328520990E+03  0.00000000000E+00 0. -1.
         23    2    1    2    0    0  0.80773923953E+02  0.57597350612E+02  0.19444892939E+02  0.13365145440E+03  0.87422684784E+02 0.  0.
         23    2    1    2    0    0 -0.58253890457E+02 -0.33057014967E+02  0.98990207914E+01  0.11486852347E+03  0.92792807263E+02 0.  0.
        -11    1    4    4    0    0  0.15960031237E+02 -0.33416851442E+02  0.16129435892E+02  0.40392663437E+02  0.00000000000E+00 0.  1.
         11    1    4    4    0    0 -0.74213921693E+02  0.35983647490E+00 -0.62304151005E+01  0.74475860033E+02  0.00000000000E+00 0. -1.
        -11    1    3    3    0    0  0.75538992123E+02  0.19329843277E+02  0.42365092405E+02  0.88738848463E+02  0.00000000000E+00 0.  1.
         11    1    3    3    0    0  0.52349318298E+01  0.38267507335E+02 -0.22920199466E+02  0.44912605941E+02  0.00000000000E+00 0. -1.
         21    1    1    2  502  501 -0.22520033496E+02 -0.24540335645E+02  0.71318146911E+02  0.78712502572E+02  0.00000000000E+00 0.  1.
<scales pt_clust_5="13000.00000" pt_clust_6="13000.00000" pt_clust_7="13000.00000" pt_clust_8="13000.00000" pt_clust_9="33.30736"></scales>
<clustering>
<clus scale="   33.307">  1  9  2 -1</clus>
<clus scale="   87.423">  7  8 -1 -1</clus>
<clus scale="   92.793">  5  6 -1 -1</clus>
<clus scale="  119.412">  1  7  2 -1</clus>
<clus scale="  123.398">  2  5  1 -1</clus>
</clustering>
</event>
<event>
 9    1  0.1748361E-005  0.1078172E+03  0.7546771E-02  0.1267458E+00
         -1   -1    0    0    0  501 -0.00000000000E+00  0.00000000000E+00  0.33235252414E+02  0.33235252414E+02  0.00000000000E+00 0.  1.
          1   -1    0    0  502    0  0.00000000000E+00 -0.00000000000E+00 -0.45683303958E+03  0.45683303958E+03  0.00000000000E+00 0. -1.
         23    2    1    2    0    0 -0.58016016872E+02  0.32969771344E+02 -0.14283137829E+03  0.17967298366E+03  0.86189990127E+02 0.  0.
         23    2    1    2    0    0  0.47988507927E+02 -0.92408864889E+01 -0.24284385125E+03  0.26455066536E+03  0.92874256801E+02 0.  0.
        -11    1    4    4    0    0  0.32261514617E+02 -0.44932109201E+02 -0.81079525441E+02  0.98150849249E+02  0.00000000000E+00 0. -1.
         11    1    4    4    0    0  0.15726993310E+02  0.35691222712E+02 -0.16176432581E+03  0.16639981612E+03  0.00000000000E+00 0.  1.
        -11    1    3    3    0    0 -0.40750719881E+02  0.97988687389E+00 -0.13690107924E+03  0.14284077445E+03  0.00000000000E+00 0. -1.
         11    1    3    3    0    0 -0.17265296991E+02  0.31989884470E+02 -0.59302990498E+01  0.36832209212E+02  0.00000000000E+00 0.  1.
         21    1    1    2  502  501  0.10027508945E+02 -0.23728884855E+02 -0.37922557622E+02  0.45844642966E+02  0.00000000000E+00 0. -1.
<scales pt_clust_5="13000.00000" pt_clust_6="13000.00000" pt_clust_7="13000.00000" pt_clust_8="13000.00000" pt_clust_9="25.76065"></scales>
<clustering>
<clus scale="   25.761">  1  9  2 -1</clus>
<clus scale="   86.190">  7  8 -1 -1</clus>
<clus scale="   92.874">  5  6 -1 -1</clus>
<clus scale="  102.116">  1  7  2 -1</clus>
<clus scale="  107.817">  2  5  1 -1</clus>
</clustering>
</event>
<event>
 9    1  0.1748361E-005  0.2416446E+03  0.7546771E-02  0.1118934E+00
          2   -1    0    0  502    0  0.00000000000E+00  0.00000000000E+00  0.14669069136E+03  0.14669069136E+03  0.00000000000E+00 0. -1.
         -2   -1    0    0    0  501 -0.00000000000E+00 -0.00000000000E+00 -0.43745801690E+03  0.43745801690E+03  0.00000000000E+00 0.  1.
         23    2    1    2    0    0 -0.19720726305E+03 -0.12285229023E+03 -0.16055533240E+03  0.29839392251E+03  0.96319927397E+02 0.  0.
         23    2    1    2    0    0  0.18411136200E+03  0.10269344216E+03 -0.11849811264E+03  0.25901349228E+03  0.92753705062E+02 0.  0.
        -11    1    3    3    0    0 -0.44221854999E+02 -0.72898537185E+02 -0.27527152992E+02  0.89596391306E+02  0.00000000000E+00 0. -1.
         11    1    3    3    0    0 -0.15298540805E+03 -0.49953753050E+02 -0.13302817941E+03  0.20879753121E+03  0.00000000000E+00 0.  1.
        -13    1    4    4    0    0  0.17912080962E+02  0.51879283967E+02 -0.42087041878E+02  0.69163732138E+02  0.00000000000E+00 0.  1.
         13    1    4    4    0    0  0.16619928103E+03  0.50814158191E+02 -0.76411070766E+02  0.18984976014E+03  0.00000000000E+00 0. -1.
         21    1    1    2  502  501  0.13095901058E+02  0.20158848077E+02 -0.11713880493E+02  0.26741293471E+02  0.00000000000E+00 0. -1.
<scales pt_clust_5="13000.00000" pt_clust_6="13000.00000" pt_clust_7="13000.00000" pt_clust_8="13000.00000" pt_clust_9="24.03917"></scales>
<clustering>
<clus scale="   24.039">  1  9  2 -1</clus>
<clus scale="   92.754">  7  8 -1 -1</clus>
<clus scale="   96.320">  5  6 -1 -1</clus>
<clus scale="  240.245">  1  7  2 -1</clus>
<clus scale="   24.039">  1  5  2 -1</clus>
</clustering>
</event>
<event>
 9    1  0.1748361E-005  0.1243799E+03  0.7546771E-02  0.1236427E+00
          1   -1    0    0  502    0  0.00000000000E+00  0.00000000000E+00  0.21526788326E+03  0.21526788326E+03  0.00000000000E+00 0. -1.
         -1   -1    0    0    0  501 -0.00000000000E+00 -0.00000000000E+00 -0.12481970301E+03  0.12481970301E+03  0.00000000000E+00 0.  1.
         23    2    1    2    0    0 -0.55106844219E+02 -0.61446127602E+02  0.21125721316E+02  0.12500083646E+03  0.91468694848E+02 0.  0.
         23    2    1    2    0    0  0.26696929330E+02  0.81315516415E+02  0.10584376659E+03  0.16473079894E+03  0.92781431053E+02 0.  0.
        -11    1    4    4    0    0  0.48368077100E+02  0.80500493685E+02  0.53525941747E+02  0.10809637739E+03  0.00000000000E+00 0.  1.
         11    1    4    4    0    0 -0.21671147769E+02  0.81502272979E+00  0.52317824842E+02  0.56634421546E+02  0.00000000000E+00 0. -1.
        -13    1    3    3    0    0 -0.62100386510E+02 -0.26565944482E+02  0.45887533815E+02  0.81657046056E+02  0.00000000000E+00 0. -1.
         13    1    3    3    0    0  0.69935422908E+01 -0.34880183120E+02 -0.24761812499E+02  0.43343790403E+02  0.00000000000E+00 0.  1.
         21    1    1    2  502  501  0.28409914889E+02 -0.19869388812E+02 -0.36521307655E+02  0.50355950876E+02  0.00000000000E+00 0. -1.
<scales pt_clust_5="13000.00000" pt_clust_6="13000.00000" pt_clust_7="13000.00000" pt_clust_8="13000.00000" pt_clust_9="34.66866"></scales>
<clustering>
<clus scale="   34.669">  2  9  1 -1</clus>
<clus scale="   91.469">  7  8 -1 -1</clus>
<clus scale="   92.781">  5  6 -1 -1</clus>
<clus scale="  123.404">  2  7  1 -1</clus>
<clus scale="  124.380">  1  5  2 -1</clus>
</clustering>
</event>
<event>
 9    1  0.1748361E-005  0.1518671E+03  0.7546771E-02  0.1202906E+00
          1   -1    0    0  502    0  0.00000000000E+00  0.00000000000E+00  0.53172975717E+03  0.53172975717E+03  0.00000000000E+00 0. -1.
         -1   -1    0    0    0  501 -0.00000000000E+00 -0.00000000000E+00 -0.62930903978E+02  0.62930903978E+02  0.00000000000E+00 0.  1.
         23    2    1    2    0    0  0.12070706652E+03  0.30226741717E+02  0.25822947165E+03  0.30709727042E+03  0.11019265695E+03 0.  0.
         23    2    1    2    0    0 -0.89494235147E+02 -0.14595294347E+02  0.21765477483E+03  0.25194337125E+03  0.88767226891E+02 0.  0.
        -11    1    4    4    0    0 -0.31725219009E+01  0.23176829256E+02  0.13293531837E+02  0.26906287337E+02  0.00000000000E+00 0. -1.
         11    1    4    4    0    0 -0.86321713246E+02 -0.37772123603E+02  0.20436124299E+03  0.22503708391E+03  0.00000000000E+00 0.  1.
        -11    1    3    3    0    0  0.23176767740E+02  0.24063409560E+02  0.17669500816E+03  0.17982584951E+03  0.00000000000E+00 0. -1.
         11    1    3    3    0    0  0.97530298783E+02  0.61633321576E+01  0.81534463495E+02  0.12727142091E+03  0.00000000000E+00 0.  1.
         21    1    1    2  502  501 -0.31212831376E+02 -0.15631447370E+02 -0.70853932905E+01  0.35620019476E+02  0.00000000000E+00 0.  1.
<scales pt_clust_5="13000.00000" pt_clust_6="13000.00000" pt_clust_7="13000.00000" pt_clust_8="13000.00000" pt_clust_9="34.90821"></scales>
<clustering>
<clus scale="   34.908">  2  9  1 -1</clus>
<clus scale="   88.767">  5  6 -1 -1</clus>
<clus scale="  110.193">  7  8 -1 -1</clus>
<clus scale="  137.116">  1  5  2 -1</clus>
<clus scale="  137.116">  1  5  2 -1</clus>
</clustering>
</event>
<event>
 9    1  0.1748361E-005  0.9695196E+02  0.7546771E-02  0.1289095E+00
          2   -1    0    0  502    0  0.00000000000E+00  0.00000000000E+00  0.10800293072E+03  0.10800293072E+03  0.00000000000E+00 0. -1.
         -2   -1    0    0    0  501 -0.00000000000E+00 -0.00000000000E+00 -0.17719480424E+03  0.17719480424E+03  0.00000000000E+00 0.  1.
         23    2    1    2    0    0  0.11930973781E+02  0.28422316239E+02 -0.10835519555E+03  0.14740293900E+03  0.95061042630E+02 0.  0.
         23    2    1    2    0    0 -0.16628066942E+02 -0.69961792566E+01  0.57583702722E+02  0.10915125472E+03  0.90954243732E+02 0.  0.
        -13    1    4    4    0    0 -0.54127188608E+02  0.14649669732E+01  0.36585655825E+02  0.65348365603E+02  0.00000000000E+00 0. -1.
         13    1    4    4    0    0  0.37499121666E+02 -0.84611462298E+01  0.20998046897E+02  0.43802889114E+02  0.00000000000E+00 0.  1.
        -13    1    3    3    0    0  0.20217975924E+02  0.49444154492E+02 -0.11239972971E+03  0.12444753997E+03  0.00000000000E+00 0.  1.
         13    1    3    3    0    0 -0.82870021433E+01 -0.21021838253E+02  0.40445341619E+01  0.22955399030E+02  0.00000000000E+00 0. -1.
         21    1    1    2  502  501  0.46970931607E+01 -0.21426136982E+02 -0.18420380695E+02  0.28643541246E+02  0.00000000000E+00 0.  1.
<scales pt_clust_5="13000.00000" pt_clust_6="13000.00000" pt_clust_7="13000.00000" pt_clust_8="13000.00000" pt_clust_9="21.93495"></scales>
<clustering>
<clus scale="   21.935">  2  9  1 -1</clus>
<clus scale="   90.954">  5  6 -1 -1</clus>
<clus scale="   92.929">  1  5  2 -1</clus>
<clus scale="   95.061">  7  8 -1 -1</clus>
<clus scale="   92.929">  1  5  2 -1</clus>
</clustering>
</event>
<event>
 9    1  0.1748361E-005  0.9599878E+02  0.7546771E-02  0.1291002E+00
         -2   -1    0    0    0  501 -0.00000000000E+00  0.00000000000E+00  0.22332526414E+02  0.22332526414E+02  0.00000000000E+00 0.  1.
          2   -1    0    0  502    0  0.00000000000E+00 -0.00000000000E+00 -0.53279820846E+03  0.53279820846E+03  0.00000000000E+00 0. -1.
         23    2    1    2    0    0  0.47982003643E+01  0.19211048213E+02 -0.22808151699E+03  0.24642522564E+03  0.91170863429E+02 0.  0.
         23    2    1    2    0    0  0.17834708054E+02 -0.73825311034E+01 -0.24503839247E+03  0.26346317187E+03  0.94849620814E+02 0.  0.
        -11    1    4    4    0    0  0.37708668260E+02 -0.41040694936E+02 -0.11709915478E+03  0.12968613786E+03  0.00000000000E+00 0.  1.
         11    1    4    4    0    0 -0.19873960206E+02  0.33658163832E+02 -0.12793923769E+03  0.13377703401E+03  0.00000000000E+00 0. -1.
        -11    1    3    3    0    0  0.20891909471E+02  0.46964805767E+02 -0.81361612330E+02  0.96238645164E+02  0.00000000000E+00 0. -1.
         11    1    3    3    0    0 -0.16093709107E+02 -0.27753757554E+02 -0.14671990466E+03  0.15018658048E+03  0.00000000000E+00 0.  1.
         21    1    1    2  502  501 -0.22632908419E+02 -0.11828517110E+02 -0.37345772581E+02  0.45242337364E+02  0.00000000000E+00 0. -1.
<scales pt_clust_5="13000.00000" pt_clust_6="13000.00000" pt_clust_7="13000.00000" pt_clust_8="13000.00000" pt_clust_9="25.53747"></scales>
<clustering>
<clus scale="   25.537">  1  9  2 -1</clus>
<clus scale="   91.171">  7  8 -1 -1</clus>
<clus scale="   92.366">  1  7  2 -1</clus>
<clus scale="   94.850">  5  6 -1 -1</clus>
<clus scale="   95.999">  2  5  1 -1</clus>
</clustering>
</event>
<event>
 9    1  0.1748361E-005  0.1622536E+03  0.7546771E-02  0.1209025E+00
         -2   -1    0    0    0  501 -0.00000000000E+00  0.00000000000E+00  0.42859420522E+02  0.42859420522E+02  0.00000000000E+00 0.  1.
          2   -1    0    0  502    0  0.00000000000E+00 -0.00000000000E+00 -0.95783861780E+03  0.95783861780E+03  0.00000000000E+00 0. -1.
         23    2    1    2    0    0  0.36207025762E+02  0.31199611231E+00 -0.15095266366E+03  0.18028725565E+03  0.91682832771E+02 0.  0.
         23    2    1    2    0    0  0.57482899324E+01 -0.13207378616E+03 -0.39602110464E+03  0.42728305078E+03  0.90893136893E+02 0.  0.
        -11    1    4    4    0    0 -0.24794406954E+02 -0.86680130485E+02 -0.32703533433E+03  0.33923490024E+03  0.00000000000E+00 0.  1.
         11    1    4    4    0    0  0.30542696886E+02 -0.45393655679E+02 -0.68985770308E+02  0.88048150542E+02  0.00000000000E+00 0. -1.
        -13    1    3    3    0    0 -0.59848793365E+01  0.25036389171E+02 -0.11927520268E+03  0.12202136509E+03  0.00000000000E+00 0.  1.
         13    1    3    3    0    0  0.42191905099E+02 -0.24724393059E+02 -0.31677460980E+02  0.58265890555E+02  0.00000000000E+00 0. -1.
         21    1    1    2  502  501 -0.41955315695E+02  0.13176179005E+03 -0.36800542898E+03  0.39312773190E+03  0.00000000000E+00 0. -1.
<scales pt_clust_5="13000.00000" pt_clust_6="13000.00000" pt_clust_7="13000.00000" pt_clust_8="13000.00000" pt_clust_9="134.40481"></scales>
<clustering>
<clus scale="   90.893">  5  6 -1 -1</clus>
<clus scale="   91.683">  7  8 -1 -1</clus>
<clus scale="   98.574">  1  7  2 -1</clus>
<clus scale="  134.405">  2  9  1 -1</clus>
<clus scale="  134.405">  2  5  1 -1</clus>
</clustering>
</event>
<event>
 9    1  0.1748361E-005  0.1066684E+03  0.7546771E-02  0.1267037E+00
          1   -1    0    0  502    0  0.00000000000E+00  0.00000000000E+00  0.47299918331E+03  0.47299918331E+03  0.00000000000E+00 0. -1.
         -1   -1    0    0    0  501 -0.00000000000E+00 -0.00000000000E+00 -0.73667533875E+02  0.73667533875E+02  0.00000000000E+00 0.  1.
         23    2    1    2    0    0 -0.10416519723E+02 -0.10358978647E+02  0.11132339863E+03  0.14415756136E+03  0.90402937419E+02 0.  0.
         23    2    1    2    0    0  0.50394651613E+02  0.72188559188E+02  0.30213075690E+03  0.32753854000E+03  0.90816804236E+02 0.  0.
        -13    1    3    3    0    0 -0.41095713191E+02 -0.25986960634E+02  0.93500979814E+02  0.10538791673E+03  0.00000000000E+00 0.  1.
         13    1    3    3    0    0  0.30679193468E+02  0.15627981987E+02  0.17822418813E+02  0.38769644635E+02  0.00000000000E+00 0. -1.
        -13    1    4    4    0    0  0.73398447254E+02  0.34130793370E+02  0.17391355866E+03  0.19182848850E+03  0.00000000000E+00 0. -1.
         13    1    4    4    0    0 -0.23003795641E+02  0.38057765818E+02  0.12821719824E+03  0.13571005150E+03  0.00000000000E+00 0.  1.
         21    1    1    2  502  501 -0.39978131890E+02 -0.61829580541E+02 -0.14122506090E+02  0.74970615827E+02  0.00000000000E+00 0.  1.
<scales pt_clust_5="13000.00000" pt_clust_6="13000.00000" pt_clust_7="13000.00000" pt_clust_8="13000.00000" pt_clust_9="73.62845"></scales>
<clustering>
<clus scale="   73.628">  2  9  1 -1</clus>
<clus scale="   90.403">  5  6 -1 -1</clus>
<clus scale="   90.817">  7  8 -1 -1</clus>
<clus scale="  106.316">  2  5  1 -1</clus>
<clus scale="  106.668">  1  5  2 -1</clus>
</clustering>
</event>
<event>
 9    1  0.1748361E-005  0.9013175E+02  0.7546771E-02  0.1302884E+00
         -1   -1    0    0    0  501 -0.00000000000E+00  0.00000000000E+00  0.10685329881E+03  0.10685329881E+03  0.00000000000E+00 0.  1.
          1   -1    0    0  502    0  0.00000000000E+00 -0.00000000000E+00 -0.16839213421E+03  0.16839213421E+03  0.00000000000E+00 0. -1.
         23    2    1    2    0    0  0.20669827729E+01  0.11224012209E+02  0.25959329924E+02  0.94299686295E+02  0.89934938468E+02 0.  0.
         23    2    1    2    0    0  0.33177179841E+01  0.98468234564E+01 -0.11492356346E+03  0.14594392419E+03  0.89354554356E+02 0.  0.
        -11    1    4    4    0    0 -0.29972414776E+01  0.47912112148E+02 -0.43589897570E+02  0.64843142406E+02  0.00000000000E+00 0. -1.
         11    1    4    4    0    0  0.63149594617E+01 -0.38065288692E+02 -0.71333665890E+02  0.81100781781E+02  0.00000000000E+00 0.  1.
        -11    1    3    3    0    0  0.43671203864E+02  0.64221410978E+01 -0.15916918314E+01  0.44169575797E+02  0.00000000000E+00 0.  1.
         11    1    3    3    0    0 -0.41604221091E+02  0.48018711116E+01  0.27551021756E+02  0.50130110498E+02  0.00000000000E+00 0. -1.
         21    1    1    2  502  501 -0.53847007569E+01 -0.21070835666E+02  0.27425398139E+02  0.35001822538E+02  0.00000000000E+00 0.  1.
<scales pt_clust_5="13000.00000" pt_clust_6="13000.00000" pt_clust_7="13000.00000" pt_clust_8="13000.00000" pt_clust_9="21.74799"></scales>
<clustering>
<clus scale="   21.748">  1  9  2 -1</clus>
<clus scale="   89.355">  5  6 -1 -1</clus>
<clus scale="   89.553">  2  5  1 -1</clus>
<clus scale="   89.935">  7  8 -1 -1</clus>
<clus scale="   89.553">  2  5  1 -1</clus>
</clustering>
</event>
<event>
 9    1  0.1748361E-005  0.1493815E+03  0.7546771E-02  0.1211244E+00
         -2   -1    0    0    0  501 -0.00000000000E+00  0.00000000000E+00  0.83748950671E+02  0.83748950671E+02  0.00000000000E+00 0.  1.
          2   -1    0    0  502    0  0.00000000000E+00 -0.00000000000E+00 -0.57665847724E+03  0.57665847724E+03  0.00000000000E+00 0. -1.
         23    2    1    2    0    0 -0.10702077697E+03 -0.70085089147E+02 -0.70332122042E+02  0.16864680954E+03  0.84437980502E+02 0.  0.
         23    2    1    2    0    0  0.60506941081E+02 -0.52211985461E+02 -0.21225645122E+03  0.24406117391E+03  0.90143630846E+02 0.  0.
        -11    1    3    3    0    0 -0.93390021060E+02 -0.87358326875E+02 -0.71685670431E+02  0.14660153019E+03  0.00000000000E+00 0.  1.
         11    1    3    3    0    0 -0.13630755913E+02  0.17273237728E+02  0.13535483895E+01  0.22045279349E+02  0.00000000000E+00 0. -1.
        -11    1    4    4    0    0  0.67614482347E+02  0.35529678012E-01 -0.12478502389E+03  0.14192611343E+03  0.00000000000E+00 0. -1.
         11    1    4    4    0    0 -0.71075412656E+01 -0.52247515139E+02 -0.87471427332E+02  0.10213506049E+03  0.00000000000E+00 0.  1.
         21    1    1    2  502  501  0.46513835891E+02  0.12229707461E+03 -0.21032095331E+03  0.24769944447E+03  0.00000000000E+00 0. -1.
<scales pt_clust_5="13000.00000" pt_clust_6="13000.00000" pt_clust_7="13000.00000" pt_clust_8="13000.00000" pt_clust_9="123.22764"></scales>
<clustering>
<clus scale="   84.438">  5  6 -1 -1</clus>
<clus scale="   90.144">  7  8 -1 -1</clus>
<clus scale="  120.470">  2  7  1 -1</clus>
<clus scale="  123.228">  2  9  1 -1</clus>
<clus scale="  120.470">  2  5  1 -1</clus>
</clustering>
</event>
<event>
 9    1  0.1748361E-005  0.1007983E+03  0.7546771E-02  0.1279224E+00
          1   -1    0    0  502    0  0.00000000000E+00  0.00000000000E+00  0.55113903915E+02  0.55113903915E+02  0.00000000000E+00 0. -1.
         -1   -1    0    0    0  501 -0.00000000000E+00 -0.00000000000E+00 -0.37578624641E+03  0.37578624641E+03  0.00000000000E+00 0.  1.
         23    2    1    2    0    0 -0.47434204302E+02  0.14392525730E+02 -0.24395858501E+03  0.26536434704E+03  0.91898296752E+02 0.  0.
         23    2    1    2    0    0  0.36498147028E+02  0.35867638740E+01 -0.16112661155E+02  0.10138484788E+03  0.93135868052E+02 0.  0.
        -11    1    3    3    0    0 -0.73649086749E+02  0.21285876951E+02 -0.16655129112E+03  0.18334832726E+03  0.00000000000E+00 0.  1.
         11    1    3    3    0    0  0.26214882448E+02 -0.68933512214E+01 -0.77407293891E+02  0.82016019779E+02  0.00000000000E+00 0. -1.
        -13    1    4    4    0    0  0.48336831085E+00 -0.29137160694E+02  0.24446142138E+02  0.38037108771E+02  0.00000000000E+00 0. -1.
         13    1    4    4    0    0  0.36014778717E+02  0.32723924568E+02 -0.40558803293E+02  0.63347739105E+02  0.00000000000E+00 0.  1.
         21    1    1    2  502  501  0.10936057274E+02 -0.17979289604E+02 -0.60601096331E+02  0.64150955409E+02  0.00000000000E+00 0. -1.
<scales pt_clust_5="13000.00000" pt_clust_6="13000.00000" pt_clust_7="13000.00000" pt_clust_8="13000.00000" pt_clust_9="21.04405"></scales>
<clustering>
<clus scale="   21.044">  2  9  1 -1</clus>
<clus scale="   91.898">  5  6 -1 -1</clus>
<clus scale="   93.136">  7  8 -1 -1</clus>
<clus scale="   99.656">  2  5  1 -1</clus>
<clus scale="  100.798">  1  5  2 -1</clus>
</clustering>
</event>
<event>
 9    1  0.1748361E-005  0.9513316E+02  0.7546771E-02  0.1291016E+00
          2   -1    0    0  502    0  0.00000000000E+00  0.00000000000E+00  0.20433597213E+03  0.20433597213E+03  0.00000000000E+00 0. -1.
         -2   -1    0    0    0  501 -0.00000000000E+00 -0.00000000000E+00 -0.20686775348E+03  0.20686775348E+03  0.00000000000E+00 0.  1.
         23    2    1    2    0    0  0.24991843749E+02  0.23784912713E+02  0.19391882623E+02  0.99169982616E+02  0.90930336047E+02 0.  0.
         23    2    1    2    0    0 -0.26947644351E+02  0.74274686617E+00  0.12836241485E+03  0.15974672212E+03  0.91188697069E+02 0.  0.
        -11    1    4    4    0    0 -0.32840252206E+02  0.39894880020E+02  0.94248276047E+02  0.10748405070E+03  0.00000000000E+00 0.  1.
         11    1    4    4    0    0  0.58926078551E+01 -0.39152133154E+02  0.34114138801E+02  0.52262671420E+02  0.00000000000E+00 0. -1.
        -11    1    3    3    0    0 -0.24370372873E+01  0.50427932772E+02 -0.93354699887E+01  0.51342638755E+02  0.00000000000E+00 0.  1.
         11    1    3    3    0    0  0.27428881036E+02 -0.26643020059E+02  0.28727352612E+02  0.47827343862E+02  0.00000000000E+00 0. -1.
         21    1    1    2  502  501  0.19558006018E+01 -0.24527659579E+02 -0.15028607882E+03  0.15228702087E+03  0.00000000000E+00 0. -1.
<scales pt_clust_5="13000.00000" pt_clust_6="13000.00000" pt_clust_7="13000.00000" pt_clust_8="13000.00000" pt_clust_9="24.60551"></scales>
<clustering>
<clus scale="   24.606">  2  9  1 -1</clus>
<clus scale="   90.930">  7  8 -1 -1</clus>
<clus scale="   91.189">  5  6 -1 -1</clus>
<clus scale="   94.886">  2  7  1 -1</clus>
<clus scale="   95.133">  1  5  2 -1</clus>
</clustering>
</event>
<event>
 9    1  0.1748361E-005  0.2081964E+03  0.7546771E-02  0.1143127E+00
          1   -1    0    0  502    0  0.00000000000E+00  0.00000000000E+00  0.24014703093E+03  0.24014703093E+03  0.00000000000E+00 0. -1.
         -1   -1    0    0    0  501 -0.00000000000E+00 -0.00000000000E+00 -0.34634928988E+03  0.34634928988E+03  0.00000000000E+00 0.  1.
         23    2    1    2    0    0  0.73305089853E+02  0.15214641766E+03 -0.23699722278E+03  0.30554549671E+03  0.93103159707E+02 0.  0.
         23    2    1    2    0    0 -0.87300082382E+02 -0.16850967135E+03  0.14438849719E+03  0.25548712373E+03  0.91699610389E+02 0.  0.
        -11    1    3    3    0    0  0.84034626345E+02  0.11399810621E+03 -0.22168414800E+03  0.26306130107E+03  0.00000000000E+00 0.  1.
         11    1    3    3    0    0 -0.10729536492E+02  0.38148311453E+02 -0.15313074778E+02  0.42484195641E+02  0.00000000000E+00 0. -1.
        -13    1    4    4    0    0 -0.18125933156E+02 -0.58896090627E+02  0.22456526827E+00  0.61622636859E+02  0.00000000000E+00 0.  1.
         13    1    4    4    0    0 -0.69174149226E+02 -0.10961358073E+03  0.14416393193E+03  0.19386448687E+03  0.00000000000E+00 0. -1.
         21    1    1    2  502  501  0.13994992529E+02  0.16363253690E+02 -0.13593533361E+02  0.25463700368E+02  0.00000000000E+00 0.  1.
<scales pt_clust_5="13000.00000" pt_clust_6="13000.00000" pt_clust_7="13000.00000" pt_clust_8="13000.00000" pt_clust_9="21.53174"></scales>
<clustering>
<clus scale="   21.532">  2  9  1 -1</clus>
<clus scale="   91.700">  7  8 -1 -1</clus>
<clus scale="   93.103">  5  6 -1 -1</clus>
<clus scale="  207.573">  1  7  2 -1</clus>
<clus scale="  207.573">  1  5  2 -1</clus>
</clustering>
</event>
<event>
 9    1  0.1748361E-005  0.2103421E+03  0.7546771E-02  0.1141899E+00
          2   -1    0    0  502    0  0.00000000000E+00  0.00000000000E+00  0.16588396825E+04  0.16588396825E+04  0.00000000000E+00 0. -1.
         -2   -1    0    0    0  501 -0.00000000000E+00 -0.00000000000E+00 -0.33385665104E+02  0.33385665104E+02  0.00000000000E+00 0.  1.
         23    2    1    2    0    0  0.20065291129E+03  0.44671743240E+02  0.88112803934E+03  0.90946514378E+03  0.92103586115E+02 0.  0.
         23    2    1    2    0    0 -0.15997794735E+03 -0.47393952660E+02  0.67545431869E+03  0.70272790673E+03  0.98736233828E+02 0.  0.
        -13    1    4    4    0    0 -0.31674566607E+02  0.30278061973E+02  0.14465460489E+03  0.15114560504E+03  0.00000000000E+00 0.  1.
         13    1    4    4    0    0 -0.12830338074E+03 -0.77672014632E+02  0.53079971380E+03  0.55158230169E+03  0.00000000000E+00 0. -1.
        -13    1    3    3    0    0  0.55313098527E+02  0.35684540484E+02  0.14744811820E+03  0.16147406250E+03  0.00000000000E+00 0.  1.
         13    1    3    3    0    0  0.14533981276E+03  0.89872027561E+01  0.73367992114E+03  0.74799108128E+03  0.00000000000E+00 0. -1.
         21    1    1    2  502  501 -0.40674963936E+02  0.27222094195E+01  0.68871659347E+02  0.80032297084E+02  0.00000000000E+00 0.  1.
<scales pt_clust_5="13000.00000" pt_clust_6="13000.00000" pt_clust_7="13000.00000" pt_clust_8="13000.00000" pt_clust_9="40.76596"></scales>
<clustering>
<clus scale="   40.766">  2  9  1 -1</clus>
<clus scale="   92.104">  7  8 -1 -1</clus>
<clus scale="   98.736">  5  6 -1 -1</clus>
<clus scale="  207.311">  2  7  1 -1</clus>
<clus scale="  210.342">  1  5  2 -1</clus>
</clustering>
</event>
<event>
 9    1  0.1748361E-005  0.1062709E+03  0.7546771E-02  0.1267796E+00
         -1   -1    0    0    0  501 -0.00000000000E+00  0.00000000000E+00  0.98907758367E+02  0.98907758367E+02  0.00000000000E+00 0.  1.
          1   -1    0    0  502    0  0.00000000000E+00 -0.00000000000E+00 -0.21523009244E+03  0.21523009244E+03  0.00000000000E+00 0. -1.
         23    2    1    2    0    0  0.33326368842E+02  0.14032931367E+02  0.83264975179E+01  0.97789330565E+02  0.90475701647E+02 0.  0.
         23    2    1    2    0    0 -0.55025782838E+02 -0.27885065107E+02 -0.14614445397E+03  0.18281036350E+03  0.90862610265E+02 0.  0.
        -11    1    4    4    0    0 -0.41226173589E+02 -0.54916313108E+02 -0.13311225414E+03  0.14978074321E+03  0.00000000000E+00 0.  1.
         11    1    4    4    0    0 -0.13799609249E+02  0.27031248000E+02 -0.13032199820E+02  0.33029620283E+02  0.00000000000E+00 0. -1.
        -13    1    3    3    0    0  0.46823235489E+02  0.39385274485E+02 -0.12325277248E+02  0.62414162553E+02  0.00000000000E+00 0. -1.
         13    1    3    3    0    0 -0.13496866647E+02 -0.25352343119E+02  0.20651774765E+02  0.35375168012E+02  0.00000000000E+00 0.  1.
         21    1    1    2  502  501  0.21699413996E+02  0.13852133741E+02  0.21495622371E+02  0.33538156748E+02  0.00000000000E+00 0. -1.
<scales pt_clust_5="13000.00000" pt_clust_6="13000.00000" pt_clust_7="13000.00000" pt_clust_8="13000.00000" pt_clust_9="25.74386"></scales>
<clustering>
<clus scale="   25.744">  1  9  2 -1</clus>
<clus scale="   90.476">  7  8 -1 -1</clus>
<clus scale="   90.863">  5  6 -1 -1</clus>
<clus scale="  105.940">  1  7  2 -1</clus>
<clus scale="  106.271">  2  5  1 -1</clus>
</clustering>
</event>
<event>
 9    1  0.1748361E-005  0.1045541E+03  0.7546771E-02  0.1272467E+00
         -2   -1    0    0    0  501 -0.00000000000E+00  0.00000000000E+00  0.38466806001E+02  0.38466806001E+02  0.00000000000E+00 0.  1.
          2   -1    0    0  502    0  0.00000000000E+00 -0.00000000000E+00 -0.63746831603E+03  0.63746831603E+03  0.00000000000E+00 0. -1.
         23    2    1    2    0    0  0.26560629039E+02 -0.16620959358E+02 -0.15514599671E+03  0.18435333753E+03  0.94520629791E+02 0.  0.
         23    2    1    2    0    0 -0.21363038319E+02  0.47445944714E+02 -0.44790121299E+03  0.46006096032E+03  0.91285779510E+02 0.  0.
        -13    1    3    3    0    0  0.50807454246E+02  0.75966371150E+01 -0.42699873731E+02  0.66801089206E+02  0.00000000000E+00 0.  1.
         13    1    3    3    0    0 -0.24246825207E+02 -0.24217596473E+02 -0.11244612298E+03  0.11755224832E+03  0.00000000000E+00 0. -1.
        -13    1    4    4    0    0 -0.51671875786E+02  0.34444788727E+02 -0.37419310828E+03  0.37931109726E+03  0.00000000000E+00 0. -1.
         13    1    4    4    0    0  0.30308837467E+02  0.13001155986E+02 -0.73708104710E+02  0.80749863068E+02  0.00000000000E+00 0.  1.
         21    1    1    2  502  501 -0.51975907201E+01 -0.30824985356E+02  0.40456996697E+01  0.31520824185E+02  0.00000000000E+00 0.  1.
<scales pt_clust_5="13000.00000" pt_clust_6="13000.00000" pt_clust_7="13000.00000" pt_clust_8="13000.00000" pt_clust_9="31.26011"></scales>
<clustering>
<clus scale="   31.260">  1  9  2 -1</clus>
<clus scale="   91.286">  7  8 -1 -1</clus>
<clus scale="   94.521">  5  6 -1 -1</clus>
<clus scale="  101.639">  2  7  1 -1</clus>
<clus scale="  101.639">  2  5  1 -1</clus>
</clustering>
</event>
<event>
 9    1  0.1748361E-005  0.1294980E+03  0.7546771E-02  0.1228494E+00
          2   -1    0    0  502    0  0.00000000000E+00  0.00000000000E+00  0.57027005854E+02  0.57027005854E+02  0.00000000000E+00 0. -1.
         -2   -1    0    0    0  501 -0.00000000000E+00 -0.00000000000E+00 -0.47470187603E+03  0.47470187603E+03  0.00000000000E+00 0.  1.
         23    2    1    2    0    0  0.10445783118E+03 -0.10860384862E+02 -0.22975991684E+03  0.26884868650E+03  0.91981576365E+02 0.  0.
         23    2    1    2    0    0 -0.85342964835E+02  0.12478062855E+01 -0.69888027591E+02  0.14292964314E+03  0.90882164484E+02 0.  0.
        -11    1    4    4    0    0 -0.81471793143E+02  0.28745930575E+02 -0.24639006108E+02  0.89839090737E+02  0.00000000000E+00 0.  1.
         11    1    4    4    0    0 -0.38711716921E+01 -0.27498124289E+02 -0.45249021483E+02  0.53090552406E+02  0.00000000000E+00 0. -1.
        -13    1    3    3    0    0  0.64890095477E+02  0.29734062664E+02 -0.17918842696E+03  0.19288165110E+03  0.00000000000E+00 0.  1.
         13    1    3    3    0    0  0.39567735706E+02 -0.40594447526E+02 -0.50571489878E+02  0.75967035399E+02  0.00000000000E+00 0. -1.
         21    1    1    2  502  501 -0.19114866349E+02  0.96125785761E+01 -0.11802692574E+03  0.11995055224E+03  0.00000000000E+00 0.  1.
<scales pt_clust_5="13000.00000" pt_clust_6="13000.00000" pt_clust_7="13000.00000" pt_clust_8="13000.00000" pt_clust_9="21.39579"></scales>
<clustering>
<clus scale="   21.396">  2  9  1 -1</clus>
<clus scale="   90.882">  5  6 -1 -1</clus>
<clus scale="   91.982">  7  8 -1 -1</clus>
<clus scale="  128.719">  1  5  2 -1</clus>
<clus scale="  128.719">  1  5  2 -1</clus>
</clustering>
</event>
<event>
 9    1  0.1748361E-005  0.9705818E+02  0.7546771E-02  0.1286874E+00
          2   -1    0    0  502    0  0.00000000000E+00  0.00000000000E+00  0.55215365448E+03  0.55215365448E+03  0.00000000000E+00 0. -1.
         -2   -1    0    0    0  501 -0.00000000000E+00 -0.00000000000E+00 -0.39785780292E+02  0.39785780292E+02  0.00000000000E+00 0.  1.
         23    2    1    2    0    0 -0.38815982973E+02 -0.32036812990E+02  0.99106266736E+02  0.14509076149E+03  0.93253627509E+02 0.  0.
         23    2    1    2    0    0 -0.15273195134E+02  0.25188315828E+02  0.35028209364E+03  0.36354825154E+03  0.92747314411E+02 0.  0.
        -11    1    4    4    0    0  0.34775172760E+02  0.30999461414E+02  0.15311505276E+03  0.16004530180E+03  0.00000000000E+00 0. -1.
         11    1    4    4    0    0 -0.50048367894E+02 -0.58111455859E+01  0.19716704088E+03  0.20350294973E+03  0.00000000000E+00 0.  1.
        -13    1    3    3    0    0 -0.51109440892E+02  0.13337472034E+02  0.27819967890E+02  0.59699361152E+02  0.00000000000E+00 0.  1.
         13    1    3    3    0    0  0.12293457919E+02 -0.45374285024E+02  0.71286298846E+02  0.85391400341E+02  0.00000000000E+00 0. -1.
         21    1    1    2  502  501  0.54089178107E+02  0.68484971622E+01  0.62979513820E+02  0.83300421744E+02  0.00000000000E+00 0. -1.
<scales pt_clust_5="13000.00000" pt_clust_6="13000.00000" pt_clust_7="13000.00000" pt_clust_8="13000.00000" pt_clust_9="54.52102"></scales>
<clustering>
<clus scale="   54.521">  2  9  1 -1</clus>
<clus scale="   92.747">  5  6 -1 -1</clus>
<clus scale="   93.254">  7  8 -1 -1</clus>
<clus scale="   96.572">  1  5  2 -1</clus>
<clus scale="   96.572">  1  5  2 -1</clus>
</clustering>
</event>
<event>
 9    1  0.1748361E-005  0.1077141E+03  0.7546771E-02  0.1265317E+00
          3   -1    0    0  502    0  0.00000000000E+00  0.00000000000E+00  0.67776236979E+02  0.67776236979E+02  0.00000000000E+00 0. -1.
         -3   -1    0    0    0  501 -0.00000000000E+00 -0.00000000000E+00 -0.26428712886E+03  0.26428712886E+03  0.00000000000E+00 0.  1.
         23    2    1    2    0    0  0.13802357586E+02  0.45900564354E+02 -0.91876438885E+02  0.13736960498E+03  0.90176279958E+02 0.  0.
         23    2    1    2    0    0  0.14469937865E+02 -0.69674268342E+02 -0.10706036131E+03  0.15767489105E+03  0.91299329309E+02 0.  0.
        -11    1    3    3    0    0  0.38240272994E+02 -0.66928002898E+01 -0.16295624560E+02  0.42102962297E+02  0.00000000000E+00 0.  1.
         11    1    3    3    0    0 -0.24437915408E+02  0.52593364644E+02 -0.75580814325E+02  0.95266642683E+02  0.00000000000E+00 0. -1.
        -13    1    4    4    0    0  0.29074855327E+02 -0.85204444419E+02 -0.10143742739E+03  0.13562704832E+03  0.00000000000E+00 0.  1.
         13    1    4    4    0    0 -0.14604917462E+02  0.15530176077E+02 -0.56229339222E+01  0.22047842728E+02  0.00000000000E+00 0. -1.
         21    1    1    2  502  501 -0.28272295451E+02  0.23773703988E+02  0.24259083082E+01  0.37018869816E+02  0.00000000000E+00 0.  1.
<scales pt_clust_5="13000.00000" pt_clust_6="13000.00000" pt_clust_7="13000.00000" pt_clust_8="13000.00000" pt_clust_9="36.93930"></scales>
<clustering>
<clus scale="   36.939">  1  9  2 -1</clus>
<clus scale="   90.176">  5  6 -1 -1</clus>
<clus scale="   91.299">  7  8 -1 -1</clus>
<clus scale="  106.764">  2  5  1 -1</clus>
<clus scale="   36.939">  1  5  2 -1</clus>
</clustering>
</event>
<event>
 9    1  0.1748361E-005  0.1380729E+03  0.7546771E-02  0.1217067E+00
          2   -1    0    0  502    0  0.00000000000E+00  0.00000000000E+00  0.26996918287E+03  0.26996918287E+03  0.00000000000E+00 0. -1.
         -2   -1    0    0    0  501 -0.00000000000E+00 -0.00000000000E+00 -0.14229172041E+03  0.14229172041E+03  0.00000000000E+00 0.  1.
         23    2    1    2    0    0 -0.85848787793E+02  0.82997800599E+02  0.65747729833E+02  0.16545679828E+03  0.93779202638E+02 0.  0.
         23    2    1    2    0    0  0.49775071790E+02 -0.77845648885E+02  0.12169576983E+03  0.17680527033E+03  0.88953585648E+02 0.  0.
        -13    1    4    4    0    0  0.50131485518E+02 -0.19606144250E+01  0.64839782630E+02  0.81982969333E+02  0.00000000000E+00 0.  1.
         13    1    4    4    0    0 -0.35641372743E+00 -0.75885034460E+02  0.56855987200E+02  0.94822300997E+02  0.00000000000E+00 0. -1.
        -13    1    3    3    0    0 -0.42540361296E+02  0.58077963375E+02 -0.12052708227E+02  0.72993149984E+02  0.00000000000E+00 0.  1.
         13    1    3    3    0    0 -0.43308426497E+02  0.24919837224E+02  0.77800438060E+02  0.92463648291E+02  0.00000000000E+00 0. -1.
         21    1    1    2  502  501  0.36073716003E+02 -0.51521517140E+01 -0.59766037198E+02  0.69998834675E+02  0.00000000000E+00 0. -1.
<scales pt_clust_5="13000.00000" pt_clust_6="13000.00000" pt_clust_7="13000.00000" pt_clust_8="13000.00000" pt_clust_9="36.43978"></scales>
<clustering>
<clus scale="   36.440">  2  9  1 -1</clus>
<clus scale="   88.954">  5  6 -1 -1</clus>
<clus scale="   93.779">  7  8 -1 -1</clus>
<clus scale="  134.842">  1  5  2 -1</clus>
<clus scale="  134.842">  1  5  2 -1</clus>
</clustering>
</event>
<event>
 9    1  0.1748361E-005  0.1365717E+03  0.7546771E-02  0.1224116E+00
         -1   -1    0    0    0  501 -0.00000000000E+00  0.00000000000E+00  0.18418548459E+03  0.18418548459E+03  0.00000000000E+00 0.  1.
          1   -1    0    0  502    0  0.00000000000E+00 -0.00000000000E+00 -0.14583954467E+03  0.14583954467E+03  0.00000000000E+00 0. -1.
         23    2    1    2    0    0  0.12138598433E+02 -0.93150778664E+02  0.55786556519E+02  0.15436972083E+03  0.10905713037E+03 0.  0.
         23    2    1    2    0    0  0.22103977046E+02  0.76669308198E+02 -0.46988257253E+02  0.12751742405E+03  0.87669997692E+02 0.  0.
        -13    1    3    3    0    0  0.51014173479E+02 -0.39333416034E+02  0.59750291661E+02  0.87861600636E+02  0.00000000000E+00 0.  1.
         13    1    3    3    0    0 -0.38875575047E+02 -0.53817362630E+02 -0.39637351418E+01  0.66508120195E+02  0.00000000000E+00 0. -1.
        -13    1    4    4    0    0  0.49997052891E+02  0.17485514009E+02 -0.17832562124E+02  0.55887823091E+02  0.00000000000E+00 0.  1.
         13    1    4    4    0    0 -0.27893075845E+02  0.59183794189E+02 -0.29155695129E+02  0.71629600956E+02  0.00000000000E+00 0. -1.
         21    1    1    2  502  501 -0.34242575479E+02  0.16481470466E+02  0.29547640650E+02  0.48137884376E+02  0.00000000000E+00 0. -1.
<scales pt_clust_5="13000.00000" pt_clust_6="13000.00000" pt_clust_7="13000.00000" pt_clust_8="13000.00000" pt_clust_9="38.00254"></scales>
<clustering>
<clus scale="   38.003">  1  9  2 -1</clus>
<clus scale="   87.670">  7  8 -1 -1</clus>
<clus scale="  109.057">  5  6 -1 -1</clus>
<clus scale="  120.185">  2  7  1 -1</clus>
<clus scale="  120.185">  2  5  1 -1</clus>
</clustering>
</event>
<event>
 9    1  0.1748361E-005  0.9981224E+02  0.7546771E-02  0.1280979E+00
         -2   -1    0    0    0  501 -0.00000000000E+00  0.00000000000E+00  0.38530027191E+02  0.38530027191E+02  0.00000000000E+00 0.  1.
          2   -1    0    0  502    0  0.00000000000E+00 -0.00000000000E+00 -0.54558570088E+03  0.54558570088E+03  0.00000000000E+00 0. -1.
         23    2    1    2    0    0  0.11618359603E+02 -0.14232484004E+02 -0.99712640598E+02  0.13593542198E+03  0.90544344787E+02 0.  0.
         23    2    1    2    0    0 -0.51840674742E+02 -0.21937848320E+01 -0.38557818047E+03  0.39958642013E+03  0.91140033204E+02 0.  0.
        -11    1    3    3    0    0  0.59576582118E+01  0.36934145773E+02 -0.24240336255E+02  0.44578231426E+02  0.00000000000E+00 0.  1.
         11    1    3    3    0    0  0.56607013908E+01 -0.51166629777E+02 -0.75472304343E+02  0.91357190554E+02  0.00000000000E+00 0. -1.
        -13    1    4    4    0    0 -0.19933876344E+02 -0.45563400226E+02 -0.15399467508E+03  0.16182627357E+03  0.00000000000E+00 0. -1.
         13    1    4    4    0    0 -0.31906798399E+02  0.43369615394E+02 -0.23158350539E+03  0.23776014656E+03  0.00000000000E+00 0.  1.
         21    1    1    2  502  501  0.40222315140E+02  0.16426268836E+02 -0.21764852628E+02  0.48593885963E+02  0.00000000000E+00 0.  1.
<scales pt_clust_5="13000.00000" pt_clust_6="13000.00000" pt_clust_7="13000.00000" pt_clust_8="13000.00000" pt_clust_9="43.44717"></scales>
<clustering>
<clus scale="   43.447">  1  9  2 -1</clus>
<clus scale="   90.544">  5  6 -1 -1</clus>
<clus scale="   91.140">  7  8 -1 -1</clus>
<clus scale="   99.269">  1  5  2 -1</clus>
<clus scale="   99.812">  2  5  1 -1</clus>
</clustering>
</event>
<event>
 9    1  0.1748361E-005  0.1015356E+03  0.7546771E-02  0.1277643E+00
          1   -1    0    0  502    0  0.00000000000E+00  0.00000000000E+00  0.36842007384E+03  0.36842007384E+03  0.00000000000E+00 0. -1.
         -1   -1    0    0    0  501 -0.00000000000E+00 -0.00000000000E+00 -0.74991573768E+02  0.74991573768E+02  0.00000000000E+00 0.  1.
         23    2    1    2    0    0  0.24139828079E+02  0.20392731627E+01 -0.91661680425E+01  0.96725675830E+02  0.93193067303E+02 0.  0.
         23    2    1    2    0    0 -0.40586171624E+02  0.14533861218E+02  0.30658860266E+03  0.32299836927E+03  0.92048383062E+02 0.  0.
        -13    1    3    3    0    0 -0.18630396686E+02  0.22548116361E+02  0.24830511547E+02  0.38367480185E+02  0.00000000000E+00 0. -1.
         13    1    3    3    0    0  0.42770224765E+02 -0.20508843198E+02 -0.33996679589E+02  0.58358195644E+02  0.00000000000E+00 0.  1.
        -13    1    4    4    0    0  0.87369614909E+01 -0.28479746971E+02  0.50057513934E+02  0.58251053080E+02  0.00000000000E+00 0.  1.
         13    1    4    4    0    0 -0.49323133115E+02  0.43013608189E+02  0.25653108872E+03  0.26474731619E+03  0.00000000000E+00 0. -1.
         21    1    1    2  502  501  0.16446343545E+02 -0.16573134381E+02 -0.39939345452E+01  0.23687602503E+02  0.00000000000E+00 0.  1.
<scales pt_clust_5="13000.00000" pt_clust_6="13000.00000" pt_clust_7="13000.00000" pt_clust_8="13000.00000" pt_clust_9="23.34847"></scales>
<clustering>
<clus scale="   23.348">  2  9  1 -1</clus>
<clus scale="   92.048">  7  8 -1 -1</clus>
<clus scale="   93.193">  5  6 -1 -1</clus>
<clus scale="  100.486">  1  7  2 -1</clus>
<clus scale="  100.486">  1  5  2 -1</clus>
</clustering>
</event>
<event>
 9    1  0.1748361E-005  0.1036109E+03  0.7546771E-02  0.1275504E+00
          1   -1    0    0  502    0  0.00000000000E+00  0.00000000000E+00  0.38217430874E+03  0.38217430874E+03  0.00000000000E+00 0. -1.
         -1   -1    0    0    0  501 -0.00000000000E+00 -0.00000000000E+00 -0.59262731088E+02  0.59262731088E+02  0.00000000000E+00 0.  1.
         23    2    1    2    0    0  0.22683684536E+02 -0.43569119826E+02  0.62644989104E+02  0.12544620816E+03  0.96951218323E+02 0.  0.
         23    2    1    2    0    0  0.11223588771E+02  0.34311425774E+02  0.26294775324E+03  0.28074034619E+03  0.91489770811E+02 0.  0.
        -11    1    3    3    0    0 -0.37686529170E+02 -0.15597891152E+02  0.14376343412E+02  0.43246363306E+02  0.00000000000E+00 0. -1.
         11    1    3    3    0    0  0.60370213706E+02 -0.27971228675E+02  0.48268645692E+02  0.82199844851E+02  0.00000000000E+00 0.  1.
        -13    1    4    4    0    0  0.19970868278E+02  0.64103619414E+02  0.17214181472E+03  0.18477260072E+03  0.00000000000E+00 0.  1.
         13    1    4    4    0    0 -0.87472795065E+01 -0.29792193640E+02  0.90805938524E+02  0.95967745477E+02  0.00000000000E+00 0. -1.
         21    1    1    2  502  501 -0.33907273308E+02  0.92576940528E+01 -0.26811646929E+01  0.35250485478E+02  0.00000000000E+00 0.  1.
<scales pt_clust_5="13000.00000" pt_clust_6="13000.00000" pt_clust_7="13000.00000" pt_clust_8="13000.00000" pt_clust_9="35.14837"></scales>
<clustering>
<clus scale="   35.148">  2  9  1 -1</clus>
<clus scale="   91.490">  7  8 -1 -1</clus>
<clus scale="   96.951">  5  6 -1 -1</clus>
<clus scale="   98.519">  1  7  2 -1</clus>
<clus scale="   98.519">  1  5  2 -1</clus>
</clustering>
</event>
<event>
 9    1  0.1748361E-005  0.1049383E+03  0.7546771E-02  0.1271390E+00
         -3   -1    0    0    0  501 -0.00000000000E+00  0.00000000000E+00  0.29054214327E+03  0.29054214327E+03  0.00000000000E+00 0.  1.
          3   -1    0    0  502    0  0.00000000000E+00 -0.00000000000E+00 -0.82915465693E+02  0.82915465693E+02  0.00000000000E+00 0. -1.
         23    2    1    2    0    0  0.62325693340E+02  0.10395207612E+02  0.10501176341E+03  0.15457991153E+03  0.94206826728E+02 0.  0.
         23    2    1    2    0    0  0.37916366001E+01 -0.60029223845E+02  0.47160703555E+02  0.11932767804E+03  0.91635574773E+02 0.  0.
        -11    1    3    3    0    0  0.73948225672E+02 -0.76464089690E+01  0.36566211451E+02  0.82848629862E+02  0.00000000000E+00 0. -1.
         11    1    3    3    0    0 -0.11622532332E+02  0.18041616581E+02  0.68445551957E+02  0.71731281665E+02  0.00000000000E+00 0.  1.
        -13    1    4    4    0    0  0.21807029981E+02  0.12315995051E+02  0.36130098824E+02  0.43961509662E+02  0.00000000000E+00 0.  1.
         13    1    4    4    0    0 -0.18015393381E+02 -0.72345218897E+02  0.11030604731E+02  0.75366168382E+02  0.00000000000E+00 0. -1.
         21    1    1    2  502  501 -0.66117329940E+02  0.49634016233E+02  0.55454210610E+02  0.99550019388E+02  0.00000000000E+00 0.  1.
<scales pt_clust_5="13000.00000" pt_clust_6="13000.00000" pt_clust_7="13000.00000" pt_clust_8="13000.00000" pt_clust_9="82.67428"></scales>
<clustering>
<clus scale="   82.674">  1  9  2 -1</clus>
<clus scale="   91.636">  7  8 -1 -1</clus>
<clus scale="   94.207">  5  6 -1 -1</clus>
<clus scale="  102.636">  2  7  1 -1</clus>
<clus scale="  102.636">  2  5  1 -1</clus>
</clustering>
</event>
<event>
 9    1  0.1748361E-005  0.1190831E+03  0.7546771E-02  0.1247533E+00
          1   -1    0    0  502    0  0.00000000000E+00  0.00000000000E+00  0.31363534898E+03  0.31363534898E+03  0.00000000000E+00 0. -1.
         -1   -1    0    0    0  501 -0.00000000000E+00 -0.00000000000E+00 -0.27286802873E+03  0.27286802873E+03  0.00000000000E+00 0.  1.
         23    2    1    2    0    0  0.77132080052E+02 -0.24522058306E+02  0.17002100412E+02  0.11789216323E+03  0.84016674626E+02 0.  0.
         23    2    1    2    0    0 -0.51866135134E+02  0.53961197608E+02  0.22982088744E+03  0.25893534785E+03  0.92886851836E+02 0.  0.
        -13    1    4    4    0    0 -0.54570486935E+02  0.15645974664E+02  0.51907407365E+02  0.76922776256E+02  0.00000000000E+00 0.  1.
         13    1    4    4    0    0  0.27043518009E+01  0.38315222944E+02  0.17791348007E+03  0.18201257160E+03  0.00000000000E+00 0. -1.
        -13    1    3    3    0    0  0.35944131091E+02  0.30733092092E+02  0.18436928132E+01  0.47327610468E+02  0.00000000000E+00 0. -1.
         13    1    3    3    0    0  0.41187948960E+02 -0.55255150398E+02  0.15158407599E+02  0.70564552759E+02  0.00000000000E+00 0.  1.
         21    1    1    2  502  501 -0.25265944917E+02 -0.29439139302E+02 -0.20605566760E+03  0.20967586663E+03  0.00000000000E+00 0.  1.
<scales pt_clust_5="13000.00000" pt_clust_6="13000.00000" pt_clust_7="13000.00000" pt_clust_8="13000.00000" pt_clust_9="38.79473"></scales>
<clustering>
<clus scale="   38.795">  2  9  1 -1</clus>
<clus scale="   84.017">  7  8 -1 -1</clus>
<clus scale="   92.887">  5  6 -1 -1</clus>
<clus scale="  112.301">  2  7  1 -1</clus>
<clus scale="  119.083">  1  5  2 -1</clus>
</clustering>
</event>
<event>
 9    1  0.1748361E-005  0.1042312E+03  0.7546771E-02  0.1271797E+00
          2   -1    0    0  502    0  0.00000000000E+00  0.00000000000E+00  0.54660735974E+03  0.54660735974E+03  0.00000000000E+00 0. -1.
         -2   -1    0    0    0  501 -0.00000000000E+00 -0.00000000000E+00 -0.46438216637E+02  0.46438216637E+02  0.00000000000E+00 0.  1.
         23    2    1    2    0    0  0.14260975893E+02 -0.52926632335E+02  0.15388164150E+03  0.18740385945E+03  0.91847934680E+02 0.  0.
         23    2    1    2    0    0 -0.44010071108E+02  0.25458594070E+02  0.34950801180E+03  0.36502308231E+03  0.92200726327E+02 0.  0.
        -13    1    3    3    0    0  0.30072527630E+02 -0.73711057077E+02  0.12727792624E+03  0.15012443959E+03  0.00000000000E+00 0.  1.
         13    1    3    3    0    0 -0.15811551737E+02  0.20784424742E+02  0.26603715255E+02  0.37279419866E+02  0.00000000000E+00 0. -1.
        -13    1    4    4    0    0  0.94321050178E+01  0.44152997919E+02  0.20289706844E+03  0.20785974168E+03  0.00000000000E+00 0. -1.
         13    1    4    4    0    0 -0.53442176126E+02 -0.18694403849E+02  0.14661094336E+03  0.15716334063E+03  0.00000000000E+00 0.  1.
         21    1    1    2  502  501  0.29749095215E+02  0.27468038265E+02 -0.32205101902E+01  0.40618634617E+02  0.00000000000E+00 0. -1.
<scales pt_clust_5="13000.00000" pt_clust_6="13000.00000" pt_clust_7="13000.00000" pt_clust_8="13000.00000" pt_clust_9="40.49076"></scales>
<clustering>
<clus scale="   40.491">  2  9  1 -1</clus>
<clus scale="   91.848">  5  6 -1 -1</clus>
<clus scale="   92.201">  7  8 -1 -1</clus>
<clus scale="  103.919">  2  5  1 -1</clus>
<clus scale="  104.231">  1  5  2 -1</clus>
</clustering>
</event>
<event>
 9    1  0.1748361E-005  0.1079858E+03  0.7546771E-02  0.1264971E+00
         -1   -1    0    0    0  501 -0.00000000000E+00  0.00000000000E+00  0.56281623252E+03  0.56281623252E+03  0.00000000000E+00 0.  1.
          1   -1    0    0  502    0  0.00000000000E+00 -0.00000000000E+00 -0.54884424676E+02  0.54884424676E+02  0.00000000000E+00 0. -1.
         23    2    1    2    0    0  0.57972202589E+02 -0.35282880228E+02  0.12354435858E+03  0.16683564902E+03  0.89248346406E+02 0.  0.
         23    2    1    2    0    0 -0.57913381810E+02 -0.99721925653E+01  0.60706674341E+02  0.12403589514E+03  0.90808581955E+02 0.  0.
        -11    1    3    3    0    0  0.62974528076E+02 -0.55783144713E+02  0.11817472131E+03  0.14506141864E+03  0.00000000000E+00 0.  1.
         11    1    3    3    0    0 -0.50023254873E+01  0.20500264485E+02  0.53696372695E+01  0.21774230380E+02  0.00000000000E+00 0. -1.
        -13    1    4    4    0    0 -0.66631115370E+02  0.25498255607E+02  0.35760839509E+02  0.79804161651E+02  0.00000000000E+00 0. -1.
         13    1    4    4    0    0  0.87177335606E+01 -0.35470448173E+02  0.24945834832E+02  0.44231733489E+02  0.00000000000E+00 0.  1.
         21    1    1    2  502  501 -0.58820779409E-01  0.45255072793E+02  0.32368077493E+03  0.32682911304E+03  0.00000000000E+00 0. -1.
<scales pt_clust_5="13000.00000" pt_clust_6="13000.00000" pt_clust_7="13000.00000" pt_clust_8="13000.00000" pt_clust_9="45.25511"></scales>
<clustering>
<clus scale="   45.255">  1  9  2 -1</clus>
<clus scale="   89.248">  5  6 -1 -1</clus>
<clus scale="   90.809">  7  8 -1 -1</clus>
<clus scale="  106.677">  1  5  2 -1</clus>
<clus scale="  107.986">  2  5  1 -1</clus>
</clustering>
</event>
<event>
 9    1  0.1748361E-005  0.1186629E+03  0.7546771E-02  0.1245394E+00
         -1   -1    0    0    0  501 -0.00000000000E+00  0.00000000000E+00  0.75374355098E+02  0.75374355098E+02  0.00000000000E+00 0.  1.
          1   -1    0    0  502    0  0.00000000000E+00 -0.00000000000E+00 -0.45178366767E+03  0.45178366767E+03  0.00000000000E+00 0. -1.
         23    2    1    2    0    0  0.95730121453E+02 -0.39457396322E+01 -0.78047385975E+02  0.15376249798E+03  0.91496919685E+02 0.  0.
         23    2    1    2    0    0 -0.66953122921E+02 -0.25042499647E+02 -0.30996361818E+03  0.33093338979E+03  0.91266732317E+02 0.  0.
        -13    1    4    4    0    0 -0.68176015646E+02  0.12035842184E+02 -0.13103395988E+03  0.14819827681E+03  0.00000000000E+00 0.  1.
         13    1    4    4    0    0  0.12228927246E+01 -0.37078341830E+02 -0.17892965829E+03  0.18273511298E+03  0.00000000000E+00 0. -1.
        -13    1    3    3    0    0  0.93474214008E+02  0.22398207179E+02 -0.33183626465E+02  0.10168707605E+03  0.00000000000E+00 0.  1.
         13    1    3    3    0    0  0.22559074448E+01 -0.26343946811E+02 -0.44863759510E+02  0.52075421932E+02  0.00000000000E+00 0. -1.
         21    1    1    2  502  501 -0.28776998532E+02  0.28988239279E+02  0.11601691582E+02  0.42462134997E+02  0.00000000000E+00 0. -1.
<scales pt_clust_5="13000.00000" pt_clust_6="13000.00000" pt_clust_7="13000.00000" pt_clust_8="13000.00000" pt_clust_9="40.84646"></scales>
<clustering>
<clus scale="   40.846">  1  9  2 -1</clus>
<clus scale="   91.267">  5  6 -1 -1</clus>
<clus scale="   91.497">  7  8 -1 -1</clus>
<clus scale="  118.485">  2  5  1 -1</clus>
<clus scale="  118.485">  2  5  1 -1</clus>
</clustering>
</event>
<event>
 9    1  0.1748361E-005  0.1098422E+03  0.7546771E-02  0.1261052E+00
          1   -1    0    0  502    0  0.00000000000E+00  0.00000000000E+00  0.77896252602E+03  0.77896252602E+03  0.00000000000E+00 0. -1.
         -1   -1    0    0    0  501 -0.00000000000E+00 -0.00000000000E+00 -0.10507976682E+03  0.10507976682E+03  0.00000000000E+00 0.  1.
         23    2    1    2    0    0  0.75911033621E+02 -0.11249026785E+03  0.72536926432E+01  0.16326513492E+03  0.90478410887E+02 0.  0.
         23    2    1    2    0    0 -0.46451656348E+02  0.33906109015E+02  0.61026330861E+03  0.61968104723E+03  0.90972049829E+02 0.  0.
        -11    1    4    4    0    0  0.26700911186E+02  0.18247391653E+02  0.15852519380E+03  0.16179042936E+03  0.00000000000E+00 0. -1.
         11    1    4    4    0    0 -0.73152567533E+02  0.15658717362E+02  0.45173811481E+03  0.45789061787E+03  0.00000000000E+00 0.  1.
        -11    1    3    3    0    0  0.60512768194E+02 -0.39199659870E+02 -0.31802220930E+02  0.78802218906E+02  0.00000000000E+00 0.  1.
         11    1    3    3    0    0  0.15398265427E+02 -0.73290607983E+02  0.39055913574E+02  0.84462916015E+02  0.00000000000E+00 0. -1.
         21    1    1    2  502  501 -0.29459377273E+02  0.78584158838E+02  0.56365757943E+02  0.10109611070E+03  0.00000000000E+00 0. -1.
<scales pt_clust_5="13000.00000" pt_clust_6="13000.00000" pt_clust_7="13000.00000" pt_clust_8="13000.00000" pt_clust_9="83.92452"></scales>
<clustering>
<clus scale="   83.925">  2  9  1 -1</clus>
<clus scale="   90.478">  7  8 -1 -1</clus>
<clus scale="   90.972">  5  6 -1 -1</clus>
<clus scale="  109.434">  2  7  1 -1</clus>
<clus scale="  109.842">  1  5  2 -1</clus>
</clustering>
</event>
<event>
 9    1  0.1748361E-005  0.1287752E+03  0.7546771E-02  0.1230041E+00
          2   -1    0    0  502    0  0.00000000000E+00  0.00000000000E+00  0.54990245077E+03  0.54990245077E+03  0.00000000000E+00 0. -1.
         -2   -1    0    0    0  501 -0.00000000000E+00 -0.00000000000E+00 -0.49645672269E+02  0.49645672269E+02  0.00000000000E+00 0.  1.
         23    2    1    2    0    0 -0.10778378313E+02 -0.74239519814E+02  0.19022741110E+03  0.22280980900E+03  0.88487644956E+02 0.  0.
         23    2    1    2    0    0 -0.47502722208E+02  0.10474073680E+03  0.19343654887E+03  0.24286936227E+03  0.91327422655E+02 0.  0.
        -11    1    3    3    0    0 -0.32795740058E+02 -0.65565885783E+02  0.18440029156E+03  0.19843868946E+03  0.00000000000E+00 0. -1.
         11    1    3    3    0    0  0.22017361745E+02 -0.86736340311E+01  0.58271195352E+01  0.24371119539E+02  0.00000000000E+00 0.  1.
        -13    1    4    4    0    0 -0.19165822166E+02  0.88568438072E+02  0.68097344217E+02  0.11335318810E+03  0.00000000000E+00 0.  1.
         13    1    4    4    0    0 -0.28336900043E+02  0.16172298727E+02  0.12533920466E+03  0.12951617418E+03  0.00000000000E+00 0. -1.
         21    1    1    2  502  501  0.58281100521E+02 -0.30501216985E+02  0.11659281853E+03  0.13386895177E+03  0.00000000000E+00 0. -1.
<scales pt_clust_5="13000.00000" pt_clust_6="13000.00000" pt_clust_7="13000.00000" pt_clust_8="13000.00000" pt_clust_9="65.78002"></scales>
<clustering>
<clus scale="   65.780">  1  9  2 -1</clus>
<clus scale="   88.488">  5  6 -1 -1</clus>
<clus scale="   91.327">  7  8 -1 -1</clus>
<clus scale="  126.777">  2  5  1 -1</clus>
<clus scale="   65.780">  1  5  2 -1</clus>
</clustering>
</event>
<event>
 9    1  0.1748361E-005  0.2945967E+03  0.7546771E-02  0.1088207E+00
         -2   -1    0    0    0  501 -0.00000000000E+00  0.00000000000E+00  0.36318266079E+03  0.36318266079E+03  0.00000000000E+00 0.  1.
          2   -1    0    0  502    0  0.00000000000E+00 -0.00000000000E+00 -0.58901573519E+03  0.58901573519E+03  0.00000000000E+00 0. -1.
         23    2    1    2    0    0 -0.12044242679E+03 -0.15595655662E+03  0.21768293070E+03  0.30707961716E+03  0.89906658440E+02 0.  0.
         23    2    1    2    0    0  0.14008768663E+03  0.25867452304E+03 -0.44327444845E+03  0.54053878452E+03  0.95670643910E+02 0.  0.
        -11    1    4    4    0    0  0.49744342365E+02  0.94117387766E+02 -0.24688970503E+03  0.26886262055E+03  0.00000000000E+00 0. -1.
         11    1    4    4    0    0  0.90343344265E+02  0.16455713527E+03 -0.19638474341E+03  0.27167616397E+03  0.00000000000E+00 0.  1.
        -13    1    3    3    0    0 -0.38010421825E+02 -0.12088693184E+03  0.11968128953E+03  0.17430448508E+03  0.00000000000E+00 0.  1.
         13    1    3    3    0    0 -0.82432004968E+02 -0.35069624778E+02  0.98001641168E+02  0.13277513207E+03  0.00000000000E+00 0. -1.
         21    1    1    2  502  501 -0.19645259838E+02 -0.10271796642E+03 -0.24155665377E+00  0.10457999431E+03  0.00000000000E+00 0. -1.
<scales pt_clust_5="13000.00000" pt_clust_6="13000.00000" pt_clust_7="13000.00000" pt_clust_8="13000.00000" pt_clust_9="104.57972"></scales>
<clustering>
<clus scale="   89.907">  7  8 -1 -1</clus>
<clus scale="   95.671">  5  6 -1 -1</clus>
<clus scale="  104.580">  1  9  2 -1</clus>
<clus scale="  292.776">  1  7  2 -1</clus>
<clus scale="  294.597">  2  5  1 -1</clus>
</clustering>
</event>
<event>
 9    1  0.1748361E-005  0.3096342E+03  0.7546771E-02  0.1080622E+00
         -2   -1    0    0    0  501 -0.00000000000E+00  0.00000000000E+00  0.16985797802E+03  0.16985797802E+03  0.00000000000E+00 0.  1.
          2   -1    0    0  502    0  0.00000000000E+00 -0.00000000000E+00 -0.12442203400E+04  0.12442203400E+04  0.00000000000E+00 0. -1.
         23    2    1    2    0    0 -0.30325416431E+03 -0.82529427567E+02 -0.86421156124E+02  0.33895935328E+03  0.93008775757E+02 0.  0.
         23    2    1    2    0    0  0.27589171299E+03  0.95678568065E+02 -0.99751925105E+03  0.10432859224E+04  0.90167810151E+02 0.  0.
        -13    1    4    4    0    0  0.17808497540E+03  0.10353613422E+03 -0.72221758545E+03  0.75102079218E+03  0.00000000000E+00 0.  1.
         13    1    4    4    0    0  0.97806737581E+02 -0.78575661514E+01 -0.27530166560E+03  0.29226513022E+03  0.00000000000E+00 0. -1.
        -13    1    3    3    0    0 -0.15383772134E+03 -0.65207245860E+02 -0.33345999873E+01  0.16712016328E+03  0.00000000000E+00 0. -1.
         13    1    3    3    0    0 -0.14941644297E+03 -0.17322181708E+02 -0.83086556136E+02  0.17183919000E+03  0.00000000000E+00 0.  1.
         21    1    1    2  502  501  0.27362451322E+02 -0.13149140497E+02  0.95780451511E+01  0.31833042379E+02  0.00000000000E+00 0.  1.
<scales pt_clust_5="13000.00000" pt_clust_6="13000.00000" pt_clust_7="13000.00000" pt_clust_8="13000.00000" pt_clust_9="30.35793"></scales>
<clustering>
<clus scale="   30.358">  1  9  2 -1</clus>
<clus scale="   90.168">  5  6 -1 -1</clus>
<clus scale="   93.009">  7  8 -1 -1</clus>
<clus scale="  308.793">  2  5  1 -1</clus>
<clus scale="  308.793">  2  5  1 -1</clus>
</clustering>
</event>
<event>
 9    1  0.1748361E-005  0.1345835E+03  0.7546771E-02  0.1231547E+00
         -1   -1    0    0    0  501 -0.00000000000E+00  0.00000000000E+00  0.46460241967E+03  0.46460241967E+03  0.00000000000E+00 0.  1.
          1   -1    0    0  502    0  0.00000000000E+00 -0.00000000000E+00 -0.10431412753E+03  0.10431412753E+03  0.00000000000E+00 0. -1.
         23    2    1    2    0    0  0.36255749649E+02  0.30795630159E+02  0.10558597675E+03  0.14667495441E+03  0.90012741014E+02 0.  0.
         23    2    1    2    0    0  0.85874701013E+00 -0.71088880585E+02 -0.20386919861E+02  0.14175073867E+03  0.12092675066E+03 0.  0.
        -11    1    4    4    0    0  0.23236014851E+02 -0.10049402554E+03 -0.18164644061E+02  0.10473259210E+03  0.00000000000E+00 0. -1.
         11    1    4    4    0    0 -0.22377267841E+02  0.29405144953E+02 -0.22222757995E+01  0.37018146570E+02  0.00000000000E+00 0.  1.
        -11    1    3    3    0    0  0.64677125012E+02  0.81833142585E+01  0.73091943117E+02  0.97941458436E+02  0.00000000000E+00 0. -1.
         11    1    3    3    0    0 -0.28421375362E+02  0.22612315901E+02  0.32494033631E+02  0.48733495970E+02  0.00000000000E+00 0.  1.
         21    1    1    2  502  501 -0.37114496659E+02  0.40293250426E+02  0.27508923526E+03  0.28049085412E+03  0.00000000000E+00 0.  1.
<scales pt_clust_5="13000.00000" pt_clust_6="13000.00000" pt_clust_7="13000.00000" pt_clust_8="13000.00000" pt_clust_9="54.78167"></scales>
<clustering>
<clus scale="   54.782">  1  9  2 -1</clus>
<clus scale="   90.013">  7  8 -1 -1</clus>
<clus scale="  107.665">  1  7  2 -1</clus>
<clus scale="  120.927">  5  6 -1 -1</clus>
<clus scale="  134.583">  2  5  1 -1</clus>
</clustering>
</event>
<event>
 9    1  0.1748361E-005  0.1201244E+03  0.7546771E-02  0.1244426E+00
          2   -1    0    0  502    0  0.00000000000E+00  0.00000000000E+00  0.59859497132E+02  0.59859497132E+02  0.00000000000E+00 0. -1.
         -2   -1    0    0    0  501 -0.00000000000E+00 -0.00000000000E+00 -0.32781533354E+03  0.32781533354E+03  0.00000000000E+00 0.  1.
         23    2    1    2    0    0  0.62932621765E+02 -0.55752184919E+02 -0.16600801751E+03  0.20933689702E+03  0.95887713338E+02 0.  0.
         23    2    1    2    0    0 -0.58860633633E+02  0.32616149019E+02 -0.55394331014E+02  0.12619309231E+03  0.91256656034E+02 0.  0.
        -11    1    3    3    0    0  0.84018198785E+02 -0.34533585835E+02 -0.90978651825E+02  0.12856415272E+03  0.00000000000E+00 0.  1.
         11    1    3    3    0    0 -0.21085577020E+02 -0.21218599084E+02 -0.75029365688E+02  0.80772744295E+02  0.00000000000E+00 0. -1.
        -13    1    4    4    0    0  0.32509820081E+01 -0.27049153042E+02 -0.14179311088E+02  0.30712838150E+02  0.00000000000E+00 0. -1.
         13    1    4    4    0    0 -0.62111615642E+02  0.59665302060E+02 -0.41215019926E+02  0.95480254163E+02  0.00000000000E+00 0.  1.
         21    1    1    2  502  501 -0.40719881319E+01  0.23136035900E+02 -0.46553487885E+02  0.52144841344E+02  0.00000000000E+00 0. -1.
<scales pt_clust_5="13000.00000" pt_clust_6="13000.00000" pt_clust_7="13000.00000" pt_clust_8="13000.00000" pt_clust_9="23.49164"></scales>
<clustering>
<clus scale="   23.492">  2  9  1 -1</clus>
<clus scale="   91.257">  7  8 -1 -1</clus>
<clus scale="   95.888">  5  6 -1 -1</clus>
<clus scale="  116.461">  1  7  2 -1</clus>
<clus scale="  116.461">  1  5  2 -1</clus>
</clustering>
</event>
<event>
 9    1  0.2481581E-005  0.1293552E+03  0.7546771E-02  0.1229014E+00
          2   -1    0    0  502    0  0.00000000000E+00  0.00000000000E+00  0.50851987363E+03  0.50851987363E+03  0.00000000000E+00 0. -1.
         -2   -1    0    0    0  501 -0.00000000000E+00 -0.00000000000E+00 -0.80243126559E+02  0.80243126559E+02  0.00000000000E+00 0.  1.
         23    2    1    2    0    0  0.71030326108E+02  0.16222531223E+01  0.55509231656E+01  0.11625619414E+03  0.91851788207E+02 0.  0.
         23    2    1    2    0    0 -0.91923386453E+02  0.32100786792E+01  0.43014709641E+03  0.44981436927E+03  0.94054392079E+02 0.  0.
        -11    1    4    4    0    0  0.17036940895E+02  0.12321731468E+02  0.94341033428E+02  0.96655641375E+02  0.00000000000E+00 0.  1.
         11    1    4    4    0    0 -0.10896032735E+03 -0.91116527890E+01  0.33580606299E+03  0.35315872790E+03  0.00000000000E+00 0. -1.
        -13    1    3    3    0    0  0.91448274388E+02  0.13588611260E+02  0.48584951722E+01  0.92579923417E+02  0.00000000000E+00 0.  1.
         13    1    3    3    0    0 -0.20417948280E+02 -0.11966358137E+02  0.69242799346E+00  0.23676270728E+02  0.00000000000E+00 0. -1.
         21    1    1    2  502  501  0.20893060345E+02 -0.48323318014E+01 -0.74212725043E+01  0.22692436775E+02  0.00000000000E+00 0.  1.
<scales pt_clust_5="13000.00000" pt_clust_6="13000.00000" pt_clust_7="13000.00000" pt_clust_8="13000.00000" pt_clust_9="21.44461"></scales>
<clustering>
<clus scale="   21.445">  2  9  1 -1</clus>
<clus scale="   91.852">  7  8 -1 -1</clus>
<clus scale="   94.054">  5  6 -1 -1</clus>
<clus scale="  127.763">  2  7  1 -1</clus>
<clus scale="  129.355">  1  5  2 -1</clus>
</clustering>
</event>
<event>
 9    1  0.1748361E-005  0.1072844E+03  0.7546771E-02  0.1273021E+00
          3   -1    0    0  502    0  0.00000000000E+00  0.00000000000E+00  0.43693455385E+03  0.43693455385E+03  0.00000000000E+00 0. -1.
         -3   -1    0    0    0  501 -0.00000000000E+00 -0.00000000000E+00 -0.57111393126E+02  0.57111393126E+02  0.00000000000E+00 0.  1.
         23    2    1    2    0    0 -0.32792878092E+01 -0.78215318032E+01  0.52584957513E+02  0.10529565892E+03  0.90829884632E+02 0.  0.
         23    2    1    2    0    0 -0.62329855937E+01 -0.29208755059E+02  0.33258547822E+03  0.35014564014E+03  0.10534167032E+03 0.  0.
        -11    1    3    3    0    0 -0.36316297922E+02 -0.29818364937E+02  0.11932586942E+02  0.48480872655E+02  0.00000000000E+00 0. -1.
         11    1    3    3    0    0  0.33037010113E+02  0.21996833134E+02  0.40652370572E+02  0.56814786264E+02  0.00000000000E+00 0.  1.
        -13    1    4    4    0    0  0.43167742279E+02 -0.31167350700E+02  0.23245598365E+03  0.23847566345E+03  0.00000000000E+00 0. -1.
         13    1    4    4    0    0 -0.49400727872E+02  0.19585956417E+01  0.10012949457E+03  0.11166997669E+03  0.00000000000E+00 0.  1.
         21    1    1    2  502  501  0.95122734029E+01  0.37030286862E+02 -0.53472750138E+01  0.38604647912E+02  0.00000000000E+00 0.  1.
<scales pt_clust_5="13000.00000" pt_clust_6="13000.00000" pt_clust_7="13000.00000" pt_clust_8="13000.00000" pt_clust_9="38.23252"></scales>
<clustering>
<clus scale="   38.233">  2  9  1 -1</clus>
<clus scale="   90.830">  5  6 -1 -1</clus>
<clus scale="   93.076">  2  5  1 -1</clus>
<clus scale="  105.342">  7  8 -1 -1</clus>
<clus scale="  107.284">  1  5  2 -1</clus>
</clustering>
</event>
<event>
 9    1  0.1748361E-005  0.1084805E+03  0.7546771E-02  0.1265002E+00
          1   -1    0    0  502    0  0.00000000000E+00  0.00000000000E+00  0.15980930702E+03  0.15980930702E+03  0.00000000000E+00 0. -1.
         -1   -1    0    0    0  501 -0.00000000000E+00 -0.00000000000E+00 -0.14235675609E+03  0.14235675609E+03  0.00000000000E+00 0.  1.
         23    2    1    2    0    0  0.65770254956E+02 -0.38292881274E+01 -0.77964826962E+02  0.13689645655E+03  0.91223547886E+02 0.  0.
         23    2    1    2    0    0 -0.31290357621E+02  0.13660431218E+02  0.88242099565E+02  0.12870460534E+03  0.87249718847E+02 0.  0.
        -13    1    3    3    0    0  0.55573241945E+02  0.19129515948E+02 -0.91203105714E+02  0.10850036909E+03  0.00000000000E+00 0.  1.
         13    1    3    3    0    0  0.10197013011E+02 -0.22958804075E+02  0.13238278752E+02  0.28396087463E+02  0.00000000000E+00 0. -1.
        -13    1    4    4    0    0  0.14878166999E+02  0.36345079935E+02  0.22610693048E+02  0.45316311950E+02  0.00000000000E+00 0.  1.
         13    1    4    4    0    0 -0.46168524619E+02 -0.22684648717E+02  0.65631406518E+02  0.83388293389E+02  0.00000000000E+00 0. -1.
         21    1    1    2  502  501 -0.34479897336E+02 -0.98311430906E+01  0.71752783321E+01  0.36565001215E+02  0.00000000000E+00 0. -1.
<scales pt_clust_5="13000.00000" pt_clust_6="13000.00000" pt_clust_7="13000.00000" pt_clust_8="13000.00000" pt_clust_9="35.85408"></scales>
<clustering>
<clus scale="   35.854">  1  9  2 -1</clus>
<clus scale="   87.250">  7  8 -1 -1</clus>
<clus scale="   91.224">  5  6 -1 -1</clus>
<clus scale="  105.161">  1  7  2 -1</clus>
<clus scale="   35.854">  1  5  2 -1</clus>
</clustering>
</event>
<event>
 9    1  0.1748361E-005  0.1700442E+03  0.7546771E-02  0.1188677E+00
         -1   -1    0    0    0  501 -0.00000000000E+00  0.00000000000E+00  0.38788359636E+03  0.38788359636E+03  0.00000000000E+00 0.  1.
          1   -1    0    0  502    0  0.00000000000E+00 -0.00000000000E+00 -0.26934556116E+03  0.26934556116E+03  0.00000000000E+00 0. -1.
         23    2    1    2    0    0 -0.12941268907E+03 -0.55519448359E+02  0.39940158776E+02  0.17028648969E+03  0.87018498315E+02 0.  0.
         23    2    1    2    0    0  0.52524499531E+02 -0.80193593357E+02 -0.15599784559E+03  0.20522476608E+03  0.92693264672E+02 0.  0.
        -13    1    4    4    0    0  0.47190976075E+02  0.53051284998E+01 -0.61023757772E+02  0.77324198179E+02  0.00000000000E+00 0.  1.
         13    1    4    4    0    0  0.53335234559E+01 -0.85498721857E+02 -0.94974087822E+02  0.12790056790E+03  0.00000000000E+00 0. -1.
        -13    1    3    3    0    0 -0.29411943697E+02  0.23283433166E+02  0.25869435356E+01  0.37601502215E+02  0.00000000000E+00 0.  1.
         13    1    3    3    0    0 -0.10000074537E+03 -0.78802881525E+02  0.37353215240E+02  0.13268498747E+03  0.00000000000E+00 0. -1.
         21    1    1    2  502  501  0.76888189537E+02  0.13571304172E+03  0.23459572202E+03  0.28171790176E+03  0.00000000000E+00 0.  1.
<scales pt_clust_5="13000.00000" pt_clust_6="13000.00000" pt_clust_7="13000.00000" pt_clust_8="13000.00000" pt_clust_9="146.09180"></scales>
<clustering>
<clus scale="   87.018">  7  8 -1 -1</clus>
<clus scale="   92.693">  5  6 -1 -1</clus>
<clus scale="  133.349">  2  5  1 -1</clus>
<clus scale="  146.092">  1  9  2 -1</clus>
<clus scale="  133.349">  2  5  1 -1</clus>
</clustering>
</event>
<event>
 9    1  0.1748361E-005  0.1025872E+03  0.7546771E-02  0.1277110E+00
         -2   -1    0    0    0  501 -0.00000000000E+00  0.00000000000E+00  0.45909816857E+02  0.45909816857E+02  0.00000000000E+00 0.  1.
          2   -1    0    0  502    0  0.00000000000E+00 -0.00000000000E+00 -0.36924413717E+03  0.36924413717E+03  0.00000000000E+00 0. -1.
         23    2    1    2    0    0  0.51960180827E+02  0.32453598219E+02 -0.80546341464E+02  0.13267715738E+03  0.85804536810E+02 0.  0.
         23    2    1    2    0    0 -0.33032840233E+02  0.10325056973E+02 -0.17611767861E+03  0.20103241995E+03  0.90547345724E+02 0.  0.
        -11    1    4    4    0    0 -0.39436971107E+02  0.43313284371E+02 -0.79588515852E+02  0.98821288944E+02  0.00000000000E+00 0. -1.
         11    1    4    4    0    0  0.64041308739E+01 -0.32988227399E+02 -0.96529162757E+02  0.10221113101E+03  0.00000000000E+00 0.  1.
        -13    1    3    3    0    0 -0.18987013293E+01  0.42436176108E+02 -0.61378301666E+02  0.74644022030E+02  0.00000000000E+00 0. -1.
         13    1    3    3    0    0  0.53858882156E+02 -0.99825778889E+01 -0.19168039799E+02  0.58033135347E+02  0.00000000000E+00 0.  1.
         21    1    1    2  502  501 -0.18927340594E+02 -0.42778655191E+02 -0.66670300245E+02  0.81444376704E+02  0.00000000000E+00 0.  1.
<scales pt_clust_5="13000.00000" pt_clust_6="13000.00000" pt_clust_7="13000.00000" pt_clust_8="13000.00000" pt_clust_9="46.77882"></scales>
<clustering>
<clus scale="   46.779">  2  9  1 -1</clus>
<clus scale="   85.805">  7  8 -1 -1</clus>
<clus scale="   90.547">  5  6 -1 -1</clus>
<clus scale="   98.426">  1  7  2 -1</clus>
<clus scale="   46.779">  2  5  1 -1</clus>
</clustering>
</event>
<event>
 9    1  0.1748361E-005  0.2140182E+03  0.7546771E-02  0.1138523E+00
         -2   -1    0    0    0  501 -0.00000000000E+00  0.00000000000E+00  0.77993270279E+02  0.77993270279E+02  0.00000000000E+00 0.  1.
          2   -1    0    0  502    0  0.00000000000E+00 -0.00000000000E+00 -0.70379130915E+03  0.70379130915E+03  0.00000000000E+00 0. -1.
         23    2    1    2    0    0 -0.79190363620E+02  0.17084759056E+03 -0.26040802344E+03  0.33403033827E+03  0.91125821402E+02 0.  0.
         23    2    1    2    0    0  0.11635078635E+03 -0.16306580051E+03 -0.30450895723E+03  0.37600497968E+03  0.92336769139E+02 0.  0.
        -11    1    4    4    0    0 -0.57943154380E+00 -0.70108234536E+02 -0.80405587137E+02  0.10667970160E+03  0.00000000000E+00 0.  1.
         11    1    4    4    0    0  0.11693021789E+03 -0.92957565969E+02 -0.22410337009E+03  0.26932527808E+03  0.00000000000E+00 0. -1.
        -11    1    3    3    0    0 -0.76100201867E+02  0.11193148623E+03 -0.23189248791E+03  0.26850330404E+03  0.00000000000E+00 0.  1.
         11    1    3    3    0    0 -0.30901617530E+01  0.58916104321E+02 -0.28515535530E+02  0.65527034227E+02  0.00000000000E+00 0. -1.
         21    1    1    2  502  501 -0.37160422731E+02 -0.77817900500E+01 -0.60881058208E+02  0.71749261477E+02  0.00000000000E+00 0. -1.
<scales pt_clust_5="13000.00000" pt_clust_6="13000.00000" pt_clust_7="13000.00000" pt_clust_8="13000.00000" pt_clust_9="37.96648"></scales>
<clustering>
<clus scale="   37.966">  2  9  1 -1</clus>
<clus scale="   91.126">  7  8 -1 -1</clus>
<clus scale="   92.337">  5  6 -1 -1</clus>
<clus scale="  213.498">  1  7  2 -1</clus>
<clus scale="   37.966">  2  5  1 -1</clus>
</clustering>
</event>
<event>
 9    1  0.1748361E-005  0.9468328E+02  0.7546771E-02  0.1292420E+00
          3   -1    0    0  502    0  0.00000000000E+00  0.00000000000E+00  0.25715769125E+03  0.25715769125E+03  0.00000000000E+00 0. -1.
         -3   -1    0    0    0  501 -0.00000000000E+00 -0.00000000000E+00 -0.74468411823E+02  0.74468411823E+02  0.00000000000E+00 0.  1.
         23    2    1    2    0    0 -0.34609639538E+02 -0.20223478941E+02  0.39269368976E+01  0.99678578490E+02  0.91178845830E+02 0.  0.
         23    2    1    2    0    0 -0.46741846596E+01  0.21871467559E+02  0.16498104777E+03  0.19028388581E+03  0.92135780143E+02 0.  0.
        -11    1    3    3    0    0  0.96865871867E+01  0.29118011429E+02  0.11857378420E+02  0.32898115203E+02  0.00000000000E+00 0. -1.
         11    1    3    3    0    0 -0.44296226725E+02 -0.49341490371E+02 -0.79304415220E+01  0.66780463287E+02  0.00000000000E+00 0.  1.
        -13    1    4    4    0    0 -0.18162159172E+02 -0.26270805660E+02  0.11591099528E+03  0.12023052060E+03  0.00000000000E+00 0. -1.
         13    1    4    4    0    0  0.13487974513E+02  0.48142273219E+02  0.49070052484E+02  0.70053365215E+02  0.00000000000E+00 0.  1.
         21    1    1    2  502  501  0.39283824198E+02 -0.16479886176E+01  0.13781294760E+02  0.41663638768E+02  0.00000000000E+00 0.  1.
<scales pt_clust_5="13000.00000" pt_clust_6="13000.00000" pt_clust_7="13000.00000" pt_clust_8="13000.00000" pt_clust_9="39.31838"></scales>
<clustering>
<clus scale="   39.318">  2  9  1 -1</clus>
<clus scale="   91.179">  5  6 -1 -1</clus>
<clus scale="   92.136">  7  8 -1 -1</clus>
<clus scale="   93.752">  2  5  1 -1</clus>
<clus scale="   94.683">  1  5  2 -1</clus>
</clustering>
</event>
<event>
 9    1  0.1748361E-005  0.1224273E+03  0.7546771E-02  0.1239556E+00
          2   -1    0    0  502    0  0.00000000000E+00  0.00000000000E+00  0.39212510014E+03  0.39212510014E+03  0.00000000000E+00 0. -1.
         -2   -1    0    0    0  501 -0.00000000000E+00 -0.00000000000E+00 -0.70666713820E+02  0.70666713820E+02  0.00000000000E+00 0.  1.
         23    2    1    2    0    0  0.50925454276E+01 -0.93033054773E+02  0.11429787020E+03  0.17452191918E+03  0.93342454663E+02 0.  0.
         23    2    1    2    0    0 -0.81978715780E+01  0.72259650275E+02  0.22942522973E+03  0.25766115654E+03  0.92003659698E+02 0.  0.
        -11    1    4    4    0    0 -0.46959038796E+02  0.35773349185E+02  0.15734946782E+03  0.16805873634E+03  0.00000000000E+00 0. -1.
         11    1    4    4    0    0  0.38761167218E+02  0.36486301089E+02  0.72075761908E+02  0.89602420201E+02  0.00000000000E+00 0.  1.
        -13    1    3    3    0    0  0.19489177543E+02 -0.28683221428E+02 -0.79918818750E+01  0.35586871297E+02  0.00000000000E+00 0.  1.
         13    1    3    3    0    0 -0.14396632116E+02 -0.64349833345E+02  0.12228975207E+03  0.13893504788E+03  0.00000000000E+00 0. -1.
         21    1    1    2  502  501  0.31053261504E+01  0.20773404498E+02 -0.22264713605E+02  0.30608738243E+02  0.00000000000E+00 0.  1.
<scales pt_clust_5="13000.00000" pt_clust_6="13000.00000" pt_clust_7="13000.00000" pt_clust_8="13000.00000" pt_clust_9="21.00422"></scales>
<clustering>
<clus scale="   21.004">  2  9  1 -1</clus>
<clus scale="   92.004">  5  6 -1 -1</clus>
<clus scale="   93.342">  7  8 -1 -1</clus>
<clus scale="  121.410">  1  5  2 -1</clus>
<clus scale="  121.410">  1  5  2 -1</clus>
</clustering>
</event>
<event>
 9    1  0.1748361E-005  0.1355604E+03  0.7546771E-02  0.1219715E+00
         -1   -1    0    0    0  501 -0.00000000000E+00  0.00000000000E+00  0.31664203073E+03  0.31664203073E+03  0.00000000000E+00 0.  1.
          1   -1    0    0  502    0  0.00000000000E+00 -0.00000000000E+00 -0.74593892542E+02  0.74593892542E+02  0.00000000000E+00 0. -1.
         23    2    1    2    0    0  0.85084145787E+02  0.36396910002E+02  0.14948983818E+03  0.19797669916E+03  0.91013816378E+02 0.  0.
         23    2    1    2    0    0 -0.10236704437E+03 -0.25466728498E+02  0.52257765820E+02  0.14806740508E+03  0.89808219699E+02 0.  0.
        -11    1    3    3    0    0 -0.50374101453E+01 -0.21834926177E+02  0.28710981895E+02  0.36420598340E+02  0.00000000000E+00 0. -1.
         11    1    3    3    0    0  0.90121555932E+02  0.58231836179E+02  0.12077885628E+03  0.16155610082E+03  0.00000000000E+00 0.  1.
        -13    1    4    4    0    0 -0.13938397469E+01  0.24830194759E+02  0.16022483184E+02  0.29583801791E+02  0.00000000000E+00 0.  1.
         13    1    4    4    0    0 -0.10097320462E+03 -0.50296923257E+02  0.36235282636E+02  0.11848360329E+03  0.00000000000E+00 0. -1.
         21    1    1    2  502  501  0.17282898580E+02 -0.10930181504E+02  0.40300534188E+02  0.45191819026E+02  0.00000000000E+00 0.  1.
<scales pt_clust_5="13000.00000" pt_clust_6="13000.00000" pt_clust_7="13000.00000" pt_clust_8="13000.00000" pt_clust_9="20.44914"></scales>
<clustering>
<clus scale="   20.449">  1  9  2 -1</clus>
<clus scale="   89.808">  7  8 -1 -1</clus>
<clus scale="   91.014">  5  6 -1 -1</clus>
<clus scale="  134.754">  2  7  1 -1</clus>
<clus scale="  134.754">  2  5  1 -1</clus>
</clustering>
</event>
<event>
 9    1  0.1748361E-005  0.2278460E+03  0.7546771E-02  0.1128244E+00
         -2   -1    0    0    0  501 -0.00000000000E+00  0.00000000000E+00  0.11018427001E+03  0.11018427001E+03  0.00000000000E+00 0. -1.
          2   -1    0    0  502    0  0.00000000000E+00 -0.00000000000E+00 -0.10592015982E+04  0.10592015982E+04  0.00000000000E+00 0.  1.
         23    2    1    2    0    0 -0.13369046334E+03  0.10728003372E+03 -0.46402797097E+02  0.20008754650E+03  0.92193606421E+02 0.  0.
         23    2    1    2    0    0  0.19562757979E+03 -0.93275048651E+02 -0.86301395052E+03  0.89446148598E+03  0.91092735295E+02 0.  0.
        -11    1    3    3    0    0 -0.99393184058E+02  0.22226929003E+02 -0.34896759543E+02  0.10766069495E+03  0.00000000000E+00 0.  1.
         11    1    3    3    0    0 -0.34297279279E+02  0.85053104719E+02 -0.11506037554E+02  0.92426851556E+02  0.00000000000E+00 0. -1.
        -13    1    4    4    0    0  0.17266557637E+03 -0.11006001251E+03 -0.71510312587E+03  0.74384076807E+03  0.00000000000E+00 0.  1.
         13    1    4    4    0    0  0.22962003419E+02  0.16784963858E+02 -0.14791082465E+03  0.15062071790E+03  0.00000000000E+00 0. -1.
         21    1    1    2  502  501 -0.61937116452E+02 -0.14004985071E+02 -0.39600580573E+02  0.74836835736E+02  0.00000000000E+00 0.  1.
<scales pt_clust_5="13000.00000" pt_clust_6="13000.00000" pt_clust_7="13000.00000" pt_clust_8="13000.00000" pt_clust_9="63.50076"></scales>
<clustering>
<clus scale="   63.501">  1  9  2 -1</clus>
<clus scale="   91.093">  7  8 -1 -1</clus>
<clus scale="   92.194">  5  6 -1 -1</clus>
<clus scale="  227.403">  2  7  1 -1</clus>
<clus scale="  227.403">  2  5  1 -1</clus>
</clustering>
</event>
<event>
 9    1  0.1748361E-005  0.1049753E+03  0.7546771E-02  0.1271253E+00
         -2   -1    0    0    0  501 -0.00000000000E+00  0.00000000000E+00  0.32266136688E+02  0.32266136688E+02  0.00000000000E+00 0.  1.
          2   -1    0    0  502    0  0.00000000000E+00 -0.00000000000E+00 -0.51622153589E+03  0.51622153589E+03  0.00000000000E+00 0. -1.
         23    2    1    2    0    0 -0.16862080535E+01  0.52929680617E+02 -0.13273632195E+03  0.16891914294E+03  0.90057488859E+02 0.  0.
         23    2    1    2    0    0  0.24282639257E+02 -0.43557597409E+02 -0.33263025499E+03  0.34884428904E+03  0.92533997019E+02 0.  0.
        -11    1    3    3    0    0 -0.45592202315E+02  0.32222685142E+02 -0.74678416960E+02  0.93240636577E+02  0.00000000000E+00 0.  1.
         11    1    3    3    0    0  0.43905994262E+02  0.20706995474E+02 -0.58057904991E+02  0.75678506365E+02  0.00000000000E+00 0. -1.
        -13    1    4    4    0    0 -0.33625893739E+02 -0.30282369883E+01 -0.12670672145E+03  0.13112766379E+03  0.00000000000E+00 0.  1.
         13    1    4    4    0    0  0.57908532996E+02 -0.40529360420E+02 -0.20592353353E+03  0.21771662526E+03  0.00000000000E+00 0. -1.
         21    1    1    2  502  501 -0.22596431204E+02 -0.93720832079E+01 -0.18588822264E+02  0.30724240592E+02  0.00000000000E+00 0.  1.
<scales pt_clust_5="13000.00000" pt_clust_6="13000.00000" pt_clust_7="13000.00000" pt_clust_8="13000.00000" pt_clust_9="24.46292"></scales>
<clustering>
<clus scale="   24.463">  1  9  2 -1</clus>
<clus scale="   90.057">  5  6 -1 -1</clus>
<clus scale="   92.534">  7  8 -1 -1</clus>
<clus scale="  102.799">  1  5  2 -1</clus>
<clus scale="  104.975">  2  5  1 -1</clus>
</clustering>
</event>
<event>
 9    1  0.1748361E-005  0.1415669E+03  0.7546771E-02  0.1211625E+00
          3   -1    0    0  502    0  0.00000000000E+00  0.00000000000E+00  0.17719524890E+03  0.17719524890E+03  0.00000000000E+00 0. -1.
         -3   -1    0    0    0  501 -0.00000000000E+00 -0.00000000000E+00 -0.15102246476E+03  0.15102246476E+03  0.00000000000E+00 0.  1.
         23    2    1    2    0    0  0.19684201062E+02  0.93162719167E+02 -0.27266664397E+02  0.13509914861E+03  0.91877902426E+02 0.  0.
         23    2    1    2    0    0 -0.13060293992E+02 -0.11402144010E+03  0.73563143158E+02  0.16338768095E+03  0.90069629595E+02 0.  0.
        -13    1    4    4    0    0  0.27619763963E+02 -0.31779308274E+01  0.14967415739E+02  0.31574897302E+02  0.00000000000E+00 0.  1.
         13    1    4    4    0    0 -0.40680057955E+02 -0.11084350927E+03  0.58595727419E+02  0.13181278365E+03  0.00000000000E+00 0. -1.
        -13    1    3    3    0    0  0.46757210009E+02  0.17978180365E+02  0.16397267044E+01  0.50121256576E+02  0.00000000000E+00 0. -1.
         13    1    3    3    0    0 -0.27073008947E+02  0.75184538802E+02 -0.28906391101E+02  0.84977892035E+02  0.00000000000E+00 0.  1.
         21    1    1    2  502  501 -0.66239070703E+01  0.20858720928E+02 -0.20123694619E+02  0.29730884090E+02  0.00000000000E+00 0.  1.
<scales pt_clust_5="13000.00000" pt_clust_6="13000.00000" pt_clust_7="13000.00000" pt_clust_8="13000.00000" pt_clust_9="21.88521"></scales>
<clustering>
<clus scale="   21.885">  2  9  1 -1</clus>
<clus scale="   90.070">  5  6 -1 -1</clus>
<clus scale="   91.878">  7  8 -1 -1</clus>
<clus scale="  140.400">  1  5  2 -1</clus>
<clus scale="  140.400">  1  5  2 -1</clus>
</clustering>
</event>
<event>
 9    1  0.1748361E-005  0.9705306E+02  0.7546771E-02  0.1286681E+00
         -3   -1    0    0    0  501 -0.00000000000E+00  0.00000000000E+00  0.57647328934E+02  0.57647328934E+02  0.00000000000E+00 0.  1.
          3   -1    0    0  502    0  0.00000000000E+00 -0.00000000000E+00 -0.27852786604E+03  0.27852786604E+03  0.00000000000E+00 0. -1.
         23    2    1    2    0    0  0.97825443026E+00  0.58515745150E+02 -0.76037325295E+02  0.13265078715E+03  0.91594252449E+02 0.  0.
         23    2    1    2    0    0  0.89841492647E+01 -0.16934573558E+02 -0.12580153081E+03  0.15671811622E+03  0.91471569781E+02 0.  0.
        -11    1    4    4    0    0  0.36100583090E+02 -0.41480301554E+02 -0.59658253699E+02  0.81135533220E+02  0.00000000000E+00 0. -1.
         11    1    4    4    0    0 -0.27116433825E+02  0.24545727996E+02 -0.66143277107E+02  0.75582582999E+02  0.00000000000E+00 0.  1.
        -13    1    3    3    0    0  0.44447527842E+02  0.36122752285E+02 -0.26719504584E+02  0.63201011773E+02  0.00000000000E+00 0.  1.
         13    1    3    3    0    0 -0.43469273412E+02  0.22392992865E+02 -0.49317820710E+02  0.69449775378E+02  0.00000000000E+00 0. -1.
         21    1    1    2  502  501 -0.99624036950E+01 -0.41581171592E+02 -0.19041681006E+02  0.46806291606E+02  0.00000000000E+00 0.  1.
<scales pt_clust_5="13000.00000" pt_clust_6="13000.00000" pt_clust_7="13000.00000" pt_clust_8="13000.00000" pt_clust_9="42.75796"></scales>
<clustering>
<clus scale="   42.758">  1  9  2 -1</clus>
<clus scale="   91.472">  5  6 -1 -1</clus>
<clus scale="   91.594">  7  8 -1 -1</clus>
<clus scale="   96.937">  2  5  1 -1</clus>
<clus scale="   96.937">  2  5  1 -1</clus>
</clustering>
</event>
<event>
 9    1  0.1748361E-005  0.1953682E+03  0.7546771E-02  0.1154202E+00
         -2   -1    0    0    0  501 -0.00000000000E+00  0.00000000000E+00  0.55995152658E+03  0.55995152658E+03  0.00000000000E+00 0.  1.
          2   -1    0    0  502    0  0.00000000000E+00 -0.00000000000E+00 -0.26007635175E+03  0.26007635175E+03  0.00000000000E+00 0. -1.
         23    2    1    2    0    0  0.76553340033E+02 -0.21880722402E+03  0.12337095446E+02  0.25084349844E+03  0.95043367110E+02 0.  0.
         23    2    1    2    0    0 -0.12994269870E+03  0.84594572087E+02 -0.62907248529E+02  0.19013901661E+03  0.90300482557E+02 0.  0.
        -11    1    3    3    0    0  0.72342365479E+02 -0.74370169923E+02 -0.11519778983E+02  0.10438891380E+03  0.00000000000E+00 0. -1.
         11    1    3    3    0    0  0.42109745542E+01 -0.14443705410E+03  0.23856874429E+02  0.14645458464E+03  0.00000000000E+00 0.  1.
        -13    1    4    4    0    0 -0.82607372182E+02  0.10325073075E+02 -0.23989436109E+01  0.83284692491E+02  0.00000000000E+00 0. -1.
         13    1    4    4    0    0 -0.47335326516E+02  0.74269499012E+02 -0.60508304918E+02  0.10685432412E+03  0.00000000000E+00 0.  1.
         21    1    1    2  502  501  0.53389358665E+02  0.13421265194E+03  0.35044532792E+03  0.37904536327E+03  0.00000000000E+00 0.  1.
<scales pt_clust_5="13000.00000" pt_clust_6="13000.00000" pt_clust_7="13000.00000" pt_clust_8="13000.00000" pt_clust_9="144.44189"></scales>
<clustering>
<clus scale="   90.300">  7  8 -1 -1</clus>
<clus scale="   95.043">  5  6 -1 -1</clus>
<clus scale="  144.442">  1  9  2 -1</clus>
<clus scale="  193.105">  2  7  1 -1</clus>
<clus scale="  193.105">  2  5  1 -1</clus>
</clustering>
</event>
<event>
 9    1  0.1748361E-005  0.9644348E+02  0.7546771E-02  0.1290318E+00
         -1   -1    0    0    0  501 -0.00000000000E+00  0.00000000000E+00  0.13105695065E+03  0.13105695065E+03  0.00000000000E+00 0.  1.
          1   -1    0    0  502    0  0.00000000000E+00 -0.00000000000E+00 -0.12417784766E+03  0.12417784766E+03  0.00000000000E+00 0. -1.
         23    2    1    2    0    0  0.34825554084E+02  0.87130199299E+01  0.65974616079E+02  0.11540870364E+03  0.87622959175E+02 0.  0.
         23    2    1    2    0    0 -0.26582298405E+02  0.95214347908E+01 -0.68080644596E+02  0.11789029765E+03  0.92010172280E+02 0.  0.
        -13    1    3    3    0    0 -0.28069774171E+02  0.14179149683E+02  0.24601224528E+02  0.39927193190E+02  0.00000000000E+00 0. -1.
         13    1    3    3    0    0  0.62895328255E+02 -0.54661297532E+01  0.41373391551E+02  0.75481510446E+02  0.00000000000E+00 0.  1.
        -13    1    4    4    0    0 -0.43670961560E+02 -0.59352425748E+01  0.20010477309E+01  0.44117844236E+02  0.00000000000E+00 0.  1.
         13    1    4    4    0    0  0.17088663155E+02  0.15456677366E+02 -0.70081692327E+02  0.73772453416E+02  0.00000000000E+00 0. -1.
         21    1    1    2  502  501 -0.82432556785E+01 -0.18234454721E+02  0.89851315054E+01  0.21935797029E+02  0.00000000000E+00 0. -1.
<scales pt_clust_5="13000.00000" pt_clust_6="13000.00000" pt_clust_7="13000.00000" pt_clust_8="13000.00000" pt_clust_9="20.01116"></scales>
<clustering>
<clus scale="   20.011">  1  9  2 -1</clus>
<clus scale="   87.623">  5  6 -1 -1</clus>
<clus scale="   92.010">  7  8 -1 -1</clus>
<clus scale="   92.267">  1  5  2 -1</clus>
<clus scale="   96.443">  2  5  1 -1</clus>
</clustering>
</event>
<event>
 9    1  0.1748361E-005  0.1195090E+03  0.7546771E-02  0.1244322E+00
          1   -1    0    0  502    0  0.00000000000E+00  0.00000000000E+00  0.23248220298E+03  0.23248220298E+03  0.00000000000E+00 0. -1.
         -1   -1    0    0    0  501 -0.00000000000E+00 -0.00000000000E+00 -0.12283378015E+03  0.12283378015E+03  0.00000000000E+00 0.  1.
         23    2    1    2    0    0  0.59207674355E+02 -0.36477110604E+02  0.69699678892E+02  0.13483068089E+03  0.92114814071E+02 0.  0.
         23    2    1    2    0    0 -0.60093955289E+02  0.57057291429E+02  0.99058553492E+02  0.15788898508E+03  0.90826849673E+02 0.  0.
        -13    1    4    4    0    0 -0.54977392112E+02  0.35712643363E+02  0.10184701484E+02  0.66344816556E+02  0.00000000000E+00 0.  1.
         13    1    4    4    0    0 -0.51165631761E+01  0.21344648066E+02  0.88873852008E+02  0.91544168522E+02  0.00000000000E+00 0. -1.
        -13    1    3    3    0    0 -0.23192467622E+02  0.32445956852E+01  0.19580938320E+02  0.30525908686E+02  0.00000000000E+00 0.  1.
         13    1    3    3    0    0  0.82400141977E+02 -0.39721706290E+02  0.50118740572E+02  0.10430477221E+03  0.00000000000E+00 0. -1.
         21    1    1    2  502  501  0.88628093352E+00 -0.20580180824E+02 -0.59109809551E+02  0.62596317158E+02  0.00000000000E+00 0.  1.
<scales pt_clust_5="13000.00000" pt_clust_6="13000.00000" pt_clust_7="13000.00000" pt_clust_8="13000.00000" pt_clust_9="20.59926"></scales>
<clustering>
<clus scale="   20.599">  2  9  1 -1</clus>
<clus scale="   90.827">  5  6 -1 -1</clus>
<clus scale="   92.115">  7  8 -1 -1</clus>
<clus scale="  118.519">  1  5  2 -1</clus>
<clus scale="  118.519">  1  5  2 -1</clus>
</clustering>
</event>
<event>
 9    1  0.1748361E-005  0.1959421E+03  0.7546771E-02  0.1176238E+00
          1   -1    0    0  502    0  0.00000000000E+00  0.00000000000E+00  0.12598346426E+03  0.12598346426E+03  0.00000000000E+00 0. -1.
         -1   -1    0    0    0  501 -0.00000000000E+00 -0.00000000000E+00 -0.62056330370E+03  0.62056330370E+03  0.00000000000E+00 0.  1.
         23    2    1    2    0    0  0.52357784006E+01  0.19944991877E+03 -0.42112331503E+03  0.47634848068E+03  0.98769150598E+02 0.  0.
         23    2    1    2    0    0  0.79330495789E+01 -0.69799682745E+02  0.98066771137E+01  0.11555236118E+03  0.91220876296E+02 0.  0.
        -11    1    3    3    0    0  0.43198536044E+02  0.60675086677E+02 -0.19031089125E+03  0.20436686372E+03  0.00000000000E+00 0.  1.
         11    1    3    3    0    0 -0.37962757644E+02  0.13877483209E+03 -0.23081242378E+03  0.27198161696E+03  0.00000000000E+00 0. -1.
        -13    1    4    4    0    0 -0.14700603792E+02 -0.59196608120E+02  0.42542726110E+02  0.74365514250E+02  0.00000000000E+00 0.  1.
         13    1    4    4    0    0  0.22633653371E+02 -0.10603074625E+02 -0.32736048996E+02  0.41186846933E+02  0.00000000000E+00 0. -1.
         21    1    1    2  502  501 -0.13168827979E+02 -0.12965023603E+03 -0.83263201521E+02  0.15464592610E+03  0.00000000000E+00 0. -1.
<scales pt_clust_5="13000.00000" pt_clust_6="13000.00000" pt_clust_7="13000.00000" pt_clust_8="13000.00000" pt_clust_9="169.22754"></scales>
<clustering>
<clus scale="   91.221">  7  8 -1 -1</clus>
<clus scale="   98.769">  5  6 -1 -1</clus>
<clus scale="  115.135">  1  7  2 -1</clus>
<clus scale="  169.228">  1  9  2 -1</clus>
<clus scale="  115.135">  1  5  2 -1</clus>
</clustering>
</event>
<event>
 9    1  0.1835104E-005  0.1479210E+03  0.7546771E-02  0.1203393E+00
         -1   -1    0    0    0  501 -0.00000000000E+00  0.00000000000E+00  0.81395759303E+02  0.81395759303E+02  0.00000000000E+00 0.  1.
          1   -1    0    0  502    0  0.00000000000E+00 -0.00000000000E+00 -0.68210490121E+03  0.68210490121E+03  0.00000000000E+00 0. -1.
         23    2    1    2    0    0 -0.13472575003E+03  0.72048774469E+01 -0.44761257469E+02  0.16852856326E+03  0.90528274508E+02 0.  0.
         23    2    1    2    0    0  0.11265871040E+03  0.34335619253E+01 -0.55106362206E+03  0.56999237249E+03  0.92284423198E+02 0.  0.
        -11    1    3    3    0    0 -0.90673647325E+02  0.41415634862E+02 -0.45858938097E+01  0.99789756750E+02  0.00000000000E+00 0.  1.
         11    1    3    3    0    0 -0.44052102704E+02 -0.34210757415E+02 -0.40175363660E+02  0.68738806512E+02  0.00000000000E+00 0. -1.
        -13    1    4    4    0    0  0.37564670301E+01  0.28788722589E+02 -0.64289768498E+02  0.70541306526E+02  0.00000000000E+00 0.  1.
         13    1    4    4    0    0  0.10890224337E+03 -0.25355160664E+02 -0.48677385356E+03  0.49945106597E+03  0.00000000000E+00 0. -1.
         21    1    1    2  502  501  0.22067039627E+02 -0.10638439372E+02 -0.48842623827E+01  0.24979724762E+02  0.00000000000E+00 0. -1.
<scales pt_clust_5="13000.00000" pt_clust_6="13000.00000" pt_clust_7="13000.00000" pt_clust_8="13000.00000" pt_clust_9="24.49756"></scales>
<clustering>
<clus scale="   24.498">  1  9  2 -1</clus>
<clus scale="   90.528">  5  6 -1 -1</clus>
<clus scale="   92.284">  7  8 -1 -1</clus>
<clus scale="  146.832">  1  5  2 -1</clus>
<clus scale="  147.921">  2  5  1 -1</clus>
</clustering>
</event>
<event>
 9    1  0.1748361E-005  0.1751362E+03  0.7546771E-02  0.1173557E+00
         -2   -1    0    0    0  501 -0.00000000000E+00  0.00000000000E+00  0.18119976367E+03  0.18119976367E+03  0.00000000000E+00 0.  1.
          2   -1    0    0  502    0  0.00000000000E+00 -0.00000000000E+00 -0.70484368503E+03  0.70484368503E+03  0.00000000000E+00 0. -1.
         23    2    1    2    0    0  0.86842903852E+02  0.12725373186E+03 -0.49737772177E+02  0.18451011745E+03  0.88515169551E+02 0.  0.
         23    2    1    2    0    0 -0.60536386743E+02 -0.13247696123E+03 -0.57298162251E+03  0.59889189525E+03  0.95649166671E+02 0.  0.
        -11    1    3    3    0    0  0.61207454283E+02  0.13707574719E+03 -0.39712990622E+02  0.15528436673E+03  0.00000000000E+00 0.  1.
         11    1    3    3    0    0  0.25635449569E+02 -0.98220153351E+01 -0.10024781555E+02  0.29225750719E+02  0.00000000000E+00 0. -1.
        -11    1    4    4    0    0  0.16011769466E+02 -0.78263492334E+02 -0.23965949817E+03  0.25262269505E+03  0.00000000000E+00 0.  1.
         11    1    4    4    0    0 -0.76548156209E+02 -0.54213468893E+02 -0.33332212434E+03  0.34626920020E+03  0.00000000000E+00 0. -1.
         21    1    1    2  502  501 -0.26306517109E+02  0.52232293699E+01  0.99075473332E+02  0.10264143600E+03  0.00000000000E+00 0. -1.
<scales pt_clust_5="13000.00000" pt_clust_6="13000.00000" pt_clust_7="13000.00000" pt_clust_8="13000.00000" pt_clust_9="26.82005"></scales>
<clustering>
<clus scale="   26.820">  1  9  2 -1</clus>
<clus scale="   88.515">  5  6 -1 -1</clus>
<clus scale="   95.649">  7  8 -1 -1</clus>
<clus scale="  171.344">  1  5  2 -1</clus>
<clus scale="  175.136">  2  5  1 -1</clus>
</clustering>
</event>
<event>
 9    1  0.1748361E-005  0.1012894E+03  0.7546771E-02  0.1277776E+00
         -2   -1    0    0    0  501 -0.00000000000E+00  0.00000000000E+00  0.25992610411E+02  0.25992610411E+02  0.00000000000E+00 0.  1.
          2   -1    0    0  502    0  0.00000000000E+00 -0.00000000000E+00 -0.79726126787E+03  0.79726126787E+03  0.00000000000E+00 0. -1.
         23    2    1    2    0    0  0.13608294751E+02 -0.12257336161E+02 -0.11896509940E+03  0.15068509411E+03  0.90652494376E+02 0.  0.
         23    2    1    2    0    0  0.80370495709E+01  0.54885569009E+02 -0.54150965307E+03  0.55189991267E+03  0.91015324991E+02 0.  0.
        -11    1    4    4    0    0 -0.14679866695E+02  0.74863585585E+02 -0.39495119376E+03  0.40225178730E+03  0.00000000000E+00 0. -1.
         11    1    4    4    0    0  0.22716916265E+02 -0.19978016577E+02 -0.14655845931E+03  0.14964812537E+03  0.00000000000E+00 0.  1.
        -13    1    3    3    0    0  0.31270150825E+02  0.59828541897E+01 -0.12109095832E+03  0.12520637789E+03  0.00000000000E+00 0. -1.
         13    1    3    3    0    0 -0.17661856074E+02 -0.18240190350E+02  0.21258589262E+01  0.25478716219E+02  0.00000000000E+00 0.  1.
         21    1    1    2  502  501 -0.21645344322E+02 -0.42628232848E+02 -0.11079390499E+03  0.12066887150E+03  0.00000000000E+00 0. -1.
<scales pt_clust_5="13000.00000" pt_clust_6="13000.00000" pt_clust_7="13000.00000" pt_clust_8="13000.00000" pt_clust_9="47.80886"></scales>
<clustering>
<clus scale="   47.809">  1  9  2 -1</clus>
<clus scale="   90.652">  7  8 -1 -1</clus>
<clus scale="   91.015">  5  6 -1 -1</clus>
<clus scale="  100.963">  1  7  2 -1</clus>
<clus scale="  101.289">  2  5  1 -1</clus>
</clustering>
</event>
<event>
 9    1  0.1748361E-005  0.9962136E+02  0.7546771E-02  0.1282995E+00
          1   -1    0    0  502    0  0.00000000000E+00  0.00000000000E+00  0.49932720826E+02  0.49932720826E+02  0.00000000000E+00 0. -1.
         -1   -1    0    0    0  501 -0.00000000000E+00 -0.00000000000E+00 -0.76558348411E+03  0.76558348411E+03  0.00000000000E+00 0.  1.
         23    2    1    2    0    0  0.16951033424E+02  0.30523660058E+02 -0.27675284052E+03  0.29316655716E+03  0.90196807823E+02 0.  0.
         23    2    1    2    0    0 -0.27097702847E+02  0.34150203220E+02 -0.29411644895E+02  0.10766341066E+03  0.93945959255E+02 0.  0.
        -11    1    4    4    0    0  0.26319464884E+02 -0.61125419683E+01 -0.30520743086E+02  0.40762644169E+02  0.00000000000E+00 0.  1.
         11    1    4    4    0    0 -0.53417167731E+02  0.40262745189E+02  0.11090981914E+01  0.66900766493E+02  0.00000000000E+00 0. -1.
        -13    1    3    3    0    0  0.53920974089E+02  0.19056634326E+02 -0.18331015937E+03  0.19202406434E+03  0.00000000000E+00 0.  1.
         13    1    3    3    0    0 -0.36969940666E+02  0.11467025732E+02 -0.93442681153E+02  0.10114249282E+03  0.00000000000E+00 0. -1.
         21    1    1    2  502  501  0.10146669423E+02 -0.64673863278E+02 -0.40948627787E+03  0.41468623712E+03  0.00000000000E+00 0.  1.
<scales pt_clust_5="13000.00000" pt_clust_6="13000.00000" pt_clust_7="13000.00000" pt_clust_8="13000.00000" pt_clust_9="65.46498"></scales>
<clustering>
<clus scale="   65.465">  2  9  1 -1</clus>
<clus scale="   90.197">  7  8 -1 -1</clus>
<clus scale="   93.946">  5  6 -1 -1</clus>
<clus scale="   96.094">  2  7  1 -1</clus>
<clus scale="   99.621">  1  5  2 -1</clus>
</clustering>
</event>
<event>
 9    1  0.1748361E-005  0.2490052E+03  0.7546771E-02  0.1114171E+00
          3   -1    0    0  502    0  0.00000000000E+00  0.00000000000E+00  0.31040827444E+03  0.31040827444E+03  0.00000000000E+00 0. -1.
         -3   -1    0    0    0  501 -0.00000000000E+00 -0.00000000000E+00 -0.24141518197E+03  0.24141518197E+03  0.00000000000E+00 0.  1.
         23    2    1    2    0    0 -0.31227501627E+02  0.24287106428E+03  0.33812405440E+02  0.26237302549E+03  0.87947797130E+02 0.  0.
         23    2    1    2    0    0  0.38898737436E+02 -0.21731834199E+03  0.66549847498E+02  0.24827017226E+03  0.92026206553E+02 0.  0.
        -11    1    4    4    0    0  0.64154260266E+02 -0.15567259097E+03  0.68123504426E+02  0.18163297207E+03  0.00000000000E+00 0. -1.
         11    1    4    4    0    0 -0.25255522831E+02 -0.61645751022E+02 -0.15736569283E+01  0.66637200186E+02  0.00000000000E+00 0.  1.
        -11    1    3    3    0    0  0.20327043059E+02  0.61516379724E+02  0.35395712232E+02  0.73826215522E+02  0.00000000000E+00 0. -1.
         11    1    3    3    0    0 -0.51554544686E+02  0.18135468455E+03 -0.15833067916E+01  0.18854680996E+03  0.00000000000E+00 0.  1.
         21    1    1    2  502  501 -0.76712358088E+01 -0.25552722289E+02 -0.31369160471E+02  0.41180258666E+02  0.00000000000E+00 0. -1.
<scales pt_clust_5="13000.00000" pt_clust_6="13000.00000" pt_clust_7="13000.00000" pt_clust_8="13000.00000" pt_clust_9="26.67938"></scales>
<clustering>
<clus scale="   26.679">  2  9  1 -1</clus>
<clus scale="   87.948">  7  8 -1 -1</clus>
<clus scale="   92.026">  5  6 -1 -1</clus>
<clus scale="  247.527">  2  7  1 -1</clus>
<clus scale="  249.005">  1  5  2 -1</clus>
</clustering>
</event>
<event>
 9    1  0.1748361E-005  0.3374806E+03  0.7546771E-02  0.1067893E+00
         -2   -1    0    0    0  501 -0.00000000000E+00  0.00000000000E+00  0.34311199560E+03  0.34311199560E+03  0.00000000000E+00 0.  1.
          2   -1    0    0  502    0  0.00000000000E+00 -0.00000000000E+00 -0.78066635851E+03  0.78066635851E+03  0.00000000000E+00 0. -1.
         23    2    1    2    0    0 -0.95220878274E+02 -0.33834417217E+03  0.11556382199E+03  0.38096443907E+03  0.90747519977E+02 0.  0.
         23    2    1    2    0    0  0.12733221558E+03  0.29425895689E+03 -0.58950166499E+03  0.67725171698E+03  0.91410329253E+02 0.  0.
        -13    1    3    3    0    0 -0.59775371184E+02 -0.31231477503E+03  0.91756924631E+02  0.33095762103E+03  0.00000000000E+00 0.  1.
         13    1    3    3    0    0 -0.35445507090E+02 -0.26029397143E+02  0.23806897359E+02  0.50006818039E+02  0.00000000000E+00 0. -1.
        -13    1    4    4    0    0  0.13880747571E+03  0.24188215003E+03 -0.51172161174E+03  0.58278083165E+03  0.00000000000E+00 0. -1.
         13    1    4    4    0    0 -0.11475260130E+02  0.52376806860E+02 -0.77780053253E+02  0.94470885334E+02  0.00000000000E+00 0.  1.
         21    1    1    2  502  501 -0.32111337311E+02  0.44085215283E+02  0.36383480097E+02  0.65562198059E+02  0.00000000000E+00 0. -1.
<scales pt_clust_5="13000.00000" pt_clust_6="13000.00000" pt_clust_7="13000.00000" pt_clust_8="13000.00000" pt_clust_9="54.54030"></scales>
<clustering>
<clus scale="   54.540">  1  9  2 -1</clus>
<clus scale="   90.748">  5  6 -1 -1</clus>
<clus scale="   91.410">  7  8 -1 -1</clus>
<clus scale="  337.302">  1  5  2 -1</clus>
<clus scale="  337.481">  2  5  1 -1</clus>
</clustering>
</event>
<event>
 9    1  0.1748361E-005  0.2173751E+03  0.7546771E-02  0.1136126E+00
         -1   -1    0    0    0  501 -0.00000000000E+00  0.00000000000E+00  0.78675957150E+02  0.78675957150E+02  0.00000000000E+00 0.  1.
          1   -1    0    0  502    0  0.00000000000E+00 -0.00000000000E+00 -0.92297000939E+03  0.92297000939E+03  0.00000000000E+00 0. -1.
         23    2    1    2    0    0 -0.14604368249E+03  0.12604454307E+03 -0.25589631130E+03  0.33262226521E+03  0.89099187135E+02 0.  0.
         23    2    1    2    0    0  0.88646444594E+02 -0.18556511158E+03 -0.49705671919E+03  0.54581524687E+03  0.92500264088E+02 0.  0.
        -13    1    4    4    0    0 -0.10589090385E+02 -0.79246811305E+02 -0.18458838875E+03  0.20115928812E+03  0.00000000000E+00 0.  1.
         13    1    4    4    0    0  0.99235534978E+02 -0.10631830027E+03 -0.31246833044E+03  0.34465595875E+03  0.00000000000E+00 0. -1.
        -13    1    3    3    0    0 -0.15172635912E+03  0.92994358817E+02 -0.22633996054E+03  0.28792119853E+03  0.00000000000E+00 0.  1.
         13    1    3    3    0    0  0.56826766337E+01  0.33050184251E+02 -0.29556350752E+02  0.44701066682E+02  0.00000000000E+00 0. -1.
         21    1    1    2  502  501  0.57397237894E+02  0.59520568509E+02 -0.91341021754E+02  0.12320845445E+03  0.00000000000E+00 0.  1.
<scales pt_clust_5="13000.00000" pt_clust_6="13000.00000" pt_clust_7="13000.00000" pt_clust_8="13000.00000" pt_clust_9="82.68701"></scales>
<clustering>
<clus scale="   82.687">  1  9  2 -1</clus>
<clus scale="   89.099">  7  8 -1 -1</clus>
<clus scale="   92.500">  5  6 -1 -1</clus>
<clus scale="  215.950">  1  7  2 -1</clus>
<clus scale="  217.375">  2  5  1 -1</clus>
</clustering>
</event>
<event>
 9    1  0.1748361E-005  0.1794568E+03  0.7546771E-02  0.1168521E+00
          1   -1    0    0  502    0  0.00000000000E+00  0.00000000000E+00  0.85165250909E+03  0.85165250909E+03  0.00000000000E+00 0. -1.
         -1   -1    0    0    0  501 -0.00000000000E+00 -0.00000000000E+00 -0.10567224531E+03  0.10567224531E+03  0.00000000000E+00 0.  1.
         23    2    1    2    0    0 -0.38947692281E+02 -0.12584900101E+03  0.46766171230E+02  0.16610938488E+03  0.89723793852E+02 0.  0.
         23    2    1    2    0    0  0.10928174740E+03  0.11874621752E+03  0.69619459158E+03  0.72045912436E+03  0.91275823944E+02 0.  0.
        -13    1    3    3    0    0 -0.39054034881E+02 -0.10064557048E+03 -0.54858715476E+01  0.10809645361E+03  0.00000000000E+00 0.  1.
         13    1    3    3    0    0  0.10634260009E+00 -0.25203430535E+02  0.52252042778E+02  0.58012931265E+02  0.00000000000E+00 0. -1.
        -13    1    4    4    0    0  0.40827952309E+02  0.20859657921E+02  0.75147298577E+02  0.88029333189E+02  0.00000000000E+00 0.  1.
         13    1    4    4    0    0  0.68453795093E+02  0.97886559599E+02  0.62104729301E+03  0.63242979117E+03  0.00000000000E+00 0. -1.
         21    1    1    2  502  501 -0.70334055121E+02  0.71027834920E+01  0.30195009666E+01  0.70756245160E+02  0.00000000000E+00 0. -1.
<scales pt_clust_5="13000.00000" pt_clust_6="13000.00000" pt_clust_7="13000.00000" pt_clust_8="13000.00000" pt_clust_9="70.69179"></scales>
<clustering>
<clus scale="   70.692">  2  9  1 -1</clus>
<clus scale="   89.724">  5  6 -1 -1</clus>
<clus scale="   91.276">  7  8 -1 -1</clus>
<clus scale="  178.672">  2  5  1 -1</clus>
<clus scale="  179.457">  1  5  2 -1</clus>
</clustering>
</event>
<event>
 9    1  0.1748361E-005  0.1435248E+03  0.7546771E-02  0.1208963E+00
         -2   -1    0    0    0  501 -0.00000000000E+00  0.00000000000E+00  0.72500067590E+02  0.72500067590E+02  0.00000000000E+00 0.  1.
          2   -1    0    0  502    0  0.00000000000E+00 -0.00000000000E+00 -0.36572279863E+03  0.36572279863E+03  0.00000000000E+00 0. -1.
         23    2    1    2    0    0 -0.83678817967E+02 -0.78500508702E+02 -0.91485882764E+02  0.17184958985E+03  0.89432322708E+02 0.  0.
         23    2    1    2    0    0  0.95100872895E+02  0.55275981455E+02 -0.19085286269E+03  0.23829653961E+03  0.90889028176E+02 0.  0.
        -11    1    4    4    0    0  0.27408064823E+02 -0.25371671223E+02 -0.47244502097E+02  0.60224303204E+02  0.00000000000E+00 0.  1.
         11    1    4    4    0    0  0.67692808072E+02  0.80647652678E+02 -0.14360836059E+03  0.17807223640E+03  0.00000000000E+00 0. -1.
        -13    1    3    3    0    0  0.13631092594E+02 -0.18266586120E+02  0.35803058109E+01  0.23071485507E+02  0.00000000000E+00 0.  1.
         13    1    3    3    0    0 -0.97309910561E+02 -0.60233922582E+02 -0.95066188575E+02  0.14877810435E+03  0.00000000000E+00 0. -1.
         21    1    1    2  502  501 -0.11422054928E+02  0.23224527248E+02 -0.10883985590E+02  0.28076736758E+02  0.00000000000E+00 0. -1.
<scales pt_clust_5="13000.00000" pt_clust_6="13000.00000" pt_clust_7="13000.00000" pt_clust_8="13000.00000" pt_clust_9="25.88131"></scales>
<clustering>
<clus scale="   25.881">  1  9  2 -1</clus>
<clus scale="   89.432">  7  8 -1 -1</clus>
<clus scale="   90.889">  5  6 -1 -1</clus>
<clus scale="  142.607">  1  7  2 -1</clus>
<clus scale="  143.525">  2  5  1 -1</clus>
</clustering>
</event>
<event>
 9    1  0.1748361E-005  0.1126996E+03  0.7546771E-02  0.1257113E+00
         -2   -1    0    0    0  501 -0.00000000000E+00  0.00000000000E+00  0.69692435632E+02  0.69692435632E+02  0.00000000000E+00 0.  1.
          2   -1    0    0  502    0  0.00000000000E+00 -0.00000000000E+00 -0.25312519167E+03  0.25312519167E+03  0.00000000000E+00 0. -1.
         23    2    1    2    0    0  0.28764487700E+02  0.71574949276E+02 -0.10759552431E+03  0.16099805519E+03  0.91614451951E+02 0.  0.
         23    2    1    2    0    0 -0.19607007891E+02 -0.51776427830E+02 -0.88757853695E+02  0.13646639953E+03  0.87634972312E+02 0.  0.
        -11    1    3    3    0    0 -0.23546056652E+02 -0.74671840086E+01 -0.17939534643E+02  0.30528716385E+02  0.00000000000E+00 0.  1.
         11    1    3    3    0    0  0.52310544352E+02  0.79042133284E+02 -0.89655989670E+02  0.13046933881E+03  0.00000000000E+00 0. -1.
        -11    1    4    4    0    0 -0.84633347921E+01  0.24409604533E+02 -0.30130264415E+02  0.39689918909E+02  0.00000000000E+00 0. -1.
         11    1    4    4    0    0 -0.11143673099E+02 -0.76186032364E+02 -0.58627589280E+02  0.96776480625E+02  0.00000000000E+00 0.  1.
         21    1    1    2  502  501 -0.91574798097E+01 -0.19798521445E+02  0.12920621967E+02  0.25353172580E+02  0.00000000000E+00 0. -1.
<scales pt_clust_5="13000.00000" pt_clust_6="13000.00000" pt_clust_7="13000.00000" pt_clust_8="13000.00000" pt_clust_9="21.81378"></scales>
<clustering>
<clus scale="   21.814">  1  9  2 -1</clus>
<clus scale="   87.635">  7  8 -1 -1</clus>
<clus scale="   91.614">  5  6 -1 -1</clus>
<clus scale="  109.489">  2  7  1 -1</clus>
<clus scale="  109.489">  2  5  1 -1</clus>
</clustering>
</event>
<event>
 9    1  0.1748361E-005  0.9554026E+02  0.7546771E-02  0.1290408E+00
         -2   -1    0    0    0  501 -0.00000000000E+00  0.00000000000E+00  0.40217534672E+03  0.40217534672E+03  0.00000000000E+00 0.  1.
          2   -1    0    0  502    0  0.00000000000E+00 -0.00000000000E+00 -0.96263541071E+02  0.96263541071E+02  0.00000000000E+00 0. -1.
         23    2    1    2    0    0  0.22946588334E+02 -0.48203218591E+02  0.10480502792E+03  0.14852244007E+03  0.90690270317E+02 0.  0.
         23    2    1    2    0    0 -0.27272512783E+02 -0.23077917091E+02 -0.34189190860E+02  0.10402235108E+03  0.91517039624E+02 0.  0.
        -13    1    3    3    0    0  0.45302078487E+02 -0.41915413497E+02  0.27072568366E+02  0.67395134556E+02  0.00000000000E+00 0.  1.
         13    1    3    3    0    0 -0.22355490153E+02 -0.62878050944E+01  0.77732459550E+02  0.81127305518E+02  0.00000000000E+00 0. -1.
        -13    1    4    4    0    0  0.22676634622E+01 -0.30586538607E+02  0.23592338811E+02  0.38694664905E+02  0.00000000000E+00 0.  1.
         13    1    4    4    0    0 -0.29540176245E+02  0.75086215160E+01 -0.57781529671E+02  0.65327686173E+02  0.00000000000E+00 0. -1.
         21    1    1    2  502  501  0.43259244482E+01  0.71281135682E+02  0.23529596859E+03  0.24589409664E+03  0.00000000000E+00 0.  1.
<scales pt_clust_5="13000.00000" pt_clust_6="13000.00000" pt_clust_7="13000.00000" pt_clust_8="13000.00000" pt_clust_9="71.41228"></scales>
<clustering>
<clus scale="   71.412">  1  9  2 -1</clus>
<clus scale="   90.690">  5  6 -1 -1</clus>
<clus scale="   91.517">  7  8 -1 -1</clus>
<clus scale="   94.749">  1  5  2 -1</clus>
<clus scale="   95.540">  2  5  1 -1</clus>
</clustering>
</event>
<event>
 9    1  0.1748361E-005  0.1129264E+03  0.7546771E-02  0.1255308E+00
          2   -1    0    0  502    0  0.00000000000E+00  0.00000000000E+00  0.62193431112E+03  0.62193431112E+03  0.00000000000E+00 0.  1.
         -2   -1    0    0    0  501 -0.00000000000E+00 -0.00000000000E+00 -0.52967761924E+02  0.52967761924E+02  0.00000000000E+00 0. -1.
         23    2    1    2    0    0  0.49430823951E+02  0.60209254844E+02  0.10665536408E+03  0.16036413648E+03  0.90954542809E+02 0.  0.
         23    2    1    2    0    0  0.37917845733E+02 -0.66648655405E+02  0.36341554699E+03  0.38243342031E+03  0.91129879170E+02 0.  0.
        -11    1    4    4    0    0  0.21485017481E+02  0.16684324441E+02  0.42438768490E+02  0.50408548176E+02  0.00000000000E+00 0. -1.
         11    1    4    4    0    0  0.16432828252E+02 -0.83332979846E+02  0.32097677850E+03  0.33202487213E+03  0.00000000000E+00 0.  1.
        -11    1    3    3    0    0 -0.13057786624E+02  0.49714778981E+02  0.71013553261E+02  0.87664073528E+02  0.00000000000E+00 0.  1.
         11    1    3    3    0    0  0.62488610574E+02  0.10494475863E+02  0.35641810814E+02  0.72700062952E+02  0.00000000000E+00 0. -1.
         21    1    1    2  502  501 -0.87348669684E+02  0.64394005611E+01  0.98895638124E+02  0.13210451626E+03  0.00000000000E+00 0. -1.
<scales pt_clust_5="13000.00000" pt_clust_6="13000.00000" pt_clust_7="13000.00000" pt_clust_8="13000.00000" pt_clust_9="87.58571"></scales>
<clustering>
<clus scale="   87.586">  2  9  1 -1</clus>
<clus scale="   90.955">  7  8 -1 -1</clus>
<clus scale="   91.130">  5  6 -1 -1</clus>
<clus scale="  112.785">  2  7  1 -1</clus>
<clus scale="  112.926">  1  5  2 -1</clus>
</clustering>
</event>
<event>
 9    1  0.1748361E-005  0.1163355E+03  0.7546771E-02  0.1249504E+00
         -1   -1    0    0    0  501 -0.00000000000E+00  0.00000000000E+00  0.96754704802E+02  0.96754704802E+02  0.00000000000E+00 0.  1.
          1   -1    0    0  502    0  0.00000000000E+00 -0.00000000000E+00 -0.49484679765E+03  0.49484679765E+03  0.00000000000E+00 0. -1.
         23    2    1    2    0    0 -0.75918658273E+01 -0.93206051049E+02 -0.50908485935E+02  0.13986597088E+03  0.90696259514E+02 0.  0.
         23    2    1    2    0    0 -0.30024037538E+02  0.62999513515E+02 -0.37758829730E+03  0.39471065723E+03  0.91395837657E+02 0.  0.
        -13    1    4    4    0    0 -0.27650048404E+02  0.85507572216E+02 -0.26361936431E+03  0.27851613835E+03  0.00000000000E+00 0. -1.
         13    1    4    4    0    0 -0.23739891345E+01 -0.22508058701E+02 -0.11396893299E+03  0.11619451888E+03  0.00000000000E+00 0.  1.
        -13    1    3    3    0    0 -0.23867292912E+02 -0.69825169803E+02  0.82047902219E+01  0.74246350695E+02  0.00000000000E+00 0.  1.
         13    1    3    3    0    0  0.16275427084E+02 -0.23380881245E+02 -0.59113276157E+02  0.65619620180E+02  0.00000000000E+00 0. -1.
         21    1    1    2  502  501  0.37615903366E+02  0.30206537534E+02  0.30404690391E+02  0.57024874341E+02  0.00000000000E+00 0. -1.
<scales pt_clust_5="13000.00000" pt_clust_6="13000.00000" pt_clust_7="13000.00000" pt_clust_8="13000.00000" pt_clust_9="48.24304"></scales>
<clustering>
<clus scale="   48.243">  1  9  2 -1</clus>
<clus scale="   90.696">  7  8 -1 -1</clus>
<clus scale="   91.396">  5  6 -1 -1</clus>
<clus scale="  115.787">  1  7  2 -1</clus>
<clus scale="  116.336">  2  5  1 -1</clus>
</clustering>
</event>
<event>
 9    1  0.1748361E-005  0.1322928E+03  0.7546771E-02  0.1224716E+00
         -1   -1    0    0    0  501 -0.00000000000E+00  0.00000000000E+00  0.46269999534E+02  0.46269999534E+02  0.00000000000E+00 0.  1.
          1   -1    0    0  502    0  0.00000000000E+00 -0.00000000000E+00 -0.70287485267E+03  0.70287485267E+03  0.00000000000E+00 0. -1.
         23    2    1    2    0    0  0.52671849204E+02  0.53353279084E+02 -0.12185074974E+03  0.17040861380E+03  0.92577504592E+02 0.  0.
         23    2    1    2    0    0 -0.24556176797E+02 -0.10303989635E+03 -0.47959259652E+03  0.49935083162E+03  0.90121963690E+02 0.  0.
        -11    1    3    3    0    0  0.47219618395E+02  0.26685073641E+02 -0.98219225049E+01  0.55120374439E+02  0.00000000000E+00 0.  1.
         11    1    3    3    0    0  0.54522308094E+01  0.26668205443E+02 -0.11202882724E+03  0.11528823936E+03  0.00000000000E+00 0. -1.
        -13    1    4    4    0    0 -0.52859952559E+02 -0.50982378025E+02 -0.18875542539E+03  0.20253885570E+03  0.00000000000E+00 0.  1.
         13    1    4    4    0    0  0.28303775762E+02 -0.52057518328E+02 -0.29083717113E+03  0.29681197592E+03  0.00000000000E+00 0. -1.
         21    1    1    2  502  501 -0.28115672408E+02  0.49686617269E+02 -0.55161506871E+02  0.79385406788E+02  0.00000000000E+00 0.  1.
<scales pt_clust_5="13000.00000" pt_clust_6="13000.00000" pt_clust_7="13000.00000" pt_clust_8="13000.00000" pt_clust_9="57.08985"></scales>
<clustering>
<clus scale="   57.090">  1  9  2 -1</clus>
<clus scale="   90.122">  7  8 -1 -1</clus>
<clus scale="   92.578">  5  6 -1 -1</clus>
<clus scale="  130.586">  2  7  1 -1</clus>
<clus scale="  130.586">  2  5  1 -1</clus>
</clustering>
</event>
<event>
 9    1  0.1748361E-005  0.1197516E+03  0.7546771E-02  0.1244710E+00
         -1   -1    0    0    0  501 -0.00000000000E+00  0.00000000000E+00  0.36480540135E+03  0.36480540135E+03  0.00000000000E+00 0.  1.
          1   -1    0    0  502    0  0.00000000000E+00 -0.00000000000E+00 -0.24114263883E+03  0.24114263883E+03  0.00000000000E+00 0. -1.
         23    2    1    2    0    0 -0.14880338577E+02  0.12154349850E+03 -0.11283862420E+03  0.19003309491E+03  0.91573880256E+02 0.  0.
         23    2    1    2    0    0 -0.21382536299E+02 -0.31551474855E+02 -0.49520781962E+02  0.11388474581E+03  0.95208818171E+02 0.  0.
        -11    1    3    3    0    0  0.25358649368E+02  0.16762895976E+01 -0.11052955439E+02  0.27713514186E+02  0.00000000000E+00 0.  1.
         11    1    3    3    0    0 -0.40238987944E+02  0.11986720890E+03 -0.10178566876E+03  0.16231958072E+03  0.00000000000E+00 0. -1.
        -13    1    4    4    0    0  0.18360984913E+02 -0.53350874871E+02 -0.34487799110E+02  0.66127527580E+02  0.00000000000E+00 0.  1.
         13    1    4    4    0    0 -0.39743521212E+02  0.21799400016E+02 -0.15032982852E+02  0.47757218227E+02  0.00000000000E+00 0. -1.
         21    1    1    2  502  501  0.36262874875E+02 -0.89992023644E+02  0.28602216868E+03  0.30203019947E+03  0.00000000000E+00 0.  1.
<scales pt_clust_5="13000.00000" pt_clust_6="13000.00000" pt_clust_7="13000.00000" pt_clust_8="13000.00000" pt_clust_9="97.02350"></scales>
<clustering>
<clus scale="   91.574">  5  6 -1 -1</clus>
<clus scale="   95.209">  7  8 -1 -1</clus>
<clus scale="   97.024">  1  9  2 -1</clus>
<clus scale="  116.882">  1  5  2 -1</clus>
<clus scale="  119.752">  2  5  1 -1</clus>
</clustering>
</event>
<event>
 9    1  0.1748361E-005  0.1411586E+03  0.7546771E-02  0.1212359E+00
         -1   -1    0    0    0  501 -0.00000000000E+00  0.00000000000E+00  0.99323043135E+02  0.99323043135E+02  0.00000000000E+00 0.  1.
          1   -1    0    0  502    0  0.00000000000E+00 -0.00000000000E+00 -0.31077173117E+03  0.31077173117E+03  0.00000000000E+00 0. -1.
         23    2    1    2    0    0 -0.77651129159E+02  0.80727628238E+02 -0.59130467740E+01  0.14630564691E+03  0.93934713367E+02 0.  0.
         23    2    1    2    0    0  0.76222974928E+02 -0.47328991184E+02 -0.18353662565E+03  0.22377081571E+03  0.91311060108E+02 0.  0.
        -11    1    4    4    0    0 -0.16771275023E+02 -0.23464273082E+02 -0.23761275616E+02  0.37369051313E+02  0.00000000000E+00 0.  1.
         11    1    4    4    0    0  0.92994249951E+02 -0.23864718102E+02 -0.15977535003E+03  0.18640176440E+03  0.00000000000E+00 0. -1.
        -11    1    3    3    0    0 -0.98423249791E+02  0.76749461355E+02 -0.79178072037E+01  0.12506121537E+03  0.00000000000E+00 0.  1.
         11    1    3    3    0    0  0.20772120632E+02  0.39781668828E+01  0.20047604297E+01  0.21244431546E+02  0.00000000000E+00 0. -1.
         21    1    1    2  502  501  0.14281542303E+01 -0.33398637054E+02 -0.21999015612E+02  0.40018311677E+02  0.00000000000E+00 0.  1.
<scales pt_clust_5="13000.00000" pt_clust_6="13000.00000" pt_clust_7="13000.00000" pt_clust_8="13000.00000" pt_clust_9="33.42916"></scales>
<clustering>
<clus scale="   33.429">  2  9  1 -1</clus>
<clus scale="   91.311">  5  6 -1 -1</clus>
<clus scale="   93.935">  7  8 -1 -1</clus>
<clus scale="  139.426">  2  5  1 -1</clus>
<clus scale="   33.429">  2  5  1 -1</clus>
</clustering>
</event>
<event>
 9    1  0.1748361E-005  0.1028795E+03  0.7546771E-02  0.1275473E+00
          1   -1    0    0  502    0  0.00000000000E+00  0.00000000000E+00  0.25338360068E+03  0.25338360068E+03  0.00000000000E+00 0. -1.
         -1   -1    0    0    0  501 -0.00000000000E+00 -0.00000000000E+00 -0.10485621724E+03  0.10485621724E+03  0.00000000000E+00 0.  1.
         23    2    1    2    0    0  0.17567414445E+02 -0.33325823980E+02 -0.51874473404E+02  0.10967495287E+03  0.88985446570E+02 0.  0.
         23    2    1    2    0    0 -0.33473228156E+00  0.49210522263E+02  0.19973356969E+03  0.22511842434E+03  0.91449541114E+02 0.  0.
        -11    1    3    3    0    0 -0.14171039197E+02 -0.32602252676E+02 -0.65971009029E+02  0.74939303865E+02  0.00000000000E+00 0.  1.
         11    1    3    3    0    0  0.31738453642E+02 -0.72357130381E+00  0.14096535624E+02  0.34735649002E+02  0.00000000000E+00 0. -1.
        -11    1    4    4    0    0 -0.42228815886E+02  0.20987785386E+02  0.58602661202E+02  0.75219890498E+02  0.00000000000E+00 0.  1.
         11    1    4    4    0    0  0.41894083605E+02  0.28222736877E+02  0.14113090849E+03  0.14989853384E+03  0.00000000000E+00 0. -1.
         21    1    1    2  502  501 -0.17232682163E+02 -0.15884698283E+02  0.66828715606E+00  0.23446440706E+02  0.00000000000E+00 0. -1.
<scales pt_clust_5="13000.00000" pt_clust_6="13000.00000" pt_clust_7="13000.00000" pt_clust_8="13000.00000" pt_clust_9="23.43691"></scales>
<clustering>
<clus scale="   23.437">  2  9  1 -1</clus>
<clus scale="   88.985">  5  6 -1 -1</clus>
<clus scale="   91.450">  7  8 -1 -1</clus>
<clus scale="  100.696">  2  5  1 -1</clus>
<clus scale="  102.880">  1  5  2 -1</clus>
</clustering>
</event>
<event>
 9    1  0.1748361E-005  0.1201991E+03  0.7546771E-02  0.1253051E+00
         -1   -1    0    0    0  501 -0.00000000000E+00  0.00000000000E+00  0.24355174271E+03  0.24355174271E+03  0.00000000000E+00 0.  1.
          1   -1    0    0  502    0  0.00000000000E+00 -0.00000000000E+00 -0.34021513009E+03  0.34021513009E+03  0.00000000000E+00 0. -1.
         23    2    1    2    0    0 -0.14477039621E+02 -0.32927118550E+02  0.59147063443E+02  0.11430350721E+03  0.90956785531E+02 0.  0.
         23    2    1    2    0    0 -0.78028795117E+02 -0.54353489757E+01 -0.28326438443E+03  0.30737229994E+03  0.90116499018E+02 0.  0.
        -11    1    3    3    0    0 -0.68527737352E+01  0.21028146889E+02 -0.11623618264E+02  0.24985034941E+02  0.00000000000E+00 0. -1.
         11    1    3    3    0    0 -0.76242658859E+01 -0.53955265439E+02  0.70770681707E+02  0.89318472268E+02  0.00000000000E+00 0.  1.
        -11    1    4    4    0    0  0.19732865104E+02  0.49883120368E+01 -0.37405999882E+02  0.42584950973E+02  0.00000000000E+00 0.  1.
         11    1    4    4    0    0 -0.97761660222E+02 -0.10423661013E+02 -0.24585838455E+03  0.26478734896E+03  0.00000000000E+00 0. -1.
         21    1    1    2  502  501  0.92505834738E+02  0.38362467526E+02  0.12745393361E+03  0.16209106566E+03  0.00000000000E+00 0.  1.
<scales pt_clust_5="13000.00000" pt_clust_6="13000.00000" pt_clust_7="13000.00000" pt_clust_8="13000.00000" pt_clust_9="79.54144"></scales>
<clustering>
<clus scale="   90.116">  7  8 -1 -1</clus>
<clus scale="   90.957">  5  6 -1 -1</clus>
<clus scale="   97.811">  1  5  2 -1</clus>
<clus scale="   79.541">  1  9  2 -1</clus>
<clus scale="  120.199">  2  5  1 -1</clus>
</clustering>
</event>
<event>
 9    1  0.1748361E-005  0.1311152E+03  0.7546771E-02  0.1227033E+00
         -1   -1    0    0    0  501 -0.00000000000E+00  0.00000000000E+00  0.21488900699E+02  0.21488900699E+02  0.00000000000E+00 0.  1.
          1   -1    0    0  502    0  0.00000000000E+00 -0.00000000000E+00 -0.10557738646E+04  0.10557738646E+04  0.00000000000E+00 0. -1.
         23    2    1    2    0    0 -0.49965581233E+02  0.70860720264E+02 -0.28723166149E+03  0.31351775644E+03  0.90959085611E+02 0.  0.
         23    2    1    2    0    0  0.35112459042E+02 -0.85025022801E+02 -0.69936850955E+03  0.71183082800E+03  0.95523171273E+02 0.  0.
        -13    1    3    3    0    0 -0.10017872192E+02 -0.17361230270E+02 -0.10752276223E+03  0.10937510904E+03  0.00000000000E+00 0. -1.
         13    1    3    3    0    0 -0.39947709042E+02  0.88221950534E+02 -0.17970889926E+03  0.20414264740E+03  0.00000000000E+00 0.  1.
        -13    1    4    4    0    0  0.34349451084E+02  0.11393956874E+02 -0.18858979958E+03  0.19203077761E+03  0.00000000000E+00 0.  1.
         13    1    4    4    0    0  0.76300795758E+00 -0.96418979675E+02 -0.51077870997E+03  0.51980005039E+03  0.00000000000E+00 0. -1.
         21    1    1    2  502  501  0.14853122192E+02  0.14164302537E+02 -0.47684792894E+02  0.51914180900E+02  0.00000000000E+00 0.  1.
<scales pt_clust_5="13000.00000" pt_clust_6="13000.00000" pt_clust_7="13000.00000" pt_clust_8="13000.00000" pt_clust_9="20.52420"></scales>
<clustering>
<clus scale="   20.524">  1  9  2 -1</clus>
<clus scale="   90.959">  5  6 -1 -1</clus>
<clus scale="   95.523">  7  8 -1 -1</clus>
<clus scale="  127.828">  1  5  2 -1</clus>
<clus scale="  131.115">  2  5  1 -1</clus>
</clustering>
</event>
<event>
 9    1  0.1748361E-005  0.9171218E+02  0.7546771E-02  0.1302174E+00
         -1   -1    0    0    0  501 -0.00000000000E+00  0.00000000000E+00  0.22463379177E+03  0.22463379177E+03  0.00000000000E+00 0.  1.
          1   -1    0    0  502    0  0.00000000000E+00 -0.00000000000E+00 -0.17943512340E+03  0.17943512340E+03  0.00000000000E+00 0. -1.
         23    2    1    2    0    0 -0.10724005283E+02 -0.58584581111E+02  0.11191598449E+02  0.10484826006E+03  0.85561371712E+02 0.  0.
         23    2    1    2    0    0 -0.91940169528E+01 -0.59720485332E+01 -0.10811328335E+03  0.14185966612E+03  0.91189295008E+02 0.  0.
        -11    1    3    3    0    0 -0.47008657855E+02 -0.42395090261E+02 -0.92630511372E+00  0.63308890629E+02  0.00000000000E+00 0. -1.
         11    1    3    3    0    0  0.36284652572E+02 -0.16189490849E+02  0.12117903563E+02  0.41539369434E+02  0.00000000000E+00 0.  1.
        -11    1    4    4    0    0 -0.18122760866E+02 -0.34604951896E+02 -0.11534052389E+02  0.40730474115E+02  0.00000000000E+00 0.  1.
         11    1    4    4    0    0  0.89287439135E+01  0.28632903362E+02 -0.96579230962E+02  0.10112919201E+03  0.00000000000E+00 0. -1.
         21    1    1    2  502  501  0.19918022235E+02  0.64556629644E+02  0.14212035327E+03  0.15736098898E+03  0.00000000000E+00 0.  1.
<scales pt_clust_5="13000.00000" pt_clust_6="13000.00000" pt_clust_7="13000.00000" pt_clust_8="13000.00000" pt_clust_9="67.55950"></scales>
<clustering>
<clus scale="   67.560">  1  9  2 -1</clus>
<clus scale="   85.561">  5  6 -1 -1</clus>
<clus scale="   86.118">  1  5  2 -1</clus>
<clus scale="   91.189">  7  8 -1 -1</clus>
<clus scale="   91.712">  2  5  1 -1</clus>
</clustering>
</event>
<event>
 9    1  0.1748361E-005  0.1214686E+03  0.7546771E-02  0.1241182E+00
          1   -1    0    0  502    0  0.00000000000E+00  0.00000000000E+00  0.54448090728E+03  0.54448090728E+03  0.00000000000E+00 0. -1.
         -1   -1    0    0    0  501 -0.00000000000E+00 -0.00000000000E+00 -0.84320040114E+02  0.84320040114E+02  0.00000000000E+00 0.  1.
         23    2    1    2    0    0  0.91808375767E+02 -0.78546602519E+02  0.18441007179E+03  0.23815145093E+03  0.90059382502E+02 0.  0.
         23    2    1    2    0    0 -0.70456995865E+02 -0.27078721403E+01  0.28360222345E+03  0.30627049434E+03  0.91650825007E+02 0.  0.
        -13    1    4    4    0    0 -0.30347159567E+01 -0.38371364714E+02  0.11353869084E+03  0.11988580170E+03  0.00000000000E+00 0. -1.
         13    1    4    4    0    0 -0.67422279908E+02  0.35663492574E+02  0.17006353260E+03  0.18638469264E+03  0.00000000000E+00 0.  1.
        -13    1    3    3    0    0  0.66734205312E+02  0.12852957569E+01  0.88964843175E+02  0.11121982496E+03  0.00000000000E+00 0. -1.
         13    1    3    3    0    0  0.25074170455E+02 -0.79831898276E+02  0.95445228610E+02  0.12693162597E+03  0.00000000000E+00 0.  1.
         21    1    1    2  502  501 -0.21351379902E+02  0.81254474659E+02 -0.78514280660E+01  0.84379002118E+02  0.00000000000E+00 0.  1.
<scales pt_clust_5="13000.00000" pt_clust_6="13000.00000" pt_clust_7="13000.00000" pt_clust_8="13000.00000" pt_clust_9="84.01292"></scales>
<clustering>
<clus scale="   84.013">  2  9  1 -1</clus>
<clus scale="   90.059">  7  8 -1 -1</clus>
<clus scale="   91.651">  5  6 -1 -1</clus>
<clus scale="  120.272">  2  7  1 -1</clus>
<clus scale="  121.469">  1  5  2 -1</clus>
</clustering>
</event>
<event>
 9    1  0.1748361E-005  0.1286817E+03  0.7546771E-02  0.1231125E+00
          1   -1    0    0  502    0  0.00000000000E+00  0.00000000000E+00  0.14842896533E+03  0.14842896533E+03  0.00000000000E+00 0. -1.
         -1   -1    0    0    0  501 -0.00000000000E+00 -0.00000000000E+00 -0.33925047862E+03  0.33925047862E+03  0.00000000000E+00 0.  1.
         23    2    1    2    0    0 -0.85795427505E+01  0.49374847468E+02 -0.22733932274E+03  0.25146270054E+03  0.95072803583E+02 0.  0.
         23    2    1    2    0    0  0.13722692785E+02 -0.90471091263E+02  0.98810917452E+02  0.16141176664E+03  0.88976571913E+02 0.  0.
        -11    1    3    3    0    0 -0.47795031051E+02  0.47782229831E+01 -0.10559422538E+03  0.11600576210E+03  0.00000000000E+00 0. -1.
         11    1    3    3    0    0  0.39215488300E+02  0.44596624485E+02 -0.12174509736E+03  0.13545693843E+03  0.00000000000E+00 0.  1.
        -11    1    4    4    0    0  0.41417434999E+02 -0.11175820070E+02  0.25365672992E+02  0.49836936528E+02  0.00000000000E+00 0.  1.
         11    1    4    4    0    0 -0.27694742215E+02 -0.79295271193E+02  0.73445244460E+02  0.11157483011E+03  0.00000000000E+00 0. -1.
         21    1    1    2  502  501 -0.51431500340E+01  0.41096243795E+02 -0.62293108000E+02  0.74804976777E+02  0.00000000000E+00 0. -1.
<scales pt_clust_5="13000.00000" pt_clust_6="13000.00000" pt_clust_7="13000.00000" pt_clust_8="13000.00000" pt_clust_9="41.41682"></scales>
<clustering>
<clus scale="   41.417">  2  9  1 -1</clus>
<clus scale="   88.977">  7  8 -1 -1</clus>
<clus scale="   95.073">  5  6 -1 -1</clus>
<clus scale="  124.246">  1  7  2 -1</clus>
<clus scale="  124.246">  1  5  2 -1</clus>
</clustering>
</event>
<event>
 9    1  0.1748361E-005  0.3022773E+03  0.7546771E-02  0.1084257E+00
          3   -1    0    0  502    0  0.00000000000E+00  0.00000000000E+00  0.20529348419E+04  0.20529348419E+04  0.00000000000E+00 0. -1.
         -3   -1    0    0    0  501 -0.00000000000E+00 -0.00000000000E+00 -0.72154164722E+02  0.72154164722E+02  0.00000000000E+00 0.  1.
         23    2    1    2    0    0 -0.24955473569E+03  0.55079435390E+02  0.36003878912E+03  0.45074369523E+03  0.90722868186E+02 0.  0.
         23    2    1    2    0    0  0.29933724657E+03 -0.82972227169E+01  0.15233316982E+04  0.15553679232E+04  0.94648204957E+02 0.  0.
        -11    1    3    3    0    0 -0.96141064748E+02  0.44531685636E+02  0.21341422401E+03  0.23826834948E+03  0.00000000000E+00 0. -1.
         11    1    3    3    0    0 -0.15341367094E+03  0.10547749754E+02  0.14662456511E+03  0.21247534575E+03  0.00000000000E+00 0.  1.
        -13    1    4    4    0    0  0.24554489050E+03 -0.43858759425E+02  0.12286753802E+04  0.12537380404E+04  0.00000000000E+00 0. -1.
         13    1    4    4    0    0  0.53792356067E+02  0.35561536708E+02  0.29465631796E+03  0.30162988277E+03  0.00000000000E+00 0.  1.
         21    1    1    2  502  501 -0.49782510880E+02 -0.46782212673E+02  0.97410189880E+02  0.11897738821E+03  0.00000000000E+00 0. -1.
<scales pt_clust_5="13000.00000" pt_clust_6="13000.00000" pt_clust_7="13000.00000" pt_clust_8="13000.00000" pt_clust_9="68.31452"></scales>
<clustering>
<clus scale="   68.315">  2  9  1 -1</clus>
<clus scale="   90.723">  5  6 -1 -1</clus>
<clus scale="   94.648">  7  8 -1 -1</clus>
<clus scale="  301.071">  2  5  1 -1</clus>
<clus scale="  302.277">  1  5  2 -1</clus>
</clustering>
</event>
<event>
 9    1  0.1748361E-005  0.1004095E+03  0.7546771E-02  0.1280485E+00
         -1   -1    0    0    0  501 -0.00000000000E+00  0.00000000000E+00  0.89627987036E+02  0.89627987036E+02  0.00000000000E+00 0.  1.
          1   -1    0    0  502    0  0.00000000000E+00 -0.00000000000E+00 -0.43507438691E+03  0.43507438691E+03  0.00000000000E+00 0. -1.
         23    2    1    2    0    0 -0.13627150439E+02 -0.27280502068E+02  0.30339781359E+02  0.10307150297E+03  0.93665934952E+02 0.  0.
         23    2    1    2    0    0  0.35456644033E+02  0.12174504958E+02 -0.38180515921E+03  0.39441054704E+03  0.91537466861E+02 0.  0.
        -13    1    3    3    0    0 -0.32164272413E+01 -0.56015285181E+02 -0.50228607407E+01  0.56331933290E+02  0.00000000000E+00 0. -1.
         13    1    3    3    0    0 -0.10410723198E+02  0.28734783114E+02  0.35362642099E+02  0.46739569685E+02  0.00000000000E+00 0.  1.
        -13    1    4    4    0    0  0.59464980787E+02 -0.93667816680E+01 -0.30856359333E+03  0.31438083858E+03  0.00000000000E+00 0. -1.
         13    1    4    4    0    0 -0.24008336754E+02  0.21541286626E+02 -0.73241565880E+02  0.80029708457E+02  0.00000000000E+00 0.  1.
         21    1    1    2  502  501 -0.21829493593E+02  0.15105997110E+02  0.60189779748E+01  0.27220323934E+02  0.00000000000E+00 0.  1.
<scales pt_clust_5="13000.00000" pt_clust_6="13000.00000" pt_clust_7="13000.00000" pt_clust_8="13000.00000" pt_clust_9="26.54652"></scales>
<clustering>
<clus scale="   26.547">  1  9  2 -1</clus>
<clus scale="   91.537">  7  8 -1 -1</clus>
<clus scale="   93.666">  5  6 -1 -1</clus>
<clus scale="   98.427">  2  7  1 -1</clus>
<clus scale="   98.427">  2  5  1 -1</clus>
</clustering>
</event>
<event>
 9    1  0.1748361E-005  0.1347301E+03  0.7546771E-02  0.1222192E+00
          2   -1    0    0  502    0  0.00000000000E+00  0.00000000000E+00  0.12206568114E+03  0.12206568114E+03  0.00000000000E+00 0. -1.
         -2   -1    0    0    0  501 -0.00000000000E+00 -0.00000000000E+00 -0.24276113049E+03  0.24276113049E+03  0.00000000000E+00 0.  1.
         23    2    1    2    0    0 -0.52685010674E+01  0.10339799630E+03 -0.89795497743E+02  0.16159419495E+03  0.85618629306E+02 0.  0.
         23    2    1    2    0    0 -0.13324417440E+02 -0.95634386643E+02  0.31910762509E+02  0.13726932340E+03  0.92201379458E+02 0.  0.
        -11    1    3    3    0    0  0.37870154787E+02  0.70744550606E+02 -0.53231938283E+02  0.96294233043E+02  0.00000000000E+00 0.  1.
         11    1    3    3    0    0 -0.43138655854E+02  0.32653445694E+02 -0.36563559460E+02  0.65299961907E+02  0.00000000000E+00 0. -1.
        -13    1    4    4    0    0  0.29150437752E+02 -0.13584652077E+02  0.31297044332E+02  0.44875335955E+02  0.00000000000E+00 0.  1.
         13    1    4    4    0    0 -0.42474855192E+02 -0.82049734566E+02  0.61371817702E+00  0.92393987444E+02  0.00000000000E+00 0. -1.
         21    1    1    2  502  501  0.18592918507E+02 -0.77636096568E+01 -0.62810714110E+02  0.65963293282E+02  0.00000000000E+00 0. -1.
<scales pt_clust_5="13000.00000" pt_clust_6="13000.00000" pt_clust_7="13000.00000" pt_clust_8="13000.00000" pt_clust_9="20.14870"></scales>
<clustering>
<clus scale="   20.149">  2  9  1 -1</clus>
<clus scale="   85.619">  5  6 -1 -1</clus>
<clus scale="   92.201">  7  8 -1 -1</clus>
<clus scale="  130.314">  2  5  1 -1</clus>
<clus scale="  134.730">  1  5  2 -1</clus>
</clustering>
</event>
<event>
 9    1  0.1748361E-005  0.9312570E+02  0.7546771E-02  0.1296139E+00
          2   -1    0    0  502    0  0.00000000000E+00  0.00000000000E+00  0.78841287869E+02  0.78841287869E+02  0.00000000000E+00 0. -1.
         -2   -1    0    0    0  501 -0.00000000000E+00 -0.00000000000E+00 -0.27723740322E+03  0.27723740322E+03  0.00000000000E+00 0.  1.
         23    2    1    2    0    0  0.29718213959E+02  0.17519506533E+02 -0.18194415320E+03  0.20676037495E+03  0.91956905203E+02 0.  0.
         23    2    1    2    0    0 -0.15654149640E+01 -0.12856326987E+02  0.28554096445E+02  0.96027879429E+02  0.90764979680E+02 0.  0.
        -11    1    3    3    0    0 -0.20638351245E+02  0.36172792001E+02 -0.55518712140E+02  0.69402736408E+02  0.00000000000E+00 0. -1.
         11    1    3    3    0    0  0.50356565203E+02 -0.18653285468E+02 -0.12642544106E+03  0.13735763854E+03  0.00000000000E+00 0.  1.
        -13    1    4    4    0    0  0.38894599245E+02 -0.27449589381E+02  0.22280881314E+02  0.52561463828E+02  0.00000000000E+00 0.  1.
         13    1    4    4    0    0 -0.40460014209E+02  0.14593262394E+02  0.62732151304E+01  0.43466415601E+02  0.00000000000E+00 0. -1.
         21    1    1    2  502  501 -0.28152798995E+02 -0.46631795463E+01 -0.45006058595E+02  0.53290436712E+02  0.00000000000E+00 0.  1.
<scales pt_clust_5="13000.00000" pt_clust_6="13000.00000" pt_clust_7="13000.00000" pt_clust_8="13000.00000" pt_clust_9="28.53639"></scales>
<clustering>
<clus scale="   28.536">  2  9  1 -1</clus>
<clus scale="   90.765">  7  8 -1 -1</clus>
<clus scale="   91.949">  1  7  2 -1</clus>
<clus scale="   91.957">  5  6 -1 -1</clus>
<clus scale="   91.949">  1  5  2 -1</clus>
</clustering>
</event>
<event>
 9    1  0.1748361E-005  0.9900324E+02  0.7546771E-02  0.1287677E+00
          1   -1    0    0  502    0  0.00000000000E+00  0.00000000000E+00  0.40111770456E+02  0.40111770456E+02  0.00000000000E+00 0. -1.
         -1   -1    0    0    0  501 -0.00000000000E+00 -0.00000000000E+00 -0.30280938653E+03  0.30280938653E+03  0.00000000000E+00 0.  1.
         23    2    1    2    0    0  0.21936928222E+02 -0.23178227353E+02 -0.99091964280E+02  0.13321801168E+03  0.83122573391E+02 0.  0.
         23    2    1    2    0    0 -0.37815932676E+02  0.74595073679E+01 -0.98811939348E+02  0.14116522797E+03  0.93156498520E+02 0.  0.
        -13    1    4    4    0    0 -0.35761052085E+02 -0.33207771552E+02 -0.20565938573E+02  0.52958160534E+02  0.00000000000E+00 0. -1.
         13    1    4    4    0    0 -0.20548805909E+01  0.40667278920E+02 -0.78246000774E+02  0.88207067439E+02  0.00000000000E+00 0.  1.
        -13    1    3    3    0    0  0.23090594709E+02 -0.51479522434E+02 -0.83815118811E+02  0.10103608729E+03  0.00000000000E+00 0. -1.
         13    1    3    3    0    0 -0.11536664872E+01  0.28301295080E+02 -0.15276845469E+02  0.32181924384E+02  0.00000000000E+00 0.  1.
         21    1    1    2  502  501  0.15879004455E+02  0.15718719985E+02 -0.64793712449E+02  0.68537917341E+02  0.00000000000E+00 0.  1.
<scales pt_clust_5="13000.00000" pt_clust_6="13000.00000" pt_clust_7="13000.00000" pt_clust_8="13000.00000" pt_clust_9="22.34325"></scales>
<clustering>
<clus scale="   22.343">  2  9  1 -1</clus>
<clus scale="   83.123">  7  8 -1 -1</clus>
<clus scale="   89.626">  2  7  1 -1</clus>
<clus scale="   93.156">  5  6 -1 -1</clus>
<clus scale="   99.003">  1  5  2 -1</clus>
</clustering>
</event>
<event>
 9    1  0.1748361E-005  0.1081876E+03  0.7546771E-02  0.1268240E+00
         -1   -1    0    0    0  501 -0.00000000000E+00  0.00000000000E+00  0.61842875468E+02  0.61842875468E+02  0.00000000000E+00 0.  1.
          1   -1    0    0  502    0  0.00000000000E+00 -0.00000000000E+00 -0.51267228225E+03  0.51267228225E+03  0.00000000000E+00 0. -1.
         23    2    1    2    0    0  0.10815033037E+02  0.14442840005E+02 -0.42527808408E+02  0.10357179568E+03  0.92698121909E+02 0.  0.
         23    2    1    2    0    0  0.14754811866E+02 -0.39702096355E+02 -0.41911954258E+03  0.43340837947E+03  0.10191992688E+03 0.  0.
        -11    1    4    4    0    0 -0.38561927803E+02  0.73389428742E+01 -0.14578346362E+03  0.15097582795E+03  0.00000000000E+00 0.  1.
         11    1    4    4    0    0  0.53316739669E+02 -0.47041039229E+02 -0.27333607895E+03  0.28243255152E+03  0.00000000000E+00 0. -1.
        -13    1    3    3    0    0 -0.95376705003E+01  0.50962386295E+02 -0.30121047990E+02  0.59961733693E+02  0.00000000000E+00 0.  1.
         13    1    3    3    0    0  0.20352703537E+02 -0.36519546290E+02 -0.12406760418E+02  0.43610061987E+02  0.00000000000E+00 0. -1.
         21    1    1    2  502  501 -0.25569844902E+02  0.25259256350E+02  0.10817944204E+02  0.37534982569E+02  0.00000000000E+00 0.  1.
<scales pt_clust_5="13000.00000" pt_clust_6="13000.00000" pt_clust_7="13000.00000" pt_clust_8="13000.00000" pt_clust_9="35.94227"></scales>
<clustering>
<clus scale="   35.942">  1  9  2 -1</clus>
<clus scale="   92.698">  7  8 -1 -1</clus>
<clus scale="   99.548">  1  7  2 -1</clus>
<clus scale="  101.920">  5  6 -1 -1</clus>
<clus scale="  108.188">  2  5  1 -1</clus>
</clustering>
</event>
<event>
 9    1  0.1748361E-005  0.1372364E+03  0.7546771E-02  0.1217820E+00
          2   -1    0    0  502    0  0.00000000000E+00  0.00000000000E+00  0.46026041650E+03  0.46026041650E+03  0.00000000000E+00 0. -1.
         -2   -1    0    0    0  501 -0.00000000000E+00 -0.00000000000E+00 -0.57250291856E+02  0.57250291856E+02  0.00000000000E+00 0.  1.
         23    2    1    2    0    0  0.10341982822E+03  0.77866670472E+01  0.19625667587E+03  0.24372606377E+03  0.10064501124E+03 0.  0.
         23    2    1    2    0    0 -0.79358936055E+02 -0.74792646635E+01  0.21216140733E+03  0.24912157414E+03  0.10341815997E+03 0.  0.
        -11    1    3    3    0    0  0.77473558454E+01  0.39845389568E+02  0.35490542578E+02  0.53918968878E+02  0.00000000000E+00 0. -1.
         11    1    3    3    0    0  0.95672472372E+02 -0.32058722521E+02  0.16076613329E+03  0.18980709490E+03  0.00000000000E+00 0.  1.
        -13    1    4    4    0    0 -0.69730902097E+02  0.29739989831E+02  0.74863977851E+02  0.10654332866E+03  0.00000000000E+00 0.  1.
         13    1    4    4    0    0 -0.96280339580E+01 -0.37219254494E+02  0.13729742948E+03  0.14257824548E+03  0.00000000000E+00 0. -1.
         21    1    1    2  502  501 -0.24060892162E+02 -0.30740238366E+00 -0.54079585535E+01  0.24663070441E+02  0.00000000000E+00 0. -1.
<scales pt_clust_5="13000.00000" pt_clust_6="13000.00000" pt_clust_7="13000.00000" pt_clust_8="13000.00000" pt_clust_9="24.06286"></scales>
<clustering>
<clus scale="   24.063">  2  9  1 -1</clus>
<clus scale="  100.645">  5  6 -1 -1</clus>
<clus scale="  103.418">  7  8 -1 -1</clus>
<clus scale="  135.159">  2  5  1 -1</clus>
<clus scale="  137.236">  1  5  2 -1</clus>
</clustering>
</event>
<event>
 9    1  0.1748361E-005  0.1471088E+03  0.7546771E-02  0.1204163E+00
          1   -1    0    0  502    0  0.00000000000E+00  0.00000000000E+00  0.16131346582E+03  0.16131346582E+03  0.00000000000E+00 0. -1.
         -1   -1    0    0    0  501 -0.00000000000E+00 -0.00000000000E+00 -0.16927407258E+03  0.16927407258E+03  0.00000000000E+00 0.  1.
         23    2    1    2    0    0 -0.90166150990E+02 -0.60398033312E+02 -0.10562408515E+02  0.14225541858E+03  0.91362916056E+02 0.  0.
         23    2    1    2    0    0  0.83572423551E+02  0.92954076496E+02 -0.33338877486E+01  0.15458888940E+03  0.90894442085E+02 0.  0.
        -11    1    4    4    0    0  0.49125085961E+02  0.21849900704E+02  0.37597470248E+02  0.65606874643E+02  0.00000000000E+00 0. -1.
         11    1    4    4    0    0  0.34447337590E+02  0.71104175791E+02 -0.40931357996E+02  0.88982014753E+02  0.00000000000E+00 0.  1.
        -13    1    3    3    0    0 -0.67004792083E+02 -0.80421111535E+02  0.10336993991E+02  0.10518579176E+03  0.00000000000E+00 0. -1.
         13    1    3    3    0    0 -0.23161358907E+02  0.20023078223E+02 -0.20899402506E+02  0.37069626826E+02  0.00000000000E+00 0.  1.
         21    1    1    2  502  501  0.65937274389E+01 -0.32556043183E+02  0.59356895042E+01  0.33743230420E+02  0.00000000000E+00 0. -1.
<scales pt_clust_5="13000.00000" pt_clust_6="13000.00000" pt_clust_7="13000.00000" pt_clust_8="13000.00000" pt_clust_9="33.21706"></scales>
<clustering>
<clus scale="   33.217">  1  9  2 -1</clus>
<clus scale="   90.894">  5  6 -1 -1</clus>
<clus scale="   91.363">  7  8 -1 -1</clus>
<clus scale="  146.818">  1  5  2 -1</clus>
<clus scale="   33.217">  1  5  2 -1</clus>
</clustering>
</event>
<event>
 9    1  0.1748361E-005  0.1427099E+03  0.7546771E-02  0.1209928E+00
          2   -1    0    0  502    0  0.00000000000E+00  0.00000000000E+00  0.61724910720E+03  0.61724910720E+03  0.00000000000E+00 0. -1.
         -2   -1    0    0    0  501 -0.00000000000E+00 -0.00000000000E+00 -0.59365179222E+02  0.59365179222E+02  0.00000000000E+00 0.  1.
         23    2    1    2    0    0 -0.82506494037E+02  0.53153765613E+02  0.13068702174E+03  0.18648106653E+03  0.89796693519E+02 0.  0.
         23    2    1    2    0    0  0.85336614656E+02 -0.78181036069E+02  0.43851367220E+03  0.46252084873E+03  0.90756171156E+02 0.  0.
        -11    1    4    4    0    0  0.25400435982E+02 -0.37195945568E+01  0.18183005633E+02  0.31458531841E+02  0.00000000000E+00 0.  1.
         11    1    4    4    0    0  0.59936178674E+02 -0.74461441512E+02  0.42033066657E+03  0.43106231689E+03  0.00000000000E+00 0. -1.
        -11    1    3    3    0    0 -0.81365683788E+02  0.11295455922E+02  0.51643206987E+02  0.97030833505E+02  0.00000000000E+00 0. -1.
         11    1    3    3    0    0 -0.11408102491E+01  0.41858309691E+02  0.79043814749E+02  0.89450233025E+02  0.00000000000E+00 0.  1.
         21    1    1    2  502  501 -0.28301206187E+01  0.25027270456E+02 -0.11316765960E+02  0.27612371158E+02  0.00000000000E+00 0.  1.
<scales pt_clust_5="13000.00000" pt_clust_6="13000.00000" pt_clust_7="13000.00000" pt_clust_8="13000.00000" pt_clust_9="25.18678"></scales>
<clustering>
<clus scale="   25.187">  2  9  1 -1</clus>
<clus scale="   89.797">  7  8 -1 -1</clus>
<clus scale="   90.756">  5  6 -1 -1</clus>
<clus scale="  142.102">  2  7  1 -1</clus>
<clus scale="  142.710">  1  5  2 -1</clus>
</clustering>
</event>
<event>
 9    1  0.1748361E-005  0.9876462E+02  0.7546771E-02  0.1284011E+00
          2   -1    0    0  502    0  0.00000000000E+00  0.00000000000E+00  0.43673047556E+03  0.43673047556E+03  0.00000000000E+00 0. -1.
         -2   -1    0    0    0  501 -0.00000000000E+00 -0.00000000000E+00 -0.34594253271E+02  0.34594253271E+02  0.00000000000E+00 0.  1.
         23    2    1    2    0    0  0.30350182982E+02  0.20323647102E+02  0.90360621927E+02  0.13408757341E+03  0.92088278890E+02 0.  0.
         23    2    1    2    0    0 -0.37331508539E+02  0.18427674479E+01  0.28789388151E+03  0.30391411030E+03  0.89910300362E+02 0.  0.
        -11    1    3    3    0    0  0.52095980364E+02  0.41005394857E+01  0.93157184314E+02  0.10681323225E+03  0.00000000000E+00 0. -1.
         11    1    3    3    0    0 -0.21745797382E+02  0.16223107617E+02 -0.27965623868E+01  0.27274341160E+02  0.00000000000E+00 0.  1.
        -11    1    4    4    0    0  0.21787432871E+02 -0.22991968436E+02  0.12238546605E+03  0.12641805703E+03  0.00000000000E+00 0.  1.
         11    1    4    4    0    0 -0.59118941410E+02  0.24834735883E+02  0.16550841546E+03  0.17749605327E+03  0.00000000000E+00 0. -1.
         21    1    1    2  502  501  0.69813255567E+01 -0.22166414550E+02  0.23881718860E+02  0.33323045122E+02  0.00000000000E+00 0.  1.
<scales pt_clust_5="13000.00000" pt_clust_6="13000.00000" pt_clust_7="13000.00000" pt_clust_8="13000.00000" pt_clust_9="23.23981"></scales>
<clustering>
<clus scale="   23.240">  2  9  1 -1</clus>
<clus scale="   89.910">  7  8 -1 -1</clus>
<clus scale="   92.088">  5  6 -1 -1</clus>
<clus scale="   96.737">  1  7  2 -1</clus>
<clus scale="   96.737">  1  5  2 -1</clus>
</clustering>
</event>
<event>
 9    1  0.1748361E-005  0.1015035E+03  0.7546771E-02  0.1277357E+00
          1   -1    0    0  502    0  0.00000000000E+00  0.00000000000E+00  0.81773100950E+03  0.81773100950E+03  0.00000000000E+00 0. -1.
         -1   -1    0    0    0  501 -0.00000000000E+00 -0.00000000000E+00 -0.17442508611E+02  0.17442508611E+02  0.00000000000E+00 0.  1.
         23    2    1    2    0    0  0.29937395819E+02 -0.43782824927E+02  0.31454814150E+03  0.33264386315E+03  0.94330392480E+02 0.  0.
         23    2    1    2    0    0 -0.18295030101E+02  0.21416758772E+02  0.43440617833E+03  0.44533714024E+03  0.93931118507E+02 0.  0.
        -13    1    3    3    0    0  0.30352430334E+02 -0.66781496485E+02  0.28944451692E+03  0.29859532260E+03  0.00000000000E+00 0. -1.
         13    1    3    3    0    0 -0.41503451479E+00  0.22998671558E+02  0.25103624575E+02  0.34048540554E+02  0.00000000000E+00 0.  1.
        -13    1    4    4    0    0 -0.49415884944E+02  0.37387009749E+02  0.30853517885E+03  0.31469616263E+03  0.00000000000E+00 0.  1.
         13    1    4    4    0    0  0.31120854843E+02 -0.15970250977E+02  0.12587099948E+03  0.13064097762E+03  0.00000000000E+00 0. -1.
         21    1    1    2  502  501 -0.11642365718E+02  0.22366066155E+02  0.51334181065E+02  0.57192514724E+02  0.00000000000E+00 0.  1.
<scales pt_clust_5="13000.00000" pt_clust_6="13000.00000" pt_clust_7="13000.00000" pt_clust_8="13000.00000" pt_clust_9="25.21479"></scales>
<clustering>
<clus scale="   25.215">  2  9  1 -1</clus>
<clus scale="   93.931">  7  8 -1 -1</clus>
<clus scale="   94.330">  5  6 -1 -1</clus>
<clus scale="  101.133">  1  7  2 -1</clus>
<clus scale="  101.133">  1  5  2 -1</clus>
</clustering>
</event>
<event>
 9    1  0.1748361E-005  0.1390807E+03  0.7546771E-02  0.1231912E+00
         -2   -1    0    0    0  501 -0.00000000000E+00  0.00000000000E+00  0.65692258555E+02  0.65692258555E+02  0.00000000000E+00 0.  1.
          2   -1    0    0  502    0  0.00000000000E+00 -0.00000000000E+00 -0.85169354346E+03  0.85169354346E+03  0.00000000000E+00 0. -1.
         23    2    1    2    0    0  0.14436618863E+02  0.38605569160E+02 -0.10715952953E+03  0.14442344048E+03  0.87613694462E+02 0.  0.
         23    2    1    2    0    0  0.77856201362E+02  0.61991223430E+02 -0.60072413339E+03  0.61567268542E+03  0.90988302938E+02 0.  0.
        -11    1    3    3    0    0  0.40655092323E+02  0.38442126488E+02 -0.31193101579E+02  0.64059684723E+02  0.00000000000E+00 0.  1.
         11    1    3    3    0    0 -0.26218473459E+02  0.16344267179E+00 -0.75966427954E+02  0.80363755762E+02  0.00000000000E+00 0. -1.
        -13    1    4    4    0    0  0.71975320337E+02 -0.43576531153E+00 -0.33621299625E+03  0.34383108567E+03  0.00000000000E+00 0.  1.
         13    1    4    4    0    0  0.58808810254E+01  0.62426988742E+02 -0.26451113714E+03  0.27184159975E+03  0.00000000000E+00 0. -1.
         21    1    1    2  502  501 -0.92292820226E+02 -0.10059679259E+03 -0.78117621984E+02  0.15728967610E+03  0.00000000000E+00 0. -1.
<scales pt_clust_5="13000.00000" pt_clust_6="13000.00000" pt_clust_7="13000.00000" pt_clust_8="13000.00000" pt_clust_9="105.18828"></scales>
<clustering>
<clus scale="   87.614">  5  6 -1 -1</clus>
<clus scale="   90.988">  7  8 -1 -1</clus>
<clus scale="   96.824">  1  5  2 -1</clus>
<clus scale="  105.188">  1  9  2 -1</clus>
<clus scale="  139.081">  2  5  1 -1</clus>
</clustering>
</event>
<event>
 9    1  0.1748361E-005  0.1111583E+03  0.7546771E-02  0.1258810E+00
          1   -1    0    0  502    0  0.00000000000E+00  0.00000000000E+00  0.22538027777E+03  0.22538027777E+03  0.00000000000E+00 0. -1.
         -1   -1    0    0    0  501 -0.00000000000E+00 -0.00000000000E+00 -0.78539564310E+02  0.78539564310E+02  0.00000000000E+00 0.  1.
         23    2    1    2    0    0 -0.40533495432E+02  0.69958734515E+02  0.64356965799E+02  0.13845336429E+03  0.92142966363E+02 0.  0.
         23    2    1    2    0    0  0.22988856399E+02 -0.40703290729E+02  0.79824352198E+02  0.13124999442E+03  0.93109550727E+02 0.  0.
        -11    1    3    3    0    0  0.29637559965E+02  0.24172348230E+02  0.26381395791E+02  0.46461440179E+02  0.00000000000E+00 0. -1.
         11    1    3    3    0    0 -0.70171055397E+02  0.45786386285E+02  0.37975570008E+02  0.91991924113E+02  0.00000000000E+00 0.  1.
        -13    1    4    4    0    0  0.50006635330E+02  0.37772358628E+01  0.26426599629E+02  0.56685944076E+02  0.00000000000E+00 0.  1.
         13    1    4    4    0    0 -0.27017778931E+02 -0.44480526592E+02  0.53397752569E+02  0.74564050344E+02  0.00000000000E+00 0. -1.
         21    1    1    2  502  501  0.17544639033E+02 -0.29255443786E+02  0.26593954652E+01  0.34216483370E+02  0.00000000000E+00 0. -1.
<scales pt_clust_5="13000.00000" pt_clust_6="13000.00000" pt_clust_7="13000.00000" pt_clust_8="13000.00000" pt_clust_9="34.11298"></scales>
<clustering>
<clus scale="   34.113">  2  9  1 -1</clus>
<clus scale="   92.143">  5  6 -1 -1</clus>
<clus scale="   93.110">  7  8 -1 -1</clus>
<clus scale="  110.350">  2  5  1 -1</clus>
<clus scale="  111.158">  1  5  2 -1</clus>
</clustering>
</event>
<event>
 9    1  0.1748361E-005  0.9734425E+02  0.7546771E-02  0.1293429E+00
          1   -1    0    0  502    0  0.00000000000E+00  0.00000000000E+00  0.46685308386E+02  0.46685308386E+02  0.00000000000E+00 0. -1.
         -1   -1    0    0    0  501 -0.00000000000E+00 -0.00000000000E+00 -0.26536600395E+03  0.26536600395E+03  0.00000000000E+00 0.  1.
         23    2    1    2    0    0  0.31086470355E+02  0.30917520072E+02 -0.10062986756E+03  0.14301714010E+03  0.91680261937E+02 0.  0.
         23    2    1    2    0    0  0.42365890413E+01 -0.30895440686E+02 -0.70065935118E+02  0.10945003880E+03  0.78087123062E+02 0.  0.
        -11    1    3    3    0    0  0.25228541594E+02 -0.98635411218E+01 -0.98065299051E+02  0.10173775913E+03  0.00000000000E+00 0.  1.
         11    1    3    3    0    0  0.58579287607E+01  0.40781061194E+02 -0.25645685126E+01  0.41279380968E+02  0.00000000000E+00 0. -1.
        -11    1    4    4    0    0 -0.25861947312E+02 -0.42307211110E+02 -0.54542481899E+02  0.73713111198E+02  0.00000000000E+00 0.  1.
         11    1    4    4    0    0  0.30098536353E+02  0.11411770425E+02 -0.15523453219E+02  0.35736927605E+02  0.00000000000E+00 0. -1.
         21    1    1    2  502  501 -0.35323059396E+02 -0.22079386177E-01 -0.47984892879E+02  0.59584133435E+02  0.00000000000E+00 0.  1.
<scales pt_clust_5="13000.00000" pt_clust_6="13000.00000" pt_clust_7="13000.00000" pt_clust_8="13000.00000" pt_clust_9="35.32307"></scales>
<clustering>
<clus scale="   35.323">  2  9  1 -1</clus>
<clus scale="   78.087">  7  8 -1 -1</clus>
<clus scale="   84.665">  1  7  2 -1</clus>
<clus scale="   91.680">  5  6 -1 -1</clus>
<clus scale="   84.665">  1  5  2 -1</clus>
</clustering>
</event>
<event>
 9    1  0.1748361E-005  0.9359318E+02  0.7546771E-02  0.1296377E+00
         -2   -1    0    0    0  501 -0.00000000000E+00  0.00000000000E+00  0.21094592244E+02  0.21094592244E+02  0.00000000000E+00 0.  1.
          2   -1    0    0  502    0  0.00000000000E+00 -0.00000000000E+00 -0.67401326601E+03  0.67401326601E+03  0.00000000000E+00 0. -1.
         23    2    1    2    0    0  0.17759533061E+02  0.75073243660E+01 -0.22307330348E+03  0.24016216676E+03  0.86858544108E+02 0.  0.
         23    2    1    2    0    0  0.22493390401E+01 -0.34492510774E+02 -0.39443769833E+03  0.40613730613E+03  0.90397017337E+02 0.  0.
        -13    1    3    3    0    0 -0.25085333754E+02 -0.19366330744E+02 -0.13434162122E+03  0.13802898220E+03  0.00000000000E+00 0. -1.
         13    1    3    3    0    0  0.42844866815E+02  0.26873655110E+02 -0.88731682262E+02  0.10213318456E+03  0.00000000000E+00 0.  1.
        -13    1    4    4    0    0  0.26809438964E+02  0.22279506171E+02 -0.14937668031E+03  0.15339007476E+03  0.00000000000E+00 0.  1.
         13    1    4    4    0    0 -0.24560099924E+02 -0.56772016945E+02 -0.24506101801E+03  0.25274723137E+03  0.00000000000E+00 0. -1.
         21    1    1    2  502  501 -0.20008872101E+02  0.26985186408E+02 -0.35407671960E+02  0.48808385364E+02  0.00000000000E+00 0.  1.
<scales pt_clust_5="13000.00000" pt_clust_6="13000.00000" pt_clust_7="13000.00000" pt_clust_8="13000.00000" pt_clust_9="33.59398"></scales>
<clustering>
<clus scale="   33.594">  1  9  2 -1</clus>
<clus scale="   86.859">  5  6 -1 -1</clus>
<clus scale="   90.180">  1  5  2 -1</clus>
<clus scale="   90.397">  7  8 -1 -1</clus>
<clus scale="   93.593">  2  5  1 -1</clus>
</clustering>
</event>
<event>
 9    1  0.1748361E-005  0.1071752E+03  0.7546771E-02  0.1272427E+00
         -1   -1    0    0    0  501 -0.00000000000E+00  0.00000000000E+00  0.72525022349E+02  0.72525022349E+02  0.00000000000E+00 0.  1.
          1   -1    0    0  502    0  0.00000000000E+00 -0.00000000000E+00 -0.25564557179E+03  0.25564557179E+03  0.00000000000E+00 0. -1.
         23    2    1    2    0    0 -0.16640636537E+02  0.43333298834E+01 -0.64607060738E+02  0.11450712115E+03  0.92963003206E+02 0.  0.
         23    2    1    2    0    0 -0.88171970247E+01  0.34037987081E+02 -0.12456114739E+03  0.16721959900E+03  0.10588006103E+03 0.  0.
        -11    1    4    4    0    0 -0.57266850623E+02  0.14700811009E+02 -0.72021641009E+02  0.93181128981E+02  0.00000000000E+00 0. -1.
         11    1    4    4    0    0  0.48449653598E+02  0.19337176071E+02 -0.52539506383E+02  0.74038470022E+02  0.00000000000E+00 0.  1.
        -13    1    3    3    0    0 -0.15786968765E+02 -0.40099255981E+02 -0.10253140168E+02  0.44297918645E+02  0.00000000000E+00 0. -1.
         13    1    3    3    0    0 -0.85366777211E+00  0.44432585864E+02 -0.54353920570E+02  0.70209202506E+02  0.00000000000E+00 0.  1.
         21    1    1    2  502  501  0.25457833562E+02 -0.38371316964E+02  0.60476586873E+01  0.46443873986E+02  0.00000000000E+00 0.  1.
<scales pt_clust_5="13000.00000" pt_clust_6="13000.00000" pt_clust_7="13000.00000" pt_clust_8="13000.00000" pt_clust_9="46.04844"></scales>
<clustering>
<clus scale="   46.048">  1  9  2 -1</clus>
<clus scale="   92.963">  7  8 -1 -1</clus>
<clus scale="   94.435">  1  7  2 -1</clus>
<clus scale="  105.880">  5  6 -1 -1</clus>
<clus scale="  107.175">  2  5  1 -1</clus>
</clustering>
</event>
<event>
 9    1  0.1748361E-005  0.1947925E+03  0.7546771E-02  0.1175144E+00
         -1   -1    0    0    0  501 -0.00000000000E+00  0.00000000000E+00  0.22514488468E+03  0.22514488468E+03  0.00000000000E+00 0.  1.
          1   -1    0    0  502    0  0.00000000000E+00 -0.00000000000E+00 -0.47601840712E+03  0.47601840712E+03  0.00000000000E+00 0. -1.
         23    2    1    2    0    0  0.19330527705E+03 -0.91494757936E+02 -0.17454429081E+03  0.28973736778E+03  0.87998931645E+02 0.  0.
         23    2    1    2    0    0 -0.27173627389E+02  0.70842845629E+02 -0.17860694238E+03  0.21524499575E+03  0.93128156455E+02 0.  0.
        -13    1    3    3    0    0  0.25226072991E+02  0.97998916935E+01 -0.51309160956E+02  0.58008815138E+02  0.00000000000E+00 0. -1.
         13    1    3    3    0    0  0.16807920406E+03 -0.10129464963E+03 -0.12323512985E+03  0.23172855265E+03  0.00000000000E+00 0.  1.
        -13    1    4    4    0    0 -0.60480059038E+02  0.30329663725E+02 -0.10252940111E+03  0.12284137794E+03  0.00000000000E+00 0.  1.
         13    1    4    4    0    0  0.33306431650E+02  0.40513181904E+02 -0.76077541274E+02  0.92403617805E+02  0.00000000000E+00 0. -1.
         21    1    1    2  502  501 -0.16613164967E+03  0.20651912307E+02  0.10227771075E+03  0.19618092828E+03  0.00000000000E+00 0.  1.
<scales pt_clust_5="13000.00000" pt_clust_6="13000.00000" pt_clust_7="13000.00000" pt_clust_8="13000.00000" pt_clust_9="173.78241"></scales>
<clustering>
<clus scale="   87.999">  5  6 -1 -1</clus>
<clus scale="   93.128">  7  8 -1 -1</clus>
<clus scale="  120.125">  2  7  1 -1</clus>
<clus scale="  173.782">  1  9  2 -1</clus>
<clus scale="  120.125">  2  5  1 -1</clus>
</clustering>
</event>
<event>
 9    1  0.1748361E-005  0.3957632E+03  0.7546771E-02  0.1045283E+00
         -2   -1    0    0    0  501 -0.00000000000E+00  0.00000000000E+00  0.19503975655E+03  0.19503975655E+03  0.00000000000E+00 0.  1.
          2   -1    0    0  502    0  0.00000000000E+00 -0.00000000000E+00 -0.11093574734E+04  0.11093574734E+04  0.00000000000E+00 0. -1.
         23    2    1    2    0    0 -0.13141870692E+03  0.38124064803E+03 -0.31036520438E+03  0.51709995345E+03  0.91926565982E+02 0.  0.
         23    2    1    2    0    0  0.11503879640E+03 -0.35733175820E+03 -0.63601575768E+03  0.74407704766E+03  0.90634975308E+02 0.  0.
        -11    1    4    4    0    0  0.12541974832E+03 -0.32024955380E+03 -0.59868553146E+03  0.69044496925E+03  0.00000000000E+00 0.  1.
         11    1    4    4    0    0 -0.10380951922E+02 -0.37082204395E+02 -0.37330226220E+02  0.53632078416E+02  0.00000000000E+00 0. -1.
        -11    1    3    3    0    0  0.14321198587E+02  0.42033948557E+02 -0.34056576882E+02  0.55962487340E+02  0.00000000000E+00 0.  1.
         11    1    3    3    0    0 -0.14573990551E+03  0.33920669947E+03 -0.27630862749E+03  0.46113746611E+03  0.00000000000E+00 0. -1.
         21    1    1    2  502  501  0.16379910527E+02 -0.23908889834E+02  0.32063245243E+02  0.43220228800E+02  0.00000000000E+00 0.  1.
<scales pt_clust_5="13000.00000" pt_clust_6="13000.00000" pt_clust_7="13000.00000" pt_clust_8="13000.00000" pt_clust_9="28.98166"></scales>
<clustering>
<clus scale="   28.982">  1  9  2 -1</clus>
<clus scale="   90.635">  5  6 -1 -1</clus>
<clus scale="   91.927">  7  8 -1 -1</clus>
<clus scale="  395.465">  2  5  1 -1</clus>
<clus scale="  395.465">  2  5  1 -1</clus>
</clustering>
</event>
<event>
 9    1  0.1748361E-005  0.1205282E+03  0.7546771E-02  0.1244296E+00
         -1   -1    0    0    0  501 -0.00000000000E+00  0.00000000000E+00  0.25930499906E+02  0.25930499906E+02  0.00000000000E+00 0.  1.
          1   -1    0    0  502    0  0.00000000000E+00 -0.00000000000E+00 -0.68615219224E+03  0.68615219224E+03  0.00000000000E+00 0. -1.
         23    2    1    2    0    0 -0.22024431888E+02  0.91223455243E+02 -0.28000671518E+03  0.30891567099E+03  0.90655043166E+02 0.  0.
         23    2    1    2    0    0  0.11687643902E+02 -0.69502969244E+02 -0.32298212357E+03  0.34108459025E+03  0.83987986080E+02 0.  0.
        -11    1    4    4    0    0  0.46643579055E+02 -0.51918883102E+02 -0.18765309555E+03  0.20021208295E+03  0.00000000000E+00 0. -1.
         11    1    4    4    0    0 -0.34955935153E+02 -0.17584086142E+02 -0.13532902802E+03  0.14087250730E+03  0.00000000000E+00 0.  1.
        -13    1    3    3    0    0  0.40914390740E+00  0.81496701787E+02 -0.27078454467E+03  0.28278286623E+03  0.00000000000E+00 0. -1.
         13    1    3    3    0    0 -0.22433575795E+02  0.97267534559E+01 -0.92221705100E+01  0.26132804761E+02  0.00000000000E+00 0.  1.
         21    1    1    2  502  501  0.10336787986E+02 -0.21720485999E+02 -0.57232853578E+02  0.62082430901E+02  0.00000000000E+00 0. -1.
<scales pt_clust_5="13000.00000" pt_clust_6="13000.00000" pt_clust_7="13000.00000" pt_clust_8="13000.00000" pt_clust_9="24.05470"></scales>
<clustering>
<clus scale="   24.055">  1  9  2 -1</clus>
<clus scale="   83.988">  5  6 -1 -1</clus>
<clus scale="   90.655">  7  8 -1 -1</clus>
<clus scale="  115.597">  2  5  1 -1</clus>
<clus scale="  115.597">  2  5  1 -1</clus>
</clustering>
</event>
<event>
 9    1  0.1748361E-005  0.9598719E+02  0.7546771E-02  0.1289467E+00
          2   -1    0    0  502    0  0.00000000000E+00  0.00000000000E+00  0.27716623901E+03  0.27716623901E+03  0.00000000000E+00 0. -1.
         -2   -1    0    0    0  501 -0.00000000000E+00 -0.00000000000E+00 -0.54315679119E+02  0.54315679119E+02  0.00000000000E+00 0.  1.
         23    2    1    2    0    0  0.30184282275E+02  0.23697302836E+02  0.31420785016E+02  0.10203914936E+03  0.89174375321E+02 0.  0.
         23    2    1    2    0    0 -0.10901361532E+02 -0.30829651057E+02  0.18418420415E+03  0.20764369266E+03  0.90126438837E+02 0.  0.
        -13    1    3    3    0    0  0.26797469666E+02 -0.27943569932E+02 -0.45957444813E+01  0.38988053919E+02  0.00000000000E+00 0.  1.
         13    1    3    3    0    0  0.33868126081E+01  0.51640872768E+02  0.36016529497E+02  0.63051095446E+02  0.00000000000E+00 0. -1.
        -13    1    4    4    0    0  0.19204131774E+02  0.24524954572E+02  0.80469513244E+02  0.86287975035E+02  0.00000000000E+00 0. -1.
         13    1    4    4    0    0 -0.30105493305E+02 -0.55354605630E+02  0.10371469091E+03  0.12135571763E+03  0.00000000000E+00 0.  1.
         21    1    1    2  502  501 -0.19282920743E+02  0.71323482215E+01  0.72455707202E+01  0.21799076095E+02  0.00000000000E+00 0. -1.
<scales pt_clust_5="13000.00000" pt_clust_6="13000.00000" pt_clust_7="13000.00000" pt_clust_8="13000.00000" pt_clust_9="20.55970"></scales>
<clustering>
<clus scale="   20.560">  2  9  1 -1</clus>
<clus scale="   89.174">  5  6 -1 -1</clus>
<clus scale="   90.126">  7  8 -1 -1</clus>
<clus scale="   95.094">  2  5  1 -1</clus>
<clus scale="   95.987">  1  5  2 -1</clus>
</clustering>
</event>
<event>
 9    1  0.1748361E-005  0.2392832E+03  0.7546771E-02  0.1120312E+00
          1   -1    0    0  502    0  0.00000000000E+00  0.00000000000E+00  0.97954794003E+03  0.97954794003E+03  0.00000000000E+00 0. -1.
         -1   -1    0    0    0  501 -0.00000000000E+00 -0.00000000000E+00 -0.12306081095E+03  0.12306081095E+03  0.00000000000E+00 0.  1.
         23    2    1    2    0    0  0.33110599332E+02 -0.23558113539E+03  0.79865040181E+02  0.26670795665E+03  0.90332310706E+02 0.  0.
         23    2    1    2    0    0  0.38007316785E+02  0.16605296514E+03  0.62977391381E+03  0.65854152342E+03  0.89686187239E+02 0.  0.
        -11    1    4    4    0    0  0.48452296320E+02  0.53127986031E+02  0.33667153405E+03  0.34426433123E+03  0.00000000000E+00 0. -1.
         11    1    4    4    0    0 -0.10444979535E+02  0.11292497911E+03  0.29310237977E+03  0.31427719219E+03  0.00000000000E+00 0.  1.
        -13    1    3    3    0    0  0.29066382455E+02 -0.68718735484E+02  0.65317170555E+02  0.99163763366E+02  0.00000000000E+00 0. -1.
         13    1    3    3    0    0  0.40442168762E+01 -0.16686239991E+03  0.14547869626E+02  0.16754419328E+03  0.00000000000E+00 0.  1.
         21    1    1    2  502  501 -0.71117916117E+02  0.69528170247E+02  0.14684817509E+03  0.17735927091E+03  0.00000000000E+00 0. -1.
<scales pt_clust_5="13000.00000" pt_clust_6="13000.00000" pt_clust_7="13000.00000" pt_clust_8="13000.00000" pt_clust_9="99.45815"></scales>
<clustering>
<clus scale="   89.686">  5  6 -1 -1</clus>
<clus scale="   90.332">  7  8 -1 -1</clus>
<clus scale="   99.458">  1  9  2 -1</clus>
<clus scale="  239.040">  1  5  2 -1</clus>
<clus scale="   99.458">  1  5  2 -1</clus>
</clustering>
</event>
<event>
 9    1  0.1748361E-005  0.1224787E+03  0.7546771E-02  0.1239404E+00
          2   -1    0    0  502    0  0.00000000000E+00  0.00000000000E+00  0.77308289634E+02  0.77308289634E+02  0.00000000000E+00 0. -1.
         -2   -1    0    0    0  501 -0.00000000000E+00 -0.00000000000E+00 -0.33965056073E+03  0.33965056073E+03  0.00000000000E+00 0.  1.
         23    2    1    2    0    0  0.47627889455E+02  0.75629120613E+02 -0.11231411222E+03  0.17044614175E+03  0.91919789461E+02 0.  0.
         23    2    1    2    0    0 -0.62550940407E+02 -0.47074991342E+02 -0.31875502767E+02  0.12404603603E+03  0.90789296850E+02 0.  0.
        -13    1    3    3    0    0  0.79978995426E+01  0.73509089783E+02 -0.10749043721E+03  0.13046741651E+03  0.00000000000E+00 0.  1.
         13    1    3    3    0    0  0.39629989912E+02  0.21200308306E+01 -0.48236750027E+01  0.39978725239E+02  0.00000000000E+00 0. -1.
        -13    1    4    4    0    0 -0.61615454975E+02  0.10154806159E+02 -0.20176089207E+02  0.65625139661E+02  0.00000000000E+00 0.  1.
         13    1    4    4    0    0 -0.93548543233E+00 -0.57229797500E+02 -0.11699413560E+02  0.58420896369E+02  0.00000000000E+00 0. -1.
         21    1    1    2  502  501  0.14923050952E+02 -0.28554129272E+02 -0.11815265612E+03  0.12246667259E+03  0.00000000000E+00 0. -1.
<scales pt_clust_5="13000.00000" pt_clust_6="13000.00000" pt_clust_7="13000.00000" pt_clust_8="13000.00000" pt_clust_9="32.21856"></scales>
<clustering>
<clus scale="   32.219">  2  9  1 -1</clus>
<clus scale="   90.789">  7  8 -1 -1</clus>
<clus scale="   91.920">  5  6 -1 -1</clus>
<clus scale="  121.633">  1  7  2 -1</clus>
<clus scale="  121.633">  1  5  2 -1</clus>
</clustering>
</event>
