<event>
 9    1  0.3231311E-005  0.2480293E+03  0.7546771E-02  0.1114670E+00
          1   -1    0    0  502    0 -0.00000000000E+00  0.00000000000E+00  0.61434710448E+03  0.61434710448E+03  0.00000000000E+00 0. -1.
         21   -1    0    0  501  502  0.00000000000E+00 -0.00000000000E+00 -0.32189916875E+03  0.32189916875E+03  0.00000000000E+00 0.  1.
         23    2    1    2    0    0  0.16032674919E+03 -0.12683827781E+03  0.31897042166E+03  0.38943568829E+03  0.90141057183E+02 0.  0.
         23    2    1    2    0    0 -0.23134272704E+03  0.27343589458E+03  0.37663597334E+02  0.37172779413E+03  0.92067152463E+02 0.  0.
        -11    1    4    4    0    0 -0.14921427803E+03  0.17907335277E+03 -0.20061270792E+02  0.23395431397E+03  0.00000000000E+00 0.  1.
         11    1    4    4    0    0 -0.82128449016E+02  0.94362541807E+02  0.57724868126E+02  0.13777348016E+03  0.00000000000E+00 0. -1.
        -11    1    3    3    0    0  0.56826606377E+02 -0.95015547340E+02  0.19976297874E+03  0.22839103552E+03  0.00000000000E+00 0. -1.
         11    1    3    3    0    0  0.10350014282E+03 -0.31822730466E+02  0.11920744292E+03  0.16104465277E+03  0.00000000000E+00 0.  1.
          1    1    1    2  501    0  0.71015977851E+02 -0.14659761677E+03 -0.64186083268E+02  0.17508279081E+03  0.00000000000E+00 0. -1.
<scales pt_clust_5="13000.00000" pt_clust_6="13000.00000" pt_clust_7="13000.00000" pt_clust_8="13000.00000" pt_clust_9="162.89300"></scales>
<clustering>
<clus scale="   90.141">  7  8 -1 -1</clus>
<clus scale="   92.067">  5  6 -1 -1</clus>
<clus scale="  162.893">  2  9  1 -1</clus>
<clus scale="  247.321">  1  7  2 -1</clus>
<clus scale="  162.893">  2  5  1 -1</clus>
</clustering>
</event>
<event>
 9    1  0.3231311E-005  0.1526692E+03  0.7546771E-02  0.1210071E+00
         21   -1    0    0  501  502  0.00000000000E+00  0.00000000000E+00  0.57838467779E+02  0.57838467779E+02  0.00000000000E+00 0. -1.
          2   -1    0    0  502    0 -0.00000000000E+00 -0.00000000000E+00 -0.10773667187E+04  0.10773667187E+04  0.00000000000E+00 0. -1.
         23    2    1    2    0    0 -0.46854771136E+02  0.64626225835E+02 -0.42662455530E+03  0.44203892695E+03  0.83773403353E+02 0.  0.
         23    2    1    2    0    0  0.15874416996E+03 -0.33025442947E+02 -0.52777775506E+03  0.55990247907E+03  0.93010945358E+02 0.  0.
        -11    1    3    3    0    0  0.24231502484E+02  0.11827845632E+02 -0.11102347013E+03  0.11425092807E+03  0.00000000000E+00 0. -1.
         11    1    3    3    0    0 -0.71086273620E+02  0.52798380202E+02 -0.31560108517E+03  0.32778799888E+03  0.00000000000E+00 0.  1.
        -13    1    4    4    0    0  0.58100677764E+01  0.22120745376E+02 -0.44853618246E+02  0.50348101586E+02  0.00000000000E+00 0.  1.
         13    1    4    4    0    0  0.15293410218E+03 -0.55146188323E+02 -0.48292413682E+03  0.50955437749E+03  0.00000000000E+00 0. -1.
          2    1    1    2  501    0 -0.11188939883E+03 -0.31600782887E+02 -0.65125940565E+02  0.13326378046E+03  0.00000000000E+00 0. -1.
<scales pt_clust_5="13000.00000" pt_clust_6="13000.00000" pt_clust_7="13000.00000" pt_clust_8="13000.00000" pt_clust_9="121.06543"></scales>
<clustering>
<clus scale="   83.773">  5  6 -1 -1</clus>
<clus scale="   93.011">  7  8 -1 -1</clus>
<clus scale="  115.715">  2  5  1 -1</clus>
<clus scale="  121.065">  1  9  2 -1</clus>
<clus scale="  121.065">  1  5  2 -1</clus>
</clustering>
</event>
<event>
 9    1  0.3231311E-005  0.1219307E+03  0.7546771E-02  0.1240970E+00
         21   -1    0    0  501  502  0.00000000000E+00  0.00000000000E+00  0.15802295166E+03  0.15802295166E+03  0.00000000000E+00 0.  1.
          1   -1    0    0  502    0 -0.00000000000E+00 -0.00000000000E+00 -0.14560225448E+03  0.14560225448E+03  0.00000000000E+00 0. -1.
         23    2    1    2    0    0  0.44092162398E+01 -0.66048836569E+02 -0.38301709323E+02  0.12098165231E+03  0.93742462412E+02 0.  0.
         23    2    1    2    0    0 -0.12280875830E+02  0.99682241071E+02  0.20428799454E+02  0.13669933166E+03  0.90454421303E+02 0.  0.
        -11    1    3    3    0    0 -0.11951129618E+02 -0.17610981536E+02 -0.61323062821E+02  0.64911433535E+02  0.00000000000E+00 0. -1.
         11    1    3    3    0    0  0.16360345858E+02 -0.48437855033E+02  0.23021353498E+02  0.56070218777E+02  0.00000000000E+00 0.  1.
        -13    1    4    4    0    0 -0.46447057046E+02  0.85772826767E+02  0.21129662492E+02  0.99803655028E+02  0.00000000000E+00 0. -1.
         13    1    4    4    0    0  0.34166181216E+02  0.13909414304E+02 -0.70086303886E+00  0.36895676633E+02  0.00000000000E+00 0.  1.
          1    1    1    2  501    0  0.78716595902E+01 -0.33633404501E+02  0.30293607041E+02  0.45944222168E+02  0.00000000000E+00 0. -1.
<scales pt_clust_5="13000.00000" pt_clust_6="13000.00000" pt_clust_7="13000.00000" pt_clust_8="13000.00000" pt_clust_9="34.54228"></scales>
<clustering>
<clus scale="   34.542">  1  9  2 -1</clus>
<clus scale="   90.454">  7  8 -1 -1</clus>
<clus scale="   93.742">  5  6 -1 -1</clus>
<clus scale="  119.421">  1  7  2 -1</clus>
<clus scale="   34.542">  1  5  2 -1</clus>
</clustering>
</event>
<event>
 9    1  0.3231311E-005  0.2661551E+03  0.7546771E-02  0.1111601E+00
         21   -1    0    0  501  502  0.00000000000E+00  0.00000000000E+00  0.39376496623E+03  0.39376496623E+03  0.00000000000E+00 0.  1.
         -2   -1    0    0    0  501 -0.00000000000E+00 -0.00000000000E+00 -0.50821314323E+03  0.50821314323E+03  0.00000000000E+00 0.  1.
         23    2    1    2    0    0  0.10897419147E+03  0.16448022809E+03 -0.14634675568E+03  0.26118099974E+03  0.88707507502E+02 0.  0.
         23    2    1    2    0    0 -0.29291185579E+03  0.12984497067E+02 -0.13615711973E+03  0.33490577149E+03  0.87505211837E+02 0.  0.
        -11    1    4    4    0    0 -0.15042873884E+03 -0.31903484915E+02 -0.46375434511E+02  0.16061543744E+03  0.00000000000E+00 0.  1.
         11    1    4    4    0    0 -0.14248311695E+03  0.44887981982E+02 -0.89781685220E+02  0.17429033405E+03  0.00000000000E+00 0. -1.
        -11    1    3    3    0    0  0.87687983495E+02  0.52271112134E+02 -0.71349743383E+02  0.12454813324E+03  0.00000000000E+00 0.  1.
         11    1    3    3    0    0  0.21286207976E+02  0.11220911596E+03 -0.74997012301E+02  0.13663286650E+03  0.00000000000E+00 0. -1.
         -2    1    1    2    0  502  0.18393766432E+03 -0.17746472516E+03  0.16805569842E+03  0.30589133823E+03  0.00000000000E+00 0.  1.
<scales pt_clust_5="13000.00000" pt_clust_6="13000.00000" pt_clust_7="13000.00000" pt_clust_8="13000.00000" pt_clust_9="251.35902"></scales>
<clustering>
<clus scale="   87.505">  5  6 -1 -1</clus>
<clus scale="   88.708">  7  8 -1 -1</clus>
<clus scale="  216.329">  2  7  1 -1</clus>
<clus scale="  251.359">  1  9  2 -1</clus>
<clus scale="  251.359">  1  5  2 -1</clus>
</clustering>
</event>
<event>
 9    1  0.3231311E-005  0.9191847E+02  0.7546771E-02  0.1298847E+00
         -3   -1    0    0    0  501 -0.00000000000E+00  0.00000000000E+00  0.16394640542E+03  0.16394640542E+03  0.00000000000E+00 0.  1.
         21   -1    0    0  501  502  0.00000000000E+00 -0.00000000000E+00 -0.91143703938E+02  0.91143703938E+02  0.00000000000E+00 0.  1.
         23    2    1    2    0    0  0.79623499568E+01  0.10069043639E+02  0.77498582654E+02  0.12075520089E+03  0.91711523656E+02 0.  0.
         23    2    1    2    0    0  0.18857655665E+02  0.13489999479E+01  0.21498282709E+02  0.95145386374E+02  0.90736086596E+02 0.  0.
        -13    1    3    3    0    0  0.36236430981E+02  0.38221602695E+02  0.42392666634E+02  0.67609969880E+02  0.00000000000E+00 0.  1.
         13    1    3    3    0    0 -0.28274081025E+02 -0.28152559056E+02  0.35105916021E+02  0.53145231007E+02  0.00000000000E+00 0. -1.
        -13    1    4    4    0    0 -0.29560241978E+02  0.80873944708E+01  0.32885732006E+02  0.44952032487E+02  0.00000000000E+00 0. -1.
         13    1    4    4    0    0  0.48417897643E+02 -0.67383945229E+01 -0.11387449297E+02  0.50193353887E+02  0.00000000000E+00 0.  1.
         -3    1    1    2    0  502 -0.26820005622E+02 -0.11418043587E+02 -0.26194163880E+02  0.39189522098E+02  0.00000000000E+00 0.  1.
<scales pt_clust_5="13000.00000" pt_clust_6="13000.00000" pt_clust_7="13000.00000" pt_clust_8="13000.00000" pt_clust_9="29.14935"></scales>
<clustering>
<clus scale="   29.149">  2  9  1 -1</clus>
<clus scale="   90.736">  7  8 -1 -1</clus>
<clus scale="   90.945">  2  7  1 -1</clus>
<clus scale="   91.712">  5  6 -1 -1</clus>
<clus scale="   29.149">  2  5  1 -1</clus>
</clustering>
</event>
<event>
 9    1  0.3231311E-005  0.1012877E+03  0.7546771E-02  0.1277958E+00
         21   -1    0    0  501  502  0.00000000000E+00  0.00000000000E+00  0.32778696959E+03  0.32778696959E+03  0.00000000000E+00 0. -1.
         -2   -1    0    0    0  501 -0.00000000000E+00 -0.00000000000E+00 -0.67500326172E+02  0.67500326172E+02  0.00000000000E+00 0.  1.
         23    2    1    2    0    0 -0.39843282019E+02 -0.74547795566E+01  0.19770801502E+02  0.10224543537E+03  0.91761558404E+02 0.  0.
         23    2    1    2    0    0  0.53289894610E+02 -0.38966738606E+02  0.20222023170E+03  0.23137888528E+03  0.91021683450E+02 0.  0.
        -13    1    4    4    0    0  0.45669350092E+02  0.20633317034E+02  0.69423616609E+02  0.85621620241E+02  0.00000000000E+00 0.  1.
         13    1    4    4    0    0  0.76205445178E+01 -0.59600055640E+02  0.13279661509E+03  0.14575726504E+03  0.00000000000E+00 0. -1.
        -13    1    3    3    0    0  0.37112866354E+01 -0.41308448645E+02  0.22171642509E+02  0.47029175089E+02  0.00000000000E+00 0. -1.
         13    1    3    3    0    0 -0.43554568654E+02  0.33853669089E+02 -0.24008410074E+01  0.55216260277E+02  0.00000000000E+00 0.  1.
         -2    1    1    2    0  502 -0.13446612591E+02  0.46421518163E+02  0.38295610217E+02  0.61662975120E+02  0.00000000000E+00 0.  1.
<scales pt_clust_5="13000.00000" pt_clust_6="13000.00000" pt_clust_7="13000.00000" pt_clust_8="13000.00000" pt_clust_9="48.32982"></scales>
<clustering>
<clus scale="   48.330">  1  9  2 -1</clus>
<clus scale="   91.022">  5  6 -1 -1</clus>
<clus scale="   91.762">  7  8 -1 -1</clus>
<clus scale="  100.618">  1  5  2 -1</clus>
<clus scale="   48.330">  1  5  2 -1</clus>
</clustering>
</event>
<event>
 9    1  0.3231311E-005  0.1468042E+03  0.7546771E-02  0.1205210E+00
         21   -1    0    0  501  502  0.00000000000E+00  0.00000000000E+00  0.23023518654E+03  0.23023518654E+03  0.00000000000E+00 0. -1.
          2   -1    0    0  502    0 -0.00000000000E+00 -0.00000000000E+00 -0.11467939231E+03  0.11467939231E+03  0.00000000000E+00 0. -1.
         23    2    1    2    0    0  0.11729879887E+03 -0.37083270457E+02  0.37075108490E+02  0.15707907103E+03  0.90360908151E+02 0.  0.
         23    2    1    2    0    0 -0.10143478390E+03  0.10115878580E+02  0.70157786752E+02  0.15545993303E+03  0.94097446046E+02 0.  0.
        -11    1    3    3    0    0  0.11840724263E+03 -0.12620262606E+02  0.84046585233E+01  0.11937413631E+03  0.00000000000E+00 0. -1.
         11    1    3    3    0    0 -0.11084437622E+01 -0.24463007850E+02  0.28670449966E+02  0.37704934716E+02  0.00000000000E+00 0.  1.
        -13    1    4    4    0    0 -0.17867214151E+02  0.43182917705E+02  0.11461330871E+02  0.48118227610E+02  0.00000000000E+00 0.  1.
         13    1    4    4    0    0 -0.83567569747E+02 -0.33067039124E+02  0.58696455881E+02  0.10734170542E+03  0.00000000000E+00 0. -1.
          2    1    1    2  501    0 -0.15864014967E+02  0.26967391876E+02  0.83228989915E+01  0.32375574792E+02  0.00000000000E+00 0. -1.
<scales pt_clust_5="13000.00000" pt_clust_6="13000.00000" pt_clust_7="13000.00000" pt_clust_8="13000.00000" pt_clust_9="31.28751"></scales>
<clustering>
<clus scale="   31.288">  1  9  2 -1</clus>
<clus scale="   90.361">  5  6 -1 -1</clus>
<clus scale="   94.097">  7  8 -1 -1</clus>
<clus scale="  144.438">  2  5  1 -1</clus>
<clus scale="   31.288">  1  5  2 -1</clus>
</clustering>
</event>
<event>
 9    1  0.3231311E-005  0.9206966E+02  0.7546771E-02  0.1298200E+00
          1   -1    0    0  502    0 -0.00000000000E+00  0.00000000000E+00  0.23135920055E+03  0.23135920055E+03  0.00000000000E+00 0. -1.
         21   -1    0    0  501  502  0.00000000000E+00 -0.00000000000E+00 -0.68003174601E+02  0.68003174601E+02  0.00000000000E+00 0. -1.
         23    2    1    2    0    0  0.12012076763E+02  0.23817229272E+01  0.10512167689E+03  0.14025750773E+03  0.92041506569E+02 0.  0.
         23    2    1    2    0    0  0.16964974623E+02 -0.15681057393E+01  0.80065511066E+02  0.12281532189E+03  0.91557893755E+02 0.  0.
        -11    1    3    3    0    0 -0.17459927156E+02 -0.12918326925E+02 -0.73943727099E+01  0.22943604220E+02  0.00000000000E+00 0.  1.
         11    1    3    3    0    0  0.29472003919E+02  0.15300049852E+02  0.11251604960E+03  0.11731390351E+03  0.00000000000E+00 0. -1.
        -13    1    4    4    0    0  0.47913615717E+02 -0.24839156359E+02  0.52428608017E+02  0.75242655444E+02  0.00000000000E+00 0. -1.
         13    1    4    4    0    0 -0.30948641094E+02  0.23271050620E+02  0.27636903049E+02  0.47572666445E+02  0.00000000000E+00 0.  1.
          1    1    1    2  501    0 -0.28977051385E+02 -0.81361718792E+00 -0.21831162007E+02  0.36289545526E+02  0.00000000000E+00 0. -1.
<scales pt_clust_5="13000.00000" pt_clust_6="13000.00000" pt_clust_7="13000.00000" pt_clust_8="13000.00000" pt_clust_9="28.98847"></scales>
<clustering>
<clus scale="   28.988">  2  9  1 -1</clus>
<clus scale="   91.558">  7  8 -1 -1</clus>
<clus scale="   91.586">  2  7  1 -1</clus>
<clus scale="   92.042">  5  6 -1 -1</clus>
<clus scale="   28.988">  2  5  1 -1</clus>
</clustering>
</event>
<event>
 9    1  0.3231311E-005  0.1125941E+03  0.7546771E-02  0.1256834E+00
          1   -1    0    0  502    0 -0.00000000000E+00  0.00000000000E+00  0.10004662052E+03  0.10004662052E+03  0.00000000000E+00 0. -1.
         21   -1    0    0  501  502  0.00000000000E+00 -0.00000000000E+00 -0.16247243532E+03  0.16247243532E+03  0.00000000000E+00 0.  1.
         23    2    1    2    0    0 -0.46676572538E+02  0.52799748080E+02  0.98770363140E+01  0.11764648200E+03  0.93683632828E+02 0.  0.
         23    2    1    2    0    0  0.29606398280E+02 -0.39965842780E+02 -0.55195006721E+02  0.11750875988E+03  0.91038521915E+02 0.  0.
        -11    1    4    4    0    0 -0.25954461613E+02 -0.34272489364E+02 -0.66379457800E+01  0.43500573893E+02  0.00000000000E+00 0.  1.
         11    1    4    4    0    0  0.55560859893E+02 -0.56933534155E+01 -0.48557060941E+02  0.74008185983E+02  0.00000000000E+00 0. -1.
        -13    1    3    3    0    0 -0.43891964969E+02  0.78965921392E+02  0.27579436551E+01  0.90386545366E+02  0.00000000000E+00 0.  1.
         13    1    3    3    0    0 -0.27846075699E+01 -0.26166173312E+02  0.71190926588E+01  0.27259936635E+02  0.00000000000E+00 0. -1.
          1    1    1    2  501    0  0.17070174259E+02 -0.12833905301E+02 -0.17107844398E+02  0.27363813960E+02  0.00000000000E+00 0. -1.
<scales pt_clust_5="13000.00000" pt_clust_6="13000.00000" pt_clust_7="13000.00000" pt_clust_8="13000.00000" pt_clust_9="21.35650"></scales>
<clustering>
<clus scale="   21.356">  2  9  1 -1</clus>
<clus scale="   91.039">  5  6 -1 -1</clus>
<clus scale="   93.684">  7  8 -1 -1</clus>
<clus scale="  110.403">  2  5  1 -1</clus>
<clus scale="   21.356">  2  5  1 -1</clus>
</clustering>
</event>
<event>
 9    1  0.3231311E-005  0.1017311E+03  0.7546771E-02  0.1281158E+00
          1   -1    0    0  502    0 -0.00000000000E+00  0.00000000000E+00  0.24746187069E+03  0.24746187069E+03  0.00000000000E+00 0. -1.
         21   -1    0    0  501  502  0.00000000000E+00 -0.00000000000E+00 -0.99297551386E+02  0.99297551386E+02  0.00000000000E+00 0. -1.
         23    2    1    2    0    0 -0.24729057317E+02  0.23461918972E+02  0.12838301683E+03  0.16635162301E+03  0.10014327512E+03 0.  0.
         23    2    1    2    0    0 -0.41793547432E+02 -0.78325934221E+01  0.40658417643E+02  0.10895581031E+03  0.91707205537E+02 0.  0.
        -11    1    3    3    0    0 -0.67103286059E+01  0.62459660182E+02  0.75263641801E+02  0.98034960281E+02  0.00000000000E+00 0. -1.
         11    1    3    3    0    0 -0.18018728711E+02 -0.38997741210E+02  0.53119375025E+02  0.68316662733E+02  0.00000000000E+00 0.  1.
        -11    1    4    4    0    0 -0.68607218517E+02  0.52008616682E+01  0.16940736896E+02  0.70858930004E+02  0.00000000000E+00 0. -1.
         11    1    4    4    0    0  0.26813671085E+02 -0.13033455090E+02  0.23717680747E+02  0.38096880301E+02  0.00000000000E+00 0.  1.
          1    1    1    2  501    0  0.66522604750E+02 -0.15629325550E+02 -0.20877115165E+02  0.71451988758E+02  0.00000000000E+00 0. -1.
<scales pt_clust_5="13000.00000" pt_clust_6="13000.00000" pt_clust_7="13000.00000" pt_clust_8="13000.00000" pt_clust_9="68.33398"></scales>
<clustering>
<clus scale="   68.334">  2  9  1 -1</clus>
<clus scale="   91.707">  7  8 -1 -1</clus>
<clus scale="   93.438">  2  7  1 -1</clus>
<clus scale="  100.143">  5  6 -1 -1</clus>
<clus scale="   68.334">  2  5  1 -1</clus>
</clustering>
</event>
<event>
 9    1  0.3231311E-005  0.9173164E+02  0.7546771E-02  0.1299249E+00
          2   -1    0    0  502    0 -0.00000000000E+00  0.00000000000E+00  0.50021606841E+03  0.50021606841E+03  0.00000000000E+00 0. -1.
         21   -1    0    0  501  502  0.00000000000E+00 -0.00000000000E+00 -0.34483003176E+02  0.34483003176E+02  0.00000000000E+00 0. -1.
         23    2    1    2    0    0 -0.18719937205E+01  0.32154248356E+01  0.33181866243E+03  0.34417684832E+03  0.91324886338E+02 0.  0.
         23    2    1    2    0    0 -0.18948510270E+02 -0.17651297224E+02  0.13571965028E+03  0.16512248475E+03  0.90415690908E+02 0.  0.
        -11    1    4    4    0    0  0.24527097192E+02 -0.23070384310E+02  0.15309233231E+02  0.36989103138E+02  0.00000000000E+00 0. -1.
         11    1    4    4    0    0 -0.43475607462E+02  0.54190870856E+01  0.12041041705E+03  0.12813338161E+03  0.00000000000E+00 0.  1.
        -13    1    3    3    0    0 -0.19864996705E+02  0.42433423286E+02  0.14256195999E+03  0.15006373959E+03  0.00000000000E+00 0.  1.
         13    1    3    3    0    0  0.17993002985E+02 -0.39217998451E+02  0.18925670245E+03  0.19411310873E+03  0.00000000000E+00 0. -1.
          2    1    1    2  501    0  0.20820503991E+02  0.14435872389E+02 -0.18052474820E+01  0.25399738513E+02  0.00000000000E+00 0. -1.
<scales pt_clust_5="13000.00000" pt_clust_6="13000.00000" pt_clust_7="13000.00000" pt_clust_8="13000.00000" pt_clust_9="25.33550"></scales>
<clustering>
<clus scale="   25.336">  2  9  1 -1</clus>
<clus scale="   90.416">  5  6 -1 -1</clus>
<clus scale="   90.827">  2  5  1 -1</clus>
<clus scale="   91.325">  7  8 -1 -1</clus>
<clus scale="   25.336">  2  5  1 -1</clus>
</clustering>
</event>
<event>
 9    1  0.3231311E-005  0.1034788E+03  0.7546771E-02  0.1274927E+00
          2   -1    0    0  502    0 -0.00000000000E+00  0.00000000000E+00  0.23698679866E+03  0.23698679866E+03  0.00000000000E+00 0. -1.
         21   -1    0    0  501  502  0.00000000000E+00 -0.00000000000E+00 -0.64254278806E+02  0.64254278806E+02  0.00000000000E+00 0.  1.
         23    2    1    2    0    0 -0.58111814515E+01  0.39970472327E+02  0.11696934346E+03  0.15671366343E+03  0.96155792901E+02 0.  0.
         23    2    1    2    0    0  0.23737853066E+02 -0.30177701052E+02  0.67755335802E+02  0.12084037515E+03  0.92398221990E+02 0.  0.
        -11    1    3    3    0    0  0.35977832163E+02  0.36603440452E+02  0.28246064263E+02  0.58583755482E+02  0.00000000000E+00 0.  1.
         11    1    3    3    0    0 -0.41789013614E+02  0.33670318753E+01  0.88723279196E+02  0.98129907948E+02  0.00000000000E+00 0. -1.
        -13    1    4    4    0    0  0.22071163881E+02  0.21465757101E+02 -0.54193899209E+01  0.31261554505E+02  0.00000000000E+00 0.  1.
         13    1    4    4    0    0  0.16666891853E+01 -0.51643458154E+02  0.73174725723E+02  0.89578820641E+02  0.00000000000E+00 0. -1.
          2    1    1    2  501    0 -0.17926671614E+02 -0.97927712749E+01 -0.11992159403E+02  0.23687038894E+02  0.00000000000E+00 0. -1.
<scales pt_clust_5="13000.00000" pt_clust_6="13000.00000" pt_clust_7="13000.00000" pt_clust_8="13000.00000" pt_clust_9="20.42704"></scales>
<clustering>
<clus scale="   20.427">  2  9  1 -1</clus>
<clus scale="   92.398">  7  8 -1 -1</clus>
<clus scale="   96.156">  5  6 -1 -1</clus>
<clus scale="   99.997">  2  7  1 -1</clus>
<clus scale="   20.427">  2  5  1 -1</clus>
</clustering>
</event>
<event>
 9    1  0.3231311E-005  0.1150000E+03  0.7546771E-02  0.1253956E+00
         21   -1    0    0  501  502  0.00000000000E+00  0.00000000000E+00  0.22072761753E+03  0.22072761753E+03  0.00000000000E+00 0.  1.
          4   -1    0    0  502    0 -0.00000000000E+00 -0.00000000000E+00 -0.13691392158E+03  0.13691392158E+03  0.00000000000E+00 0. -1.
         23    2    1    2    0    0 -0.40156384239E+02  0.38825154982E+02 -0.62575012641E+02  0.12396802929E+03  0.91282595414E+02 0.  0.
         23    2    1    2    0    0  0.79121201152E+02 -0.43771119093E+02  0.14128311157E+03  0.19406559849E+03  0.97593358202E+02 0.  0.
        -13    1    4    4    0    0 -0.76280808886E+01 -0.40726117316E+02  0.23126324922E+02  0.47451355661E+02  0.00000000000E+00 0. -1.
         13    1    4    4    0    0  0.86749282040E+02 -0.30450017775E+01  0.11815678664E+03  0.14661424283E+03  0.00000000000E+00 0.  1.
        -13    1    3    3    0    0 -0.64444858226E+02  0.48976097426E+01 -0.44656926483E+02  0.78558051248E+02  0.00000000000E+00 0. -1.
         13    1    3    3    0    0  0.24288473987E+02  0.33927545239E+02 -0.17918086158E+02  0.45409978046E+02  0.00000000000E+00 0.  1.
          4    1    1    2  501    0 -0.38964816913E+02  0.49459641114E+01  0.51055970275E+01  0.39607911319E+02  0.00000000000E+00 0. -1.
<scales pt_clust_5="13000.00000" pt_clust_6="13000.00000" pt_clust_7="13000.00000" pt_clust_8="13000.00000" pt_clust_9="39.27749"></scales>
<clustering>
<clus scale="   39.277">  1  9  2 -1</clus>
<clus scale="   91.283">  7  8 -1 -1</clus>
<clus scale="   97.593">  5  6 -1 -1</clus>
<clus scale="  109.695">  2  7  1 -1</clus>
<clus scale="   39.277">  1  5  2 -1</clus>
</clustering>
</event>
<event>
 9    1  0.3231311E-005  0.1136889E+03  0.7546771E-02  0.1261198E+00
         21   -1    0    0  501  502  0.00000000000E+00  0.00000000000E+00  0.30512409731E+03  0.30512409731E+03  0.00000000000E+00 0.  1.
          2   -1    0    0  502    0 -0.00000000000E+00 -0.00000000000E+00 -0.11491990544E+03  0.11491990544E+03  0.00000000000E+00 0. -1.
         23    2    1    2    0    0  0.30021791323E+02 -0.14080847576E+02 -0.61871153792E+02  0.11680771583E+03  0.93361794029E+02 0.  0.
         23    2    1    2    0    0 -0.11740903257E+02  0.24171077576E+02  0.10266954164E+03  0.15237841379E+03  0.10934375339E+03 0.  0.
        -13    1    4    4    0    0 -0.33437828703E+02  0.12734289108E+02  0.11810025657E+03  0.12340146316E+03  0.00000000000E+00 0.  1.
         13    1    4    4    0    0  0.21696925446E+02  0.11436788468E+02 -0.15430714930E+02  0.28976950625E+02  0.00000000000E+00 0. -1.
        -13    1    3    3    0    0 -0.31715934140E+02 -0.10277871686E+01 -0.55254819017E+01  0.32210057049E+02  0.00000000000E+00 0.  1.
         13    1    3    3    0    0  0.61737725463E+02 -0.13053060408E+02 -0.56345671890E+02  0.84597658786E+02  0.00000000000E+00 0. -1.
          2    1    1    2  501    0 -0.18280888065E+02 -0.10090229999E+02  0.14940580402E+03  0.15085787313E+03  0.00000000000E+00 0. -1.
<scales pt_clust_5="13000.00000" pt_clust_6="13000.00000" pt_clust_7="13000.00000" pt_clust_8="13000.00000" pt_clust_9="20.88070"></scales>
<clustering>
<clus scale="   20.881">  1  9  2 -1</clus>
<clus scale="   93.362">  7  8 -1 -1</clus>
<clus scale="   98.415">  2  7  1 -1</clus>
<clus scale="  109.344">  5  6 -1 -1</clus>
<clus scale="   20.881">  1  5  2 -1</clus>
</clustering>
</event>
<event>
 9    1  0.3231311E-005  0.1220952E+03  0.7546771E-02  0.1244076E+00
          2   -1    0    0  502    0 -0.00000000000E+00  0.00000000000E+00  0.49728549679E+03  0.49728549679E+03  0.00000000000E+00 0. -1.
         21   -1    0    0  501  502  0.00000000000E+00 -0.00000000000E+00 -0.58562871484E+02  0.58562871484E+02  0.00000000000E+00 0. -1.
         23    2    1    2    0    0 -0.67828563068E+02  0.14011736086E+02  0.37152372456E+03  0.38850994806E+03  0.90072521427E+02 0.  0.
         23    2    1    2    0    0  0.56001133566E+02  0.36819105642E+01  0.80688149803E+02  0.14214093897E+03  0.10268293718E+03 0.  0.
        -11    1    3    3    0    0  0.14382053882E+02  0.18807262692E+02  0.36445551622E+02  0.43460727524E+02  0.00000000000E+00 0.  1.
         11    1    3    3    0    0 -0.82210616950E+02 -0.47955266063E+01  0.33507817294E+03  0.34504922054E+03  0.00000000000E+00 0. -1.
        -11    1    4    4    0    0  0.85244525513E+02 -0.63127272963E+01  0.52506139352E+02  0.10031637117E+03  0.00000000000E+00 0.  1.
         11    1    4    4    0    0 -0.29243391946E+02  0.99946378605E+01  0.28182010451E+02  0.41824567799E+02  0.00000000000E+00 0. -1.
          2    1    1    2  501    0  0.11827429502E+02 -0.17693646650E+02 -0.13489249060E+02  0.25197481235E+02  0.00000000000E+00 0. -1.
<scales pt_clust_5="13000.00000" pt_clust_6="13000.00000" pt_clust_7="13000.00000" pt_clust_8="13000.00000" pt_clust_9="21.28270"></scales>
<clustering>
<clus scale="   21.283">  2  9  1 -1</clus>
<clus scale="   90.073">  5  6 -1 -1</clus>
<clus scale="  102.683">  7  8 -1 -1</clus>
<clus scale="  111.698">  1  5  2 -1</clus>
<clus scale="   21.283">  2  5  1 -1</clus>
</clustering>
</event>
<event>
 9    1  0.3231311E-005  0.2082884E+03  0.7546771E-02  0.1143020E+00
          3   -1    0    0  502    0 -0.00000000000E+00  0.00000000000E+00  0.17827759816E+03  0.17827759816E+03  0.00000000000E+00 0. -1.
         21   -1    0    0  501  502  0.00000000000E+00 -0.00000000000E+00 -0.41352467364E+03  0.41352467364E+03  0.00000000000E+00 0.  1.
         23    2    1    2    0    0 -0.16602427132E+03 -0.26279611930E+02  0.43578952055E+01  0.19176999316E+03  0.92206628579E+02 0.  0.
         23    2    1    2    0    0  0.22977388365E+03  0.22623944802E+02 -0.15010233702E+03  0.29008639009E+03  0.91167547158E+02 0.  0.
        -11    1    3    3    0    0 -0.24559836677E+02  0.28147724986E+02 -0.12192745497E+02  0.39295585531E+02  0.00000000000E+00 0.  1.
         11    1    3    3    0    0 -0.14146443465E+03 -0.54427336916E+02  0.16550640703E+02  0.15247440763E+03  0.00000000000E+00 0. -1.
        -11    1    4    4    0    0  0.63190899558E+02 -0.34652867948E+02 -0.44699826262E+02  0.84805574769E+02  0.00000000000E+00 0.  1.
         11    1    4    4    0    0  0.16658298409E+03  0.57276812751E+02 -0.10540251075E+03  0.20528081532E+03  0.00000000000E+00 0. -1.
          3    1    1    2  501    0 -0.63749612325E+02  0.36556671275E+01 -0.89502633675E+02  0.10994588855E+03  0.00000000000E+00 0. -1.
<scales pt_clust_5="13000.00000" pt_clust_6="13000.00000" pt_clust_7="13000.00000" pt_clust_8="13000.00000" pt_clust_9="63.85434"></scales>
<clustering>
<clus scale="   63.854">  2  9  1 -1</clus>
<clus scale="   91.168">  7  8 -1 -1</clus>
<clus scale="   92.207">  5  6 -1 -1</clus>
<clus scale="  207.831">  2  7  1 -1</clus>
<clus scale="   63.854">  2  5  1 -1</clus>
</clustering>
</event>
<event>
 9    1  0.3231311E-005  0.9449533E+02  0.7546771E-02  0.1292440E+00
          1   -1    0    0  502    0 -0.00000000000E+00  0.00000000000E+00  0.28365524880E+03  0.28365524880E+03  0.00000000000E+00 0. -1.
         21   -1    0    0  501  502  0.00000000000E+00 -0.00000000000E+00 -0.23618966049E+03  0.23618966049E+03  0.00000000000E+00 0.  1.
         23    2    1    2    0    0  0.39017839302E+01  0.23921368870E+02  0.25763884706E+03  0.27456456322E+03  0.91763108344E+02 0.  0.
         23    2    1    2    0    0 -0.65829627575E+01  0.82148327796E+01 -0.13463448580E+03  0.16314612425E+03  0.91539031101E+02 0.  0.
        -11    1    4    4    0    0  0.27796329675E+02  0.13857033837E+01 -0.12315906162E+03  0.12626444700E+03  0.00000000000E+00 0.  1.
         11    1    4    4    0    0 -0.34379292432E+02  0.68291293960E+01 -0.11475424176E+02  0.36881677246E+02  0.00000000000E+00 0. -1.
        -13    1    3    3    0    0 -0.15136051184E+02 -0.32179568745E+02  0.10297426137E+03  0.10894183399E+03  0.00000000000E+00 0.  1.
         13    1    3    3    0    0  0.19037835115E+02  0.56100937614E+02  0.15466458570E+03  0.16562272922E+03  0.00000000000E+00 0. -1.
          1    1    1    2  501    0  0.26811788273E+01 -0.32136201649E+02 -0.75538772951E+02  0.82134221828E+02  0.00000000000E+00 0. -1.
<scales pt_clust_5="13000.00000" pt_clust_6="13000.00000" pt_clust_7="13000.00000" pt_clust_8="13000.00000" pt_clust_9="32.24786"></scales>
<clustering>
<clus scale="   32.248">  2  9  1 -1</clus>
<clus scale="   91.539">  5  6 -1 -1</clus>
<clus scale="   91.763">  7  8 -1 -1</clus>
<clus scale="   94.278">  2  5  1 -1</clus>
<clus scale="   32.248">  2  5  1 -1</clus>
</clustering>
</event>
<event>
 9    1  0.3231311E-005  0.1015353E+03  0.7546771E-02  0.1278553E+00
         21   -1    0    0  501  502  0.00000000000E+00  0.00000000000E+00  0.24174353067E+03  0.24174353067E+03  0.00000000000E+00 0.  1.
          2   -1    0    0  502    0 -0.00000000000E+00 -0.00000000000E+00 -0.15550974812E+03  0.15550974812E+03  0.00000000000E+00 0. -1.
         23    2    1    2    0    0 -0.24374694910E+02 -0.66372850384E+02 -0.82528277086E+02  0.14205279071E+03  0.91480040503E+02 0.  0.
         23    2    1    2    0    0 -0.10246370707E+02 -0.13636649807E+02  0.37256770400E+02  0.97422861641E+02  0.88386654530E+02 0.  0.
        -11    1    3    3    0    0 -0.29501169907E+02 -0.88260278172E+02 -0.64337855383E+02  0.11313511994E+03  0.00000000000E+00 0.  1.
         11    1    3    3    0    0  0.51264749974E+01  0.21887427788E+02 -0.18190421703E+02  0.28917670771E+02  0.00000000000E+00 0. -1.
        -13    1    4    4    0    0  0.60447381859E+01  0.35773527369E+02  0.61272879515E+01  0.36794398729E+02  0.00000000000E+00 0. -1.
         13    1    4    4    0    0 -0.16291108893E+02 -0.49410177177E+02  0.31129482448E+02  0.60628462912E+02  0.00000000000E+00 0.  1.
          2    1    1    2  501    0  0.34621065616E+02  0.80009500191E+02  0.13150528924E+03  0.15777762643E+03  0.00000000000E+00 0. -1.
<scales pt_clust_5="13000.00000" pt_clust_6="13000.00000" pt_clust_7="13000.00000" pt_clust_8="13000.00000" pt_clust_9="87.17877"></scales>
<clustering>
<clus scale="   87.179">  1  9  2 -1</clus>
<clus scale="   88.387">  7  8 -1 -1</clus>
<clus scale="   91.480">  5  6 -1 -1</clus>
<clus scale="   98.757">  1  7  2 -1</clus>
<clus scale="   87.179">  1  5  2 -1</clus>
</clustering>
</event>
<event>
 9    1  0.3231311E-005  0.9269726E+02  0.7546771E-02  0.1298446E+00
         21   -1    0    0  501  502  0.00000000000E+00  0.00000000000E+00  0.93127606792E+02  0.93127606792E+02  0.00000000000E+00 0. -1.
          1   -1    0    0  502    0 -0.00000000000E+00 -0.00000000000E+00 -0.14705329973E+03  0.14705329973E+03  0.00000000000E+00 0. -1.
         23    2    1    2    0    0  0.24414859588E+02  0.90156905049E+00 -0.68254013980E+02  0.11409156508E+03  0.88098675377E+02 0.  0.
         23    2    1    2    0    0  0.83228130094E+01 -0.37016485621E+01  0.15258998851E+02  0.93218962469E+02  0.91509379298E+02 0.  0.
        -11    1    3    3    0    0 -0.21393992968E+02  0.28859987458E+02 -0.38783339182E+02  0.52865387631E+02  0.00000000000E+00 0.  1.
         11    1    3    3    0    0  0.45808852556E+02 -0.27958418408E+02 -0.29470674797E+02  0.61226177452E+02  0.00000000000E+00 0. -1.
        -13    1    4    4    0    0 -0.34682871132E+02  0.38279341450E+00 -0.17645452907E+02  0.38915422252E+02  0.00000000000E+00 0.  1.
         13    1    4    4    0    0  0.43005684141E+02 -0.40844419766E+01  0.32904451757E+02  0.54303540218E+02  0.00000000000E+00 0. -1.
          1    1    1    2  501    0 -0.32737672598E+02  0.28000795116E+01 -0.93067780816E+00  0.32870378969E+02  0.00000000000E+00 0. -1.
<scales pt_clust_5="13000.00000" pt_clust_6="13000.00000" pt_clust_7="13000.00000" pt_clust_8="13000.00000" pt_clust_9="32.85720"></scales>
<clustering>
<clus scale="   32.857">  1  9  2 -1</clus>
<clus scale="   88.099">  5  6 -1 -1</clus>
<clus scale="   89.332">  2  5  1 -1</clus>
<clus scale="   91.509">  7  8 -1 -1</clus>
<clus scale="   32.857">  1  5  2 -1</clus>
</clustering>
</event>
<event>
 9    1  0.3231311E-005  0.9487919E+02  0.7546771E-02  0.1293473E+00
         -1   -1    0    0    0  501 -0.00000000000E+00  0.00000000000E+00  0.19590283208E+03  0.19590283208E+03  0.00000000000E+00 0.  1.
         21   -1    0    0  501  502  0.00000000000E+00 -0.00000000000E+00 -0.10958032030E+03  0.10958032030E+03  0.00000000000E+00 0. -1.
         23    2    1    2    0    0 -0.79333799437E+01 -0.27014250792E+02  0.12665071514E+03  0.15827126864E+03  0.90645918652E+02 0.  0.
         23    2    1    2    0    0  0.37682127158E+02  0.12749137399E+02 -0.67448018223E+00  0.95627979445E+02  0.86958451674E+02 0.  0.
        -13    1    4    4    0    0  0.90164735910E+00 -0.35089942495E+02  0.25816558783E+01  0.35196334743E+02  0.00000000000E+00 0. -1.
         13    1    4    4    0    0  0.36780479799E+02  0.47839079894E+02 -0.32561360605E+01  0.60431644702E+02  0.00000000000E+00 0.  1.
        -13    1    3    3    0    0 -0.20887341779E+02  0.29675311906E+02  0.56531151097E+02  0.67176455903E+02  0.00000000000E+00 0.  1.
         13    1    3    3    0    0  0.12953961835E+02 -0.56689562698E+02  0.70119564041E+02  0.91094812736E+02  0.00000000000E+00 0. -1.
         -1    1    1    2    0  502 -0.29748747214E+02  0.14265113393E+02 -0.39653723179E+02  0.51583904301E+02  0.00000000000E+00 0.  1.
<scales pt_clust_5="13000.00000" pt_clust_6="13000.00000" pt_clust_7="13000.00000" pt_clust_8="13000.00000" pt_clust_9="32.99214"></scales>
<clustering>
<clus scale="   32.992">  2  9  1 -1</clus>
<clus scale="   86.958">  5  6 -1 -1</clus>
<clus scale="   90.646">  7  8 -1 -1</clus>
<clus scale="   91.363">  2  5  1 -1</clus>
<clus scale="   32.992">  2  5  1 -1</clus>
</clustering>
</event>
<event>
 9    1  0.3231311E-005  0.1173037E+03  0.7546771E-02  0.1251816E+00
         21   -1    0    0  501  502  0.00000000000E+00  0.00000000000E+00  0.93312240104E+02  0.93312240104E+02  0.00000000000E+00 0.  1.
          1   -1    0    0  502    0 -0.00000000000E+00 -0.00000000000E+00 -0.24232999720E+03  0.24232999720E+03  0.00000000000E+00 0. -1.
         23    2    1    2    0    0  0.13877115498E+02  0.50150171589E+02 -0.12762782528E+03  0.17063094752E+03  0.10059047878E+03 0.  0.
         23    2    1    2    0    0 -0.25313467491E+02 -0.70904658009E+02 -0.50639212685E+02  0.12736744187E+03  0.89386202645E+02 0.  0.
        -11    1    3    3    0    0  0.52731443826E+02  0.16982211786E+02 -0.95128108924E+02  0.11008341289E+03  0.00000000000E+00 0. -1.
         11    1    3    3    0    0 -0.38854328329E+02  0.33167959803E+02 -0.32499716359E+02  0.60547534638E+02  0.00000000000E+00 0.  1.
        -11    1    4    4    0    0  0.20013447707E+02  0.11226670200E+02 -0.77653937159E+01  0.24225555772E+02  0.00000000000E+00 0. -1.
         11    1    4    4    0    0 -0.45326915198E+02 -0.82131328209E+02 -0.42873818969E+02  0.10314188610E+03  0.00000000000E+00 0.  1.
          1    1    1    2  501    0  0.11436351993E+02  0.20754486420E+02  0.29249280875E+02  0.37643847906E+02  0.00000000000E+00 0. -1.
<scales pt_clust_5="13000.00000" pt_clust_6="13000.00000" pt_clust_7="13000.00000" pt_clust_8="13000.00000" pt_clust_9="23.69681"></scales>
<clustering>
<clus scale="   23.697">  1  9  2 -1</clus>
<clus scale="   89.386">  7  8 -1 -1</clus>
<clus scale="  100.590">  5  6 -1 -1</clus>
<clus scale="  107.850">  1  7  2 -1</clus>
<clus scale="   23.697">  1  5  2 -1</clus>
</clustering>
</event>
<event>
 9    1  0.3231311E-005  0.9280821E+02  0.7546771E-02  0.1298000E+00
         -3   -1    0    0    0  501 -0.00000000000E+00  0.00000000000E+00  0.86005665797E+02  0.86005665797E+02  0.00000000000E+00 0.  1.
         21   -1    0    0  501  502  0.00000000000E+00 -0.00000000000E+00 -0.16248576127E+03  0.16248576127E+03  0.00000000000E+00 0. -1.
         23    2    1    2    0    0  0.21078355327E+02 -0.17370881080E+02  0.24253836821E+02  0.94235425233E+02  0.86867843276E+02 0.  0.
         23    2    1    2    0    0 -0.16115420175E+02 -0.61788775031E+01 -0.70662799132E+02  0.11573983764E+03  0.90025516056E+02 0.  0.
        -11    1    3    3    0    0 -0.24727330456E+02 -0.34127359882E+02  0.86183421748E+01  0.43016199110E+02  0.00000000000E+00 0. -1.
         11    1    3    3    0    0  0.45805685782E+02  0.16756478802E+02  0.15635494646E+02  0.51219226123E+02  0.00000000000E+00 0.  1.
        -11    1    4    4    0    0 -0.53153079925E+02 -0.10172029154E+02 -0.46371593642E+02  0.71267417377E+02  0.00000000000E+00 0. -1.
         11    1    4    4    0    0  0.37037659751E+02  0.39931516510E+01 -0.24291205491E+02  0.44472420264E+02  0.00000000000E+00 0.  1.
         -3    1    1    2    0  502 -0.49629351516E+01  0.23549758583E+02 -0.30071133165E+02  0.38516164198E+02  0.00000000000E+00 0.  1.
<scales pt_clust_5="13000.00000" pt_clust_6="13000.00000" pt_clust_7="13000.00000" pt_clust_8="13000.00000" pt_clust_9="24.06703"></scales>
<clustering>
<clus scale="   24.067">  2  9  1 -1</clus>
<clus scale="   86.868">  5  6 -1 -1</clus>
<clus scale="   89.748">  1  5  2 -1</clus>
<clus scale="   90.026">  7  8 -1 -1</clus>
<clus scale="   24.067">  2  5  1 -1</clus>
</clustering>
</event>
<event>
 9    1  0.3231311E-005  0.1945482E+03  0.7546771E-02  0.1154710E+00
         21   -1    0    0  501  502  0.00000000000E+00  0.00000000000E+00  0.26695989693E+03  0.26695989693E+03  0.00000000000E+00 0.  1.
         -2   -1    0    0    0  501 -0.00000000000E+00 -0.00000000000E+00 -0.25516274321E+03  0.25516274321E+03  0.00000000000E+00 0.  1.
         23    2    1    2    0    0 -0.90634326501E+02  0.12211498336E+03 -0.82991599935E+02  0.19542939749E+03  0.90434470427E+02 0.  0.
         23    2    1    2    0    0  0.12552204782E+03 -0.17464752696E+03  0.30056463683E+02  0.23632128572E+03  0.93203089606E+02 0.  0.
        -11    1    3    3    0    0 -0.94600475044E+02  0.56083386246E+02 -0.42699618069E+02  0.11797395253E+03  0.00000000000E+00 0.  1.
         11    1    3    3    0    0  0.39661485427E+01  0.66031597111E+02 -0.40291981866E+02  0.77455444960E+02  0.00000000000E+00 0. -1.
        -13    1    4    4    0    0  0.58839341076E+02 -0.96770326874E+02 -0.30445613679E+02  0.11727531545E+03  0.00000000000E+00 0.  1.
         13    1    4    4    0    0  0.66682706747E+02 -0.77877200086E+02  0.60502077362E+02  0.11904597027E+03  0.00000000000E+00 0. -1.
         -2    1    1    2    0  502 -0.34887721322E+02  0.52532543603E+02  0.64732289973E+02  0.90371956943E+02  0.00000000000E+00 0.  1.
<scales pt_clust_5="13000.00000" pt_clust_6="13000.00000" pt_clust_7="13000.00000" pt_clust_8="13000.00000" pt_clust_9="63.06204"></scales>
<clustering>
<clus scale="   63.062">  1  9  2 -1</clus>
<clus scale="   90.434">  5  6 -1 -1</clus>
<clus scale="   93.203">  7  8 -1 -1</clus>
<clus scale="  193.237">  2  5  1 -1</clus>
<clus scale="   63.062">  1  5  2 -1</clus>
</clustering>
</event>
<event>
 9    1  0.3231311E-005  0.1088814E+03  0.7546771E-02  0.1262875E+00
          2   -1    0    0  502    0 -0.00000000000E+00  0.00000000000E+00  0.21223052296E+03  0.21223052296E+03  0.00000000000E+00 0. -1.
         21   -1    0    0  501  502  0.00000000000E+00 -0.00000000000E+00 -0.96230435961E+02  0.96230435961E+02  0.00000000000E+00 0.  1.
         23    2    1    2    0    0  0.51517031225E+02  0.45068037811E+02  0.10410599707E+03  0.15498610300E+03  0.92181890623E+02 0.  0.
         23    2    1    2    0    0 -0.12026773286E+02 -0.34700301832E+02 -0.21143406881E+02  0.10095393993E+03  0.91629144433E+02 0.  0.
        -11    1    3    3    0    0  0.68463449945E+02  0.13848783395E+02  0.95704933102E+02  0.11848403690E+03  0.00000000000E+00 0.  1.
         11    1    3    3    0    0 -0.16946418720E+02  0.31219254416E+02  0.84010639652E+01  0.36502066099E+02  0.00000000000E+00 0. -1.
        -13    1    4    4    0    0 -0.20912242997E+02 -0.64243897380E+02 -0.18155548488E+02  0.69958732111E+02  0.00000000000E+00 0. -1.
         13    1    4    4    0    0  0.88854697102E+01  0.29543595547E+02 -0.29878583926E+01  0.30995207817E+02  0.00000000000E+00 0.  1.
          2    1    1    2  501    0 -0.39490257939E+02 -0.10367735979E+02  0.33037496813E+02  0.52520915996E+02  0.00000000000E+00 0. -1.
<scales pt_clust_5="13000.00000" pt_clust_6="13000.00000" pt_clust_7="13000.00000" pt_clust_8="13000.00000" pt_clust_9="40.82857"></scales>
<clustering>
<clus scale="   40.829">  2  9  1 -1</clus>
<clus scale="   91.629">  7  8 -1 -1</clus>
<clus scale="   92.182">  5  6 -1 -1</clus>
<clus scale="  108.414">  2  7  1 -1</clus>
<clus scale="   40.829">  2  5  1 -1</clus>
</clustering>
</event>
<event>
 9    1  0.3231311E-005  0.1066150E+03  0.7546771E-02  0.1270483E+00
          4   -1    0    0  502    0 -0.00000000000E+00  0.00000000000E+00  0.54667345837E+03  0.54667345837E+03  0.00000000000E+00 0. -1.
         21   -1    0    0  501  502  0.00000000000E+00 -0.00000000000E+00 -0.44292610305E+02  0.44292610305E+02  0.00000000000E+00 0. -1.
         23    2    1    2    0    0  0.75768132980E+01  0.33134289155E+01  0.27695408147E+03  0.29615397337E+03  0.10457162995E+03 0.  0.
         23    2    1    2    0    0 -0.34082571423E+02 -0.66510806844E+01  0.24214128461E+03  0.26329907822E+03  0.97407106165E+02 0.  0.
        -11    1    4    4    0    0 -0.41115069294E+02  0.23248960003E+02  0.22104774547E+03  0.22603775977E+03  0.00000000000E+00 0.  1.
         11    1    4    4    0    0  0.70324978710E+01 -0.29900040688E+02  0.21093539140E+02  0.37261318453E+02  0.00000000000E+00 0. -1.
        -13    1    3    3    0    0 -0.43490339863E+02 -0.53694752230E+01  0.18958374596E+03  0.19458221311E+03  0.00000000000E+00 0. -1.
         13    1    3    3    0    0  0.51067153161E+02  0.86829041384E+01  0.87370335510E+02  0.10157176026E+03  0.00000000000E+00 0.  1.
          4    1    1    2  501    0  0.26505758125E+02  0.33376517689E+01 -0.16714518014E+02  0.31513017081E+02  0.00000000000E+00 0. -1.
<scales pt_clust_5="13000.00000" pt_clust_6="13000.00000" pt_clust_7="13000.00000" pt_clust_8="13000.00000" pt_clust_9="26.71507"></scales>
<clustering>
<clus scale="   26.715">  2  9  1 -1</clus>
<clus scale="   97.407">  5  6 -1 -1</clus>
<clus scale="   99.598">  2  5  1 -1</clus>
<clus scale="  104.572">  7  8 -1 -1</clus>
<clus scale="   26.715">  2  5  1 -1</clus>
</clustering>
</event>
<event>
 9    1  0.3231311E-005  0.2712814E+03  0.7546771E-02  0.1100731E+00
         21   -1    0    0  501  502  0.00000000000E+00  0.00000000000E+00  0.83403010774E+03  0.83403010774E+03  0.00000000000E+00 0. -1.
         -1   -1    0    0    0  501 -0.00000000000E+00 -0.00000000000E+00 -0.16665291083E+03  0.16665291083E+03  0.00000000000E+00 0.  1.
         23    2    1    2    0    0  0.16710711469E+03 -0.18378508142E+03  0.64868313566E+02  0.27238267414E+03  0.91009225563E+02 0.  0.
         23    2    1    2    0    0 -0.21693142053E+03  0.16539654438E+03  0.27674418460E+03  0.39823483776E+03  0.87111332176E+02 0.  0.
        -11    1    3    3    0    0  0.15533551160E+03 -0.14276702610E+03  0.82062239940E+02  0.22637525512E+03  0.00000000000E+00 0.  1.
         11    1    3    3    0    0  0.11771603086E+02 -0.41018055313E+02 -0.17193926374E+02  0.46007419022E+02  0.00000000000E+00 0. -1.
        -13    1    4    4    0    0 -0.74141886531E+02  0.14653083648E+02  0.10140215740E+03  0.12646789998E+03  0.00000000000E+00 0.  1.
         13    1    4    4    0    0 -0.14278953400E+03  0.15074346073E+03  0.17534202720E+03  0.27176693779E+03  0.00000000000E+00 0. -1.
         -1    1    1    2    0  502  0.49824305844E+02  0.18388537041E+02  0.32576469874E+03  0.33006550667E+03  0.00000000000E+00 0.  1.
<scales pt_clust_5="13000.00000" pt_clust_6="13000.00000" pt_clust_7="13000.00000" pt_clust_8="13000.00000" pt_clust_9="53.10932"></scales>
<clustering>
<clus scale="   53.109">  1  9  2 -1</clus>
<clus scale="   87.111">  7  8 -1 -1</clus>
<clus scale="   91.009">  5  6 -1 -1</clus>
<clus scale="  269.999">  1  7  2 -1</clus>
<clus scale="   53.109">  1  5  2 -1</clus>
</clustering>
</event>
<event>
 9    1  0.3231311E-005  0.1754433E+03  0.7546771E-02  0.1173169E+00
         21   -1    0    0  501  502  0.00000000000E+00  0.00000000000E+00  0.14394922540E+03  0.14394922540E+03  0.00000000000E+00 0. -1.
          2   -1    0    0  502    0 -0.00000000000E+00 -0.00000000000E+00 -0.54227396174E+03  0.54227396174E+03  0.00000000000E+00 0. -1.
         23    2    1    2    0    0 -0.72785675185E+02  0.13742831203E+03 -0.29974165644E+03  0.35043386838E+03  0.93672514864E+02 0.  0.
         23    2    1    2    0    0  0.94892503747E+02 -0.55977091758E+02  0.56596704151E+02  0.15914340591E+03  0.99927046663E+02 0.  0.
        -13    1    3    3    0    0 -0.45864109098E+02  0.90367145769E+02 -0.95962629691E+02  0.13956562555E+03  0.00000000000E+00 0.  1.
         13    1    3    3    0    0 -0.26921566086E+02  0.47061166259E+02 -0.20377902675E+03  0.21086824283E+03  0.00000000000E+00 0. -1.
        -13    1    4    4    0    0 -0.57784625267E+01 -0.37480955259E+02  0.40579163691E+02  0.55541706511E+02  0.00000000000E+00 0.  1.
         13    1    4    4    0    0  0.10067096627E+03 -0.18496136498E+02  0.16017540460E+02  0.10360169940E+03  0.00000000000E+00 0. -1.
          2    1    1    2  501    0 -0.22106828562E+02 -0.81451220271E+02 -0.15517978405E+03  0.17664591286E+03  0.00000000000E+00 0. -1.
<scales pt_clust_5="13000.00000" pt_clust_6="13000.00000" pt_clust_7="13000.00000" pt_clust_8="13000.00000" pt_clust_9="84.39799"></scales>
<clustering>
<clus scale="   84.398">  1  9  2 -1</clus>
<clus scale="   93.673">  5  6 -1 -1</clus>
<clus scale="   99.927">  7  8 -1 -1</clus>
<clus scale="  171.958">  2  5  1 -1</clus>
<clus scale="   84.398">  1  5  2 -1</clus>
</clustering>
</event>
<event>
 9    1  0.3231311E-005  0.1002451E+03  0.7546771E-02  0.1280054E+00
         21   -1    0    0  501  502  0.00000000000E+00  0.00000000000E+00  0.17493333370E+03  0.17493333370E+03  0.00000000000E+00 0.  1.
         -1   -1    0    0    0  501 -0.00000000000E+00 -0.00000000000E+00 -0.17593538412E+03  0.17593538412E+03  0.00000000000E+00 0.  1.
         23    2    1    2    0    0 -0.24272604304E+02  0.33587121253E+02 -0.73998165119E+02  0.12464758352E+03  0.91345703801E+02 0.  0.
         23    2    1    2    0    0  0.62255152871E+02  0.21861608173E+02 -0.16454690811E+02  0.11433421730E+03  0.91912580341E+02 0.  0.
        -11    1    4    4    0    0  0.51466587486E+02  0.55357139057E+02 -0.21971073208E+02  0.78714360379E+02  0.00000000000E+00 0.  1.
         11    1    4    4    0    0  0.10788565385E+02 -0.33495530884E+02  0.55163823966E+01  0.35619856920E+02  0.00000000000E+00 0. -1.
        -13    1    3    3    0    0  0.34509213027E+02  0.16576181741E+02 -0.20836417547E+02  0.43586831510E+02  0.00000000000E+00 0.  1.
         13    1    3    3    0    0 -0.58781817331E+02  0.17010939512E+02 -0.53161747572E+02  0.81060752012E+02  0.00000000000E+00 0. -1.
         -1    1    1    2    0  502 -0.37982548567E+02 -0.55448729426E+02  0.89450805506E+02  0.11188691700E+03  0.00000000000E+00 0.  1.
<scales pt_clust_5="13000.00000" pt_clust_6="13000.00000" pt_clust_7="13000.00000" pt_clust_8="13000.00000" pt_clust_9="67.21038"></scales>
<clustering>
<clus scale="   67.210">  1  9  2 -1</clus>
<clus scale="   91.346">  7  8 -1 -1</clus>
<clus scale="   91.913">  5  6 -1 -1</clus>
<clus scale="   99.726">  2  7  1 -1</clus>
<clus scale="   67.210">  1  5  2 -1</clus>
</clustering>
</event>
<event>
 9    1  0.3231311E-005  0.1075557E+03  0.7546771E-02  0.1265381E+00
          3   -1    0    0  502    0 -0.00000000000E+00  0.00000000000E+00  0.48256296198E+03  0.48256296198E+03  0.00000000000E+00 0. -1.
         21   -1    0    0  501  502  0.00000000000E+00 -0.00000000000E+00 -0.41057745350E+02  0.41057745350E+02  0.00000000000E+00 0.  1.
         23    2    1    2    0    0 -0.31932115575E+02 -0.54717485503E+02  0.27933470951E+03  0.30115563657E+03  0.93022439635E+02 0.  0.
         23    2    1    2    0    0  0.18533774876E+02  0.21129245289E+02  0.61319697779E+02  0.11532697689E+03  0.93542826794E+02 0.  0.
        -11    1    3    3    0    0 -0.54383794213E+02 -0.65134014488E+02  0.18337599128E+03  0.20205640573E+03  0.00000000000E+00 0.  1.
         11    1    3    3    0    0  0.22451678638E+02  0.10416528985E+02  0.95958718229E+02  0.99099230844E+02  0.00000000000E+00 0. -1.
        -11    1    4    4    0    0 -0.28259986561E+02  0.15604848565E+02  0.60066234930E+02  0.68191573657E+02  0.00000000000E+00 0.  1.
         11    1    4    4    0    0  0.46793761437E+02  0.55243967242E+01  0.12534628495E+01  0.47135403231E+02  0.00000000000E+00 0. -1.
          3    1    1    2  501    0  0.13398340699E+02  0.33588240213E+02  0.10085080934E+03  0.10713809387E+03  0.00000000000E+00 0. -1.
<scales pt_clust_5="13000.00000" pt_clust_6="13000.00000" pt_clust_7="13000.00000" pt_clust_8="13000.00000" pt_clust_9="36.16195"></scales>
<clustering>
<clus scale="   36.162">  2  9  1 -1</clus>
<clus scale="   93.022">  5  6 -1 -1</clus>
<clus scale="   93.543">  7  8 -1 -1</clus>
<clus scale="  107.103">  1  5  2 -1</clus>
<clus scale="   36.162">  2  5  1 -1</clus>
</clustering>
</event>
<event>
 9    1  0.3231311E-005  0.1430738E+03  0.7546771E-02  0.1209625E+00
          2   -1    0    0  502    0 -0.00000000000E+00  0.00000000000E+00  0.49489398378E+03  0.49489398378E+03  0.00000000000E+00 0. -1.
         21   -1    0    0  501  502  0.00000000000E+00 -0.00000000000E+00 -0.76530489463E+02  0.76530489463E+02  0.00000000000E+00 0.  1.
         23    2    1    2    0    0 -0.80649598339E+02 -0.10578830822E+03  0.28420265057E+03  0.32683415221E+03  0.91399631265E+02 0.  0.
         23    2    1    2    0    0  0.73333908454E+02  0.40665465106E+02  0.12738688843E+03  0.17870868107E+03  0.93154877293E+02 0.  0.
        -13    1    3    3    0    0 -0.26989316609E+02 -0.73423473547E+01  0.85441698845E+01  0.29246129910E+02  0.00000000000E+00 0. -1.
         13    1    3    3    0    0 -0.53660281729E+02 -0.98445960864E+02  0.27565848068E+03  0.29758802230E+03  0.00000000000E+00 0.  1.
        -13    1    4    4    0    0  0.44528019752E+02  0.62393406615E+01  0.14228361317E+01  0.44985535203E+02  0.00000000000E+00 0.  1.
         13    1    4    4    0    0  0.28805888703E+02  0.34426124445E+02  0.12596405230E+03  0.13372314586E+03  0.00000000000E+00 0. -1.
          2    1    1    2  501    0  0.73156898845E+01  0.65122843113E+02  0.67739553199E+01  0.65881639964E+02  0.00000000000E+00 0. -1.
<scales pt_clust_5="13000.00000" pt_clust_6="13000.00000" pt_clust_7="13000.00000" pt_clust_8="13000.00000" pt_clust_9="65.53247"></scales>
<clustering>
<clus scale="   65.532">  2  9  1 -1</clus>
<clus scale="   91.400">  5  6 -1 -1</clus>
<clus scale="   93.155">  7  8 -1 -1</clus>
<clus scale="  141.937">  1  5  2 -1</clus>
<clus scale="   65.532">  2  5  1 -1</clus>
</clustering>
</event>
<event>
 9    1  0.3231311E-005  0.9463617E+02  0.7546771E-02  0.1292520E+00
          1   -1    0    0  502    0 -0.00000000000E+00  0.00000000000E+00  0.24682743959E+02  0.24682743959E+02  0.00000000000E+00 0. -1.
         21   -1    0    0  501  502  0.00000000000E+00 -0.00000000000E+00 -0.67349855649E+03  0.67349855649E+03  0.00000000000E+00 0.  1.
         23    2    1    2    0    0  0.41478125935E+01  0.39528678511E+01 -0.25743025002E+03  0.27296067809E+03  0.90577969966E+02 0.  0.
         23    2    1    2    0    0 -0.28097619037E+02 -0.40087458804E+02 -0.35080948652E+03  0.36584285013E+03  0.91527125005E+02 0.  0.
        -11    1    3    3    0    0  0.13246877793E+02  0.43151849071E+02 -0.89032792239E+02  0.99821841014E+02  0.00000000000E+00 0. -1.
         11    1    3    3    0    0 -0.90990651995E+01 -0.39198981220E+02 -0.16839745778E+03  0.17313883707E+03  0.00000000000E+00 0.  1.
        -13    1    4    4    0    0  0.32591333538E+02 -0.95424255830E+01 -0.86153221793E+02  0.92604700383E+02  0.00000000000E+00 0. -1.
         13    1    4    4    0    0 -0.60688952575E+02 -0.30545033221E+02 -0.26465626472E+03  0.27323814975E+03  0.00000000000E+00 0.  1.
          1    1    1    2  501    0  0.23949806444E+02  0.36134590952E+02 -0.40576075992E+02  0.59377772229E+02  0.00000000000E+00 0. -1.
<scales pt_clust_5="13000.00000" pt_clust_6="13000.00000" pt_clust_7="13000.00000" pt_clust_8="13000.00000" pt_clust_9="43.35094"></scales>
<clustering>
<clus scale="   43.351">  2  9  1 -1</clus>
<clus scale="   90.578">  5  6 -1 -1</clus>
<clus scale="   91.527">  7  8 -1 -1</clus>
<clus scale="   93.719">  1  5  2 -1</clus>
<clus scale="   43.351">  2  5  1 -1</clus>
</clustering>
</event>
<event>
 9    1  0.3231311E-005  0.1405055E+03  0.7546771E-02  0.1232464E+00
         21   -1    0    0  501  502  0.00000000000E+00  0.00000000000E+00  0.11721739210E+04  0.11721739210E+04  0.00000000000E+00 0.  1.
          3   -1    0    0  502    0 -0.00000000000E+00 -0.00000000000E+00 -0.98928658081E+02  0.98928658081E+02  0.00000000000E+00 0. -1.
         23    2    1    2    0    0 -0.11291397132E+02  0.89314132287E+01 -0.61236861990E+02  0.11122469303E+03  0.91726295472E+02 0.  0.
         23    2    1    2    0    0  0.10462908793E+03 -0.20522991022E+02  0.63988322863E+03  0.65641551666E+03  0.10031124078E+03 0.  0.
        -11    1    4    4    0    0  0.33388165188E+02 -0.55877807348E+02  0.33937778471E+03  0.34556385760E+03  0.00000000000E+00 0.  1.
         11    1    4    4    0    0  0.71240922739E+02  0.35354816326E+02  0.30050544392E+03  0.31085165906E+03  0.00000000000E+00 0. -1.
        -13    1    3    3    0    0  0.24910337083E+02  0.30766642584E+02 -0.36071797531E+01  0.39750760185E+02  0.00000000000E+00 0.  1.
         13    1    3    3    0    0 -0.36201734215E+02 -0.21835229355E+02 -0.57629682237E+02  0.71473932842E+02  0.00000000000E+00 0. -1.
          3    1    1    2  501    0 -0.93337690795E+02  0.11591577793E+02  0.49459889631E+03  0.50346236943E+03  0.00000000000E+00 0. -1.
<scales pt_clust_5="13000.00000" pt_clust_6="13000.00000" pt_clust_7="13000.00000" pt_clust_8="13000.00000" pt_clust_9="98.38426"></scales>
<clustering>
<clus scale="   91.726">  7  8 -1 -1</clus>
<clus scale="   92.849">  2  7  1 -1</clus>
<clus scale="   98.384">  1  9  2 -1</clus>
<clus scale="  100.311">  5  6 -1 -1</clus>
<clus scale="   98.384">  1  5  2 -1</clus>
</clustering>
</event>
<event>
 9    1  0.3231311E-005  0.1227315E+03  0.7546771E-02  0.1238868E+00
         -2   -1    0    0    0  501 -0.00000000000E+00  0.00000000000E+00  0.63227362661E+03  0.63227362661E+03  0.00000000000E+00 0.  1.
         21   -1    0    0  501  502  0.00000000000E+00 -0.00000000000E+00 -0.49604146277E+02  0.49604146277E+02  0.00000000000E+00 0. -1.
         23    2    1    2    0    0  0.63964773183E+02 -0.48472009751E+02  0.41445963087E+03  0.43161125755E+03  0.89835761758E+02 0.  0.
         23    2    1    2    0    0 -0.81993893770E+02  0.37903013033E+02  0.18399147724E+03  0.22407849029E+03  0.90546502417E+02 0.  0.
        -11    1    4    4    0    0 -0.35853869909E+02  0.56635899298E+02  0.14849935828E+03  0.16292692990E+03  0.00000000000E+00 0.  1.
         11    1    4    4    0    0 -0.46140023861E+02 -0.18732886265E+02  0.35492118961E+02  0.61151560389E+02  0.00000000000E+00 0. -1.
        -13    1    3    3    0    0  0.47811486622E+02 -0.73561401310E+02  0.26322746712E+03  0.27746336238E+03  0.00000000000E+00 0. -1.
         13    1    3    3    0    0  0.16153286561E+02  0.25089391558E+02  0.15123216374E+03  0.15414789517E+03  0.00000000000E+00 0.  1.
         -2    1    1    2    0  502  0.18029120587E+02  0.10568996718E+02 -0.15781627772E+02  0.26188025047E+02  0.00000000000E+00 0.  1.
<scales pt_clust_5="13000.00000" pt_clust_6="13000.00000" pt_clust_7="13000.00000" pt_clust_8="13000.00000" pt_clust_9="20.89863"></scales>
<clustering>
<clus scale="   20.899">  2  9  1 -1</clus>
<clus scale="   89.836">  7  8 -1 -1</clus>
<clus scale="   90.547">  5  6 -1 -1</clus>
<clus scale="  122.208">  1  7  2 -1</clus>
<clus scale="   20.899">  2  5  1 -1</clus>
</clustering>
</event>
<event>
 9    1  0.3231311E-005  0.9810206E+02  0.7546771E-02  0.1284556E+00
         21   -1    0    0  501  502  0.00000000000E+00  0.00000000000E+00  0.40549946173E+02  0.40549946173E+02  0.00000000000E+00 0. -1.
          2   -1    0    0  502    0 -0.00000000000E+00 -0.00000000000E+00 -0.56648497341E+03  0.56648497341E+03  0.00000000000E+00 0. -1.
         23    2    1    2    0    0  0.23119818843E+02 -0.12309230328E+02 -0.23633614903E+03  0.25427020584E+03  0.90069523503E+02 0.  0.
         23    2    1    2    0    0  0.14624731597E+01  0.68711789508E+02 -0.26204468342E+03  0.28534979394E+03  0.89630574838E+02 0.  0.
        -11    1    4    4    0    0  0.30459417859E+02  0.35867045333E+02 -0.49345604051E+02  0.68185113598E+02  0.00000000000E+00 0. -1.
         11    1    4    4    0    0 -0.28996944699E+02  0.32844744174E+02 -0.21269907937E+03  0.21716468034E+03  0.00000000000E+00 0.  1.
        -13    1    3    3    0    0  0.48077742442E+02 -0.35378725582E+02 -0.15674248698E+03  0.16772397195E+03  0.00000000000E+00 0.  1.
         13    1    3    3    0    0 -0.24957923599E+02  0.23069495253E+02 -0.79593662051E+02  0.86546233889E+02  0.00000000000E+00 0. -1.
          2    1    1    2  501    0 -0.24582292002E+02 -0.56402559180E+02 -0.27554194783E+02  0.67414919805E+02  0.00000000000E+00 0. -1.
<scales pt_clust_5="13000.00000" pt_clust_6="13000.00000" pt_clust_7="13000.00000" pt_clust_8="13000.00000" pt_clust_9="61.52672"></scales>
<clustering>
<clus scale="   61.527">  1  9  2 -1</clus>
<clus scale="   89.631">  5  6 -1 -1</clus>
<clus scale="   90.070">  7  8 -1 -1</clus>
<clus scale="   97.699">  1  5  2 -1</clus>
<clus scale="   61.527">  1  5  2 -1</clus>
</clustering>
</event>
<event>
 9    1  0.3231311E-005  0.1612043E+03  0.7546771E-02  0.1188220E+00
         21   -1    0    0  501  502  0.00000000000E+00  0.00000000000E+00  0.30847670937E+03  0.30847670937E+03  0.00000000000E+00 0.  1.
          3   -1    0    0  502    0 -0.00000000000E+00 -0.00000000000E+00 -0.16595428086E+03  0.16595428086E+03  0.00000000000E+00 0. -1.
         23    2    1    2    0    0 -0.28830019643E+02 -0.11876892870E+03 -0.15649095514E+02  0.15400266852E+03  0.92383436091E+02 0.  0.
         23    2    1    2    0    0  0.49014287295E+02  0.13684095376E+03  0.98067652842E+01  0.16961020480E+03  0.86853911498E+02 0.  0.
        -13    1    4    4    0    0 -0.19551589548E+02  0.28018495657E+02 -0.17096743842E+02  0.38204703934E+02  0.00000000000E+00 0. -1.
         13    1    4    4    0    0  0.68565876843E+02  0.10882245810E+03  0.26903509126E+02  0.13140550087E+03  0.00000000000E+00 0.  1.
        -13    1    3    3    0    0 -0.21991993812E+02 -0.96877581398E+02 -0.51150483031E+02  0.11173757418E+03  0.00000000000E+00 0. -1.
         13    1    3    3    0    0 -0.68380258311E+01 -0.21891347304E+02  0.35501387518E+02  0.42265094342E+02  0.00000000000E+00 0.  1.
          3    1    1    2  501    0 -0.20184267652E+02 -0.18072025058E+02  0.14836475874E+03  0.15081811690E+03  0.00000000000E+00 0. -1.
<scales pt_clust_5="13000.00000" pt_clust_6="13000.00000" pt_clust_7="13000.00000" pt_clust_8="13000.00000" pt_clust_9="27.09249"></scales>
<clustering>
<clus scale="   27.092">  1  9  2 -1</clus>
<clus scale="   86.854">  5  6 -1 -1</clus>
<clus scale="   92.383">  7  8 -1 -1</clus>
<clus scale="  158.100">  1  5  2 -1</clus>
<clus scale="   27.092">  1  5  2 -1</clus>
</clustering>
</event>
<event>
 9    1  0.3231311E-005  0.1483043E+03  0.7546771E-02  0.1203124E+00
         21   -1    0    0  501  502  0.00000000000E+00  0.00000000000E+00  0.14003689379E+03  0.14003689379E+03  0.00000000000E+00 0.  1.
          4   -1    0    0  502    0 -0.00000000000E+00 -0.00000000000E+00 -0.31636725304E+03  0.31636725304E+03  0.00000000000E+00 0. -1.
         23    2    1    2    0    0 -0.69962839337E+02  0.99975580813E+02 -0.20284958325E+03  0.25284043816E+03  0.88828025395E+02 0.  0.
         23    2    1    2    0    0  0.95119585250E+02 -0.48561129864E+02  0.36597964772E+02  0.14544410228E+03  0.91698729713E+02 0.  0.
        -13    1    3    3    0    0 -0.49161693133E+00  0.36742679981E+02 -0.96170554023E+01  0.37983601383E+02  0.00000000000E+00 0.  1.
         13    1    3    3    0    0 -0.69471222406E+02  0.63232900832E+02 -0.19323252785E+03  0.21485683677E+03  0.00000000000E+00 0. -1.
        -13    1    4    4    0    0  0.44256713354E+02  0.25261494064E+02  0.99716503127E+01  0.51925269082E+02  0.00000000000E+00 0. -1.
         13    1    4    4    0    0  0.50862871895E+02 -0.73822623928E+02  0.26626314459E+02  0.93518833198E+02  0.00000000000E+00 0.  1.
          4    1    1    2  501    0 -0.25156745913E+02 -0.51414450949E+02 -0.10078740772E+02  0.58119606389E+02  0.00000000000E+00 0. -1.
<scales pt_clust_5="13000.00000" pt_clust_6="13000.00000" pt_clust_7="13000.00000" pt_clust_8="13000.00000" pt_clust_9="57.23904"></scales>
<clustering>
<clus scale="   57.239">  1  9  2 -1</clus>
<clus scale="   88.828">  5  6 -1 -1</clus>
<clus scale="   91.699">  7  8 -1 -1</clus>
<clus scale="  146.547">  2  5  1 -1</clus>
<clus scale="   57.239">  1  5  2 -1</clus>
</clustering>
</event>
<event>
 9    1  0.3231311E-005  0.1705069E+03  0.7546771E-02  0.1177601E+00
         21   -1    0    0  501  502  0.00000000000E+00  0.00000000000E+00  0.43516870617E+02  0.43516870617E+02  0.00000000000E+00 0.  1.
          2   -1    0    0  502    0 -0.00000000000E+00 -0.00000000000E+00 -0.13245986678E+04  0.13245986678E+04  0.00000000000E+00 0. -1.
         23    2    1    2    0    0 -0.59418535158E+02 -0.12085401615E+03 -0.67985838155E+03  0.69883854350E+03  0.89619391670E+02 0.  0.
         23    2    1    2    0    0  0.85169656413E+02  0.13195077745E+03 -0.61260040057E+03  0.63901655634E+03  0.91640768518E+02 0.  0.
        -11    1    3    3    0    0 -0.83081553426E+02 -0.97946442392E+02 -0.52047413543E+03  0.53608709717E+03  0.00000000000E+00 0.  1.
         11    1    3    3    0    0  0.23663018269E+02 -0.22907573763E+02 -0.15938424612E+03  0.16275144633E+03  0.00000000000E+00 0. -1.
        -13    1    4    4    0    0  0.52940237942E+02  0.10881612116E+03 -0.56113400767E+03  0.57403396379E+03  0.00000000000E+00 0. -1.
         13    1    4    4    0    0  0.32229418471E+02  0.23134656292E+02 -0.51466392900E+02  0.64982592552E+02  0.00000000000E+00 0.  1.
          2    1    1    2  501    0 -0.25751121256E+02 -0.11096761293E+02  0.11376984938E+02  0.30260438586E+02  0.00000000000E+00 0. -1.
<scales pt_clust_5="13000.00000" pt_clust_6="13000.00000" pt_clust_7="13000.00000" pt_clust_8="13000.00000" pt_clust_9="28.04030"></scales>
<clustering>
<clus scale="   28.040">  1  9  2 -1</clus>
<clus scale="   89.619">  5  6 -1 -1</clus>
<clus scale="   91.641">  7  8 -1 -1</clus>
<clus scale="  169.429">  2  5  1 -1</clus>
<clus scale="   28.040">  1  5  2 -1</clus>
</clustering>
</event>
<event>
 9    1  0.3231311E-005  0.1159956E+03  0.7546771E-02  0.1250521E+00
         21   -1    0    0  501  502  0.00000000000E+00  0.00000000000E+00  0.21695905436E+03  0.21695905436E+03  0.00000000000E+00 0. -1.
         -3   -1    0    0    0  501 -0.00000000000E+00 -0.00000000000E+00 -0.83408180245E+02  0.83408180245E+02  0.00000000000E+00 0.  1.
         23    2    1    2    0    0 -0.58441323949E+02  0.10327824529E+02  0.37892736406E+02  0.11400845977E+03  0.89666142564E+02 0.  0.
         23    2    1    2    0    0  0.84206361740E+02 -0.17021933172E+02  0.53537321296E+02  0.13653095692E+03  0.91618774600E+02 0.  0.
        -11    1    3    3    0    0  0.11197373696E+02 -0.25335099599E+02  0.15561166870E+01  0.27742926099E+02  0.00000000000E+00 0.  1.
         11    1    3    3    0    0 -0.69638697644E+02  0.35662924128E+02  0.36336619719E+02  0.86265533671E+02  0.00000000000E+00 0. -1.
        -11    1    4    4    0    0  0.87339005260E+02  0.14499229972E+02  0.20733764018E+02  0.90929744748E+02  0.00000000000E+00 0.  1.
         11    1    4    4    0    0 -0.31326435200E+01 -0.31521163144E+02  0.32803557278E+02  0.45601212171E+02  0.00000000000E+00 0. -1.
         -3    1    1    2    0  502 -0.25765037791E+02  0.66941086434E+01  0.42120816414E+02  0.49827817916E+02  0.00000000000E+00 0.  1.
<scales pt_clust_5="13000.00000" pt_clust_6="13000.00000" pt_clust_7="13000.00000" pt_clust_8="13000.00000" pt_clust_9="26.62045"></scales>
<clustering>
<clus scale="   26.620">  1  9  2 -1</clus>
<clus scale="   89.666">  5  6 -1 -1</clus>
<clus scale="   91.619">  7  8 -1 -1</clus>
<clus scale="  114.460">  2  5  1 -1</clus>
<clus scale="   26.620">  1  5  2 -1</clus>
</clustering>
</event>
<event>
 9    1  0.3231311E-005  0.9560843E+02  0.7546771E-02  0.1294901E+00
         21   -1    0    0  501  502  0.00000000000E+00  0.00000000000E+00  0.69753618048E+02  0.69753618048E+02  0.00000000000E+00 0. -1.
          3   -1    0    0  502    0 -0.00000000000E+00 -0.00000000000E+00 -0.40634267983E+03  0.40634267983E+03  0.00000000000E+00 0. -1.
         23    2    1    2    0    0 -0.14543283314E+02  0.18232217811E+01 -0.19428148854E+03  0.21632955894E+03  0.94012499460E+02 0.  0.
         23    2    1    2    0    0 -0.20060284015E+02 -0.33443937055E+02 -0.17779728259E+03  0.20097221559E+03  0.85188296270E+02 0.  0.
        -11    1    3    3    0    0 -0.43007637659E+02 -0.16889084818E+02 -0.49994514277E+02  0.68076057030E+02  0.00000000000E+00 0.  1.
         11    1    3    3    0    0  0.28464354345E+02  0.18712306599E+02 -0.14428697427E+03  0.14825350191E+03  0.00000000000E+00 0. -1.
        -11    1    4    4    0    0 -0.98750042278E+01 -0.50937322725E+02 -0.17237707427E+03  0.18001661670E+03  0.00000000000E+00 0.  1.
         11    1    4    4    0    0 -0.10185279787E+02  0.17493385669E+02 -0.54202083230E+01  0.20955598889E+02  0.00000000000E+00 0. -1.
          3    1    1    2  501    0  0.34603567329E+02  0.31620715274E+02  0.35489709348E+02  0.58794523350E+02  0.00000000000E+00 0. -1.
<scales pt_clust_5="13000.00000" pt_clust_6="13000.00000" pt_clust_7="13000.00000" pt_clust_8="13000.00000" pt_clust_9="46.87512"></scales>
<clustering>
<clus scale="   46.875">  1  9  2 -1</clus>
<clus scale="   85.188">  7  8 -1 -1</clus>
<clus scale="   86.946">  1  7  2 -1</clus>
<clus scale="   94.012">  5  6 -1 -1</clus>
<clus scale="   46.875">  1  5  2 -1</clus>
</clustering>
</event>
<event>
 9    1  0.3231311E-005  0.1002357E+03  0.7546771E-02  0.1279907E+00
         -4   -1    0    0    0  501 -0.00000000000E+00  0.00000000000E+00  0.32906155664E+03  0.32906155664E+03  0.00000000000E+00 0.  1.
         21   -1    0    0  501  502  0.00000000000E+00 -0.00000000000E+00 -0.55324561190E+02  0.55324561190E+02  0.00000000000E+00 0.  1.
         23    2    1    2    0    0  0.38380284747E+02 -0.20665141624E+02  0.18055077694E+03  0.20678209284E+03  0.90885403294E+02 0.  0.
         23    2    1    2    0    0 -0.47632610990E+02 -0.17545843996E+02  0.91175629246E+02  0.13823744739E+03  0.90663521997E+02 0.  0.
        -13    1    4    4    0    0  0.17783375465E+00  0.28720618292E+02  0.46577367518E+01  0.29096392415E+02  0.00000000000E+00 0. -1.
         13    1    4    4    0    0 -0.47810444745E+02 -0.46266462288E+02  0.86517892494E+02  0.10914105497E+03  0.00000000000E+00 0.  1.
        -13    1    3    3    0    0  0.46145968691E+02 -0.45786636251E+02  0.16213114195E+03  0.17467791410E+03  0.00000000000E+00 0.  1.
         13    1    3    3    0    0 -0.77656839437E+01  0.25121494627E+02  0.18419634987E+02  0.32104178738E+02  0.00000000000E+00 0. -1.
         -4    1    1    2    0  502  0.92523262435E+01  0.38210985620E+02  0.20105892712E+01  0.39366577603E+02  0.00000000000E+00 0.  1.
<scales pt_clust_5="13000.00000" pt_clust_6="13000.00000" pt_clust_7="13000.00000" pt_clust_8="13000.00000" pt_clust_9="39.31520"></scales>
<clustering>
<clus scale="   39.315">  2  9  1 -1</clus>
<clus scale="   90.664">  5  6 -1 -1</clus>
<clus scale="   90.885">  7  8 -1 -1</clus>
<clus scale="  100.035">  2  5  1 -1</clus>
<clus scale="   39.315">  2  5  1 -1</clus>
</clustering>
</event>
<event>
 9    1  0.3231311E-005  0.1066085E+03  0.7546771E-02  0.1268255E+00
         21   -1    0    0  501  502  0.00000000000E+00  0.00000000000E+00  0.91045651635E+02  0.91045651635E+02  0.00000000000E+00 0. -1.
         -1   -1    0    0    0  501 -0.00000000000E+00 -0.00000000000E+00 -0.53208390575E+03  0.53208390575E+03  0.00000000000E+00 0.  1.
         23    2    1    2    0    0  0.19465007338E+02  0.47916415622E+02 -0.45372766013E+03  0.46609196812E+03  0.93263410729E+02 0.  0.
         23    2    1    2    0    0 -0.57661420433E+02 -0.29696664426E+02 -0.47573882368E+01  0.11126296817E+03  0.90277815988E+02 0.  0.
        -11    1    3    3    0    0  0.52603476161E+02  0.14205393872E+02 -0.17194866963E+03  0.18037534173E+03  0.00000000000E+00 0. -1.
         11    1    3    3    0    0 -0.33138468823E+02  0.33711021749E+02 -0.28177899050E+03  0.28571662639E+03  0.00000000000E+00 0.  1.
        -13    1    4    4    0    0 -0.12025203091E+02 -0.27952763514E+02 -0.42324231160E+02  0.52127756913E+02  0.00000000000E+00 0.  1.
         13    1    4    4    0    0 -0.45636217341E+02 -0.17439009119E+01  0.37566842923E+02  0.59135211261E+02  0.00000000000E+00 0. -1.
         -1    1    1    2    0  502  0.38196413095E+02 -0.18219751196E+02  0.17446794249E+02  0.45774621096E+02  0.00000000000E+00 0.  1.
<scales pt_clust_5="13000.00000" pt_clust_6="13000.00000" pt_clust_7="13000.00000" pt_clust_8="13000.00000" pt_clust_9="42.31933"></scales>
<clustering>
<clus scale="   42.319">  1  9  2 -1</clus>
<clus scale="   90.278">  7  8 -1 -1</clus>
<clus scale="   93.263">  5  6 -1 -1</clus>
<clus scale="  104.007">  1  7  2 -1</clus>
<clus scale="   42.319">  1  5  2 -1</clus>
</clustering>
</event>
<event>
 9    1  0.3231311E-005  0.1034927E+03  0.7546771E-02  0.1273884E+00
         21   -1    0    0  501  502  0.00000000000E+00  0.00000000000E+00  0.18397443481E+03  0.18397443481E+03  0.00000000000E+00 0. -1.
          1   -1    0    0  502    0 -0.00000000000E+00 -0.00000000000E+00 -0.53407068875E+03  0.53407068875E+03  0.00000000000E+00 0. -1.
         23    2    1    2    0    0  0.32542184360E+02  0.33523704676E+02 -0.49609076928E+03  0.50678512939E+03  0.92424474411E+02 0.  0.
         23    2    1    2    0    0  0.14683341826E+01 -0.59795095096E+02  0.11535668933E+03  0.15848142173E+03  0.90728087472E+02 0.  0.
        -13    1    3    3    0    0 -0.10355158479E+02 -0.23396170007E+02 -0.65218574579E+02  0.70057637330E+02  0.00000000000E+00 0.  1.
         13    1    3    3    0    0  0.42897342839E+02  0.56919874683E+02 -0.43087219470E+03  0.43672749206E+03  0.00000000000E+00 0. -1.
        -13    1    4    4    0    0 -0.23947564237E+02  0.54217161274E+01  0.12099737574E+01  0.24583426839E+02  0.00000000000E+00 0.  1.
         13    1    4    4    0    0  0.25415898420E+02 -0.65216811223E+02  0.11414671558E+03  0.13389799489E+03  0.00000000000E+00 0. -1.
          1    1    1    2  501    0 -0.34010518543E+02  0.26271390420E+02  0.30637826005E+02  0.52778572437E+02  0.00000000000E+00 0. -1.
<scales pt_clust_5="13000.00000" pt_clust_6="13000.00000" pt_clust_7="13000.00000" pt_clust_8="13000.00000" pt_clust_9="42.97559"></scales>
<clustering>
<clus scale="   42.976">  1  9  2 -1</clus>
<clus scale="   90.728">  7  8 -1 -1</clus>
<clus scale="   92.424">  5  6 -1 -1</clus>
<clus scale="  101.981">  1  7  2 -1</clus>
<clus scale="   42.976">  1  5  2 -1</clus>
</clustering>
</event>
<event>
 9    1  0.3231311E-005  0.1140799E+03  0.7546771E-02  0.1255086E+00
          1   -1    0    0  502    0 -0.00000000000E+00  0.00000000000E+00  0.40622019511E+03  0.40622019511E+03  0.00000000000E+00 0. -1.
         21   -1    0    0  501  502  0.00000000000E+00 -0.00000000000E+00 -0.99662424965E+02  0.99662424965E+02  0.00000000000E+00 0. -1.
         23    2    1    2    0    0  0.59905243078E+02  0.20851890123E+02  0.32427038051E+03  0.34276582503E+03  0.91179447603E+02 0.  0.
         23    2    1    2    0    0 -0.57447939041E+02  0.23069962102E+02  0.31246100550E+01  0.11444075164E+03  0.96199966718E+02 0.  0.
        -11    1    3    3    0    0  0.13541152046E+02  0.33806597874E+02  0.38601129438E+02  0.53068786046E+02  0.00000000000E+00 0.  1.
         11    1    3    3    0    0  0.46364091032E+02 -0.12954707751E+02  0.28566925107E+03  0.28969703899E+03  0.00000000000E+00 0. -1.
        -11    1    4    4    0    0 -0.76941218729E+02 -0.56678956771E+00  0.19948958707E+02  0.79487315613E+02  0.00000000000E+00 0. -1.
         11    1    4    4    0    0  0.19493279688E+02  0.23636751670E+02 -0.16824348652E+02  0.34953436027E+02  0.00000000000E+00 0.  1.
          1    1    1    2  501    0 -0.24573040373E+01 -0.43921852225E+02 -0.20837220422E+02  0.48676043399E+02  0.00000000000E+00 0. -1.
<scales pt_clust_5="13000.00000" pt_clust_6="13000.00000" pt_clust_7="13000.00000" pt_clust_8="13000.00000" pt_clust_9="43.99054"></scales>
<clustering>
<clus scale="   43.991">  2  9  1 -1</clus>
<clus scale="   91.179">  5  6 -1 -1</clus>
<clus scale="   96.200">  7  8 -1 -1</clus>
<clus scale="  109.879">  1  5  2 -1</clus>
<clus scale="   43.991">  2  5  1 -1</clus>
</clustering>
</event>
<event>
 9    1  0.3231311E-005  0.1271523E+03  0.7546771E-02  0.1239835E+00
          3   -1    0    0  502    0 -0.00000000000E+00  0.00000000000E+00  0.51671948206E+03  0.51671948206E+03  0.00000000000E+00 0. -1.
         21   -1    0    0  501  502  0.00000000000E+00 -0.00000000000E+00 -0.80058167079E+02  0.80058167079E+02  0.00000000000E+00 0.  1.
         23    2    1    2    0    0  0.55434729736E+02 -0.19133813618E+02  0.43433320714E+03  0.45255415199E+03  0.11278658420E+03 0.  0.
         23    2    1    2    0    0 -0.44224463362E+02  0.49101865041E+02  0.54271481564E+01  0.11207760737E+03  0.90361163268E+02 0.  0.
        -13    1    4    4    0    0 -0.68022810986E+02  0.25318368522E+02 -0.12968964708E+02  0.73731381681E+02  0.00000000000E+00 0.  1.
         13    1    4    4    0    0  0.23798347623E+02  0.23783496519E+02  0.18396112864E+02  0.38346225692E+02  0.00000000000E+00 0. -1.
        -13    1    3    3    0    0  0.87679713452E+02 -0.28214960709E+02  0.28519167122E+03  0.29969668916E+03  0.00000000000E+00 0. -1.
         13    1    3    3    0    0 -0.32244983716E+02  0.90811470911E+01  0.14914153592E+03  0.15285746283E+03  0.00000000000E+00 0.  1.
          3    1    1    2  501    0 -0.11210266373E+02 -0.29968051423E+02 -0.30990403183E+01  0.32145889771E+02  0.00000000000E+00 0. -1.
<scales pt_clust_5="13000.00000" pt_clust_6="13000.00000" pt_clust_7="13000.00000" pt_clust_8="13000.00000" pt_clust_9="31.99616"></scales>
<clustering>
<clus scale="   31.996">  2  9  1 -1</clus>
<clus scale="   90.361">  5  6 -1 -1</clus>
<clus scale="  107.759">  2  5  1 -1</clus>
<clus scale="  112.787">  7  8 -1 -1</clus>
<clus scale="   31.996">  2  5  1 -1</clus>
</clustering>
</event>
<event>
 9    1  0.3231311E-005  0.9202615E+02  0.7546771E-02  0.1298202E+00
          1   -1    0    0  502    0 -0.00000000000E+00  0.00000000000E+00  0.22190642173E+03  0.22190642173E+03  0.00000000000E+00 0. -1.
         21   -1    0    0  501  502  0.00000000000E+00 -0.00000000000E+00 -0.29644342468E+03  0.29644342468E+03  0.00000000000E+00 0.  1.
         23    2    1    2    0    0 -0.13206882053E+02  0.57794652839E+01  0.18179930964E+03  0.20389150005E+03  0.91175275451E+02 0.  0.
         23    2    1    2    0    0 -0.47797276794E+02 -0.36391561793E+02 -0.19154464948E+03  0.22034900858E+03  0.90859272488E+02 0.  0.
        -11    1    4    4    0    0  0.22606042596E+02  0.69871449393E+01 -0.25103588125E+02  0.34497007015E+02  0.00000000000E+00 0. -1.
         11    1    4    4    0    0 -0.70403319390E+02 -0.43378706733E+02 -0.16644106136E+03  0.18585200156E+03  0.00000000000E+00 0.  1.
        -13    1    3    3    0    0 -0.14270642059E+02  0.43150057652E+02  0.14283925553E+03  0.14989540227E+03  0.00000000000E+00 0. -1.
         13    1    3    3    0    0  0.10637600054E+01 -0.37370592368E+02  0.38960054105E+02  0.53996097777E+02  0.00000000000E+00 0.  1.
          1    1    1    2  501    0  0.61004158847E+02  0.30612096510E+02 -0.64791663109E+02  0.94109337782E+02  0.00000000000E+00 0. -1.
<scales pt_clust_5="13000.00000" pt_clust_6="13000.00000" pt_clust_7="13000.00000" pt_clust_8="13000.00000" pt_clust_9="68.25400"></scales>
<clustering>
<clus scale="   68.254">  2  9  1 -1</clus>
<clus scale="   90.859">  5  6 -1 -1</clus>
<clus scale="   91.175">  7  8 -1 -1</clus>
<clus scale="   91.713">  2  5  1 -1</clus>
<clus scale="   68.254">  2  5  1 -1</clus>
</clustering>
</event>
<event>
 9    1  0.3231311E-005  0.9424001E+02  0.7546771E-02  0.1293571E+00
         21   -1    0    0  501  502  0.00000000000E+00  0.00000000000E+00  0.13521512474E+03  0.13521512474E+03  0.00000000000E+00 0. -1.
          1   -1    0    0  502    0 -0.00000000000E+00 -0.00000000000E+00 -0.19734779028E+03  0.19734779028E+03  0.00000000000E+00 0. -1.
         23    2    1    2    0    0  0.80901795208E+01 -0.13300133273E+02 -0.14381075011E+03  0.17175300261E+03  0.92602470328E+02 0.  0.
         23    2    1    2    0    0 -0.31376538943E+02  0.85415221288E+01  0.26257755967E+02  0.10050807381E+03  0.91405461300E+02 0.  0.
        -11    1    4    4    0    0 -0.56758405016E+02 -0.90556380780E+01  0.36361267535E+02  0.68012226090E+02  0.00000000000E+00 0.  1.
         11    1    4    4    0    0  0.25381866074E+02  0.17597160207E+02 -0.10103511568E+02  0.32495847715E+02  0.00000000000E+00 0. -1.
        -11    1    3    3    0    0 -0.28683608736E+02 -0.59305026136E+01 -0.73032519819E+01  0.30187046243E+02  0.00000000000E+00 0.  1.
         11    1    3    3    0    0  0.36773788257E+02 -0.73696306598E+01 -0.13650749813E+03  0.14156595637E+03  0.00000000000E+00 0. -1.
          1    1    1    2  501    0  0.23286359422E+02  0.47586111446E+01  0.55420328605E+02  0.60301838594E+02  0.00000000000E+00 0. -1.
<scales pt_clust_5="13000.00000" pt_clust_6="13000.00000" pt_clust_7="13000.00000" pt_clust_8="13000.00000" pt_clust_9="23.76760"></scales>
<clustering>
<clus scale="   23.768">  1  9  2 -1</clus>
<clus scale="   91.405">  5  6 -1 -1</clus>
<clus scale="   92.602">  7  8 -1 -1</clus>
<clus scale="   93.064">  1  5  2 -1</clus>
<clus scale="   23.768">  1  5  2 -1</clus>
</clustering>
</event>
<event>
 9    1  0.3231311E-005  0.1054074E+03  0.7546771E-02  0.1269444E+00
         21   -1    0    0  501  502  0.00000000000E+00  0.00000000000E+00  0.10228390750E+03  0.10228390750E+03  0.00000000000E+00 0.  1.
          1   -1    0    0  502    0 -0.00000000000E+00 -0.00000000000E+00 -0.48372292529E+03  0.48372292529E+03  0.00000000000E+00 0. -1.
         23    2    1    2    0    0 -0.49148848081E+02 -0.92304801708E+01 -0.36816275136E+03  0.38275848065E+03  0.91975170533E+02 0.  0.
         23    2    1    2    0    0  0.51149854390E+02  0.32454395879E+02 -0.77801441636E+02  0.13464184719E+03  0.91682971580E+02 0.  0.
        -11    1    3    3    0    0  0.26814905279E+02 -0.10281062578E+02 -0.10202194212E+03  0.10598686742E+03  0.00000000000E+00 0.  1.
         11    1    3    3    0    0 -0.75963753360E+02  0.10505824070E+01 -0.26614080924E+03  0.27677161323E+03  0.00000000000E+00 0. -1.
        -13    1    4    4    0    0  0.75584968644E+02  0.37163649877E+02 -0.66481421973E+02  0.10730332625E+03  0.00000000000E+00 0.  1.
         13    1    4    4    0    0 -0.24435114254E+02 -0.47092539984E+01 -0.11320019663E+02  0.27338520937E+02  0.00000000000E+00 0. -1.
          1    1    1    2  501    0 -0.20010063094E+01 -0.23223915708E+02  0.64525175203E+02  0.68606504954E+02  0.00000000000E+00 0. -1.
<scales pt_clust_5="13000.00000" pt_clust_6="13000.00000" pt_clust_7="13000.00000" pt_clust_8="13000.00000" pt_clust_9="23.30996"></scales>
<clustering>
<clus scale="   23.310">  1  9  2 -1</clus>
<clus scale="   91.683">  7  8 -1 -1</clus>
<clus scale="   91.975">  5  6 -1 -1</clus>
<clus scale="  105.152">  1  7  2 -1</clus>
<clus scale="   23.310">  1  5  2 -1</clus>
</clustering>
</event>
<event>
 9    1  0.3231311E-005  0.1134891E+03  0.7546771E-02  0.1255387E+00
          1   -1    0    0  502    0 -0.00000000000E+00  0.00000000000E+00  0.17201727105E+03  0.17201727105E+03  0.00000000000E+00 0. -1.
         21   -1    0    0  501  502  0.00000000000E+00 -0.00000000000E+00 -0.11307353947E+03  0.11307353947E+03  0.00000000000E+00 0.  1.
         23    2    1    2    0    0 -0.23845758533E+02  0.55670502137E+02  0.47873522139E+02  0.12142259279E+03  0.93721645894E+02 0.  0.
         23    2    1    2    0    0  0.46506489098E+02 -0.51559039970E+02  0.44957706965E+02  0.12269535696E+03  0.90618800883E+02 0.  0.
        -11    1    4    4    0    0  0.21081294049E+02 -0.60159255248E+00 -0.24857985010E+02  0.32599114883E+02  0.00000000000E+00 0. -1.
         11    1    4    4    0    0  0.25425195049E+02 -0.50957447418E+02  0.69815691976E+02  0.90096242078E+02  0.00000000000E+00 0.  1.
        -11    1    3    3    0    0 -0.48885055260E+02  0.28702343393E+02 -0.51041367379E+01  0.56917706874E+02  0.00000000000E+00 0.  1.
         11    1    3    3    0    0  0.25039296727E+02  0.26968158744E+02  0.52977658877E+02  0.64504885913E+02  0.00000000000E+00 0. -1.
          1    1    1    2  501    0 -0.22660730565E+02 -0.41114621668E+01 -0.33887497526E+02  0.40972860768E+02  0.00000000000E+00 0. -1.
<scales pt_clust_5="13000.00000" pt_clust_6="13000.00000" pt_clust_7="13000.00000" pt_clust_8="13000.00000" pt_clust_9="23.03069"></scales>
<clustering>
<clus scale="   23.031">  2  9  1 -1</clus>
<clus scale="   90.619">  5  6 -1 -1</clus>
<clus scale="   93.722">  7  8 -1 -1</clus>
<clus scale="  110.941">  2  5  1 -1</clus>
<clus scale="   23.031">  2  5  1 -1</clus>
</clustering>
</event>
<event>
 9    1  0.3231311E-005  0.3636921E+03  0.7546771E-02  0.1057240E+00
          2   -1    0    0  502    0 -0.00000000000E+00  0.00000000000E+00  0.41552243399E+03  0.41552243399E+03  0.00000000000E+00 0. -1.
         21   -1    0    0  501  502  0.00000000000E+00 -0.00000000000E+00 -0.56696214347E+03  0.56696214347E+03  0.00000000000E+00 0. -1.
         23    2    1    2    0    0  0.12267232624E+03 -0.25210015663E+03 -0.84833331742E+02  0.30511911608E+03  0.85428287031E+02 0.  0.
         23    2    1    2    0    0 -0.14114957169E+03  0.44126698978E+03 -0.10490514586E+03  0.48347813585E+03  0.90034773047E+02 0.  0.
        -11    1    3    3    0    0  0.19634394847E+02 -0.13734144458E+02 -0.32231564766E+02  0.40162295157E+02  0.00000000000E+00 0.  1.
         11    1    3    3    0    0  0.10303793139E+03 -0.23836601217E+03 -0.52601766976E+02  0.26495682092E+03  0.00000000000E+00 0. -1.
        -13    1    4    4    0    0 -0.33307567262E+02  0.25525642288E+02 -0.15748211456E+02  0.44821408001E+02  0.00000000000E+00 0.  1.
         13    1    4    4    0    0 -0.10784200442E+03  0.41574134749E+03 -0.89156934407E+02  0.43865672784E+03  0.00000000000E+00 0. -1.
          2    1    1    2  501    0  0.18477245446E+02 -0.18916683315E+03  0.38298768128E+02  0.19388732553E+03  0.00000000000E+00 0. -1.
<scales pt_clust_5="13000.00000" pt_clust_6="13000.00000" pt_clust_7="13000.00000" pt_clust_8="13000.00000" pt_clust_9="190.06719"></scales>
<clustering>
<clus scale="   85.428">  5  6 -1 -1</clus>
<clus scale="   90.035">  7  8 -1 -1</clus>
<clus scale="  190.067">  2  9  1 -1</clus>
<clus scale="  362.579">  1  5  2 -1</clus>
<clus scale="  190.067">  2  5  1 -1</clus>
</clustering>
</event>
<event>
 9    1  0.3231311E-005  0.1039073E+03  0.7546771E-02  0.1273425E+00
         21   -1    0    0  501  502  0.00000000000E+00  0.00000000000E+00  0.30782953016E+03  0.30782953016E+03  0.00000000000E+00 0.  1.
          1   -1    0    0  502    0 -0.00000000000E+00 -0.00000000000E+00 -0.12197930433E+03  0.12197930433E+03  0.00000000000E+00 0. -1.
         23    2    1    2    0    0 -0.45879089164E+02 -0.16755236434E+02 -0.80322437403E+02  0.12899857384E+03  0.88336342075E+02 0.  0.
         23    2    1    2    0    0  0.67565070404E+02  0.10089769450E+01  0.21864925266E+03  0.24625110907E+03  0.90917854429E+02 0.  0.
        -11    1    3    3    0    0 -0.30849023064E+02 -0.52038466475E+02 -0.36037761158E+02  0.70415796852E+02  0.00000000000E+00 0. -1.
         11    1    3    3    0    0 -0.15030066100E+02  0.35283230041E+02 -0.44284676245E+02  0.58582776985E+02  0.00000000000E+00 0.  1.
        -13    1    4    4    0    0 -0.30094415663E+01  0.30341919709E+02  0.30298198145E+02  0.42984527926E+02  0.00000000000E+00 0. -1.
         13    1    4    4    0    0  0.70574511971E+02 -0.29332942764E+02  0.18835105452E+03  0.20326658114E+03  0.00000000000E+00 0.  1.
          1    1    1    2  501    0 -0.21685981240E+02  0.15746259489E+02  0.47523410570E+02  0.54559151592E+02  0.00000000000E+00 0. -1.
<scales pt_clust_5="13000.00000" pt_clust_6="13000.00000" pt_clust_7="13000.00000" pt_clust_8="13000.00000" pt_clust_9="26.79975"></scales>
<clustering>
<clus scale="   26.800">  1  9  2 -1</clus>
<clus scale="   88.336">  5  6 -1 -1</clus>
<clus scale="   90.918">  7  8 -1 -1</clus>
<clus scale="  101.656">  2  5  1 -1</clus>
<clus scale="   26.800">  1  5  2 -1</clus>
</clustering>
</event>
<event>
 9    1  0.3231311E-005  0.1376463E+03  0.7546771E-02  0.1216738E+00
          3   -1    0    0  502    0 -0.00000000000E+00  0.00000000000E+00  0.24799120620E+03  0.24799120620E+03  0.00000000000E+00 0. -1.
         21   -1    0    0  501  502  0.00000000000E+00 -0.00000000000E+00 -0.57208231486E+03  0.57208231486E+03  0.00000000000E+00 0. -1.
         23    2    1    2    0    0 -0.12229425152E+02 -0.12068182023E+03  0.18665107362E+03  0.24078708363E+03  0.91793985563E+02 0.  0.
         23    2    1    2    0    0  0.40792090199E+02  0.27686852559E+02 -0.65948854992E+02  0.12397885585E+03  0.92687371280E+02 0.  0.
        -11    1    3    3    0    0  0.10477759057E+02 -0.72630130918E+02  0.37414902135E+02  0.82369862533E+02  0.00000000000E+00 0.  1.
         11    1    3    3    0    0 -0.22707184209E+02 -0.48051689315E+02  0.14923617148E+03  0.15841722110E+03  0.00000000000E+00 0. -1.
        -11    1    4    4    0    0  0.68408584853E+02  0.28713233681E+02 -0.60681350146E+02  0.95845764255E+02  0.00000000000E+00 0. -1.
         11    1    4    4    0    0 -0.27616494654E+02 -0.10263811221E+01 -0.52675048461E+01  0.28133091592E+02  0.00000000000E+00 0.  1.
          3    1    1    2  501    0 -0.28562665047E+02  0.92994967674E+02 -0.44479332729E+03  0.45530758158E+03  0.00000000000E+00 0. -1.
<scales pt_clust_5="13000.00000" pt_clust_6="13000.00000" pt_clust_7="13000.00000" pt_clust_8="13000.00000" pt_clust_9="97.28253"></scales>
<clustering>
<clus scale="   91.794">  5  6 -1 -1</clus>
<clus scale="   92.687">  7  8 -1 -1</clus>
<clus scale="   97.283">  2  9  1 -1</clus>
<clus scale="  137.046">  1  5  2 -1</clus>
<clus scale="   97.283">  2  5  1 -1</clus>
</clustering>
</event>
<event>
 9    1  0.3231311E-005  0.1171002E+03  0.7546771E-02  0.1252671E+00
         -3   -1    0    0    0  501 -0.00000000000E+00  0.00000000000E+00  0.85320184684E+02  0.85320184684E+02  0.00000000000E+00 0.  1.
         21   -1    0    0  501  502  0.00000000000E+00 -0.00000000000E+00 -0.40760318862E+03  0.40760318862E+03  0.00000000000E+00 0. -1.
         23    2    1    2    0    0  0.58723447810E+02  0.22200067373E+02  0.13432518536E+02  0.12074730387E+03  0.10226530459E+03 0.  0.
         23    2    1    2    0    0 -0.16961076313E+02 -0.20610619572E+02 -0.30807682332E+03  0.32207098279E+03  0.90032844767E+02 0.  0.
        -13    1    3    3    0    0  0.25183733780E+02  0.50628160457E+02  0.40103647490E+02  0.69323398794E+02  0.00000000000E+00 0.  1.
         13    1    3    3    0    0  0.33539714031E+02 -0.28428093084E+02 -0.26671128954E+02  0.51423905077E+02  0.00000000000E+00 0. -1.
        -13    1    4    4    0    0  0.34055337920E+02 -0.77438605270E+01 -0.18423529830E+03  0.18751634211E+03  0.00000000000E+00 0. -1.
         13    1    4    4    0    0 -0.51016414233E+02 -0.12866759045E+02 -0.12384152502E+03  0.13455464068E+03  0.00000000000E+00 0.  1.
         -3    1    1    2    0  502 -0.41762371497E+02 -0.15894478006E+01 -0.27638699156E+02  0.50105086652E+02  0.00000000000E+00 0.  1.
<scales pt_clust_5="13000.00000" pt_clust_6="13000.00000" pt_clust_7="13000.00000" pt_clust_8="13000.00000" pt_clust_9="41.79263"></scales>
<clustering>
<clus scale="   41.793">  2  9  1 -1</clus>
<clus scale="   90.033">  7  8 -1 -1</clus>
<clus scale="  102.265">  5  6 -1 -1</clus>
<clus scale="  106.584">  2  7  1 -1</clus>
<clus scale="   41.793">  2  5  1 -1</clus>
</clustering>
</event>
<event>
 9    1  0.3231311E-005  0.1249332E+03  0.7546771E-02  0.1235624E+00
          1   -1    0    0  502    0 -0.00000000000E+00  0.00000000000E+00  0.21776358761E+03  0.21776358761E+03  0.00000000000E+00 0. -1.
         21   -1    0    0  501  502  0.00000000000E+00 -0.00000000000E+00 -0.16645893107E+03  0.16645893107E+03  0.00000000000E+00 0. -1.
         23    2    1    2    0    0 -0.43892403899E+02  0.80277319199E+02  0.10930323276E+03  0.16998121694E+03  0.92603597782E+02 0.  0.
         23    2    1    2    0    0  0.50609759155E+02 -0.54005777438E+02  0.30865958529E+02  0.12133154819E+03  0.91053091503E+02 0.  0.
        -11    1    3    3    0    0 -0.22289687136E+02  0.16168830468E+02 -0.12818232996E+02  0.30373809910E+02  0.00000000000E+00 0.  1.
         11    1    3    3    0    0 -0.21602716763E+02  0.64108488730E+02  0.12212146575E+03  0.13960740703E+03  0.00000000000E+00 0. -1.
        -11    1    4    4    0    0 -0.24901504635E+02 -0.74270864111E+01  0.18165767228E+02  0.31705545960E+02  0.00000000000E+00 0.  1.
         11    1    4    4    0    0  0.75511263790E+02 -0.46578691026E+02  0.12700191301E+02  0.89626002231E+02  0.00000000000E+00 0. -1.
          1    1    1    2  501    0 -0.67173552564E+01 -0.26271541761E+02 -0.88864534752E+02  0.92909753550E+02  0.00000000000E+00 0. -1.
<scales pt_clust_5="13000.00000" pt_clust_6="13000.00000" pt_clust_7="13000.00000" pt_clust_8="13000.00000" pt_clust_9="27.11672"></scales>
<clustering>
<clus scale="   27.117">  2  9  1 -1</clus>
<clus scale="   91.053">  7  8 -1 -1</clus>
<clus scale="   92.604">  5  6 -1 -1</clus>
<clus scale="  123.788">  2  7  1 -1</clus>
<clus scale="   27.117">  2  5  1 -1</clus>
</clustering>
</event>
<event>
 9    1  0.3231311E-005  0.1065473E+03  0.7546771E-02  0.1269610E+00
         21   -1    0    0  501  502  0.00000000000E+00  0.00000000000E+00  0.76877291618E+02  0.76877291618E+02  0.00000000000E+00 0. -1.
         -3   -1    0    0    0  501 -0.00000000000E+00 -0.00000000000E+00 -0.20170824782E+03  0.20170824782E+03  0.00000000000E+00 0.  1.
         23    2    1    2    0    0  0.40695448841E+02  0.71418121200E+01 -0.10485328632E+03  0.14558863791E+03  0.92166777091E+02 0.  0.
         23    2    1    2    0    0 -0.46262460290E+02  0.12711841600E+02 -0.25186239201E+02  0.11172982893E+03  0.97710807380E+02 0.  0.
        -13    1    4    4    0    0 -0.29338655599E+02  0.30661241460E+02 -0.57256770504E+02  0.71268549928E+02  0.00000000000E+00 0. -1.
         13    1    4    4    0    0 -0.16923804691E+02 -0.17949399860E+02  0.32070531303E+02  0.40461279003E+02  0.00000000000E+00 0.  1.
        -13    1    3    3    0    0  0.40026808594E+02 -0.38224627424E+02 -0.63037151247E+02  0.83886530416E+02  0.00000000000E+00 0.  1.
         13    1    3    3    0    0  0.66864024715E+00  0.45366439544E+02 -0.41816135072E+02  0.61702107493E+02  0.00000000000E+00 0. -1.
         -3    1    1    2    0  502  0.55670114489E+01 -0.19853653720E+02  0.52085693205E+01  0.21267072598E+02  0.00000000000E+00 0.  1.
<scales pt_clust_5="13000.00000" pt_clust_6="13000.00000" pt_clust_7="13000.00000" pt_clust_8="13000.00000" pt_clust_9="20.61939"></scales>
<clustering>
<clus scale="   20.619">  1  9  2 -1</clus>
<clus scale="   92.167">  7  8 -1 -1</clus>
<clus scale="   97.711">  5  6 -1 -1</clus>
<clus scale="  101.487">  2  7  1 -1</clus>
<clus scale="   20.619">  1  5  2 -1</clus>
</clustering>
</event>
<event>
 9    1  0.3231311E-005  0.2101306E+03  0.7546771E-02  0.1141969E+00
         21   -1    0    0  501  502  0.00000000000E+00  0.00000000000E+00  0.18681736859E+03  0.18681736859E+03  0.00000000000E+00 0. -1.
         -3   -1    0    0    0  501 -0.00000000000E+00 -0.00000000000E+00 -0.32619273645E+03  0.32619273645E+03  0.00000000000E+00 0.  1.
         23    2    1    2    0    0 -0.18671953578E+03 -0.25052206762E+02 -0.16259885267E+03  0.26339535516E+03  0.86295585787E+02 0.  0.
         23    2    1    2    0    0  0.19256339654E+03  0.53520796701E+02  0.49810304691E+01  0.21530150954E+03  0.79904893337E+02 0.  0.
        -11    1    3    3    0    0 -0.17033228159E+03 -0.90713277387E+01 -0.10230100847E+03  0.19889914900E+03  0.00000000000E+00 0.  1.
         11    1    3    3    0    0 -0.16387254189E+02 -0.15980879024E+02 -0.60297844204E+02  0.64496206167E+02  0.00000000000E+00 0. -1.
        -13    1    4    4    0    0  0.11919087327E+03  0.35147431736E+02 -0.35867791577E+02  0.12933794764E+03  0.00000000000E+00 0.  1.
         13    1    4    4    0    0  0.73372523273E+02  0.18373364965E+02  0.40848822046E+02  0.85963561897E+02  0.00000000000E+00 0. -1.
         -3    1    1    2    0  502 -0.58438607625E+01 -0.28468589939E+02  0.18242454352E+02  0.34313240339E+02  0.00000000000E+00 0.  1.
<scales pt_clust_5="13000.00000" pt_clust_6="13000.00000" pt_clust_7="13000.00000" pt_clust_8="13000.00000" pt_clust_9="29.06220"></scales>
<clustering>
<clus scale="   29.062">  1  9  2 -1</clus>
<clus scale="   79.905">  7  8 -1 -1</clus>
<clus scale="   86.296">  5  6 -1 -1</clus>
<clus scale="  207.588">  1  7  2 -1</clus>
<clus scale="   29.062">  1  5  2 -1</clus>
</clustering>
</event>
<event>
 9    1  0.3231311E-005  0.1095665E+03  0.7546771E-02  0.1261492E+00
         21   -1    0    0  501  502  0.00000000000E+00  0.00000000000E+00  0.54485735693E+03  0.54485735693E+03  0.00000000000E+00 0.  1.
         -1   -1    0    0    0  501 -0.00000000000E+00 -0.00000000000E+00 -0.10208297033E+03  0.10208297033E+03  0.00000000000E+00 0.  1.
         23    2    1    2    0    0  0.56365283038E+02  0.28866246133E+02 -0.53250401595E+02  0.12344409740E+03  0.91610777831E+02 0.  0.
         23    2    1    2    0    0 -0.45390211302E+02  0.30424724310E+02  0.33817127685E+03  0.35451811761E+03  0.91309080041E+02 0.  0.
        -11    1    4    4    0    0  0.27037933363E+02  0.94331216433E+01  0.63029506913E+02  0.69229707252E+02  0.00000000000E+00 0.  1.
         11    1    4    4    0    0 -0.72428144665E+02  0.20991602667E+02  0.27514176993E+03  0.28528841036E+03  0.00000000000E+00 0. -1.
        -13    1    3    3    0    0  0.36141729613E+02 -0.14671488640E+02  0.13454126191E+02  0.41261249496E+02  0.00000000000E+00 0. -1.
         13    1    3    3    0    0  0.20223553424E+02  0.43537734773E+02 -0.66704527786E+02  0.82182847903E+02  0.00000000000E+00 0.  1.
         -1    1    1    2    0  502 -0.10975071736E+02 -0.59290970443E+02  0.15785351135E+03  0.16897811226E+03  0.00000000000E+00 0.  1.
<scales pt_clust_5="13000.00000" pt_clust_6="13000.00000" pt_clust_7="13000.00000" pt_clust_8="13000.00000" pt_clust_9="60.29819"></scales>
<clustering>
<clus scale="   60.298">  1  9  2 -1</clus>
<clus scale="   91.309">  5  6 -1 -1</clus>
<clus scale="   91.611">  7  8 -1 -1</clus>
<clus scale="  109.314">  1  5  2 -1</clus>
<clus scale="   60.298">  1  5  2 -1</clus>
</clustering>
</event>
<event>
 9    1  0.3231311E-005  0.3296102E+03  0.7546771E-02  0.1071350E+00
         21   -1    0    0  501  502  0.00000000000E+00  0.00000000000E+00  0.72007589725E+03  0.72007589725E+03  0.00000000000E+00 0.  1.
         -1   -1    0    0    0  501 -0.00000000000E+00 -0.00000000000E+00 -0.38051505879E+03  0.38051505879E+03  0.00000000000E+00 0.  1.
         23    2    1    2    0    0 -0.21635754682E+03 -0.24072421884E+03 -0.59659987937E+02  0.34208149659E+03  0.93282895252E+02 0.  0.
         23    2    1    2    0    0  0.31941611147E+03  0.96864696263E+02  0.28111279900E+02  0.34736602282E+03  0.91997217914E+02 0.  0.
        -11    1    3    3    0    0 -0.18302016983E+03 -0.23875766159E+03 -0.66247248947E+02  0.30804269432E+03  0.00000000000E+00 0. -1.
         11    1    3    3    0    0 -0.33337376993E+02 -0.19665572475E+01  0.65872610099E+01  0.34038802267E+02  0.00000000000E+00 0.  1.
        -13    1    4    4    0    0  0.24668732669E+03  0.11252187373E+03  0.12984744798E+02  0.27144872962E+03  0.00000000000E+00 0.  1.
         13    1    4    4    0    0  0.72728784787E+02 -0.15657177469E+02  0.15126535102E+02  0.75917293202E+02  0.00000000000E+00 0. -1.
         -1    1    1    2    0  502 -0.10305856465E+03  0.14385952258E+03  0.37110954649E+03  0.41114343663E+03  0.00000000000E+00 0.  1.
<scales pt_clust_5="13000.00000" pt_clust_6="13000.00000" pt_clust_7="13000.00000" pt_clust_8="13000.00000" pt_clust_9="176.96505"></scales>
<clustering>
<clus scale="   91.997">  7  8 -1 -1</clus>
<clus scale="   93.283">  5  6 -1 -1</clus>
<clus scale="  176.965">  1  9  2 -1</clus>
<clus scale="  329.249">  1  7  2 -1</clus>
<clus scale="  176.965">  1  5  2 -1</clus>
</clustering>
</event>
<event>
 9    1  0.3231311E-005  0.9185439E+02  0.7546771E-02  0.1298704E+00
         21   -1    0    0  501  502  0.00000000000E+00  0.00000000000E+00  0.69794870125E+03  0.69794870125E+03  0.00000000000E+00 0.  1.
          2   -1    0    0  502    0 -0.00000000000E+00 -0.00000000000E+00 -0.16428959204E+02  0.16428959204E+02  0.00000000000E+00 0. -1.
         23    2    1    2    0    0  0.74237400331E+01 -0.24127491549E+02  0.24247370200E+03  0.25808120234E+03  0.84706334324E+02 0.  0.
         23    2    1    2    0    0 -0.10823813060E+02  0.46896713548E+02  0.29793733593E+03  0.31332210956E+03  0.84188072360E+02 0.  0.
        -11    1    3    3    0    0  0.17551564725E+01  0.31961757880E+02  0.88833660873E+02  0.94424858195E+02  0.00000000000E+00 0.  1.
         11    1    3    3    0    0  0.56685835606E+01 -0.56089249429E+02  0.15364004112E+03  0.16365634414E+03  0.00000000000E+00 0. -1.
        -13    1    4    4    0    0 -0.34617664310E+02 -0.32511209579E+01  0.17520482257E+03  0.17862161773E+03  0.00000000000E+00 0. -1.
         13    1    4    4    0    0  0.23793851249E+02  0.50147834506E+02  0.12273251336E+03  0.13470049183E+03  0.00000000000E+00 0.  1.
          2    1    1    2  501    0  0.34000730271E+01 -0.22769221999E+02  0.14110870412E+03  0.14297434856E+03  0.00000000000E+00 0. -1.
<scales pt_clust_5="13000.00000" pt_clust_6="13000.00000" pt_clust_7="13000.00000" pt_clust_8="13000.00000" pt_clust_9="23.02168"></scales>
<clustering>
<clus scale="   23.022">  1  9  2 -1</clus>
<clus scale="   84.188">  7  8 -1 -1</clus>
<clus scale="   84.706">  5  6 -1 -1</clus>
<clus scale="   91.377">  1  7  2 -1</clus>
<clus scale="   23.022">  1  5  2 -1</clus>
</clustering>
</event>
<event>
 9    1  0.3231311E-005  0.1037969E+03  0.7546771E-02  0.1274384E+00
          2   -1    0    0  502    0 -0.00000000000E+00  0.00000000000E+00  0.17018803067E+03  0.17018803067E+03  0.00000000000E+00 0. -1.
         21   -1    0    0  501  502  0.00000000000E+00 -0.00000000000E+00 -0.27526720353E+03  0.27526720353E+03  0.00000000000E+00 0. -1.
         23    2    1    2    0    0 -0.28823404909E+02 -0.31670355944E+02  0.11554813314E+03  0.15434723801E+03  0.92940296404E+02 0.  0.
         23    2    1    2    0    0  0.28118101046E+02  0.56556026328E+02 -0.52180136866E+02  0.12083103698E+03  0.88815320158E+02 0.  0.
        -11    1    3    3    0    0  0.18790615925E+02 -0.26982775631E+02  0.41908728403E+01  0.33146958273E+02  0.00000000000E+00 0.  1.
         11    1    3    3    0    0 -0.47614020833E+02 -0.46875803125E+01  0.11135726029E+03  0.12120027974E+03  0.00000000000E+00 0. -1.
        -11    1    4    4    0    0 -0.14872325361E+02 -0.14427693802E+02 -0.27145541483E+02  0.34150034151E+02  0.00000000000E+00 0.  1.
         11    1    4    4    0    0  0.42990426407E+02  0.70983720130E+02 -0.25034595383E+02  0.86681002833E+02  0.00000000000E+00 0. -1.
          2    1    1    2  501    0  0.70530386246E+00 -0.24885670384E+02 -0.16844716913E+03  0.17027695920E+03  0.00000000000E+00 0. -1.
<scales pt_clust_5="13000.00000" pt_clust_6="13000.00000" pt_clust_7="13000.00000" pt_clust_8="13000.00000" pt_clust_9="24.89566"></scales>
<clustering>
<clus scale="   24.896">  2  9  1 -1</clus>
<clus scale="   88.815">  7  8 -1 -1</clus>
<clus scale="   92.940">  5  6 -1 -1</clus>
<clus scale="  100.120">  2  7  1 -1</clus>
<clus scale="   24.896">  2  5  1 -1</clus>
</clustering>
</event>
<event>
 9    1  0.3231311E-005  0.9467473E+02  0.7546771E-02  0.1292731E+00
          1   -1    0    0  502    0 -0.00000000000E+00  0.00000000000E+00  0.14206148758E+03  0.14206148758E+03  0.00000000000E+00 0. -1.
         21   -1    0    0  501  502  0.00000000000E+00 -0.00000000000E+00 -0.10050596292E+03  0.10050596292E+03  0.00000000000E+00 0.  1.
         23    2    1    2    0    0  0.12119926174E+02 -0.16194524406E+02  0.32895161225E+02  0.99695386225E+02  0.91912584402E+02 0.  0.
         23    2    1    2    0    0 -0.19479782196E+02 -0.20141466200E+02  0.27494413409E+02  0.10128849622E+03  0.93371709437E+02 0.  0.
        -13    1    4    4    0    0 -0.15784075265E+02 -0.43207302865E+02 -0.18595654721E+02  0.49616594274E+02  0.00000000000E+00 0.  1.
         13    1    4    4    0    0 -0.36957069319E+01  0.23065836665E+02  0.46090068130E+02  0.51671901949E+02  0.00000000000E+00 0. -1.
        -13    1    3    3    0    0  0.33756704295E+02 -0.31847026526E+02 -0.11568426934E+02  0.47828617847E+02  0.00000000000E+00 0.  1.
         13    1    3    3    0    0 -0.21636778121E+02  0.15652502120E+02  0.44463588159E+02  0.51866768379E+02  0.00000000000E+00 0. -1.
          1    1    1    2  501    0  0.73598560223E+01  0.36335990606E+02 -0.18834049968E+02  0.41583568055E+02  0.00000000000E+00 0. -1.
<scales pt_clust_5="13000.00000" pt_clust_6="13000.00000" pt_clust_7="13000.00000" pt_clust_8="13000.00000" pt_clust_9="37.07387"></scales>
<clustering>
<clus scale="   37.074">  2  9  1 -1</clus>
<clus scale="   91.913">  7  8 -1 -1</clus>
<clus scale="   93.236">  1  7  2 -1</clus>
<clus scale="   93.372">  5  6 -1 -1</clus>
<clus scale="   37.074">  2  5  1 -1</clus>
</clustering>
</event>
<event>
 9    1  0.3231311E-005  0.1433677E+03  0.7546771E-02  0.1208999E+00
         21   -1    0    0  501  502  0.00000000000E+00  0.00000000000E+00  0.46188895621E+02  0.46188895621E+02  0.00000000000E+00 0.  1.
          1   -1    0    0  502    0 -0.00000000000E+00 -0.00000000000E+00 -0.81726485989E+03  0.81726485989E+03  0.00000000000E+00 0. -1.
         23    2    1    2    0    0  0.11199515046E+03  0.71002851492E+02 -0.46054089973E+03  0.48780881556E+03  0.90968134892E+02 0.  0.
         23    2    1    2    0    0 -0.54744990845E+02 -0.72691322778E+02 -0.28510198256E+03  0.31297697868E+03  0.91599160994E+02 0.  0.
        -11    1    4    4    0    0 -0.34721679328E+02 -0.11207361732E+02 -0.23260739177E+02  0.43269642469E+02  0.00000000000E+00 0.  1.
         11    1    4    4    0    0 -0.20023311517E+02 -0.61483961046E+02 -0.26184124339E+03  0.26970733622E+03  0.00000000000E+00 0. -1.
        -11    1    3    3    0    0  0.10337835662E+03  0.18703146040E+02 -0.34600973029E+03  0.36160700456E+03  0.00000000000E+00 0.  1.
         11    1    3    3    0    0  0.86167938343E+01  0.52299705452E+02 -0.11453116944E+03  0.12620181100E+03  0.00000000000E+00 0. -1.
          1    1    1    2  501    0 -0.57250159611E+02  0.16884712859E+01 -0.25433081973E+02  0.62667961267E+02  0.00000000000E+00 0. -1.
<scales pt_clust_5="13000.00000" pt_clust_6="13000.00000" pt_clust_7="13000.00000" pt_clust_8="13000.00000" pt_clust_9="57.27505"></scales>
<clustering>
<clus scale="   57.275">  1  9  2 -1</clus>
<clus scale="   90.968">  7  8 -1 -1</clus>
<clus scale="   91.599">  5  6 -1 -1</clus>
<clus scale="  142.965">  2  7  1 -1</clus>
<clus scale="   57.275">  1  5  2 -1</clus>
</clustering>
</event>
<event>
 9    1  0.3231311E-005  0.1048981E+03  0.7546771E-02  0.1272303E+00
         21   -1    0    0  501  502  0.00000000000E+00  0.00000000000E+00  0.48791089266E+02  0.48791089266E+02  0.00000000000E+00 0.  1.
         -3   -1    0    0    0  501 -0.00000000000E+00 -0.00000000000E+00 -0.33278359698E+03  0.33278359698E+03  0.00000000000E+00 0.  1.
         23    2    1    2    0    0 -0.55094189599E+01 -0.58808389057E+02 -0.16417254333E+03  0.19701996957E+03  0.91517561719E+02 0.  0.
         23    2    1    2    0    0 -0.10809854605E+02  0.21783900044E+02 -0.94790841745E+02  0.13697753248E+03  0.95844402380E+02 0.  0.
        -11    1    4    4    0    0 -0.42466463619E+02 -0.14095580626E+02 -0.21980160872E+02  0.49851914682E+02  0.00000000000E+00 0.  1.
         11    1    4    4    0    0  0.31656609013E+02  0.35879480670E+02 -0.72810680873E+02  0.87125617797E+02  0.00000000000E+00 0. -1.
        -13    1    3    3    0    0 -0.23063393525E+02 -0.71313669358E+02 -0.15755535864E+03  0.17447421183E+03  0.00000000000E+00 0.  1.
         13    1    3    3    0    0  0.17553974565E+02  0.12505280301E+02 -0.66171846878E+01  0.22545757730E+02  0.00000000000E+00 0. -1.
         -3    1    1    2    0  502  0.16319273565E+02  0.37024489013E+02 -0.25029122635E+02  0.47577184199E+02  0.00000000000E+00 0.  1.
<scales pt_clust_5="13000.00000" pt_clust_6="13000.00000" pt_clust_7="13000.00000" pt_clust_8="13000.00000" pt_clust_9="40.46148"></scales>
<clustering>
<clus scale="   40.461">  1  9  2 -1</clus>
<clus scale="   91.518">  7  8 -1 -1</clus>
<clus scale="   95.844">  5  6 -1 -1</clus>
<clus scale="  100.960">  2  7  1 -1</clus>
<clus scale="   40.461">  1  5  2 -1</clus>
</clustering>
</event>
<event>
 9    1  0.3231311E-005  0.1244498E+03  0.7546771E-02  0.1236042E+00
         21   -1    0    0  501  502  0.00000000000E+00  0.00000000000E+00  0.12064829540E+03  0.12064829540E+03  0.00000000000E+00 0. -1.
         -3   -1    0    0    0  501 -0.00000000000E+00 -0.00000000000E+00 -0.19971055040E+03  0.19971055040E+03  0.00000000000E+00 0.  1.
         23    2    1    2    0    0  0.63141342282E+02  0.48810817411E+02 -0.96987711567E+02  0.15519885069E+03  0.91163271429E+02 0.  0.
         23    2    1    2    0    0 -0.61255284902E+02 -0.73647024624E+02 -0.31413982687E+01  0.13253781287E+03  0.91544029261E+02 0.  0.
        -11    1    4    4    0    0 -0.18420740629E+02  0.13604695461E+02 -0.23950018217E+02  0.33136306319E+02  0.00000000000E+00 0.  1.
         11    1    4    4    0    0 -0.42834544274E+02 -0.87251720085E+02  0.20808619948E+02  0.99401506553E+02  0.00000000000E+00 0. -1.
        -11    1    3    3    0    0  0.73994102776E+02  0.58976461574E+01 -0.75915641010E+02  0.10617482765E+03  0.00000000000E+00 0. -1.
         11    1    3    3    0    0 -0.10852760494E+02  0.42913171253E+02 -0.21072070557E+02  0.49024023039E+02  0.00000000000E+00 0.  1.
         -3    1    1    2    0  502 -0.18860573799E+01  0.24836207213E+02  0.21066854841E+02  0.32622182239E+02  0.00000000000E+00 0.  1.
<scales pt_clust_5="13000.00000" pt_clust_6="13000.00000" pt_clust_7="13000.00000" pt_clust_8="13000.00000" pt_clust_9="24.90772"></scales>
<clustering>
<clus scale="   24.908">  1  9  2 -1</clus>
<clus scale="   91.163">  7  8 -1 -1</clus>
<clus scale="   91.544">  5  6 -1 -1</clus>
<clus scale="  124.170">  2  7  1 -1</clus>
<clus scale="   24.908">  1  5  2 -1</clus>
</clustering>
</event>
<event>
 9    1  0.3231311E-005  0.9451279E+02  0.7546771E-02  0.1293005E+00
          2   -1    0    0  502    0 -0.00000000000E+00  0.00000000000E+00  0.95799588606E+02  0.95799588606E+02  0.00000000000E+00 0. -1.
         21   -1    0    0  501  502  0.00000000000E+00 -0.00000000000E+00 -0.14125709486E+03  0.14125709486E+03  0.00000000000E+00 0.  1.
         23    2    1    2    0    0 -0.13869838825E+02 -0.32642750614E+01  0.17756804273E+02  0.94495102344E+02  0.91711462470E+02 0.  0.
         23    2    1    2    0    0  0.41130302994E+02  0.73709026592E+01 -0.55149173221E+02  0.11383800654E+03  0.90397059663E+02 0.  0.
        -11    1    4    4    0    0  0.45375577347E+02  0.41985311746E+02 -0.21705655191E+02  0.65519805321E+02  0.00000000000E+00 0.  1.
         11    1    4    4    0    0 -0.42452743532E+01 -0.34614409087E+02 -0.33443518030E+02  0.48318201219E+02  0.00000000000E+00 0. -1.
        -13    1    3    3    0    0  0.22368228493E+02 -0.31885136444E+02 -0.10524369330E+02  0.40345531621E+02  0.00000000000E+00 0.  1.
         13    1    3    3    0    0 -0.36238067318E+02  0.28620861383E+02  0.28281173602E+02  0.54149570724E+02  0.00000000000E+00 0. -1.
          2    1    1    2  501    0 -0.27260464169E+02 -0.41066275978E+01 -0.80651373053E+01  0.28723574581E+02  0.00000000000E+00 0. -1.
<scales pt_clust_5="13000.00000" pt_clust_6="13000.00000" pt_clust_7="13000.00000" pt_clust_8="13000.00000" pt_clust_9="27.56805"></scales>
<clustering>
<clus scale="   27.568">  2  9  1 -1</clus>
<clus scale="   90.397">  5  6 -1 -1</clus>
<clus scale="   91.711">  7  8 -1 -1</clus>
<clus scale="   93.238">  2  5  1 -1</clus>
<clus scale="   27.568">  2  5  1 -1</clus>
</clustering>
</event>
<event>
 9    1  0.3231311E-005  0.1136592E+03  0.7546771E-02  0.1254475E+00
         -1   -1    0    0    0  501 -0.00000000000E+00  0.00000000000E+00  0.30992757299E+03  0.30992757299E+03  0.00000000000E+00 0.  1.
         21   -1    0    0  501  502  0.00000000000E+00 -0.00000000000E+00 -0.70943675772E+02  0.70943675772E+02  0.00000000000E+00 0.  1.
         23    2    1    2    0    0  0.61509620671E+02 -0.32695209986E+02  0.17428477098E+03  0.20937706312E+03  0.92796352159E+02 0.  0.
         23    2    1    2    0    0 -0.60801720748E+02  0.97717601371E+01  0.86347619703E+02  0.13995622526E+03  0.91320846575E+02 0.  0.
        -13    1    3    3    0    0 -0.22201291040E+02 -0.15603761756E+02  0.66596289091E+02  0.71912727841E+02  0.00000000000E+00 0.  1.
         13    1    3    3    0    0  0.83710911712E+02 -0.17091448230E+02  0.10768848189E+03  0.13746433528E+03  0.00000000000E+00 0. -1.
        -13    1    4    4    0    0  0.11799266512E+01  0.38324429106E+02  0.48817497697E+02  0.62074972208E+02  0.00000000000E+00 0. -1.
         13    1    4    4    0    0 -0.61981647400E+02 -0.28552668969E+02  0.37530122006E+02  0.77881253055E+02  0.00000000000E+00 0.  1.
         -1    1    1    2    0  502 -0.70789992274E+00  0.22923449849E+02 -0.21648493468E+02  0.31537960377E+02  0.00000000000E+00 0.  1.
<scales pt_clust_5="13000.00000" pt_clust_6="13000.00000" pt_clust_7="13000.00000" pt_clust_8="13000.00000" pt_clust_9="22.93438"></scales>
<clustering>
<clus scale="   22.934">  2  9  1 -1</clus>
<clus scale="   91.321">  7  8 -1 -1</clus>
<clus scale="   92.796">  5  6 -1 -1</clus>
<clus scale="  112.458">  2  7  1 -1</clus>
<clus scale="   22.934">  2  5  1 -1</clus>
</clustering>
</event>
<event>
 9    1  0.3231311E-005  0.1998731E+03  0.7546771E-02  0.1175415E+00
          1   -1    0    0  502    0 -0.00000000000E+00  0.00000000000E+00  0.13921979425E+04  0.13921979425E+04  0.00000000000E+00 0. -1.
         21   -1    0    0  501  502  0.00000000000E+00 -0.00000000000E+00 -0.79700423886E+02  0.79700423886E+02  0.00000000000E+00 0. -1.
         23    2    1    2    0    0 -0.25451955454E+02 -0.58078336072E+02  0.34899326037E+02  0.11589499206E+03  0.90514037964E+02 0.  0.
         23    2    1    2    0    0 -0.76602572122E+02  0.19513532433E+03  0.10305493407E+04  0.10556154920E+04  0.91358494399E+02 0.  0.
        -13    1    4    4    0    0 -0.44408695967E+02  0.25085083373E+02  0.15668244496E+03  0.16477494422E+03  0.00000000000E+00 0.  1.
         13    1    4    4    0    0 -0.32193876155E+02  0.17005024096E+03  0.87386689570E+03  0.89084054775E+03  0.00000000000E+00 0. -1.
        -13    1    3    3    0    0 -0.34006054998E+02 -0.78498577551E+02  0.37873435047E+02  0.93556590021E+02  0.00000000000E+00 0.  1.
         13    1    3    3    0    0  0.85540995443E+01  0.20420241479E+02 -0.29741090103E+01  0.22338402035E+02  0.00000000000E+00 0. -1.
          1    1    1    2  501    0  0.10205452758E+03 -0.13705698826E+03  0.24704885188E+03  0.30038788232E+03  0.00000000000E+00 0. -1.
<scales pt_clust_5="13000.00000" pt_clust_6="13000.00000" pt_clust_7="13000.00000" pt_clust_8="13000.00000" pt_clust_9="177.77196"></scales>
<clustering>
<clus scale="   90.514">  7  8 -1 -1</clus>
<clus scale="   91.358">  5  6 -1 -1</clus>
<clus scale="  110.516">  1  7  2 -1</clus>
<clus scale="  177.772">  2  9  1 -1</clus>
<clus scale="  177.772">  2  5  1 -1</clus>
</clustering>
</event>
<event>
 9    1  0.3231311E-005  0.1019759E+03  0.7546771E-02  0.1279993E+00
         21   -1    0    0  501  502  0.00000000000E+00  0.00000000000E+00  0.11841541023E+03  0.11841541023E+03  0.00000000000E+00 0.  1.
          3   -1    0    0  502    0 -0.00000000000E+00 -0.00000000000E+00 -0.13778500612E+03  0.13778500612E+03  0.00000000000E+00 0. -1.
         23    2    1    2    0    0 -0.20908979969E+01  0.34841064132E+02 -0.64754075480E+02  0.11707027096E+03  0.91071875170E+02 0.  0.
         23    2    1    2    0    0  0.86970629309E+01 -0.55217880543E+01  0.22986014857E+02  0.10164744821E+03  0.98476991231E+02 0.  0.
        -11    1    3    3    0    0  0.78465271029E+01 -0.30452896958E+02 -0.22422548889E+02  0.38622760381E+02  0.00000000000E+00 0.  1.
         11    1    3    3    0    0 -0.99374250997E+01  0.65293961090E+02 -0.42331526590E+02  0.78447510578E+02  0.00000000000E+00 0. -1.
        -13    1    4    4    0    0 -0.41433932985E+02 -0.20390793445E+02  0.16103489411E+02  0.48906826018E+02  0.00000000000E+00 0.  1.
         13    1    4    4    0    0  0.50130995916E+02  0.14869005391E+02  0.68825254456E+01  0.52740622193E+02  0.00000000000E+00 0. -1.
          3    1    1    2  501    0 -0.66061649340E+01 -0.29319276078E+02  0.22398464735E+02  0.37482697173E+02  0.00000000000E+00 0. -1.
<scales pt_clust_5="13000.00000" pt_clust_6="13000.00000" pt_clust_7="13000.00000" pt_clust_8="13000.00000" pt_clust_9="30.05431"></scales>
<clustering>
<clus scale="   30.054">  1  9  2 -1</clus>
<clus scale="   91.072">  5  6 -1 -1</clus>
<clus scale="   94.844">  2  5  1 -1</clus>
<clus scale="   98.477">  7  8 -1 -1</clus>
<clus scale="   30.054">  1  5  2 -1</clus>
</clustering>
</event>
<event>
 9    1  0.3231311E-005  0.1224399E+03  0.7546771E-02  0.1240238E+00
          1   -1    0    0  502    0 -0.00000000000E+00  0.00000000000E+00  0.83341971480E+03  0.83341971480E+03  0.00000000000E+00 0. -1.
         21   -1    0    0  501  502  0.00000000000E+00 -0.00000000000E+00 -0.28613118280E+02  0.28613118280E+02  0.00000000000E+00 0.  1.
         23    2    1    2    0    0 -0.95117553882E+01 -0.74706602525E+02  0.59694211207E+03  0.60912298223E+03  0.94970376282E+02 0.  0.
         23    2    1    2    0    0  0.29586301417E+02  0.61524608417E+02  0.17888290024E+03  0.21527098011E+03  0.98396525381E+02 0.  0.
        -11    1    3    3    0    0  0.38552306627E+02 -0.59159813855E+02  0.33719383659E+03  0.34450812379E+03  0.00000000000E+00 0. -1.
         11    1    3    3    0    0 -0.48064062015E+02 -0.15546788670E+02  0.25974827548E+03  0.26461485844E+03  0.00000000000E+00 0.  1.
        -13    1    4    4    0    0  0.13257033366E+02  0.87219531078E+02  0.11948079695E+03  0.14852156872E+03  0.00000000000E+00 0.  1.
         13    1    4    4    0    0  0.16329268051E+02 -0.25694922661E+02  0.59402103296E+02  0.66749411395E+02  0.00000000000E+00 0. -1.
          1    1    1    2  501    0 -0.20074546029E+02  0.13181994108E+02  0.28981584202E+02  0.37638870729E+02  0.00000000000E+00 0. -1.
<scales pt_clust_5="13000.00000" pt_clust_6="13000.00000" pt_clust_7="13000.00000" pt_clust_8="13000.00000" pt_clust_9="24.01567"></scales>
<clustering>
<clus scale="   24.016">  2  9  1 -1</clus>
<clus scale="   94.970">  5  6 -1 -1</clus>
<clus scale="   98.397">  7  8 -1 -1</clus>
<clus scale="  119.704">  1  5  2 -1</clus>
<clus scale="   24.016">  2  5  1 -1</clus>
</clustering>
</event>
<event>
 9    1  0.3231311E-005  0.1022217E+03  0.7546771E-02  0.1277001E+00
         21   -1    0    0  501  502  0.00000000000E+00  0.00000000000E+00  0.33397479848E+02  0.33397479848E+02  0.00000000000E+00 0. -1.
         -2   -1    0    0    0  501 -0.00000000000E+00 -0.00000000000E+00 -0.40996687795E+03  0.40996687795E+03  0.00000000000E+00 0.  1.
         23    2    1    2    0    0 -0.97885947226E+01  0.36553047202E+02 -0.16421775824E+03  0.19082993046E+03  0.89535738071E+02 0.  0.
         23    2    1    2    0    0 -0.15035254209E+02 -0.52390633221E+02 -0.16706865171E+03  0.19851959953E+03  0.92343162695E+02 0.  0.
        -11    1    3    3    0    0 -0.24464446429E+02  0.62506240290E+02 -0.12004243801E+03  0.13753445436E+03  0.00000000000E+00 0. -1.
         11    1    3    3    0    0  0.14675851707E+02 -0.25953193088E+02 -0.44175320233E+02  0.53295476098E+02  0.00000000000E+00 0.  1.
        -13    1    4    4    0    0 -0.38854123469E+02 -0.19112951305E+01 -0.25946940534E+02  0.46760449984E+02  0.00000000000E+00 0. -1.
         13    1    4    4    0    0  0.23818869261E+02 -0.50479338090E+02 -0.14112171117E+03  0.15175914955E+03  0.00000000000E+00 0.  1.
         -2    1    1    2    0  502  0.24823848931E+02  0.15837586019E+02 -0.45282988152E+02  0.54014827804E+02  0.00000000000E+00 0.  1.
<scales pt_clust_5="13000.00000" pt_clust_6="13000.00000" pt_clust_7="13000.00000" pt_clust_8="13000.00000" pt_clust_9="29.44576"></scales>
<clustering>
<clus scale="   29.446">  1  9  2 -1</clus>
<clus scale="   89.536">  5  6 -1 -1</clus>
<clus scale="   92.343">  7  8 -1 -1</clus>
<clus scale="   99.693">  2  5  1 -1</clus>
<clus scale="   29.446">  1  5  2 -1</clus>
</clustering>
</event>
<event>
 9    1  0.3231311E-005  0.2792464E+03  0.7546771E-02  0.1096172E+00
          1   -1    0    0  502    0 -0.00000000000E+00  0.00000000000E+00  0.94666829751E+03  0.94666829751E+03  0.00000000000E+00 0. -1.
         21   -1    0    0  501  502  0.00000000000E+00 -0.00000000000E+00 -0.12434668130E+03  0.12434668130E+03  0.00000000000E+00 0. -1.
         23    2    1    2    0    0  0.12653392439E+02  0.22539477199E+03  0.25697211862E+03  0.35412817428E+03  0.91701594795E+02 0.  0.
         23    2    1    2    0    0 -0.88288868873E+01 -0.31619698736E+03  0.33600395886E+03  0.47019054333E+03  0.90122153808E+02 0.  0.
        -13    1    3    3    0    0  0.39526964344E+02  0.74391715379E+02  0.13052758951E+03  0.15535108577E+03  0.00000000000E+00 0.  1.
         13    1    3    3    0    0 -0.26873571905E+02  0.15100305661E+03  0.12644452911E+03  0.19877708851E+03  0.00000000000E+00 0. -1.
        -13    1    4    4    0    0  0.42859983320E+01 -0.25624944590E+03  0.21503841285E+03  0.33454994740E+03  0.00000000000E+00 0. -1.
         13    1    4    4    0    0 -0.13114885219E+02 -0.59947541456E+02  0.12096554601E+03  0.13564059592E+03  0.00000000000E+00 0.  1.
          1    1    1    2  501    0 -0.38245055514E+01  0.90802215366E+02  0.22934553873E+03  0.24669626121E+03  0.00000000000E+00 0. -1.
<scales pt_clust_5="13000.00000" pt_clust_6="13000.00000" pt_clust_7="13000.00000" pt_clust_8="13000.00000" pt_clust_9="90.88277"></scales>
<clustering>
<clus scale="   90.122">  7  8 -1 -1</clus>
<clus scale="   90.883">  2  9  1 -1</clus>
<clus scale="   91.702">  5  6 -1 -1</clus>
<clus scale="  278.732">  2  7  1 -1</clus>
<clus scale="   90.883">  2  5  1 -1</clus>
</clustering>
</event>
<event>
 9    1  0.3231311E-005  0.1305395E+03  0.7546771E-02  0.1227755E+00
         -1   -1    0    0    0  501 -0.00000000000E+00  0.00000000000E+00  0.19964413748E+03  0.19964413748E+03  0.00000000000E+00 0.  1.
         21   -1    0    0  501  502  0.00000000000E+00 -0.00000000000E+00 -0.33683411542E+03  0.33683411542E+03  0.00000000000E+00 0. -1.
         23    2    1    2    0    0 -0.46153783879E+02  0.80533093362E+02  0.13784759604E+03  0.18978012094E+03  0.91644878070E+02 0.  0.
         23    2    1    2    0    0  0.19337674391E+02 -0.97426018837E+02 -0.28438289964E+03  0.31365558710E+03  0.87409489848E+02 0.  0.
        -13    1    3    3    0    0 -0.12154290892E+02  0.81388637711E+02  0.13158497355E+03  0.15519807473E+03  0.00000000000E+00 0.  1.
         13    1    3    3    0    0 -0.33999492988E+02 -0.85554434874E+00  0.62626224905E+01  0.34582046209E+02  0.00000000000E+00 0. -1.
        -13    1    4    4    0    0 -0.27255119884E+02 -0.29061418669E+02 -0.43631466786E+02  0.59085637077E+02  0.00000000000E+00 0.  1.
         13    1    4    4    0    0  0.46592794275E+02 -0.68364600169E+02 -0.24075143285E+03  0.25456995002E+03  0.00000000000E+00 0. -1.
         -1    1    1    2    0  502  0.26816109488E+02  0.16892925475E+02  0.93453256613E+01  0.33042544861E+02  0.00000000000E+00 0.  1.
<scales pt_clust_5="13000.00000" pt_clust_6="13000.00000" pt_clust_7="13000.00000" pt_clust_8="13000.00000" pt_clust_9="31.69346"></scales>
<clustering>
<clus scale="   31.693">  2  9  1 -1</clus>
<clus scale="   87.409">  7  8 -1 -1</clus>
<clus scale="   91.645">  5  6 -1 -1</clus>
<clus scale="  127.602">  2  7  1 -1</clus>
<clus scale="   31.693">  2  5  1 -1</clus>
</clustering>
</event>
<event>
 9    1  0.3231311E-005  0.1328464E+03  0.7546771E-02  0.1223435E+00
          4   -1    0    0  502    0 -0.00000000000E+00  0.00000000000E+00  0.95299673200E+03  0.95299673200E+03  0.00000000000E+00 0. -1.
         21   -1    0    0  501  502  0.00000000000E+00 -0.00000000000E+00 -0.33461437328E+02  0.33461437328E+02  0.00000000000E+00 0. -1.
         23    2    1    2    0    0  0.51733237489E+02 -0.46143686524E+02  0.30062347185E+03  0.32169047264E+03  0.91130240286E+02 0.  0.
         23    2    1    2    0    0 -0.12766739334E+03  0.45127478042E+02  0.46944410720E+03  0.49711440349E+03  0.91703368411E+02 0.  0.
        -11    1    3    3    0    0 -0.27244837403E+01 -0.58566446834E+02  0.15146373296E+03  0.16241525147E+03  0.00000000000E+00 0.  1.
         11    1    3    3    0    0  0.54457721229E+02  0.12422760310E+02  0.14915973889E+03  0.15927522117E+03  0.00000000000E+00 0. -1.
        -13    1    4    4    0    0 -0.16747212277E+02 -0.25126688986E+02  0.12223288783E+03  0.12590749972E+03  0.00000000000E+00 0.  1.
         13    1    4    4    0    0 -0.11092018107E+03  0.70254167028E+02  0.34721121937E+03  0.37120690378E+03  0.00000000000E+00 0. -1.
          4    1    1    2  501    0  0.75934155854E+02  0.10162084814E+01  0.14946771562E+03  0.16765329319E+03  0.00000000000E+00 0. -1.
<scales pt_clust_5="13000.00000" pt_clust_6="13000.00000" pt_clust_7="13000.00000" pt_clust_8="13000.00000" pt_clust_9="75.94096"></scales>
<clustering>
<clus scale="   75.941">  2  9  1 -1</clus>
<clus scale="   91.130">  5  6 -1 -1</clus>
<clus scale="   91.703">  7  8 -1 -1</clus>
<clus scale="  132.451">  1  5  2 -1</clus>
<clus scale="   75.941">  2  5  1 -1</clus>
</clustering>
</event>
<event>
 9    1  0.3231311E-005  0.1615170E+03  0.7546771E-02  0.1188339E+00
         -1   -1    0    0    0  501 -0.00000000000E+00  0.00000000000E+00  0.29669605002E+02  0.29669605002E+02  0.00000000000E+00 0.  1.
         21   -1    0    0  501  502  0.00000000000E+00 -0.00000000000E+00 -0.11949927528E+04  0.11949927528E+04  0.00000000000E+00 0.  1.
         23    2    1    2    0    0 -0.11980018245E+03 -0.12394405835E+02 -0.42947771442E+03  0.45607377754E+03  0.95112976848E+02 0.  0.
         23    2    1    2    0    0  0.13518628528E+03  0.45255344410E+02 -0.44118438613E+03  0.47170189109E+03  0.86808027081E+02 0.  0.
        -13    1    3    3    0    0 -0.12601840437E+02 -0.40654033875E+02 -0.12409717789E+03  0.13119324073E+03  0.00000000000E+00 0. -1.
         13    1    3    3    0    0 -0.10719834201E+03  0.28259628041E+02 -0.30538053654E+03  0.32488053682E+03  0.00000000000E+00 0.  1.
        -13    1    4    4    0    0  0.29908156248E+02  0.20145062878E+02 -0.31237804051E+02  0.47708717971E+02  0.00000000000E+00 0. -1.
         13    1    4    4    0    0  0.10527812903E+03  0.25110281532E+02 -0.40994658208E+03  0.42399317312E+03  0.00000000000E+00 0.  1.
         -1    1    1    2    0  502 -0.15386102832E+02 -0.32860938575E+02 -0.29466104720E+03  0.29688668913E+03  0.00000000000E+00 0.  1.
<scales pt_clust_5="13000.00000" pt_clust_6="13000.00000" pt_clust_7="13000.00000" pt_clust_8="13000.00000" pt_clust_9="36.28462"></scales>
<clustering>
<clus scale="   36.285">  2  9  1 -1</clus>
<clus scale="   86.808">  7  8 -1 -1</clus>
<clus scale="   95.113">  5  6 -1 -1</clus>
<clus scale="  156.770">  2  7  1 -1</clus>
<clus scale="   36.285">  2  5  1 -1</clus>
</clustering>
</event>
<event>
 9    1  0.3231311E-005  0.1274339E+03  0.7546771E-02  0.1231446E+00
         21   -1    0    0  501  502  0.00000000000E+00  0.00000000000E+00  0.10441499450E+03  0.10441499450E+03  0.00000000000E+00 0. -1.
          4   -1    0    0  502    0 -0.00000000000E+00 -0.00000000000E+00 -0.20722577432E+03  0.20722577432E+03  0.00000000000E+00 0. -1.
         23    2    1    2    0    0 -0.70650632929E+02  0.56757122859E+02 -0.68179771927E+02  0.14527228775E+03  0.90789169842E+02 0.  0.
         23    2    1    2    0    0  0.81651704221E+02 -0.36897463706E+02 -0.52356932053E+02  0.13756504344E+03  0.90302099719E+02 0.  0.
        -11    1    3    3    0    0 -0.27690016376E+02 -0.20889625001E+01  0.17483990320E+02  0.32814489006E+02  0.00000000000E+00 0.  1.
         11    1    3    3    0    0 -0.42960616553E+02  0.58846085359E+02 -0.85663762247E+02  0.11245779875E+03  0.00000000000E+00 0. -1.
        -11    1    4    4    0    0  0.13821091606E+02  0.27349928989E+02 -0.36685843342E+00  0.30645974842E+02  0.00000000000E+00 0.  1.
         11    1    4    4    0    0  0.67830612615E+02 -0.64247392695E+02 -0.51990073620E+02  0.10691906860E+03  0.00000000000E+00 0. -1.
          4    1    1    2  501    0 -0.11001071292E+02 -0.19859659153E+02  0.17725924166E+02  0.28803437620E+02  0.00000000000E+00 0. -1.
<scales pt_clust_5="13000.00000" pt_clust_6="13000.00000" pt_clust_7="13000.00000" pt_clust_8="13000.00000" pt_clust_9="22.70308"></scales>
<clustering>
<clus scale="   22.703">  1  9  2 -1</clus>
<clus scale="   90.302">  7  8 -1 -1</clus>
<clus scale="   90.789">  5  6 -1 -1</clus>
<clus scale="  127.087">  1  7  2 -1</clus>
<clus scale="   22.703">  1  5  2 -1</clus>
</clustering>
</event>
<event>
 9    1  0.3231311E-005  0.9931296E+02  0.7546771E-02  0.1284924E+00
         21   -1    0    0  501  502  0.00000000000E+00  0.00000000000E+00  0.25541162376E+03  0.25541162376E+03  0.00000000000E+00 0.  1.
          1   -1    0    0  502    0 -0.00000000000E+00 -0.00000000000E+00 -0.70143705933E+02  0.70143705933E+02  0.00000000000E+00 0. -1.
         23    2    1    2    0    0 -0.16199725001E+02 -0.16077270391E+02  0.18749803935E+02  0.96595419121E+02  0.91968527955E+02 0.  0.
         23    2    1    2    0    0 -0.57823059413E+01  0.14430585155E+02  0.51155691385E+02  0.11151030528E+03  0.97856867786E+02 0.  0.
        -11    1    3    3    0    0  0.24341171091E+02  0.26339742371E+02  0.10304578159E+02  0.37315666540E+02  0.00000000000E+00 0. -1.
         11    1    3    3    0    0 -0.40540896092E+02 -0.42417012762E+02  0.84452257759E+01  0.59279752581E+02  0.00000000000E+00 0.  1.
        -13    1    4    4    0    0  0.48121158709E+01  0.42604263596E+02 -0.93936161562E+01  0.43892137795E+02  0.00000000000E+00 0. -1.
         13    1    4    4    0    0 -0.10594421812E+02 -0.28173678441E+02  0.60549307541E+02  0.67618167485E+02  0.00000000000E+00 0.  1.
          1    1    1    2  501    0  0.21982030942E+02  0.16466852355E+01  0.11536242251E+03  0.11744960529E+03  0.00000000000E+00 0. -1.
<scales pt_clust_5="13000.00000" pt_clust_6="13000.00000" pt_clust_7="13000.00000" pt_clust_8="13000.00000" pt_clust_9="22.04362"></scales>
<clustering>
<clus scale="   22.044">  1  9  2 -1</clus>
<clus scale="   91.969">  5  6 -1 -1</clus>
<clus scale="   93.516">  2  5  1 -1</clus>
<clus scale="   97.857">  7  8 -1 -1</clus>
<clus scale="   22.044">  1  5  2 -1</clus>
</clustering>
</event>
<event>
 9    1  0.3231311E-005  0.1546773E+03  0.7546771E-02  0.1195687E+00
         21   -1    0    0  501  502  0.00000000000E+00  0.00000000000E+00  0.25989266588E+03  0.25989266588E+03  0.00000000000E+00 0.  1.
          1   -1    0    0  502    0 -0.00000000000E+00 -0.00000000000E+00 -0.34962823873E+03  0.34962823873E+03  0.00000000000E+00 0. -1.
         23    2    1    2    0    0 -0.99949096800E+02 -0.97199578400E+02 -0.21796318267E+03  0.27389615408E+03  0.89853070222E+02 0.  0.
         23    2    1    2    0    0  0.12192092240E+03 -0.99204890505E+00 -0.26653850666E+02  0.15092872028E+03  0.84872583146E+02 0.  0.
        -11    1    4    4    0    0  0.74893040428E+02 -0.13473579763E+02  0.24875255957E+02  0.80057999070E+02  0.00000000000E+00 0.  1.
         11    1    4    4    0    0  0.47027881975E+02  0.12481530858E+02 -0.51529106623E+02  0.70870721211E+02  0.00000000000E+00 0. -1.
        -13    1    3    3    0    0 -0.34566379734E+02 -0.47128775009E+02 -0.24014119256E+02  0.63187292753E+02  0.00000000000E+00 0.  1.
         13    1    3    3    0    0 -0.65382717066E+02 -0.50070803392E+02 -0.19394906341E+03  0.21070886132E+03  0.00000000000E+00 0. -1.
          1    1    1    2  501    0 -0.21971825603E+02  0.98191627305E+02  0.15488146048E+03  0.18469603026E+03  0.00000000000E+00 0. -1.
<scales pt_clust_5="13000.00000" pt_clust_6="13000.00000" pt_clust_7="13000.00000" pt_clust_8="13000.00000" pt_clust_9="100.61986"></scales>
<clustering>
<clus scale="   84.873">  5  6 -1 -1</clus>
<clus scale="   89.853">  7  8 -1 -1</clus>
<clus scale="  100.620">  1  9  2 -1</clus>
<clus scale="  151.838">  1  5  2 -1</clus>
<clus scale="  100.620">  1  5  2 -1</clus>
</clustering>
</event>
<event>
 9    1  0.3231311E-005  0.1096433E+03  0.7546771E-02  0.1261552E+00
         21   -1    0    0  501  502  0.00000000000E+00  0.00000000000E+00  0.17507272762E+03  0.17507272762E+03  0.00000000000E+00 0.  1.
         -3   -1    0    0    0  501 -0.00000000000E+00 -0.00000000000E+00 -0.19254838697E+03  0.19254838697E+03  0.00000000000E+00 0.  1.
         23    2    1    2    0    0 -0.61424262715E+02 -0.18180260703E+02 -0.11555464621E+03  0.16066035251E+03  0.91407935522E+02 0.  0.
         23    2    1    2    0    0  0.22913084494E+02  0.68270197608E+02  0.44027445110E+02  0.12381220952E+03  0.90582658273E+02 0.  0.
        -11    1    4    4    0    0  0.13155210632E+02  0.46405547349E+02 -0.22414465095E+02  0.53187805342E+02  0.00000000000E+00 0. -1.
         11    1    4    4    0    0  0.97578738623E+01  0.21864650259E+02  0.66441910205E+02  0.70624404174E+02  0.00000000000E+00 0.  1.
        -13    1    3    3    0    0 -0.15730303868E+01  0.24987846903E+02 -0.18466344531E+01  0.25105317689E+02  0.00000000000E+00 0. -1.
         13    1    3    3    0    0 -0.59851232328E+02 -0.43168107606E+02 -0.11370801176E+03  0.13555503482E+03  0.00000000000E+00 0.  1.
         -3    1    1    2    0  502  0.38511178221E+02 -0.50089936905E+02  0.54051541763E+02  0.83148552567E+02  0.00000000000E+00 0.  1.
<scales pt_clust_5="13000.00000" pt_clust_6="13000.00000" pt_clust_7="13000.00000" pt_clust_8="13000.00000" pt_clust_9="63.18317"></scales>
<clustering>
<clus scale="   63.183">  1  9  2 -1</clus>
<clus scale="   90.583">  5  6 -1 -1</clus>
<clus scale="   91.408">  7  8 -1 -1</clus>
<clus scale="  108.956">  1  5  2 -1</clus>
<clus scale="   63.183">  1  5  2 -1</clus>
</clustering>
</event>
<event>
 9    1  0.3231311E-005  0.9218694E+02  0.7546771E-02  0.1297667E+00
          1   -1    0    0  502    0 -0.00000000000E+00  0.00000000000E+00  0.25693295180E+03  0.25693295180E+03  0.00000000000E+00 0. -1.
         21   -1    0    0  501  502  0.00000000000E+00 -0.00000000000E+00 -0.68382562611E+02  0.68382562611E+02  0.00000000000E+00 0.  1.
         23    2    1    2    0    0  0.23811074727E+01  0.10863991597E+01  0.15692560556E+03  0.18179740630E+03  0.91748576662E+02 0.  0.
         23    2    1    2    0    0 -0.30213784987E+02  0.21417776291E+02  0.52148266595E+01  0.99036857262E+02  0.91703384533E+02 0.  0.
        -11    1    4    4    0    0 -0.39712846207E+01  0.51421505314E+02  0.21632002325E+02  0.55927505173E+02  0.00000000000E+00 0.  1.
         11    1    4    4    0    0 -0.26242500366E+02 -0.30003729022E+02 -0.16417175666E+02  0.43109352089E+02  0.00000000000E+00 0. -1.
        -13    1    3    3    0    0 -0.42246792814E+02  0.81005829465E+01  0.10186854945E+03  0.11057853460E+03  0.00000000000E+00 0. -1.
         13    1    3    3    0    0  0.44627900287E+02 -0.70141837869E+01  0.55057056114E+02  0.71218871699E+02  0.00000000000E+00 0.  1.
          1    1    1    2  501    0  0.27832677514E+02 -0.22504175451E+02  0.26409956970E+02  0.44481250854E+02  0.00000000000E+00 0. -1.
<scales pt_clust_5="13000.00000" pt_clust_6="13000.00000" pt_clust_7="13000.00000" pt_clust_8="13000.00000" pt_clust_9="35.79242"></scales>
<clustering>
<clus scale="   35.792">  2  9  1 -1</clus>
<clus scale="   91.703">  5  6 -1 -1</clus>
<clus scale="   91.749">  7  8 -1 -1</clus>
<clus scale="   92.142">  2  5  1 -1</clus>
<clus scale="   35.792">  2  5  1 -1</clus>
</clustering>
</event>
<event>
 9    1  0.3231311E-005  0.1092009E+03  0.7546771E-02  0.1262682E+00
         21   -1    0    0  501  502  0.00000000000E+00  0.00000000000E+00  0.19441984465E+02  0.19441984465E+02  0.00000000000E+00 0.  1.
          2   -1    0    0  502    0 -0.00000000000E+00 -0.00000000000E+00 -0.10903653296E+04  0.10903653296E+04  0.00000000000E+00 0. -1.
         23    2    1    2    0    0  0.19848899592E+00 -0.25693234784E+02 -0.29705536569E+03  0.31188924847E+03  0.91503176526E+02 0.  0.
         23    2    1    2    0    0 -0.12860508216E+02  0.89114994589E+02 -0.53524775530E+03  0.55068890527E+03  0.93065761134E+02 0.  0.
        -11    1    4    4    0    0  0.32807780168E+02  0.38075109921E+02 -0.12436009858E+03  0.13413239189E+03  0.00000000000E+00 0.  1.
         11    1    4    4    0    0 -0.45668288383E+02  0.51039884667E+02 -0.41088765672E+03  0.41655651337E+03  0.00000000000E+00 0. -1.
        -13    1    3    3    0    0 -0.40293697382E+02 -0.21975458747E+02 -0.91674638654E+02  0.10252191087E+03  0.00000000000E+00 0. -1.
         13    1    3    3    0    0  0.40492186378E+02 -0.37177760367E+01 -0.20538072704E+03  0.20936733760E+03  0.00000000000E+00 0.  1.
          2    1    1    2  501    0  0.12662019220E+02 -0.63421759805E+02 -0.23862022418E+03  0.24722916037E+03  0.00000000000E+00 0. -1.
<scales pt_clust_5="13000.00000" pt_clust_6="13000.00000" pt_clust_7="13000.00000" pt_clust_8="13000.00000" pt_clust_9="64.67341"></scales>
<clustering>
<clus scale="   64.673">  1  9  2 -1</clus>
<clus scale="   91.503">  7  8 -1 -1</clus>
<clus scale="   93.066">  5  6 -1 -1</clus>
<clus scale="  107.872">  2  7  1 -1</clus>
<clus scale="   64.673">  1  5  2 -1</clus>
</clustering>
</event>
<event>
 9    1  0.3231311E-005  0.9550850E+02  0.7546771E-02  0.1291287E+00
         21   -1    0    0  501  502  0.00000000000E+00  0.00000000000E+00  0.67838619350E+02  0.67838619350E+02  0.00000000000E+00 0. -1.
          1   -1    0    0  502    0 -0.00000000000E+00 -0.00000000000E+00 -0.34979030833E+03  0.34979030833E+03  0.00000000000E+00 0. -1.
         23    2    1    2    0    0  0.23192972306E+02  0.97466101794E+01 -0.15708586790E+03  0.18279669680E+03  0.90031950394E+02 0.  0.
         23    2    1    2    0    0 -0.49302668168E+01 -0.30498493544E+02 -0.16172062075E+03  0.18876224787E+03  0.92320969481E+02 0.  0.
        -11    1    4    4    0    0 -0.25728944755E+02  0.25187247814E+02 -0.79805909618E+02  0.87552037444E+02  0.00000000000E+00 0.  1.
         11    1    4    4    0    0  0.20798677939E+02 -0.55685741358E+02 -0.81914711130E+02  0.10121021042E+03  0.00000000000E+00 0. -1.
        -13    1    3    3    0    0  0.49425481145E+02 -0.28620660423E+01 -0.44696137402E+02  0.66699432585E+02  0.00000000000E+00 0. -1.
         13    1    3    3    0    0 -0.26232508839E+02  0.12608676222E+02 -0.11238973050E+03  0.11609726422E+03  0.00000000000E+00 0.  1.
          1    1    1    2  501    0 -0.18262705489E+02  0.20751883365E+02  0.36854799677E+02  0.46069983006E+02  0.00000000000E+00 0. -1.
<scales pt_clust_5="13000.00000" pt_clust_6="13000.00000" pt_clust_7="13000.00000" pt_clust_8="13000.00000" pt_clust_9="27.64357"></scales>
<clustering>
<clus scale="   27.644">  1  9  2 -1</clus>
<clus scale="   90.032">  7  8 -1 -1</clus>
<clus scale="   92.321">  5  6 -1 -1</clus>
<clus scale="   93.298">  2  7  1 -1</clus>
<clus scale="   27.644">  1  5  2 -1</clus>
</clustering>
</event>
<event>
 9    1  0.3231311E-005  0.1197528E+03  0.7546771E-02  0.1244306E+00
          3   -1    0    0  502    0 -0.00000000000E+00  0.00000000000E+00  0.29779725970E+02  0.29779725970E+02  0.00000000000E+00 0. -1.
         21   -1    0    0  501  502  0.00000000000E+00 -0.00000000000E+00 -0.58263894698E+03  0.58263894698E+03  0.00000000000E+00 0.  1.
         23    2    1    2    0    0 -0.53384300801E+02  0.39208963198E+02 -0.23043763681E+03  0.25593673832E+03  0.89525880038E+02 0.  0.
         23    2    1    2    0    0  0.65417763064E+02 -0.59658385034E+02 -0.25918252975E+03  0.28893816308E+03  0.92038425271E+02 0.  0.
        -11    1    4    4    0    0  0.71145408847E+02 -0.19318107868E+02 -0.22147480453E+03  0.23342225158E+03  0.00000000000E+00 0.  1.
         11    1    4    4    0    0 -0.57276457827E+01 -0.40340277166E+02 -0.37707725217E+02  0.55515911494E+02  0.00000000000E+00 0. -1.
        -13    1    3    3    0    0 -0.32394911301E+02  0.30122080238E+02 -0.22876626379E+03  0.23300380564E+03  0.00000000000E+00 0.  1.
         13    1    3    3    0    0 -0.20989389500E+02  0.90868829602E+01 -0.16713730231E+01  0.22932932680E+02  0.00000000000E+00 0. -1.
          3    1    1    2  501    0 -0.12033462263E+02  0.20449421835E+02 -0.63239054445E+02  0.67543771545E+02  0.00000000000E+00 0. -1.
<scales pt_clust_5="13000.00000" pt_clust_6="13000.00000" pt_clust_7="13000.00000" pt_clust_8="13000.00000" pt_clust_9="23.72726"></scales>
<clustering>
<clus scale="   23.727">  2  9  1 -1</clus>
<clus scale="   89.526">  7  8 -1 -1</clus>
<clus scale="   92.038">  5  6 -1 -1</clus>
<clus scale="  117.833">  1  7  2 -1</clus>
<clus scale="   23.727">  2  5  1 -1</clus>
</clustering>
</event>
<event>
 9    1  0.3231311E-005  0.1395165E+03  0.7546771E-02  0.1214105E+00
         21   -1    0    0  501  502  0.00000000000E+00  0.00000000000E+00  0.41518236606E+03  0.41518236606E+03  0.00000000000E+00 0.  1.
         -2   -1    0    0    0  501 -0.00000000000E+00 -0.00000000000E+00 -0.17958218373E+03  0.17958218373E+03  0.00000000000E+00 0.  1.
         23    2    1    2    0    0 -0.36975057026E+02  0.11466316255E+03 -0.11635746699E+03  0.19033927370E+03  0.90416720241E+02 0.  0.
         23    2    1    2    0    0  0.15146773754E+02 -0.52492779481E+02  0.10677911140E+03  0.15054706524E+03  0.90981995852E+02 0.  0.
        -11    1    4    4    0    0 -0.19148446055E+02 -0.50650799095E+02  0.10251667096E+03  0.11593892469E+03  0.00000000000E+00 0.  1.
         11    1    4    4    0    0  0.34295219809E+02 -0.18419803858E+01  0.42624404386E+01  0.34608140545E+02  0.00000000000E+00 0. -1.
        -11    1    3    3    0    0 -0.49061825905E+02  0.38628671023E+02 -0.88819712059E+02  0.10857337720E+03  0.00000000000E+00 0.  1.
         11    1    3    3    0    0  0.12086768879E+02  0.76034491527E+02 -0.27537754935E+02  0.81765896501E+02  0.00000000000E+00 0. -1.
         -2    1    1    2    0  502  0.21828283271E+02 -0.62170383069E+02  0.24517853793E+03  0.25387821085E+03  0.00000000000E+00 0.  1.
<scales pt_clust_5="13000.00000" pt_clust_6="13000.00000" pt_clust_7="13000.00000" pt_clust_8="13000.00000" pt_clust_9="65.89105"></scales>
<clustering>
<clus scale="   65.891">  1  9  2 -1</clus>
<clus scale="   90.417">  7  8 -1 -1</clus>
<clus scale="   90.982">  5  6 -1 -1</clus>
<clus scale="  139.149">  2  7  1 -1</clus>
<clus scale="   65.891">  1  5  2 -1</clus>
</clustering>
</event>
<event>
 9    1  0.3231311E-005  0.4118612E+03  0.7546771E-02  0.1039767E+00
         21   -1    0    0  501  502  0.00000000000E+00  0.00000000000E+00  0.74622638412E+03  0.74622638412E+03  0.00000000000E+00 0. -1.
          2   -1    0    0  502    0 -0.00000000000E+00 -0.00000000000E+00 -0.32664793623E+03  0.32664793623E+03  0.00000000000E+00 0. -1.
         23    2    1    2    0    0  0.35099756650E+03 -0.21155984367E+03 -0.69935213952E+02  0.42538770168E+03  0.90038344303E+02 0.  0.
         23    2    1    2    0    0 -0.32210451707E+03  0.19880705792E+03  0.42962630599E+03  0.57978183863E+03  0.91063996268E+02 0.  0.
        -11    1    4    4    0    0 -0.13800177847E+03  0.12369313534E+03  0.25446189384E+03  0.31479412003E+03  0.00000000000E+00 0.  1.
         11    1    4    4    0    0 -0.18410273860E+03  0.75113922576E+02  0.17516441215E+03  0.26498771860E+03  0.00000000000E+00 0. -1.
        -11    1    3    3    0    0  0.34092900211E+02  0.53509970535E+01 -0.14271270626E+02  0.37344720906E+02  0.00000000000E+00 0.  1.
         11    1    3    3    0    0  0.31690466629E+03 -0.21691084072E+03 -0.55663943326E+02  0.38804298077E+03  0.00000000000E+00 0. -1.
          2    1    1    2  501    0 -0.28893049435E+02  0.12752785748E+02  0.59887355844E+02  0.67704780038E+02  0.00000000000E+00 0. -1.
<scales pt_clust_5="13000.00000" pt_clust_6="13000.00000" pt_clust_7="13000.00000" pt_clust_8="13000.00000" pt_clust_9="31.58230"></scales>
<clustering>
<clus scale="   31.582">  1  9  2 -1</clus>
<clus scale="   90.038">  7  8 -1 -1</clus>
<clus scale="   91.064">  5  6 -1 -1</clus>
<clus scale="  411.636">  2  7  1 -1</clus>
<clus scale="   31.582">  1  5  2 -1</clus>
</clustering>
</event>
<event>
 9    1  0.3231311E-005  0.1098661E+03  0.7546771E-02  0.1262120E+00
          3   -1    0    0  502    0 -0.00000000000E+00  0.00000000000E+00  0.69038872393E+02  0.69038872393E+02  0.00000000000E+00 0. -1.
         21   -1    0    0  501  502  0.00000000000E+00 -0.00000000000E+00 -0.26824687832E+03  0.26824687832E+03  0.00000000000E+00 0.  1.
         23    2    1    2    0    0 -0.52165800902E+02  0.42074581528E+02 -0.71343039132E+02  0.14000901070E+03  0.10010570738E+03 0.  0.
         23    2    1    2    0    0  0.26415196964E+02  0.10090600148E+00 -0.90754815493E+02  0.13547844974E+03  0.97057719921E+02 0.  0.
        -11    1    3    3    0    0  0.15159416756E+02 -0.19133466711E+02 -0.33530671974E+02  0.41475335174E+02  0.00000000000E+00 0. -1.
         11    1    3    3    0    0 -0.67325217658E+02  0.61208048240E+02 -0.37812367159E+02  0.98533675523E+02  0.00000000000E+00 0.  1.
        -11    1    4    4    0    0  0.22240881026E+02 -0.31089077733E+02 -0.96224011101E+02  0.10353862977E+03  0.00000000000E+00 0.  1.
         11    1    4    4    0    0  0.41743159384E+01  0.31189983734E+02  0.54691956083E+01  0.31939819967E+02  0.00000000000E+00 0. -1.
          3    1    1    2  501    0  0.25750603938E+02 -0.42175487530E+02 -0.37110151306E+02  0.61798290280E+02  0.00000000000E+00 0. -1.
<scales pt_clust_5="13000.00000" pt_clust_6="13000.00000" pt_clust_7="13000.00000" pt_clust_8="13000.00000" pt_clust_9="49.41523"></scales>
<clustering>
<clus scale="   49.415">  2  9  1 -1</clus>
<clus scale="   97.058">  7  8 -1 -1</clus>
<clus scale="  100.106">  5  6 -1 -1</clus>
<clus scale="  107.096">  2  7  1 -1</clus>
<clus scale="   49.415">  2  5  1 -1</clus>
</clustering>
</event>
<event>
 9    1  0.3231311E-005  0.1089614E+03  0.7546771E-02  0.1263723E+00
         21   -1    0    0  501  502  0.00000000000E+00  0.00000000000E+00  0.11372705459E+03  0.11372705459E+03  0.00000000000E+00 0. -1.
          1   -1    0    0  502    0 -0.00000000000E+00 -0.00000000000E+00 -0.18452097923E+03  0.18452097923E+03  0.00000000000E+00 0. -1.
         23    2    1    2    0    0  0.10598727463E+02  0.13175807389E+02 -0.95292335105E+02  0.14338574569E+03  0.10579654065E+03 0.  0.
         23    2    1    2    0    0 -0.11456937708E+02  0.19014305060E+02 -0.56246531347E+01  0.11076763058E+03  0.10837447136E+03 0.  0.
        -11    1    3    3    0    0 -0.21835525449E+02 -0.27586211825E+02 -0.45649196678E+00  0.35185190626E+02  0.00000000000E+00 0.  1.
         11    1    3    3    0    0  0.32434252912E+02  0.40762019214E+02 -0.94835843138E+02  0.10820055506E+03  0.00000000000E+00 0. -1.
        -13    1    4    4    0    0 -0.50445412038E+02 -0.13573170910E+02  0.17289364815E+02  0.55026290989E+02  0.00000000000E+00 0.  1.
         13    1    4    4    0    0  0.38988474331E+02  0.32587475971E+02 -0.22914017950E+02  0.55741339591E+02  0.00000000000E+00 0. -1.
          1    1    1    2  501    0  0.85821024450E+00 -0.32190112450E+02  0.30123063590E+02  0.44094657550E+02  0.00000000000E+00 0. -1.
<scales pt_clust_5="13000.00000" pt_clust_6="13000.00000" pt_clust_7="13000.00000" pt_clust_8="13000.00000" pt_clust_9="32.20155"></scales>
<clustering>
<clus scale="   32.202">  1  9  2 -1</clus>
<clus scale="  105.797">  5  6 -1 -1</clus>
<clus scale="  106.398">  2  5  1 -1</clus>
<clus scale="  108.374">  7  8 -1 -1</clus>
<clus scale="   32.202">  1  5  2 -1</clus>
</clustering>
</event>
<event>
 9    1  0.3231311E-005  0.9631323E+02  0.7546771E-02  0.1290553E+00
         -1   -1    0    0    0  501 -0.00000000000E+00  0.00000000000E+00  0.60129267888E+03  0.60129267888E+03  0.00000000000E+00 0.  1.
         21   -1    0    0  501  502  0.00000000000E+00 -0.00000000000E+00 -0.26003931338E+02  0.26003931338E+02  0.00000000000E+00 0. -1.
         23    2    1    2    0    0 -0.17567580582E+01 -0.41647505130E+02  0.38467348331E+03  0.39725415774E+03  0.89997645526E+02 0.  0.
         23    2    1    2    0    0 -0.25805462674E+02  0.15569903062E+02  0.13089072295E+03  0.15928414433E+03  0.85619585920E+02 0.  0.
        -13    1    4    4    0    0  0.12609624553E+02  0.25463288241E+02  0.70933070896E+01  0.29286459071E+02  0.00000000000E+00 0. -1.
         13    1    4    4    0    0 -0.38415087227E+02 -0.98933851797E+01  0.12379741586E+03  0.12999768525E+03  0.00000000000E+00 0.  1.
        -13    1    3    3    0    0  0.35839087627E+02 -0.48763740911E+02  0.21791072435E+03  0.22615796784E+03  0.00000000000E+00 0.  1.
         13    1    3    3    0    0 -0.37595845685E+02  0.71162357811E+01  0.16676275896E+03  0.17109618991E+03  0.00000000000E+00 0. -1.
         -1    1    1    2    0  502  0.27562220732E+02  0.26077602068E+02  0.59724541276E+02  0.70758308147E+02  0.00000000000E+00 0.  1.
<scales pt_clust_5="13000.00000" pt_clust_6="13000.00000" pt_clust_7="13000.00000" pt_clust_8="13000.00000" pt_clust_9="37.94361"></scales>
<clustering>
<clus scale="   37.944">  2  9  1 -1</clus>
<clus scale="   85.620">  5  6 -1 -1</clus>
<clus scale="   89.998">  7  8 -1 -1</clus>
<clus scale="   92.235">  2  5  1 -1</clus>
<clus scale="   37.944">  2  5  1 -1</clus>
</clustering>
</event>
<event>
 9    1  0.3231311E-005  0.2653337E+03  0.7546771E-02  0.1104034E+00
          2   -1    0    0  502    0 -0.00000000000E+00  0.00000000000E+00  0.66239416462E+03  0.66239416462E+03  0.00000000000E+00 0. -1.
         21   -1    0    0  501  502  0.00000000000E+00 -0.00000000000E+00 -0.13827784938E+03  0.13827784938E+03  0.00000000000E+00 0.  1.
         23    2    1    2    0    0 -0.15395841188E+03 -0.21379384313E+03  0.33424772053E+03  0.43510995593E+03  0.90488314827E+02 0.  0.
         23    2    1    2    0    0  0.14063569473E+03  0.18515063936E+03  0.21141850105E+03  0.32732168178E+03  0.91556228028E+02 0.  0.
        -11    1    4    4    0    0  0.42322694768E+02  0.12204995504E+03  0.82152975388E+02  0.15308988661E+03  0.00000000000E+00 0.  1.
         11    1    4    4    0    0  0.98312999961E+02  0.63100684318E+02  0.12926552567E+03  0.17423179517E+03  0.00000000000E+00 0. -1.
        -13    1    3    3    0    0 -0.14776121966E+02 -0.93266070107E+02  0.11078978649E+03  0.14557221714E+03  0.00000000000E+00 0. -1.
         13    1    3    3    0    0 -0.13918228992E+03 -0.12052777303E+03  0.22345793404E+03  0.28953773879E+03  0.00000000000E+00 0.  1.
          2    1    1    2  501    0  0.13322717153E+02  0.28643203775E+02 -0.21549906341E+02  0.38240376281E+02  0.00000000000E+00 0. -1.
<scales pt_clust_5="13000.00000" pt_clust_6="13000.00000" pt_clust_7="13000.00000" pt_clust_8="13000.00000" pt_clust_9="31.59000"></scales>
<clustering>
<clus scale="   31.590">  2  9  1 -1</clus>
<clus scale="   90.488">  7  8 -1 -1</clus>
<clus scale="   91.556">  5  6 -1 -1</clus>
<clus scale="  264.967">  1  7  2 -1</clus>
<clus scale="   31.590">  2  5  1 -1</clus>
</clustering>
</event>
<event>
 9    1  0.3231311E-005  0.9520525E+02  0.7546771E-02  0.1291237E+00
          4   -1    0    0  502    0 -0.00000000000E+00  0.00000000000E+00  0.72918505226E+02  0.72918505226E+02  0.00000000000E+00 0. -1.
         21   -1    0    0  501  502  0.00000000000E+00 -0.00000000000E+00 -0.58126805245E+03  0.58126805245E+03  0.00000000000E+00 0.  1.
         23    2    1    2    0    0 -0.88228909088E+01 -0.21269812381E+02  0.53821556221E+01  0.93230198595E+02  0.90181228691E+02 0.  0.
         23    2    1    2    0    0  0.82489224099E+02  0.17333275656E+02 -0.17165676147E+03  0.21101709223E+03  0.89203446779E+02 0.  0.
        -11    1    3    3    0    0  0.14062093941E+02 -0.39330874961E+02  0.32877503730E+02  0.53156283380E+02  0.00000000000E+00 0. -1.
         11    1    3    3    0    0 -0.22884984849E+02  0.18061062581E+02 -0.27495348108E+02  0.40073915215E+02  0.00000000000E+00 0.  1.
        -13    1    4    4    0    0  0.51817248718E+02  0.16685768198E+02 -0.17192449740E+03  0.18033711468E+03  0.00000000000E+00 0.  1.
         13    1    4    4    0    0  0.30671975382E+02  0.64750745807E+00  0.26773593316E+00  0.30679977546E+02  0.00000000000E+00 0. -1.
          4    1    1    2  501    0 -0.73666333190E+02  0.39365367249E+01 -0.34207494137E+03  0.34993926685E+03  0.00000000000E+00 0. -1.
<scales pt_clust_5="13000.00000" pt_clust_6="13000.00000" pt_clust_7="13000.00000" pt_clust_8="13000.00000" pt_clust_9="73.77144"></scales>
<clustering>
<clus scale="   73.771">  2  9  1 -1</clus>
<clus scale="   89.203">  7  8 -1 -1</clus>
<clus scale="   90.181">  5  6 -1 -1</clus>
<clus scale="   94.280">  2  7  1 -1</clus>
<clus scale="   73.771">  2  5  1 -1</clus>
</clustering>
</event>
<event>
 9    1  0.3231311E-005  0.1632708E+03  0.7546771E-02  0.1185074E+00
         -1   -1    0    0    0  501 -0.00000000000E+00  0.00000000000E+00  0.54333156854E+03  0.54333156854E+03  0.00000000000E+00 0.  1.
         21   -1    0    0  501  502  0.00000000000E+00 -0.00000000000E+00 -0.62487478242E+02  0.62487478242E+02  0.00000000000E+00 0.  1.
         23    2    1    2    0    0 -0.12507064988E+03  0.59660127996E+02  0.31739756233E+03  0.35890382700E+03  0.94174020453E+02 0.  0.
         23    2    1    2    0    0  0.11810082575E+03 -0.37970136532E+02  0.11594669271E+03  0.19423440233E+03  0.94307111006E+02 0.  0.
        -11    1    4    4    0    0  0.50439291077E+02 -0.55457929068E+02  0.23937128155E+02  0.78693647044E+02  0.00000000000E+00 0. -1.
         11    1    4    4    0    0  0.67661534673E+02  0.17487792536E+02  0.92009564552E+02  0.11554075528E+03  0.00000000000E+00 0.  1.
        -11    1    3    3    0    0 -0.24997750099E+02 -0.19303445274E+02  0.26233315489E+02  0.41057244805E+02  0.00000000000E+00 0. -1.
         11    1    3    3    0    0 -0.10007289978E+03  0.78963573270E+02  0.29116424684E+03  0.31784658220E+03  0.00000000000E+00 0.  1.
         -1    1    1    2    0  502  0.69698241295E+01 -0.21689991464E+02  0.47499835256E+02  0.52680817452E+02  0.00000000000E+00 0.  1.
<scales pt_clust_5="13000.00000" pt_clust_6="13000.00000" pt_clust_7="13000.00000" pt_clust_8="13000.00000" pt_clust_9="22.78233"></scales>
<clustering>
<clus scale="   22.782">  2  9  1 -1</clus>
<clus scale="   94.174">  7  8 -1 -1</clus>
<clus scale="   94.307">  5  6 -1 -1</clus>
<clus scale="  163.194">  1  7  2 -1</clus>
<clus scale="   22.782">  2  5  1 -1</clus>
</clustering>
</event>
<event>
 9    1  0.3231311E-005  0.9493877E+02  0.7546771E-02  0.1291331E+00
         21   -1    0    0  501  502  0.00000000000E+00  0.00000000000E+00  0.10672790032E+03  0.10672790032E+03  0.00000000000E+00 0.  1.
          1   -1    0    0  502    0 -0.00000000000E+00 -0.00000000000E+00 -0.18469611480E+03  0.18469611480E+03  0.00000000000E+00 0. -1.
         23    2    1    2    0    0  0.28507152982E+01  0.21168751957E+02 -0.11804530642E+03  0.15079779087E+03  0.91373063459E+02 0.  0.
         23    2    1    2    0    0 -0.27810798381E+02 -0.39530869989E+02  0.35401303742E+02  0.10928876868E+03  0.91403788018E+02 0.  0.
        -11    1    4    4    0    0  0.31621393013E+02 -0.11900511989E+02  0.26923053359E+02  0.43201683808E+02  0.00000000000E+00 0. -1.
         11    1    4    4    0    0 -0.59432191394E+02 -0.27630358001E+02  0.84782503836E+01  0.66087084871E+02  0.00000000000E+00 0.  1.
        -11    1    3    3    0    0 -0.22266722546E+01  0.57295115853E+02 -0.70753946501E+02  0.91070353658E+02  0.00000000000E+00 0. -1.
         11    1    3    3    0    0  0.50773875527E+01 -0.36126363896E+02 -0.47291359923E+02  0.59727437214E+02  0.00000000000E+00 0.  1.
          1    1    1    2  501    0  0.24960083083E+02  0.18362118032E+02  0.46757881981E+01  0.31337455567E+02  0.00000000000E+00 0. -1.
<scales pt_clust_5="13000.00000" pt_clust_6="13000.00000" pt_clust_7="13000.00000" pt_clust_8="13000.00000" pt_clust_9="30.98666"></scales>
<clustering>
<clus scale="   30.987">  1  9  2 -1</clus>
<clus scale="   91.373">  7  8 -1 -1</clus>
<clus scale="   91.404">  5  6 -1 -1</clus>
<clus scale="   94.909">  2  7  1 -1</clus>
<clus scale="   30.987">  1  5  2 -1</clus>
</clustering>
</event>
<event>
 9    1  0.3231311E-005  0.1605326E+03  0.7546771E-02  0.1211155E+00
          2   -1    0    0  502    0 -0.00000000000E+00  0.00000000000E+00  0.60657378577E+03  0.60657378577E+03  0.00000000000E+00 0. -1.
         21   -1    0    0  501  502  0.00000000000E+00 -0.00000000000E+00 -0.16941117890E+03  0.16941117890E+03  0.00000000000E+00 0. -1.
         23    2    1    2    0    0  0.15890905801E+02 -0.29531338245E+02  0.17726231995E+03  0.20218819121E+03  0.91288081187E+02 0.  0.
         23    2    1    2    0    0 -0.10017487148E+03 -0.71774936730E+02  0.37074445923E+03  0.40159578985E+03  0.92957398594E+02 0.  0.
        -11    1    4    4    0    0  0.10928369353E+02 -0.21112834299E+02  0.23174391911E+02  0.33199901646E+02  0.00000000000E+00 0.  1.
         11    1    4    4    0    0 -0.11110324084E+03 -0.50662102431E+02  0.34757006732E+03  0.36839588820E+03  0.00000000000E+00 0. -1.
        -13    1    3    3    0    0 -0.24404566368E+02  0.10343327648E+02  0.15330657884E+02  0.30620195257E+02  0.00000000000E+00 0.  1.
         13    1    3    3    0    0  0.40295472168E+02 -0.39874665893E+02  0.16193166206E+03  0.17156799596E+03  0.00000000000E+00 0. -1.
          2    1    1    2  501    0  0.84283965682E+02  0.10130627497E+03 -0.11084417232E+03  0.17220098361E+03  0.00000000000E+00 0. -1.
<scales pt_clust_5="13000.00000" pt_clust_6="13000.00000" pt_clust_7="13000.00000" pt_clust_8="13000.00000" pt_clust_9="130.88019"></scales>
<clustering>
<clus scale="   91.288">  7  8 -1 -1</clus>
<clus scale="   92.957">  5  6 -1 -1</clus>
<clus scale="   97.253">  1  7  2 -1</clus>
<clus scale="  130.880">  2  9  1 -1</clus>
<clus scale="  130.880">  2  5  1 -1</clus>
</clustering>
</event>
<event>
 9    1  0.3231311E-005  0.1229054E+03  0.7546771E-02  0.1240121E+00
         21   -1    0    0  501  502  0.00000000000E+00  0.00000000000E+00  0.11596262815E+03  0.11596262815E+03  0.00000000000E+00 0. -1.
         -1   -1    0    0    0  501 -0.00000000000E+00 -0.00000000000E+00 -0.34240187821E+03  0.34240187821E+03  0.00000000000E+00 0.  1.
         23    2    1    2    0    0  0.84425637252E+02  0.17382894729E+01 -0.21383848641E+03  0.24718621232E+03  0.90793256452E+02 0.  0.
         23    2    1    2    0    0 -0.36599257962E+02 -0.70887798453E+02  0.54661714267E+01  0.12518160054E+03  0.96311829137E+02 0.  0.
        -11    1    4    4    0    0 -0.53695024785E+02 -0.26803975624E+02  0.34960600824E+02  0.69453958893E+02  0.00000000000E+00 0. -1.
         11    1    4    4    0    0  0.17095766823E+02 -0.44083822829E+02 -0.29494429397E+02  0.55727641651E+02  0.00000000000E+00 0.  1.
        -11    1    3    3    0    0  0.92061545308E+02 -0.18444616145E+02 -0.20156716407E+03  0.22236198780E+03  0.00000000000E+00 0.  1.
         11    1    3    3    0    0 -0.76359080561E+01  0.20182905618E+02 -0.12271322341E+02  0.24824224520E+02  0.00000000000E+00 0. -1.
         -1    1    1    2    0  502 -0.47826379290E+02  0.69149508980E+02 -0.18066935082E+02  0.85996693492E+02  0.00000000000E+00 0.  1.
<scales pt_clust_5="13000.00000" pt_clust_6="13000.00000" pt_clust_7="13000.00000" pt_clust_8="13000.00000" pt_clust_9="84.07745"></scales>
<clustering>
<clus scale="   84.077">  1  9  2 -1</clus>
<clus scale="   90.793">  7  8 -1 -1</clus>
<clus scale="   96.312">  5  6 -1 -1</clus>
<clus scale="  118.630">  2  7  1 -1</clus>
<clus scale="   84.077">  1  5  2 -1</clus>
</clustering>
</event>
<event>
 9    1  0.3231311E-005  0.1508484E+03  0.7546771E-02  0.1200994E+00
         21   -1    0    0  501  502  0.00000000000E+00  0.00000000000E+00  0.12236658852E+03  0.12236658852E+03  0.00000000000E+00 0.  1.
          1   -1    0    0  502    0 -0.00000000000E+00 -0.00000000000E+00 -0.62561345210E+03  0.62561345210E+03  0.00000000000E+00 0. -1.
         23    2    1    2    0    0  0.30536911544E+01 -0.11702176253E+03 -0.54087437735E+03  0.56174230443E+03  0.96467126911E+02 0.  0.
         23    2    1    2    0    0  0.20867765666E+02  0.10528829504E+03  0.59998271912E+02  0.15144749078E+03  0.88405096661E+02 0.  0.
        -11    1    3    3    0    0  0.48689863490E+02 -0.68719632900E+02 -0.26966507288E+03  0.28251078260E+03  0.00000000000E+00 0.  1.
         11    1    3    3    0    0 -0.45636172336E+02 -0.48302129633E+02 -0.27120930447E+03  0.27923152183E+03  0.00000000000E+00 0. -1.
        -11    1    4    4    0    0  0.53356318576E+02  0.58168422875E+02  0.49748064609E+02  0.93302369123E+02  0.00000000000E+00 0.  1.
         11    1    4    4    0    0 -0.32488552910E+02  0.47119872161E+02  0.10250207303E+02  0.58145121656E+02  0.00000000000E+00 0. -1.
          1    1    1    2  501    0 -0.23921456820E+02  0.11733467498E+02 -0.22370758139E+02  0.34790245409E+02  0.00000000000E+00 0. -1.
<scales pt_clust_5="13000.00000" pt_clust_6="13000.00000" pt_clust_7="13000.00000" pt_clust_8="13000.00000" pt_clust_9="26.64414"></scales>
<clustering>
<clus scale="   26.644">  1  9  2 -1</clus>
<clus scale="   88.405">  7  8 -1 -1</clus>
<clus scale="   96.467">  5  6 -1 -1</clus>
<clus scale="  145.825">  1  7  2 -1</clus>
<clus scale="   26.644">  1  5  2 -1</clus>
</clustering>
</event>
<event>
 9    1  0.3231311E-005  0.9798042E+02  0.7546771E-02  0.1285066E+00
          3   -1    0    0  502    0 -0.00000000000E+00  0.00000000000E+00  0.41445084520E+03  0.41445084520E+03  0.00000000000E+00 0. -1.
         21   -1    0    0  501  502  0.00000000000E+00 -0.00000000000E+00 -0.30568170959E+02  0.30568170959E+02  0.00000000000E+00 0. -1.
         23    2    1    2    0    0 -0.24400531079E+02 -0.16880239302E+02  0.19687720930E+03  0.21888125765E+03  0.90928768896E+02 0.  0.
         23    2    1    2    0    0  0.47659688944E+02  0.78392346810E+01  0.15277025750E+03  0.18377294271E+03  0.90004685128E+02 0.  0.
        -13    1    4    4    0    0 -0.18252914598E+02 -0.17851134372E+02  0.72054628661E+02  0.76444106386E+02  0.00000000000E+00 0.  1.
         13    1    4    4    0    0  0.65912603542E+02  0.25690369053E+02  0.80715628840E+02  0.10732883632E+03  0.00000000000E+00 0. -1.
        -13    1    3    3    0    0  0.19757732181E+01 -0.48359929072E+02  0.14407616783E+03  0.15198858035E+03  0.00000000000E+00 0.  1.
         13    1    3    3    0    0 -0.26376304297E+02  0.31479689770E+02  0.52801041470E+02  0.66892677302E+02  0.00000000000E+00 0. -1.
          3    1    1    2  501    0 -0.23259157866E+02  0.90410046214E+01  0.34235207445E+02  0.42364815803E+02  0.00000000000E+00 0. -1.
<scales pt_clust_5="13000.00000" pt_clust_6="13000.00000" pt_clust_7="13000.00000" pt_clust_8="13000.00000" pt_clust_9="24.95452"></scales>
<clustering>
<clus scale="   24.955">  2  9  1 -1</clus>
<clus scale="   90.005">  5  6 -1 -1</clus>
<clus scale="   90.929">  7  8 -1 -1</clus>
<clus scale="   97.123">  2  5  1 -1</clus>
<clus scale="   24.955">  2  5  1 -1</clus>
</clustering>
</event>
<event>
 9    1  0.3231311E-005  0.1002345E+03  0.7546771E-02  0.1281779E+00
          2   -1    0    0  502    0 -0.00000000000E+00  0.00000000000E+00  0.24383181139E+03  0.24383181139E+03  0.00000000000E+00 0. -1.
         21   -1    0    0  501  502  0.00000000000E+00 -0.00000000000E+00 -0.12575643779E+03  0.12575643779E+03  0.00000000000E+00 0. -1.
         23    2    1    2    0    0 -0.34104950059E+02 -0.18723514714E+02  0.15717915497E+03  0.18394252645E+03  0.87268829817E+02 0.  0.
         23    2    1    2    0    0  0.15384284957E+02  0.75692139811E+02 -0.38551607677E+02  0.12567746076E+03  0.91337951786E+02 0.  0.
        -11    1    3    3    0    0 -0.48996711479E+02  0.10199031144E+02  0.13652375369E+03  0.14540781717E+03  0.00000000000E+00 0. -1.
         11    1    3    3    0    0  0.14891761420E+02 -0.28922545859E+02  0.20655401273E+02  0.38534709274E+02  0.00000000000E+00 0.  1.
        -11    1    4    4    0    0  0.31519897477E+02 -0.51324113229E+01  0.52152976771E+01  0.32358073379E+02  0.00000000000E+00 0.  1.
         11    1    4    4    0    0 -0.16135612520E+02  0.80824551134E+02 -0.43766905355E+02  0.93319387384E+02  0.00000000000E+00 0. -1.
          2    1    1    2  501    0  0.18720665102E+02 -0.56968625097E+02 -0.55217369107E+00  0.59968261965E+02  0.00000000000E+00 0. -1.
<scales pt_clust_5="13000.00000" pt_clust_6="13000.00000" pt_clust_7="13000.00000" pt_clust_8="13000.00000" pt_clust_9="59.96572"></scales>
<clustering>
<clus scale="   59.966">  2  9  1 -1</clus>
<clus scale="   87.269">  5  6 -1 -1</clus>
<clus scale="   91.338">  7  8 -1 -1</clus>
<clus scale="   96.541">  1  5  2 -1</clus>
<clus scale="   59.966">  2  5  1 -1</clus>
</clustering>
</event>
<event>
 9    1  0.3231311E-005  0.1030505E+03  0.7546771E-02  0.1274644E+00
         21   -1    0    0  501  502  0.00000000000E+00  0.00000000000E+00  0.46468931495E+03  0.46468931495E+03  0.00000000000E+00 0.  1.
          3   -1    0    0  502    0 -0.00000000000E+00 -0.00000000000E+00 -0.54342327476E+02  0.54342327476E+02  0.00000000000E+00 0. -1.
         23    2    1    2    0    0  0.35029922377E+02  0.22830817846E+02  0.18118400820E+02  0.10211719483E+03  0.91385465621E+02 0.  0.
         23    2    1    2    0    0 -0.60268198972E+02 -0.14823106111E+02  0.27617817140E+03  0.29788170868E+03  0.92774725688E+02 0.  0.
        -13    1    3    3    0    0  0.41960851887E+02 -0.25414461731E+02 -0.26670851455E+01  0.49129637687E+02  0.00000000000E+00 0. -1.
         13    1    3    3    0    0 -0.69309295096E+01  0.48245279577E+02  0.20785485966E+02  0.52987557144E+02  0.00000000000E+00 0.  1.
        -13    1    4    4    0    0 -0.46708380566E+02  0.68676943508E+01  0.26631244671E+03  0.27046470623E+03  0.00000000000E+00 0. -1.
         13    1    4    4    0    0 -0.13559818406E+02 -0.21690800461E+02  0.98657246861E+01  0.27417002452E+02  0.00000000000E+00 0.  1.
          3    1    1    2  501    0  0.25238276595E+02 -0.80077117355E+01  0.11605041526E+03  0.11903273892E+03  0.00000000000E+00 0. -1.
<scales pt_clust_5="13000.00000" pt_clust_6="13000.00000" pt_clust_7="13000.00000" pt_clust_8="13000.00000" pt_clust_9="26.47818"></scales>
<clustering>
<clus scale="   26.478">  1  9  2 -1</clus>
<clus scale="   91.385">  5  6 -1 -1</clus>
<clus scale="   92.775">  7  8 -1 -1</clus>
<clus scale="  101.802">  2  5  1 -1</clus>
<clus scale="   26.478">  1  5  2 -1</clus>
</clustering>
</event>
<event>
 9    1  0.3231311E-005  0.1283596E+03  0.7546771E-02  0.1238119E+00
         -1   -1    0    0    0  501 -0.00000000000E+00  0.00000000000E+00  0.11455323044E+04  0.11455323044E+04  0.00000000000E+00 0.  1.
         21   -1    0    0  501  502  0.00000000000E+00 -0.00000000000E+00 -0.55429768622E+02  0.55429768622E+02  0.00000000000E+00 0. -1.
         23    2    1    2    0    0 -0.25125829491E+02 -0.56837406535E+02  0.41910210774E+03  0.43291107241E+03  0.88902316130E+02 0.  0.
         23    2    1    2    0    0 -0.55318861827E+02 -0.58219283546E+02  0.52757353247E+02  0.13406843790E+03  0.93495167090E+02 0.  0.
        -13    1    4    4    0    0 -0.79267524047E+02 -0.43375710845E+02  0.55036348296E+02  0.10580071972E+03  0.00000000000E+00 0. -1.
         13    1    4    4    0    0  0.23948662220E+02 -0.14843572700E+02 -0.22789950495E+01  0.28267718179E+02  0.00000000000E+00 0.  1.
        -13    1    3    3    0    0  0.18023108655E+02 -0.57848183047E+02  0.30407709113E+03  0.31005503073E+03  0.00000000000E+00 0. -1.
         13    1    3    3    0    0 -0.43148938145E+02  0.10107765128E+01  0.11502501660E+03  0.12285604168E+03  0.00000000000E+00 0.  1.
         -1    1    1    2    0  502  0.80444691318E+02  0.11505669008E+03  0.61824307476E+03  0.63398256268E+03  0.00000000000E+00 0.  1.
<scales pt_clust_5="13000.00000" pt_clust_6="13000.00000" pt_clust_7="13000.00000" pt_clust_8="13000.00000" pt_clust_9="87.94800"></scales>
<clustering>
<clus scale="   88.902">  7  8 -1 -1</clus>
<clus scale="   93.495">  5  6 -1 -1</clus>
<clus scale="  108.469">  1  7  2 -1</clus>
<clus scale="   87.948">  2  9  1 -1</clus>
<clus scale="   87.948">  2  5  1 -1</clus>
</clustering>
</event>
<event>
 9    1  0.3231311E-005  0.1025760E+03  0.7546771E-02  0.1275076E+00
          1   -1    0    0  502    0 -0.00000000000E+00  0.00000000000E+00  0.77666798586E+02  0.77666798586E+02  0.00000000000E+00 0. -1.
         21   -1    0    0  501  502  0.00000000000E+00 -0.00000000000E+00 -0.35436982399E+03  0.35436982399E+03  0.00000000000E+00 0.  1.
         23    2    1    2    0    0  0.44643988055E+02 -0.40038423482E+01  0.14752472306E+02  0.10197826569E+03  0.90403621670E+02 0.  0.
         23    2    1    2    0    0 -0.68198117076E+02 -0.23294044277E+02 -0.24718018298E+03  0.27295953814E+03  0.90638131769E+02 0.  0.
        -11    1    3    3    0    0  0.58760764903E+02 -0.26964836973E+02  0.29710671237E+02  0.71152328917E+02  0.00000000000E+00 0. -1.
         11    1    3    3    0    0 -0.14116776848E+02  0.22960994624E+02 -0.14958198931E+02  0.30825936774E+02  0.00000000000E+00 0.  1.
        -11    1    4    4    0    0  0.19319829814E+02  0.10225596753E+02 -0.40444874348E+02  0.45973976487E+02  0.00000000000E+00 0. -1.
         11    1    4    4    0    0 -0.87517946890E+02 -0.33519641030E+02 -0.20673530863E+03  0.22698556165E+03  0.00000000000E+00 0.  1.
          1    1    1    2  501    0  0.23554129021E+02  0.27297886625E+02 -0.44275314733E+02  0.57098818751E+02  0.00000000000E+00 0. -1.
<scales pt_clust_5="13000.00000" pt_clust_6="13000.00000" pt_clust_7="13000.00000" pt_clust_8="13000.00000" pt_clust_9="36.05512"></scales>
<clustering>
<clus scale="   36.055">  2  9  1 -1</clus>
<clus scale="   90.404">  5  6 -1 -1</clus>
<clus scale="   90.638">  7  8 -1 -1</clus>
<clus scale="  102.369">  1  5  2 -1</clus>
<clus scale="   36.055">  2  5  1 -1</clus>
</clustering>
</event>
<event>
 9    1  0.3231311E-005  0.3699695E+03  0.7546771E-02  0.1090078E+00
         21   -1    0    0  501  502  0.00000000000E+00  0.00000000000E+00  0.33115454923E+03  0.33115454923E+03  0.00000000000E+00 0.  1.
         -3   -1    0    0    0  501 -0.00000000000E+00 -0.00000000000E+00 -0.15248523800E+04  0.15248523800E+04  0.00000000000E+00 0.  1.
         23    2    1    2    0    0 -0.37109373363E+02 -0.10014842884E+03 -0.13972167711E+03  0.19826837322E+03  0.91549917387E+02 0.  0.
         23    2    1    2    0    0 -0.32486993453E+03  0.62093183924E+02 -0.12132500782E+04  0.12604409295E+04  0.85671153567E+02 0.  0.
        -11    1    4    4    0    0 -0.86792937232E+02 -0.53401519247E+01 -0.21361191910E+03  0.23063300535E+03  0.00000000000E+00 0. -1.
         11    1    4    4    0    0 -0.23807699730E+03  0.67433335849E+02 -0.99963815915E+03  0.10298079242E+04  0.00000000000E+00 0.  1.
        -13    1    3    3    0    0 -0.10176229601E+02 -0.11048980625E+03 -0.10148559190E+03  0.15036914011E+03  0.00000000000E+00 0.  1.
         13    1    3    3    0    0 -0.26933143762E+02  0.10341377417E+02 -0.38236085213E+02  0.47899233107E+02  0.00000000000E+00 0. -1.
         -3    1    1    2    0  502  0.36197930790E+03  0.38055244912E+02  0.15927392456E+03  0.39729762654E+03  0.00000000000E+00 0.  1.
<scales pt_clust_5="13000.00000" pt_clust_6="13000.00000" pt_clust_7="13000.00000" pt_clust_8="13000.00000" pt_clust_9="359.91372"></scales>
<clustering>
<clus scale="   85.671">  5  6 -1 -1</clus>
<clus scale="   91.550">  7  8 -1 -1</clus>
<clus scale="  140.671">  2  7  1 -1</clus>
<clus scale="  359.914">  1  9  2 -1</clus>
<clus scale="  359.914">  1  5  2 -1</clus>
</clustering>
</event>
<event>
 9    1  0.3231311E-005  0.9839555E+02  0.7546771E-02  0.1286349E+00
         -4   -1    0    0    0  501 -0.00000000000E+00  0.00000000000E+00  0.21534467535E+03  0.21534467535E+03  0.00000000000E+00 0.  1.
         21   -1    0    0  501  502  0.00000000000E+00 -0.00000000000E+00 -0.11113213313E+03  0.11113213313E+03  0.00000000000E+00 0. -1.
         23    2    1    2    0    0  0.13254358403E+01  0.28004265539E+01  0.13271283177E+03  0.16217102520E+03  0.93151202510E+02 0.  0.
         23    2    1    2    0    0 -0.18519163085E+02 -0.18169460697E+02  0.26432361739E+02  0.10472871015E+03  0.97960932408E+02 0.  0.
        -11    1    3    3    0    0  0.17076612844E+02 -0.37508713420E+02  0.30801650979E+02  0.51451491637E+02  0.00000000000E+00 0. -1.
         11    1    3    3    0    0 -0.15751177004E+02  0.40309139973E+02  0.10191118079E+03  0.11071953356E+03  0.00000000000E+00 0.  1.
        -11    1    4    4    0    0  0.12420194856E+02  0.34504438681E+02 -0.32413057613E+01  0.36814719773E+02  0.00000000000E+00 0.  1.
         11    1    4    4    0    0 -0.30939357941E+02 -0.52673899378E+02  0.29673667500E+02  0.67913990373E+02  0.00000000000E+00 0. -1.
         -4    1    1    2    0  502  0.17193727245E+02  0.15369034143E+02 -0.54932651280E+02  0.59577073138E+02  0.00000000000E+00 0.  1.
<scales pt_clust_5="13000.00000" pt_clust_6="13000.00000" pt_clust_7="13000.00000" pt_clust_8="13000.00000" pt_clust_9="23.06147"></scales>
<clustering>
<clus scale="   23.061">  2  9  1 -1</clus>
<clus scale="   93.151">  5  6 -1 -1</clus>
<clus scale="   93.608">  1  5  2 -1</clus>
<clus scale="   97.961">  7  8 -1 -1</clus>
<clus scale="   23.061">  2  5  1 -1</clus>
</clustering>
</event>
<event>
 9    1  0.3231311E-005  0.9335199E+02  0.7546771E-02  0.1295764E+00
          1   -1    0    0  502    0 -0.00000000000E+00  0.00000000000E+00  0.12469761659E+03  0.12469761659E+03  0.00000000000E+00 0. -1.
         21   -1    0    0  501  502  0.00000000000E+00 -0.00000000000E+00 -0.12526021928E+03  0.12526021928E+03  0.00000000000E+00 0. -1.
         23    2    1    2    0    0  0.14413154488E+02  0.55864618794E+01  0.48342812469E+02  0.10327053927E+03  0.89937918506E+02 0.  0.
         23    2    1    2    0    0 -0.27170078524E+02  0.26554654526E+02 -0.18616677208E+02  0.10071776189E+03  0.91400897402E+02 0.  0.
        -11    1    4    4    0    0  0.29557056242E+02  0.35875085429E+00 -0.23898096349E+02  0.38011409931E+02  0.00000000000E+00 0.  1.
         11    1    4    4    0    0 -0.56727134765E+02  0.26195903671E+02  0.52814191412E+01  0.62706351959E+02  0.00000000000E+00 0. -1.
        -13    1    3    3    0    0  0.26576794825E+02 -0.19088328848E+02 -0.13645026308E+02  0.35452462035E+02  0.00000000000E+00 0.  1.
         13    1    3    3    0    0 -0.12163640337E+02  0.24674790728E+02  0.61987838777E+02  0.67818077235E+02  0.00000000000E+00 0. -1.
          1    1    1    2  501    0  0.12756924035E+02 -0.32141116405E+02 -0.30288737950E+02  0.45969534708E+02  0.00000000000E+00 0. -1.
<scales pt_clust_5="13000.00000" pt_clust_6="13000.00000" pt_clust_7="13000.00000" pt_clust_8="13000.00000" pt_clust_9="34.58020"></scales>
<clustering>
<clus scale="   34.580">  2  9  1 -1</clus>
<clus scale="   89.938">  7  8 -1 -1</clus>
<clus scale="   91.401">  5  6 -1 -1</clus>
<clus scale="   91.920">  1  7  2 -1</clus>
<clus scale="   34.580">  2  5  1 -1</clus>
</clustering>
</event>
<event>
 9    1  0.3231311E-005  0.1060968E+03  0.7546771E-02  0.1270405E+00
          2   -1    0    0  502    0 -0.00000000000E+00  0.00000000000E+00  0.51174180018E+03  0.51174180018E+03  0.00000000000E+00 0. -1.
         21   -1    0    0  501  502  0.00000000000E+00 -0.00000000000E+00 -0.62870299006E+02  0.62870299006E+02  0.00000000000E+00 0. -1.
         23    2    1    2    0    0 -0.11342185248E+02 -0.30713039650E+02  0.24937828321E+03  0.26977918679E+03  0.97567133370E+02 0.  0.
         23    2    1    2    0    0  0.63212580607E+01  0.51731128838E+02  0.23809095848E+03  0.26059768485E+03  0.92237632489E+02 0.  0.
        -11    1    3    3    0    0 -0.15761934110E+02 -0.63885424709E+02  0.12868788007E+03  0.14453496648E+03  0.00000000000E+00 0.  1.
         11    1    3    3    0    0  0.44197488616E+01  0.33172385059E+02  0.12069040314E+03  0.12524422031E+03  0.00000000000E+00 0. -1.
        -11    1    4    4    0    0  0.32342963588E+02  0.11220544847E+01  0.27547882005E+02  0.42499554150E+02  0.00000000000E+00 0.  1.
         11    1    4    4    0    0 -0.26021705528E+02  0.50609074353E+02  0.21054307647E+03  0.21809813070E+03  0.00000000000E+00 0. -1.
          2    1    1    2  501    0  0.50209271876E+01 -0.21018089188E+02 -0.38597740518E+02  0.44235227546E+02  0.00000000000E+00 0. -1.
<scales pt_clust_5="13000.00000" pt_clust_6="13000.00000" pt_clust_7="13000.00000" pt_clust_8="13000.00000" pt_clust_9="21.60948"></scales>
<clustering>
<clus scale="   21.609">  2  9  1 -1</clus>
<clus scale="   92.238">  7  8 -1 -1</clus>
<clus scale="   97.567">  5  6 -1 -1</clus>
<clus scale="  101.217">  2  7  1 -1</clus>
<clus scale="   21.609">  2  5  1 -1</clus>
</clustering>
</event>
<event>
 9    1  0.3231311E-005  0.1314354E+03  0.7546771E-02  0.1225536E+00
          1   -1    0    0  502    0 -0.00000000000E+00  0.00000000000E+00  0.13038704686E+03  0.13038704686E+03  0.00000000000E+00 0. -1.
         21   -1    0    0  501  502  0.00000000000E+00 -0.00000000000E+00 -0.35860406221E+03  0.35860406221E+03  0.00000000000E+00 0.  1.
         23    2    1    2    0    0  0.52821899276E+02 -0.83716777440E+02  0.58382242451E+02  0.14681209051E+03  0.91360012141E+02 0.  0.
         23    2    1    2    0    0 -0.79769007540E+02  0.30452163370E+02 -0.17218172086E+03  0.21312616692E+03  0.92118343513E+02 0.  0.
        -11    1    3    3    0    0  0.66650177622E+02 -0.21597290271E+02  0.21643849654E+02  0.73329021213E+02  0.00000000000E+00 0.  1.
         11    1    3    3    0    0 -0.13828278346E+02 -0.62119487169E+02  0.36738392796E+02  0.73483069298E+02  0.00000000000E+00 0. -1.
        -13    1    4    4    0    0 -0.77783161039E+02  0.71433640155E+01 -0.17289648062E+03  0.18972200927E+03  0.00000000000E+00 0.  1.
         13    1    4    4    0    0 -0.19858465012E+01  0.23308799355E+02  0.71475976723E+00  0.23404157648E+02  0.00000000000E+00 0. -1.
          1    1    1    2  501    0  0.26947108264E+02  0.53264614070E+02 -0.11441753694E+03  0.12905285164E+03  0.00000000000E+00 0. -1.
<scales pt_clust_5="13000.00000" pt_clust_6="13000.00000" pt_clust_7="13000.00000" pt_clust_8="13000.00000" pt_clust_9="59.69310"></scales>
<clustering>
<clus scale="   59.693">  2  9  1 -1</clus>
<clus scale="   91.360">  5  6 -1 -1</clus>
<clus scale="   92.118">  7  8 -1 -1</clus>
<clus scale="  130.905">  1  5  2 -1</clus>
<clus scale="   59.693">  2  5  1 -1</clus>
</clustering>
</event>
<event>
 9    1  0.3231311E-005  0.1727032E+03  0.7546771E-02  0.1194531E+00
         -1   -1    0    0    0  501 -0.00000000000E+00  0.00000000000E+00  0.49668258836E+03  0.49668258836E+03  0.00000000000E+00 0.  1.
         21   -1    0    0  501  502  0.00000000000E+00 -0.00000000000E+00 -0.19293805236E+03  0.19293805236E+03  0.00000000000E+00 0.  1.
         23    2    1    2    0    0  0.64733466687E+02 -0.65164700258E+01  0.45336364072E+02  0.12071545611E+03  0.91016203759E+02 0.  0.
         23    2    1    2    0    0  0.19389470052E+02  0.11318221375E+03  0.36375013111E+03  0.39700062465E+03  0.11004168770E+03 0.  0.
        -13    1    3    3    0    0  0.37045491744E+02 -0.42693922820E+02  0.11585073590E+00  0.56525683771E+02  0.00000000000E+00 0.  1.
         13    1    3    3    0    0  0.27687974943E+02  0.36177452794E+02  0.45220513337E+02  0.64189772344E+02  0.00000000000E+00 0. -1.
        -13    1    4    4    0    0 -0.36875976522E+02  0.69812441416E+02  0.12448104787E+03  0.14740809306E+03  0.00000000000E+00 0.  1.
         13    1    4    4    0    0  0.56265446573E+02  0.43369772330E+02  0.23926908323E+03  0.24959253158E+03  0.00000000000E+00 0. -1.
         -1    1    1    2    0  502 -0.84122936738E+02 -0.10666574372E+03 -0.10534195918E+03  0.17190455995E+03  0.00000000000E+00 0.  1.
<scales pt_clust_5="13000.00000" pt_clust_6="13000.00000" pt_clust_7="13000.00000" pt_clust_8="13000.00000" pt_clust_9="133.10611"></scales>
<clustering>
<clus scale="   91.016">  5  6 -1 -1</clus>
<clus scale="  110.042">  7  8 -1 -1</clus>
<clus scale="  111.879">  1  5  2 -1</clus>
<clus scale="  133.106">  2  9  1 -1</clus>
<clus scale="  133.106">  2  5  1 -1</clus>
</clustering>
</event>
<event>
 9    1  0.3231311E-005  0.1070037E+03  0.7546771E-02  0.1267196E+00
         21   -1    0    0  501  502  0.00000000000E+00  0.00000000000E+00  0.33459536072E+02  0.33459536072E+02  0.00000000000E+00 0. -1.
          1   -1    0    0  502    0 -0.00000000000E+00 -0.00000000000E+00 -0.79873712709E+03  0.79873712709E+03  0.00000000000E+00 0. -1.
         23    2    1    2    0    0  0.48322665896E+02 -0.53861145024E+02 -0.51155534529E+03  0.52439287331E+03  0.89793715252E+02 0.  0.
         23    2    1    2    0    0  0.18840863276E+02  0.35392146668E+02 -0.18153958065E+03  0.20749237131E+03  0.92135132479E+02 0.  0.
        -11    1    3    3    0    0  0.14407007995E+02  0.18611806832E+02 -0.42685778942E+02  0.48744609516E+02  0.00000000000E+00 0.  1.
         11    1    3    3    0    0  0.33915657901E+02 -0.72472951856E+02 -0.46886956635E+03  0.47564826379E+03  0.00000000000E+00 0. -1.
        -13    1    4    4    0    0 -0.23477978536E+01 -0.23338212521E+02 -0.11029313833E+03  0.11275974761E+03  0.00000000000E+00 0.  1.
         13    1    4    4    0    0  0.21188661129E+02  0.58730359189E+02 -0.71246442318E+02  0.94732623705E+02  0.00000000000E+00 0. -1.
          1    1    1    2  501    0 -0.67163529172E+02  0.18468998355E+02 -0.72182665077E+02  0.10031141854E+03  0.00000000000E+00 0. -1.
<scales pt_clust_5="13000.00000" pt_clust_6="13000.00000" pt_clust_7="13000.00000" pt_clust_8="13000.00000" pt_clust_9="69.65661"></scales>
<clustering>
<clus scale="   69.657">  1  9  2 -1</clus>
<clus scale="   89.794">  5  6 -1 -1</clus>
<clus scale="   92.135">  7  8 -1 -1</clus>
<clus scale="  104.994">  2  5  1 -1</clus>
<clus scale="   69.657">  1  5  2 -1</clus>
</clustering>
</event>
<event>
 9    1  0.3231311E-005  0.2657001E+03  0.7546771E-02  0.1103881E+00
         21   -1    0    0  501  502  0.00000000000E+00  0.00000000000E+00  0.36487118433E+03  0.36487118433E+03  0.00000000000E+00 0.  1.
         -3   -1    0    0    0  501 -0.00000000000E+00 -0.00000000000E+00 -0.98929388554E+03  0.98929388554E+03  0.00000000000E+00 0.  1.
         23    2    1    2    0    0  0.23953027534E+03  0.84685488118E+02 -0.38664301041E+03  0.47171024833E+03  0.92039970536E+02 0.  0.
         23    2    1    2    0    0 -0.25916362819E+03  0.11618550753E+03  0.22781860127E+03  0.37499408905E+03  0.89746272374E+02 0.  0.
        -11    1    4    4    0    0 -0.22142154545E+03  0.12888539839E+03  0.18186741427E+03  0.31418896079E+03  0.00000000000E+00 0.  1.
         11    1    4    4    0    0 -0.37742082743E+02 -0.12699890854E+02  0.45951186996E+02  0.60805128269E+02  0.00000000000E+00 0. -1.
        -13    1    3    3    0    0  0.29894600585E+02 -0.24570273860E+01 -0.10906792304E+03  0.11311735483E+03  0.00000000000E+00 0. -1.
         13    1    3    3    0    0  0.20963567475E+03  0.87142515504E+02 -0.27757508737E+03  0.35859289350E+03  0.00000000000E+00 0.  1.
         -3    1    1    2    0  502  0.19633352854E+02 -0.20087099565E+03 -0.46559829207E+03  0.50746073249E+03  0.00000000000E+00 0.  1.
<scales pt_clust_5="13000.00000" pt_clust_6="13000.00000" pt_clust_7="13000.00000" pt_clust_8="13000.00000" pt_clust_9="201.82831"></scales>
<clustering>
<clus scale="   89.746">  5  6 -1 -1</clus>
<clus scale="   92.040">  7  8 -1 -1</clus>
<clus scale="  201.828">  1  9  2 -1</clus>
<clus scale="  264.914">  1  5  2 -1</clus>
<clus scale="  201.828">  1  5  2 -1</clus>
</clustering>
</event>
<event>
 9    1  0.3231311E-005  0.1262716E+03  0.7546771E-02  0.1233347E+00
         21   -1    0    0  501  502  0.00000000000E+00  0.00000000000E+00  0.81900740996E+02  0.81900740996E+02  0.00000000000E+00 0.  1.
         -3   -1    0    0    0  501 -0.00000000000E+00 -0.00000000000E+00 -0.63278577035E+03  0.63278577035E+03  0.00000000000E+00 0.  1.
         23    2    1    2    0    0  0.88940761183E+02  0.21700128437E+01 -0.33451254228E+03  0.35782032798E+03  0.90672918846E+02 0.  0.
         23    2    1    2    0    0 -0.81207956872E+02 -0.32847097747E+02 -0.26792305906E+03  0.29638196002E+03  0.91574213389E+02 0.  0.
        -11    1    3    3    0    0  0.28560783083E+02  0.34072452717E+02 -0.58453916286E+02  0.73440524873E+02  0.00000000000E+00 0. -1.
         11    1    3    3    0    0  0.60379978100E+02 -0.31902439873E+02 -0.27605862600E+03  0.28437980310E+03  0.00000000000E+00 0.  1.
        -13    1    4    4    0    0 -0.33661841867E+02  0.31886236752E+02 -0.10172497971E+03  0.11179366345E+03  0.00000000000E+00 0. -1.
         13    1    4    4    0    0 -0.47546115005E+02 -0.64733334499E+02 -0.16619807936E+03  0.18458829657E+03  0.00000000000E+00 0.  1.
         -3    1    1    2    0  502 -0.77328043112E+01  0.30677084903E+02  0.51550571997E+02  0.60484223347E+02  0.00000000000E+00 0.  1.
<scales pt_clust_5="13000.00000" pt_clust_6="13000.00000" pt_clust_7="13000.00000" pt_clust_8="13000.00000" pt_clust_9="31.63668"></scales>
<clustering>
<clus scale="   31.637">  1  9  2 -1</clus>
<clus scale="   90.673">  5  6 -1 -1</clus>
<clus scale="   91.574">  7  8 -1 -1</clus>
<clus scale="  125.620">  2  5  1 -1</clus>
<clus scale="   31.637">  1  5  2 -1</clus>
</clustering>
</event>
<event>
 9    1  0.3231311E-005  0.1384891E+03  0.7546771E-02  0.1215993E+00
         21   -1    0    0  501  502  0.00000000000E+00  0.00000000000E+00  0.27666020767E+03  0.27666020767E+03  0.00000000000E+00 0. -1.
          1   -1    0    0  502    0 -0.00000000000E+00 -0.00000000000E+00 -0.12085334728E+03  0.12085334728E+03  0.00000000000E+00 0. -1.
         23    2    1    2    0    0  0.21312240594E+02 -0.12402632080E+03 -0.10076759181E+02  0.15479386621E+03  0.89570419728E+02 0.  0.
         23    2    1    2    0    0 -0.73853961838E+01  0.67888341060E+02  0.83056894184E+02  0.14169644289E+03  0.92282519073E+02 0.  0.
        -11    1    4    4    0    0 -0.10089253734E+02 -0.21097480291E+02  0.30073598799E+02  0.38096168577E+02  0.00000000000E+00 0.  1.
         11    1    4    4    0    0  0.27038575506E+01  0.88985821351E+02  0.52983295385E+02  0.10360027431E+03  0.00000000000E+00 0. -1.
        -11    1    3    3    0    0 -0.26694550857E+02 -0.94008958156E+01 -0.11408159129E+02  0.30514291444E+02  0.00000000000E+00 0.  1.
         11    1    3    3    0    0  0.48006791451E+02 -0.11462542498E+03  0.13313999474E+01  0.12427957476E+03  0.00000000000E+00 0. -1.
          1    1    1    2  501    0 -0.13926844410E+02  0.56137979738E+02  0.82826725393E+02  0.10102324586E+03  0.00000000000E+00 0. -1.
<scales pt_clust_5="13000.00000" pt_clust_6="13000.00000" pt_clust_7="13000.00000" pt_clust_8="13000.00000" pt_clust_9="57.83969"></scales>
<clustering>
<clus scale="   57.840">  1  9  2 -1</clus>
<clus scale="   89.570">  7  8 -1 -1</clus>
<clus scale="   92.283">  5  6 -1 -1</clus>
<clus scale="  136.697">  2  7  1 -1</clus>
<clus scale="   57.840">  1  5  2 -1</clus>
</clustering>
</event>
<event>
 9    1  0.3231311E-005  0.9341983E+02  0.7546771E-02  0.1296965E+00
         -1   -1    0    0    0  501 -0.00000000000E+00  0.00000000000E+00  0.11766753318E+03  0.11766753318E+03  0.00000000000E+00 0.  1.
         21   -1    0    0  501  502  0.00000000000E+00 -0.00000000000E+00 -0.11383494090E+03  0.11383494090E+03  0.00000000000E+00 0.  1.
         23    2    1    2    0    0 -0.20812101987E+02  0.22914379261E+01  0.29889632216E+02  0.95522638698E+02  0.88276781278E+02 0.  0.
         23    2    1    2    0    0  0.50623782860E+01 -0.14795270870E+02  0.10797753309E+02  0.93995607155E+02  0.92054630377E+02 0.  0.
        -13    1    3    3    0    0 -0.44163572055E+02  0.29425251924E+02  0.82886377547E+01  0.53711898712E+02  0.00000000000E+00 0.  1.
         13    1    3    3    0    0  0.23351470068E+02 -0.27133813998E+02  0.21600994462E+02  0.41810739985E+02  0.00000000000E+00 0. -1.
        -13    1    4    4    0    0 -0.32402235407E+02 -0.30297473480E+02  0.25139532895E+02  0.50988605323E+02  0.00000000000E+00 0.  1.
         13    1    4    4    0    0  0.37464613693E+02  0.15502202610E+02 -0.14341779585E+02  0.43007001832E+02  0.00000000000E+00 0. -1.
         -1    1    1    2    0  502  0.15749723701E+02  0.12503832944E+02 -0.36854793239E+02  0.41984228225E+02  0.00000000000E+00 0.  1.
<scales pt_clust_5="13000.00000" pt_clust_6="13000.00000" pt_clust_7="13000.00000" pt_clust_8="13000.00000" pt_clust_9="20.10969"></scales>
<clustering>
<clus scale="   20.110">  2  9  1 -1</clus>
<clus scale="   88.277">  5  6 -1 -1</clus>
<clus scale="   89.699">  1  5  2 -1</clus>
<clus scale="   92.055">  7  8 -1 -1</clus>
<clus scale="   20.110">  2  5  1 -1</clus>
</clustering>
</event>
<event>
 9    1  0.3231311E-005  0.1092792E+03  0.7546771E-02  0.1263406E+00
          1   -1    0    0  502    0 -0.00000000000E+00  0.00000000000E+00  0.40750316209E+03  0.40750316209E+03  0.00000000000E+00 0. -1.
         21   -1    0    0  501  502  0.00000000000E+00 -0.00000000000E+00 -0.99120454948E+02  0.99120454948E+02  0.00000000000E+00 0. -1.
         23    2    1    2    0    0  0.25228658580E+02 -0.46157282846E+02  0.32816730955E+03  0.34535364784E+03  0.93852965048E+02 0.  0.
         23    2    1    2    0    0 -0.42479349715E+02  0.64099120233E+02  0.13979826004E+02  0.11932318745E+03  0.90163158558E+02 0.  0.
        -11    1    3    3    0    0  0.30447621022E+02 -0.73488962993E+02  0.25240787611E+03  0.26464584114E+03  0.00000000000E+00 0. -1.
         11    1    3    3    0    0 -0.52189624412E+01  0.27331680147E+02  0.75759433433E+02  0.80707806702E+02  0.00000000000E+00 0.  1.
        -13    1    4    4    0    0 -0.21435884420E+02  0.40745561814E+02 -0.37246777227E+02  0.59220100998E+02  0.00000000000E+00 0.  1.
         13    1    4    4    0    0 -0.21043465295E+02  0.23353558419E+02  0.51226603231E+02  0.60103086452E+02  0.00000000000E+00 0. -1.
          1    1    1    2  501    0  0.17250691135E+02 -0.17941837388E+02 -0.33764428407E+02  0.41946781749E+02  0.00000000000E+00 0. -1.
<scales pt_clust_5="13000.00000" pt_clust_6="13000.00000" pt_clust_7="13000.00000" pt_clust_8="13000.00000" pt_clust_9="24.88967"></scales>
<clustering>
<clus scale="   24.890">  2  9  1 -1</clus>
<clus scale="   90.163">  7  8 -1 -1</clus>
<clus scale="   93.853">  5  6 -1 -1</clus>
<clus scale="  106.127">  2  7  1 -1</clus>
<clus scale="   24.890">  2  5  1 -1</clus>
</clustering>
</event>
<event>
 9    1  0.3231311E-005  0.1225729E+03  0.7546771E-02  0.1239042E+00
         21   -1    0    0  501  502  0.00000000000E+00  0.00000000000E+00  0.17879667853E+03  0.17879667853E+03  0.00000000000E+00 0. -1.
         -1   -1    0    0    0  501 -0.00000000000E+00 -0.00000000000E+00 -0.11715740346E+03  0.11715740346E+03  0.00000000000E+00 0.  1.
         23    2    1    2    0    0  0.76500583681E+02 -0.29444697096E+02 -0.10899691352E+02  0.12341644343E+03  0.91615968842E+02 0.  0.
         23    2    1    2    0    0 -0.81626372600E+02  0.95144537020E+01  0.31655113870E+02  0.12676671206E+03  0.91183131763E+02 0.  0.
        -11    1    4    4    0    0  0.11803998834E+02  0.21524404999E+02  0.20359662772E+02  0.31892793343E+02  0.00000000000E+00 0. -1.
         11    1    4    4    0    0 -0.93430371434E+02 -0.12009951297E+02  0.11295451098E+02  0.94873918713E+02  0.00000000000E+00 0.  1.
        -11    1    3    3    0    0  0.42716579961E+02  0.30677749582E+02  0.44018638318E+01  0.52775059718E+02  0.00000000000E+00 0.  1.
         11    1    3    3    0    0  0.33784003720E+02 -0.60122446678E+02 -0.15301555184E+02  0.70641383713E+02  0.00000000000E+00 0. -1.
         -1    1    1    2    0  502  0.51257889187E+01  0.19930243394E+02  0.40883852555E+02  0.45770926509E+02  0.00000000000E+00 0.  1.
<scales pt_clust_5="13000.00000" pt_clust_6="13000.00000" pt_clust_7="13000.00000" pt_clust_8="13000.00000" pt_clust_9="20.57883"></scales>
<clustering>
<clus scale="   20.579">  1  9  2 -1</clus>
<clus scale="   91.183">  5  6 -1 -1</clus>
<clus scale="   91.616">  7  8 -1 -1</clus>
<clus scale="  122.250">  1  5  2 -1</clus>
<clus scale="   20.579">  1  5  2 -1</clus>
</clustering>
</event>
<event>
 9    1  0.3231311E-005  0.1197738E+03  0.7546771E-02  0.1244221E+00
         21   -1    0    0  501  502  0.00000000000E+00  0.00000000000E+00  0.22002073609E+03  0.22002073609E+03  0.00000000000E+00 0. -1.
          2   -1    0    0  502    0 -0.00000000000E+00 -0.00000000000E+00 -0.13403304932E+03  0.13403304932E+03  0.00000000000E+00 0. -1.
         23    2    1    2    0    0  0.70003539854E+02 -0.74267375714E+01 -0.45993288573E+02  0.12513813670E+03  0.92674260934E+02 0.  0.
         23    2    1    2    0    0 -0.85056901258E+02  0.24199208683E+02  0.37612188324E+02  0.13189303567E+03  0.90337245894E+02 0.  0.
        -13    1    4    4    0    0 -0.30317988674E+02 -0.74676588449E+01 -0.27149374828E+02  0.41376743703E+02  0.00000000000E+00 0. -1.
         13    1    4    4    0    0 -0.54738912584E+02  0.31666867527E+02  0.64761563153E+02  0.90516291970E+02  0.00000000000E+00 0.  1.
        -13    1    3    3    0    0 -0.10062122454E+02 -0.21319466116E+02 -0.36323011955E+02  0.43302738264E+02  0.00000000000E+00 0.  1.
         13    1    3    3    0    0  0.80065662308E+02  0.13892728544E+02 -0.96702766188E+01  0.81835398435E+02  0.00000000000E+00 0. -1.
          2    1    1    2  501    0  0.15053361404E+02 -0.16772471111E+02  0.94368787017E+02  0.97022613033E+02  0.00000000000E+00 0. -1.
<scales pt_clust_5="13000.00000" pt_clust_6="13000.00000" pt_clust_7="13000.00000" pt_clust_8="13000.00000" pt_clust_9="22.53707"></scales>
<clustering>
<clus scale="   22.537">  1  9  2 -1</clus>
<clus scale="   90.337">  5  6 -1 -1</clus>
<clus scale="   92.674">  7  8 -1 -1</clus>
<clus scale="  117.975">  1  5  2 -1</clus>
<clus scale="   22.537">  1  5  2 -1</clus>
</clustering>
</event>
<event>
 9    1  0.3231311E-005  0.1335361E+03  0.7546771E-02  0.1240131E+00
         -2   -1    0    0    0  501 -0.00000000000E+00  0.00000000000E+00  0.42695617462E+03  0.42695617462E+03  0.00000000000E+00 0.  1.
         21   -1    0    0  501  502  0.00000000000E+00 -0.00000000000E+00 -0.64752166158E+02  0.64752166158E+02  0.00000000000E+00 0.  1.
         23    2    1    2    0    0  0.18997336595E+00 -0.38043613786E+02  0.70123616799E+02  0.11605480118E+03  0.84285482757E+02 0.  0.
         23    2    1    2    0    0 -0.29471222116E+02 -0.73244285561E+02  0.14612660371E+03  0.18979096594E+03  0.91838707201E+02 0.  0.
        -11    1    4    4    0    0 -0.53825469105E+02 -0.79302196154E+02  0.11976206338E+03  0.15339156190E+03  0.00000000000E+00 0.  1.
         11    1    4    4    0    0  0.24354246989E+02  0.60579105932E+01  0.26364540334E+02  0.36399404036E+02  0.00000000000E+00 0. -1.
        -13    1    3    3    0    0 -0.32718407875E+02  0.55730962775E+01  0.45003205043E+02  0.55918173076E+02  0.00000000000E+00 0. -1.
         13    1    3    3    0    0  0.32908381241E+02 -0.43616710064E+02  0.25120411757E+02  0.60136628102E+02  0.00000000000E+00 0.  1.
         -2    1    1    2    0  502  0.29281248751E+02  0.11128789935E+03  0.14595378795E+03  0.18586257366E+03  0.00000000000E+00 0.  1.
<scales pt_clust_5="13000.00000" pt_clust_6="13000.00000" pt_clust_7="13000.00000" pt_clust_8="13000.00000" pt_clust_9="96.94093"></scales>
<clustering>
<clus scale="   84.285">  7  8 -1 -1</clus>
<clus scale="   91.839">  5  6 -1 -1</clus>
<clus scale="   92.474">  1  7  2 -1</clus>
<clus scale="   96.941">  2  9  1 -1</clus>
<clus scale="   96.941">  2  5  1 -1</clus>
</clustering>
</event>
<event>
 9    1  0.3231311E-005  0.1095470E+03  0.7546771E-02  0.1263388E+00
         21   -1    0    0  501  502  0.00000000000E+00  0.00000000000E+00  0.16387795763E+03  0.16387795763E+03  0.00000000000E+00 0. -1.
         -1   -1    0    0    0  501 -0.00000000000E+00 -0.00000000000E+00 -0.93461417767E+02  0.93461417767E+02  0.00000000000E+00 0.  1.
         23    2    1    2    0    0 -0.36885662403E+02  0.27580991110E+02  0.20428721556E+02  0.10696526986E+03  0.94355567565E+02 0.  0.
         23    2    1    2    0    0  0.45898625625E+02 -0.47396300859E+02  0.19451946910E+02  0.11287317957E+03  0.89492364243E+02 0.  0.
        -11    1    4    4    0    0  0.70883447269E+01 -0.53213751248E+02 -0.19941702450E+02  0.57267961806E+02  0.00000000000E+00 0.  1.
         11    1    4    4    0    0  0.38810280898E+02  0.58174503889E+01  0.39393649360E+02  0.55605217762E+02  0.00000000000E+00 0. -1.
        -13    1    3    3    0    0 -0.51385920345E+02  0.52982402696E+02  0.52042402376E+01  0.73991431407E+02  0.00000000000E+00 0.  1.
         13    1    3    3    0    0  0.14500257943E+02 -0.25401411586E+02  0.15224481318E+02  0.32973838454E+02  0.00000000000E+00 0. -1.
         -1    1    1    2    0  502 -0.90129632223E+01  0.19815309749E+02  0.30535871401E+02  0.37500925971E+02  0.00000000000E+00 0.  1.
<scales pt_clust_5="13000.00000" pt_clust_6="13000.00000" pt_clust_7="13000.00000" pt_clust_8="13000.00000" pt_clust_9="21.76879"></scales>
<clustering>
<clus scale="   21.769">  1  9  2 -1</clus>
<clus scale="   89.492">  5  6 -1 -1</clus>
<clus scale="   94.356">  7  8 -1 -1</clus>
<clus scale="  105.387">  1  5  2 -1</clus>
<clus scale="   21.769">  1  5  2 -1</clus>
</clustering>
</event>
<event>
 9    1  0.3231311E-005  0.2744704E+03  0.7546771E-02  0.1098812E+00
         21   -1    0    0  501  502  0.00000000000E+00  0.00000000000E+00  0.13672687906E+03  0.13672687906E+03  0.00000000000E+00 0.  1.
          1   -1    0    0  502    0 -0.00000000000E+00 -0.00000000000E+00 -0.81330507769E+03  0.81330507769E+03  0.00000000000E+00 0. -1.
         23    2    1    2    0    0 -0.25715795061E+03  0.14902131038E+01 -0.35565251593E+03  0.44774661426E+03  0.88633437245E+02 0.  0.
         23    2    1    2    0    0  0.25898917070E+03  0.54485790708E+02 -0.34264479405E+03  0.44221549841E+03  0.90027774709E+02 0.  0.
        -11    1    3    3    0    0 -0.91782815220E+02  0.78401519272E+01 -0.63195787228E+02  0.11171061129E+03  0.00000000000E+00 0.  1.
         11    1    3    3    0    0 -0.16537513539E+03 -0.63499388235E+01 -0.29245672870E+03  0.33603600297E+03  0.00000000000E+00 0. -1.
        -11    1    4    4    0    0  0.18432911050E+03  0.79587572556E+02 -0.24461764411E+03  0.31646357530E+03  0.00000000000E+00 0.  1.
         11    1    4    4    0    0  0.74660060200E+02 -0.25101781848E+02 -0.98027149937E+02  0.12575192311E+03  0.00000000000E+00 0. -1.
          1    1    1    2  501    0 -0.18312200871E+01 -0.55976003812E+02  0.21719111353E+02  0.60069844079E+02  0.00000000000E+00 0. -1.
<scales pt_clust_5="13000.00000" pt_clust_6="13000.00000" pt_clust_7="13000.00000" pt_clust_8="13000.00000" pt_clust_9="56.00595"></scales>
<clustering>
<clus scale="   56.006">  1  9  2 -1</clus>
<clus scale="   88.633">  5  6 -1 -1</clus>
<clus scale="   90.028">  7  8 -1 -1</clus>
<clus scale="  274.016">  2  5  1 -1</clus>
<clus scale="   56.006">  1  5  2 -1</clus>
</clustering>
</event>
<event>
 9    1  0.3231311E-005  0.1196904E+03  0.7546771E-02  0.1243950E+00
          1   -1    0    0  502    0 -0.00000000000E+00  0.00000000000E+00  0.47696728434E+03  0.47696728434E+03  0.00000000000E+00 0. -1.
         21   -1    0    0  501  502  0.00000000000E+00 -0.00000000000E+00 -0.81662032753E+02  0.81662032753E+02  0.00000000000E+00 0.  1.
         23    2    1    2    0    0  0.81428781668E+02  0.68524564141E+01  0.31839285517E+03  0.34065785523E+03  0.89421258462E+02 0.  0.
         23    2    1    2    0    0 -0.72118587485E+02 -0.26793058151E+02  0.12118040493E+03  0.16853499870E+03  0.88319854072E+02 0.  0.
        -11    1    3    3    0    0  0.65514674204E+02  0.44347354140E+02  0.18558509919E+03  0.20174411862E+03  0.00000000000E+00 0. -1.
         11    1    3    3    0    0  0.15914107464E+02 -0.37494897726E+02  0.13280775597E+03  0.13891373661E+03  0.00000000000E+00 0.  1.
        -13    1    4    4    0    0 -0.36742734645E+02 -0.82521473741E+01 -0.33016261288E+01  0.37802476381E+02  0.00000000000E+00 0.  1.
         13    1    4    4    0    0 -0.35375852841E+02 -0.18540910777E+02  0.12448203106E+03  0.13073252232E+03  0.00000000000E+00 0. -1.
          1    1    1    2  501    0 -0.93101941824E+01  0.19940601737E+02 -0.44268008504E+02  0.49436463165E+02  0.00000000000E+00 0. -1.
<scales pt_clust_5="13000.00000" pt_clust_6="13000.00000" pt_clust_7="13000.00000" pt_clust_8="13000.00000" pt_clust_9="22.00698"></scales>
<clustering>
<clus scale="   22.007">  2  9  1 -1</clus>
<clus scale="   88.320">  7  8 -1 -1</clus>
<clus scale="   89.421">  5  6 -1 -1</clus>
<clus scale="  118.870">  2  7  1 -1</clus>
<clus scale="   22.007">  2  5  1 -1</clus>
</clustering>
</event>
<event>
 9    1  0.3231311E-005  0.9795116E+02  0.7546771E-02  0.1284894E+00
         21   -1    0    0  501  502  0.00000000000E+00  0.00000000000E+00  0.22307982903E+03  0.22307982903E+03  0.00000000000E+00 0. -1.
         -1   -1    0    0    0  501 -0.00000000000E+00 -0.00000000000E+00 -0.93869431833E+02  0.93869431833E+02  0.00000000000E+00 0.  1.
         23    2    1    2    0    0 -0.25288149498E+02 -0.20323253755E+02  0.36024418397E+02  0.10306266598E+03  0.90948497784E+02 0.  0.
         23    2    1    2    0    0 -0.36647684286E+02  0.60972882428E+02  0.75695584033E+02  0.13776594245E+03  0.90492476495E+02 0.  0.
        -11    1    3    3    0    0 -0.33735141533E+02 -0.52913598325E+02  0.20768906688E+02  0.66100349069E+02  0.00000000000E+00 0. -1.
         11    1    3    3    0    0  0.84469920351E+01  0.32590344571E+02  0.15255511708E+02  0.36962316907E+02  0.00000000000E+00 0.  1.
        -13    1    4    4    0    0 -0.32036663389E+02  0.24420750570E+02 -0.12505590299E+02  0.42179505074E+02  0.00000000000E+00 0.  1.
         13    1    4    4    0    0 -0.46110208962E+01  0.36552131858E+02  0.88201174331E+02  0.95586437378E+02  0.00000000000E+00 0. -1.
         -1    1    1    2    0  502  0.61935833783E+02 -0.40649628674E+02  0.17490394765E+02  0.76120652433E+02  0.00000000000E+00 0.  1.
<scales pt_clust_5="13000.00000" pt_clust_6="13000.00000" pt_clust_7="13000.00000" pt_clust_8="13000.00000" pt_clust_9="74.08404"></scales>
<clustering>
<clus scale="   74.084">  1  9  2 -1</clus>
<clus scale="   90.492">  7  8 -1 -1</clus>
<clus scale="   90.948">  5  6 -1 -1</clus>
<clus scale="   97.528">  1  7  2 -1</clus>
<clus scale="   74.084">  1  5  2 -1</clus>
</clustering>
</event>
<event>
 9    1  0.3231311E-005  0.9649681E+02  0.7546771E-02  0.1287917E+00
         21   -1    0    0  501  502  0.00000000000E+00  0.00000000000E+00  0.57316546490E+02  0.57316546490E+02  0.00000000000E+00 0.  1.
         -4   -1    0    0    0  501 -0.00000000000E+00 -0.00000000000E+00 -0.36402715665E+03  0.36402715665E+03  0.00000000000E+00 0.  1.
         23    2    1    2    0    0 -0.29801426919E+02  0.87562383660E+01 -0.24745351252E+03  0.26582535279E+03  0.92005872484E+02 0.  0.
         23    2    1    2    0    0  0.27156857215E+02  0.22933906904E+02 -0.71213524588E+02  0.12154460752E+03  0.91860037845E+02 0.  0.
        -13    1    3    3    0    0 -0.57586370663E+02 -0.15119722430E+02 -0.13474593614E+03  0.14731348682E+03  0.00000000000E+00 0.  1.
         13    1    3    3    0    0  0.27784943744E+02  0.23875960796E+02 -0.11270757638E+03  0.11851186597E+03  0.00000000000E+00 0. -1.
        -13    1    4    4    0    0 -0.19122750000E+02 -0.23086364830E+02 -0.88089581895E+01  0.31245120467E+02  0.00000000000E+00 0.  1.
         13    1    4    4    0    0  0.46279607215E+02  0.46020271734E+02 -0.62404566399E+02  0.90299487052E+02  0.00000000000E+00 0. -1.
         -4    1    1    2    0  502  0.26445697042E+01 -0.31690145270E+02  0.11956426953E+02  0.33973742826E+02  0.00000000000E+00 0.  1.
<scales pt_clust_5="13000.00000" pt_clust_6="13000.00000" pt_clust_7="13000.00000" pt_clust_8="13000.00000" pt_clust_9="31.80030"></scales>
<clustering>
<clus scale="   31.800">  1  9  2 -1</clus>
<clus scale="   91.860">  7  8 -1 -1</clus>
<clus scale="   92.006">  5  6 -1 -1</clus>
<clus scale="   96.358">  1  7  2 -1</clus>
<clus scale="   31.800">  1  5  2 -1</clus>
</clustering>
</event>
<event>
 9    1  0.3231311E-005  0.1745944E+03  0.7546771E-02  0.1173565E+00
          2   -1    0    0  502    0 -0.00000000000E+00  0.00000000000E+00  0.82230274897E+03  0.82230274897E+03  0.00000000000E+00 0. -1.
         21   -1    0    0  501  502  0.00000000000E+00 -0.00000000000E+00 -0.57314347782E+02  0.57314347782E+02  0.00000000000E+00 0. -1.
         23    2    1    2    0    0 -0.12053664116E+03 -0.75492487128E+02  0.53949279816E+03  0.56589306306E+03  0.94627068413E+02 0.  0.
         23    2    1    2    0    0  0.12144117779E+03  0.10312863212E+03  0.21796779419E+03  0.28506670300E+03  0.91485471133E+02 0.  0.
        -11    1    4    4    0    0  0.19869769122E+02 -0.11067418044E+02  0.56011638161E+01  0.23423673991E+02  0.00000000000E+00 0.  1.
         11    1    4    4    0    0  0.10157140867E+03  0.11419605017E+03  0.21236663038E+03  0.26164302901E+03  0.00000000000E+00 0. -1.
        -13    1    3    3    0    0 -0.36015685759E+02 -0.70954686049E+02  0.33998580601E+03  0.34917337439E+03  0.00000000000E+00 0.  1.
         13    1    3    3    0    0 -0.84520955404E+02 -0.45378010788E+01  0.19950699215E+03  0.21671968867E+03  0.00000000000E+00 0. -1.
          2    1    1    2  501    0 -0.90453663073E+00 -0.27636144994E+02  0.75278088407E+01  0.28657330695E+02  0.00000000000E+00 0. -1.
<scales pt_clust_5="13000.00000" pt_clust_6="13000.00000" pt_clust_7="13000.00000" pt_clust_8="13000.00000" pt_clust_9="27.65094"></scales>
<clustering>
<clus scale="   27.651">  2  9  1 -1</clus>
<clus scale="   91.485">  5  6 -1 -1</clus>
<clus scale="   94.627">  7  8 -1 -1</clus>
<clus scale="  172.912">  2  5  1 -1</clus>
<clus scale="   27.651">  2  5  1 -1</clus>
</clustering>
</event>
<event>
 9    1  0.3231311E-005  0.9161774E+02  0.7546771E-02  0.1301281E+00
         21   -1    0    0  501  502  0.00000000000E+00  0.00000000000E+00  0.59354187624E+02  0.59354187624E+02  0.00000000000E+00 0.  1.
          1   -1    0    0  502    0 -0.00000000000E+00 -0.00000000000E+00 -0.20650104584E+03  0.20650104584E+03  0.00000000000E+00 0. -1.
         23    2    1    2    0    0  0.19130256615E+01  0.31931556530E+01 -0.95617567224E+02  0.13181648039E+03  0.90658752647E+02 0.  0.
         23    2    1    2    0    0 -0.31312644847E+02 -0.84039017932E+01 -0.30658556380E+02  0.97609684362E+02  0.86813570997E+02 0.  0.
        -13    1    4    4    0    0 -0.51631963945E+02 -0.25370430506E+02 -0.56624826102E+00  0.57531200944E+02  0.00000000000E+00 0.  1.
         13    1    4    4    0    0  0.20319319098E+02  0.16966528713E+02 -0.30092308119E+02  0.40078483418E+02  0.00000000000E+00 0. -1.
        -13    1    3    3    0    0 -0.21133808091E+01 -0.39505516868E+02 -0.18719931329E+02  0.43767431618E+02  0.00000000000E+00 0.  1.
         13    1    3    3    0    0  0.40264064706E+01  0.42698672521E+02 -0.76897635896E+02  0.88049048777E+02  0.00000000000E+00 0. -1.
          1    1    1    2  501    0  0.29399619186E+02  0.52107461402E+01 -0.20870734608E+02  0.36429068705E+02  0.00000000000E+00 0. -1.
<scales pt_clust_5="13000.00000" pt_clust_6="13000.00000" pt_clust_7="13000.00000" pt_clust_8="13000.00000" pt_clust_9="29.85784"></scales>
<clustering>
<clus scale="   29.858">  1  9  2 -1</clus>
<clus scale="   86.814">  5  6 -1 -1</clus>
<clus scale="   87.815">  1  5  2 -1</clus>
<clus scale="   90.659">  7  8 -1 -1</clus>
<clus scale="   29.858">  1  5  2 -1</clus>
</clustering>
</event>
<event>
 9    1  0.3231311E-005  0.1866249E+03  0.7546771E-02  0.1163040E+00
         -1   -1    0    0    0  501 -0.00000000000E+00  0.00000000000E+00  0.42362295568E+03  0.42362295568E+03  0.00000000000E+00 0.  1.
         21   -1    0    0  501  502  0.00000000000E+00 -0.00000000000E+00 -0.47437771342E+03  0.47437771342E+03  0.00000000000E+00 0.  1.
         23    2    1    2    0    0  0.17044152723E+03 -0.76105511717E+02  0.29952928432E+03  0.36521665948E+03  0.93931108141E+02 0.  0.
         23    2    1    2    0    0 -0.59239642621E+02  0.11409376819E+03  0.11755941721E+02  0.15215043697E+03  0.80528442844E+02 0.  0.
        -11    1    3    3    0    0  0.69848965311E+02 -0.73258133080E+02  0.10294544999E+03  0.14437242705E+03  0.00000000000E+00 0. -1.
         11    1    3    3    0    0  0.10059256191E+03 -0.28473786375E+01  0.19658383433E+03  0.22084423243E+03  0.00000000000E+00 0.  1.
        -13    1    4    4    0    0 -0.54429481232E+02  0.21809900378E+02  0.11433043753E+02  0.59740728746E+02  0.00000000000E+00 0.  1.
         13    1    4    4    0    0 -0.48101613891E+01  0.92283867813E+02  0.32289796817E+00  0.92409708225E+02  0.00000000000E+00 0. -1.
         -1    1    1    2    0  502 -0.11120188461E+03 -0.37988256474E+02 -0.36203998378E+03  0.38063357265E+03  0.00000000000E+00 0.  1.
<scales pt_clust_5="13000.00000" pt_clust_6="13000.00000" pt_clust_7="13000.00000" pt_clust_8="13000.00000" pt_clust_9="117.51156"></scales>
<clustering>
<clus scale="   80.528">  7  8 -1 -1</clus>
<clus scale="   93.931">  5  6 -1 -1</clus>
<clus scale="  117.512">  2  9  1 -1</clus>
<clus scale="  180.252">  2  7  1 -1</clus>
<clus scale="  117.512">  2  5  1 -1</clus>
</clustering>
</event>
<event>
 9    1  0.3231311E-005  0.9677429E+02  0.7546771E-02  0.1290592E+00
         21   -1    0    0  501  502  0.00000000000E+00  0.00000000000E+00  0.29352887988E+02  0.29352887988E+02  0.00000000000E+00 0.  1.
          1   -1    0    0  502    0 -0.00000000000E+00 -0.00000000000E+00 -0.59053627480E+03  0.59053627480E+03  0.00000000000E+00 0. -1.
         23    2    1    2    0    0 -0.28339473486E+02  0.17916880013E+01 -0.43385149451E+03  0.44308010713E+03  0.85361151229E+02 0.  0.
         23    2    1    2    0    0  0.43263025216E+02  0.12267915220E+02 -0.10855770547E+03  0.14900878714E+03  0.91633247960E+02 0.  0.
        -11    1    4    4    0    0  0.35427133819E+02 -0.17386725255E+02 -0.35613870194E+01  0.39624026843E+02  0.00000000000E+00 0.  1.
         11    1    4    4    0    0  0.78358913970E+01  0.29654640475E+02 -0.10499631845E+03  0.10938476029E+03  0.00000000000E+00 0. -1.
        -13    1    3    3    0    0 -0.49613926750E+02  0.27191481093E+02 -0.25732324778E+03  0.26346949011E+03  0.00000000000E+00 0. -1.
         13    1    3    3    0    0  0.21274453264E+02 -0.25399793092E+02 -0.17652824674E+03  0.17961061702E+03  0.00000000000E+00 0.  1.
          1    1    1    2  501    0 -0.14923551730E+02 -0.14059603221E+02 -0.18774186826E+02  0.27800268523E+02  0.00000000000E+00 0. -1.
<scales pt_clust_5="13000.00000" pt_clust_6="13000.00000" pt_clust_7="13000.00000" pt_clust_8="13000.00000" pt_clust_9="20.50329"></scales>
<clustering>
<clus scale="   20.503">  1  9  2 -1</clus>
<clus scale="   85.361">  7  8 -1 -1</clus>
<clus scale="   90.858">  2  7  1 -1</clus>
<clus scale="   91.633">  5  6 -1 -1</clus>
<clus scale="   20.503">  1  5  2 -1</clus>
</clustering>
</event>
<event>
 9    1  0.3378812E-005  0.1427758E+03  0.7546771E-02  0.1229128E+00
         21   -1    0    0  501  502  0.00000000000E+00  0.00000000000E+00  0.12266871147E+03  0.12266871147E+03  0.00000000000E+00 0. -1.
          2   -1    0    0  502    0 -0.00000000000E+00 -0.00000000000E+00 -0.55559301762E+03  0.55559301762E+03  0.00000000000E+00 0. -1.
         23    2    1    2    0    0 -0.27475109479E+02  0.38420427615E+01 -0.35688756168E+03  0.36926156220E+03  0.90640645979E+02 0.  0.
         23    2    1    2    0    0  0.11941222792E+03  0.47123575615E+02 -0.11668743321E+03  0.19629521359E+03  0.91847385671E+02 0.  0.
        -11    1    4    4    0    0  0.10413983391E+03  0.31280504880E+02 -0.13084453099E+03  0.17012896956E+03  0.00000000000E+00 0. -1.
         11    1    4    4    0    0  0.15272394011E+02  0.15843070735E+02  0.14157097784E+02  0.26166244034E+02  0.00000000000E+00 0.  1.
        -13    1    3    3    0    0 -0.29643512561E+02 -0.37440979790E+02 -0.12690238315E+03  0.13559048512E+03  0.00000000000E+00 0. -1.
         13    1    3    3    0    0  0.21684030819E+01  0.41283022551E+02 -0.22998517853E+03  0.23367107708E+03  0.00000000000E+00 0.  1.
          2    1    1    2  501    0 -0.91937118442E+02 -0.50965618376E+02  0.40650688733E+02  0.11270495330E+03  0.00000000000E+00 0. -1.
<scales pt_clust_5="13000.00000" pt_clust_6="13000.00000" pt_clust_7="13000.00000" pt_clust_8="13000.00000" pt_clust_9="109.31147"></scales>
<clustering>
<clus scale="   90.641">  7  8 -1 -1</clus>
<clus scale="   91.847">  5  6 -1 -1</clus>
<clus scale="   94.791">  2  7  1 -1</clus>
<clus scale="  109.311">  1  9  2 -1</clus>
<clus scale="  109.311">  1  5  2 -1</clus>
</clustering>
</event>
<event>
 9    1  0.3231311E-005  0.1829535E+03  0.7546771E-02  0.1165588E+00
          2   -1    0    0  502    0 -0.00000000000E+00  0.00000000000E+00  0.71292822220E+03  0.71292822220E+03  0.00000000000E+00 0. -1.
         21   -1    0    0  501  502  0.00000000000E+00 -0.00000000000E+00 -0.16965730863E+03  0.16965730863E+03  0.00000000000E+00 0. -1.
         23    2    1    2    0    0  0.15334648341E+03 -0.58134604234E+02  0.63474288174E+03  0.66226150353E+03  0.93792307527E+02 0.  0.
         23    2    1    2    0    0 -0.94908898308E+02  0.51612559170E+02 -0.50308003113E+02  0.14854686907E+03  0.88677629040E+02 0.  0.
        -11    1    4    4    0    0 -0.41174106254E+02 -0.23417771989E+02 -0.14242815985E+02  0.49462681670E+02  0.00000000000E+00 0.  1.
         11    1    4    4    0    0 -0.53734792053E+02  0.75030331159E+02 -0.36065187128E+02  0.99084187404E+02  0.00000000000E+00 0. -1.
        -11    1    3    3    0    0  0.11767798508E+03  0.30194092904E+01  0.37490021876E+03  0.39294706900E+03  0.00000000000E+00 0.  1.
         11    1    3    3    0    0  0.35668498328E+02 -0.61154013524E+02  0.25984266298E+03  0.26931443453E+03  0.00000000000E+00 0. -1.
          2    1    1    2  501    0 -0.58437585100E+02  0.65220450634E+01 -0.41163965055E+02  0.71777158227E+02  0.00000000000E+00 0. -1.
<scales pt_clust_5="13000.00000" pt_clust_6="13000.00000" pt_clust_7="13000.00000" pt_clust_8="13000.00000" pt_clust_9="58.80041"></scales>
<clustering>
<clus scale="   58.800">  2  9  1 -1</clus>
<clus scale="   88.678">  5  6 -1 -1</clus>
<clus scale="   93.792">  7  8 -1 -1</clus>
<clus scale="  180.385">  2  5  1 -1</clus>
<clus scale="   58.800">  2  5  1 -1</clus>
</clustering>
</event>
<event>
 9    1  0.3231311E-005  0.1006921E+03  0.7546771E-02  0.1279504E+00
         21   -1    0    0  501  502  0.00000000000E+00  0.00000000000E+00  0.19673726555E+03  0.19673726555E+03  0.00000000000E+00 0. -1.
          2   -1    0    0  502    0 -0.00000000000E+00 -0.00000000000E+00 -0.33734828863E+03  0.33734828863E+03  0.00000000000E+00 0. -1.
         23    2    1    2    0    0  0.15670713422E+00  0.31601448130E+02 -0.19301996859E+03  0.21575749090E+03  0.91081889105E+02 0.  0.
         23    2    1    2    0    0  0.37960887496E+01 -0.56031774224E+02 -0.10986481188E+03  0.15417801678E+03  0.92447898600E+02 0.  0.
        -11    1    3    3    0    0 -0.39851930492E+01 -0.32069520260E+02 -0.57223586154E+02  0.65718145939E+02  0.00000000000E+00 0.  1.
         11    1    3    3    0    0  0.41419001835E+01  0.63670968391E+02 -0.13579638244E+03  0.15003934496E+03  0.00000000000E+00 0. -1.
        -11    1    4    4    0    0  0.25325356952E+02 -0.34801314463E+02 -0.30304544392E+01  0.43147292467E+02  0.00000000000E+00 0.  1.
         11    1    4    4    0    0 -0.21529268203E+02 -0.21230459761E+02 -0.10683435744E+03  0.11103072431E+03  0.00000000000E+00 0. -1.
          2    1    1    2  501    0 -0.39527958838E+01  0.24430326094E+02  0.16227375739E+03  0.16415004650E+03  0.00000000000E+00 0. -1.
<scales pt_clust_5="13000.00000" pt_clust_6="13000.00000" pt_clust_7="13000.00000" pt_clust_8="13000.00000" pt_clust_9="24.74804"></scales>
<clustering>
<clus scale="   24.748">  1  9  2 -1</clus>
<clus scale="   91.082">  5  6 -1 -1</clus>
<clus scale="   92.448">  7  8 -1 -1</clus>
<clus scale="   99.439">  2  5  1 -1</clus>
<clus scale="   24.748">  1  5  2 -1</clus>
</clustering>
</event>
<event>
 9    1  0.3231311E-005  0.1066490E+03  0.7546771E-02  0.1267083E+00
         -2   -1    0    0    0  501 -0.00000000000E+00  0.00000000000E+00  0.94420678543E+03  0.94420678543E+03  0.00000000000E+00 0.  1.
         21   -1    0    0  501  502  0.00000000000E+00 -0.00000000000E+00 -0.16109078021E+02  0.16109078021E+02  0.00000000000E+00 0.  1.
         23    2    1    2    0    0  0.61408159105E+02  0.17838867162E+02  0.45810546049E+03  0.47083868281E+03  0.87973093146E+02 0.  0.
         23    2    1    2    0    0 -0.57278025507E+02  0.63149273124E+01  0.42834808760E+03  0.44115844932E+03  0.88419696562E+02 0.  0.
        -11    1    4    4    0    0 -0.33487562021E+02  0.46704439662E+02  0.20249194122E+03  0.21048921054E+03  0.00000000000E+00 0.  1.
         11    1    4    4    0    0 -0.23790463486E+02 -0.40389512350E+02  0.22585614638E+03  0.23066923878E+03  0.00000000000E+00 0. -1.
        -11    1    3    3    0    0  0.79064436322E+02  0.32578685306E+02  0.37333831282E+03  0.38300659479E+03  0.00000000000E+00 0.  1.
         11    1    3    3    0    0 -0.17656277217E+02 -0.14739818145E+02  0.84767147663E+02  0.87832088026E+02  0.00000000000E+00 0. -1.
         -2    1    1    2    0  502 -0.41301335980E+01 -0.24153794474E+02  0.41644159323E+02  0.48318731324E+02  0.00000000000E+00 0.  1.
<scales pt_clust_5="13000.00000" pt_clust_6="13000.00000" pt_clust_7="13000.00000" pt_clust_8="13000.00000" pt_clust_9="24.50436"></scales>
<clustering>
<clus scale="   24.504">  2  9  1 -1</clus>
<clus scale="   87.973">  7  8 -1 -1</clus>
<clus scale="   88.420">  5  6 -1 -1</clus>
<clus scale="  106.279">  1  7  2 -1</clus>
<clus scale="   24.504">  2  5  1 -1</clus>
</clustering>
</event>
<event>
 9    1  0.3231311E-005  0.9996816E+02  0.7546771E-02  0.1281181E+00
         21   -1    0    0  501  502  0.00000000000E+00  0.00000000000E+00  0.61173489971E+03  0.61173489971E+03  0.00000000000E+00 0. -1.
          2   -1    0    0  502    0 -0.00000000000E+00 -0.00000000000E+00 -0.12141223558E+03  0.12141223558E+03  0.00000000000E+00 0.  1.
         23    2    1    2    0    0  0.48136498811E+02 -0.32430249334E+02 -0.78294765943E+02  0.13087594637E+03  0.87347577951E+02 0.  0.
         23    2    1    2    0    0 -0.11506924361E+02 -0.30598052527E+02  0.13873488597E+03  0.16625135648E+03  0.85577420026E+02 0.  0.
        -11    1    4    4    0    0  0.29228549586E+02 -0.12458502295E+02  0.15811471816E+02  0.35489787705E+02  0.00000000000E+00 0.  1.
         11    1    4    4    0    0 -0.40735473947E+02 -0.18139550233E+02  0.12292341416E+03  0.13076156877E+03  0.00000000000E+00 0. -1.
        -13    1    3    3    0    0  0.47568122280E+02  0.17102812785E+02 -0.59053758480E+02  0.77734026353E+02  0.00000000000E+00 0. -1.
         13    1    3    3    0    0  0.56837653121E+00 -0.49533062119E+02 -0.19241007464E+02  0.53141920016E+02  0.00000000000E+00 0.  1.
          2    1    1    2  501    0 -0.36629574450E+02  0.63028301861E+02  0.42988254410E+03  0.43601983244E+03  0.00000000000E+00 0.  1.
<scales pt_clust_5="13000.00000" pt_clust_6="13000.00000" pt_clust_7="13000.00000" pt_clust_8="13000.00000" pt_clust_9="72.89919"></scales>
<clustering>
<clus scale="   72.899">  1  9  2 -1</clus>
<clus scale="   85.577">  5  6 -1 -1</clus>
<clus scale="   87.348">  7  8 -1 -1</clus>
<clus scale="   98.425">  1  5  2 -1</clus>
<clus scale="   72.899">  1  5  2 -1</clus>
</clustering>
</event>
<event>
 9    1  0.3231311E-005  0.9373791E+02  0.7546771E-02  0.1294085E+00
         21   -1    0    0  501  502  0.00000000000E+00  0.00000000000E+00  0.11205955513E+03  0.11205955513E+03  0.00000000000E+00 0. -1.
          1   -1    0    0  502    0 -0.00000000000E+00 -0.00000000000E+00 -0.27102137904E+03  0.27102137904E+03  0.00000000000E+00 0. -1.
         23    2    1    2    0    0 -0.22822197033E+02  0.61620849179E+01 -0.13408540742E+03  0.16398512646E+03  0.91396943328E+02 0.  0.
         23    2    1    2    0    0  0.68063526251E+01 -0.21944779965E+02 -0.10190640605E+03  0.13885105694E+03  0.91470217093E+02 0.  0.
        -11    1    3    3    0    0 -0.57913970295E+02 -0.19999986656E+01 -0.74956984750E+02  0.94744802036E+02  0.00000000000E+00 0. -1.
         11    1    3    3    0    0  0.35091773262E+02  0.81620835835E+01 -0.59128422673E+02  0.69240324428E+02  0.00000000000E+00 0.  1.
        -13    1    4    4    0    0 -0.22409273605E+02  0.13627074664E+02 -0.86376142599E+02  0.90270209470E+02  0.00000000000E+00 0.  1.
         13    1    4    4    0    0  0.29215626230E+02 -0.35571854629E+02 -0.15530263448E+02  0.48580847466E+02  0.00000000000E+00 0. -1.
          1    1    1    2  501    0  0.16015844408E+02  0.15782695047E+02  0.77029989561E+02  0.80244750774E+02  0.00000000000E+00 0. -1.
<scales pt_clust_5="13000.00000" pt_clust_6="13000.00000" pt_clust_7="13000.00000" pt_clust_8="13000.00000" pt_clust_9="22.48557"></scales>
<clustering>
<clus scale="   22.486">  1  9  2 -1</clus>
<clus scale="   91.397">  5  6 -1 -1</clus>
<clus scale="   91.470">  7  8 -1 -1</clus>
<clus scale="   93.666">  2  5  1 -1</clus>
<clus scale="   22.486">  1  5  2 -1</clus>
</clustering>
</event>
<event>
 9    1  0.3231311E-005  0.9307998E+02  0.7546771E-02  0.1296200E+00
          3   -1    0    0  502    0 -0.00000000000E+00  0.00000000000E+00  0.39433410190E+03  0.39433410190E+03  0.00000000000E+00 0. -1.
         21   -1    0    0  501  502  0.00000000000E+00 -0.00000000000E+00 -0.71103444937E+02  0.71103444937E+02  0.00000000000E+00 0. -1.
         23    2    1    2    0    0  0.16358352727E+02  0.10151049756E+02  0.18014826423E+03  0.20328830437E+03  0.92206822289E+02 0.  0.
         23    2    1    2    0    0  0.15563721938E+02  0.39688791154E+02  0.16968927283E+03  0.19725737348E+03  0.91096610775E+02 0.  0.
        -11    1    3    3    0    0  0.45362644171E+02 -0.21776588564E+02  0.84199026729E+02  0.98089068697E+02  0.00000000000E+00 0. -1.
         11    1    3    3    0    0 -0.29004291445E+02  0.31927638319E+02  0.95949237498E+02  0.10519923568E+03  0.00000000000E+00 0.  1.
        -13    1    4    4    0    0  0.41226722737E+02  0.56307861345E+02  0.11188513571E+03  0.13186546747E+03  0.00000000000E+00 0. -1.
         13    1    4    4    0    0 -0.25663000799E+02 -0.16619070192E+02  0.57804137114E+02  0.65391906010E+02  0.00000000000E+00 0.  1.
          3    1    1    2  501    0 -0.31922074665E+02 -0.49839840909E+02 -0.26606880088E+02  0.64891868988E+02  0.00000000000E+00 0. -1.
<scales pt_clust_5="13000.00000" pt_clust_6="13000.00000" pt_clust_7="13000.00000" pt_clust_8="13000.00000" pt_clust_9="59.18639"></scales>
<clustering>
<clus scale="   59.186">  2  9  1 -1</clus>
<clus scale="   91.097">  7  8 -1 -1</clus>
<clus scale="   91.980">  2  7  1 -1</clus>
<clus scale="   92.207">  5  6 -1 -1</clus>
<clus scale="   59.186">  2  5  1 -1</clus>
</clustering>
</event>
<event>
 9    1  0.3231311E-005  0.9482534E+02  0.7546771E-02  0.1291637E+00
         -1   -1    0    0    0  501 -0.00000000000E+00  0.00000000000E+00  0.28313555864E+03  0.28313555864E+03  0.00000000000E+00 0.  1.
         21   -1    0    0  501  502  0.00000000000E+00 -0.00000000000E+00 -0.54220227514E+02  0.54220227514E+02  0.00000000000E+00 0. -1.
         23    2    1    2    0    0  0.16326926964E+02  0.11419838784E+02  0.13148541807E+03  0.16111078393E+03  0.90946623205E+02 0.  0.
         23    2    1    2    0    0 -0.84511181909E+01 -0.38236125082E+02  0.10778447372E+03  0.14643965872E+03  0.91069524048E+02 0.  0.
        -13    1    4    4    0    0  0.91654603917E+00  0.29183487966E+02  0.46168003359E+02  0.54626006267E+02  0.00000000000E+00 0.  1.
         13    1    4    4    0    0 -0.93676642301E+01 -0.67419613048E+02  0.61616470364E+02  0.91813652453E+02  0.00000000000E+00 0. -1.
        -13    1    3    3    0    0 -0.13674528678E+02  0.41932476699E+02  0.95524877490E+02  0.10521562411E+03  0.00000000000E+00 0.  1.
         13    1    3    3    0    0  0.30001455642E+02 -0.30512637915E+02  0.35960540578E+02  0.55895159825E+02  0.00000000000E+00 0. -1.
         -1    1    1    2    0  502 -0.78758087730E+01  0.26816286297E+02 -0.10354560667E+02  0.29805343501E+02  0.00000000000E+00 0.  1.
<scales pt_clust_5="13000.00000" pt_clust_6="13000.00000" pt_clust_7="13000.00000" pt_clust_8="13000.00000" pt_clust_9="27.94891"></scales>
<clustering>
<clus scale="   27.949">  2  9  1 -1</clus>
<clus scale="   90.947">  7  8 -1 -1</clus>
<clus scale="   91.070">  5  6 -1 -1</clus>
<clus scale="   94.707">  1  7  2 -1</clus>
<clus scale="   27.949">  2  5  1 -1</clus>
</clustering>
</event>
<event>
 9    1  0.3231311E-005  0.9970849E+02  0.7546771E-02  0.1282151E+00
         21   -1    0    0  501  502  0.00000000000E+00  0.00000000000E+00  0.28140875597E+03  0.28140875597E+03  0.00000000000E+00 0. -1.
         -1   -1    0    0    0  501 -0.00000000000E+00 -0.00000000000E+00 -0.70687680766E+02  0.70687680766E+02  0.00000000000E+00 0.  1.
         23    2    1    2    0    0  0.20553577084E+02  0.41861373111E+02  0.26364602532E+02  0.10426543984E+03  0.89450352648E+02 0.  0.
         23    2    1    2    0    0  0.33233712451E+02 -0.28363054520E+02  0.15398023611E+03  0.18460131345E+03  0.91971676686E+02 0.  0.
        -11    1    3    3    0    0 -0.21863653883E+02 -0.13000948238E+02 -0.82730360455E+01  0.26748591395E+02  0.00000000000E+00 0. -1.
         11    1    3    3    0    0  0.42417230968E+02  0.54862321349E+02  0.34637638578E+02  0.77516848446E+02  0.00000000000E+00 0.  1.
        -13    1    4    4    0    0 -0.28155511145E+02  0.70888584827E+01  0.29763934703E+02  0.41579761079E+02  0.00000000000E+00 0.  1.
         13    1    4    4    0    0  0.61389223596E+02 -0.35451913003E+02  0.12421630140E+03  0.14302155237E+03  0.00000000000E+00 0. -1.
         -1    1    1    2    0  502 -0.53787289535E+02 -0.13498318591E+02  0.30376236570E+02  0.63229683445E+02  0.00000000000E+00 0.  1.
<scales pt_clust_5="13000.00000" pt_clust_6="13000.00000" pt_clust_7="13000.00000" pt_clust_8="13000.00000" pt_clust_9="55.45521"></scales>
<clustering>
<clus scale="   55.455">  1  9  2 -1</clus>
<clus scale="   89.450">  5  6 -1 -1</clus>
<clus scale="   91.972">  7  8 -1 -1</clus>
<clus scale="   97.388">  2  5  1 -1</clus>
<clus scale="   55.455">  1  5  2 -1</clus>
</clustering>
</event>
<event>
 9    1  0.3231311E-005  0.1950347E+03  0.7546771E-02  0.1163263E+00
         21   -1    0    0  501  502  0.00000000000E+00  0.00000000000E+00  0.51692807179E+02  0.51692807179E+02  0.00000000000E+00 0. -1.
          3   -1    0    0  502    0 -0.00000000000E+00 -0.00000000000E+00 -0.16138779050E+04  0.16138779050E+04  0.00000000000E+00 0. -1.
         23    2    1    2    0    0  0.11566616296E+03 -0.65598524400E+02 -0.63017435784E+03  0.64946452216E+03  0.83681638432E+02 0.  0.
         23    2    1    2    0    0 -0.11741316233E+03 -0.13450324121E+03 -0.36789198160E+03  0.41754646688E+03  0.84401239875E+02 0.  0.
        -11    1    3    3    0    0  0.95959289092E+02 -0.34281959489E+02 -0.56835873341E+03  0.57742106626E+03  0.00000000000E+00 0. -1.
         11    1    3    3    0    0  0.19706873872E+02 -0.31316564912E+02 -0.61815624426E+02  0.72043455906E+02  0.00000000000E+00 0.  1.
        -13    1    4    4    0    0 -0.77841263222E+02 -0.43053774272E+02 -0.11260402136E+03  0.14350106399E+03  0.00000000000E+00 0.  1.
         13    1    4    4    0    0 -0.39571899111E+02 -0.91449466939E+02 -0.25528796024E+03  0.27404540289E+03  0.00000000000E+00 0. -1.
          3    1    1    2  501    0  0.17469993697E+01  0.20010176561E+03 -0.56411875843E+03  0.59855972319E+03  0.00000000000E+00 0. -1.
<scales pt_clust_5="13000.00000" pt_clust_6="13000.00000" pt_clust_7="13000.00000" pt_clust_8="13000.00000" pt_clust_9="175.82656"></scales>
<clustering>
<clus scale="   83.682">  5  6 -1 -1</clus>
<clus scale="   84.401">  7  8 -1 -1</clus>
<clus scale="  157.113">  2  5  1 -1</clus>
<clus scale="  175.827">  1  9  2 -1</clus>
<clus scale="  175.827">  1  5  2 -1</clus>
</clustering>
</event>
<event>
 9    1  0.3231311E-005  0.1708323E+03  0.7546771E-02  0.1177115E+00
          1   -1    0    0  502    0 -0.00000000000E+00  0.00000000000E+00  0.16011849009E+03  0.16011849009E+03  0.00000000000E+00 0. -1.
         21   -1    0    0  501  502  0.00000000000E+00 -0.00000000000E+00 -0.38809913914E+03  0.38809913914E+03  0.00000000000E+00 0. -1.
         23    2    1    2    0    0  0.88687296446E+02 -0.14858728856E+03  0.16889885452E+02  0.19711593393E+03  0.92875208250E+02 0.  0.
         23    2    1    2    0    0  0.79119718087E+01  0.91567625876E+02 -0.17831352292E+03  0.22066973469E+03  0.91935792508E+02 0.  0.
        -11    1    3    3    0    0  0.66430708856E+02 -0.59979430230E+02  0.46780716187E+02  0.10099013089E+03  0.00000000000E+00 0.  1.
         11    1    3    3    0    0  0.22256587589E+02 -0.88607858330E+02 -0.29890830736E+02  0.96125803045E+02  0.00000000000E+00 0. -1.
        -13    1    4    4    0    0 -0.26214123154E+02 -0.30034698062E+01 -0.59086446430E+02  0.64710194215E+02  0.00000000000E+00 0.  1.
         13    1    4    4    0    0  0.34126094962E+02  0.94571095682E+02 -0.11922707649E+03  0.15595954048E+03  0.00000000000E+00 0. -1.
          1    1    1    2  501    0 -0.96599268255E+02  0.57019662685E+02 -0.66557011577E+02  0.13043196062E+03  0.00000000000E+00 0. -1.
<scales pt_clust_5="13000.00000" pt_clust_6="13000.00000" pt_clust_7="13000.00000" pt_clust_8="13000.00000" pt_clust_9="112.17246"></scales>
<clustering>
<clus scale="   91.936">  7  8 -1 -1</clus>
<clus scale="   92.875">  5  6 -1 -1</clus>
<clus scale="  112.172">  2  9  1 -1</clus>
<clus scale="  170.323">  2  7  1 -1</clus>
<clus scale="  112.172">  2  5  1 -1</clus>
</clustering>
</event>
<event>
 9    1  0.3231311E-005  0.2422865E+03  0.7546771E-02  0.1118790E+00
         21   -1    0    0  501  502  0.00000000000E+00  0.00000000000E+00  0.47668592165E+03  0.47668592165E+03  0.00000000000E+00 0. -1.
          1   -1    0    0  502    0 -0.00000000000E+00 -0.00000000000E+00 -0.19124905013E+03  0.19124905013E+03  0.00000000000E+00 0. -1.
         23    2    1    2    0    0  0.21866444285E+03  0.22413979259E+02 -0.36879739698E+02  0.23725695893E+03  0.81327881590E+02 0.  0.
         23    2    1    2    0    0 -0.24273183145E+03 -0.12996787075E+02  0.30060004185E+03  0.39692105672E+03  0.89990453000E+02 0.  0.
        -11    1    3    3    0    0  0.10371493475E+03  0.45892465860E+02 -0.38947857607E+02  0.11991597777E+03  0.00000000000E+00 0. -1.
         11    1    3    3    0    0  0.11494950811E+03 -0.23478486601E+02  0.20681179092E+01  0.11734098116E+03  0.00000000000E+00 0.  1.
        -13    1    4    4    0    0 -0.10646748877E+03 -0.37740306554E+02  0.88000344765E+02  0.14319119241E+03  0.00000000000E+00 0. -1.
         13    1    4    4    0    0 -0.13626434268E+03  0.24743519478E+02  0.21259969709E+03  0.25372986431E+03  0.00000000000E+00 0.  1.
          1    1    1    2  501    0  0.24067388598E+02 -0.94171921837E+01  0.21716569370E+02  0.33756956139E+02  0.00000000000E+00 0. -1.
<scales pt_clust_5="13000.00000" pt_clust_6="13000.00000" pt_clust_7="13000.00000" pt_clust_8="13000.00000" pt_clust_9="25.84420"></scales>
<clustering>
<clus scale="   25.844">  1  9  2 -1</clus>
<clus scale="   81.328">  5  6 -1 -1</clus>
<clus scale="   89.990">  7  8 -1 -1</clus>
<clus scale="  239.204">  2  5  1 -1</clus>
<clus scale="   25.844">  1  5  2 -1</clus>
</clustering>
</event>
<event>
 9    1  0.3231311E-005  0.1094205E+03  0.7546771E-02  0.1263337E+00
         -1   -1    0    0    0  501 -0.00000000000E+00  0.00000000000E+00  0.99305404364E+02  0.99305404364E+02  0.00000000000E+00 0.  1.
         21   -1    0    0  501  502  0.00000000000E+00 -0.00000000000E+00 -0.20671094707E+03  0.20671094707E+03  0.00000000000E+00 0. -1.
         23    2    1    2    0    0  0.32646604381E+02  0.58717895320E+02 -0.38102479878E+02  0.12731559073E+03  0.10121199861E+03 0.  0.
         23    2    1    2    0    0 -0.26774755624E+02  0.22648330366E+01 -0.57809279478E+02  0.11636715162E+03  0.97351857579E+02 0.  0.
        -11    1    4    4    0    0 -0.15470895414E+02 -0.47164851929E+02 -0.22015858547E+02  0.54300735630E+02  0.00000000000E+00 0.  1.
         11    1    4    4    0    0 -0.11303860211E+02  0.49429684966E+02 -0.35793420931E+02  0.62066415986E+02  0.00000000000E+00 0. -1.
        -13    1    3    3    0    0  0.38014287266E+02  0.84095809942E+02 -0.41434160536E+02  0.10116314025E+03  0.00000000000E+00 0. -1.
         13    1    3    3    0    0 -0.53676828855E+01 -0.25377914621E+02  0.33316806578E+01  0.26152450480E+02  0.00000000000E+00 0.  1.
         -1    1    1    2    0  502 -0.58718487562E+01 -0.60982728357E+02 -0.11493783347E+02  0.62333609083E+02  0.00000000000E+00 0.  1.
<scales pt_clust_5="13000.00000" pt_clust_6="13000.00000" pt_clust_7="13000.00000" pt_clust_8="13000.00000" pt_clust_9="61.26480"></scales>
<clustering>
<clus scale="   61.265">  2  9  1 -1</clus>
<clus scale="   97.352">  5  6 -1 -1</clus>
<clus scale="  101.212">  7  8 -1 -1</clus>
<clus scale="  105.860">  2  5  1 -1</clus>
<clus scale="   61.265">  2  5  1 -1</clus>
</clustering>
</event>
<event>
 9    1  0.3231311E-005  0.1064466E+03  0.7546771E-02  0.1268886E+00
         21   -1    0    0  501  502  0.00000000000E+00  0.00000000000E+00  0.12062871664E+03  0.12062871664E+03  0.00000000000E+00 0. -1.
          2   -1    0    0  502    0 -0.00000000000E+00 -0.00000000000E+00 -0.53004697870E+03  0.53004697870E+03  0.00000000000E+00 0. -1.
         23    2    1    2    0    0 -0.28218556794E+02 -0.15490926103E+02 -0.24883076552E+03  0.26771229044E+03  0.93364151817E+02 0.  0.
         23    2    1    2    0    0  0.63626046207E+02 -0.38487745316E+01 -0.25507836734E+03  0.28021984553E+03  0.96928331899E+02 0.  0.
        -11    1    4    4    0    0  0.42141097532E+02 -0.20813879984E+02 -0.24734781372E+03  0.25177376879E+03  0.00000000000E+00 0. -1.
         11    1    4    4    0    0  0.21484948676E+02  0.16965105453E+02 -0.77305536220E+01  0.28446076740E+02  0.00000000000E+00 0.  1.
        -11    1    3    3    0    0 -0.36880760053E+02  0.32580593568E+02 -0.14079823745E+03  0.14915035773E+03  0.00000000000E+00 0.  1.
         11    1    3    3    0    0  0.86622032594E+01 -0.48071519671E+02 -0.10803252807E+03  0.11856193271E+03  0.00000000000E+00 0. -1.
          2    1    1    2  501    0 -0.35407489414E+02  0.19339700634E+02  0.94490870802E+02  0.10274355937E+03  0.00000000000E+00 0. -1.
<scales pt_clust_5="13000.00000" pt_clust_6="13000.00000" pt_clust_7="13000.00000" pt_clust_8="13000.00000" pt_clust_9="40.34494"></scales>
<clustering>
<clus scale="   40.345">  1  9  2 -1</clus>
<clus scale="   93.364">  7  8 -1 -1</clus>
<clus scale="   96.928">  5  6 -1 -1</clus>
<clus scale="  103.212">  2  7  1 -1</clus>
<clus scale="   40.345">  1  5  2 -1</clus>
</clustering>
</event>
<event>
 9    1  0.3231311E-005  0.1512363E+03  0.7546771E-02  0.1204896E+00
         21   -1    0    0  501  502  0.00000000000E+00  0.00000000000E+00  0.32617627925E+03  0.32617627925E+03  0.00000000000E+00 0.  1.
          1   -1    0    0  502    0 -0.00000000000E+00 -0.00000000000E+00 -0.16867816993E+03  0.16867816993E+03  0.00000000000E+00 0. -1.
         23    2    1    2    0    0  0.84932693571E+02 -0.37905795159E+02 -0.83724967293E+02  0.17094998531E+03  0.11646293653E+03 0.  0.
         23    2    1    2    0    0 -0.11605284246E+03 -0.91252384469E+00  0.11206787435E+03  0.18549784615E+03  0.91548607424E+02 0.  0.
        -11    1    4    4    0    0 -0.82137407221E+02  0.13047520392E+01  0.12462570322E+03  0.14926426882E+03  0.00000000000E+00 0.  1.
         11    1    4    4    0    0 -0.33915435243E+02 -0.22172758839E+01 -0.12557828872E+02  0.36233577329E+02  0.00000000000E+00 0. -1.
        -13    1    3    3    0    0  0.66465069810E+02  0.32768961915E+02 -0.55730825086E+02  0.92721816390E+02  0.00000000000E+00 0. -1.
         13    1    3    3    0    0  0.18467623762E+02 -0.70674757075E+02 -0.27994142206E+02  0.78228168922E+02  0.00000000000E+00 0.  1.
          1    1    1    2  501    0  0.31120148892E+02  0.38818319004E+02  0.12915520226E+03  0.13840661772E+03  0.00000000000E+00 0. -1.
<scales pt_clust_5="13000.00000" pt_clust_6="13000.00000" pt_clust_7="13000.00000" pt_clust_8="13000.00000" pt_clust_9="49.75264"></scales>
<clustering>
<clus scale="   49.753">  1  9  2 -1</clus>
<clus scale="   91.549">  5  6 -1 -1</clus>
<clus scale="  116.463">  7  8 -1 -1</clus>
<clus scale="  133.004">  1  5  2 -1</clus>
<clus scale="   49.753">  1  5  2 -1</clus>
</clustering>
</event>
<event>
 9    1  0.7358498E-005  0.1550066E+03  0.7546771E-02  0.1215330E+00
         -3   -1    0    0    0  501 -0.00000000000E+00  0.00000000000E+00  0.24573952771E+03  0.24573952771E+03  0.00000000000E+00 0.  1.
         21   -1    0    0  501  502  0.00000000000E+00 -0.00000000000E+00 -0.38825471374E+03  0.38825471374E+03  0.00000000000E+00 0.  1.
         23    2    1    2    0    0 -0.76996915952E+01 -0.36389729713E+02 -0.52287000528E+02  0.11183984219E+03  0.91600885358E+02 0.  0.
         23    2    1    2    0    0 -0.11308861902E+03  0.68366769834E+02  0.16970228301E+03  0.23375156373E+03  0.91530747393E+02 0.  0.
        -11    1    3    3    0    0 -0.44972436236E+02 -0.28687164369E+02 -0.50935314718E+02  0.73755540172E+02  0.00000000000E+00 0.  1.
         11    1    3    3    0    0  0.37272744641E+02 -0.77025653437E+01 -0.13516858096E+01  0.38084302022E+02  0.00000000000E+00 0. -1.
        -11    1    4    4    0    0 -0.91785185446E+02  0.90251475774E+02  0.14875026364E+03  0.19671423457E+03  0.00000000000E+00 0.  1.
         11    1    4    4    0    0 -0.21303433576E+02 -0.21884705939E+02  0.20952019363E+02  0.37037329163E+02  0.00000000000E+00 0. -1.
         -3    1    1    2    0  502  0.12078831062E+03 -0.31977040122E+02 -0.25993046852E+03  0.28840283553E+03  0.00000000000E+00 0.  1.
<scales pt_clust_5="13000.00000" pt_clust_6="13000.00000" pt_clust_7="13000.00000" pt_clust_8="13000.00000" pt_clust_9="125.09659"></scales>
<clustering>
<clus scale="   91.531">  7  8 -1 -1</clus>
<clus scale="   91.601">  5  6 -1 -1</clus>
<clus scale="   98.865">  1  5  2 -1</clus>
<clus scale="  125.097">  2  9  1 -1</clus>
<clus scale="  125.097">  2  5  1 -1</clus>
</clustering>
</event>
<event>
 9    1  0.3231311E-005  0.1018570E+03  0.7546771E-02  0.1277531E+00
         21   -1    0    0  501  502  0.00000000000E+00  0.00000000000E+00  0.66910452607E+03  0.66910452607E+03  0.00000000000E+00 0. -1.
         -4   -1    0    0    0  501 -0.00000000000E+00 -0.00000000000E+00 -0.25997514840E+02  0.25997514840E+02  0.00000000000E+00 0.  1.
         23    2    1    2    0    0  0.25869558553E+02 -0.42096923288E+02  0.20312944603E+03  0.22805450445E+03  0.91136711310E+02 0.  0.
         23    2    1    2    0    0 -0.43030345070E+02 -0.48121176660E-01  0.22637937675E+03  0.24865595357E+03  0.93437402116E+02 0.  0.
        -11    1    4    4    0    0  0.20797450035E+02 -0.11474609716E+02  0.13217556114E+03  0.13429288722E+03  0.00000000000E+00 0.  1.
         11    1    4    4    0    0 -0.63827795104E+02  0.11426488539E+02  0.94203815616E+02  0.11436306635E+03  0.00000000000E+00 0. -1.
        -13    1    3    3    0    0  0.45632451259E+02 -0.47446786642E+02  0.81747673312E+02  0.10495808812E+03  0.00000000000E+00 0.  1.
         13    1    3    3    0    0 -0.19762892706E+02  0.53498633534E+01  0.12138177272E+03  0.12309641633E+03  0.00000000000E+00 0. -1.
         -4    1    1    2    0  502  0.17160786516E+02  0.42145044465E+02  0.21359818846E+03  0.21839158289E+03  0.00000000000E+00 0.  1.
<scales pt_clust_5="13000.00000" pt_clust_6="13000.00000" pt_clust_7="13000.00000" pt_clust_8="13000.00000" pt_clust_9="45.50492"></scales>
<clustering>
<clus scale="   45.505">  1  9  2 -1</clus>
<clus scale="   91.137">  7  8 -1 -1</clus>
<clus scale="   93.437">  5  6 -1 -1</clus>
<clus scale="   99.751">  2  7  1 -1</clus>
<clus scale="   45.505">  1  5  2 -1</clus>
</clustering>
</event>
<event>
 9    1  0.3231311E-005  0.1023071E+03  0.7546771E-02  0.1276502E+00
         21   -1    0    0  501  502  0.00000000000E+00  0.00000000000E+00  0.86207870855E+02  0.86207870855E+02  0.00000000000E+00 0.  1.
          1   -1    0    0  502    0 -0.00000000000E+00 -0.00000000000E+00 -0.20722029233E+03  0.20722029233E+03  0.00000000000E+00 0. -1.
         23    2    1    2    0    0  0.36857830887E+02 -0.40448197322E+02 -0.98645348123E+02  0.14546212486E+03  0.91835552473E+02 0.  0.
         23    2    1    2    0    0 -0.27371926755E+02  0.20041316586E+02 -0.53294952358E+02  0.10971741929E+03  0.89703307660E+02 0.  0.
        -11    1    4    4    0    0 -0.26104747501E+02 -0.99087487201E+01  0.17420423365E+02  0.32910671423E+02  0.00000000000E+00 0.  1.
         11    1    4    4    0    0 -0.12671792546E+01  0.29950065307E+02 -0.70715375723E+02  0.76806747872E+02  0.00000000000E+00 0. -1.
        -13    1    3    3    0    0 -0.15281563415E+02 -0.39036306502E+02 -0.10784880163E+02  0.43285945130E+02  0.00000000000E+00 0.  1.
         13    1    3    3    0    0  0.52139394302E+02 -0.14118908198E+01 -0.87860467960E+02  0.10217617973E+03  0.00000000000E+00 0. -1.
          1    1    1    2  501    0 -0.94859041320E+01  0.20406880735E+02  0.30927879001E+02  0.38248619035E+02  0.00000000000E+00 0. -1.
<scales pt_clust_5="13000.00000" pt_clust_6="13000.00000" pt_clust_7="13000.00000" pt_clust_8="13000.00000" pt_clust_9="22.50385"></scales>
<clustering>
<clus scale="   22.504">  1  9  2 -1</clus>
<clus scale="   89.703">  5  6 -1 -1</clus>
<clus scale="   91.836">  7  8 -1 -1</clus>
<clus scale="  100.398">  1  5  2 -1</clus>
<clus scale="   22.504">  1  5  2 -1</clus>
</clustering>
</event>
<event>
 9    1  0.3231311E-005  0.1461664E+03  0.7546771E-02  0.1205629E+00
         21   -1    0    0  501  502  0.00000000000E+00  0.00000000000E+00  0.28544491202E+03  0.28544491202E+03  0.00000000000E+00 0. -1.
          4   -1    0    0  502    0 -0.00000000000E+00 -0.00000000000E+00 -0.22500544177E+03  0.22500544177E+03  0.00000000000E+00 0. -1.
         23    2    1    2    0    0  0.23042413728E+02 -0.13087868884E+03 -0.12586264929E+03  0.20355405982E+03  0.89065508246E+02 0.  0.
         23    2    1    2    0    0 -0.45270552290E+01  0.82977258924E+02  0.10350695643E+02  0.12360344344E+03  0.90911795724E+02 0.  0.
        -11    1    4    4    0    0  0.26457546829E+02  0.10954703389E+02  0.31325494230E+02  0.42441652881E+02  0.00000000000E+00 0. -1.
         11    1    4    4    0    0 -0.30984602058E+02  0.72022555536E+02 -0.20974798587E+02  0.81161790556E+02  0.00000000000E+00 0.  1.
        -13    1    3    3    0    0  0.27739377356E+02 -0.84040721484E+01 -0.54499050150E+02  0.61727205931E+02  0.00000000000E+00 0.  1.
         13    1    3    3    0    0 -0.46969636282E+01 -0.12247461669E+03 -0.71363599138E+02  0.14182685389E+03  0.00000000000E+00 0. -1.
          4    1    1    2  501    0 -0.18515358499E+02  0.47901429918E+02  0.17595142389E+03  0.18329285053E+03  0.00000000000E+00 0. -1.
<scales pt_clust_5="13000.00000" pt_clust_6="13000.00000" pt_clust_7="13000.00000" pt_clust_8="13000.00000" pt_clust_9="51.35529"></scales>
<clustering>
<clus scale="   51.355">  1  9  2 -1</clus>
<clus scale="   89.066">  7  8 -1 -1</clus>
<clus scale="   90.912">  5  6 -1 -1</clus>
<clus scale="  145.025">  2  7  1 -1</clus>
<clus scale="   51.355">  1  5  2 -1</clus>
</clustering>
</event>
<event>
 9    1  0.3392174E-005  0.1414999E+03  0.7546771E-02  0.1211895E+00
         21   -1    0    0  501  502  0.00000000000E+00  0.00000000000E+00  0.12889678142E+03  0.12889678142E+03  0.00000000000E+00 0. -1.
          1   -1    0    0  502    0 -0.00000000000E+00 -0.00000000000E+00 -0.81317368415E+03  0.81317368415E+03  0.00000000000E+00 0. -1.
         23    2    1    2    0    0  0.80498138103E+02 -0.87444704262E+02 -0.63180183512E+03  0.64917686389E+03  0.90169369567E+02 0.  0.
         23    2    1    2    0    0 -0.54171465273E+02  0.54658130849E+02 -0.14660171006E+03  0.18980200203E+03  0.92793747978E+02 0.  0.
        -11    1    4    4    0    0 -0.36216337600E+02  0.76505496374E+02 -0.76037730376E+02  0.11378247020E+03  0.00000000000E+00 0. -1.
         11    1    4    4    0    0 -0.17955127673E+02 -0.21847365525E+02 -0.70563979689E+02  0.76019531830E+02  0.00000000000E+00 0.  1.
        -13    1    3    3    0    0  0.55119540672E+02 -0.84440154828E+02 -0.59982764146E+03  0.60824460784E+03  0.00000000000E+00 0. -1.
         13    1    3    3    0    0  0.25378597432E+02 -0.30045494343E+01 -0.31974193661E+02  0.40932256048E+02  0.00000000000E+00 0.  1.
          1    1    1    2  501    0 -0.26326672831E+02  0.32786573413E+02  0.94126642450E+02  0.10309159965E+03  0.00000000000E+00 0. -1.
<scales pt_clust_5="13000.00000" pt_clust_6="13000.00000" pt_clust_7="13000.00000" pt_clust_8="13000.00000" pt_clust_9="42.04822"></scales>
<clustering>
<clus scale="   42.048">  1  9  2 -1</clus>
<clus scale="   90.169">  7  8 -1 -1</clus>
<clus scale="   92.794">  5  6 -1 -1</clus>
<clus scale="  139.793">  2  7  1 -1</clus>
<clus scale="   42.048">  1  5  2 -1</clus>
</clustering>
</event>
<event>
 9    1  0.3231311E-005  0.1469191E+03  0.7546771E-02  0.1204573E+00
          1   -1    0    0  502    0 -0.00000000000E+00  0.00000000000E+00  0.43073166544E+03  0.43073166544E+03  0.00000000000E+00 0. -1.
         21   -1    0    0  501  502  0.00000000000E+00 -0.00000000000E+00 -0.10383533622E+03  0.10383533622E+03  0.00000000000E+00 0. -1.
         23    2    1    2    0    0 -0.92044027614E+02 -0.74441553808E+02  0.20708742512E+03  0.25501880684E+03  0.90198349472E+02 0.  0.
         23    2    1    2    0    0  0.74086760814E+02  0.87117310614E+02  0.17085585218E+03  0.22397005929E+03  0.88840257202E+02 0.  0.
        -11    1    3    3    0    0 -0.11128530796E+02  0.20783030727E+02  0.38985412069E+02  0.45559202343E+02  0.00000000000E+00 0.  1.
         11    1    3    3    0    0 -0.80915496818E+02 -0.95224584536E+02  0.16810201305E+03  0.20945960450E+03  0.00000000000E+00 0. -1.
        -13    1    4    4    0    0  0.59638080049E+02  0.10000331843E+02  0.10659918038E+03  0.12255648692E+03  0.00000000000E+00 0. -1.
         13    1    4    4    0    0  0.14448680766E+02  0.77116978771E+02  0.64256671798E+02  0.10141357237E+03  0.00000000000E+00 0.  1.
          1    1    1    2  501    0  0.17957266799E+02 -0.12675756806E+02 -0.51046948074E+02  0.55578135532E+02  0.00000000000E+00 0. -1.
<scales pt_clust_5="13000.00000" pt_clust_6="13000.00000" pt_clust_7="13000.00000" pt_clust_8="13000.00000" pt_clust_9="21.98041"></scales>
<clustering>
<clus scale="   21.980">  2  9  1 -1</clus>
<clus scale="   88.840">  7  8 -1 -1</clus>
<clus scale="   90.198">  5  6 -1 -1</clus>
<clus scale="  146.089">  2  7  1 -1</clus>
<clus scale="   21.980">  2  5  1 -1</clus>
</clustering>
</event>
<event>
 9    1  0.3231311E-005  0.1282317E+03  0.7546771E-02  0.1232867E+00
         21   -1    0    0  501  502  0.00000000000E+00  0.00000000000E+00  0.49486561560E+02  0.49486561560E+02  0.00000000000E+00 0.  1.
          2   -1    0    0  502    0 -0.00000000000E+00 -0.00000000000E+00 -0.60682176946E+03  0.60682176946E+03  0.00000000000E+00 0. -1.
         23    2    1    2    0    0  0.58014131056E+02  0.69447685515E+02 -0.29579258280E+03  0.32101074292E+03  0.85825547505E+02 0.  0.
         23    2    1    2    0    0 -0.34336043828E+02 -0.74066581531E+02 -0.27867256226E+03  0.30571007786E+03  0.95579455640E+02 0.  0.
        -11    1    3    3    0    0  0.26360758166E+02 -0.15220427899E+02 -0.44152252376E+02  0.53628093257E+02  0.00000000000E+00 0. -1.
         11    1    3    3    0    0  0.31653372890E+02  0.84668113414E+02 -0.25164033042E+03  0.26738264966E+03  0.00000000000E+00 0.  1.
        -11    1    4    4    0    0  0.28820392923E+02 -0.49690804018E+02 -0.14236017318E+03  0.15351289835E+03  0.00000000000E+00 0.  1.
         11    1    4    4    0    0 -0.63156436751E+02 -0.24375777513E+02 -0.13631238908E+03  0.15219717951E+03  0.00000000000E+00 0. -1.
          2    1    1    2  501    0 -0.23678087229E+02  0.46188960155E+01  0.17129937163E+02  0.29587510243E+02  0.00000000000E+00 0. -1.
<scales pt_clust_5="13000.00000" pt_clust_6="13000.00000" pt_clust_7="13000.00000" pt_clust_8="13000.00000" pt_clust_9="24.12439"></scales>
<clustering>
<clus scale="   24.124">  1  9  2 -1</clus>
<clus scale="   85.826">  5  6 -1 -1</clus>
<clus scale="   95.579">  7  8 -1 -1</clus>
<clus scale="  121.136">  2  5  1 -1</clus>
<clus scale="   24.124">  1  5  2 -1</clus>
</clustering>
</event>
<event>
 9    1  0.3231311E-005  0.2630463E+03  0.7546771E-02  0.1145376E+00
          2   -1    0    0  502    0 -0.00000000000E+00  0.00000000000E+00  0.20062195013E+04  0.20062195013E+04  0.00000000000E+00 0. -1.
         21   -1    0    0  501  502  0.00000000000E+00 -0.00000000000E+00 -0.49133035680E+02  0.49133035680E+02  0.00000000000E+00 0. -1.
         23    2    1    2    0    0 -0.28651846710E+02  0.15246545642E+02  0.17522223221E+03  0.20053439034E+03  0.91966437215E+02 0.  0.
         23    2    1    2    0    0  0.12254926446E+02 -0.25374640747E+03  0.80007719019E+03  0.84434457384E+03  0.90867082028E+02 0.  0.
        -11    1    4    4    0    0  0.42662746148E+02 -0.10404069258E+03  0.26458381902E+03  0.28748769175E+03  0.00000000000E+00 0.  1.
         11    1    4    4    0    0 -0.30407819702E+02 -0.14970571489E+03  0.53549337117E+03  0.55685688209E+03  0.00000000000E+00 0. -1.
        -13    1    3    3    0    0  0.15972648827E+02  0.29321550992E+02  0.13424931386E+03  0.13833928269E+03  0.00000000000E+00 0.  1.
         13    1    3    3    0    0 -0.44624495537E+02 -0.14075005351E+02  0.40972918355E+02  0.62195107654E+02  0.00000000000E+00 0. -1.
          2    1    1    2  501    0  0.16396920264E+02  0.23849986182E+03  0.98178704322E+03  0.10104735728E+04  0.00000000000E+00 0. -1.
<scales pt_clust_5="13000.00000" pt_clust_6="13000.00000" pt_clust_7="13000.00000" pt_clust_8="13000.00000" pt_clust_9="246.85340"></scales>
<clustering>
<clus scale="   90.867">  5  6 -1 -1</clus>
<clus scale="   91.966">  7  8 -1 -1</clus>
<clus scale="   97.525">  1  7  2 -1</clus>
<clus scale="  246.853">  2  9  1 -1</clus>
<clus scale="  246.853">  2  5  1 -1</clus>
</clustering>
</event>
<event>
 9    1  0.3231311E-005  0.1169675E+03  0.7546771E-02  0.1249207E+00
          2   -1    0    0  502    0 -0.00000000000E+00  0.00000000000E+00  0.52258654523E+03  0.52258654523E+03  0.00000000000E+00 0. -1.
         21   -1    0    0  501  502  0.00000000000E+00 -0.00000000000E+00 -0.64639827535E+02  0.64639827535E+02  0.00000000000E+00 0.  1.
         23    2    1    2    0    0  0.41289166230E+02 -0.54192453783E+02  0.31931445860E+03  0.33867665504E+03  0.89991865788E+02 0.  0.
         23    2    1    2    0    0 -0.99770229220E+02  0.18541399830E+02  0.87853220501E+02  0.16328810187E+03  0.92988890275E+02 0.  0.
        -11    1    3    3    0    0 -0.85921573279E+01  0.20401617873E+02  0.46876271340E+02  0.51840486053E+02  0.00000000000E+00 0.  1.
         11    1    3    3    0    0  0.49881323558E+02 -0.74594071657E+02  0.27243818726E+03  0.28683616899E+03  0.00000000000E+00 0. -1.
        -13    1    4    4    0    0 -0.24434228368E+02  0.21498884471E+02 -0.14938948597E+02  0.35810693021E+02  0.00000000000E+00 0.  1.
         13    1    4    4    0    0 -0.75336000852E+02 -0.29574846415E+01  0.10279216910E+03  0.12747740885E+03  0.00000000000E+00 0. -1.
          2    1    1    2  501    0  0.58481062990E+02  0.35651053954E+02  0.50779038601E+02  0.85261615852E+02  0.00000000000E+00 0. -1.
<scales pt_clust_5="13000.00000" pt_clust_6="13000.00000" pt_clust_7="13000.00000" pt_clust_8="13000.00000" pt_clust_9="68.49111"></scales>
<clustering>
<clus scale="   68.491">  2  9  1 -1</clus>
<clus scale="   89.992">  5  6 -1 -1</clus>
<clus scale="   92.989">  7  8 -1 -1</clus>
<clus scale="  114.599">  1  5  2 -1</clus>
<clus scale="   68.491">  2  5  1 -1</clus>
</clustering>
</event>
<event>
 9    1  0.3231311E-005  0.1198034E+03  0.7546771E-02  0.1269070E+00
          1   -1    0    0  502    0 -0.00000000000E+00  0.00000000000E+00  0.17017858760E+03  0.17017858760E+03  0.00000000000E+00 0. -1.
         21   -1    0    0  501  502  0.00000000000E+00 -0.00000000000E+00 -0.35012556653E+03  0.35012556653E+03  0.00000000000E+00 0. -1.
         23    2    1    2    0    0 -0.15178056746E+02 -0.22876949896E+02  0.59043920155E+02  0.93221778319E+02  0.66711222463E+02 0.  0.
         23    2    1    2    0    0  0.38909888552E+02 -0.52914064435E+02  0.53506948708E+02  0.12399415654E+03  0.90541038505E+02 0.  0.
        -11    1    4    4    0    0  0.29736389169E+02 -0.71510315309E+02  0.64261294414E+02  0.10063544105E+03  0.00000000000E+00 0. -1.
         11    1    4    4    0    0  0.91734993822E+01  0.18596250874E+02 -0.10754345706E+02  0.23358715484E+02  0.00000000000E+00 0.  1.
        -13    1    3    3    0    0  0.20681680618E+02  0.17171807014E+01  0.11070736560E+01  0.20782353929E+02  0.00000000000E+00 0.  1.
         13    1    3    3    0    0 -0.35859737364E+02 -0.24594130598E+02  0.57936846499E+02  0.72439424390E+02  0.00000000000E+00 0. -1.
          1    1    1    2  501    0 -0.23731831805E+02  0.75791014331E+02 -0.29249784779E+03  0.30308821927E+03  0.00000000000E+00 0. -1.
<scales pt_clust_5="13000.00000" pt_clust_6="13000.00000" pt_clust_7="13000.00000" pt_clust_8="13000.00000" pt_clust_9="78.45496"></scales>
<clustering>
<clus scale="   66.711">  7  8 -1 -1</clus>
<clus scale="   72.140">  1  7  2 -1</clus>
<clus scale="   78.455">  2  9  1 -1</clus>
<clus scale="   90.541">  5  6 -1 -1</clus>
<clus scale="   78.455">  2  5  1 -1</clus>
</clustering>
</event>
<event>
 9    1  0.3231311E-005  0.9269941E+02  0.7546771E-02  0.1297527E+00
         -2   -1    0    0    0  501 -0.00000000000E+00  0.00000000000E+00  0.65334967164E+02  0.65334967164E+02  0.00000000000E+00 0.  1.
         21   -1    0    0  501  502  0.00000000000E+00 -0.00000000000E+00 -0.22963198523E+03  0.22963198523E+03  0.00000000000E+00 0. -1.
         23    2    1    2    0    0 -0.17728632169E+02  0.63180262140E+01  0.24965987474E+01  0.91887682593E+02  0.89904901720E+02 0.  0.
         23    2    1    2    0    0  0.27706017695E+02 -0.24005236453E+02 -0.13266587892E+03  0.16336670099E+03  0.88003231578E+02 0.  0.
        -13    1    4    4    0    0 -0.19800096480E+02 -0.26406003093E+02 -0.14620755565E+02  0.36098300697E+02  0.00000000000E+00 0.  1.
         13    1    4    4    0    0  0.47506114175E+02  0.24007666400E+01 -0.11804512335E+03  0.12726840029E+03  0.00000000000E+00 0. -1.
        -13    1    3    3    0    0 -0.50210159901E+02 -0.93684587265E+01 -0.12880588704E+02  0.52675779458E+02  0.00000000000E+00 0.  1.
         13    1    3    3    0    0  0.32481527732E+02  0.15686484940E+02  0.15377187452E+02  0.39211903135E+02  0.00000000000E+00 0. -1.
         -2    1    1    2    0  502 -0.99773855255E+01  0.17687210239E+02 -0.34127737893E+02  0.39712568812E+02  0.00000000000E+00 0.  1.
<scales pt_clust_5="13000.00000" pt_clust_6="13000.00000" pt_clust_7="13000.00000" pt_clust_8="13000.00000" pt_clust_9="20.30728"></scales>
<clustering>
<clus scale="   20.307">  2  9  1 -1</clus>
<clus scale="   88.003">  5  6 -1 -1</clus>
<clus scale="   89.905">  7  8 -1 -1</clus>
<clus scale="   90.856">  2  5  1 -1</clus>
<clus scale="   20.307">  2  5  1 -1</clus>
</clustering>
</event>
<event>
 9    1  0.3231311E-005  0.1181706E+03  0.7546771E-02  0.1246906E+00
          1   -1    0    0  502    0 -0.00000000000E+00  0.00000000000E+00  0.45536038628E+03  0.45536038628E+03  0.00000000000E+00 0. -1.
         21   -1    0    0  501  502  0.00000000000E+00 -0.00000000000E+00 -0.18761131237E+03  0.18761131237E+03  0.00000000000E+00 0. -1.
         23    2    1    2    0    0  0.64511100893E+02 -0.26756448024E+02  0.30380590416E+03  0.32471454112E+03  0.90906084291E+02 0.  0.
         23    2    1    2    0    0 -0.88151501035E+02 -0.10488716324E+02  0.10773867865E+03  0.16784698778E+03  0.93189527967E+02 0.  0.
        -13    1    3    3    0    0  0.37722329297E+01 -0.21413100826E+02  0.87715137161E+01  0.23445470376E+02  0.00000000000E+00 0.  1.
         13    1    3    3    0    0  0.60738867964E+02 -0.53433471978E+01  0.29503439045E+03  0.30126907074E+03  0.00000000000E+00 0. -1.
        -13    1    4    4    0    0 -0.30225958149E+02  0.66505259758E+01 -0.12428004972E+02  0.33351062192E+02  0.00000000000E+00 0.  1.
         13    1    4    4    0    0 -0.57925542886E+02 -0.17139242300E+02  0.12016668362E+03  0.13449592558E+03  0.00000000000E+00 0. -1.
          1    1    1    2  501    0  0.23640400142E+02  0.37245164348E+02 -0.14379550890E+03  0.15041016976E+03  0.00000000000E+00 0. -1.
<scales pt_clust_5="13000.00000" pt_clust_6="13000.00000" pt_clust_7="13000.00000" pt_clust_8="13000.00000" pt_clust_9="44.11429"></scales>
<clustering>
<clus scale="   44.114">  2  9  1 -1</clus>
<clus scale="   90.906">  5  6 -1 -1</clus>
<clus scale="   93.190">  7  8 -1 -1</clus>
<clus scale="  116.378">  1  5  2 -1</clus>
<clus scale="   44.114">  2  5  1 -1</clus>
</clustering>
</event>
<event>
 9    1  0.3231311E-005  0.9517569E+02  0.7546771E-02  0.1300620E+00
         21   -1    0    0  501  502  0.00000000000E+00  0.00000000000E+00  0.91218450887E+02  0.91218450887E+02  0.00000000000E+00 0. -1.
          2   -1    0    0  502    0 -0.00000000000E+00 -0.00000000000E+00 -0.39949853950E+03  0.39949853950E+03  0.00000000000E+00 0. -1.
         23    2    1    2    0    0  0.21941147557E+02  0.23746958719E+02 -0.34330056429E+03  0.35631786372E+03  0.89787585767E+02 0.  0.
         23    2    1    2    0    0 -0.42307736048E+02  0.65295122545E+01  0.83728199673E+00  0.84399593157E+02  0.72732463345E+02 0.  0.
        -11    1    4    4    0    0 -0.48534489776E+02  0.29156170833E+02 -0.11667067952E+02  0.57808299318E+02  0.00000000000E+00 0.  1.
         11    1    4    4    0    0  0.62267537281E+01 -0.22626658578E+02  0.12504349949E+02  0.26591293839E+02  0.00000000000E+00 0. -1.
        -11    1    3    3    0    0  0.51017606763E+02 -0.88081266325E+01 -0.18375138770E+03  0.19090560959E+03  0.00000000000E+00 0. -1.
         11    1    3    3    0    0 -0.29076459206E+02  0.32555085351E+02 -0.15954917659E+03  0.16541225412E+03  0.00000000000E+00 0.  1.
          2    1    1    2  501    0  0.20366588491E+02 -0.30276470973E+02  0.34183193680E+02  0.49999533513E+02  0.00000000000E+00 0. -1.
<scales pt_clust_5="13000.00000" pt_clust_6="13000.00000" pt_clust_7="13000.00000" pt_clust_8="13000.00000" pt_clust_9="36.48921"></scales>
<clustering>
<clus scale="   36.489">  1  9  2 -1</clus>
<clus scale="   72.732">  5  6 -1 -1</clus>
<clus scale="   79.288">  1  5  2 -1</clus>
<clus scale="   89.788">  7  8 -1 -1</clus>
<clus scale="   36.489">  1  5  2 -1</clus>
</clustering>
</event>
<event>
 9    1  0.3231311E-005  0.1650738E+03  0.7546771E-02  0.1183873E+00
          2   -1    0    0  502    0 -0.00000000000E+00  0.00000000000E+00  0.42691743771E+03  0.42691743771E+03  0.00000000000E+00 0. -1.
         21   -1    0    0  501  502  0.00000000000E+00 -0.00000000000E+00 -0.12023248782E+03  0.12023248782E+03  0.00000000000E+00 0. -1.
         23    2    1    2    0    0 -0.60718534467E+02 -0.79583681670E+02  0.10856735605E+03  0.17617553489E+03  0.96076248244E+02 0.  0.
         23    2    1    2    0    0  0.10174464176E+03  0.16773160822E+03  0.13143280150E+03  0.25307587512E+03  0.91032701450E+02 0.  0.
        -11    1    3    3    0    0  0.18510024692E+02 -0.50664009022E+02  0.35385581283E+02  0.64510481218E+02  0.00000000000E+00 0. -1.
         11    1    3    3    0    0 -0.79228559159E+02 -0.28919672647E+02  0.73181774769E+02  0.11166505367E+03  0.00000000000E+00 0.  1.
        -11    1    4    4    0    0  0.78805714369E+02  0.56415634030E+02  0.89531687750E+02  0.13194312218E+03  0.00000000000E+00 0.  1.
         11    1    4    4    0    0  0.22938927387E+02  0.11131597419E+03  0.41901113751E+02  0.12113275293E+03  0.00000000000E+00 0. -1.
          2    1    1    2  501    0 -0.41026107288E+02 -0.88147926549E+02  0.66684792338E+02  0.11789851553E+03  0.00000000000E+00 0. -1.
<scales pt_clust_5="13000.00000" pt_clust_6="13000.00000" pt_clust_7="13000.00000" pt_clust_8="13000.00000" pt_clust_9="97.22761"></scales>
<clustering>
<clus scale="   91.033">  7  8 -1 -1</clus>
<clus scale="   96.076">  5  6 -1 -1</clus>
<clus scale="   97.228">  2  9  1 -1</clus>
<clus scale="  162.190">  2  7  1 -1</clus>
<clus scale="   97.228">  2  5  1 -1</clus>
</clustering>
</event>
<event>
 9    1  0.3231311E-005  0.1206258E+03  0.7546771E-02  0.1244719E+00
         21   -1    0    0  501  502  0.00000000000E+00  0.00000000000E+00  0.17592203285E+03  0.17592203285E+03  0.00000000000E+00 0. -1.
          2   -1    0    0  502    0 -0.00000000000E+00 -0.00000000000E+00 -0.21696305907E+03  0.21696305907E+03  0.00000000000E+00 0. -1.
         23    2    1    2    0    0  0.34520267311E+02  0.36640383256E+02 -0.87049558244E+02  0.13614740021E+03  0.91784107852E+02 0.  0.
         23    2    1    2    0    0 -0.78502108491E+02 -0.76781664763E+02 -0.38732831274E+02  0.15316731232E+03  0.99508734603E+02 0.  0.
        -11    1    3    3    0    0 -0.13853144084E+02  0.41542316346E+02 -0.98065730695E+01  0.44875856803E+02  0.00000000000E+00 0.  1.
         11    1    3    3    0    0  0.48373411395E+02 -0.49019330903E+01 -0.77242985174E+02  0.91271543411E+02  0.00000000000E+00 0. -1.
        -11    1    4    4    0    0  0.17548530436E+02 -0.15520217124E+02  0.14361166899E+02  0.27478558455E+02  0.00000000000E+00 0.  1.
         11    1    4    4    0    0 -0.96050638927E+02 -0.61261447639E+02 -0.53093998173E+02  0.12568875386E+03  0.00000000000E+00 0. -1.
          2    1    1    2  501    0  0.43981841180E+02  0.40141281507E+02  0.84741363297E+02  0.10357037940E+03  0.00000000000E+00 0. -1.
<scales pt_clust_5="13000.00000" pt_clust_6="13000.00000" pt_clust_7="13000.00000" pt_clust_8="13000.00000" pt_clust_9="59.54599"></scales>
<clustering>
<clus scale="   59.546">  1  9  2 -1</clus>
<clus scale="   91.784">  5  6 -1 -1</clus>
<clus scale="   99.509">  7  8 -1 -1</clus>
<clus scale="  114.337">  2  5  1 -1</clus>
<clus scale="   59.546">  1  5  2 -1</clus>
</clustering>
</event>
<event>
 9    1  0.3231311E-005  0.1354957E+03  0.7546771E-02  0.1221105E+00
         21   -1    0    0  501  502  0.00000000000E+00  0.00000000000E+00  0.60204830158E+02  0.60204830158E+02  0.00000000000E+00 0.  1.
         -1   -1    0    0    0  501 -0.00000000000E+00 -0.00000000000E+00 -0.44974742722E+03  0.44974742722E+03  0.00000000000E+00 0.  1.
         23    2    1    2    0    0 -0.62805468199E+02 -0.89043447894E+02 -0.21918319329E+03  0.26076531229E+03  0.89911141826E+02 0.  0.
         23    2    1    2    0    0  0.31833490264E+02  0.90385618888E+02 -0.17673668781E+03  0.21753675407E+03  0.83087010704E+02 0.  0.
        -11    1    3    3    0    0 -0.41213576385E+02  0.74911126592E+01 -0.75128483802E+02  0.86017235051E+02  0.00000000000E+00 0.  1.
         11    1    3    3    0    0 -0.21591891813E+02 -0.96534560553E+02 -0.14405470949E+03  0.17474807724E+03  0.00000000000E+00 0. -1.
        -11    1    4    4    0    0  0.34378055255E+01  0.97413445350E+02 -0.13212067414E+03  0.16418608461E+03  0.00000000000E+00 0.  1.
         11    1    4    4    0    0  0.28395684738E+02 -0.70278264621E+01 -0.44616013663E+02  0.53350669459E+02  0.00000000000E+00 0. -1.
         -1    1    1    2    0  502  0.30971977935E+02 -0.13421709947E+01  0.63772840347E+01  0.31650191024E+02  0.00000000000E+00 0.  1.
<scales pt_clust_5="13000.00000" pt_clust_6="13000.00000" pt_clust_7="13000.00000" pt_clust_8="13000.00000" pt_clust_9="31.00105"></scales>
<clustering>
<clus scale="   31.001">  1  9  2 -1</clus>
<clus scale="   83.087">  7  8 -1 -1</clus>
<clus scale="   89.911">  5  6 -1 -1</clus>
<clus scale="  131.067">  1  7  2 -1</clus>
<clus scale="   31.001">  1  5  2 -1</clus>
</clustering>
</event>
<event>
 9    1  0.3231311E-005  0.9708463E+02  0.7546771E-02  0.1303291E+00
         21   -1    0    0  501  502  0.00000000000E+00  0.00000000000E+00  0.52063804708E+03  0.52063804708E+03  0.00000000000E+00 0. -1.
         -3   -1    0    0    0  501 -0.00000000000E+00 -0.00000000000E+00 -0.26214358919E+02  0.26214358919E+02  0.00000000000E+00 0.  1.
         23    2    1    2    0    0  0.23536986115E+02  0.42902795375E+02  0.11117290654E+03  0.15071427430E+03  0.89222966576E+02 0.  0.
         23    2    1    2    0    0 -0.52266286943E+01 -0.23120785992E+02  0.18179289840E+03  0.19288490097E+03  0.59950302119E+02 0.  0.
        -11    1    4    4    0    0 -0.24832760902E+02  0.84722754505E+01  0.58664770074E+02  0.64265081601E+02  0.00000000000E+00 0. -1.
         11    1    4    4    0    0  0.19606132208E+02 -0.31593061442E+02  0.12312812832E+03  0.12861981937E+03  0.00000000000E+00 0.  1.
        -13    1    3    3    0    0 -0.20534551716E+01 -0.26574441312E+02  0.20339330998E+02  0.33527689969E+02  0.00000000000E+00 0.  1.
         13    1    3    3    0    0  0.25590441287E+02  0.69477236687E+02  0.90833575540E+02  0.11718658434E+03  0.00000000000E+00 0. -1.
         -3    1    1    2    0  502 -0.18310357421E+02 -0.19782009383E+02  0.20145788323E+03  0.20325323072E+03  0.00000000000E+00 0.  1.
<scales pt_clust_5="13000.00000" pt_clust_6="13000.00000" pt_clust_7="13000.00000" pt_clust_8="13000.00000" pt_clust_9="26.95546"></scales>
<clustering>
<clus scale="   26.955">  1  9  2 -1</clus>
<clus scale="   59.950">  5  6 -1 -1</clus>
<clus scale="   71.125">  1  5  2 -1</clus>
<clus scale="   89.223">  7  8 -1 -1</clus>
<clus scale="   26.955">  1  5  2 -1</clus>
</clustering>
</event>
<event>
 9    1  0.3231311E-005  0.1029230E+03  0.7546771E-02  0.1274549E+00
          2   -1    0    0  502    0 -0.00000000000E+00  0.00000000000E+00  0.46204651306E+03  0.46204651306E+03  0.00000000000E+00 0. -1.
         21   -1    0    0  501  502  0.00000000000E+00 -0.00000000000E+00 -0.34870204976E+02  0.34870204976E+02  0.00000000000E+00 0.  1.
         23    2    1    2    0    0  0.48500853067E+02  0.20321660773E+02  0.28171966016E+03  0.30049650679E+03  0.90370797425E+02 0.  0.
         23    2    1    2    0    0 -0.43770938193E+02  0.63867079488E+01  0.13148194019E+03  0.16590789389E+03  0.91001338391E+02 0.  0.
        -11    1    3    3    0    0  0.59704353421E+02  0.45792479035E+02  0.18132185125E+03  0.19631396969E+03  0.00000000000E+00 0.  1.
         11    1    3    3    0    0 -0.11203500355E+02 -0.25470818262E+02  0.10039780891E+03  0.10418253710E+03  0.00000000000E+00 0. -1.
        -13    1    4    4    0    0 -0.63428338360E+02 -0.21319356475E+02  0.93079188404E+02  0.11463596461E+03  0.00000000000E+00 0. -1.
         13    1    4    4    0    0  0.19657400167E+02  0.27706064424E+02  0.38402751785E+02  0.51271929278E+02  0.00000000000E+00 0.  1.
          2    1    1    2  501    0 -0.47299148733E+01 -0.26708368722E+02  0.13974707737E+02  0.30512317362E+02  0.00000000000E+00 0. -1.
<scales pt_clust_5="13000.00000" pt_clust_6="13000.00000" pt_clust_7="13000.00000" pt_clust_8="13000.00000" pt_clust_9="27.12396"></scales>
<clustering>
<clus scale="   27.124">  2  9  1 -1</clus>
<clus scale="   90.371">  5  6 -1 -1</clus>
<clus scale="   91.001">  7  8 -1 -1</clus>
<clus scale="  102.366">  1  5  2 -1</clus>
<clus scale="   27.124">  2  5  1 -1</clus>
</clustering>
</event>
<event>
 9    1  0.3231311E-005  0.1099764E+03  0.7546771E-02  0.1260785E+00
         -3   -1    0    0    0  501 -0.00000000000E+00  0.00000000000E+00  0.43559724968E+03  0.43559724968E+03  0.00000000000E+00 0.  1.
         21   -1    0    0  501  502  0.00000000000E+00 -0.00000000000E+00 -0.15415153752E+03  0.15415153752E+03  0.00000000000E+00 0. -1.
         23    2    1    2    0    0  0.30727643857E+02  0.58241857202E+02  0.38769393463E+03  0.40345057333E+03  0.90163607656E+02 0.  0.
         23    2    1    2    0    0 -0.98215586704E+00 -0.13195965584E+02 -0.93415651151E+02  0.13081306906E+03  0.90611682569E+02 0.  0.
        -13    1    4    4    0    0 -0.66854040570E+01 -0.51709754140E+02 -0.60153931421E+02  0.79605833744E+02  0.00000000000E+00 0.  1.
         13    1    4    4    0    0  0.57032481899E+01  0.38513788556E+02 -0.33261719730E+02  0.51207235312E+02  0.00000000000E+00 0. -1.
        -13    1    3    3    0    0  0.68062560866E+01 -0.22882699677E+02  0.13170759141E+03  0.13385377358E+03  0.00000000000E+00 0. -1.
         13    1    3    3    0    0  0.23921387770E+02  0.81124556879E+02  0.25598634322E+03  0.26959679976E+03  0.00000000000E+00 0.  1.
         -3    1    1    2    0  502 -0.29745487989E+02 -0.45045891618E+02 -0.12832571328E+02  0.55485144807E+02  0.00000000000E+00 0.  1.
<scales pt_clust_5="13000.00000" pt_clust_6="13000.00000" pt_clust_7="13000.00000" pt_clust_8="13000.00000" pt_clust_9="53.98080"></scales>
<clustering>
<clus scale="   53.981">  2  9  1 -1</clus>
<clus scale="   90.164">  7  8 -1 -1</clus>
<clus scale="   90.612">  5  6 -1 -1</clus>
<clus scale="  109.608">  1  7  2 -1</clus>
<clus scale="   53.981">  2  5  1 -1</clus>
</clustering>
</event>
<event>
 9    1  0.3231311E-005  0.1659733E+03  0.7546771E-02  0.1208175E+00
         21   -1    0    0  501  502  0.00000000000E+00  0.00000000000E+00  0.13049003780E+03  0.13049003780E+03  0.00000000000E+00 0.  1.
          1   -1    0    0  502    0 -0.00000000000E+00 -0.00000000000E+00 -0.45333982647E+03  0.45333982647E+03  0.00000000000E+00 0. -1.
         23    2    1    2    0    0 -0.23602724564E+02  0.10168708504E+02 -0.24939269021E+03  0.26644377327E+03  0.90194673600E+02 0.  0.
         23    2    1    2    0    0  0.86035135021E+02 -0.12240620778E+03 -0.63747639143E+02  0.18858649581E+03  0.95476597889E+02 0.  0.
        -11    1    4    4    0    0  0.10452548404E+03 -0.10076027112E+03 -0.67066683347E+02  0.15992544846E+03  0.00000000000E+00 0.  1.
         11    1    4    4    0    0 -0.18490349020E+02 -0.21645936660E+02  0.33190442035E+01  0.28661047350E+02  0.00000000000E+00 0. -1.
        -13    1    3    3    0    0 -0.54688808228E+02  0.25314558150E+01 -0.10357601693E+03  0.11715487739E+03  0.00000000000E+00 0. -1.
         13    1    3    3    0    0  0.31086083664E+02  0.76372526890E+01 -0.14581667328E+03  0.14928889588E+03  0.00000000000E+00 0.  1.
          1    1    1    2  501    0 -0.62432410457E+02  0.11223749928E+03 -0.97094593090E+01  0.12879959518E+03  0.00000000000E+00 0. -1.
<scales pt_clust_5="13000.00000" pt_clust_6="13000.00000" pt_clust_7="13000.00000" pt_clust_8="13000.00000" pt_clust_9="135.76217"></scales>
<clustering>
<clus scale="   90.195">  7  8 -1 -1</clus>
<clus scale="   93.785">  2  7  1 -1</clus>
<clus scale="   95.477">  5  6 -1 -1</clus>
<clus scale="  135.762">  1  9  2 -1</clus>
<clus scale="  135.762">  1  5  2 -1</clus>
</clustering>
</event>
<event>
 9    1  0.3231311E-005  0.1293674E+03  0.7546771E-02  0.1239864E+00
         -1   -1    0    0    0  501 -0.00000000000E+00  0.00000000000E+00  0.31599805382E+03  0.31599805382E+03  0.00000000000E+00 0.  1.
         21   -1    0    0  501  502  0.00000000000E+00 -0.00000000000E+00 -0.77680332997E+02  0.77680332997E+02  0.00000000000E+00 0.  1.
         23    2    1    2    0    0  0.58491125244E+01  0.52169817353E+02  0.22663300422E+03  0.26227113027E+03  0.12111038439E+03 0.  0.
         23    2    1    2    0    0 -0.13807040815E+02 -0.29515292742E+02  0.29408237583E+02  0.10156300579E+03  0.91588278862E+02 0.  0.
        -11    1    4    4    0    0  0.36977329611E+02 -0.18116727245E+01  0.80932626552E+00  0.37030528922E+02  0.00000000000E+00 0.  1.
         11    1    4    4    0    0 -0.50784370426E+02 -0.27703620017E+02  0.28598911318E+02  0.64532476864E+02  0.00000000000E+00 0. -1.
        -11    1    3    3    0    0  0.63315894464E+01 -0.38208183571E+02  0.95062073622E+02  0.10264868318E+03  0.00000000000E+00 0. -1.
         11    1    3    3    0    0 -0.48247692197E+00  0.90378000924E+02  0.13157093060E+03  0.15962244709E+03  0.00000000000E+00 0.  1.
         -1    1    1    2    0  502  0.79579282905E+01 -0.22654524612E+02 -0.17723520980E+02  0.29844250769E+02  0.00000000000E+00 0.  1.
<scales pt_clust_5="13000.00000" pt_clust_6="13000.00000" pt_clust_7="13000.00000" pt_clust_8="13000.00000" pt_clust_9="24.01158"></scales>
<clustering>
<clus scale="   24.012">  2  9  1 -1</clus>
<clus scale="   91.588">  5  6 -1 -1</clus>
<clus scale="  102.258">  2  5  1 -1</clus>
<clus scale="  121.110">  7  8 -1 -1</clus>
<clus scale="   24.012">  2  5  1 -1</clus>
</clustering>
</event>
<event>
 9    1  0.4081554E-005  0.1269688E+03  0.7546771E-02  0.1239165E+00
         -3   -1    0    0    0  501 -0.00000000000E+00  0.00000000000E+00  0.12868270292E+03  0.12868270292E+03  0.00000000000E+00 0.  1.
         21   -1    0    0  501  502  0.00000000000E+00 -0.00000000000E+00 -0.68944701761E+03  0.68944701761E+03  0.00000000000E+00 0.  1.
         23    2    1    2    0    0  0.23138802174E+02 -0.57460946714E+02  0.87394967982E+02  0.13955051782E+03  0.89438817260E+02 0.  0.
         23    2    1    2    0    0 -0.72894031254E+02  0.70086485136E+02 -0.46881734462E+03  0.49203559443E+03  0.10992574031E+03 0.  0.
        -11    1    4    4    0    0 -0.98463361082E+02  0.46752585524E+02 -0.40526678801E+03  0.41966892570E+03  0.00000000000E+00 0.  1.
         11    1    4    4    0    0  0.25569329829E+02  0.23333899612E+02 -0.63550556605E+02  0.72366668735E+02  0.00000000000E+00 0. -1.
        -11    1    3    3    0    0  0.50003091917E+02 -0.24599659895E+02  0.18662251154E+02  0.58768461663E+02  0.00000000000E+00 0. -1.
         11    1    3    3    0    0 -0.26864289743E+02 -0.32861286819E+02  0.68732716829E+02  0.80782056160E+02  0.00000000000E+00 0.  1.
         -3    1    1    2    0  502  0.49755229080E+02 -0.12625538421E+02 -0.17934193806E+03  0.18654360828E+03  0.00000000000E+00 0.  1.
<scales pt_clust_5="13000.00000" pt_clust_6="13000.00000" pt_clust_7="13000.00000" pt_clust_8="13000.00000" pt_clust_9="51.33212"></scales>
<clustering>
<clus scale="   51.332">  2  9  1 -1</clus>
<clus scale="   89.439">  7  8 -1 -1</clus>
<clus scale="  109.712">  1  7  2 -1</clus>
<clus scale="  109.926">  5  6 -1 -1</clus>
<clus scale="   51.332">  2  5  1 -1</clus>
</clustering>
</event>
<event>
 9    1  0.3231311E-005  0.2516461E+03  0.7546771E-02  0.1112300E+00
         -2   -1    0    0    0  501 -0.00000000000E+00  0.00000000000E+00  0.53425424979E+03  0.53425424979E+03  0.00000000000E+00 0.  1.
         21   -1    0    0  501  502  0.00000000000E+00 -0.00000000000E+00 -0.15063491282E+03  0.15063491282E+03  0.00000000000E+00 0. -1.
         23    2    1    2    0    0  0.22562383421E+03  0.26725609983E+02  0.22575589552E+03  0.33253726750E+03  0.89414412265E+02 0.  0.
         23    2    1    2    0    0 -0.24003640359E+03 -0.52975594723E+02  0.17774532298E+03  0.31640647720E+03  0.89976498548E+02 0.  0.
        -13    1    4    4    0    0 -0.21273900430E+02  0.19371271311E+02  0.35201579506E+02  0.45464009848E+02  0.00000000000E+00 0. -1.
         13    1    4    4    0    0 -0.21876250316E+03 -0.72346866034E+02  0.14254374348E+03  0.27094246736E+03  0.00000000000E+00 0.  1.
        -13    1    3    3    0    0  0.65371533492E+02  0.49293686359E+02  0.66392990743E+02  0.10541031318E+03  0.00000000000E+00 0.  1.
         13    1    3    3    0    0  0.16025230072E+03 -0.22568076376E+02  0.15936290478E+03  0.22712695431E+03  0.00000000000E+00 0. -1.
         -2    1    1    2    0  502  0.14412569380E+02  0.26249984740E+02 -0.19881881537E+02  0.35945417906E+02  0.00000000000E+00 0.  1.
<scales pt_clust_5="13000.00000" pt_clust_6="13000.00000" pt_clust_7="13000.00000" pt_clust_8="13000.00000" pt_clust_9="29.94635"></scales>
<clustering>
<clus scale="   29.946">  2  9  1 -1</clus>
<clus scale="   89.414">  7  8 -1 -1</clus>
<clus scale="   89.976">  5  6 -1 -1</clus>
<clus scale="  251.446">  1  7  2 -1</clus>
<clus scale="   29.946">  2  5  1 -1</clus>
</clustering>
</event>
<event>
 9    1  0.3231311E-005  0.1012354E+03  0.7546771E-02  0.1277869E+00
         21   -1    0    0  501  502  0.00000000000E+00  0.00000000000E+00  0.44640268528E+03  0.44640268528E+03  0.00000000000E+00 0. -1.
         -1   -1    0    0    0  501 -0.00000000000E+00 -0.00000000000E+00 -0.37189351943E+02  0.37189351943E+02  0.00000000000E+00 0.  1.
         23    2    1    2    0    0 -0.25129015947E+02  0.35704081847E+02  0.80866866785E+02  0.12937658519E+03  0.91063723557E+02 0.  0.
         23    2    1    2    0    0  0.47795225972E+02 -0.18923989901E+02  0.24682205729E+03  0.26795098735E+03  0.90741956311E+02 0.  0.
        -11    1    4    4    0    0 -0.15695665814E+02  0.23250921663E+02  0.68501389324E+02  0.74022966861E+02  0.00000000000E+00 0.  1.
         11    1    4    4    0    0  0.63490891787E+02 -0.42174911565E+02  0.17832066797E+03  0.19392802049E+03  0.00000000000E+00 0. -1.
        -13    1    3    3    0    0 -0.49524180948E+02  0.23072548492E+02  0.12999773511E+02  0.56160316095E+02  0.00000000000E+00 0.  1.
         13    1    3    3    0    0  0.24395165001E+02  0.12631533355E+02  0.67867093274E+02  0.73216269092E+02  0.00000000000E+00 0. -1.
         -1    1    1    2    0  502 -0.22666210025E+02 -0.16780091946E+02  0.81524409255E+02  0.86264464683E+02  0.00000000000E+00 0.  1.
<scales pt_clust_5="13000.00000" pt_clust_6="13000.00000" pt_clust_7="13000.00000" pt_clust_8="13000.00000" pt_clust_9="28.20157"></scales>
<clustering>
<clus scale="   28.202">  1  9  2 -1</clus>
<clus scale="   90.742">  5  6 -1 -1</clus>
<clus scale="   91.064">  7  8 -1 -1</clus>
<clus scale="  100.946">  1  5  2 -1</clus>
<clus scale="   28.202">  1  5  2 -1</clus>
</clustering>
</event>
<event>
 9    1  0.3231311E-005  0.1270935E+03  0.7546771E-02  0.1233636E+00
          1   -1    0    0  502    0 -0.00000000000E+00  0.00000000000E+00  0.56893227285E+03  0.56893227285E+03  0.00000000000E+00 0. -1.
         21   -1    0    0  501  502  0.00000000000E+00 -0.00000000000E+00 -0.35562886793E+02  0.35562886793E+02  0.00000000000E+00 0.  1.
         23    2    1    2    0    0 -0.83518619431E+02  0.37830761040E+02  0.28580321987E+03  0.31395914774E+03  0.92088759818E+02 0.  0.
         23    2    1    2    0    0  0.64946563632E+02 -0.54827380421E+02  0.23039502302E+03  0.26006217912E+03  0.85594232328E+02 0.  0.
        -11    1    4    4    0    0  0.51793309989E+02  0.80220515528E+01  0.71239824469E+02  0.88442144146E+02  0.00000000000E+00 0. -1.
         11    1    4    4    0    0  0.13153253643E+02 -0.62849431974E+02  0.15915519855E+03  0.17162003498E+03  0.00000000000E+00 0.  1.
        -11    1    3    3    0    0 -0.93475210447E+02  0.97136915357E+01  0.25158912701E+03  0.26856853800E+03  0.00000000000E+00 0.  1.
         11    1    3    3    0    0  0.99565910156E+01  0.28117069504E+02  0.34214092861E+02  0.45390609738E+02  0.00000000000E+00 0. -1.
          1    1    1    2  501    0  0.18572055799E+02  0.16996619381E+02  0.17171143171E+02  0.30473832788E+02  0.00000000000E+00 0. -1.
<scales pt_clust_5="13000.00000" pt_clust_6="13000.00000" pt_clust_7="13000.00000" pt_clust_8="13000.00000" pt_clust_9="25.17551"></scales>
<clustering>
<clus scale="   25.176">  2  9  1 -1</clus>
<clus scale="   85.594">  5  6 -1 -1</clus>
<clus scale="   92.089">  7  8 -1 -1</clus>
<clus scale="  122.470">  2  5  1 -1</clus>
<clus scale="   25.176">  2  5  1 -1</clus>
</clustering>
</event>
<event>
 9    1  0.3231311E-005  0.1265965E+03  0.7546771E-02  0.1232989E+00
         -3   -1    0    0    0  501 -0.00000000000E+00  0.00000000000E+00  0.38185963647E+03  0.38185963647E+03  0.00000000000E+00 0.  1.
         21   -1    0    0  501  502  0.00000000000E+00 -0.00000000000E+00 -0.98043762870E+02  0.98043762870E+02  0.00000000000E+00 0. -1.
         23    2    1    2    0    0  0.46413427249E+02  0.70162854739E+02  0.27944301793E+03  0.30629361426E+03  0.93007233334E+02 0.  0.
         23    2    1    2    0    0 -0.20721876370E+02 -0.97905477472E+02  0.54241148207E+01  0.13578368233E+03  0.91612819448E+02 0.  0.
        -11    1    3    3    0    0  0.58284409626E+02  0.54968654703E+01  0.11138622486E+03  0.12583393431E+03  0.00000000000E+00 0.  1.
         11    1    3    3    0    0 -0.11870982376E+02  0.64665989269E+02  0.16805679307E+03  0.18045967995E+03  0.00000000000E+00 0. -1.
        -11    1    4    4    0    0  0.10997397483E+02 -0.74169818085E+02 -0.31778827879E+02  0.81437083491E+02  0.00000000000E+00 0. -1.
         11    1    4    4    0    0 -0.31719273853E+02 -0.23735659387E+02  0.37202942699E+02  0.54346598843E+02  0.00000000000E+00 0.  1.
         -3    1    1    2    0  502 -0.25691550879E+02  0.27742622733E+02 -0.10512591567E+01  0.37826102740E+02  0.00000000000E+00 0.  1.
<scales pt_clust_5="13000.00000" pt_clust_6="13000.00000" pt_clust_7="13000.00000" pt_clust_8="13000.00000" pt_clust_9="37.81149"></scales>
<clustering>
<clus scale="   37.811">  2  9  1 -1</clus>
<clus scale="   91.613">  7  8 -1 -1</clus>
<clus scale="   93.007">  5  6 -1 -1</clus>
<clus scale="  125.576">  2  7  1 -1</clus>
<clus scale="   37.811">  2  5  1 -1</clus>
</clustering>
</event>
<event>
 9    1  0.3370798E-005  0.1104503E+03  0.7546771E-02  0.1261621E+00
         21   -1    0    0  501  502  0.00000000000E+00  0.00000000000E+00  0.12554960441E+03  0.12554960441E+03  0.00000000000E+00 0. -1.
          1   -1    0    0  502    0 -0.00000000000E+00 -0.00000000000E+00 -0.72505705144E+03  0.72505705144E+03  0.00000000000E+00 0. -1.
         23    2    1    2    0    0 -0.99313803310E+01 -0.82062242853E+02 -0.52941005625E+03  0.54362461072E+03  0.91759826219E+02 0.  0.
         23    2    1    2    0    0  0.25360436065E+02 -0.12616595499E+02 -0.15108863507E+03  0.18143635686E+03  0.96379695702E+02 0.  0.
        -11    1    3    3    0    0 -0.47218361783E+02 -0.23657686018E+02 -0.18939342303E+03  0.19661924749E+03  0.00000000000E+00 0.  1.
         11    1    3    3    0    0  0.37286981452E+02 -0.58404556835E+02 -0.34001663322E+03  0.34700536323E+03  0.00000000000E+00 0. -1.
        -11    1    4    4    0    0  0.12972480909E+02  0.38393801080E+02 -0.10122194325E+03  0.10903325648E+03  0.00000000000E+00 0.  1.
         11    1    4    4    0    0  0.12387955156E+02 -0.51010396579E+02 -0.49866691819E+02  0.72403100382E+02  0.00000000000E+00 0. -1.
          1    1    1    2  501    0 -0.15429055734E+02  0.94678838352E+02  0.80991244291E+02  0.12554568827E+03  0.00000000000E+00 0. -1.
<scales pt_clust_5="13000.00000" pt_clust_6="13000.00000" pt_clust_7="13000.00000" pt_clust_8="13000.00000" pt_clust_9="95.92778"></scales>
<clustering>
<clus scale="   91.760">  5  6 -1 -1</clus>
<clus scale="   95.928">  1  9  2 -1</clus>
<clus scale="   96.380">  7  8 -1 -1</clus>
<clus scale="  106.443">  2  5  1 -1</clus>
<clus scale="   95.928">  1  5  2 -1</clus>
</clustering>
</event>
<event>
 9    1  0.3231311E-005  0.1110367E+03  0.7546771E-02  0.1262321E+00
         -1   -1    0    0    0  501 -0.00000000000E+00  0.00000000000E+00  0.56245062842E+03  0.56245062842E+03  0.00000000000E+00 0.  1.
         21   -1    0    0  501  502  0.00000000000E+00 -0.00000000000E+00 -0.56944611208E+02  0.56944611208E+02  0.00000000000E+00 0. -1.
         23    2    1    2    0    0 -0.55743799173E+02 -0.43909004192E+02  0.30343055099E+03  0.32708809587E+03  0.99403980763E+02 0.  0.
         23    2    1    2    0    0 -0.31920809344E+02  0.48543743636E+02  0.16490160246E+03  0.19697372599E+03  0.90723079319E+02 0.  0.
        -11    1    3    3    0    0 -0.43162664617E+02 -0.75894902041E+02  0.20456678915E+03  0.22241992490E+03  0.00000000000E+00 0. -1.
         11    1    3    3    0    0 -0.12581134556E+02  0.31985897849E+02  0.98863761841E+02  0.10466817097E+03  0.00000000000E+00 0.  1.
        -13    1    4    4    0    0 -0.44956436884E+02 -0.75085128805E+01  0.45373275741E+02  0.64313242295E+02  0.00000000000E+00 0. -1.
         13    1    4    4    0    0  0.13035627541E+02  0.56052256517E+02  0.11952832672E+03  0.13266048370E+03  0.00000000000E+00 0.  1.
         -1    1    1    2    0  502  0.87664608516E+02 -0.46347394443E+01  0.37173863761E+02  0.95333417766E+02  0.00000000000E+00 0.  1.
<scales pt_clust_5="13000.00000" pt_clust_6="13000.00000" pt_clust_7="13000.00000" pt_clust_8="13000.00000" pt_clust_9="87.78704"></scales>
<clustering>
<clus scale="   87.787">  2  9  1 -1</clus>
<clus scale="   90.723">  7  8 -1 -1</clus>
<clus scale="   99.404">  5  6 -1 -1</clus>
<clus scale="  103.338">  2  7  1 -1</clus>
<clus scale="   87.787">  2  5  1 -1</clus>
</clustering>
</event>
<event>
 9    1  0.3231311E-005  0.1209358E+03  0.7546771E-02  0.1242270E+00
         21   -1    0    0  501  502  0.00000000000E+00  0.00000000000E+00  0.41913271900E+03  0.41913271900E+03  0.00000000000E+00 0.  1.
         -4   -1    0    0    0  501 -0.00000000000E+00 -0.00000000000E+00 -0.68729995868E+02  0.68729995868E+02  0.00000000000E+00 0.  1.
         23    2    1    2    0    0 -0.83862443948E+02 -0.91574524605E+01  0.27849082598E+02  0.12805561852E+03  0.92227444903E+02 0.  0.
         23    2    1    2    0    0  0.63123210503E+02  0.16210814509E+02  0.15425611419E+03  0.19008991073E+03  0.89954961980E+02 0.  0.
        -11    1    3    3    0    0 -0.88525501586E+02  0.16005812927E+02 -0.36831681239E+00  0.89961581444E+02  0.00000000000E+00 0.  1.
         11    1    3    3    0    0  0.46630576387E+01 -0.25163265388E+02  0.28217399411E+02  0.38094037080E+02  0.00000000000E+00 0. -1.
        -13    1    4    4    0    0  0.11450626498E+02  0.37750018426E+02  0.19162728855E+02  0.43856480884E+02  0.00000000000E+00 0. -1.
         13    1    4    4    0    0  0.51672584004E+02 -0.21539203917E+02  0.13509338533E+03  0.14623342984E+03  0.00000000000E+00 0.  1.
         -4    1    1    2    0  502  0.20739233445E+02 -0.70533620481E+01  0.16829752635E+03  0.16971718562E+03  0.00000000000E+00 0.  1.
<scales pt_clust_5="13000.00000" pt_clust_6="13000.00000" pt_clust_7="13000.00000" pt_clust_8="13000.00000" pt_clust_9="21.90584"></scales>
<clustering>
<clus scale="   21.906">  1  9  2 -1</clus>
<clus scale="   89.955">  7  8 -1 -1</clus>
<clus scale="   92.227">  5  6 -1 -1</clus>
<clus scale="  119.212">  1  7  2 -1</clus>
<clus scale="   21.906">  1  5  2 -1</clus>
</clustering>
</event>
<event>
 9    1  0.3231311E-005  0.2035579E+03  0.7546771E-02  0.1146835E+00
         21   -1    0    0  501  502  0.00000000000E+00  0.00000000000E+00  0.13348877001E+03  0.13348877001E+03  0.00000000000E+00 0. -1.
         -1   -1    0    0    0  501 -0.00000000000E+00 -0.00000000000E+00 -0.75557140583E+03  0.75557140583E+03  0.00000000000E+00 0.  1.
         23    2    1    2    0    0  0.14339138885E+03 -0.10723073792E+03 -0.53478894953E+03  0.57142953333E+03  0.92048734176E+02 0.  0.
         23    2    1    2    0    0 -0.13893146808E+03  0.12955841340E+03 -0.14482826011E+03  0.25575461186E+03  0.91366630990E+02 0.  0.
        -11    1    4    4    0    0 -0.10643800188E+03  0.67521048143E+02 -0.13556829265E+03  0.18511321443E+03  0.00000000000E+00 0.  1.
         11    1    4    4    0    0 -0.32493466201E+02  0.62037365253E+02 -0.92599674585E+01  0.70641397429E+02  0.00000000000E+00 0. -1.
        -13    1    3    3    0    0  0.10123356279E+03 -0.85893897994E+02 -0.48477504918E+03  0.50262594865E+03  0.00000000000E+00 0.  1.
         13    1    3    3    0    0  0.42157826052E+02 -0.21336839927E+02 -0.50013900348E+02  0.68803584671E+02  0.00000000000E+00 0. -1.
         -1    1    1    2    0  502 -0.44599207684E+01 -0.22327675476E+02  0.57534573821E+02  0.61876030660E+02  0.00000000000E+00 0.  1.
<scales pt_clust_5="13000.00000" pt_clust_6="13000.00000" pt_clust_7="13000.00000" pt_clust_8="13000.00000" pt_clust_9="22.76875"></scales>
<clustering>
<clus scale="   22.769">  1  9  2 -1</clus>
<clus scale="   91.367">  5  6 -1 -1</clus>
<clus scale="   92.049">  7  8 -1 -1</clus>
<clus scale="  203.250">  1  5  2 -1</clus>
<clus scale="   22.769">  1  5  2 -1</clus>
</clustering>
</event>
<event>
 9    1  0.3231311E-005  0.1022555E+03  0.7546771E-02  0.1289874E+00
         21   -1    0    0  501  502  0.00000000000E+00  0.00000000000E+00  0.13260138506E+03  0.13260138506E+03  0.00000000000E+00 0. -1.
         -3   -1    0    0    0  501 -0.00000000000E+00 -0.00000000000E+00 -0.10047298081E+03  0.10047298081E+03  0.00000000000E+00 0.  1.
         23    2    1    2    0    0  0.14069597221E+02 -0.34364309982E+02 -0.36250648454E+02  0.83993695668E+02  0.66045227171E+02 0.  0.
         23    2    1    2    0    0 -0.18442620986E+02  0.53905712576E+02  0.45019219873E+02  0.11831264228E+03  0.93408752525E+02 0.  0.
        -13    1    3    3    0    0  0.25076192325E+02 -0.16017165322E+02 -0.50268745068E+02  0.58414995825E+02  0.00000000000E+00 0.  1.
         13    1    3    3    0    0 -0.11006595104E+02 -0.18347144660E+02  0.14018096614E+02  0.25578699843E+02  0.00000000000E+00 0. -1.
        -13    1    4    4    0    0 -0.26389814643E+02  0.12235840747E+02 -0.23722611312E+02  0.37535322073E+02  0.00000000000E+00 0.  1.
         13    1    4    4    0    0  0.79471936575E+01  0.41669871829E+02  0.68741831184E+02  0.80777320207E+02  0.00000000000E+00 0. -1.
         -3    1    1    2    0  502  0.43730237647E+01 -0.19541402594E+02  0.23359832831E+02  0.30768027920E+02  0.00000000000E+00 0.  1.
<scales pt_clust_5="13000.00000" pt_clust_6="13000.00000" pt_clust_7="13000.00000" pt_clust_8="13000.00000" pt_clust_9="20.02473"></scales>
<clustering>
<clus scale="   20.025">  1  9  2 -1</clus>
<clus scale="   66.045">  5  6 -1 -1</clus>
<clus scale="   78.057">  2  5  1 -1</clus>
<clus scale="   93.409">  7  8 -1 -1</clus>
<clus scale="   20.025">  1  5  2 -1</clus>
</clustering>
</event>
<event>
 9    1  0.3231311E-005  0.1140342E+03  0.7546771E-02  0.1254518E+00
         -3   -1    0    0    0  501 -0.00000000000E+00  0.00000000000E+00  0.22672943627E+03  0.22672943627E+03  0.00000000000E+00 0.  1.
         21   -1    0    0  501  502  0.00000000000E+00 -0.00000000000E+00 -0.75143260557E+02  0.75143260557E+02  0.00000000000E+00 0. -1.
         23    2    1    2    0    0  0.64412383839E+02  0.30708124257E+01  0.11229803337E+03  0.16067967613E+03  0.95124786165E+02 0.  0.
         23    2    1    2    0    0 -0.57967026506E+02 -0.23672109302E+02  0.43290756416E+02  0.11923904649E+03  0.91778623304E+02 0.  0.
        -13    1    3    3    0    0  0.82658784802E+02 -0.10508896293E+02  0.57190345854E+02  0.10106259083E+03  0.00000000000E+00 0.  1.
         13    1    3    3    0    0 -0.18246400963E+02  0.13579708718E+02  0.55107687512E+02  0.59617085302E+02  0.00000000000E+00 0. -1.
        -13    1    4    4    0    0 -0.43016156386E+01 -0.19538906226E+02  0.59704654944E+02  0.62967599411E+02  0.00000000000E+00 0.  1.
         13    1    4    4    0    0 -0.53665410867E+02 -0.41332030763E+01 -0.16413898528E+02  0.56271447077E+02  0.00000000000E+00 0. -1.
         -3    1    1    2    0  502 -0.64453573334E+01  0.20601296876E+02 -0.40026140684E+01  0.21953974208E+02  0.00000000000E+00 0.  1.
<scales pt_clust_5="13000.00000" pt_clust_6="13000.00000" pt_clust_7="13000.00000" pt_clust_8="13000.00000" pt_clust_9="21.58602"></scales>
<clustering>
<clus scale="   21.586">  2  9  1 -1</clus>
<clus scale="   91.779">  7  8 -1 -1</clus>
<clus scale="   95.125">  5  6 -1 -1</clus>
<clus scale="  111.258">  2  7  1 -1</clus>
<clus scale="   21.586">  2  5  1 -1</clus>
</clustering>
</event>
<event>
 9    1  0.3231311E-005  0.9595084E+02  0.7546771E-02  0.1290559E+00
          2   -1    0    0  502    0 -0.00000000000E+00  0.00000000000E+00  0.11088482772E+03  0.11088482772E+03  0.00000000000E+00 0. -1.
         21   -1    0    0  501  502  0.00000000000E+00 -0.00000000000E+00 -0.15766994463E+03  0.15766994463E+03  0.00000000000E+00 0. -1.
         23    2    1    2    0    0 -0.23159161664E+02  0.30305316763E+02  0.42739790041E+02  0.10579280642E+03  0.88941943113E+02 0.  0.
         23    2    1    2    0    0  0.14719162533E+02  0.66593426964E+01 -0.42604597160E+02  0.10243672158E+03  0.91744916137E+02 0.  0.
        -13    1    4    4    0    0  0.52621402120E+02  0.63297302353E+01 -0.35717136202E+02  0.63912371763E+02  0.00000000000E+00 0. -1.
         13    1    4    4    0    0 -0.37902239586E+02  0.32961246109E+00 -0.68874609585E+01  0.38524349813E+02  0.00000000000E+00 0.  1.
        -13    1    3    3    0    0 -0.30145913886E+02  0.52630249777E+02  0.43128156560E+01  0.60805589336E+02  0.00000000000E+00 0. -1.
         13    1    3    3    0    0  0.69867522215E+01 -0.22324933015E+02  0.38426974385E+02  0.44987217086E+02  0.00000000000E+00 0.  1.
          2    1    1    2  501    0  0.84399991307E+01 -0.36964659459E+02 -0.46920309792E+02  0.60325244344E+02  0.00000000000E+00 0. -1.
<scales pt_clust_5="13000.00000" pt_clust_6="13000.00000" pt_clust_7="13000.00000" pt_clust_8="13000.00000" pt_clust_9="37.91595"></scales>
<clustering>
<clus scale="   37.916">  2  9  1 -1</clus>
<clus scale="   88.942">  7  8 -1 -1</clus>
<clus scale="   91.745">  5  6 -1 -1</clus>
<clus scale="   93.274">  1  7  2 -1</clus>
<clus scale="   37.916">  2  5  1 -1</clus>
</clustering>
</event>
<event>
 9    1  0.3231311E-005  0.1040669E+03  0.7546771E-02  0.1276103E+00
          2   -1    0    0  502    0 -0.00000000000E+00  0.00000000000E+00  0.42754803082E+03  0.42754803082E+03  0.00000000000E+00 0. -1.
         21   -1    0    0  501  502  0.00000000000E+00 -0.00000000000E+00 -0.80765357262E+02  0.80765357262E+02  0.00000000000E+00 0.  1.
         23    2    1    2    0    0  0.39349088223E+02  0.40821455859E+01  0.31395904444E+03  0.32981338015E+03  0.92960042434E+02 0.  0.
         23    2    1    2    0    0 -0.79116911442E+02  0.18631827532E+01  0.59916202295E+02  0.13001460586E+03  0.83969573731E+02 0.  0.
        -11    1    4    4    0    0 -0.38197073527E+02 -0.13478033170E+02 -0.15074598182E+02  0.43219409002E+02  0.00000000000E+00 0.  1.
         11    1    4    4    0    0 -0.40919837915E+02  0.15341215923E+02  0.74990800476E+02  0.86795196855E+02  0.00000000000E+00 0. -1.
        -11    1    3    3    0    0  0.56802207683E+02  0.32269769862E+02  0.24058396139E+03  0.24929595127E+03  0.00000000000E+00 0. -1.
         11    1    3    3    0    0 -0.17453119460E+02 -0.28187624276E+02  0.73375083051E+02  0.80517428883E+02  0.00000000000E+00 0.  1.
          2    1    1    2  501    0  0.39767823219E+02 -0.59453283391E+01 -0.27092573174E+02  0.48485402070E+02  0.00000000000E+00 0. -1.
<scales pt_clust_5="13000.00000" pt_clust_6="13000.00000" pt_clust_7="13000.00000" pt_clust_8="13000.00000" pt_clust_9="40.20978"></scales>
<clustering>
<clus scale="   40.210">  2  9  1 -1</clus>
<clus scale="   83.970">  5  6 -1 -1</clus>
<clus scale="   92.960">  7  8 -1 -1</clus>
<clus scale="   96.121">  2  5  1 -1</clus>
<clus scale="   40.210">  2  5  1 -1</clus>
</clustering>
</event>
<event>
 9    1  0.3231311E-005  0.1142081E+03  0.7546771E-02  0.1253031E+00
          2   -1    0    0  502    0 -0.00000000000E+00  0.00000000000E+00  0.17313931592E+03  0.17313931592E+03  0.00000000000E+00 0. -1.
         21   -1    0    0  501  502  0.00000000000E+00 -0.00000000000E+00 -0.13490561748E+03  0.13490561748E+03  0.00000000000E+00 0. -1.
         23    2    1    2    0    0 -0.61879115550E+02  0.70468706926E+02  0.61983435483E+02  0.14482554129E+03  0.91310610217E+02 0.  0.
         23    2    1    2    0    0  0.23165985235E+02 -0.34073904614E+02  0.96134106638E+01  0.10047875361E+03  0.91136537213E+02 0.  0.
        -11    1    4    4    0    0  0.28676999563E+02  0.18862592676E+02 -0.19844131183E+02  0.39647916071E+02  0.00000000000E+00 0. -1.
         11    1    4    4    0    0 -0.55110143280E+01 -0.52936497290E+02  0.29457541847E+02  0.60830837541E+02  0.00000000000E+00 0.  1.
        -11    1    3    3    0    0 -0.13231140061E+02  0.47903252951E+02 -0.14176731913E+02  0.51679439223E+02  0.00000000000E+00 0.  1.
         11    1    3    3    0    0 -0.48647975489E+02  0.22565453975E+02  0.76160167397E+02  0.93146102066E+02  0.00000000000E+00 0. -1.
          2    1    1    2  501    0  0.38713130314E+02 -0.36394802312E+02 -0.33363147712E+02  0.62740638500E+02  0.00000000000E+00 0. -1.
<scales pt_clust_5="13000.00000" pt_clust_6="13000.00000" pt_clust_7="13000.00000" pt_clust_8="13000.00000" pt_clust_9="53.13462"></scales>
<clustering>
<clus scale="   53.135">  2  9  1 -1</clus>
<clus scale="   91.137">  5  6 -1 -1</clus>
<clus scale="   91.311">  7  8 -1 -1</clus>
<clus scale="  114.069">  2  5  1 -1</clus>
<clus scale="   53.135">  2  5  1 -1</clus>
</clustering>
</event>
<event>
 9    1  0.3231311E-005  0.1077674E+03  0.7546771E-02  0.1265257E+00
         21   -1    0    0  501  502  0.00000000000E+00  0.00000000000E+00  0.84821991555E+03  0.84821991555E+03  0.00000000000E+00 0. -1.
          2   -1    0    0  502    0 -0.00000000000E+00 -0.00000000000E+00 -0.11342969654E+03  0.11342969654E+03  0.00000000000E+00 0. -1.
         23    2    1    2    0    0  0.57088208370E+02 -0.10530777413E+02 -0.49018103144E+02  0.11869897492E+03  0.91196005416E+02 0.  0.
         23    2    1    2    0    0 -0.45818006525E+02 -0.83945860333E+02  0.14363800842E+03  0.19574828618E+03  0.92408424361E+02 0.  0.
        -11    1    3    3    0    0  0.68576105495E+02  0.13128908921E+02 -0.58142177368E+02  0.90860130329E+02  0.00000000000E+00 0. -1.
         11    1    3    3    0    0 -0.11487897125E+02 -0.23659686334E+02  0.91240742240E+01  0.27838844592E+02  0.00000000000E+00 0.  1.
        -13    1    4    4    0    0 -0.68040265094E+02 -0.86147175149E+02  0.12719848670E+03  0.16801865515E+03  0.00000000000E+00 0. -1.
         13    1    4    4    0    0  0.22222258570E+02  0.22013148164E+01  0.16439521715E+02  0.27729631030E+02  0.00000000000E+00 0.  1.
          2    1    1    2  501    0 -0.11270201845E+02  0.94476637746E+02  0.64017031373E+03  0.64720235098E+03  0.00000000000E+00 0. -1.
<scales pt_clust_5="13000.00000" pt_clust_6="13000.00000" pt_clust_7="13000.00000" pt_clust_8="13000.00000" pt_clust_9="95.14648"></scales>
<clustering>
<clus scale="   91.196">  5  6 -1 -1</clus>
<clus scale="   92.408">  7  8 -1 -1</clus>
<clus scale="   95.146">  1  9  2 -1</clus>
<clus scale="  106.730">  2  5  1 -1</clus>
<clus scale="   95.146">  1  5  2 -1</clus>
</clustering>
</event>
<event>
 9    1  0.3231311E-005  0.1256040E+03  0.7546771E-02  0.1234713E+00
          1   -1    0    0  502    0 -0.00000000000E+00  0.00000000000E+00  0.64459582468E+03  0.64459582468E+03  0.00000000000E+00 0. -1.
         21   -1    0    0  501  502  0.00000000000E+00 -0.00000000000E+00 -0.30745537898E+02  0.30745537898E+02  0.00000000000E+00 0.  1.
         23    2    1    2    0    0 -0.15162567421E+02 -0.94761742747E+02  0.31805512680E+03  0.34442143841E+03  0.90870084247E+02 0.  0.
         23    2    1    2    0    0 -0.39070405437E+01  0.72511026520E+02  0.21907248062E+03  0.24879128210E+03  0.92904447414E+02 0.  0.
        -11    1    4    4    0    0  0.15764794407E+02 -0.14466616773E+02  0.85863687521E+02  0.88489460266E+02  0.00000000000E+00 0. -1.
         11    1    4    4    0    0 -0.19671834951E+02  0.86977643293E+02  0.13320879310E+03  0.16030182183E+03  0.00000000000E+00 0.  1.
        -13    1    3    3    0    0 -0.34194356493E+02 -0.10481132656E+03  0.27530287217E+03  0.29655748113E+03  0.00000000000E+00 0.  1.
         13    1    3    3    0    0  0.19031789071E+02  0.10049583810E+02  0.42752254628E+02  0.47863957273E+02  0.00000000000E+00 0. -1.
          1    1    1    2  501    0  0.19069607965E+02  0.22250716227E+02  0.76722679357E+02  0.82128642070E+02  0.00000000000E+00 0. -1.
<scales pt_clust_5="13000.00000" pt_clust_6="13000.00000" pt_clust_7="13000.00000" pt_clust_8="13000.00000" pt_clust_9="29.30435"></scales>
<clustering>
<clus scale="   29.304">  2  9  1 -1</clus>
<clus scale="   90.870">  7  8 -1 -1</clus>
<clus scale="   92.904">  5  6 -1 -1</clus>
<clus scale="  124.107">  1  7  2 -1</clus>
<clus scale="   29.304">  2  5  1 -1</clus>
</clustering>
</event>
<event>
 9    1  0.3231311E-005  0.1062387E+03  0.7546771E-02  0.1269741E+00
         21   -1    0    0  501  502  0.00000000000E+00  0.00000000000E+00  0.12423870144E+03  0.12423870144E+03  0.00000000000E+00 0. -1.
          2   -1    0    0  502    0 -0.00000000000E+00 -0.00000000000E+00 -0.13614880366E+03  0.13614880366E+03  0.00000000000E+00 0. -1.
         23    2    1    2    0    0 -0.42687639826E+02  0.26536938160E+02 -0.58422371754E+02  0.11895113311E+03  0.90607697611E+02 0.  0.
         23    2    1    2    0    0  0.64938972811E+02 -0.23407854461E+02  0.31778560749E+02  0.11456640439E+03  0.85735560017E+02 0.  0.
        -11    1    4    4    0    0  0.83045793249E+02 -0.32980798326E+02  0.28722725356E+02  0.93858040607E+02  0.00000000000E+00 0.  1.
         11    1    4    4    0    0 -0.18106820438E+02  0.95729438650E+01  0.30558353925E+01  0.20708363783E+02  0.00000000000E+00 0. -1.
        -13    1    3    3    0    0  0.62418439078E+01 -0.28911859756E+02 -0.18917415143E+02  0.35110181509E+02  0.00000000000E+00 0. -1.
         13    1    3    3    0    0 -0.48929483734E+02  0.55448797916E+02 -0.39504956612E+02  0.83840951603E+02  0.00000000000E+00 0.  1.
          2    1    1    2  501    0 -0.22251332985E+02 -0.31290836995E+01  0.14733708785E+02  0.26869967602E+02  0.00000000000E+00 0. -1.
<scales pt_clust_5="13000.00000" pt_clust_6="13000.00000" pt_clust_7="13000.00000" pt_clust_8="13000.00000" pt_clust_9="22.47027"></scales>
<clustering>
<clus scale="   22.470">  1  9  2 -1</clus>
<clus scale="   85.736">  5  6 -1 -1</clus>
<clus scale="   90.608">  7  8 -1 -1</clus>
<clus scale="  102.115">  1  5  2 -1</clus>
<clus scale="   22.470">  1  5  2 -1</clus>
</clustering>
</event>
<event>
 9    1  0.3231311E-005  0.1040212E+03  0.7546771E-02  0.1276066E+00
         21   -1    0    0  501  502  0.00000000000E+00  0.00000000000E+00  0.83852605004E+02  0.83852605004E+02  0.00000000000E+00 0. -1.
          1   -1    0    0  502    0 -0.00000000000E+00 -0.00000000000E+00 -0.22136585246E+03  0.22136585246E+03  0.00000000000E+00 0. -1.
         23    2    1    2    0    0 -0.15025230166E+02  0.35140118688E+02 -0.10564017007E+03  0.14517201551E+03  0.91948263011E+02 0.  0.
         23    2    1    2    0    0  0.16665010096E+02 -0.79405414100E+01 -0.62262953502E+02  0.11922916067E+03  0.99990712644E+02 0.  0.
        -11    1    3    3    0    0 -0.39074909669E+02  0.19299473253E+01 -0.89305187513E+01  0.40128885202E+02  0.00000000000E+00 0.  1.
         11    1    3    3    0    0  0.24049679503E+02  0.33210171363E+02 -0.96709651317E+02  0.10504313030E+03  0.00000000000E+00 0. -1.
        -11    1    4    4    0    0  0.47803600257E+02 -0.31250386213E+02 -0.17082861121E+02  0.59612037208E+02  0.00000000000E+00 0. -1.
         11    1    4    4    0    0 -0.31138590161E+02  0.23309844803E+02 -0.45180092381E+02  0.59617123459E+02  0.00000000000E+00 0.  1.
          1    1    1    2  501    0 -0.16397799296E+01 -0.27199577278E+02  0.30389876110E+02  0.40817281295E+02  0.00000000000E+00 0. -1.
<scales pt_clust_5="13000.00000" pt_clust_6="13000.00000" pt_clust_7="13000.00000" pt_clust_8="13000.00000" pt_clust_9="27.24896"></scales>
<clustering>
<clus scale="   27.249">  1  9  2 -1</clus>
<clus scale="   91.948">  5  6 -1 -1</clus>
<clus scale="   96.316">  2  5  1 -1</clus>
<clus scale="   99.991">  7  8 -1 -1</clus>
<clus scale="   27.249">  1  5  2 -1</clus>
</clustering>
</event>
<event>
 9    1  0.3231311E-005  0.1187855E+03  0.7546771E-02  0.1247440E+00
          1   -1    0    0  502    0 -0.00000000000E+00  0.00000000000E+00  0.66144989873E+03  0.66144989873E+03  0.00000000000E+00 0. -1.
         21   -1    0    0  501  502  0.00000000000E+00 -0.00000000000E+00 -0.44882837724E+02  0.44882837724E+02  0.00000000000E+00 0. -1.
         23    2    1    2    0    0 -0.36373502921E+02 -0.55554999176E+02  0.32739946791E+03  0.34886724882E+03  0.10054131518E+03 0.  0.
         23    2    1    2    0    0  0.54910055273E+02  0.32130033020E+02  0.30370588078E+03  0.32424358791E+03  0.94070128569E+02 0.  0.
        -13    1    3    3    0    0  0.86243798146E+01  0.25343242212E+02  0.55021348966E+02  0.61188305215E+02  0.00000000000E+00 0. -1.
         13    1    3    3    0    0 -0.44997882735E+02 -0.80898241388E+02  0.27237811895E+03  0.28767894360E+03  0.00000000000E+00 0.  1.
        -13    1    4    4    0    0  0.18382476593E+02 -0.24180881845E+02  0.31007045130E+02  0.43405844539E+02  0.00000000000E+00 0.  1.
         13    1    4    4    0    0  0.36527578680E+02  0.56310914865E+02  0.27269883565E+03  0.28083774337E+03  0.00000000000E+00 0. -1.
          1    1    1    2  501    0 -0.18536552352E+02  0.23424966156E+02 -0.14538287689E+02  0.33221899727E+02  0.00000000000E+00 0. -1.
<scales pt_clust_5="13000.00000" pt_clust_6="13000.00000" pt_clust_7="13000.00000" pt_clust_8="13000.00000" pt_clust_9="29.87194"></scales>
<clustering>
<clus scale="   29.872">  2  9  1 -1</clus>
<clus scale="   94.070">  7  8 -1 -1</clus>
<clus scale="  100.541">  5  6 -1 -1</clus>
<clus scale="  113.361">  2  7  1 -1</clus>
<clus scale="   29.872">  2  5  1 -1</clus>
</clustering>
</event>
<event>
 9    1  0.3231311E-005  0.1040894E+03  0.7546771E-02  0.1274916E+00
         21   -1    0    0  501  502  0.00000000000E+00  0.00000000000E+00  0.14038627843E+03  0.14038627843E+03  0.00000000000E+00 0.  1.
         -3   -1    0    0    0  501 -0.00000000000E+00 -0.00000000000E+00 -0.17188622562E+03  0.17188622562E+03  0.00000000000E+00 0.  1.
         23    2    1    2    0    0  0.11221853846E+02 -0.26749773794E+02 -0.89079559768E+02  0.13119679908E+03  0.91847437190E+02 0.  0.
         23    2    1    2    0    0 -0.31792068248E+02  0.39213931769E+02 -0.86424878792E+01  0.11062107032E+03  0.98050296040E+02 0.  0.
        -11    1    4    4    0    0 -0.16809715658E+02  0.52910957933E+02 -0.43333811428E+02  0.70426949549E+02  0.00000000000E+00 0.  1.
         11    1    4    4    0    0 -0.14982352590E+02 -0.13697026165E+02  0.34691323549E+02  0.40194120770E+02  0.00000000000E+00 0. -1.
        -11    1    3    3    0    0  0.29069429067E+02 -0.51890442269E+02 -0.78736193990E+02  0.98676430566E+02  0.00000000000E+00 0.  1.
         11    1    3    3    0    0 -0.17847575221E+02  0.25140668475E+02 -0.10343365779E+02  0.32520368514E+02  0.00000000000E+00 0. -1.
         -3    1    1    2    0  502  0.20570214402E+02 -0.12464157974E+02  0.66222100458E+02  0.70454634649E+02  0.00000000000E+00 0.  1.
<scales pt_clust_5="13000.00000" pt_clust_6="13000.00000" pt_clust_7="13000.00000" pt_clust_8="13000.00000" pt_clust_9="24.05180"></scales>
<clustering>
<clus scale="   24.052">  1  9  2 -1</clus>
<clus scale="   91.847">  7  8 -1 -1</clus>
<clus scale="   98.050">  5  6 -1 -1</clus>
<clus scale="   98.268">  2  7  1 -1</clus>
<clus scale="   24.052">  1  5  2 -1</clus>
</clustering>
</event>
<event>
 9    1  0.3231311E-005  0.1715483E+03  0.7546771E-02  0.1177948E+00
          4   -1    0    0  502    0 -0.00000000000E+00  0.00000000000E+00  0.21909287432E+03  0.21909287432E+03  0.00000000000E+00 0. -1.
         21   -1    0    0  501  502  0.00000000000E+00 -0.00000000000E+00 -0.22920909860E+03  0.22920909860E+03  0.00000000000E+00 0.  1.
         23    2    1    2    0    0  0.85299855837E+02  0.12846787382E+03  0.47113619664E+02  0.18023107278E+03  0.80520099536E+02 0.  0.
         23    2    1    2    0    0  0.25131727394E+01 -0.14474481919E+03 -0.30034521660E+02  0.17471324114E+03  0.93087407416E+02 0.  0.
        -11    1    3    3    0    0  0.39234442812E+02  0.43676432768E+02  0.58723262841E+02  0.83038508421E+02  0.00000000000E+00 0. -1.
         11    1    3    3    0    0  0.46065413025E+02  0.84791441049E+02 -0.11609643176E+02  0.97192564360E+02  0.00000000000E+00 0.  1.
        -11    1    4    4    0    0 -0.37933066711E+02 -0.30336718702E+02  0.38493494280E+01  0.48724239786E+02  0.00000000000E+00 0. -1.
         11    1    4    4    0    0  0.40446239450E+02 -0.11440810048E+03 -0.33883871088E+02  0.12598900135E+03  0.00000000000E+00 0.  1.
          4    1    1    2  501    0 -0.87813028576E+02  0.16276945369E+02 -0.27195322284E+02  0.93357658992E+02  0.00000000000E+00 0. -1.
<scales pt_clust_5="13000.00000" pt_clust_6="13000.00000" pt_clust_7="13000.00000" pt_clust_8="13000.00000" pt_clust_9="89.30883"></scales>
<clustering>
<clus scale="   80.520">  5  6 -1 -1</clus>
<clus scale="   89.309">  2  9  1 -1</clus>
<clus scale="   93.087">  7  8 -1 -1</clus>
<clus scale="  165.067">  1  5  2 -1</clus>
<clus scale="   89.309">  2  5  1 -1</clus>
</clustering>
</event>
<event>
 9    1  0.3231311E-005  0.9262506E+02  0.7546771E-02  0.1298396E+00
         21   -1    0    0  501  502  0.00000000000E+00  0.00000000000E+00  0.85789543506E+02  0.85789543506E+02  0.00000000000E+00 0.  1.
          1   -1    0    0  502    0 -0.00000000000E+00 -0.00000000000E+00 -0.57627734298E+03  0.57627734298E+03  0.00000000000E+00 0. -1.
         23    2    1    2    0    0 -0.86654595008E+01 -0.14503730952E+02 -0.48733375973E+03  0.49552155178E+03  0.88102023266E+02 0.  0.
         23    2    1    2    0    0 -0.33485561645E+02  0.26593140760E+02  0.36823599290E+02  0.10720669607E+03  0.91152730308E+02 0.  0.
        -13    1    4    4    0    0  0.90961443505E+01  0.29858673682E+02 -0.19287662483E+02  0.36691881393E+02  0.00000000000E+00 0. -1.
         13    1    4    4    0    0 -0.42581705995E+02 -0.32655329218E+01  0.56111261772E+02  0.70514814673E+02  0.00000000000E+00 0.  1.
        -13    1    3    3    0    0 -0.14788236760E+02  0.35768732359E+02 -0.23329063322E+03  0.23647962641E+03  0.00000000000E+00 0.  1.
         13    1    3    3    0    0  0.61227772588E+01 -0.50272463311E+02 -0.25404312652E+03  0.25904192537E+03  0.00000000000E+00 0. -1.
          1    1    1    2  501    0  0.42151021146E+02 -0.12089409809E+02 -0.39977639032E+02  0.59338638640E+02  0.00000000000E+00 0. -1.
<scales pt_clust_5="13000.00000" pt_clust_6="13000.00000" pt_clust_7="13000.00000" pt_clust_8="13000.00000" pt_clust_9="43.85046"></scales>
<clustering>
<clus scale="   43.850">  1  9  2 -1</clus>
<clus scale="   88.102">  7  8 -1 -1</clus>
<clus scale="   89.624">  2  7  1 -1</clus>
<clus scale="   91.153">  5  6 -1 -1</clus>
<clus scale="   43.850">  1  5  2 -1</clus>
</clustering>
</event>
<event>
 9    1  0.3231311E-005  0.1231676E+03  0.7546771E-02  0.1238142E+00
         21   -1    0    0  501  502  0.00000000000E+00  0.00000000000E+00  0.56558403980E+02  0.56558403980E+02  0.00000000000E+00 0. -1.
          2   -1    0    0  502    0 -0.00000000000E+00 -0.00000000000E+00 -0.78001871007E+03  0.78001871007E+03  0.00000000000E+00 0. -1.
         23    2    1    2    0    0 -0.10224948281E+03  0.27955583233E+02 -0.50767545092E+03  0.52682149941E+03  0.92574604553E+02 0.  0.
         23    2    1    2    0    0  0.52737223388E+02  0.41887461792E+01 -0.22616688107E+03  0.24981807876E+03  0.91972028671E+02 0.  0.
        -13    1    4    4    0    0  0.42263916282E+02  0.46079816509E+02 -0.14421023299E+03  0.15718199454E+03  0.00000000000E+00 0.  1.
         13    1    4    4    0    0  0.10473307106E+02 -0.41891070330E+02 -0.81956648078E+02  0.92636084219E+02  0.00000000000E+00 0. -1.
        -13    1    3    3    0    0 -0.38418934357E+02  0.44393162706E+02 -0.12010441960E+03  0.13368559765E+03  0.00000000000E+00 0.  1.
         13    1    3    3    0    0 -0.63830548450E+02 -0.16437579473E+02 -0.38757103132E+03  0.39313590176E+03  0.00000000000E+00 0. -1.
          2    1    1    2  501    0  0.49512259419E+02 -0.32144329413E+02  0.10382025893E+02  0.59937535884E+02  0.00000000000E+00 0. -1.
<scales pt_clust_5="13000.00000" pt_clust_6="13000.00000" pt_clust_7="13000.00000" pt_clust_8="13000.00000" pt_clust_9="59.03153"></scales>
<clustering>
<clus scale="   59.032">  1  9  2 -1</clus>
<clus scale="   91.972">  5  6 -1 -1</clus>
<clus scale="   92.575">  7  8 -1 -1</clus>
<clus scale="  122.715">  1  5  2 -1</clus>
<clus scale="   59.032">  1  5  2 -1</clus>
</clustering>
</event>
<event>
 9    1  0.3231311E-005  0.9818504E+02  0.7546771E-02  0.1284238E+00
          2   -1    0    0  502    0 -0.00000000000E+00  0.00000000000E+00  0.79260653896E+03  0.79260653896E+03  0.00000000000E+00 0. -1.
         21   -1    0    0  501  502  0.00000000000E+00 -0.00000000000E+00 -0.18537939910E+02  0.18537939910E+02  0.00000000000E+00 0.  1.
         23    2    1    2    0    0 -0.36938576560E+02 -0.13121002867E+02  0.48155468814E+03  0.49171769485E+03  0.91404346725E+02 0.  0.
         23    2    1    2    0    0  0.33383439458E+02 -0.12295365018E+02  0.26108975043E+03  0.27885451987E+03  0.91248865437E+02 0.  0.
        -13    1    3    3    0    0 -0.17208817990E+02  0.39373025391E+02  0.18715402080E+03  0.19202345181E+03  0.00000000000E+00 0. -1.
         13    1    3    3    0    0 -0.19729758569E+02 -0.52494028258E+02  0.29440066734E+03  0.29969424304E+03  0.00000000000E+00 0.  1.
        -13    1    4    4    0    0  0.61518746036E+02  0.92993656074E+01  0.17575777067E+03  0.18644524201E+03  0.00000000000E+00 0. -1.
         13    1    4    4    0    0 -0.28135306577E+02 -0.21594730625E+02  0.85331979756E+02  0.92409277868E+02  0.00000000000E+00 0.  1.
          2    1    1    2  501    0  0.35551371014E+01  0.25416367885E+02  0.31424160476E+02  0.40572264145E+02  0.00000000000E+00 0. -1.
<scales pt_clust_5="13000.00000" pt_clust_6="13000.00000" pt_clust_7="13000.00000" pt_clust_8="13000.00000" pt_clust_9="25.66380"></scales>
<clustering>
<clus scale="   25.664">  2  9  1 -1</clus>
<clus scale="   91.249">  7  8 -1 -1</clus>
<clus scale="   91.404">  5  6 -1 -1</clus>
<clus scale="   98.040">  2  7  1 -1</clus>
<clus scale="   25.664">  2  5  1 -1</clus>
</clustering>
</event>
<event>
 9    1  0.3231311E-005  0.9505146E+02  0.7546771E-02  0.1291852E+00
         -1   -1    0    0    0  501 -0.00000000000E+00  0.00000000000E+00  0.18128187283E+03  0.18128187283E+03  0.00000000000E+00 0.  1.
         21   -1    0    0  501  502  0.00000000000E+00 -0.00000000000E+00 -0.13854998659E+03  0.13854998659E+03  0.00000000000E+00 0. -1.
         23    2    1    2    0    0 -0.18595628535E+00  0.31580934898E+02  0.12878503204E+03  0.16054584210E+03  0.90509628818E+02 0.  0.
         23    2    1    2    0    0 -0.22020377247E+01 -0.10281125730E+02 -0.99535752688E+02  0.13396477971E+03  0.89042942580E+02 0.  0.
        -11    1    4    4    0    0 -0.35142483062E+02  0.96959347156E+01 -0.85526400602E+02  0.92971879973E+02  0.00000000000E+00 0. -1.
         11    1    4    4    0    0  0.32940445337E+02 -0.19977060446E+02 -0.14009352086E+02  0.40992899738E+02  0.00000000000E+00 0.  1.
        -13    1    3    3    0    0  0.30464658805E+02  0.46713294437E+02  0.10503438285E+03  0.11892202863E+03  0.00000000000E+00 0.  1.
         13    1    3    3    0    0 -0.30650615091E+02 -0.15132359539E+02  0.23750649196E+02  0.41623813471E+02  0.00000000000E+00 0. -1.
         -1    1    1    2    0  502  0.23879940100E+01 -0.21299809168E+02  0.13482606883E+02  0.25321237615E+02  0.00000000000E+00 0.  1.
<scales pt_clust_5="13000.00000" pt_clust_6="13000.00000" pt_clust_7="13000.00000" pt_clust_8="13000.00000" pt_clust_9="21.43326"></scales>
<clustering>
<clus scale="   21.433">  2  9  1 -1</clus>
<clus scale="   89.043">  5  6 -1 -1</clus>
<clus scale="   90.510">  7  8 -1 -1</clus>
<clus scale="   93.656">  2  5  1 -1</clus>
<clus scale="   21.433">  2  5  1 -1</clus>
</clustering>
</event>
<event>
 9    1  0.3231311E-005  0.1081426E+03  0.7546771E-02  0.1264437E+00
          1   -1    0    0  502    0 -0.00000000000E+00  0.00000000000E+00  0.46941225723E+03  0.46941225723E+03  0.00000000000E+00 0. -1.
         21   -1    0    0  501  502  0.00000000000E+00 -0.00000000000E+00 -0.35171085971E+03  0.35171085971E+03  0.00000000000E+00 0. -1.
         23    2    1    2    0    0 -0.53090958596E+02 -0.28516310996E+02  0.44193716620E+03  0.45506193147E+03  0.90227893297E+02 0.  0.
         23    2    1    2    0    0  0.10746715281E+01 -0.24816663641E+02 -0.19978787494E+03  0.22101850706E+03  0.91197389081E+02 0.  0.
        -11    1    4    4    0    0 -0.47860838590E+01 -0.52679165829E+02 -0.17643684219E+03  0.18419544075E+03  0.00000000000E+00 0. -1.
         11    1    4    4    0    0  0.58607553872E+01  0.27862502188E+02 -0.23351032757E+02  0.36823066313E+02  0.00000000000E+00 0.  1.
        -11    1    3    3    0    0  0.19956038808E+02 -0.16034550133E+02  0.49913748675E+02  0.56095744845E+02  0.00000000000E+00 0.  1.
         11    1    3    3    0    0 -0.73046997404E+02 -0.12481760863E+02  0.39202341753E+03  0.39896618663E+03  0.00000000000E+00 0. -1.
          1    1    1    2  501    0  0.52016287068E+02  0.53332974637E+02 -0.12444789374E+03  0.14504267841E+03  0.00000000000E+00 0. -1.
<scales pt_clust_5="13000.00000" pt_clust_6="13000.00000" pt_clust_7="13000.00000" pt_clust_8="13000.00000" pt_clust_9="74.49900"></scales>
<clustering>
<clus scale="   74.499">  2  9  1 -1</clus>
<clus scale="   90.228">  7  8 -1 -1</clus>
<clus scale="   91.197">  5  6 -1 -1</clus>
<clus scale="  107.326">  1  7  2 -1</clus>
<clus scale="   74.499">  2  5  1 -1</clus>
</clustering>
</event>
<event>
 9    1  0.3231311E-005  0.9150992E+02  0.7546771E-02  0.1301768E+00
         -2   -1    0    0    0  501 -0.00000000000E+00  0.00000000000E+00  0.18217921053E+03  0.18217921053E+03  0.00000000000E+00 0.  1.
         21   -1    0    0  501  502  0.00000000000E+00 -0.00000000000E+00 -0.75215794251E+02  0.75215794251E+02  0.00000000000E+00 0.  1.
         23    2    1    2    0    0 -0.24591688939E+02 -0.40011309628E+01  0.96399319631E+02  0.13139224031E+03  0.85734075922E+02 0.  0.
         23    2    1    2    0    0 -0.56800391714E+01 -0.38019205745E+01 -0.63451319473E+01  0.90461420269E+02  0.89979388821E+02 0.  0.
        -11    1    3    3    0    0  0.10342434734E+02  0.29927939827E+02  0.11827530383E+02  0.33801449872E+02  0.00000000000E+00 0. -1.
         11    1    3    3    0    0 -0.34934123672E+02 -0.33929070790E+02  0.84571789248E+02  0.97590790437E+02  0.00000000000E+00 0.  1.
        -11    1    4    4    0    0  0.10902294202E+02  0.28565622720E+02 -0.33289167527E+02  0.45199817421E+02  0.00000000000E+00 0.  1.
         11    1    4    4    0    0 -0.16582333374E+02 -0.32367543295E+02  0.26944035579E+02  0.45261602848E+02  0.00000000000E+00 0. -1.
         -2    1    1    2    0  502  0.30271728110E+02  0.78030515372E+01  0.16909228595E+02  0.35541344203E+02  0.00000000000E+00 0.  1.
<scales pt_clust_5="13000.00000" pt_clust_6="13000.00000" pt_clust_7="13000.00000" pt_clust_8="13000.00000" pt_clust_9="31.26126"></scales>
<clustering>
<clus scale="   31.261">  2  9  1 -1</clus>
<clus scale="   85.734">  5  6 -1 -1</clus>
<clus scale="   87.339">  1  5  2 -1</clus>
<clus scale="   89.979">  7  8 -1 -1</clus>
<clus scale="   31.261">  2  5  1 -1</clus>
</clustering>
</event>
<event>
 9    1  0.3231311E-005  0.9243302E+02  0.7546771E-02  0.1299585E+00
         21   -1    0    0  501  502  0.00000000000E+00  0.00000000000E+00  0.10474142906E+03  0.10474142906E+03  0.00000000000E+00 0.  1.
          2   -1    0    0  502    0 -0.00000000000E+00 -0.00000000000E+00 -0.25715129778E+03  0.25715129778E+03  0.00000000000E+00 0.  1.
         23    2    1    2    0    0 -0.10960996600E+02  0.99366266683E+01 -0.13571314531E+03  0.16381889718E+03  0.90552157713E+02 0.  0.
         23    2    1    2    0    0  0.29733814345E+02  0.17272242371E+02 -0.82643400822E+02  0.12430591319E+03  0.86253105927E+02 0.  0.
        -11    1    4    4    0    0  0.44213735837E+02 -0.22688525530E+02 -0.37145374866E+02  0.62043553261E+02  0.00000000000E+00 0.  1.
         11    1    4    4    0    0 -0.14479921492E+02  0.39960767901E+02 -0.45498025956E+02  0.62262359926E+02  0.00000000000E+00 0. -1.
        -11    1    3    3    0    0 -0.22589795382E+02 -0.22545116043E+02 -0.99814771506E+01  0.33439662064E+02  0.00000000000E+00 0. -1.
         11    1    3    3    0    0  0.11628798782E+02  0.32481742711E+02 -0.12573166816E+03  0.13037923511E+03  0.00000000000E+00 0.  1.
          2    1    1    2  501    0 -0.18772817745E+02 -0.27208869039E+02  0.65946677408E+02  0.73767916479E+02  0.00000000000E+00 0.  1.
<scales pt_clust_5="13000.00000" pt_clust_6="13000.00000" pt_clust_7="13000.00000" pt_clust_8="13000.00000" pt_clust_9="33.05664"></scales>
<clustering>
<clus scale="   33.057">  1  9  2 -1</clus>
<clus scale="   86.253">  5  6 -1 -1</clus>
<clus scale="   88.226">  1  5  2 -1</clus>
<clus scale="   90.552">  7  8 -1 -1</clus>
<clus scale="   33.057">  1  5  2 -1</clus>
</clustering>
</event>
<event>
 9    1  0.3231311E-005  0.2028661E+03  0.7546771E-02  0.1175203E+00
         21   -1    0    0  501  502  0.00000000000E+00  0.00000000000E+00  0.52469594181E+02  0.52469594181E+02  0.00000000000E+00 0.  1.
         -4   -1    0    0    0  501 -0.00000000000E+00 -0.00000000000E+00 -0.11846344315E+04  0.11846344315E+04  0.00000000000E+00 0.  1.
         23    2    1    2    0    0 -0.50216861480E+02  0.13629462128E+02 -0.28943607898E+03  0.30830633708E+03  0.92585410564E+02 0.  0.
         23    2    1    2    0    0 -0.14994688747E+03  0.18523514827E+02 -0.50502025206E+03  0.53491144167E+03  0.90871369368E+02 0.  0.
        -11    1    4    4    0    0 -0.11139437416E+03  0.51675875758E+02 -0.31170478085E+03  0.33502085477E+03  0.00000000000E+00 0.  1.
         11    1    4    4    0    0 -0.38552513304E+02 -0.33152360931E+02 -0.19331547122E+03  0.19989058689E+03  0.00000000000E+00 0. -1.
        -11    1    3    3    0    0 -0.42322891962E+02  0.50283317977E+02 -0.21709940763E+03  0.22682987467E+03  0.00000000000E+00 0.  1.
         11    1    3    3    0    0 -0.78939695182E+01 -0.36653855849E+02 -0.72336671358E+02  0.81476462408E+02  0.00000000000E+00 0. -1.
         -4    1    1    2    0  502  0.20016374895E+03 -0.32152976955E+02 -0.33770850628E+03  0.39388624695E+03  0.00000000000E+00 0.  1.
<scales pt_clust_5="13000.00000" pt_clust_6="13000.00000" pt_clust_7="13000.00000" pt_clust_8="13000.00000" pt_clust_9="181.37542"></scales>
<clustering>
<clus scale="   90.871">  5  6 -1 -1</clus>
<clus scale="   92.585">  7  8 -1 -1</clus>
<clus scale="  106.205">  2  7  1 -1</clus>
<clus scale="  181.375">  1  9  2 -1</clus>
<clus scale="  181.375">  1  5  2 -1</clus>
</clustering>
</event>
<event>
 9    1  0.3231311E-005  0.1042410E+03  0.7546771E-02  0.1271911E+00
         21   -1    0    0  501  502  0.00000000000E+00  0.00000000000E+00  0.11327580285E+03  0.11327580285E+03  0.00000000000E+00 0.  1.
          1   -1    0    0  502    0 -0.00000000000E+00 -0.00000000000E+00 -0.37590258015E+03  0.37590258015E+03  0.00000000000E+00 0. -1.
         23    2    1    2    0    0 -0.73969823022E+01 -0.39307895694E+02 -0.16505219616E+03  0.19312111892E+03  0.91944075953E+02 0.  0.
         23    2    1    2    0    0 -0.73324402048E+02  0.45966579030E+02 -0.15242658516E+03  0.19823588452E+03  0.92597017902E+02 0.  0.
        -11    1    4    4    0    0 -0.25081690012E+02  0.66098629259E+02 -0.63221258993E+02  0.94842224523E+02  0.00000000000E+00 0. -1.
         11    1    4    4    0    0 -0.48242712036E+02 -0.20132050229E+02 -0.89205326169E+02  0.10339366000E+03  0.00000000000E+00 0.  1.
        -13    1    3    3    0    0  0.19705803457E+02 -0.54563699642E+02 -0.14484729561E+03  0.15603286530E+03  0.00000000000E+00 0. -1.
         13    1    3    3    0    0 -0.27102785759E+02  0.15255803948E+02 -0.20204900552E+02  0.37088253617E+02  0.00000000000E+00 0.  1.
          1    1    1    2  501    0  0.80721384350E+02 -0.66586833361E+01  0.54852004022E+02  0.97821379567E+02  0.00000000000E+00 0. -1.
<scales pt_clust_5="13000.00000" pt_clust_6="13000.00000" pt_clust_7="13000.00000" pt_clust_8="13000.00000" pt_clust_9="80.99556"></scales>
<clustering>
<clus scale="   80.996">  1  9  2 -1</clus>
<clus scale="   91.944">  7  8 -1 -1</clus>
<clus scale="   92.597">  5  6 -1 -1</clus>
<clus scale="  103.661">  2  7  1 -1</clus>
<clus scale="   80.996">  1  5  2 -1</clus>
</clustering>
</event>
<event>
 9    1  0.3231311E-005  0.1046338E+03  0.7546771E-02  0.1271254E+00
         21   -1    0    0  501  502  0.00000000000E+00  0.00000000000E+00  0.89746412715E+02  0.89746412715E+02  0.00000000000E+00 0. -1.
         -2   -1    0    0    0  501 -0.00000000000E+00 -0.00000000000E+00 -0.22162394998E+03  0.22162394998E+03  0.00000000000E+00 0.  1.
         23    2    1    2    0    0  0.58688957384E+01  0.39032245183E+02 -0.97668111996E+02  0.13898780135E+03  0.90667462318E+02 0.  0.
         23    2    1    2    0    0 -0.24801111110E+02 -0.65406771125E+02 -0.60890382851E+02  0.13035973546E+03  0.91612668797E+02 0.  0.
        -11    1    4    4    0    0  0.21151150620E+02  0.68552647902E+00  0.97147121233E+01  0.23285548109E+02  0.00000000000E+00 0. -1.
         11    1    4    4    0    0 -0.45952261729E+02 -0.66092297604E+02 -0.70605094974E+02  0.10707418735E+03  0.00000000000E+00 0.  1.
        -13    1    3    3    0    0  0.15627437334E+02 -0.17767110730E+02 -0.72202265096E+02  0.75980616649E+02  0.00000000000E+00 0.  1.
         13    1    3    3    0    0 -0.97585415955E+01  0.56799355913E+02 -0.25465846900E+02  0.63007184705E+02  0.00000000000E+00 0. -1.
         -2    1    1    2    0  502  0.18932215371E+02  0.26374525942E+02  0.26680957582E+02  0.42022825881E+02  0.00000000000E+00 0.  1.
<scales pt_clust_5="13000.00000" pt_clust_6="13000.00000" pt_clust_7="13000.00000" pt_clust_8="13000.00000" pt_clust_9="32.46605"></scales>
<clustering>
<clus scale="   32.466">  1  9  2 -1</clus>
<clus scale="   90.667">  7  8 -1 -1</clus>
<clus scale="   91.613">  5  6 -1 -1</clus>
<clus scale="  103.807">  2  7  1 -1</clus>
<clus scale="   32.466">  1  5  2 -1</clus>
</clustering>
</event>
<event>
 9    1  0.3231311E-005  0.1066709E+03  0.7546771E-02  0.1270384E+00
         21   -1    0    0  501  502  0.00000000000E+00  0.00000000000E+00  0.90956495312E+02  0.90956495312E+02  0.00000000000E+00 0.  1.
          2   -1    0    0  502    0 -0.00000000000E+00 -0.00000000000E+00 -0.39323803717E+03  0.39323803717E+03  0.00000000000E+00 0. -1.
         23    2    1    2    0    0 -0.68919701685E+02 -0.14704440651E+02 -0.23947706551E+03  0.26522498052E+03  0.89604015158E+02 0.  0.
         23    2    1    2    0    0 -0.14201806293E+01  0.11278574587E+02 -0.99397251530E+02  0.13960667147E+03  0.97370354579E+02 0.  0.
        -11    1    3    3    0    0 -0.82172325885E+02  0.92161182279E+01 -0.20614673516E+03  0.22211191862E+03  0.00000000000E+00 0.  1.
         11    1    3    3    0    0  0.13252624199E+02 -0.23920558879E+02 -0.33330330354E+02  0.43113061904E+02  0.00000000000E+00 0. -1.
        -13    1    4    4    0    0 -0.45876030206E+01 -0.20721742652E+02 -0.10486264226E+03  0.10698883335E+03  0.00000000000E+00 0. -1.
         13    1    4    4    0    0  0.31674223914E+01  0.32000317239E+02  0.54653907310E+01  0.32617838123E+02  0.00000000000E+00 0.  1.
          2    1    1    2  501    0  0.70339882315E+02  0.34258660643E+01  0.36592775187E+02  0.79362880481E+02  0.00000000000E+00 0. -1.
<scales pt_clust_5="13000.00000" pt_clust_6="13000.00000" pt_clust_7="13000.00000" pt_clust_8="13000.00000" pt_clust_9="70.42326"></scales>
<clustering>
<clus scale="   70.423">  1  9  2 -1</clus>
<clus scale="   89.604">  5  6 -1 -1</clus>
<clus scale="   97.370">  7  8 -1 -1</clus>
<clus scale="   99.632">  2  5  1 -1</clus>
<clus scale="   70.423">  1  5  2 -1</clus>
</clustering>
</event>
<event>
 9    1  0.3231311E-005  0.1460095E+03  0.7546771E-02  0.1206654E+00
          3   -1    0    0  502    0 -0.00000000000E+00  0.00000000000E+00  0.26004325793E+03  0.26004325793E+03  0.00000000000E+00 0. -1.
         21   -1    0    0  501  502  0.00000000000E+00 -0.00000000000E+00 -0.25051752683E+03  0.25051752683E+03  0.00000000000E+00 0. -1.
         23    2    1    2    0    0  0.52802567076E+02  0.70640527814E+02  0.82943229441E+02  0.15241166437E+03  0.92582616441E+02 0.  0.
         23    2    1    2    0    0 -0.13674016168E+03 -0.16010672649E+03 -0.42190387932E+02  0.23155981232E+03  0.86648036147E+02 0.  0.
        -11    1    4    4    0    0 -0.50078331335E+02 -0.18827703753E+02 -0.38257991415E+02  0.65772301199E+02  0.00000000000E+00 0.  1.
         11    1    4    4    0    0 -0.86661830341E+02 -0.14127902273E+03 -0.39323965173E+01  0.16578751113E+03  0.00000000000E+00 0. -1.
        -13    1    3    3    0    0 -0.18174343339E+02  0.21620022191E+02 -0.56031158443E+01  0.28794565850E+02  0.00000000000E+00 0.  1.
         13    1    3    3    0    0  0.70976910415E+02  0.49020505623E+02  0.88546345286E+02  0.12361709852E+03  0.00000000000E+00 0. -1.
          3    1    1    2  501    0  0.83937594600E+02  0.89466198673E+02 -0.31227110401E+02  0.12658930806E+03  0.00000000000E+00 0. -1.
<scales pt_clust_5="13000.00000" pt_clust_6="13000.00000" pt_clust_7="13000.00000" pt_clust_8="13000.00000" pt_clust_9="122.67730"></scales>
<clustering>
<clus scale="   86.648">  5  6 -1 -1</clus>
<clus scale="   92.583">  7  8 -1 -1</clus>
<clus scale="  122.677">  2  9  1 -1</clus>
<clus scale="  142.320">  2  5  1 -1</clus>
<clus scale="  122.677">  2  5  1 -1</clus>
</clustering>
</event>
<event>
 9    1  0.3231311E-005  0.1648803E+03  0.7546771E-02  0.1183523E+00
         21   -1    0    0  501  502  0.00000000000E+00  0.00000000000E+00  0.10288544168E+03  0.10288544168E+03  0.00000000000E+00 0.  1.
          3   -1    0    0  502    0 -0.00000000000E+00 -0.00000000000E+00 -0.41907305282E+03  0.41907305282E+03  0.00000000000E+00 0. -1.
         23    2    1    2    0    0 -0.11332771060E+03  0.42825443368E+02 -0.14366787717E+03  0.20910579419E+03  0.91692887640E+02 0.  0.
         23    2    1    2    0    0  0.12944773646E+03 -0.88156502350E+02 -0.18947605884E+03  0.26184018130E+03  0.90171050165E+02 0.  0.
        -11    1    3    3    0    0 -0.54487689013E+00 -0.21787344065E+02 -0.24135759364E+02  0.32519534626E+02  0.00000000000E+00 0. -1.
         11    1    3    3    0    0 -0.11278283371E+03  0.64612787433E+02 -0.11953211781E+03  0.17658625957E+03  0.00000000000E+00 0.  1.
        -13    1    4    4    0    0  0.24786370410E+02 -0.14946963067E+02 -0.10449010073E+03  0.10842489112E+03  0.00000000000E+00 0.  1.
         13    1    4    4    0    0  0.10466136605E+03 -0.73209539283E+02 -0.84985958110E+02  0.15341529018E+03  0.00000000000E+00 0. -1.
          3    1    1    2  501    0 -0.16120025859E+02  0.45331058982E+02  0.16956324877E+02  0.51012519007E+02  0.00000000000E+00 0. -1.
<scales pt_clust_5="13000.00000" pt_clust_6="13000.00000" pt_clust_7="13000.00000" pt_clust_8="13000.00000" pt_clust_9="48.11195"></scales>
<clustering>
<clus scale="   48.112">  1  9  2 -1</clus>
<clus scale="   90.171">  7  8 -1 -1</clus>
<clus scale="   91.693">  5  6 -1 -1</clus>
<clus scale="  164.039">  1  7  2 -1</clus>
<clus scale="   48.112">  1  5  2 -1</clus>
</clustering>
</event>
<event>
 9    1  0.3231311E-005  0.1409728E+03  0.7546771E-02  0.1233018E+00
         -3   -1    0    0    0  501 -0.00000000000E+00  0.00000000000E+00  0.58660867956E+02  0.58660867956E+02  0.00000000000E+00 0.  1.
         21   -1    0    0  501  502  0.00000000000E+00 -0.00000000000E+00 -0.76252279723E+03  0.76252279723E+03  0.00000000000E+00 0.  1.
         23    2    1    2    0    0 -0.32842321092E+01  0.21620197115E+02 -0.21249183491E+03  0.23111301623E+03  0.88216932975E+02 0.  0.
         23    2    1    2    0    0  0.65009429109E+02 -0.10615809364E+03 -0.97689820011E+02  0.18271231247E+03  0.91349447039E+02 0.  0.
        -11    1    3    3    0    0  0.30567777513E+02  0.39294599313E+02 -0.14815905027E+03  0.15629958008E+03  0.00000000000E+00 0.  1.
         11    1    3    3    0    0 -0.33852009622E+02 -0.17674402198E+02 -0.64332784642E+02  0.74813436148E+02  0.00000000000E+00 0. -1.
        -11    1    4    4    0    0  0.15207670546E+02 -0.22785365339E+02 -0.79265223307E+02  0.83865497930E+02  0.00000000000E+00 0. -1.
         11    1    4    4    0    0  0.49801758563E+02 -0.83372728301E+02 -0.18424596705E+02  0.98846814537E+02  0.00000000000E+00 0.  1.
         -3    1    1    2    0  502 -0.61725197000E+02  0.84537896525E+02 -0.39368027435E+03  0.40735833649E+03  0.00000000000E+00 0.  1.
<scales pt_clust_5="13000.00000" pt_clust_6="13000.00000" pt_clust_7="13000.00000" pt_clust_8="13000.00000" pt_clust_9="107.37134"></scales>
<clustering>
<clus scale="   88.217">  5  6 -1 -1</clus>
<clus scale="   90.887">  1  5  2 -1</clus>
<clus scale="   91.349">  7  8 -1 -1</clus>
<clus scale="  107.371">  2  9  1 -1</clus>
<clus scale="  107.371">  2  5  1 -1</clus>
</clustering>
</event>
<event>
 9    1  0.3231311E-005  0.9601515E+02  0.7546771E-02  0.1289647E+00
         21   -1    0    0  501  502  0.00000000000E+00  0.00000000000E+00  0.99817895666E+02  0.99817895666E+02  0.00000000000E+00 0. -1.
         -1   -1    0    0    0  501 -0.00000000000E+00 -0.00000000000E+00 -0.21349189039E+03  0.21349189039E+03  0.00000000000E+00 0.  1.
         23    2    1    2    0    0 -0.10251249056E+02  0.29352984859E+02 -0.11123006261E+03  0.14632879096E+03  0.89851557627E+02 0.  0.
         23    2    1    2    0    0 -0.48872045799E+02 -0.30207846086E+02 -0.91205813360E+00  0.10783168047E+03  0.91246088343E+02 0.  0.
        -13    1    4    4    0    0  0.21176612215E+02  0.93023466238E+01 -0.12957005125E+02  0.26511630267E+02  0.00000000000E+00 0.  1.
         13    1    4    4    0    0 -0.70048658014E+02 -0.39510192710E+02  0.12044946991E+02  0.81320050206E+02  0.00000000000E+00 0. -1.
        -13    1    3    3    0    0 -0.40219566617E+02  0.33058789399E+02 -0.30973201072E+02  0.60579173649E+02  0.00000000000E+00 0. -1.
         13    1    3    3    0    0  0.29968317562E+02 -0.37058045398E+01 -0.80256861540E+02  0.85749617311E+02  0.00000000000E+00 0.  1.
         -1    1    1    2    0  502  0.59123294855E+02  0.85486122695E+00 -0.15318739777E+01  0.59149314621E+02  0.00000000000E+00 0.  1.
<scales pt_clust_5="13000.00000" pt_clust_6="13000.00000" pt_clust_7="13000.00000" pt_clust_8="13000.00000" pt_clust_9="59.12947"></scales>
<clustering>
<clus scale="   59.129">  1  9  2 -1</clus>
<clus scale="   89.852">  7  8 -1 -1</clus>
<clus scale="   91.246">  5  6 -1 -1</clus>
<clus scale="   94.691">  2  7  1 -1</clus>
<clus scale="   59.129">  1  5  2 -1</clus>
</clustering>
</event>
<event>
 9    1  0.3231311E-005  0.9533883E+02  0.7546771E-02  0.1291478E+00
         21   -1    0    0  501  502  0.00000000000E+00  0.00000000000E+00  0.12915024721E+03  0.12915024721E+03  0.00000000000E+00 0. -1.
          3   -1    0    0  502    0 -0.00000000000E+00 -0.00000000000E+00 -0.47248287422E+03  0.47248287422E+03  0.00000000000E+00 0. -1.
         23    2    1    2    0    0  0.25556989064E+02  0.27671244273E+01 -0.41982845395E+03  0.43064503122E+03  0.92403438813E+02 0.  0.
         23    2    1    2    0    0 -0.18831794568E+01 -0.15734597945E+02  0.21216454927E+01  0.91867148003E+02  0.90465173217E+02 0.  0.
        -11    1    4    4    0    0  0.13657278716E+02  0.15537467677E+02 -0.35154377257E+02  0.40789268246E+02  0.00000000000E+00 0.  1.
         11    1    4    4    0    0 -0.15540458173E+02 -0.31272065622E+02  0.37276022749E+02  0.51077879757E+02  0.00000000000E+00 0. -1.
        -13    1    3    3    0    0  0.59464746348E+02  0.45960818676E+01 -0.21948335056E+03  0.22744256682E+03  0.00000000000E+00 0. -1.
         13    1    3    3    0    0 -0.33907757284E+02 -0.18289574402E+01 -0.20034510338E+03  0.20320246440E+03  0.00000000000E+00 0.  1.
          3    1    1    2  501    0 -0.23673809608E+02  0.12967473517E+02  0.74374181439E+02  0.79120942205E+02  0.00000000000E+00 0. -1.
<scales pt_clust_5="13000.00000" pt_clust_6="13000.00000" pt_clust_7="13000.00000" pt_clust_8="13000.00000" pt_clust_9="26.99268"></scales>
<clustering>
<clus scale="   26.993">  1  9  2 -1</clus>
<clus scale="   90.465">  5  6 -1 -1</clus>
<clus scale="   92.403">  7  8 -1 -1</clus>
<clus scale="   93.461">  1  5  2 -1</clus>
<clus scale="   26.993">  1  5  2 -1</clus>
</clustering>
</event>
<event>
 9    1  0.3231311E-005  0.1549785E+03  0.7546771E-02  0.1194948E+00
         21   -1    0    0  501  502  0.00000000000E+00  0.00000000000E+00  0.15331097167E+03  0.15331097167E+03  0.00000000000E+00 0.  1.
          1   -1    0    0  502    0 -0.00000000000E+00 -0.00000000000E+00 -0.24519660214E+03  0.24519660214E+03  0.00000000000E+00 0. -1.
         23    2    1    2    0    0 -0.71561475216E+02  0.95918769331E+02 -0.92334020573E+02  0.17550929542E+03  0.89199138889E+02 0.  0.
         23    2    1    2    0    0  0.45518401703E+02 -0.12892195031E+03 -0.34544270646E+02  0.16829966836E+03  0.91862275006E+02 0.  0.
        -11    1    4    4    0    0 -0.24505718321E+02 -0.30578610316E+02 -0.26500285239E+02  0.47305885015E+02  0.00000000000E+00 0.  1.
         11    1    4    4    0    0  0.70024120024E+02 -0.98343339995E+02 -0.80439854075E+01  0.12099378334E+03  0.00000000000E+00 0. -1.
        -13    1    3    3    0    0  0.17325683642E+02  0.29013809418E+02 -0.40578286745E+02  0.52806986335E+02  0.00000000000E+00 0. -1.
         13    1    3    3    0    0 -0.88887158857E+02  0.66904959912E+02 -0.51755733829E+02  0.12270230908E+03  0.00000000000E+00 0.  1.
          1    1    1    2  501    0  0.26043073512E+02  0.33003180980E+02  0.34992660754E+02  0.54698610032E+02  0.00000000000E+00 0. -1.
<scales pt_clust_5="13000.00000" pt_clust_6="13000.00000" pt_clust_7="13000.00000" pt_clust_8="13000.00000" pt_clust_9="42.04107"></scales>
<clustering>
<clus scale="   42.041">  1  9  2 -1</clus>
<clus scale="   89.199">  7  8 -1 -1</clus>
<clus scale="   91.862">  5  6 -1 -1</clus>
<clus scale="  153.415">  2  7  1 -1</clus>
<clus scale="   42.041">  1  5  2 -1</clus>
</clustering>
</event>
<event>
 9    1  0.3231311E-005  0.1424785E+03  0.7546771E-02  0.1211547E+00
         -3   -1    0    0    0  501 -0.00000000000E+00  0.00000000000E+00  0.80618862311E+02  0.80618862311E+02  0.00000000000E+00 0.  1.
         21   -1    0    0  501  502  0.00000000000E+00 -0.00000000000E+00 -0.51855398840E+03  0.51855398840E+03  0.00000000000E+00 0. -1.
         23    2    1    2    0    0 -0.89640776875E+02 -0.81631937716E+02 -0.39849247727E+02  0.15709075579E+03  0.91598585550E+02 0.  0.
         23    2    1    2    0    0  0.60178185001E+02  0.63430754946E+02 -0.15704380245E+03  0.19856492976E+03  0.84382467472E+02 0.  0.
        -11    1    3    3    0    0 -0.35222862477E+02  0.61730284606E+01  0.16542084446E+02  0.39400468009E+02  0.00000000000E+00 0.  1.
         11    1    3    3    0    0 -0.54417914398E+02 -0.87804966177E+02 -0.56391332174E+02  0.11769028778E+03  0.00000000000E+00 0. -1.
        -13    1    4    4    0    0 -0.64816304763E+01  0.49560870960E+02 -0.90355443095E+02  0.10325888611E+03  0.00000000000E+00 0.  1.
         13    1    4    4    0    0  0.66659815477E+02  0.13869883986E+02 -0.66688359358E+02  0.95306043645E+02  0.00000000000E+00 0. -1.
         -3    1    1    2    0  502  0.29462591874E+02  0.18201182770E+02 -0.24104207591E+03  0.24351716517E+03  0.00000000000E+00 0.  1.
<scales pt_clust_5="13000.00000" pt_clust_6="13000.00000" pt_clust_7="13000.00000" pt_clust_8="13000.00000" pt_clust_9="34.63131"></scales>
<clustering>
<clus scale="   34.631">  2  9  1 -1</clus>
<clus scale="   84.382">  7  8 -1 -1</clus>
<clus scale="   91.599">  5  6 -1 -1</clus>
<clus scale="  137.950">  2  7  1 -1</clus>
<clus scale="   34.631">  2  5  1 -1</clus>
</clustering>
</event>
<event>
 9    1  0.3790649E-005  0.9401672E+02  0.7546771E-02  0.1293486E+00
          1   -1    0    0  502    0 -0.00000000000E+00  0.00000000000E+00  0.23107714659E+03  0.23107714659E+03  0.00000000000E+00 0. -1.
         21   -1    0    0  501  502  0.00000000000E+00 -0.00000000000E+00 -0.18715315099E+03  0.18715315099E+03  0.00000000000E+00 0. -1.
         23    2    1    2    0    0  0.17872866716E+02 -0.11584712874E+02  0.18480814530E+03  0.20713016736E+03  0.91078047438E+02 0.  0.
         23    2    1    2    0    0 -0.54908380725E+02 -0.19939060576E+02 -0.10266013416E+03  0.14924180050E+03  0.91222340802E+02 0.  0.
        -11    1    4    4    0    0  0.18471025918E+02 -0.14908055367E+02 -0.99157158069E+00  0.23757359439E+02  0.00000000000E+00 0.  1.
         11    1    4    4    0    0 -0.73379406643E+02 -0.50310052091E+01 -0.10166856258E+03  0.12548444106E+03  0.00000000000E+00 0. -1.
        -13    1    3    3    0    0  0.14996968661E+01  0.35219919338E+02  0.36463614680E+02  0.50717718841E+02  0.00000000000E+00 0.  1.
         13    1    3    3    0    0  0.16373169850E+02 -0.46804632213E+02  0.14834453062E+03  0.15641244852E+03  0.00000000000E+00 0. -1.
          1    1    1    2  501    0  0.37035514009E+02  0.31523773451E+02 -0.38224015548E+02  0.61858329715E+02  0.00000000000E+00 0. -1.
<scales pt_clust_5="13000.00000" pt_clust_6="13000.00000" pt_clust_7="13000.00000" pt_clust_8="13000.00000" pt_clust_9="48.63515"></scales>
<clustering>
<clus scale="   48.635">  2  9  1 -1</clus>
<clus scale="   91.078">  7  8 -1 -1</clus>
<clus scale="   91.222">  5  6 -1 -1</clus>
<clus scale="   93.877">  1  7  2 -1</clus>
<clus scale="   48.635">  2  5  1 -1</clus>
</clustering>
</event>
<event>
 9    1  0.3231311E-005  0.8604858E+02  0.7546771E-02  0.1325432E+00
         21   -1    0    0  501  502  0.00000000000E+00  0.00000000000E+00  0.73669653575E+02  0.73669653575E+02  0.00000000000E+00 0.  1.
          1   -1    0    0  502    0 -0.00000000000E+00 -0.00000000000E+00 -0.12654301087E+03  0.12654301087E+03  0.00000000000E+00 0. -1.
         23    2    1    2    0    0  0.53033631037E+00  0.14958527136E+02 -0.41162439720E+02  0.96434587832E+02  0.85914169355E+02 0.  0.
         23    2    1    2    0    0  0.80355026889E+01  0.11905661059E+02  0.65827627245E+01  0.70166814451E+02  0.68364720554E+02 0.  0.
        -11    1    3    3    0    0  0.27557765026E+02 -0.10075905553E+02  0.12044939633E+02  0.31718052537E+02  0.00000000000E+00 0. -1.
         11    1    3    3    0    0 -0.27027428716E+02  0.25034432689E+02 -0.53207379353E+02  0.64716535296E+02  0.00000000000E+00 0.  1.
        -13    1    4    4    0    0  0.55255913704E+01  0.40181179287E+02  0.94194054816E+01  0.41638738315E+02  0.00000000000E+00 0.  1.
         13    1    4    4    0    0  0.25099113185E+01 -0.28275518228E+02 -0.28366427571E+01  0.28528076136E+02  0.00000000000E+00 0. -1.
          1    1    1    2  501    0 -0.85658389993E+01 -0.26864188195E+02 -0.18293680300E+02  0.33611262161E+02  0.00000000000E+00 0. -1.
<scales pt_clust_5="13000.00000" pt_clust_6="13000.00000" pt_clust_7="13000.00000" pt_clust_8="13000.00000" pt_clust_9="28.19679"></scales>
<clustering>
<clus scale="   28.197">  1  9  2 -1</clus>
<clus scale="   68.365">  7  8 -1 -1</clus>
<clus scale="   68.534">  1  7  2 -1</clus>
<clus scale="   85.914">  5  6 -1 -1</clus>
<clus scale="   28.197">  1  5  2 -1</clus>
</clustering>
</event>
<event>
 9    1  0.3231311E-005  0.1009704E+03  0.7546771E-02  0.1278758E+00
         21   -1    0    0  501  502  0.00000000000E+00  0.00000000000E+00  0.21616109827E+03  0.21616109827E+03  0.00000000000E+00 0.  1.
         -2   -1    0    0    0  501 -0.00000000000E+00 -0.00000000000E+00 -0.29158853723E+03  0.29158853723E+03  0.00000000000E+00 0.  1.
         23    2    1    2    0    0  0.40800658045E+02  0.37436983977E+01 -0.21572614255E+03  0.23777865956E+03  0.91226166151E+02 0.  0.
         23    2    1    2    0    0 -0.33558173418E+02 -0.43876476889E+02 -0.15756066576E+02  0.10867564189E+03  0.92254242611E+02 0.  0.
        -11    1    4    4    0    0 -0.63205546346E+02 -0.27884029565E+02 -0.25451778851E+02  0.73622369157E+02  0.00000000000E+00 0. -1.
         11    1    4    4    0    0  0.29647372929E+02 -0.15992447324E+02  0.96957122749E+01  0.35053272736E+02  0.00000000000E+00 0.  1.
        -13    1    3    3    0    0  0.42598377374E+02  0.41345251324E+02 -0.10239178002E+03  0.11835593850E+03  0.00000000000E+00 0. -1.
         13    1    3    3    0    0 -0.17977193295E+01 -0.37601552926E+02 -0.11333436252E+03  0.11942272106E+03  0.00000000000E+00 0.  1.
         -2    1    1    2    0  502 -0.72424846272E+01  0.40132778491E+02  0.15605477016E+03  0.16129533404E+03  0.00000000000E+00 0.  1.
<scales pt_clust_5="13000.00000" pt_clust_6="13000.00000" pt_clust_7="13000.00000" pt_clust_8="13000.00000" pt_clust_9="40.78104"></scales>
<clustering>
<clus scale="   40.781">  1  9  2 -1</clus>
<clus scale="   91.226">  7  8 -1 -1</clus>
<clus scale="   92.254">  5  6 -1 -1</clus>
<clus scale="  100.032">  2  7  1 -1</clus>
<clus scale="   40.781">  1  5  2 -1</clus>
</clustering>
</event>
<event>
 9    1  0.3231311E-005  0.1266717E+03  0.7546771E-02  0.1234243E+00
         21   -1    0    0  501  502  0.00000000000E+00  0.00000000000E+00  0.80004579657E+02  0.80004579657E+02  0.00000000000E+00 0. -1.
          3   -1    0    0  502    0 -0.00000000000E+00 -0.00000000000E+00 -0.30794419349E+03  0.30794419349E+03  0.00000000000E+00 0. -1.
         23    2    1    2    0    0 -0.53758690246E+02 -0.72291027591E+02 -0.19690289000E+03  0.23275059290E+03  0.85358660697E+02 0.  0.
         23    2    1    2    0    0  0.63013529610E+02  0.53153059600E+02 -0.43269389458E+02  0.13067162365E+03  0.91689042440E+02 0.  0.
        -13    1    4    4    0    0  0.42402158498E+02 -0.66640503779E+01 -0.51307974831E+02  0.66894401066E+02  0.00000000000E+00 0. -1.
         13    1    4    4    0    0  0.20611371112E+02  0.59817109978E+02  0.80385853730E+01  0.63777222580E+02  0.00000000000E+00 0.  1.
        -13    1    3    3    0    0 -0.58715475086E+01 -0.29828796769E+02 -0.54533607021E+01  0.30886426303E+02  0.00000000000E+00 0.  1.
         13    1    3    3    0    0 -0.47887142737E+02 -0.42462230822E+02 -0.19144952930E+03  0.20186416659E+03  0.00000000000E+00 0. -1.
          3    1    1    2  501    0 -0.92548393642E+01  0.19137967991E+02  0.12232665626E+02  0.24526556603E+02  0.00000000000E+00 0. -1.
<scales pt_clust_5="13000.00000" pt_clust_6="13000.00000" pt_clust_7="13000.00000" pt_clust_8="13000.00000" pt_clust_9="21.25827"></scales>
<clustering>
<clus scale="   21.258">  1  9  2 -1</clus>
<clus scale="   85.359">  7  8 -1 -1</clus>
<clus scale="   91.689">  5  6 -1 -1</clus>
<clus scale="  122.168">  2  7  1 -1</clus>
<clus scale="   21.258">  1  5  2 -1</clus>
</clustering>
</event>
<event>
 9    1  0.3231311E-005  0.1427123E+03  0.7546771E-02  0.1230277E+00
          3   -1    0    0  502    0 -0.00000000000E+00  0.00000000000E+00  0.52017148388E+03  0.52017148388E+03  0.00000000000E+00 0. -1.
         21   -1    0    0  501  502  0.00000000000E+00 -0.00000000000E+00 -0.86198150736E+02  0.86198150736E+02  0.00000000000E+00 0. -1.
         23    2    1    2    0    0  0.22126918191E+01 -0.95366158949E+01  0.20379888355E+03  0.22388801062E+03  0.92173821205E+02 0.  0.
         23    2    1    2    0    0  0.67983784429E+02  0.93858454284E+02  0.22994855859E+03  0.27276485803E+03  0.89961790759E+02 0.  0.
        -13    1    4    4    0    0  0.64687407900E+02  0.63238800180E+02  0.22375702505E+03  0.24135205168E+03  0.00000000000E+00 0. -1.
         13    1    4    4    0    0  0.32963765290E+01  0.30619654104E+02  0.61915335347E+01  0.31412806357E+02  0.00000000000E+00 0.  1.
        -13    1    3    3    0    0  0.88845897075E+01 -0.47445888146E+02  0.72785368086E+02  0.87337037067E+02  0.00000000000E+00 0.  1.
         13    1    3    3    0    0 -0.66718978885E+01  0.37909272252E+02  0.13101351546E+03  0.13655097355E+03  0.00000000000E+00 0. -1.
          3    1    1    2  501    0 -0.70196476248E+02 -0.84321838389E+02  0.22589101237E+00  0.10971676597E+03  0.00000000000E+00 0. -1.
<scales pt_clust_5="13000.00000" pt_clust_6="13000.00000" pt_clust_7="13000.00000" pt_clust_8="13000.00000" pt_clust_9="110.78659"></scales>
<clustering>
<clus scale="   89.962">  5  6 -1 -1</clus>
<clus scale="   92.174">  7  8 -1 -1</clus>
<clus scale="   92.692">  1  7  2 -1</clus>
<clus scale="  110.787">  2  9  1 -1</clus>
<clus scale="  110.787">  2  5  1 -1</clus>
</clustering>
</event>
<event>
 9    1  0.3231311E-005  0.9848596E+02  0.7546771E-02  0.1285097E+00
         21   -1    0    0  501  502  0.00000000000E+00  0.00000000000E+00  0.35547842887E+02  0.35547842887E+02  0.00000000000E+00 0.  1.
          2   -1    0    0  502    0 -0.00000000000E+00 -0.00000000000E+00 -0.52653973774E+03  0.52653973774E+03  0.00000000000E+00 0. -1.
         23    2    1    2    0    0 -0.20002516282E+02  0.37328920042E+02 -0.28525812839E+03  0.30176122096E+03  0.88848667583E+02 0.  0.
         23    2    1    2    0    0 -0.34006049347E+02 -0.31208481568E+02 -0.15450608532E+03  0.18563593027E+03  0.91968404865E+02 0.  0.
        -11    1    3    3    0    0  0.30247577852E+02 -0.43465381410E+01 -0.61492007052E+02  0.68666405840E+02  0.00000000000E+00 0. -1.
         11    1    3    3    0    0 -0.50250094134E+02  0.41675458183E+02 -0.22376612134E+03  0.23309481512E+03  0.00000000000E+00 0.  1.
        -13    1    4    4    0    0 -0.52472744284E+02 -0.14800582903E+01 -0.40274529469E+02  0.66163563909E+02  0.00000000000E+00 0.  1.
         13    1    4    4    0    0  0.18466694937E+02 -0.29728423278E+02 -0.11423155585E+03  0.11947236636E+03  0.00000000000E+00 0. -1.
          2    1    1    2  501    0  0.54008565629E+02 -0.61204384740E+01 -0.51227681147E+02  0.74690429401E+02  0.00000000000E+00 0. -1.
<scales pt_clust_5="13000.00000" pt_clust_6="13000.00000" pt_clust_7="13000.00000" pt_clust_8="13000.00000" pt_clust_9="54.35425"></scales>
<clustering>
<clus scale="   54.354">  1  9  2 -1</clus>
<clus scale="   88.849">  5  6 -1 -1</clus>
<clus scale="   91.968">  7  8 -1 -1</clus>
<clus scale="   95.579">  2  5  1 -1</clus>
<clus scale="   54.354">  1  5  2 -1</clus>
</clustering>
</event>
<event>
 9    1  0.3231311E-005  0.2243307E+03  0.7546771E-02  0.1130834E+00
         21   -1    0    0  501  502  0.00000000000E+00  0.00000000000E+00  0.74055778239E+02  0.74055778239E+02  0.00000000000E+00 0.  1.
         -1   -1    0    0    0  501 -0.00000000000E+00 -0.00000000000E+00 -0.79746717708E+03  0.79746717708E+03  0.00000000000E+00 0.  1.
         23    2    1    2    0    0  0.11895450355E+03 -0.16128299424E+03 -0.35356531216E+03  0.41621091577E+03  0.89781503118E+02 0.  0.
         23    2    1    2    0    0 -0.15060396744E+03  0.14844084997E+03 -0.30831956533E+03  0.38494072391E+03  0.91663327510E+02 0.  0.
        -11    1    4    4    0    0 -0.15973328513E+03  0.13056354146E+03 -0.25522867553E+03  0.32818171422E+03  0.00000000000E+00 0.  1.
         11    1    4    4    0    0  0.91293176884E+01  0.17877308509E+02 -0.53090889797E+02  0.56759009685E+02  0.00000000000E+00 0. -1.
        -13    1    3    3    0    0 -0.19801938447E+01 -0.64748042985E+02 -0.99259768343E+02  0.11852734642E+03  0.00000000000E+00 0. -1.
         13    1    3    3    0    0  0.12093469739E+03 -0.96534951256E+02 -0.25430554381E+03  0.29768356935E+03  0.00000000000E+00 0.  1.
         -1    1    1    2    0  502  0.31649463894E+02  0.12842144275E+02 -0.61526521357E+02  0.70371315638E+02  0.00000000000E+00 0.  1.
<scales pt_clust_5="13000.00000" pt_clust_6="13000.00000" pt_clust_7="13000.00000" pt_clust_8="13000.00000" pt_clust_9="34.15568"></scales>
<clustering>
<clus scale="   34.156">  1  9  2 -1</clus>
<clus scale="   89.782">  7  8 -1 -1</clus>
<clus scale="   91.663">  5  6 -1 -1</clus>
<clus scale="  223.568">  2  7  1 -1</clus>
<clus scale="   34.156">  1  5  2 -1</clus>
</clustering>
</event>
<event>
 9    1  0.3231311E-005  0.2004072E+03  0.7546771E-02  0.1149902E+00
          2   -1    0    0  502    0 -0.00000000000E+00  0.00000000000E+00  0.14614598058E+04  0.14614598058E+04  0.00000000000E+00 0. -1.
         21   -1    0    0  501  502  0.00000000000E+00 -0.00000000000E+00 -0.59394710151E+02  0.59394710151E+02  0.00000000000E+00 0. -1.
         23    2    1    2    0    0  0.10001035225E+03 -0.13895047066E+03  0.78290803803E+03  0.80657839667E+03  0.91183387231E+02 0.  0.
         23    2    1    2    0    0 -0.12310293964E+03  0.14316587139E+03  0.64608309889E+03  0.67855429267E+03  0.85800681537E+02 0.  0.
        -11    1    4    4    0    0 -0.56008024793E+02  0.12610294365E+03  0.44347034814E+03  0.46444030931E+03  0.00000000000E+00 0. -1.
         11    1    4    4    0    0 -0.67094914848E+02  0.17062927738E+02  0.20261275076E+03  0.21411398336E+03  0.00000000000E+00 0.  1.
        -11    1    3    3    0    0  0.68458528902E+02 -0.26745198508E+02  0.38490205868E+03  0.39185644131E+03  0.00000000000E+00 0. -1.
         11    1    3    3    0    0  0.31551823352E+02 -0.11220527216E+03  0.39800597935E+03  0.41472195536E+03  0.00000000000E+00 0.  1.
          2    1    1    2  501    0  0.23092587386E+02 -0.42154007274E+01 -0.26926041290E+02  0.35721826592E+02  0.00000000000E+00 0. -1.
<scales pt_clust_5="13000.00000" pt_clust_6="13000.00000" pt_clust_7="13000.00000" pt_clust_8="13000.00000" pt_clust_9="23.47418"></scales>
<clustering>
<clus scale="   23.474">  2  9  1 -1</clus>
<clus scale="   85.801">  5  6 -1 -1</clus>
<clus scale="   91.183">  7  8 -1 -1</clus>
<clus scale="  198.016">  2  5  1 -1</clus>
<clus scale="   23.474">  2  5  1 -1</clus>
</clustering>
</event>
<event>
 9    1  0.3231311E-005  0.1709021E+03  0.7546771E-02  0.1177907E+00
          1   -1    0    0  502    0 -0.00000000000E+00  0.00000000000E+00  0.59405211319E+03  0.59405211319E+03  0.00000000000E+00 0. -1.
         21   -1    0    0  501  502  0.00000000000E+00 -0.00000000000E+00 -0.94806326375E+02  0.94806326375E+02  0.00000000000E+00 0.  1.
         23    2    1    2    0    0  0.26875671400E+02 -0.12567959772E+03  0.25000364078E+03  0.29561593665E+03  0.91483870729E+02 0.  0.
         23    2    1    2    0    0 -0.28401966096E+01  0.15446935766E+03  0.28673776108E+03  0.34020972556E+03  0.98261205785E+02 0.  0.
        -13    1    3    3    0    0  0.51163845946E+02 -0.42874235960E+02  0.14554928037E+03  0.16012661320E+03  0.00000000000E+00 0.  1.
         13    1    3    3    0    0 -0.24288174546E+02 -0.82805361760E+02  0.10445436041E+03  0.13548932345E+03  0.00000000000E+00 0. -1.
        -13    1    4    4    0    0 -0.39828353282E+02  0.13534538903E+03  0.23018380406E+03  0.26998010243E+03  0.00000000000E+00 0. -1.
         13    1    4    4    0    0  0.36988156673E+02  0.19123968638E+02  0.56553957018E+02  0.70229623129E+02  0.00000000000E+00 0.  1.
          1    1    1    2  501    0 -0.24035474790E+02 -0.28789759943E+02 -0.37495615046E+02  0.53032777352E+02  0.00000000000E+00 0. -1.
<scales pt_clust_5="13000.00000" pt_clust_6="13000.00000" pt_clust_7="13000.00000" pt_clust_8="13000.00000" pt_clust_9="37.50406"></scales>
<clustering>
<clus scale="   37.504">  2  9  1 -1</clus>
<clus scale="   91.484">  5  6 -1 -1</clus>
<clus scale="   98.261">  7  8 -1 -1</clus>
<clus scale="  167.097">  1  5  2 -1</clus>
<clus scale="   37.504">  2  5  1 -1</clus>
</clustering>
</event>
<event>
 9    1  0.3231311E-005  0.2079447E+03  0.7546771E-02  0.1143244E+00
          1   -1    0    0  502    0 -0.00000000000E+00  0.00000000000E+00  0.83822690099E+03  0.83822690099E+03  0.00000000000E+00 0. -1.
         21   -1    0    0  501  502  0.00000000000E+00 -0.00000000000E+00 -0.83151311178E+02  0.83151311178E+02  0.00000000000E+00 0.  1.
         23    2    1    2    0    0 -0.15328214215E+03  0.10042259670E+03  0.60227442293E+03  0.63604791626E+03  0.90787434357E+02 0.  0.
         23    2    1    2    0    0  0.15962226750E+03 -0.12038359242E+03  0.14310946970E+03  0.26225287114E+03  0.91240180281E+02 0.  0.
        -11    1    3    3    0    0 -0.12777350382E+03  0.55102893095E+02  0.52333000090E+03  0.54151333035E+03  0.00000000000E+00 0. -1.
         11    1    3    3    0    0 -0.25508638331E+02  0.45319703601E+02  0.78944422035E+02  0.94534585916E+02  0.00000000000E+00 0.  1.
        -11    1    4    4    0    0  0.11323840079E+03 -0.11260799079E+03  0.14425972462E+03  0.21520772093E+03  0.00000000000E+00 0. -1.
         11    1    4    4    0    0  0.46383866712E+02 -0.77756016314E+01 -0.11502549133E+01  0.47045150210E+02  0.00000000000E+00 0.  1.
          1    1    1    2  501    0 -0.63401253501E+01  0.19960995721E+02  0.96916971829E+01  0.23077424767E+02  0.00000000000E+00 0. -1.
<scales pt_clust_5="13000.00000" pt_clust_6="13000.00000" pt_clust_7="13000.00000" pt_clust_8="13000.00000" pt_clust_9="20.94370"></scales>
<clustering>
<clus scale="   20.944">  2  9  1 -1</clus>
<clus scale="   90.787">  5  6 -1 -1</clus>
<clus scale="   91.240">  7  8 -1 -1</clus>
<clus scale="  207.746">  1  5  2 -1</clus>
<clus scale="   20.944">  2  5  1 -1</clus>
</clustering>
</event>
<event>
 9    1  0.3231311E-005  0.1035683E+03  0.7546771E-02  0.1275842E+00
         21   -1    0    0  501  502  0.00000000000E+00  0.00000000000E+00  0.71164460356E+02  0.71164460356E+02  0.00000000000E+00 0.  1.
          3   -1    0    0  502    0 -0.00000000000E+00 -0.00000000000E+00 -0.19251790552E+03  0.19251790552E+03  0.00000000000E+00 0. -1.
         23    2    1    2    0    0  0.49800536072E+02  0.58827025603E+01 -0.88612189840E+02  0.13900954033E+03  0.94640543804E+02 0.  0.
         23    2    1    2    0    0 -0.32485716457E+02  0.51539037243E+01 -0.40465274462E+02  0.10273495582E+03  0.88516372574E+02 0.  0.
        -11    1    4    4    0    0 -0.12196824271E+02 -0.32609463884E+02 -0.47910579987E+02  0.59224685156E+02  0.00000000000E+00 0. -1.
         11    1    4    4    0    0 -0.20288892186E+02  0.37763367608E+02  0.74453055252E+01  0.43510270668E+02  0.00000000000E+00 0.  1.
        -13    1    3    3    0    0  0.14267592395E+02  0.47073639388E+02 -0.24575601760E+02  0.54985924743E+02  0.00000000000E+00 0.  1.
         13    1    3    3    0    0  0.35532943676E+02 -0.41190936828E+02 -0.64036588081E+02  0.84023615585E+02  0.00000000000E+00 0. -1.
          3    1    1    2  501    0 -0.17314819615E+02 -0.11036606285E+02  0.77240191355E+01  0.21937869727E+02  0.00000000000E+00 0. -1.
<scales pt_clust_5="13000.00000" pt_clust_6="13000.00000" pt_clust_7="13000.00000" pt_clust_8="13000.00000" pt_clust_9="20.53314"></scales>
<clustering>
<clus scale="   20.533">  1  9  2 -1</clus>
<clus scale="   88.516">  5  6 -1 -1</clus>
<clus scale="   94.641">  7  8 -1 -1</clus>
<clus scale="   98.004">  1  5  2 -1</clus>
<clus scale="   20.533">  1  5  2 -1</clus>
</clustering>
</event>
<event>
 9    1  0.3231311E-005  0.1108021E+03  0.7546771E-02  0.1259300E+00
         21   -1    0    0  501  502  0.00000000000E+00  0.00000000000E+00  0.38451664952E+03  0.38451664952E+03  0.00000000000E+00 0.  1.
          1   -1    0    0  502    0 -0.00000000000E+00 -0.00000000000E+00 -0.15622629134E+03  0.15622629134E+03  0.00000000000E+00 0. -1.
         23    2    1    2    0    0  0.53426906519E+02 -0.41099558503E+02 -0.11351230061E+03  0.16014539656E+03  0.90652620482E+02 0.  0.
         23    2    1    2    0    0 -0.23008535368E+02  0.38289536937E+02  0.11939993039E+03  0.15610668230E+03  0.90097011843E+02 0.  0.
        -13    1    4    4    0    0  0.32733158983E+02  0.26761707209E+00  0.45293528895E+02  0.55884121856E+02  0.00000000000E+00 0. -1.
         13    1    4    4    0    0 -0.55741694351E+02  0.38021919865E+02  0.74106401491E+02  0.10022256044E+03  0.00000000000E+00 0.  1.
        -13    1    3    3    0    0  0.16468405862E+02 -0.57726119126E+02 -0.10141954755E+03  0.11785345920E+03  0.00000000000E+00 0. -1.
         13    1    3    3    0    0  0.36958500657E+02  0.16626560623E+02 -0.12092753063E+02  0.42291937359E+02  0.00000000000E+00 0.  1.
          1    1    1    2  501    0 -0.30418371151E+02  0.28100215661E+01  0.22240272840E+03  0.22449086201E+03  0.00000000000E+00 0. -1.
<scales pt_clust_5="13000.00000" pt_clust_6="13000.00000" pt_clust_7="13000.00000" pt_clust_8="13000.00000" pt_clust_9="30.54789"></scales>
<clustering>
<clus scale="   30.548">  1  9  2 -1</clus>
<clus scale="   90.097">  5  6 -1 -1</clus>
<clus scale="   90.653">  7  8 -1 -1</clus>
<clus scale="  110.348">  1  5  2 -1</clus>
<clus scale="   30.548">  1  5  2 -1</clus>
</clustering>
</event>
<event>
 9    1  0.3231311E-005  0.1142006E+03  0.7546771E-02  0.1262888E+00
         21   -1    0    0  501  502  0.00000000000E+00  0.00000000000E+00  0.24104120548E+03  0.24104120548E+03  0.00000000000E+00 0. -1.
          1   -1    0    0  502    0 -0.00000000000E+00 -0.00000000000E+00 -0.29745587543E+03  0.29745587543E+03  0.00000000000E+00 0. -1.
         23    2    1    2    0    0  0.13849151263E+02  0.18151800289E+02 -0.20015252785E+03  0.23147216968E+03  0.11400457924E+03 0.  0.
         23    2    1    2    0    0  0.44228884816E+02  0.23688249730E+02 -0.37069702536E+02  0.11256406178E+03  0.93697266402E+02 0.  0.
        -13    1    3    3    0    0 -0.44129595086E+02  0.32529349117E+02 -0.11567172684E+03  0.12800596903E+03  0.00000000000E+00 0.  1.
         13    1    3    3    0    0  0.57978746349E+02 -0.14377548828E+02 -0.84480801002E+02  0.10346620065E+03  0.00000000000E+00 0. -1.
        -13    1    4    4    0    0  0.13016770777E+02  0.57968676075E+02 -0.15324674150E+02  0.61356738548E+02  0.00000000000E+00 0. -1.
         13    1    4    4    0    0  0.31212114039E+02 -0.34280426346E+02 -0.21745028386E+02  0.51207323234E+02  0.00000000000E+00 0.  1.
          1    1    1    2  501    0 -0.58078036079E+02 -0.41840050019E+02  0.18080756043E+03  0.19446084945E+03  0.00000000000E+00 0. -1.
<scales pt_clust_5="13000.00000" pt_clust_6="13000.00000" pt_clust_7="13000.00000" pt_clust_8="13000.00000" pt_clust_9="71.57966"></scales>
<clustering>
<clus scale="   71.580">  1  9  2 -1</clus>
<clus scale="   93.697">  7  8 -1 -1</clus>
<clus scale="   93.936">  1  7  2 -1</clus>
<clus scale="  114.005">  5  6 -1 -1</clus>
<clus scale="   71.580">  1  5  2 -1</clus>
</clustering>
</event>
<event>
 9    1  0.3231311E-005  0.1073889E+03  0.7546771E-02  0.1271870E+00
         21   -1    0    0  501  502  0.00000000000E+00  0.00000000000E+00  0.15628891096E+03  0.15628891096E+03  0.00000000000E+00 0.  1.
         -3   -1    0    0    0  501 -0.00000000000E+00 -0.00000000000E+00 -0.17440477457E+03  0.17440477457E+03  0.00000000000E+00 0.  1.
         23    2    1    2    0    0  0.27355679425E+02 -0.33783370183E+01 -0.69955845826E+02  0.12966579049E+03  0.10563924697E+03 0.  0.
         23    2    1    2    0    0  0.37908997827E+02  0.51823038276E+02  0.31517932573E+02  0.11724631664E+03  0.92901018721E+02 0.  0.
        -11    1    3    3    0    0 -0.22319057556E+02 -0.31088559770E+02  0.15421840663E+01  0.38301660675E+02  0.00000000000E+00 0.  1.
         11    1    3    3    0    0  0.49674736981E+02  0.27710222752E+02 -0.71498029892E+02  0.91364129819E+02  0.00000000000E+00 0. -1.
        -11    1    4    4    0    0  0.68103859528E+01  0.34497298629E+02 -0.29966243204E+02  0.46199791139E+02  0.00000000000E+00 0.  1.
         11    1    4    4    0    0  0.31098611874E+02  0.17325739647E+02  0.61484175776E+02  0.71046525501E+02  0.00000000000E+00 0. -1.
         -3    1    1    2    0  502 -0.65264677253E+02 -0.48444701258E+02  0.20322049639E+02  0.83781578395E+02  0.00000000000E+00 0.  1.
<scales pt_clust_5="13000.00000" pt_clust_6="13000.00000" pt_clust_7="13000.00000" pt_clust_8="13000.00000" pt_clust_9="81.27956"></scales>
<clustering>
<clus scale="   81.280">  1  9  2 -1</clus>
<clus scale="   92.901">  7  8 -1 -1</clus>
<clus scale="   94.886">  1  7  2 -1</clus>
<clus scale="  105.639">  5  6 -1 -1</clus>
<clus scale="   81.280">  1  5  2 -1</clus>
</clustering>
</event>
<event>
 9    1  0.3231311E-005  0.1122745E+03  0.7546771E-02  0.1257637E+00
         -4   -1    0    0    0  501 -0.00000000000E+00  0.00000000000E+00  0.61771460416E+03  0.61771460416E+03  0.00000000000E+00 0.  1.
         21   -1    0    0  501  502  0.00000000000E+00 -0.00000000000E+00 -0.53211830727E+02  0.53211830727E+02  0.00000000000E+00 0.  1.
         23    2    1    2    0    0 -0.36854641308E+02 -0.49874175931E+02  0.31785485971E+03  0.33543353859E+03  0.87397076355E+02 0.  0.
         23    2    1    2    0    0  0.88926219405E+02  0.11419135032E+02  0.23821143678E+03  0.27021339293E+03  0.90732133035E+02 0.  0.
        -11    1    3    3    0    0  0.11534266348E+02  0.18991132849E+02  0.84183242653E+02  0.87066186150E+02  0.00000000000E+00 0.  1.
         11    1    3    3    0    0 -0.48388907656E+02 -0.68865308781E+02  0.23367161706E+03  0.24836735244E+03  0.00000000000E+00 0. -1.
        -13    1    4    4    0    0  0.31349730440E+02 -0.32941199474E+02  0.14529923568E+03  0.15224912515E+03  0.00000000000E+00 0. -1.
         13    1    4    4    0    0  0.57576488966E+02  0.44360334506E+02  0.92912201101E+02  0.11796426778E+03  0.00000000000E+00 0.  1.
         -4    1    1    2    0  502 -0.52071578097E+02  0.38455040900E+02  0.84364769366E+01  0.65279503362E+02  0.00000000000E+00 0.  1.
<scales pt_clust_5="13000.00000" pt_clust_6="13000.00000" pt_clust_7="13000.00000" pt_clust_8="13000.00000" pt_clust_9="64.73206"></scales>
<clustering>
<clus scale="   64.732">  2  9  1 -1</clus>
<clus scale="   87.397">  5  6 -1 -1</clus>
<clus scale="   90.732">  7  8 -1 -1</clus>
<clus scale="  109.597">  1  5  2 -1</clus>
<clus scale="   64.732">  2  5  1 -1</clus>
</clustering>
</event>
<event>
 9    1  0.3231311E-005  0.1020165E+03  0.7546771E-02  0.1276792E+00
          1   -1    0    0  502    0 -0.00000000000E+00  0.00000000000E+00  0.51377068451E+03  0.51377068451E+03  0.00000000000E+00 0. -1.
         21   -1    0    0  501  502  0.00000000000E+00 -0.00000000000E+00 -0.65641470684E+02  0.65641470684E+02  0.00000000000E+00 0. -1.
         23    2    1    2    0    0 -0.20418254060E+02  0.34213200875E+02  0.38300703013E+03  0.39557761203E+03  0.90552823217E+02 0.  0.
         23    2    1    2    0    0  0.31192867987E+02 -0.52221333783E+02  0.96182169447E+02  0.14634977465E+03  0.92017303285E+02 0.  0.
        -11    1    4    4    0    0 -0.58316130831E+01 -0.61525276637E+02  0.27227980682E+02  0.67533179315E+02  0.00000000000E+00 0.  1.
         11    1    4    4    0    0  0.37024481070E+02  0.93039428537E+01  0.68954188765E+02  0.78816595330E+02  0.00000000000E+00 0. -1.
        -13    1    3    3    0    0 -0.50549698146E+02  0.44014815534E+02  0.27203035007E+03  0.28016617806E+03  0.00000000000E+00 0.  1.
         13    1    3    3    0    0  0.30131444086E+02 -0.98016146587E+01  0.11097668007E+03  0.11541143397E+03  0.00000000000E+00 0. -1.
          1    1    1    2  501    0 -0.10774613927E+02  0.18008132908E+02 -0.31059985754E+02  0.37484768522E+02  0.00000000000E+00 0. -1.
<scales pt_clust_5="13000.00000" pt_clust_6="13000.00000" pt_clust_7="13000.00000" pt_clust_8="13000.00000" pt_clust_9="20.98536"></scales>
<clustering>
<clus scale="   20.985">  2  9  1 -1</clus>
<clus scale="   90.553">  7  8 -1 -1</clus>
<clus scale="   92.017">  5  6 -1 -1</clus>
<clus scale="  100.698">  1  7  2 -1</clus>
<clus scale="   20.985">  2  5  1 -1</clus>
</clustering>
</event>
<event>
 9    1  0.3231311E-005  0.9674689E+02  0.7546771E-02  0.1287958E+00
         -2   -1    0    0    0  501 -0.00000000000E+00  0.00000000000E+00  0.38605975346E+03  0.38605975346E+03  0.00000000000E+00 0.  1.
         21   -1    0    0  501  502  0.00000000000E+00 -0.00000000000E+00 -0.43112050284E+02  0.43112050284E+02  0.00000000000E+00 0. -1.
         23    2    1    2    0    0 -0.52573908100E+01 -0.24938551704E+02  0.19573187004E+03  0.21731025526E+03  0.90902203344E+02 0.  0.
         23    2    1    2    0    0  0.39531170352E+02  0.30701925890E+02  0.14416430411E+03  0.17697286442E+03  0.89614320719E+02 0.  0.
        -11    1    3    3    0    0 -0.39245066899E+02  0.12022611831E+02  0.11638075012E+03  0.12340663462E+03  0.00000000000E+00 0.  1.
         11    1    3    3    0    0  0.33987676089E+02 -0.36961163534E+02  0.79351119921E+02  0.93903620636E+02  0.00000000000E+00 0. -1.
        -13    1    4    4    0    0  0.46834795754E+02  0.57611794375E+02  0.11237460772E+03  0.13468730231E+03  0.00000000000E+00 0.  1.
         13    1    4    4    0    0 -0.73036254020E+01 -0.26909868485E+02  0.31789696398E+02  0.42285562110E+02  0.00000000000E+00 0. -1.
         -2    1    1    2    0  502 -0.34273779542E+02 -0.57633741868E+01  0.30515290198E+01  0.34888684061E+02  0.00000000000E+00 0.  1.
<scales pt_clust_5="13000.00000" pt_clust_6="13000.00000" pt_clust_7="13000.00000" pt_clust_8="13000.00000" pt_clust_9="34.75498"></scales>
<clustering>
<clus scale="   34.755">  2  9  1 -1</clus>
<clus scale="   89.614">  7  8 -1 -1</clus>
<clus scale="   90.902">  5  6 -1 -1</clus>
<clus scale="   95.538">  2  7  1 -1</clus>
<clus scale="   34.755">  2  5  1 -1</clus>
</clustering>
</event>
<event>
 9    1  0.3231311E-005  0.9181037E+02  0.7546771E-02  0.1299927E+00
         21   -1    0    0  501  502  0.00000000000E+00  0.00000000000E+00  0.15852976198E+03  0.15852976198E+03  0.00000000000E+00 0.  1.
          3   -1    0    0  502    0 -0.00000000000E+00 -0.00000000000E+00 -0.97053631058E+02  0.97053631058E+02  0.00000000000E+00 0. -1.
         23    2    1    2    0    0  0.14905974288E+02  0.65839217662E+01 -0.35883606046E+02  0.99291146673E+02  0.91134859025E+02 0.  0.
         23    2    1    2    0    0  0.13980548251E+02 -0.13822808716E+02  0.61942229090E+02  0.11001879250E+03  0.88773696483E+02 0.  0.
        -13    1    3    3    0    0 -0.13027691980E+01 -0.37291178343E+02  0.43861086903E+01  0.37570828301E+02  0.00000000000E+00 0.  1.
         13    1    3    3    0    0  0.16208743486E+02  0.43875100109E+02 -0.40269714737E+02  0.61720318372E+02  0.00000000000E+00 0. -1.
        -13    1    4    4    0    0  0.43792471142E+02 -0.12711015070E+02  0.51784020114E+01  0.45892987267E+02  0.00000000000E+00 0.  1.
         13    1    4    4    0    0 -0.29811922891E+02 -0.11117936455E+01  0.56763827079E+02  0.64125805228E+02  0.00000000000E+00 0. -1.
          3    1    1    2  501    0 -0.28886522539E+02  0.72388869493E+01  0.35417507875E+02  0.46273453866E+02  0.00000000000E+00 0. -1.
<scales pt_clust_5="13000.00000" pt_clust_6="13000.00000" pt_clust_7="13000.00000" pt_clust_8="13000.00000" pt_clust_9="29.77974"></scales>
<clustering>
<clus scale="   29.780">  1  9  2 -1</clus>
<clus scale="   88.774">  7  8 -1 -1</clus>
<clus scale="   89.467">  1  7  2 -1</clus>
<clus scale="   91.135">  5  6 -1 -1</clus>
<clus scale="   29.780">  1  5  2 -1</clus>
</clustering>
</event>
<event>
 9    1  0.3231311E-005  0.1048597E+03  0.7546771E-02  0.1277204E+00
         21   -1    0    0  501  502  0.00000000000E+00  0.00000000000E+00  0.95609272652E+02  0.95609272652E+02  0.00000000000E+00 0. -1.
          2   -1    0    0  502    0 -0.00000000000E+00 -0.00000000000E+00 -0.20220062100E+03  0.20220062100E+03  0.00000000000E+00 0. -1.
         23    2    1    2    0    0 -0.78890919701E+01  0.28511786779E+02 -0.99425409220E+02  0.14702995077E+03  0.10419805501E+03 0.  0.
         23    2    1    2    0    0 -0.60423339102E+01  0.10281591766E+02 -0.37740788873E+02  0.99459067181E+02  0.91244276377E+02 0.  0.
        -13    1    3    3    0    0 -0.55479337840E+02  0.97858127194E+01 -0.61197220585E+02  0.83179437754E+02  0.00000000000E+00 0. -1.
         13    1    3    3    0    0  0.47590245870E+02  0.18725974060E+02 -0.38228188635E+02  0.63850513019E+02  0.00000000000E+00 0.  1.
        -13    1    4    4    0    0  0.17866911489E+02  0.19861560972E+02  0.21867537242E+02  0.34523865882E+02  0.00000000000E+00 0.  1.
         13    1    4    4    0    0 -0.23909245399E+02 -0.95799692065E+01 -0.59608326115E+02  0.64935201299E+02  0.00000000000E+00 0. -1.
          2    1    1    2  501    0  0.13931425880E+02 -0.38793378545E+02  0.30574849742E+02  0.51320875702E+02  0.00000000000E+00 0. -1.
<scales pt_clust_5="13000.00000" pt_clust_6="13000.00000" pt_clust_7="13000.00000" pt_clust_8="13000.00000" pt_clust_9="41.21906"></scales>
<clustering>
<clus scale="   41.219">  1  9  2 -1</clus>
<clus scale="   91.244">  7  8 -1 -1</clus>
<clus scale="   91.999">  1  7  2 -1</clus>
<clus scale="  104.198">  5  6 -1 -1</clus>
<clus scale="   41.219">  1  5  2 -1</clus>
</clustering>
</event>
<event>
 9    1  0.3231311E-005  0.1273539E+03  0.7546771E-02  0.1232350E+00
         21   -1    0    0  501  502  0.00000000000E+00  0.00000000000E+00  0.47583560022E+02  0.47583560022E+02  0.00000000000E+00 0.  1.
          2   -1    0    0  502    0 -0.00000000000E+00 -0.00000000000E+00 -0.52625261899E+03  0.52625261899E+03  0.00000000000E+00 0. -1.
         23    2    1    2    0    0 -0.65309804507E+02 -0.33000180903E+02 -0.17938009872E+03  0.21364855054E+03  0.90078303854E+02 0.  0.
         23    2    1    2    0    0  0.62266071941E+02  0.89301964069E+02 -0.22711779400E+03  0.26860251869E+03  0.93343002938E+02 0.  0.
        -13    1    4    4    0    0  0.37519725029E+02 -0.84615638026E+01 -0.94262345795E+02  0.10180725742E+03  0.00000000000E+00 0. -1.
         13    1    4    4    0    0  0.24746346912E+02  0.97763527871E+02 -0.13285544820E+03  0.16679526128E+03  0.00000000000E+00 0.  1.
        -13    1    3    3    0    0 -0.74004696117E+02 -0.13784302064E+02 -0.71828007853E+02  0.10404789639E+03  0.00000000000E+00 0.  1.
         13    1    3    3    0    0  0.86948916103E+01 -0.19215878839E+02 -0.10755209087E+03  0.10960065415E+03  0.00000000000E+00 0. -1.
          2    1    1    2  501    0  0.30437325656E+01 -0.56301783166E+02 -0.72171166247E+02  0.91585109778E+02  0.00000000000E+00 0. -1.
<scales pt_clust_5="13000.00000" pt_clust_6="13000.00000" pt_clust_7="13000.00000" pt_clust_8="13000.00000" pt_clust_9="56.38400"></scales>
<clustering>
<clus scale="   56.384">  1  9  2 -1</clus>
<clus scale="   90.078">  7  8 -1 -1</clus>
<clus scale="   93.343">  5  6 -1 -1</clus>
<clus scale="  124.981">  2  7  1 -1</clus>
<clus scale="   56.384">  1  5  2 -1</clus>
</clustering>
</event>
<event>
 9    1  0.3231311E-005  0.9770520E+02  0.7546771E-02  0.1286493E+00
         21   -1    0    0  501  502  0.00000000000E+00  0.00000000000E+00  0.47101016266E+03  0.47101016266E+03  0.00000000000E+00 0.  1.
          3   -1    0    0  502    0 -0.00000000000E+00 -0.00000000000E+00 -0.40297579720E+02  0.40297579720E+02  0.00000000000E+00 0. -1.
         23    2    1    2    0    0  0.69194622749E+01  0.20703936921E+02  0.80483846534E+02  0.12331223816E+03  0.90839014554E+02 0.  0.
         23    2    1    2    0    0  0.11874829908E+02 -0.66305698376E+02  0.18715334964E+03  0.21762435691E+03  0.88297945709E+02 0.  0.
        -11    1    4    4    0    0 -0.34472487183E+02 -0.52253474318E+02  0.10310821437E+03  0.12062371997E+03  0.00000000000E+00 0.  1.
         11    1    4    4    0    0  0.46347317091E+02 -0.14052224059E+02  0.84045135276E+02  0.97000636937E+02  0.00000000000E+00 0. -1.
        -11    1    3    3    0    0 -0.36619257172E+02 -0.10284217880E+02  0.46100722676E+02  0.59766309611E+02  0.00000000000E+00 0.  1.
         11    1    3    3    0    0  0.43538719447E+02  0.30988154801E+02  0.34383123858E+02  0.63545928550E+02  0.00000000000E+00 0. -1.
          3    1    1    2  501    0 -0.18794292183E+02  0.45601761455E+02  0.16307538676E+03  0.17037114730E+03  0.00000000000E+00 0. -1.
<scales pt_clust_5="13000.00000" pt_clust_6="13000.00000" pt_clust_7="13000.00000" pt_clust_8="13000.00000" pt_clust_9="49.32288"></scales>
<clustering>
<clus scale="   49.323">  1  9  2 -1</clus>
<clus scale="   88.298">  5  6 -1 -1</clus>
<clus scale="   90.839">  7  8 -1 -1</clus>
<clus scale="   95.347">  1  5  2 -1</clus>
<clus scale="   49.323">  1  5  2 -1</clus>
</clustering>
</event>
<event>
 9    1  0.3231311E-005  0.9858010E+02  0.7546771E-02  0.1283435E+00
         21   -1    0    0  501  502  0.00000000000E+00  0.00000000000E+00  0.33420992045E+02  0.33420992045E+02  0.00000000000E+00 0. -1.
          1   -1    0    0  502    0 -0.00000000000E+00 -0.00000000000E+00 -0.47548172089E+03  0.47548172089E+03  0.00000000000E+00 0. -1.
         23    2    1    2    0    0 -0.24617131338E+02 -0.13618280115E+02 -0.20541741357E+03  0.22682738879E+03  0.91993966087E+02 0.  0.
         23    2    1    2    0    0  0.18957101272E+02  0.42583953409E+02 -0.22978440720E+03  0.25177531112E+03  0.91745129133E+02 0.  0.
        -11    1    3    3    0    0  0.25035162385E+02 -0.33982474936E+02 -0.99762927197E+02  0.10832455678E+03  0.00000000000E+00 0.  1.
         11    1    3    3    0    0 -0.49652293722E+02  0.20364194822E+02 -0.10565448638E+03  0.11850283201E+03  0.00000000000E+00 0. -1.
        -11    1    4    4    0    0  0.18404413849E+02 -0.23448749421E+02 -0.12012488034E+03  0.12376814281E+03  0.00000000000E+00 0.  1.
         11    1    4    4    0    0  0.55268742307E+00  0.66032702830E+02 -0.10965952686E+03  0.12800716831E+03  0.00000000000E+00 0. -1.
          1    1    1    2  501    0  0.56600300652E+01 -0.28965673294E+02 -0.68589080740E+01  0.30300013031E+02  0.00000000000E+00 0. -1.
<scales pt_clust_5="13000.00000" pt_clust_6="13000.00000" pt_clust_7="13000.00000" pt_clust_8="13000.00000" pt_clust_9="29.51349"></scales>
<clustering>
<clus scale="   29.513">  1  9  2 -1</clus>
<clus scale="   91.745">  7  8 -1 -1</clus>
<clus scale="   91.994">  5  6 -1 -1</clus>
<clus scale="   98.348">  1  7  2 -1</clus>
<clus scale="   29.513">  1  5  2 -1</clus>
</clustering>
</event>
<event>
 9    1  0.3231311E-005  0.2522730E+03  0.7546771E-02  0.1111950E+00
          1   -1    0    0  502    0 -0.00000000000E+00  0.00000000000E+00  0.24551176885E+03  0.24551176885E+03  0.00000000000E+00 0. -1.
         21   -1    0    0  501  502  0.00000000000E+00 -0.00000000000E+00 -0.51000733359E+03  0.51000733359E+03  0.00000000000E+00 0. -1.
         23    2    1    2    0    0 -0.18075874125E+03 -0.12916627667E+03 -0.19166060293E+02  0.24100002979E+03  0.91411306323E+02 0.  0.
         23    2    1    2    0    0  0.17873504118E+03  0.17285043083E+03 -0.35657827542E-01  0.26535753494E+03  0.92688368721E+02 0.  0.
        -11    1    4    4    0    0  0.16969711862E+03  0.12138776370E+03 -0.19605653410E+02  0.20956259897E+03  0.00000000000E+00 0. -1.
         11    1    4    4    0    0  0.90379225598E+01  0.51462667137E+02  0.19569995582E+02  0.55794935972E+02  0.00000000000E+00 0.  1.
        -13    1    3    3    0    0 -0.13812048721E+03 -0.11790154355E+03 -0.48586765805E+02  0.18798594833E+03  0.00000000000E+00 0.  1.
         13    1    3    3    0    0 -0.42638254037E+02 -0.11264733118E+02  0.29420705511E+02  0.53014081453E+02  0.00000000000E+00 0. -1.
          1    1    1    2  501    0  0.20237000712E+01 -0.43684154164E+02 -0.24529384661E+03  0.24916153771E+03  0.00000000000E+00 0. -1.
<scales pt_clust_5="13000.00000" pt_clust_6="13000.00000" pt_clust_7="13000.00000" pt_clust_8="13000.00000" pt_clust_9="43.73100"></scales>
<clustering>
<clus scale="   43.731">  2  9  1 -1</clus>
<clus scale="   91.411">  7  8 -1 -1</clus>
<clus scale="   92.688">  5  6 -1 -1</clus>
<clus scale="  251.807">  1  7  2 -1</clus>
<clus scale="   43.731">  2  5  1 -1</clus>
</clustering>
</event>
<event>
 9    1  0.3231311E-005  0.1047608E+03  0.7546771E-02  0.1272393E+00
         -3   -1    0    0    0  501 -0.00000000000E+00  0.00000000000E+00  0.18056841084E+03  0.18056841084E+03  0.00000000000E+00 0.  1.
         21   -1    0    0  501  502  0.00000000000E+00 -0.00000000000E+00 -0.11932182228E+03  0.11932182228E+03  0.00000000000E+00 0.  1.
         23    2    1    2    0    0  0.37321921681E+02 -0.50177382040E+02  0.76647940506E+02  0.13244432836E+03  0.88067575323E+02 0.  0.
         23    2    1    2    0    0 -0.25656183925E+02  0.23721261578E+02  0.38875211796E+02  0.10594825343E+03  0.92156455488E+02 0.  0.
        -11    1    4    4    0    0 -0.54085233065E+02 -0.37068887145E+01  0.59781124389E+01  0.54540730541E+02  0.00000000000E+00 0. -1.
         11    1    4    4    0    0  0.28429049140E+02  0.27428150293E+02  0.32897099357E+02  0.51407522889E+02  0.00000000000E+00 0.  1.
        -11    1    3    3    0    0  0.61934644606E+02 -0.54540174079E+02  0.63974387347E+02  0.10441864310E+03  0.00000000000E+00 0.  1.
         11    1    3    3    0    0 -0.24612722925E+02  0.43627920393E+01  0.12673553159E+02  0.28025685252E+02  0.00000000000E+00 0. -1.
         -3    1    1    2    0  502 -0.11665737756E+02  0.26456120462E+02 -0.54276563742E+02  0.61497651329E+02  0.00000000000E+00 0.  1.
<scales pt_clust_5="13000.00000" pt_clust_6="13000.00000" pt_clust_7="13000.00000" pt_clust_8="13000.00000" pt_clust_9="28.91394"></scales>
<clustering>
<clus scale="   28.914">  2  9  1 -1</clus>
<clus scale="   88.068">  7  8 -1 -1</clus>
<clus scale="   92.156">  5  6 -1 -1</clus>
<clus scale="  101.183">  1  7  2 -1</clus>
<clus scale="   28.914">  2  5  1 -1</clus>
</clustering>
</event>
<event>
 9    1  0.3231311E-005  0.1819608E+03  0.7546771E-02  0.1166021E+00
          3   -1    0    0  502    0 -0.00000000000E+00  0.00000000000E+00  0.14494691701E+03  0.14494691701E+03  0.00000000000E+00 0. -1.
         21   -1    0    0  501  502  0.00000000000E+00 -0.00000000000E+00 -0.38198693175E+03  0.38198693175E+03  0.00000000000E+00 0.  1.
         23    2    1    2    0    0 -0.14875974866E+03 -0.59970768672E+02 -0.48191568632E+01  0.18443935014E+03  0.90932357784E+02 0.  0.
         23    2    1    2    0    0  0.15057155724E+03  0.30219830056E+02 -0.95979846000E+02  0.20303119049E+03  0.91785083174E+02 0.  0.
        -11    1    3    3    0    0 -0.37742189584E+02  0.23338369042E+02  0.78450809560E+01  0.45063262635E+02  0.00000000000E+00 0.  1.
         11    1    3    3    0    0 -0.11101755907E+03 -0.83309137713E+02 -0.12664237819E+02  0.13937608751E+03  0.00000000000E+00 0. -1.
        -13    1    4    4    0    0  0.22004611245E+02  0.44131975355E+02 -0.31650966317E+02  0.58597080418E+02  0.00000000000E+00 0.  1.
         13    1    4    4    0    0  0.12856694600E+03 -0.13912145299E+02 -0.64328879683E+02  0.14443411007E+03  0.00000000000E+00 0. -1.
          3    1    1    2  501    0 -0.18118085858E+01  0.29750938616E+02 -0.13624101187E+03  0.13946330813E+03  0.00000000000E+00 0. -1.
<scales pt_clust_5="13000.00000" pt_clust_6="13000.00000" pt_clust_7="13000.00000" pt_clust_8="13000.00000" pt_clust_9="29.80606"></scales>
<clustering>
<clus scale="   29.806">  2  9  1 -1</clus>
<clus scale="   90.932">  5  6 -1 -1</clus>
<clus scale="   91.785">  7  8 -1 -1</clus>
<clus scale="  181.532">  1  5  2 -1</clus>
<clus scale="   29.806">  2  5  1 -1</clus>
</clustering>
</event>
<event>
 9    1  0.3231311E-005  0.1404049E+03  0.7546771E-02  0.1217980E+00
          2   -1    0    0  502    0 -0.00000000000E+00  0.00000000000E+00  0.28508045787E+03  0.28508045787E+03  0.00000000000E+00 0. -1.
         21   -1    0    0  501  502  0.00000000000E+00 -0.00000000000E+00 -0.13873957740E+03  0.13873957740E+03  0.00000000000E+00 0.  1.
         23    2    1    2    0    0  0.27771215668E+02  0.72876714267E+02  0.12397675572E+03  0.18473989821E+03  0.11258924517E+03 0.  0.
         23    2    1    2    0    0 -0.85514599626E+02 -0.72975817095E+02 -0.42327643293E+02  0.15236604903E+03  0.93731354844E+02 0.  0.
        -11    1    3    3    0    0 -0.21332245950E+02  0.81265977924E+02  0.58109426029E+02  0.10215639617E+03  0.00000000000E+00 0.  1.
         11    1    3    3    0    0  0.49103461617E+02 -0.83892636568E+01  0.65867329694E+02  0.82583502036E+02  0.00000000000E+00 0. -1.
        -13    1    4    4    0    0  0.16439838674E+02 -0.15103758114E+02  0.94050233045E+01  0.24224910075E+02  0.00000000000E+00 0. -1.
         13    1    4    4    0    0 -0.10195443830E+03 -0.57872058981E+02 -0.51732666598E+02  0.12814113896E+03  0.00000000000E+00 0.  1.
          2    1    1    2  501    0  0.57743383958E+02  0.99102828248E-01  0.64691768039E+02  0.86714088038E+02  0.00000000000E+00 0. -1.
<scales pt_clust_5="13000.00000" pt_clust_6="13000.00000" pt_clust_7="13000.00000" pt_clust_8="13000.00000" pt_clust_9="57.74350"></scales>
<clustering>
<clus scale="   57.743">  2  9  1 -1</clus>
<clus scale="   93.731">  7  8 -1 -1</clus>
<clus scale="  112.589">  5  6 -1 -1</clus>
<clus scale="  125.789">  2  7  1 -1</clus>
<clus scale="   57.743">  2  5  1 -1</clus>
</clustering>
</event>
<event>
 9    1  0.3231311E-005  0.2358286E+03  0.7546771E-02  0.1123602E+00
          1   -1    0    0  502    0 -0.00000000000E+00  0.00000000000E+00  0.13920103828E+04  0.13920103828E+04  0.00000000000E+00 0. -1.
         21   -1    0    0  501  502  0.00000000000E+00 -0.00000000000E+00 -0.10061664248E+03  0.10061664248E+03  0.00000000000E+00 0.  1.
         23    2    1    2    0    0 -0.17290176245E+03 -0.12670123532E+03  0.10955759938E+04  0.11213058689E+04  0.10531795135E+03 0.  0.
         23    2    1    2    0    0  0.14702072284E+03  0.13665092059E+03  0.23562498353E+03  0.32280888404E+03  0.91639924210E+02 0.  0.
        -11    1    3    3    0    0 -0.39005533090E+02  0.13156583545E+02  0.12493026496E+03  0.13153744108E+03  0.00000000000E+00 0.  1.
         11    1    3    3    0    0 -0.13389622936E+03 -0.13985781887E+03  0.97064572883E+03  0.98976842778E+03  0.00000000000E+00 0. -1.
        -11    1    4    4    0    0  0.10107552841E+03  0.42760438922E+02  0.82019985859E+02  0.13701093263E+03  0.00000000000E+00 0.  1.
         11    1    4    4    0    0  0.45945194437E+02  0.93890481672E+02  0.15360499767E+03  0.18579795141E+03  0.00000000000E+00 0. -1.
          1    1    1    2  501    0  0.25881039603E+02 -0.99496852693E+01 -0.39807237033E+02  0.48512272345E+02  0.00000000000E+00 0. -1.
<scales pt_clust_5="13000.00000" pt_clust_6="13000.00000" pt_clust_7="13000.00000" pt_clust_8="13000.00000" pt_clust_9="27.72768"></scales>
<clustering>
<clus scale="   27.728">  2  9  1 -1</clus>
<clus scale="   91.640">  7  8 -1 -1</clus>
<clus scale="  105.318">  5  6 -1 -1</clus>
<clus scale="  230.046">  2  7  1 -1</clus>
<clus scale="   27.728">  2  5  1 -1</clus>
</clustering>
</event>
<event>
 9    1  0.3231311E-005  0.1252720E+03  0.7546771E-02  0.1236950E+00
          2   -1    0    0  502    0 -0.00000000000E+00  0.00000000000E+00  0.19405233487E+03  0.19405233487E+03  0.00000000000E+00 0. -1.
         21   -1    0    0  501  502  0.00000000000E+00 -0.00000000000E+00 -0.31614473907E+03  0.31614473907E+03  0.00000000000E+00 0. -1.
         23    2    1    2    0    0 -0.37890497243E+02 -0.88696725344E+02  0.12429743345E+03  0.17647086008E+03  0.79933182261E+02 0.  0.
         23    2    1    2    0    0 -0.57575444249E+02  0.68914399085E+02 -0.11872719388E+03  0.17309359876E+03  0.88323955889E+02 0.  0.
        -13    1    3    3    0    0 -0.44845494707E+02 -0.21392215962E+02  0.84348366550E+02  0.97894801899E+02  0.00000000000E+00 0. -1.
         13    1    3    3    0    0  0.69549974638E+01 -0.67304509382E+02  0.39949066905E+02  0.78576058182E+02  0.00000000000E+00 0.  1.
        -13    1    4    4    0    0 -0.68043648081E+02  0.20665595663E+02 -0.94021660334E+02  0.11788586641E+03  0.00000000000E+00 0. -1.
         13    1    4    4    0    0  0.10468203833E+02  0.48248803422E+02 -0.24705533547E+02  0.55207732348E+02  0.00000000000E+00 0.  1.
          2    1    1    2  501    0  0.95465941492E+02  0.19782326259E+02 -0.12766264378E+03  0.16063261510E+03  0.00000000000E+00 0. -1.
<scales pt_clust_5="13000.00000" pt_clust_6="13000.00000" pt_clust_7="13000.00000" pt_clust_8="13000.00000" pt_clust_9="97.49403"></scales>
<clustering>
<clus scale="   79.933">  5  6 -1 -1</clus>
<clus scale="   88.324">  7  8 -1 -1</clus>
<clus scale="   97.494">  2  9  1 -1</clus>
<clus scale="  119.504">  1  5  2 -1</clus>
<clus scale="   97.494">  2  5  1 -1</clus>
</clustering>
</event>
<event>
 9    1  0.3231311E-005  0.9877432E+02  0.7546771E-02  0.1284744E+00
         21   -1    0    0  501  502  0.00000000000E+00  0.00000000000E+00  0.60453382750E+02  0.60453382750E+02  0.00000000000E+00 0.  1.
          3   -1    0    0  502    0 -0.00000000000E+00 -0.00000000000E+00 -0.27595609297E+03  0.27595609297E+03  0.00000000000E+00 0. -1.
         23    2    1    2    0    0 -0.16953127388E+02 -0.20053246740E+02 -0.15178492027E+03  0.17764301057E+03  0.88480709482E+02 0.  0.
         23    2    1    2    0    0  0.32261122575E+02  0.50617829963E+02 -0.57269995595E+02  0.12397993735E+03  0.92131578358E+02 0.  0.
        -11    1    3    3    0    0 -0.13367361829E+02  0.32467525369E+02 -0.89200755168E+02  0.95862408109E+02  0.00000000000E+00 0.  1.
         11    1    3    3    0    0 -0.35857655591E+01 -0.52520772110E+02 -0.62584165101E+02  0.81780602462E+02  0.00000000000E+00 0. -1.
        -13    1    4    4    0    0  0.10335310181E+02  0.75768252330E+02 -0.42555129431E+02  0.87513346060E+02  0.00000000000E+00 0.  1.
         13    1    4    4    0    0  0.21925812393E+02 -0.25150422367E+02 -0.14714866164E+02  0.36466591294E+02  0.00000000000E+00 0. -1.
          3    1    1    2  501    0 -0.15307995187E+02 -0.30564583223E+02 -0.64477943599E+01  0.34786527799E+02  0.00000000000E+00 0. -1.
<scales pt_clust_5="13000.00000" pt_clust_6="13000.00000" pt_clust_7="13000.00000" pt_clust_8="13000.00000" pt_clust_9="34.18375"></scales>
<clustering>
<clus scale="   34.184">  1  9  2 -1</clus>
<clus scale="   88.481">  5  6 -1 -1</clus>
<clus scale="   92.132">  7  8 -1 -1</clus>
<clus scale="   95.378">  2  5  1 -1</clus>
<clus scale="   34.184">  1  5  2 -1</clus>
</clustering>
</event>
<event>
 9    1  0.3231311E-005  0.2101688E+03  0.7546771E-02  0.1141614E+00
          2   -1    0    0  502    0 -0.00000000000E+00  0.00000000000E+00  0.11795673411E+04  0.11795673411E+04  0.00000000000E+00 0. -1.
         21   -1    0    0  501  502  0.00000000000E+00 -0.00000000000E+00 -0.11986053711E+03  0.11986053711E+03  0.00000000000E+00 0. -1.
         23    2    1    2    0    0  0.94486016629E+02  0.15789339722E+03  0.61833038547E+03  0.65175149961E+03  0.92680199742E+02 0.  0.
         23    2    1    2    0    0 -0.11641571379E+03 -0.15650937263E+03  0.52175858418E+03  0.56434499383E+03  0.90583937604E+02 0.  0.
        -11    1    4    4    0    0 -0.45406495655E+02 -0.13144205432E+03  0.31627802992E+03  0.34550044240E+03  0.00000000000E+00 0. -1.
         11    1    4    4    0    0 -0.71009218134E+02 -0.25067318308E+02  0.20548055427E+03  0.21884455143E+03  0.00000000000E+00 0.  1.
        -13    1    3    3    0    0  0.19286619431E+02  0.10946551558E+03  0.26695418875E+03  0.28916986649E+03  0.00000000000E+00 0.  1.
         13    1    3    3    0    0  0.75199397198E+02  0.48427881631E+02  0.35137619671E+03  0.36258163312E+03  0.00000000000E+00 0. -1.
          2    1    1    2  501    0  0.21929697159E+02 -0.13840245839E+01 -0.80382165630E+02  0.83331384801E+02  0.00000000000E+00 0. -1.
<scales pt_clust_5="13000.00000" pt_clust_6="13000.00000" pt_clust_7="13000.00000" pt_clust_8="13000.00000" pt_clust_9="21.97333"></scales>
<clustering>
<clus scale="   21.973">  2  9  1 -1</clus>
<clus scale="   90.584">  5  6 -1 -1</clus>
<clus scale="   92.680">  7  8 -1 -1</clus>
<clus scale="  209.253">  2  5  1 -1</clus>
<clus scale="   21.973">  2  5  1 -1</clus>
</clustering>
</event>
<event>
 9    1  0.3542084E-005  0.9354871E+02  0.7546771E-02  0.1296028E+00
         21   -1    0    0  501  502  0.00000000000E+00  0.00000000000E+00  0.26158510912E+03  0.26158510912E+03  0.00000000000E+00 0. -1.
          1   -1    0    0  502    0 -0.00000000000E+00 -0.00000000000E+00 -0.17300253098E+03  0.17300253098E+03  0.00000000000E+00 0. -1.
         23    2    1    2    0    0  0.25900164972E+02 -0.42016629332E+01 -0.10579885841E+03  0.14292674119E+03  0.92445564462E+02 0.  0.
         23    2    1    2    0    0  0.33977912836E+02  0.23891871656E+02  0.13141748606E+02  0.99773137422E+02  0.89758861973E+02 0.  0.
        -13    1    4    4    0    0 -0.12834683016E+02  0.43028419043E+02  0.19207857008E+02  0.48837646383E+02  0.00000000000E+00 0.  1.
         13    1    4    4    0    0  0.46812595852E+02 -0.19136547386E+02 -0.60661084015E+01  0.50935491039E+02  0.00000000000E+00 0. -1.
        -13    1    3    3    0    0  0.58221959380E+02 -0.35212725392E+01 -0.89220221374E+02  0.10659476449E+03  0.00000000000E+00 0. -1.
         13    1    3    3    0    0 -0.32321794408E+02 -0.68039039397E+00 -0.16578637035E+02  0.36331976698E+02  0.00000000000E+00 0.  1.
          1    1    1    2  501    0 -0.59878077808E+02 -0.19690208723E+02  0.18123968794E+03  0.19188776148E+03  0.00000000000E+00 0. -1.
<scales pt_clust_5="13000.00000" pt_clust_6="13000.00000" pt_clust_7="13000.00000" pt_clust_8="13000.00000" pt_clust_9="63.03244"></scales>
<clustering>
<clus scale="   63.032">  1  9  2 -1</clus>
<clus scale="   89.759">  5  6 -1 -1</clus>
<clus scale="   90.895">  1  5  2 -1</clus>
<clus scale="   92.446">  7  8 -1 -1</clus>
<clus scale="   63.032">  1  5  2 -1</clus>
</clustering>
</event>
<event>
 9    1  0.3231311E-005  0.1019077E+03  0.7546771E-02  0.1278243E+00
         -1   -1    0    0    0  501 -0.00000000000E+00  0.00000000000E+00  0.30353964963E+03  0.30353964963E+03  0.00000000000E+00 0.  1.
         21   -1    0    0  501  502  0.00000000000E+00 -0.00000000000E+00 -0.58958260745E+02  0.58958260745E+02  0.00000000000E+00 0. -1.
         23    2    1    2    0    0 -0.54088042578E+02  0.22179389337E+02  0.15956875434E+03  0.19195772980E+03  0.89264444237E+02 0.  0.
         23    2    1    2    0    0  0.18773918996E+02  0.13656433615E+02  0.66739906939E+02  0.11701274738E+03  0.93267409405E+02 0.  0.
        -11    1    3    3    0    0 -0.29177336974E+02  0.96672857654E+01  0.78673982573E+00  0.30747233478E+02  0.00000000000E+00 0. -1.
         11    1    3    3    0    0 -0.24910705604E+02  0.12512103572E+02  0.15878201452E+03  0.16121049632E+03  0.00000000000E+00 0.  1.
        -13    1    4    4    0    0 -0.23634190448E+02  0.30356811618E+02  0.29120913297E+01  0.38582265947E+02  0.00000000000E+00 0. -1.
         13    1    4    4    0    0  0.42408109443E+02 -0.16700378003E+02  0.63827815609E+02  0.78430481430E+02  0.00000000000E+00 0.  1.
         -1    1    1    2    0  502  0.35314123583E+02 -0.35835822952E+02  0.18272727604E+02  0.53527433202E+02  0.00000000000E+00 0.  1.
<scales pt_clust_5="13000.00000" pt_clust_6="13000.00000" pt_clust_7="13000.00000" pt_clust_8="13000.00000" pt_clust_9="50.31196"></scales>
<clustering>
<clus scale="   50.312">  2  9  1 -1</clus>
<clus scale="   89.264">  5  6 -1 -1</clus>
<clus scale="   93.267">  7  8 -1 -1</clus>
<clus scale="   98.257">  1  5  2 -1</clus>
<clus scale="   50.312">  2  5  1 -1</clus>
</clustering>
</event>
<event>
 9    1  0.3231311E-005  0.1209019E+03  0.7546771E-02  0.1242163E+00
         -3   -1    0    0    0  501 -0.00000000000E+00  0.00000000000E+00  0.80828521683E+03  0.80828521683E+03  0.00000000000E+00 0.  1.
         21   -1    0    0  501  502  0.00000000000E+00 -0.00000000000E+00 -0.40809944454E+02  0.40809944454E+02  0.00000000000E+00 0.  1.
         23    2    1    2    0    0 -0.70555145411E+02 -0.52325294259E+02  0.51716024993E+03  0.53260776731E+03  0.92197314110E+02 0.  0.
         23    2    1    2    0    0  0.60031220207E+02  0.25579644001E+02  0.26254510738E+03  0.28525187273E+03  0.90446845719E+02 0.  0.
        -11    1    3    3    0    0  0.22674054398E+02 -0.11703101184E+02  0.94331860828E+02  0.97721928386E+02  0.00000000000E+00 0.  1.
         11    1    3    3    0    0 -0.93229199808E+02 -0.40622193075E+02  0.42282838910E+03  0.43488583893E+03  0.00000000000E+00 0. -1.
        -11    1    4    4    0    0  0.62507956589E+02  0.50760562863E+02  0.15382262901E+03  0.17362396314E+03  0.00000000000E+00 0. -1.
         11    1    4    4    0    0 -0.24767363826E+01 -0.25180918862E+02  0.10872247837E+03  0.11162790959E+03  0.00000000000E+00 0.  1.
         -3    1    1    2    0  502  0.10523925204E+02  0.26745650258E+02 -0.12230084938E+02  0.31235521238E+02  0.00000000000E+00 0.  1.
<scales pt_clust_5="13000.00000" pt_clust_6="13000.00000" pt_clust_7="13000.00000" pt_clust_8="13000.00000" pt_clust_9="28.74166"></scales>
<clustering>
<clus scale="   28.742">  2  9  1 -1</clus>
<clus scale="   90.447">  7  8 -1 -1</clus>
<clus scale="   92.197">  5  6 -1 -1</clus>
<clus scale="  119.572">  2  7  1 -1</clus>
<clus scale="   28.742">  2  5  1 -1</clus>
</clustering>
</event>
<event>
 9    1  0.3231311E-005  0.2137579E+03  0.7546771E-02  0.1138928E+00
          1   -1    0    0  502    0 -0.00000000000E+00  0.00000000000E+00  0.42923736875E+03  0.42923736875E+03  0.00000000000E+00 0. -1.
         21   -1    0    0  501  502  0.00000000000E+00 -0.00000000000E+00 -0.20790158349E+03  0.20790158349E+03  0.00000000000E+00 0. -1.
         23    2    1    2    0    0  0.38199884086E+01  0.21012048605E+03  0.22233295599E+03  0.31794992203E+03  0.86573660157E+02 0.  0.
         23    2    1    2    0    0 -0.93830845334E+02 -0.14406854131E+03 -0.44697683484E+02  0.19929512468E+03  0.90336546763E+02 0.  0.
        -11    1    3    3    0    0 -0.36503930304E+02  0.49072653273E+02  0.64263093705E+02  0.88715316825E+02  0.00000000000E+00 0.  1.
         11    1    3    3    0    0  0.40323918712E+02  0.16104783277E+03  0.15806986229E+03  0.22923460521E+03  0.00000000000E+00 0. -1.
        -11    1    4    4    0    0 -0.88147976416E+02 -0.52760448609E+02 -0.23195711919E+02  0.10531748067E+03  0.00000000000E+00 0. -1.
         11    1    4    4    0    0 -0.56828689176E+01 -0.91308092706E+02 -0.21501971565E+02  0.93977644011E+02  0.00000000000E+00 0.  1.
          1    1    1    2  501    0  0.90010856926E+02 -0.66051944730E+02  0.43700512751E+02  0.11989390552E+03  0.00000000000E+00 0. -1.
<scales pt_clust_5="13000.00000" pt_clust_6="13000.00000" pt_clust_7="13000.00000" pt_clust_8="13000.00000" pt_clust_9="111.64599"></scales>
<clustering>
<clus scale="   86.574">  5  6 -1 -1</clus>
<clus scale="   90.337">  7  8 -1 -1</clus>
<clus scale="  111.646">  2  9  1 -1</clus>
<clus scale="  212.195">  1  5  2 -1</clus>
<clus scale="  111.646">  2  5  1 -1</clus>
</clustering>
</event>
<event>
 9    1  0.3231311E-005  0.4125978E+03  0.7546771E-02  0.1084082E+00
          2   -1    0    0  502    0 -0.00000000000E+00  0.00000000000E+00  0.16740459624E+04  0.16740459624E+04  0.00000000000E+00 0. -1.
         21   -1    0    0  501  502  0.00000000000E+00 -0.00000000000E+00 -0.15067858909E+03  0.15067858909E+03  0.00000000000E+00 0. -1.
         23    2    1    2    0    0 -0.44301583842E+02 -0.62058010749E+02  0.80956860131E+02  0.14387960746E+03  0.91288012421E+02 0.  0.
         23    2    1    2    0    0  0.37594718746E+03  0.24526134123E+03  0.98845598119E+03  0.10895523060E+04  0.92680027204E+02 0.  0.
        -11    1    3    3    0    0 -0.52537245877E+02 -0.24872117083E+02  0.87686013028E+02  0.10520276276E+03  0.00000000000E+00 0. -1.
         11    1    3    3    0    0  0.82356620359E+01 -0.37185893666E+02 -0.67291528970E+01  0.38676844696E+02  0.00000000000E+00 0.  1.
        -13    1    4    4    0    0  0.22959511079E+03  0.13953406497E+03  0.69351365774E+03  0.74373709311E+03  0.00000000000E+00 0. -1.
         13    1    4    4    0    0  0.14635207666E+03  0.10572727626E+03  0.29494232344E+03  0.34581521286E+03  0.00000000000E+00 0.  1.
          2    1    1    2  501    0 -0.33164560362E+03 -0.18320333048E+03  0.45395453197E+03  0.59129263803E+03  0.00000000000E+00 0. -1.
<scales pt_clust_5="13000.00000" pt_clust_6="13000.00000" pt_clust_7="13000.00000" pt_clust_8="13000.00000" pt_clust_9="402.05388"></scales>
<clustering>
<clus scale="   91.288">  5  6 -1 -1</clus>
<clus scale="   92.680">  7  8 -1 -1</clus>
<clus scale="  118.943">  1  5  2 -1</clus>
<clus scale="  402.054">  2  9  1 -1</clus>
<clus scale="  402.054">  2  5  1 -1</clus>
</clustering>
</event>
<event>
 9    1  0.3231311E-005  0.1072538E+03  0.7546771E-02  0.1268092E+00
          2   -1    0    0  502    0 -0.00000000000E+00  0.00000000000E+00  0.45625952769E+03  0.45625952769E+03  0.00000000000E+00 0. -1.
         21   -1    0    0  501  502  0.00000000000E+00 -0.00000000000E+00 -0.50791729231E+02  0.50791729231E+02  0.00000000000E+00 0. -1.
         23    2    1    2    0    0  0.46765485055E+02 -0.14207271844E+02  0.31699148956E+03  0.33368504327E+03  0.92050238894E+02 0.  0.
         23    2    1    2    0    0 -0.73937912661E+02  0.17105470059E+02  0.89932469137E+02  0.14600089294E+03  0.86423374733E+02 0.  0.
        -11    1    4    4    0    0 -0.20746655178E+02 -0.32466802592E+02  0.14329101724E+02  0.41107665074E+02  0.00000000000E+00 0.  1.
         11    1    4    4    0    0 -0.53191257484E+02  0.49572272650E+02  0.75603367414E+02  0.10489322787E+03  0.00000000000E+00 0. -1.
        -11    1    3    3    0    0  0.13000618607E+02  0.37434633168E+02  0.16401263965E+03  0.16873207700E+03  0.00000000000E+00 0.  1.
         11    1    3    3    0    0  0.33764866448E+02 -0.51641905011E+02  0.15297884991E+03  0.16495296627E+03  0.00000000000E+00 0. -1.
          2    1    1    2  501    0  0.27172427606E+02 -0.28981982151E+01 -0.14561602402E+01  0.27365320710E+02  0.00000000000E+00 0. -1.
<scales pt_clust_5="13000.00000" pt_clust_6="13000.00000" pt_clust_7="13000.00000" pt_clust_8="13000.00000" pt_clust_9="27.32655"></scales>
<clustering>
<clus scale="   27.327">  2  9  1 -1</clus>
<clus scale="   86.423">  5  6 -1 -1</clus>
<clus scale="   92.050">  7  8 -1 -1</clus>
<clus scale="  102.465">  2  5  1 -1</clus>
<clus scale="   27.327">  2  5  1 -1</clus>
</clustering>
</event>
<event>
 9    1  0.3231311E-005  0.9304519E+02  0.7546771E-02  0.1297193E+00
          1   -1    0    0  502    0 -0.00000000000E+00  0.00000000000E+00  0.42799580117E+03  0.42799580117E+03  0.00000000000E+00 0. -1.
         21   -1    0    0  501  502  0.00000000000E+00 -0.00000000000E+00 -0.42737389106E+02  0.42737389106E+02  0.00000000000E+00 0.  1.
         23    2    1    2    0    0 -0.11443473708E+02  0.25594382667E+02  0.31124262122E+03  0.32522331694E+03  0.90067813918E+02 0.  0.
         23    2    1    2    0    0  0.19455145374E+02  0.28156459554E-01  0.77581464269E+02  0.11842822971E+03  0.87337612290E+02 0.  0.
        -13    1    3    3    0    0  0.38141850845E+02  0.13942819215E+02  0.10010930185E+03  0.10803275110E+03  0.00000000000E+00 0.  1.
         13    1    3    3    0    0 -0.49585324553E+02  0.11651563452E+02  0.21113331937E+03  0.21719056584E+03  0.00000000000E+00 0. -1.
        -13    1    4    4    0    0 -0.26736892793E+02 -0.20103896208E+02  0.52223548211E+02  0.62018763828E+02  0.00000000000E+00 0. -1.
         13    1    4    4    0    0  0.46192038167E+02  0.20132052668E+02  0.25357916059E+02  0.56409465885E+02  0.00000000000E+00 0.  1.
          1    1    1    2  501    0 -0.80116716654E+01 -0.25622539127E+02 -0.35656734270E+01  0.27081643620E+02  0.00000000000E+00 0. -1.
<scales pt_clust_5="13000.00000" pt_clust_6="13000.00000" pt_clust_7="13000.00000" pt_clust_8="13000.00000" pt_clust_9="26.84588"></scales>
<clustering>
<clus scale="   26.846">  2  9  1 -1</clus>
<clus scale="   87.338">  7  8 -1 -1</clus>
<clus scale="   90.068">  5  6 -1 -1</clus>
<clus scale="   90.405">  2  7  1 -1</clus>
<clus scale="   26.846">  2  5  1 -1</clus>
</clustering>
</event>
<event>
 9    1  0.3231311E-005  0.1785867E+03  0.7546771E-02  0.1169336E+00
          2   -1    0    0  502    0 -0.00000000000E+00  0.00000000000E+00  0.11409430025E+04  0.11409430025E+04  0.00000000000E+00 0. -1.
         21   -1    0    0  501  502  0.00000000000E+00 -0.00000000000E+00 -0.35589163495E+02  0.35589163495E+02  0.00000000000E+00 0. -1.
         23    2    1    2    0    0  0.10188567509E+03  0.12286309047E+03  0.75031315454E+03  0.77236936382E+03  0.90047623578E+02 0.  0.
         23    2    1    2    0    0 -0.78571467146E+02 -0.11789417279E+03  0.29851598090E+03  0.34281718662E+03  0.91319883692E+02 0.  0.
        -13    1    3    3    0    0 -0.61642095690E+00  0.22529708152E+02  0.27957581241E+02  0.35910918577E+02  0.00000000000E+00 0.  1.
         13    1    3    3    0    0  0.10250209605E+03  0.10033338232E+03  0.72235557330E+03  0.73645844525E+03  0.00000000000E+00 0. -1.
        -13    1    4    4    0    0 -0.40185779475E+02 -0.60167412406E+01  0.33711156393E+02  0.52797160080E+02  0.00000000000E+00 0.  1.
         13    1    4    4    0    0 -0.38385687671E+02 -0.11187743155E+03  0.26480482451E+03  0.29002002654E+03  0.00000000000E+00 0. -1.
          2    1    1    2  501    0 -0.23314207949E+02 -0.49689176798E+01  0.56524703609E+02  0.61345615599E+02  0.00000000000E+00 0. -1.
<scales pt_clust_5="13000.00000" pt_clust_6="13000.00000" pt_clust_7="13000.00000" pt_clust_8="13000.00000" pt_clust_9="23.83784"></scales>
<clustering>
<clus scale="   23.838">  2  9  1 -1</clus>
<clus scale="   90.048">  5  6 -1 -1</clus>
<clus scale="   91.320">  7  8 -1 -1</clus>
<clus scale="  177.939">  1  5  2 -1</clus>
<clus scale="   23.838">  2  5  1 -1</clus>
</clustering>
</event>
<event>
 9    1  0.3231311E-005  0.1064355E+03  0.7546771E-02  0.1271182E+00
          1   -1    0    0  502    0 -0.00000000000E+00  0.00000000000E+00  0.62604276349E+03  0.62604276349E+03  0.00000000000E+00 0. -1.
         21   -1    0    0  501  502  0.00000000000E+00 -0.00000000000E+00 -0.30343779732E+02  0.30343779732E+02  0.00000000000E+00 0.  1.
         23    2    1    2    0    0 -0.43180911413E+02  0.26780116304E+02  0.40137592432E+03  0.41655861924E+03  0.99180062995E+02 0.  0.
         23    2    1    2    0    0  0.36175399806E+01 -0.25699495634E+02  0.16645568404E+03  0.19142318546E+03  0.90894392080E+02 0.  0.
        -13    1    3    3    0    0 -0.31065758667E+02  0.61826874193E+02  0.19582920604E+03  0.20769381713E+03  0.00000000000E+00 0.  1.
         13    1    3    3    0    0 -0.12115152746E+02 -0.35046757889E+02  0.20554671828E+03  0.20886480211E+03  0.00000000000E+00 0. -1.
        -13    1    4    4    0    0  0.13050451724E+02  0.27348310698E+02  0.10689925025E+03  0.11111117898E+03  0.00000000000E+00 0.  1.
         13    1    4    4    0    0 -0.94329117436E+01 -0.53047806332E+02  0.59556433788E+02  0.80312006488E+02  0.00000000000E+00 0. -1.
          1    1    1    2  501    0  0.39563371432E+02 -0.10806206696E+01  0.27867375397E+02  0.48404738525E+02  0.00000000000E+00 0. -1.
<scales pt_clust_5="13000.00000" pt_clust_6="13000.00000" pt_clust_7="13000.00000" pt_clust_8="13000.00000" pt_clust_9="39.57813"></scales>
<clustering>
<clus scale="   39.578">  2  9  1 -1</clus>
<clus scale="   90.894">  7  8 -1 -1</clus>
<clus scale="   98.760">  2  7  1 -1</clus>
<clus scale="   99.180">  5  6 -1 -1</clus>
<clus scale="   39.578">  2  5  1 -1</clus>
</clustering>
</event>
<event>
 9    1  0.3231311E-005  0.2866377E+03  0.7546771E-02  0.1092225E+00
          1   -1    0    0  502    0 -0.00000000000E+00  0.00000000000E+00  0.82429633934E+03  0.82429633934E+03  0.00000000000E+00 0. -1.
         21   -1    0    0  501  502  0.00000000000E+00 -0.00000000000E+00 -0.19026552121E+03  0.19026552121E+03  0.00000000000E+00 0. -1.
         23    2    1    2    0    0  0.13754387441E+03  0.28118364570E+03  0.57767890289E+03  0.66320999096E+03  0.90288522354E+02 0.  0.
         23    2    1    2    0    0 -0.58254587526E+02 -0.19035353491E+03  0.73408270417E+02  0.22958233609E+03  0.87699541928E+02 0.  0.
        -11    1    4    4    0    0 -0.28039038183E+02 -0.89703232724E+02  0.81204596416E+02  0.12420565246E+03  0.00000000000E+00 0. -1.
         11    1    4    4    0    0 -0.30215549344E+02 -0.10065030219E+03 -0.77963259993E+01  0.10537668363E+03  0.00000000000E+00 0.  1.
        -13    1    3    3    0    0  0.10901173265E+03  0.24043995735E+03  0.40448183403E+03  0.48301188909E+03  0.00000000000E+00 0. -1.
         13    1    3    3    0    0  0.28532141756E+02  0.40743688342E+02  0.17319706886E+03  0.18019810186E+03  0.00000000000E+00 0.  1.
          1    1    1    2  501    0 -0.79289286880E+02 -0.90830110781E+02 -0.17056355173E+02  0.12176953351E+03  0.00000000000E+00 0. -1.
<scales pt_clust_5="13000.00000" pt_clust_6="13000.00000" pt_clust_7="13000.00000" pt_clust_8="13000.00000" pt_clust_9="120.56907"></scales>
<clustering>
<clus scale="   87.700">  5  6 -1 -1</clus>
<clus scale="   90.289">  7  8 -1 -1</clus>
<clus scale="  120.569">  2  9  1 -1</clus>
<clus scale="  285.833">  2  5  1 -1</clus>
<clus scale="  120.569">  2  5  1 -1</clus>
</clustering>
</event>
<event>
 9    1  0.3231311E-005  0.1003556E+03  0.7546771E-02  0.1280942E+00
         21   -1    0    0  501  502  0.00000000000E+00  0.00000000000E+00  0.11970304722E+03  0.11970304722E+03  0.00000000000E+00 0.  1.
         -1   -1    0    0    0  501 -0.00000000000E+00 -0.00000000000E+00 -0.29827460184E+03  0.29827460184E+03  0.00000000000E+00 0.  1.
         23    2    1    2    0    0 -0.32528500726E+02  0.33157574893E+02 -0.21045955805E+03  0.23359131572E+03  0.90078571668E+02 0.  0.
         23    2    1    2    0    0  0.71650868205E+01 -0.14500074310E+02 -0.42621054393E+02  0.10349749114E+03  0.92917090842E+02 0.  0.
        -13    1    3    3    0    0 -0.16198985986E+02  0.60098796216E+02 -0.17704267013E+03  0.18766560554E+03  0.00000000000E+00 0.  1.
         13    1    3    3    0    0 -0.16329514740E+02 -0.26941221323E+02 -0.33416887919E+02  0.45925710187E+02  0.00000000000E+00 0. -1.
        -13    1    4    4    0    0 -0.24227461103E+02  0.30006059640E+02 -0.26157569301E+02  0.46599913286E+02  0.00000000000E+00 0.  1.
         13    1    4    4    0    0  0.31392547923E+02 -0.44506133949E+02 -0.16463485092E+02  0.56897577853E+02  0.00000000000E+00 0. -1.
         -1    1    1    2    0  502  0.25363413906E+02 -0.18657500583E+02  0.74509057830E+02  0.80888842195E+02  0.00000000000E+00 0.  1.
<scales pt_clust_5="13000.00000" pt_clust_6="13000.00000" pt_clust_7="13000.00000" pt_clust_8="13000.00000" pt_clust_9="31.48659"></scales>
<clustering>
<clus scale="   31.487">  1  9  2 -1</clus>
<clus scale="   90.079">  5  6 -1 -1</clus>
<clus scale="   92.917">  7  8 -1 -1</clus>
<clus scale="   97.733">  2  5  1 -1</clus>
<clus scale="   31.487">  1  5  2 -1</clus>
</clustering>
</event>
<event>
 9    1  0.3231311E-005  0.1658266E+03  0.7546771E-02  0.1182300E+00
         -1   -1    0    0    0  501 -0.00000000000E+00  0.00000000000E+00  0.36444440174E+03  0.36444440174E+03  0.00000000000E+00 0.  1.
         21   -1    0    0  501  502  0.00000000000E+00 -0.00000000000E+00 -0.16934765943E+03  0.16934765943E+03  0.00000000000E+00 0.  1.
         23    2    1    2    0    0  0.12777011546E+03  0.33040587949E+02  0.17922467470E+03  0.24090875672E+03  0.92188188975E+02 0.  0.
         23    2    1    2    0    0 -0.16838037261E+03  0.18693512765E+02 -0.50478541109E+02  0.19945946681E+03  0.92382890666E+02 0.  0.
        -11    1    4    4    0    0 -0.15982446844E+02  0.34694712331E+02 -0.24379997216E+00  0.38199752738E+02  0.00000000000E+00 0. -1.
         11    1    4    4    0    0 -0.15239792577E+03 -0.16001199566E+02 -0.50234741137E+02  0.16125971408E+03  0.00000000000E+00 0.  1.
        -11    1    3    3    0    0  0.75268945528E+02  0.56707619568E+02  0.14784234779E+03  0.17532406589E+03  0.00000000000E+00 0.  1.
         11    1    3    3    0    0  0.52501169929E+02 -0.23667031619E+02  0.31382326910E+02  0.65584690835E+02  0.00000000000E+00 0. -1.
         -1    1    1    2    0  502  0.40610257157E+02 -0.51734100714E+02  0.66350608714E+02  0.93423837642E+02  0.00000000000E+00 0.  1.
<scales pt_clust_5="13000.00000" pt_clust_6="13000.00000" pt_clust_7="13000.00000" pt_clust_8="13000.00000" pt_clust_9="65.76940"></scales>
<clustering>
<clus scale="   65.769">  2  9  1 -1</clus>
<clus scale="   92.188">  7  8 -1 -1</clus>
<clus scale="   92.383">  5  6 -1 -1</clus>
<clus scale="  165.718">  1  7  2 -1</clus>
<clus scale="   65.769">  2  5  1 -1</clus>
</clustering>
</event>
<event>
 9    1  0.3231311E-005  0.1605295E+03  0.7546771E-02  0.1188332E+00
          1   -1    0    0  502    0 -0.00000000000E+00  0.00000000000E+00  0.31807914943E+03  0.31807914943E+03  0.00000000000E+00 0. -1.
         21   -1    0    0  501  502  0.00000000000E+00 -0.00000000000E+00 -0.32138805999E+03  0.32138805999E+03  0.00000000000E+00 0. -1.
         23    2    1    2    0    0 -0.81217646966E+02  0.12808869578E+03  0.24880992610E+03  0.30548533273E+03  0.91716350898E+02 0.  0.
         23    2    1    2    0    0  0.39238441881E+02 -0.48932031696E+02 -0.68088870906E+02  0.12929905030E+03  0.90267109289E+02 0.  0.
        -11    1    3    3    0    0 -0.26735885529E+02  0.10468643785E+03  0.10831779588E+03  0.15299281927E+03  0.00000000000E+00 0. -1.
         11    1    3    3    0    0 -0.54481761437E+02  0.23402257922E+02  0.14049213023E+03  0.15249251346E+03  0.00000000000E+00 0.  1.
        -11    1    4    4    0    0 -0.28530873069E+02 -0.47514059014E+01 -0.15576940150E+02  0.32851600274E+02  0.00000000000E+00 0. -1.
         11    1    4    4    0    0  0.67769314950E+02 -0.44180625795E+02 -0.52511930756E+02  0.96447450024E+02  0.00000000000E+00 0.  1.
          1    1    1    2  501    0  0.41979205085E+02 -0.79156664080E+02 -0.18402996575E+03  0.20468282640E+03  0.00000000000E+00 0. -1.
<scales pt_clust_5="13000.00000" pt_clust_6="13000.00000" pt_clust_7="13000.00000" pt_clust_8="13000.00000" pt_clust_9="89.59928"></scales>
<clustering>
<clus scale="   89.599">  2  9  1 -1</clus>
<clus scale="   90.267">  7  8 -1 -1</clus>
<clus scale="   91.716">  5  6 -1 -1</clus>
<clus scale="  159.706">  2  7  1 -1</clus>
<clus scale="   89.599">  2  5  1 -1</clus>
</clustering>
</event>
<event>
 9    1  0.3231311E-005  0.1370084E+03  0.7546771E-02  0.1217748E+00
          2   -1    0    0  502    0 -0.00000000000E+00  0.00000000000E+00  0.15217699706E+03  0.15217699706E+03  0.00000000000E+00 0. -1.
         21   -1    0    0  501  502  0.00000000000E+00 -0.00000000000E+00 -0.40721785981E+03  0.40721785981E+03  0.00000000000E+00 0. -1.
         23    2    1    2    0    0  0.10020123467E+03  0.46345806523E+02  0.60103507539E+02  0.15595495140E+03  0.92310855461E+02 0.  0.
         23    2    1    2    0    0 -0.84811328361E+02 -0.14261486394E+02 -0.48109574290E+02  0.13404459168E+03  0.90868421403E+02 0.  0.
        -13    1    4    4    0    0  0.19317374184E+02 -0.53676933736E+01 -0.32300070801E+01  0.20307782333E+02  0.00000000000E+00 0. -1.
         13    1    4    4    0    0 -0.10412870255E+03 -0.88937930203E+01 -0.44879567210E+02  0.11373680935E+03  0.00000000000E+00 0.  1.
        -13    1    3    3    0    0  0.10910583488E+03  0.19878840254E+02  0.63547895836E+02  0.12781856892E+03  0.00000000000E+00 0. -1.
         13    1    3    3    0    0 -0.89046002120E+01  0.26466966268E+02 -0.34443882965E+01  0.28136382481E+02  0.00000000000E+00 0.  1.
          2    1    1    2  501    0 -0.15389906312E+02 -0.32084320129E+02 -0.26703479600E+03  0.26939531379E+03  0.00000000000E+00 0. -1.
<scales pt_clust_5="13000.00000" pt_clust_6="13000.00000" pt_clust_7="13000.00000" pt_clust_8="13000.00000" pt_clust_9="35.58445"></scales>
<clustering>
<clus scale="   35.584">  2  9  1 -1</clus>
<clus scale="   90.868">  5  6 -1 -1</clus>
<clus scale="   92.311">  7  8 -1 -1</clus>
<clus scale="  136.041">  2  5  1 -1</clus>
<clus scale="   35.584">  2  5  1 -1</clus>
</clustering>
</event>
<event>
 9    1  0.3231311E-005  0.9477246E+02  0.7546771E-02  0.1292524E+00
         21   -1    0    0  501  502  0.00000000000E+00  0.00000000000E+00  0.54984791846E+02  0.54984791846E+02  0.00000000000E+00 0. -1.
          2   -1    0    0  502    0 -0.00000000000E+00 -0.00000000000E+00 -0.46738513930E+03  0.46738513930E+03  0.00000000000E+00 0. -1.
         23    2    1    2    0    0  0.16966745597E+02 -0.34780472299E+02 -0.25938648381E+03  0.27764876033E+03  0.91158841677E+02 0.  0.
         23    2    1    2    0    0 -0.13268178759E+01 -0.31234258966E+02 -0.22395647501E+02  0.97535334304E+02  0.89633905594E+02 0.  0.
        -11    1    4    4    0    0  0.39402509941E+02 -0.23323493389E+02  0.74973560767E+01  0.46397774533E+02  0.00000000000E+00 0. -1.
         11    1    4    4    0    0 -0.40729327817E+02 -0.79107655763E+01 -0.29893003577E+02  0.51137559770E+02  0.00000000000E+00 0.  1.
        -11    1    3    3    0    0  0.38446555431E+02  0.84766030616E+01 -0.18365723562E+03  0.18782963190E+03  0.00000000000E+00 0.  1.
         11    1    3    3    0    0 -0.21479809834E+02 -0.43257075361E+02 -0.75729248191E+02  0.89819128424E+02  0.00000000000E+00 0. -1.
          2    1    1    2  501    0 -0.15639927721E+02  0.66014731265E+02 -0.13061821614E+03  0.14718583652E+03  0.00000000000E+00 0. -1.
<scales pt_clust_5="13000.00000" pt_clust_6="13000.00000" pt_clust_7="13000.00000" pt_clust_8="13000.00000" pt_clust_9="67.84215"></scales>
<clustering>
<clus scale="   67.842">  1  9  2 -1</clus>
<clus scale="   89.634">  5  6 -1 -1</clus>
<clus scale="   91.159">  7  8 -1 -1</clus>
<clus scale="   93.307">  1  5  2 -1</clus>
<clus scale="   67.842">  1  5  2 -1</clus>
</clustering>
</event>
<event>
 9    1  0.3231311E-005  0.9536571E+02  0.7546771E-02  0.1293552E+00
         -1   -1    0    0    0  501 -0.00000000000E+00  0.00000000000E+00  0.24793768778E+03  0.24793768778E+03  0.00000000000E+00 0.  1.
         21   -1    0    0  501  502  0.00000000000E+00 -0.00000000000E+00 -0.86526120262E+02  0.86526120262E+02  0.00000000000E+00 0.  1.
         23    2    1    2    0    0 -0.12653169682E+01  0.47626130282E+01  0.12938004084E+03  0.15727380505E+03  0.89283656263E+02 0.  0.
         23    2    1    2    0    0 -0.29087203050E+02  0.18292849499E+01  0.74854327147E+02  0.12428895545E+03  0.94842830458E+02 0.  0.
        -11    1    4    4    0    0  0.14622949024E+02 -0.27324348421E+02 -0.21524617060E+01  0.31065797047E+02  0.00000000000E+00 0.  1.
         11    1    4    4    0    0 -0.43710152074E+02  0.29153633371E+02  0.77006788853E+02  0.93223158402E+02  0.00000000000E+00 0. -1.
        -13    1    3    3    0    0  0.13137165143E+01 -0.41628122519E+02  0.74641823788E+02  0.85475308095E+02  0.00000000000E+00 0.  1.
         13    1    3    3    0    0 -0.25790334825E+01  0.46390735547E+02  0.54738217055E+02  0.71798496953E+02  0.00000000000E+00 0. -1.
         -1    1    1    2    0  502  0.30352520019E+02 -0.65918979781E+01 -0.42822800476E+02  0.52901047542E+02  0.00000000000E+00 0.  1.
<scales pt_clust_5="13000.00000" pt_clust_6="13000.00000" pt_clust_7="13000.00000" pt_clust_8="13000.00000" pt_clust_9="31.06008"></scales>
<clustering>
<clus scale="   31.060">  2  9  1 -1</clus>
<clus scale="   89.284">  7  8 -1 -1</clus>
<clus scale="   89.839">  1  7  2 -1</clus>
<clus scale="   94.843">  5  6 -1 -1</clus>
<clus scale="   31.060">  2  5  1 -1</clus>
</clustering>
</event>
<event>
 9    1  0.3231311E-005  0.2203173E+03  0.7546771E-02  0.1144360E+00
         21   -1    0    0  501  502  0.00000000000E+00  0.00000000000E+00  0.13361866544E+04  0.13361866544E+04  0.00000000000E+00 0. -1.
          1   -1    0    0  502    0 -0.00000000000E+00 -0.00000000000E+00 -0.16993701871E+03  0.16993701871E+03  0.00000000000E+00 0. -1.
         23    2    1    2    0    0 -0.48645011969E+01 -0.12434657433E+03 -0.77471115340E+02  0.18688089990E+03  0.11591791542E+03 0.  0.
         23    2    1    2    0    0  0.20306778044E+03  0.70709959522E+02  0.62083015545E+03  0.66338141559E+03  0.91697321689E+02 0.  0.
        -11    1    4    4    0    0  0.99200283105E+02 -0.63287864539E+01  0.20359439783E+03  0.22656440262E+03  0.00000000000E+00 0.  1.
         11    1    4    4    0    0  0.10386749734E+03  0.77038745975E+02  0.41723575762E+03  0.43681701297E+03  0.00000000000E+00 0. -1.
        -11    1    3    3    0    0 -0.48156826953E+02 -0.12164147503E+02 -0.26259851623E+02  0.56183861330E+02  0.00000000000E+00 0.  1.
         11    1    3    3    0    0  0.43292325756E+02 -0.11218242683E+03 -0.51211263717E+02  0.13069703857E+03  0.00000000000E+00 0. -1.
          1    1    1    2  501    0 -0.19820327924E+03  0.53636614811E+02  0.62289059556E+03  0.65586135760E+03  0.00000000000E+00 0. -1.
<scales pt_clust_5="13000.00000" pt_clust_6="13000.00000" pt_clust_7="13000.00000" pt_clust_8="13000.00000" pt_clust_9="200.32803"></scales>
<clustering>
<clus scale="   91.697">  5  6 -1 -1</clus>
<clus scale="  115.918">  7  8 -1 -1</clus>
<clus scale="  170.067">  2  7  1 -1</clus>
<clus scale="  200.328">  1  9  2 -1</clus>
<clus scale="  200.328">  1  5  2 -1</clus>
</clustering>
</event>
<event>
 9    1  0.3231311E-005  0.1041464E+03  0.7546771E-02  0.1271917E+00
         -1   -1    0    0    0  501 -0.00000000000E+00  0.00000000000E+00  0.36055423993E+02  0.36055423993E+02  0.00000000000E+00 0.  1.
         21   -1    0    0  501  502  0.00000000000E+00 -0.00000000000E+00 -0.43653442981E+03  0.43653442981E+03  0.00000000000E+00 0.  1.
         23    2    1    2    0    0 -0.27957232035E+02  0.38774552793E+02 -0.13107112739E+03  0.16615097509E+03  0.90229891493E+02 0.  0.
         23    2    1    2    0    0  0.84145680179E+01 -0.58753454249E+02 -0.15746153703E+03  0.19105666357E+03  0.90475077840E+02 0.  0.
        -11    1    3    3    0    0 -0.50151272946E+02  0.38575024332E+02 -0.12922071932E+03  0.14387903594E+03  0.00000000000E+00 0.  1.
         11    1    3    3    0    0  0.22194040910E+02  0.19952846161E+00 -0.18504080731E+01  0.22271939151E+02  0.00000000000E+00 0. -1.
        -13    1    4    4    0    0  0.43582966904E+02 -0.32634130113E+02 -0.45936086642E+02  0.71236125024E+02  0.00000000000E+00 0.  1.
         13    1    4    4    0    0 -0.35168398887E+02 -0.26119324136E+02 -0.11152545039E+03  0.11982053855E+03  0.00000000000E+00 0. -1.
         -1    1    1    2    0  502  0.19542664018E+02  0.19978901456E+02 -0.11194634139E+03  0.11538221514E+03  0.00000000000E+00 0.  1.
<scales pt_clust_5="13000.00000" pt_clust_6="13000.00000" pt_clust_7="13000.00000" pt_clust_8="13000.00000" pt_clust_9="27.94767"></scales>
<clustering>
<clus scale="   27.948">  2  9  1 -1</clus>
<clus scale="   90.230">  5  6 -1 -1</clus>
<clus scale="   90.475">  7  8 -1 -1</clus>
<clus scale="  103.933">  1  5  2 -1</clus>
<clus scale="   27.948">  2  5  1 -1</clus>
</clustering>
</event>
<event>
 9    1  0.3231311E-005  0.1242549E+03  0.7546771E-02  0.1236382E+00
         -2   -1    0    0    0  501 -0.00000000000E+00  0.00000000000E+00  0.51362136702E+03  0.51362136702E+03  0.00000000000E+00 0.  1.
         21   -1    0    0  501  502  0.00000000000E+00 -0.00000000000E+00 -0.54643525057E+02  0.54643525057E+02  0.00000000000E+00 0.  1.
         23    2    1    2    0    0  0.69390231665E+02  0.25798509563E+02  0.25599924221E+03  0.28192081934E+03  0.91995483694E+02 0.  0.
         23    2    1    2    0    0 -0.11317588584E+03  0.70985654282E+01  0.13133646521E+03  0.19616648962E+03  0.91503299327E+02 0.  0.
        -11    1    3    3    0    0 -0.21491895772E+02  0.81050455122E+01  0.30725871649E+02  0.38362384379E+02  0.00000000000E+00 0.  1.
         11    1    3    3    0    0  0.90882127437E+02  0.17693464050E+02  0.22527337056E+03  0.24355843496E+03  0.00000000000E+00 0. -1.
        -13    1    4    4    0    0 -0.36647963575E+02  0.36339061647E+02  0.91543497091E+02  0.10508954513E+03  0.00000000000E+00 0.  1.
         13    1    4    4    0    0 -0.76527922268E+02 -0.29240496219E+02  0.39792968115E+02  0.91076944487E+02  0.00000000000E+00 0. -1.
         -2    1    1    2    0  502  0.43785654178E+02 -0.32897074991E+02  0.71642134543E+02  0.90177583116E+02  0.00000000000E+00 0.  1.
<scales pt_clust_5="13000.00000" pt_clust_6="13000.00000" pt_clust_7="13000.00000" pt_clust_8="13000.00000" pt_clust_9="54.76679"></scales>
<clustering>
<clus scale="   54.767">  2  9  1 -1</clus>
<clus scale="   91.503">  7  8 -1 -1</clus>
<clus scale="   91.995">  5  6 -1 -1</clus>
<clus scale="  123.891">  2  7  1 -1</clus>
<clus scale="   54.767">  2  5  1 -1</clus>
</clustering>
</event>
<event>
 9    1  0.3231311E-005  0.4600825E+03  0.7546771E-02  0.1073323E+00
          1   -1    0    0  502    0 -0.00000000000E+00  0.00000000000E+00  0.10241442441E+04  0.10241442441E+04  0.00000000000E+00 0. -1.
         21   -1    0    0  501  502  0.00000000000E+00 -0.00000000000E+00 -0.39839072721E+03  0.39839072721E+03  0.00000000000E+00 0. -1.
         23    2    1    2    0    0 -0.54469474928E+02 -0.57971632157E+02 -0.70663859655E+02  0.13472588956E+03  0.82644119108E+02 0.  0.
         23    2    1    2    0    0 -0.38146753103E+03  0.19954922487E+03  0.70302683904E+03  0.82941081284E+03  0.91313688303E+02 0.  0.
        -11    1    4    4    0    0 -0.28072741799E+03  0.10538576971E+03  0.51984440015E+03  0.60012685662E+03  0.00000000000E+00 0. -1.
         11    1    4    4    0    0 -0.10074011305E+03  0.94163455161E+02  0.18318243889E+03  0.22928395622E+03  0.00000000000E+00 0.  1.
        -13    1    3    3    0    0 -0.72032006983E+02 -0.23449019723E+02 -0.50670166721E+02  0.91136887984E+02  0.00000000000E+00 0.  1.
         13    1    3    3    0    0  0.17562532054E+02 -0.34522612435E+02 -0.19993692933E+02  0.43589001578E+02  0.00000000000E+00 0. -1.
          1    1    1    2  501    0  0.43593700596E+03 -0.14157759271E+03 -0.66094625162E+01  0.45839826889E+03  0.00000000000E+00 0. -1.
<scales pt_clust_5="13000.00000" pt_clust_6="13000.00000" pt_clust_7="13000.00000" pt_clust_8="13000.00000" pt_clust_9="450.92985"></scales>
<clustering>
<clus scale="   82.644">  7  8 -1 -1</clus>
<clus scale="   91.314">  5  6 -1 -1</clus>
<clus scale="  114.707">  1  7  2 -1</clus>
<clus scale="  450.930">  2  9  1 -1</clus>
<clus scale="  450.930">  2  5  1 -1</clus>
</clustering>
</event>
<event>
 9    1  0.3231311E-005  0.2175308E+03  0.7546771E-02  0.1136308E+00
          1   -1    0    0  502    0 -0.00000000000E+00  0.00000000000E+00  0.15864357203E+04  0.15864357203E+04  0.00000000000E+00 0. -1.
         21   -1    0    0  501  502  0.00000000000E+00 -0.00000000000E+00 -0.53337920918E+02  0.53337920918E+02  0.00000000000E+00 0. -1.
         23    2    1    2    0    0 -0.87675591413E+02  0.23608290219E+03  0.99755554538E+03  0.10328942062E+04  0.91275566484E+02 0.  0.
         23    2    1    2    0    0  0.50891675628E+02 -0.11750587092E+03  0.30048346904E+03  0.34104828336E+03  0.98112303354E+02 0.  0.
        -11    1    3    3    0    0  0.13881029336E+02  0.77383633533E+02  0.33219111624E+03  0.34136761332E+03  0.00000000000E+00 0.  1.
         11    1    3    3    0    0 -0.10155662075E+03  0.15869926865E+03  0.66536442913E+03  0.69152659287E+03  0.00000000000E+00 0. -1.
        -13    1    4    4    0    0  0.90547749084E+01 -0.10757086074E+03  0.15179243776E+03  0.18626439055E+03  0.00000000000E+00 0. -1.
         13    1    4    4    0    0  0.41836900719E+02 -0.99350101839E+01  0.14869103128E+03  0.15478389281E+03  0.00000000000E+00 0.  1.
          1    1    1    2  501    0  0.36783915785E+02 -0.11857703127E+03  0.23505878495E+03  0.26583115165E+03  0.00000000000E+00 0. -1.
<scales pt_clust_5="13000.00000" pt_clust_6="13000.00000" pt_clust_7="13000.00000" pt_clust_8="13000.00000" pt_clust_9="124.15139"></scales>
<clustering>
<clus scale="   91.276">  5  6 -1 -1</clus>
<clus scale="   98.112">  7  8 -1 -1</clus>
<clus scale="  124.151">  2  9  1 -1</clus>
<clus scale="  214.534">  1  5  2 -1</clus>
<clus scale="  124.151">  2  5  1 -1</clus>
</clustering>
</event>
<event>
 9    1  0.3231311E-005  0.1107152E+03  0.7546771E-02  0.1259675E+00
         -1   -1    0    0    0  501 -0.00000000000E+00  0.00000000000E+00  0.75491203835E+02  0.75491203835E+02  0.00000000000E+00 0.  1.
         21   -1    0    0  501  502  0.00000000000E+00 -0.00000000000E+00 -0.30825682053E+03  0.30825682053E+03  0.00000000000E+00 0. -1.
         23    2    1    2    0    0 -0.38844657443E+01 -0.61041862789E+02  0.17318698939E+01  0.10987288143E+03  0.91257068838E+02 0.  0.
         23    2    1    2    0    0 -0.17506081862E+02  0.68222247711E+02 -0.16476192491E+03  0.20058010888E+03  0.90139615010E+02 0.  0.
        -11    1    3    3    0    0  0.20207446990E+02  0.47207750754E+01  0.28190711076E+02  0.35004897116E+02  0.00000000000E+00 0.  1.
         11    1    3    3    0    0 -0.24091912734E+02 -0.65762637864E+02 -0.26458841182E+02  0.74867984311E+02  0.00000000000E+00 0. -1.
        -13    1    4    4    0    0 -0.43412652004E+02  0.16141472752E+02 -0.33975721219E+02  0.57441754229E+02  0.00000000000E+00 0. -1.
         13    1    4    4    0    0  0.25906570141E+02  0.52080774958E+02 -0.13078620369E+03  0.14313835465E+03  0.00000000000E+00 0.  1.
         -1    1    1    2    0  502  0.21390547607E+02 -0.71803849215E+01 -0.69735561677E+02  0.73295034054E+02  0.00000000000E+00 0.  1.
<scales pt_clust_5="13000.00000" pt_clust_6="13000.00000" pt_clust_7="13000.00000" pt_clust_8="13000.00000" pt_clust_9="22.56354"></scales>
<clustering>
<clus scale="   22.564">  2  9  1 -1</clus>
<clus scale="   90.140">  7  8 -1 -1</clus>
<clus scale="   91.257">  5  6 -1 -1</clus>
<clus scale="  109.796">  2  7  1 -1</clus>
<clus scale="   22.564">  2  5  1 -1</clus>
</clustering>
</event>
<event>
 9    1  0.3231311E-005  0.2142209E+03  0.7546771E-02  0.1157331E+00
         21   -1    0    0  501  502  0.00000000000E+00  0.00000000000E+00  0.45481772647E+03  0.45481772647E+03  0.00000000000E+00 0. -1.
         -1   -1    0    0    0  501 -0.00000000000E+00 -0.00000000000E+00 -0.26440540142E+03  0.26440540142E+03  0.00000000000E+00 0.  1.
         23    2    1    2    0    0 -0.65144584779E+02  0.76339862004E+02  0.45614499768E+02  0.14355142528E+03  0.91949647389E+02 0.  0.
         23    2    1    2    0    0  0.22407575002E+03  0.22649900181E+02 -0.10163371640E+03  0.26617761053E+03  0.98985596495E+02 0.  0.
        -13    1    4    4    0    0  0.16573001554E+03  0.54460718312E+02 -0.96901293005E+02  0.19955517652E+03  0.00000000000E+00 0. -1.
         13    1    4    4    0    0  0.58345734483E+02 -0.31810818131E+02 -0.47324233924E+01  0.66622434012E+02  0.00000000000E+00 0.  1.
        -13    1    3    3    0    0 -0.85541038272E+02  0.41222381474E+02  0.37759557080E+02  0.10218775912E+03  0.00000000000E+00 0.  1.
         13    1    3    3    0    0  0.20396453493E+02  0.35117480530E+02  0.78549426876E+01  0.41363666163E+02  0.00000000000E+00 0. -1.
         -1    1    1    2    0  502 -0.15893116524E+03 -0.98989762185E+02  0.24643154168E+03  0.30949409209E+03  0.00000000000E+00 0.  1.
<scales pt_clust_5="13000.00000" pt_clust_6="13000.00000" pt_clust_7="13000.00000" pt_clust_8="13000.00000" pt_clust_9="189.98017"></scales>
<clustering>
<clus scale="   91.950">  7  8 -1 -1</clus>
<clus scale="   98.986">  5  6 -1 -1</clus>
<clus scale="  136.112">  2  7  1 -1</clus>
<clus scale="  189.980">  1  9  2 -1</clus>
<clus scale="  189.980">  1  5  2 -1</clus>
</clustering>
</event>
<event>
 9    1  0.3231311E-005  0.1027596E+03  0.7546771E-02  0.1277184E+00
         21   -1    0    0  501  502  0.00000000000E+00  0.00000000000E+00  0.15892074865E+03  0.15892074865E+03  0.00000000000E+00 0.  1.
         -1   -1    0    0    0  501 -0.00000000000E+00 -0.00000000000E+00 -0.12917873736E+03  0.12917873736E+03  0.00000000000E+00 0.  1.
         23    2    1    2    0    0 -0.42826763383E+02  0.15044466229E+02 -0.47578446758E+02  0.11626012414E+03  0.95876171404E+02 0.  0.
         23    2    1    2    0    0  0.25513480336E+02 -0.25593343161E+01  0.25994005466E+01  0.94129229175E+02  0.90532132588E+02 0.  0.
        -11    1    3    3    0    0 -0.62562443339E+02  0.50483276088E+01  0.11161312658E+01  0.62775717258E+02  0.00000000000E+00 0.  1.
         11    1    3    3    0    0  0.19735679956E+02  0.99961386206E+01 -0.48694578024E+02  0.53484406883E+02  0.00000000000E+00 0. -1.
        -11    1    4    4    0    0 -0.16584995582E+02 -0.30028040444E+02 -0.19230557832E+02  0.39326322557E+02  0.00000000000E+00 0. -1.
         11    1    4    4    0    0  0.42098475917E+02  0.27468706128E+02  0.21829958378E+02  0.54802906617E+02  0.00000000000E+00 0.  1.
         -1    1    1    2    0  502  0.17313283047E+02 -0.12485131913E+02  0.74721057500E+02  0.77710132690E+02  0.00000000000E+00 0.  1.
<scales pt_clust_5="13000.00000" pt_clust_6="13000.00000" pt_clust_7="13000.00000" pt_clust_8="13000.00000" pt_clust_9="21.34545"></scales>
<clustering>
<clus scale="   21.345">  1  9  2 -1</clus>
<clus scale="   90.532">  7  8 -1 -1</clus>
<clus scale="   95.876">  5  6 -1 -1</clus>
<clus scale="   97.792">  1  7  2 -1</clus>
<clus scale="   21.345">  1  5  2 -1</clus>
</clustering>
</event>
<event>
 9    1  0.3231311E-005  0.1166135E+03  0.7546771E-02  0.1252051E+00
         21   -1    0    0  501  502  0.00000000000E+00  0.00000000000E+00  0.11504636123E+03  0.11504636123E+03  0.00000000000E+00 0.  1.
         -2   -1    0    0    0  501 -0.00000000000E+00 -0.00000000000E+00 -0.27366732247E+03  0.27366732247E+03  0.00000000000E+00 0.  1.
         23    2    1    2    0    0  0.37712910859E+01  0.41765200915E+02 -0.43078205354E+02  0.10967744296E+03  0.91732519173E+02 0.  0.
         23    2    1    2    0    0  0.52588079594E+02 -0.91023966144E+02 -0.48712871122E+01  0.14542868626E+03  0.10037382538E+03 0.  0.
        -11    1    3    3    0    0  0.21704432001E+02  0.10308396142E+02  0.23677434518E+02  0.33733756163E+02  0.00000000000E+00 0. -1.
         11    1    3    3    0    0 -0.17933140915E+02  0.31456804773E+02 -0.66755639872E+02  0.75943686797E+02  0.00000000000E+00 0.  1.
        -13    1    4    4    0    0  0.22150997139E+02 -0.10815967149E+03 -0.45397771223E+01  0.11049792210E+03  0.00000000000E+00 0.  1.
         13    1    4    4    0    0  0.30437082455E+02  0.17135705349E+02 -0.33150998990E+00  0.34930764163E+02  0.00000000000E+00 0. -1.
         -2    1    1    2    0  502 -0.56359370680E+02  0.49258765229E+02 -0.11067146877E+03  0.13360755449E+03  0.00000000000E+00 0.  1.
<scales pt_clust_5="13000.00000" pt_clust_6="13000.00000" pt_clust_7="13000.00000" pt_clust_8="13000.00000" pt_clust_9="74.85192"></scales>
<clustering>
<clus scale="   74.852">  1  9  2 -1</clus>
<clus scale="   91.733">  5  6 -1 -1</clus>
<clus scale="  100.374">  7  8 -1 -1</clus>
<clus scale="  109.264">  2  5  1 -1</clus>
<clus scale="   74.852">  1  5  2 -1</clus>
</clustering>
</event>
<event>
 9    1  0.3231311E-005  0.1059474E+03  0.7546771E-02  0.1271382E+00
          2   -1    0    0  502    0 -0.00000000000E+00  0.00000000000E+00  0.55730676816E+03  0.55730676816E+03  0.00000000000E+00 0. -1.
         21   -1    0    0  501  502  0.00000000000E+00 -0.00000000000E+00 -0.39656421000E+02  0.39656421000E+02  0.00000000000E+00 0.  1.
         23    2    1    2    0    0 -0.33343843747E+02 -0.26221553470E+02  0.33449253876E+03  0.34932093828E+03  0.91326215585E+02 0.  0.
         23    2    1    2    0    0  0.49721142427E+02 -0.21697019807E+02  0.99564947060E+02  0.14990703694E+03  0.98061146065E+02 0.  0.
        -13    1    3    3    0    0 -0.37893079678E+02  0.22357836951E+02  0.22767785326E+03  0.23188998086E+03  0.00000000000E+00 0. -1.
         13    1    3    3    0    0  0.45492359311E+01 -0.48579390420E+02  0.10681468551E+03  0.11743095742E+03  0.00000000000E+00 0.  1.
        -13    1    4    4    0    0  0.77857166512E+02 -0.11916154811E+02  0.54103281984E+02  0.95555733707E+02  0.00000000000E+00 0.  1.
         13    1    4    4    0    0 -0.28136024085E+02 -0.97808649958E+01  0.45461665076E+02  0.54351303231E+02  0.00000000000E+00 0. -1.
          2    1    1    2  501    0 -0.16377298680E+02  0.47918573276E+02  0.83592861331E+02  0.97735213933E+02  0.00000000000E+00 0. -1.
<scales pt_clust_5="13000.00000" pt_clust_6="13000.00000" pt_clust_7="13000.00000" pt_clust_8="13000.00000" pt_clust_9="50.63996"></scales>
<clustering>
<clus scale="   50.640">  2  9  1 -1</clus>
<clus scale="   91.326">  5  6 -1 -1</clus>
<clus scale="   98.061">  7  8 -1 -1</clus>
<clus scale="   99.746">  1  5  2 -1</clus>
<clus scale="   50.640">  2  5  1 -1</clus>
</clustering>
</event>
<event>
 9    1  0.3231311E-005  0.1403361E+03  0.7546771E-02  0.1212892E+00
         -1   -1    0    0    0  501 -0.00000000000E+00  0.00000000000E+00  0.25006971497E+03  0.25006971497E+03  0.00000000000E+00 0.  1.
         21   -1    0    0  501  502  0.00000000000E+00 -0.00000000000E+00 -0.12364233001E+03  0.12364233001E+03  0.00000000000E+00 0.  1.
         23    2    1    2    0    0 -0.10250792705E+03  0.65058849932E+02  0.13380350639E+03  0.20257151380E+03  0.91604098275E+02 0.  0.
         23    2    1    2    0    0  0.77917374829E+02 -0.25085054706E+02  0.35718455934E+01  0.12294864862E+03  0.91669159735E+02 0.  0.
        -11    1    4    4    0    0  0.28713055397E+02  0.30154168611E+02 -0.18769308661E+02  0.45672753174E+02  0.00000000000E+00 0. -1.
         11    1    4    4    0    0  0.49204319432E+02 -0.55239223317E+02  0.22341154255E+02  0.77275895446E+02  0.00000000000E+00 0.  1.
        -13    1    3    3    0    0 -0.90365056799E+02  0.39781632027E+02  0.43279076621E+02  0.10780306216E+03  0.00000000000E+00 0.  1.
         13    1    3    3    0    0 -0.12142870246E+02  0.25277217905E+02  0.90524429766E+02  0.94768451646E+02  0.00000000000E+00 0. -1.
         -1    1    1    2    0  502  0.24590552216E+02 -0.39973795225E+02 -0.10947967014E+02  0.48191882561E+02  0.00000000000E+00 0.  1.
<scales pt_clust_5="13000.00000" pt_clust_6="13000.00000" pt_clust_7="13000.00000" pt_clust_8="13000.00000" pt_clust_9="46.93186"></scales>
<clustering>
<clus scale="   46.932">  2  9  1 -1</clus>
<clus scale="   91.604">  7  8 -1 -1</clus>
<clus scale="   91.669">  5  6 -1 -1</clus>
<clus scale="  140.294">  1  7  2 -1</clus>
<clus scale="   46.932">  2  5  1 -1</clus>
</clustering>
</event>
<event>
 9    1  0.3231311E-005  0.1192882E+03  0.7546771E-02  0.1244291E+00
         -2   -1    0    0    0  501 -0.00000000000E+00  0.00000000000E+00  0.13043200003E+03  0.13043200003E+03  0.00000000000E+00 0.  1.
         21   -1    0    0  501  502  0.00000000000E+00 -0.00000000000E+00 -0.15509447130E+03  0.15509447130E+03  0.00000000000E+00 0.  1.
         23    2    1    2    0    0  0.19298872807E+02 -0.57047724273E+02 -0.13666950034E+02  0.10882946110E+03  0.89611253448E+02 0.  0.
         23    2    1    2    0    0 -0.18069413007E+02  0.98732337425E+02 -0.63413927743E+01  0.13473536754E+03  0.89659510732E+02 0.  0.
        -11    1    4    4    0    0 -0.13495839586E+02  0.48695775582E+02  0.41476062096E+02  0.65373388872E+02  0.00000000000E+00 0. -1.
         11    1    4    4    0    0 -0.45735734209E+01  0.50036561843E+02 -0.47817454870E+02  0.69361978671E+02  0.00000000000E+00 0.  1.
        -13    1    3    3    0    0 -0.11605730151E+02 -0.72459500535E+02 -0.10844547156E+02  0.74180026915E+02  0.00000000000E+00 0.  1.
         13    1    3    3    0    0  0.30904602958E+02  0.15411776263E+02 -0.28224028785E+01  0.34649434188E+02  0.00000000000E+00 0. -1.
         -2    1    1    2    0  502 -0.12294597998E+01 -0.41684613153E+02 -0.46541284532E+01  0.41961642684E+02  0.00000000000E+00 0.  1.
<scales pt_clust_5="13000.00000" pt_clust_6="13000.00000" pt_clust_7="13000.00000" pt_clust_8="13000.00000" pt_clust_9="41.70274"></scales>
<clustering>
<clus scale="   41.703">  2  9  1 -1</clus>
<clus scale="   89.611">  7  8 -1 -1</clus>
<clus scale="   89.660">  5  6 -1 -1</clus>
<clus scale="  119.252">  1  7  2 -1</clus>
<clus scale="   41.703">  2  5  1 -1</clus>
</clustering>
</event>
<event>
 9    1  0.3231311E-005  0.1089762E+03  0.7546771E-02  0.1265391E+00
          3   -1    0    0  502    0 -0.00000000000E+00  0.00000000000E+00  0.17237421798E+03  0.17237421798E+03  0.00000000000E+00 0. -1.
         21   -1    0    0  501  502  0.00000000000E+00 -0.00000000000E+00 -0.21728687670E+03  0.21728687670E+03  0.00000000000E+00 0.  1.
         23    2    1    2    0    0 -0.23301696371E+02 -0.52200157118E+02  0.13304142933E+03  0.16877708546E+03  0.86705577690E+02 0.  0.
         23    2    1    2    0    0 -0.24239984214E+01  0.44976266387E+02 -0.14485101529E+03  0.17834215458E+03  0.93783618854E+02 0.  0.
        -11    1    3    3    0    0 -0.18608196508E+02  0.18092987598E+02  0.11705284506E+02  0.28471650161E+02  0.00000000000E+00 0.  1.
         11    1    3    3    0    0 -0.46934998627E+01 -0.70293144716E+02  0.12133614482E+03  0.14030543530E+03  0.00000000000E+00 0. -1.
        -13    1    4    4    0    0 -0.40308900194E+02  0.46869505393E+02 -0.11302832062E+03  0.12882918626E+03  0.00000000000E+00 0.  1.
         13    1    4    4    0    0  0.37884901772E+02 -0.18932390061E+01 -0.31822694669E+02  0.49512968324E+02  0.00000000000E+00 0. -1.
          3    1    1    2  501    0  0.25725694792E+02  0.72238907309E+01 -0.33103072758E+02  0.42541854636E+02  0.00000000000E+00 0. -1.
<scales pt_clust_5="13000.00000" pt_clust_6="13000.00000" pt_clust_7="13000.00000" pt_clust_8="13000.00000" pt_clust_9="26.72070"></scales>
<clustering>
<clus scale="   26.721">  2  9  1 -1</clus>
<clus scale="   86.706">  5  6 -1 -1</clus>
<clus scale="   93.784">  7  8 -1 -1</clus>
<clus scale="  102.948">  1  5  2 -1</clus>
<clus scale="   26.721">  2  5  1 -1</clus>
</clustering>
</event>
<event>
 9    1  0.3231311E-005  0.1312490E+03  0.7546771E-02  0.1226380E+00
         21   -1    0    0  501  502  0.00000000000E+00  0.00000000000E+00  0.59893282215E+03  0.59893282215E+03  0.00000000000E+00 0.  1.
          2   -1    0    0  502    0 -0.00000000000E+00 -0.00000000000E+00 -0.14353296037E+03  0.14353296037E+03  0.00000000000E+00 0.  1.
         23    2    1    2    0    0 -0.77840954071E+02  0.64552070137E+02 -0.92307496378E+02  0.16458471689E+03  0.91330560360E+02 0.  0.
         23    2    1    2    0    0 -0.12846170436E+01 -0.55901485532E+02  0.29908168200E+03  0.31682472025E+03  0.88325673102E+02 0.  0.
        -13    1    4    4    0    0 -0.40385336165E+02 -0.37544582007E+02  0.21900989555E+03  0.22584487013E+03  0.00000000000E+00 0.  1.
         13    1    4    4    0    0  0.39100719122E+02 -0.18356903524E+02  0.80071786450E+02  0.90979850122E+02  0.00000000000E+00 0. -1.
        -13    1    3    3    0    0 -0.32502346226E+02  0.14408065972E+02 -0.90195822962E+02  0.96949890949E+02  0.00000000000E+00 0.  1.
         13    1    3    3    0    0 -0.45338607846E+02  0.50144004165E+02 -0.21116734157E+01  0.67634825938E+02  0.00000000000E+00 0. -1.
          2    1    1    2  501    0  0.79125571115E+02 -0.86505846051E+01  0.24862567616E+03  0.26105634538E+03  0.00000000000E+00 0.  1.
<scales pt_clust_5="13000.00000" pt_clust_6="13000.00000" pt_clust_7="13000.00000" pt_clust_8="13000.00000" pt_clust_9="79.59704"></scales>
<clustering>
<clus scale="   79.597">  1  9  2 -1</clus>
<clus scale="   88.326">  5  6 -1 -1</clus>
<clus scale="   91.331">  7  8 -1 -1</clus>
<clus scale="  129.176">  1  5  2 -1</clus>
<clus scale="   79.597">  1  5  2 -1</clus>
</clustering>
</event>
<event>
 9    1  0.3231311E-005  0.1155314E+03  0.7546771E-02  0.1250894E+00
         21   -1    0    0  501  502  0.00000000000E+00  0.00000000000E+00  0.73369425810E+02  0.73369425810E+02  0.00000000000E+00 0. -1.
         -3   -1    0    0    0  501 -0.00000000000E+00 -0.00000000000E+00 -0.28990455549E+03  0.28990455549E+03  0.00000000000E+00 0.  1.
         23    2    1    2    0    0 -0.10553244643E+02  0.64329811541E+02 -0.14196532035E+03  0.18073983480E+03  0.90901265532E+02 0.  0.
         23    2    1    2    0    0  0.35143711889E+02 -0.72496283066E+02 -0.90704894673E+02  0.15201000334E+03  0.91590783678E+02 0.  0.
        -11    1    4    4    0    0 -0.35843754966E+01 -0.25841044985E+02  0.15040765681E+02  0.30113651155E+02  0.00000000000E+00 0. -1.
         11    1    4    4    0    0  0.38728087386E+02 -0.46655238081E+02 -0.10574566035E+03  0.12189635219E+03  0.00000000000E+00 0.  1.
        -13    1    3    3    0    0 -0.15451036453E+02  0.87039962418E+02 -0.11693241664E+03  0.14658744710E+03  0.00000000000E+00 0.  1.
         13    1    3    3    0    0  0.48977918101E+01 -0.22710150877E+02 -0.25032903711E+02  0.34152387701E+02  0.00000000000E+00 0. -1.
         -3    1    1    2    0  502 -0.24590467246E+02  0.81664715252E+01  0.16135085345E+02  0.30524143159E+02  0.00000000000E+00 0.  1.
<scales pt_clust_5="13000.00000" pt_clust_6="13000.00000" pt_clust_7="13000.00000" pt_clust_8="13000.00000" pt_clust_9="25.91105"></scales>
<clustering>
<clus scale="   25.911">  1  9  2 -1</clus>
<clus scale="   90.901">  7  8 -1 -1</clus>
<clus scale="   91.591">  5  6 -1 -1</clus>
<clus scale="  114.986">  2  7  1 -1</clus>
<clus scale="   25.911">  1  5  2 -1</clus>
</clustering>
</event>
<event>
 9    1  0.3231311E-005  0.1368119E+03  0.7546771E-02  0.1218058E+00
         21   -1    0    0  501  502  0.00000000000E+00  0.00000000000E+00  0.10684567771E+03  0.10684567771E+03  0.00000000000E+00 0. -1.
          1   -1    0    0  502    0 -0.00000000000E+00 -0.00000000000E+00 -0.31475031043E+03  0.31475031043E+03  0.00000000000E+00 0. -1.
         23    2    1    2    0    0  0.39134594254E+02 -0.74187357275E+02 -0.11291298680E+03  0.16781111252E+03  0.91520196962E+02 0.  0.
         23    2    1    2    0    0 -0.36009855683E+02  0.11760768911E+03 -0.12694903175E+03  0.19978150798E+03  0.93103791667E+02 0.  0.
        -11    1    3    3    0    0 -0.16292896714E+02 -0.64291954904E+02 -0.47937357462E+02  0.81834614859E+02  0.00000000000E+00 0.  1.
         11    1    3    3    0    0  0.55427490968E+02 -0.98954023707E+01 -0.64975629334E+02  0.85976497663E+02  0.00000000000E+00 0. -1.
        -11    1    4    4    0    0 -0.65981650310E+02  0.94724461207E+02 -0.10557429121E+03  0.15643603387E+03  0.00000000000E+00 0. -1.
         11    1    4    4    0    0  0.29971794626E+02  0.22883227905E+02 -0.21374740546E+02  0.43345474111E+02  0.00000000000E+00 0.  1.
          1    1    1    2  501    0 -0.31247385711E+01 -0.43420331837E+02  0.31957385828E+02  0.54003367645E+02  0.00000000000E+00 0. -1.
<scales pt_clust_5="13000.00000" pt_clust_6="13000.00000" pt_clust_7="13000.00000" pt_clust_8="13000.00000" pt_clust_9="43.53262"></scales>
<clustering>
<clus scale="   43.533">  1  9  2 -1</clus>
<clus scale="   91.520">  5  6 -1 -1</clus>
<clus scale="   93.104">  7  8 -1 -1</clus>
<clus scale="  135.739">  2  5  1 -1</clus>
<clus scale="   43.533">  1  5  2 -1</clus>
</clustering>
</event>
<event>
 9    1  0.3231311E-005  0.1630866E+03  0.7546771E-02  0.1187573E+00
         -1   -1    0    0    0  501 -0.00000000000E+00  0.00000000000E+00  0.48288285913E+03  0.48288285913E+03  0.00000000000E+00 0.  1.
         21   -1    0    0  501  502  0.00000000000E+00 -0.00000000000E+00 -0.14865039802E+03  0.14865039802E+03  0.00000000000E+00 0.  1.
         23    2    1    2    0    0 -0.76123644087E+02 -0.13964516844E+03  0.35231274680E+03  0.39346378852E+03  0.73443168905E+02 0.  0.
         23    2    1    2    0    0  0.20364645657E+02  0.88607061548E+02  0.49378280141E+02  0.13675504535E+03  0.89430407185E+02 0.  0.
        -11    1    3    3    0    0 -0.61108468915E+02 -0.12611285834E+03  0.34428728345E+03  0.37171552504E+03  0.00000000000E+00 0.  1.
         11    1    3    3    0    0 -0.15015175172E+02 -0.13532310105E+02  0.80254633473E+01  0.21748263475E+02  0.00000000000E+00 0. -1.
        -11    1    4    4    0    0  0.18202983351E+01  0.29361066511E+02  0.66194923234E+02  0.72437238866E+02  0.00000000000E+00 0.  1.
         11    1    4    4    0    0  0.18544347322E+02  0.59245995037E+02 -0.16816643093E+02  0.64317806481E+02  0.00000000000E+00 0. -1.
         -1    1    1    2    0  502  0.55758998429E+02  0.51038106896E+02 -0.67458565829E+02  0.10131442328E+03  0.00000000000E+00 0.  1.
<scales pt_clust_5="13000.00000" pt_clust_6="13000.00000" pt_clust_7="13000.00000" pt_clust_8="13000.00000" pt_clust_9="75.59070"></scales>
<clustering>
<clus scale="   73.443">  5  6 -1 -1</clus>
<clus scale="   75.591">  2  9  1 -1</clus>
<clus scale="   89.430">  7  8 -1 -1</clus>
<clus scale="  154.898">  1  5  2 -1</clus>
<clus scale="   75.591">  2  5  1 -1</clus>
</clustering>
</event>
<event>
 9    1  0.3231311E-005  0.1155787E+03  0.7546771E-02  0.1250692E+00
          3   -1    0    0  502    0 -0.00000000000E+00  0.00000000000E+00  0.50083835158E+03  0.50083835158E+03  0.00000000000E+00 0. -1.
         21   -1    0    0  501  502  0.00000000000E+00 -0.00000000000E+00 -0.83737199170E+02  0.83737199170E+02  0.00000000000E+00 0.  1.
         23    2    1    2    0    0 -0.64887971434E+02  0.35008293534E+02  0.38459658875E+03  0.40194237291E+03  0.90593077083E+02 0.  0.
         23    2    1    2    0    0  0.74902719904E+02  0.22776438269E+02  0.31147529264E+02  0.12397133369E+03  0.90937007909E+02 0.  0.
        -11    1    4    4    0    0  0.66011328039E+02  0.41774697820E+02 -0.90383269071E+01  0.78640397766E+02  0.00000000000E+00 0.  1.
         11    1    4    4    0    0  0.88913918653E+01 -0.18998259551E+02  0.40185856171E+02  0.45330935921E+02  0.00000000000E+00 0. -1.
        -13    1    3    3    0    0  0.22330010155E+02  0.14754544030E+02  0.10507079606E+03  0.10842600292E+03  0.00000000000E+00 0.  1.
         13    1    3    3    0    0 -0.87217981589E+02  0.20253749503E+02  0.27952579268E+03  0.29351637000E+03  0.00000000000E+00 0. -1.
          3    1    1    2  501    0 -0.10014748470E+02 -0.57784731803E+02  0.13570343975E+01  0.58661844148E+02  0.00000000000E+00 0. -1.
<scales pt_clust_5="13000.00000" pt_clust_6="13000.00000" pt_clust_7="13000.00000" pt_clust_8="13000.00000" pt_clust_9="58.64615"></scales>
<clustering>
<clus scale="   58.646">  2  9  1 -1</clus>
<clus scale="   90.593">  7  8 -1 -1</clus>
<clus scale="   90.937">  5  6 -1 -1</clus>
<clus scale="  115.308">  1  7  2 -1</clus>
<clus scale="   58.646">  2  5  1 -1</clus>
</clustering>
</event>
<event>
 9    1  0.3231311E-005  0.1045886E+03  0.7546771E-02  0.1281998E+00
          1   -1    0    0  502    0 -0.00000000000E+00  0.00000000000E+00  0.28744869433E+03  0.28744869433E+03  0.00000000000E+00 0. -1.
         21   -1    0    0  501  502  0.00000000000E+00 -0.00000000000E+00 -0.53819797461E+02  0.53819797461E+02  0.00000000000E+00 0. -1.
         23    2    1    2    0    0 -0.34127175937E+02  0.16581462672E+02  0.14734143640E+03  0.16911655950E+03  0.73832938269E+02 0.  0.
         23    2    1    2    0    0  0.54389429317E+02  0.49548919831E+01  0.89777462487E+02  0.14237688236E+03  0.96064680737E+02 0.  0.
        -11    1    3    3    0    0  0.10451755099E+02 -0.19027550562E+02  0.19747288664E+02  0.29346929560E+02  0.00000000000E+00 0.  1.
         11    1    3    3    0    0 -0.44578931036E+02  0.35609013234E+02  0.12759414774E+03  0.13976962994E+03  0.00000000000E+00 0. -1.
        -13    1    4    4    0    0  0.77482853880E+01  0.28591079107E+02 -0.87043036617E+01  0.30874757216E+02  0.00000000000E+00 0.  1.
         13    1    4    4    0    0  0.46641143929E+02 -0.23636187123E+02  0.98481766148E+02  0.11150212515E+03  0.00000000000E+00 0. -1.
          1    1    1    2  501    0 -0.20262253380E+02 -0.21536354655E+02 -0.34900020251E+01  0.29775049924E+02  0.00000000000E+00 0. -1.
<scales pt_clust_5="13000.00000" pt_clust_6="13000.00000" pt_clust_7="13000.00000" pt_clust_8="13000.00000" pt_clust_9="29.56981"></scales>
<clustering>
<clus scale="   29.570">  2  9  1 -1</clus>
<clus scale="   73.833">  5  6 -1 -1</clus>
<clus scale="   84.627">  1  5  2 -1</clus>
<clus scale="   96.065">  7  8 -1 -1</clus>
<clus scale="   29.570">  2  5  1 -1</clus>
</clustering>
</event>
<event>
 9    1  0.3231311E-005  0.1484327E+03  0.7546771E-02  0.1220468E+00
          1   -1    0    0  502    0 -0.00000000000E+00  0.00000000000E+00  0.14495945080E+03  0.14495945080E+03  0.00000000000E+00 0. -1.
         21   -1    0    0  501  502  0.00000000000E+00 -0.00000000000E+00 -0.25149076479E+03  0.25149076479E+03  0.00000000000E+00 0. -1.
         23    2    1    2    0    0  0.45800446676E+02  0.27686601659E+01 -0.14322356690E+02  0.10204770494E+03  0.90018096997E+02 0.  0.
         23    2    1    2    0    0  0.15978292760E+01  0.11025835619E+03 -0.37566069499E+01  0.14325516111E+03  0.91369967283E+02 0.  0.
        -11    1    3    3    0    0  0.52959880542E+02  0.24868075878E+02  0.18921691509E+02  0.61491467331E+02  0.00000000000E+00 0.  1.
         11    1    3    3    0    0 -0.71594338662E+01 -0.22099415712E+02 -0.33244048199E+02  0.40556237606E+02  0.00000000000E+00 0. -1.
        -11    1    4    4    0    0 -0.38672578002E+02  0.61155335763E+02  0.20612199813E+02  0.75235670814E+02  0.00000000000E+00 0. -1.
         11    1    4    4    0    0  0.40270407278E+02  0.49103020426E+02 -0.24368806762E+02  0.68019490297E+02  0.00000000000E+00 0.  1.
          1    1    1    2  501    0 -0.47398275952E+02 -0.11302701636E+03 -0.88452350349E+02  0.15114734954E+03  0.00000000000E+00 0. -1.
<scales pt_clust_5="13000.00000" pt_clust_6="13000.00000" pt_clust_7="13000.00000" pt_clust_8="13000.00000" pt_clust_9="116.97778"></scales>
<clustering>
<clus scale="   90.018">  5  6 -1 -1</clus>
<clus scale="   91.370">  7  8 -1 -1</clus>
<clus scale="  101.038">  1  5  2 -1</clus>
<clus scale="  116.978">  2  9  1 -1</clus>
<clus scale="  116.978">  2  5  1 -1</clus>
</clustering>
</event>
<event>
 9    1  0.3231311E-005  0.1569060E+03  0.7546771E-02  0.1192250E+00
          1   -1    0    0  502    0 -0.00000000000E+00  0.00000000000E+00  0.10629566164E+03  0.10629566164E+03  0.00000000000E+00 0. -1.
         21   -1    0    0  501  502  0.00000000000E+00 -0.00000000000E+00 -0.33058883195E+03  0.33058883195E+03  0.00000000000E+00 0.  1.
         23    2    1    2    0    0  0.10668839395E+03 -0.94607395149E+02 -0.38757981807E+02  0.17442589467E+03  0.92678147152E+02 0.  0.
         23    2    1    2    0    0 -0.86278933343E+02  0.59351026131E+02 -0.11541723100E+03  0.18136553138E+03  0.92767020640E+02 0.  0.
        -13    1    3    3    0    0  0.32178612912E+02 -0.12703944828E+02 -0.52477377840E+02  0.62854821041E+02  0.00000000000E+00 0. -1.
         13    1    3    3    0    0  0.74509781033E+02 -0.81903450321E+02  0.13719396032E+02  0.11157107363E+03  0.00000000000E+00 0.  1.
        -13    1    4    4    0    0 -0.10084491936E+03  0.34399174093E+02 -0.69830990726E+02  0.12739453758E+03  0.00000000000E+00 0. -1.
         13    1    4    4    0    0  0.14565986021E+02  0.24951852038E+02 -0.45586240279E+02  0.53970993799E+02  0.00000000000E+00 0.  1.
          1    1    1    2  501    0 -0.20409460602E+02  0.35256369018E+02 -0.70117957504E+02  0.81093067539E+02  0.00000000000E+00 0. -1.
<scales pt_clust_5="13000.00000" pt_clust_6="13000.00000" pt_clust_7="13000.00000" pt_clust_8="13000.00000" pt_clust_9="40.73767"></scales>
<clustering>
<clus scale="   40.738">  2  9  1 -1</clus>
<clus scale="   92.678">  5  6 -1 -1</clus>
<clus scale="   92.767">  7  8 -1 -1</clus>
<clus scale="  156.853">  1  5  2 -1</clus>
<clus scale="   40.738">  2  5  1 -1</clus>
</clustering>
</event>
<event>
 9    1  0.3231311E-005  0.9264330E+02  0.7546771E-02  0.1297263E+00
         21   -1    0    0  501  502  0.00000000000E+00  0.00000000000E+00  0.29416264397E+03  0.29416264397E+03  0.00000000000E+00 0.  1.
         -1   -1    0    0    0  501 -0.00000000000E+00 -0.00000000000E+00 -0.34037377407E+03  0.34037377407E+03  0.00000000000E+00 0.  1.
         23    2    1    2    0    0  0.10617594990E+02 -0.29805756497E+02 -0.20222206836E+03  0.22409210089E+03  0.91227124825E+02 0.  0.
         23    2    1    2    0    0 -0.64996440035E+01 -0.11281845559E+02 -0.10914918704E+03  0.14208813479E+03  0.90033147261E+02 0.  0.
        -11    1    4    4    0    0  0.17443584584E+02  0.26938092825E+02 -0.85156230892E+02  0.91002874394E+02  0.00000000000E+00 0.  1.
         11    1    4    4    0    0 -0.23943228588E+02 -0.38219938383E+02 -0.23992956148E+02  0.51085260398E+02  0.00000000000E+00 0. -1.
        -11    1    3    3    0    0 -0.31218548386E+02 -0.42209558103E+02 -0.99930372294E+02  0.11288190229E+03  0.00000000000E+00 0. -1.
         11    1    3    3    0    0  0.41836143376E+02  0.12403801606E+02 -0.10229169607E+03  0.11121019859E+03  0.00000000000E+00 0.  1.
         -1    1    1    2    0  502 -0.41179509862E+01  0.41087602056E+02  0.26516012530E+03  0.26835618236E+03  0.00000000000E+00 0.  1.
<scales pt_clust_5="13000.00000" pt_clust_6="13000.00000" pt_clust_7="13000.00000" pt_clust_8="13000.00000" pt_clust_9="41.29344"></scales>
<clustering>
<clus scale="   41.293">  1  9  2 -1</clus>
<clus scale="   90.033">  5  6 -1 -1</clus>
<clus scale="   91.227">  7  8 -1 -1</clus>
<clus scale="   91.468">  1  5  2 -1</clus>
<clus scale="   41.293">  1  5  2 -1</clus>
</clustering>
</event>
<event>
 9    1  0.3758063E-005  0.1217140E+03  0.7546771E-02  0.1241664E+00
          1   -1    0    0  502    0 -0.00000000000E+00  0.00000000000E+00  0.33179325478E+03  0.33179325478E+03  0.00000000000E+00 0. -1.
         21   -1    0    0  501  502  0.00000000000E+00 -0.00000000000E+00 -0.33450708898E+03  0.33450708898E+03  0.00000000000E+00 0.  1.
         23    2    1    2    0    0  0.74878896640E+02 -0.23817853468E+02  0.20242044077E+03  0.23589093422E+03  0.92175694727E+02 0.  0.
         23    2    1    2    0    0 -0.22893565707E+02 -0.76131544360E+02 -0.27204814612E+03  0.29937573865E+03  0.96413233988E+02 0.  0.
        -11    1    3    3    0    0  0.89162151945E+02  0.11969535475E+01  0.17349591420E+03  0.19506961393E+03  0.00000000000E+00 0. -1.
         11    1    3    3    0    0 -0.14283255306E+02 -0.25014807015E+02  0.28924526571E+02  0.40821320281E+02  0.00000000000E+00 0.  1.
        -11    1    4    4    0    0 -0.16931346714E+02  0.17588352105E+02 -0.10440770940E+03  0.10722401976E+03  0.00000000000E+00 0.  1.
         11    1    4    4    0    0 -0.59622189926E+01 -0.93719896466E+02 -0.16764043671E+03  0.19215171888E+03  0.00000000000E+00 0. -1.
          1    1    1    2  501    0 -0.51985330933E+02  0.99949397828E+02  0.66913871146E+02  0.13103367090E+03  0.00000000000E+00 0. -1.
<scales pt_clust_5="13000.00000" pt_clust_6="13000.00000" pt_clust_7="13000.00000" pt_clust_8="13000.00000" pt_clust_9="112.66042"></scales>
<clustering>
<clus scale="   92.176">  5  6 -1 -1</clus>
<clus scale="   96.413">  7  8 -1 -1</clus>
<clus scale="  112.660">  2  9  1 -1</clus>
<clus scale="  118.386">  1  5  2 -1</clus>
<clus scale="  112.660">  2  5  1 -1</clus>
</clustering>
</event>
<event>
 9    1  0.3231311E-005  0.1559765E+03  0.7546771E-02  0.1194697E+00
          1   -1    0    0  502    0 -0.00000000000E+00  0.00000000000E+00  0.16933227158E+03  0.16933227158E+03  0.00000000000E+00 0. -1.
         21   -1    0    0  501  502  0.00000000000E+00 -0.00000000000E+00 -0.35258413459E+03  0.35258413459E+03  0.00000000000E+00 0.  1.
         23    2    1    2    0    0  0.80737421289E+02 -0.97144865389E+02  0.10020432749E+03  0.18495626928E+03  0.90621510849E+02 0.  0.
         23    2    1    2    0    0 -0.64332586926E+02  0.11649301576E+03 -0.25061801313E+03  0.29546537329E+03  0.82347397321E+02 0.  0.
        -11    1    4    4    0    0 -0.33574626660E+02  0.11917356304E+03 -0.18085859487E+03  0.21917897942E+03  0.00000000000E+00 0.  1.
         11    1    4    4    0    0 -0.30757960266E+02 -0.26805472726E+01 -0.69759418256E+02  0.76286393864E+02  0.00000000000E+00 0. -1.
        -11    1    3    3    0    0  0.71171612999E+02 -0.45640975145E+02  0.16397182298E+02  0.86124123776E+02  0.00000000000E+00 0. -1.
         11    1    3    3    0    0  0.95658082900E+01 -0.51503890245E+02  0.83807145192E+02  0.98832145499E+02  0.00000000000E+00 0.  1.
          1    1    1    2  501    0 -0.16404834363E+02 -0.19348150373E+02 -0.32838177375E+02  0.41494763606E+02  0.00000000000E+00 0. -1.
<scales pt_clust_5="13000.00000" pt_clust_6="13000.00000" pt_clust_7="13000.00000" pt_clust_8="13000.00000" pt_clust_9="25.36670"></scales>
<clustering>
<clus scale="   25.367">  2  9  1 -1</clus>
<clus scale="   82.347">  5  6 -1 -1</clus>
<clus scale="   90.622">  7  8 -1 -1</clus>
<clus scale="  151.319">  2  5  1 -1</clus>
<clus scale="   25.367">  2  5  1 -1</clus>
</clustering>
</event>
<event>
 9    1  0.3231311E-005  0.9770118E+02  0.7546771E-02  0.1285494E+00
         21   -1    0    0  501  502  0.00000000000E+00  0.00000000000E+00  0.97182179382E+02  0.97182179382E+02  0.00000000000E+00 0.  1.
         -1   -1    0    0    0  501 -0.00000000000E+00 -0.00000000000E+00 -0.46642782452E+03  0.46642782452E+03  0.00000000000E+00 0.  1.
         23    2    1    2    0    0 -0.70146490698E+01 -0.48849996312E+02 -0.36303231858E+03  0.37731450744E+03  0.90212226151E+02 0.  0.
         23    2    1    2    0    0 -0.85573871608E+00 -0.35135367697E+02 -0.23602082532E+02  0.10016853665E+03  0.90782438187E+02 0.  0.
        -13    1    3    3    0    0 -0.51158751444E+01 -0.75651129635E+02 -0.25926938497E+03  0.27012937562E+03  0.00000000000E+00 0.  1.
         13    1    3    3    0    0 -0.18987739254E+01  0.26801133322E+02 -0.10376293362E+03  0.10718513182E+03  0.00000000000E+00 0. -1.
        -13    1    4    4    0    0 -0.29095557131E+02 -0.43340043520E+02  0.12429054841E+02  0.53659968518E+02  0.00000000000E+00 0.  1.
         13    1    4    4    0    0  0.28239818415E+02  0.82046758232E+01 -0.36031137373E+02  0.46508568134E+02  0.00000000000E+00 0. -1.
         -1    1    1    2    0  502  0.78703877859E+01  0.83985364009E+02  0.17388755979E+02  0.86126959810E+02  0.00000000000E+00 0.  1.
<scales pt_clust_5="13000.00000" pt_clust_6="13000.00000" pt_clust_7="13000.00000" pt_clust_8="13000.00000" pt_clust_9="84.35333"></scales>
<clustering>
<clus scale="   84.353">  1  9  2 -1</clus>
<clus scale="   90.212">  5  6 -1 -1</clus>
<clus scale="   90.782">  7  8 -1 -1</clus>
<clus scale="   97.172">  2  5  1 -1</clus>
<clus scale="   84.353">  1  5  2 -1</clus>
</clustering>
</event>
<event>
 9    1  0.3231311E-005  0.1108773E+03  0.7546771E-02  0.1259679E+00
          1   -1    0    0  502    0 -0.00000000000E+00  0.00000000000E+00  0.45294550896E+03  0.45294550896E+03  0.00000000000E+00 0. -1.
         21   -1    0    0  501  502  0.00000000000E+00 -0.00000000000E+00 -0.38924791656E+02  0.38924791656E+02  0.00000000000E+00 0. -1.
         23    2    1    2    0    0  0.36054797475E+02  0.38141109566E+02  0.22654269377E+03  0.24956624882E+03  0.90592647573E+02 0.  0.
         23    2    1    2    0    0 -0.50981188683E+02 -0.53910265770E+02  0.18595283525E+03  0.22053734232E+03  0.92481695854E+02 0.  0.
        -11    1    4    4    0    0 -0.20316427620E+02  0.13379945253E+02  0.46949533306E+01  0.24775446575E+02  0.00000000000E+00 0.  1.
         11    1    4    4    0    0 -0.30664761062E+02 -0.67290211023E+02  0.18125788191E+03  0.19576189575E+03  0.00000000000E+00 0. -1.
        -13    1    3    3    0    0  0.25359018898E+02  0.67782175361E+02  0.14281668701E+03  0.16010655584E+03  0.00000000000E+00 0.  1.
         13    1    3    3    0    0  0.10695778577E+02 -0.29641065795E+02  0.83726006756E+02  0.89459692980E+02  0.00000000000E+00 0. -1.
          1    1    1    2  501    0  0.14926391207E+02  0.15769156204E+02  0.15251882972E+01  0.21766709471E+02  0.00000000000E+00 0. -1.
<scales pt_clust_5="13000.00000" pt_clust_6="13000.00000" pt_clust_7="13000.00000" pt_clust_8="13000.00000" pt_clust_9="21.71321"></scales>
<clustering>
<clus scale="   21.713">  2  9  1 -1</clus>
<clus scale="   90.593">  7  8 -1 -1</clus>
<clus scale="   92.482">  5  6 -1 -1</clus>
<clus scale="  109.307">  1  7  2 -1</clus>
<clus scale="   21.713">  2  5  1 -1</clus>
</clustering>
</event>
<event>
 9    1  0.3231311E-005  0.1643565E+03  0.7546771E-02  0.1184007E+00
         -1   -1    0    0    0  501 -0.00000000000E+00  0.00000000000E+00  0.64973113855E+03  0.64973113855E+03  0.00000000000E+00 0.  1.
         21   -1    0    0  501  502  0.00000000000E+00 -0.00000000000E+00 -0.14613648048E+03  0.14613648048E+03  0.00000000000E+00 0.  1.
         23    2    1    2    0    0 -0.91564213268E+02  0.97315172080E+02  0.48918649833E+03  0.51510025983E+03  0.90391369422E+02 0.  0.
         23    2    1    2    0    0  0.63228439451E+02 -0.14515750496E+03  0.75852083520E+02  0.19789902590E+03  0.91334271096E+02 0.  0.
        -11    1    4    4    0    0 -0.17014247657E+02 -0.16561593854E+02 -0.75192557092E+01  0.24906027799E+02  0.00000000000E+00 0. -1.
         11    1    4    4    0    0  0.80242687108E+02 -0.12859591110E+03  0.83371339229E+02  0.17299299810E+03  0.00000000000E+00 0.  1.
        -11    1    3    3    0    0 -0.22172702605E+02  0.55891666217E+02  0.92928042822E+02  0.11068481484E+03  0.00000000000E+00 0.  1.
         11    1    3    3    0    0 -0.69391510664E+02  0.41423505864E+02  0.39625845551E+03  0.40441544499E+03  0.00000000000E+00 0. -1.
         -1    1    1    2    0  502  0.28335773817E+02  0.47842332877E+02 -0.61443923780E+02  0.82868333291E+02  0.00000000000E+00 0.  1.
<scales pt_clust_5="13000.00000" pt_clust_6="13000.00000" pt_clust_7="13000.00000" pt_clust_8="13000.00000" pt_clust_9="55.60400"></scales>
<clustering>
<clus scale="   55.604">  2  9  1 -1</clus>
<clus scale="   90.391">  7  8 -1 -1</clus>
<clus scale="   91.334">  5  6 -1 -1</clus>
<clus scale="  163.834">  1  7  2 -1</clus>
<clus scale="   55.604">  2  5  1 -1</clus>
</clustering>
</event>
<event>
 9    1  0.3231311E-005  0.2310700E+03  0.7546771E-02  0.1125953E+00
         21   -1    0    0  501  502  0.00000000000E+00  0.00000000000E+00  0.15217768788E+03  0.15217768788E+03  0.00000000000E+00 0.  1.
          1   -1    0    0  502    0 -0.00000000000E+00 -0.00000000000E+00 -0.54486719051E+03  0.54486719051E+03  0.00000000000E+00 0. -1.
         23    2    1    2    0    0  0.17021902032E+03 -0.10959507852E+03 -0.21131248779E+03  0.30671619463E+03  0.91849117804E+02 0.  0.
         23    2    1    2    0    0 -0.18135266111E+03  0.12867000994E+03 -0.23269973821E+03  0.33445531891E+03  0.90919926511E+02 0.  0.
        -13    1    3    3    0    0  0.16745920524E+03 -0.78536651522E+02 -0.20262196556E+03  0.27434695548E+03  0.00000000000E+00 0.  1.
         13    1    3    3    0    0  0.27598150717E+01 -0.31058426998E+02 -0.86905222305E+01  0.32369239155E+02  0.00000000000E+00 0. -1.
        -13    1    4    4    0    0 -0.91460533912E+02  0.11790269915E+03 -0.15494645767E+03  0.21511504010E+03  0.00000000000E+00 0. -1.
         13    1    4    4    0    0 -0.89892127193E+02  0.10767310786E+02 -0.77753280544E+02  0.11934027882E+03  0.00000000000E+00 0.  1.
          1    1    1    2  501    0  0.11133640788E+02 -0.19074931419E+02  0.51322723366E+02  0.55873364849E+02  0.00000000000E+00 0. -1.
<scales pt_clust_5="13000.00000" pt_clust_6="13000.00000" pt_clust_7="13000.00000" pt_clust_8="13000.00000" pt_clust_9="22.08644"></scales>
<clustering>
<clus scale="   22.086">  1  9  2 -1</clus>
<clus scale="   90.920">  7  8 -1 -1</clus>
<clus scale="   91.849">  5  6 -1 -1</clus>
<clus scale="  230.702">  1  7  2 -1</clus>
<clus scale="   22.086">  1  5  2 -1</clus>
</clustering>
</event>
<event>
 9    1  0.3231311E-005  0.1701603E+03  0.7546771E-02  0.1178098E+00
         21   -1    0    0  501  502  0.00000000000E+00  0.00000000000E+00  0.16290201970E+03  0.16290201970E+03  0.00000000000E+00 0.  1.
         -1   -1    0    0    0  501 -0.00000000000E+00 -0.00000000000E+00 -0.41199356370E+03  0.41199356370E+03  0.00000000000E+00 0.  1.
         23    2    1    2    0    0  0.13636779006E+03 -0.25731398597E+02 -0.25202829750E+03  0.30205118171E+03  0.91969422038E+02 0.  0.
         23    2    1    2    0    0 -0.17016800246E+03 -0.20911511235E+02  0.48776031508E+02  0.19922881364E+03  0.88986395439E+02 0.  0.
        -13    1    4    4    0    0 -0.15483392656E+03  0.13504230077E+02  0.37172134577E+02  0.15980512080E+03  0.00000000000E+00 0.  1.
         13    1    4    4    0    0 -0.15334075899E+02 -0.34415741311E+02  0.11603896931E+02  0.39423692847E+02  0.00000000000E+00 0. -1.
        -13    1    3    3    0    0  0.11093834764E+03 -0.52219122253E+02 -0.15072851921E+03  0.19430193053E+03  0.00000000000E+00 0. -1.
         13    1    3    3    0    0  0.25429442415E+02  0.26487723655E+02 -0.10129977829E+03  0.10774925117E+03  0.00000000000E+00 0.  1.
         -1    1    1    2    0  502  0.33800212399E+02  0.46642909832E+02 -0.45839278014E+02  0.73615588055E+02  0.00000000000E+00 0.  1.
<scales pt_clust_5="13000.00000" pt_clust_6="13000.00000" pt_clust_7="13000.00000" pt_clust_8="13000.00000" pt_clust_9="57.60225"></scales>
<clustering>
<clus scale="   57.602">  1  9  2 -1</clus>
<clus scale="   88.986">  5  6 -1 -1</clus>
<clus scale="   91.969">  7  8 -1 -1</clus>
<clus scale="  168.567">  1  5  2 -1</clus>
<clus scale="   57.602">  1  5  2 -1</clus>
</clustering>
</event>
<event>
 9    1  0.3231311E-005  0.1085522E+03  0.7546771E-02  0.1264059E+00
         -2   -1    0    0    0  501 -0.00000000000E+00  0.00000000000E+00  0.34451707521E+03  0.34451707521E+03  0.00000000000E+00 0.  1.
         21   -1    0    0  501  502  0.00000000000E+00 -0.00000000000E+00 -0.84043328560E+02  0.84043328560E+02  0.00000000000E+00 0. -1.
         23    2    1    2    0    0 -0.39423904880E+02  0.30154858193E+02  0.23872455377E+03  0.26106986992E+03  0.93297934906E+02 0.  0.
         23    2    1    2    0    0  0.77836053750E+02 -0.38854795975E+02  0.10862523093E+02  0.12662855057E+03  0.91370941652E+02 0.  0.
        -13    1    4    4    0    0  0.50485798387E+02 -0.49418201405E+02  0.43334605045E+02  0.82878600756E+02  0.00000000000E+00 0.  1.
         13    1    4    4    0    0  0.27350255363E+02  0.10563405430E+02 -0.32472081951E+02  0.43749949817E+02  0.00000000000E+00 0. -1.
        -13    1    3    3    0    0 -0.51798594154E+02 -0.16984403607E+02  0.15352880106E+03  0.16291917345E+03  0.00000000000E+00 0.  1.
         13    1    3    3    0    0  0.12374689273E+02  0.47139261800E+02  0.85195752710E+02  0.98150696470E+02  0.00000000000E+00 0. -1.
         -2    1    1    2    0  502 -0.38412148870E+02  0.86999377825E+01  0.10886669783E+02  0.40861983275E+02  0.00000000000E+00 0.  1.
<scales pt_clust_5="13000.00000" pt_clust_6="13000.00000" pt_clust_7="13000.00000" pt_clust_8="13000.00000" pt_clust_9="39.38505"></scales>
<clustering>
<clus scale="   39.385">  2  9  1 -1</clus>
<clus scale="   91.371">  5  6 -1 -1</clus>
<clus scale="   93.298">  7  8 -1 -1</clus>
<clus scale="  106.901">  2  5  1 -1</clus>
<clus scale="   39.385">  2  5  1 -1</clus>
</clustering>
</event>
<event>
 9    1  0.3231311E-005  0.1640553E+03  0.7546771E-02  0.1184464E+00
          1   -1    0    0  502    0 -0.00000000000E+00  0.00000000000E+00  0.18125379033E+03  0.18125379033E+03  0.00000000000E+00 0. -1.
         21   -1    0    0  501  502  0.00000000000E+00 -0.00000000000E+00 -0.27906637478E+03  0.27906637478E+03  0.00000000000E+00 0.  1.
         23    2    1    2    0    0  0.11303281714E+02 -0.12348597406E+03  0.33240737516E+02  0.15676677808E+03  0.89968472870E+02 0.  0.
         23    2    1    2    0    0  0.75306190064E+01  0.17511874350E+03 -0.14682791727E+03  0.24637387538E+03  0.91751646462E+02 0.  0.
        -11    1    4    4    0    0 -0.35548991722E+02  0.13254207743E+03 -0.99384535286E+02  0.16943558940E+03  0.00000000000E+00 0.  1.
         11    1    4    4    0    0  0.43079610729E+02  0.42576666075E+02 -0.47443381985E+02  0.76938285975E+02  0.00000000000E+00 0. -1.
        -13    1    3    3    0    0  0.18421481118E+02  0.86682427511E+01  0.20450815114E+00  0.20360039846E+02  0.00000000000E+00 0.  1.
         13    1    3    3    0    0 -0.71181994039E+01 -0.13215421681E+03  0.33036229365E+02  0.13640673823E+03  0.00000000000E+00 0. -1.
          1    1    1    2  501    0 -0.18833900720E+02 -0.51632769442E+02  0.15774595309E+02  0.57179511660E+02  0.00000000000E+00 0. -1.
<scales pt_clust_5="13000.00000" pt_clust_6="13000.00000" pt_clust_7="13000.00000" pt_clust_8="13000.00000" pt_clust_9="54.96055"></scales>
<clustering>
<clus scale="   54.961">  2  9  1 -1</clus>
<clus scale="   89.968">  7  8 -1 -1</clus>
<clus scale="   91.752">  5  6 -1 -1</clus>
<clus scale="  163.065">  1  7  2 -1</clus>
<clus scale="   54.961">  2  5  1 -1</clus>
</clustering>
</event>
<event>
 9    1  0.3231311E-005  0.1115807E+03  0.7546771E-02  0.1264538E+00
          1   -1    0    0  502    0 -0.00000000000E+00  0.00000000000E+00  0.13999902874E+03  0.13999902874E+03  0.00000000000E+00 0. -1.
         21   -1    0    0  501  502  0.00000000000E+00 -0.00000000000E+00 -0.32879627504E+03  0.32879627504E+03  0.00000000000E+00 0. -1.
         23    2    1    2    0    0  0.56450166566E+01  0.40956210442E+02  0.70180623461E+02  0.13406430792E+03  0.10648305669E+03 0.  0.
         23    2    1    2    0    0 -0.58428084605E+02  0.13075438565E+02 -0.66785990055E+02  0.12822871988E+03  0.91637481256E+02 0.  0.
        -11    1    3    3    0    0 -0.35526095831E+02  0.51988129490E+02  0.66027886861E+02  0.91238977066E+02  0.00000000000E+00 0. -1.
         11    1    3    3    0    0  0.41171112487E+02 -0.11031919048E+02  0.41527366005E+01  0.42825330852E+02  0.00000000000E+00 0.  1.
        -13    1    4    4    0    0 -0.54662269153E+02 -0.18579132110E+02 -0.75629403725E+02  0.95147015333E+02  0.00000000000E+00 0.  1.
         13    1    4    4    0    0 -0.37658154512E+01  0.31654570675E+02  0.88434136696E+01  0.33081704550E+02  0.00000000000E+00 0. -1.
          1    1    1    2  501    0  0.52783067948E+02 -0.54031649007E+02 -0.19219187971E+03  0.20650227597E+03  0.00000000000E+00 0. -1.
<scales pt_clust_5="13000.00000" pt_clust_6="13000.00000" pt_clust_7="13000.00000" pt_clust_8="13000.00000" pt_clust_9="75.53457"></scales>
<clustering>
<clus scale="   75.535">  2  9  1 -1</clus>
<clus scale="   91.637">  7  8 -1 -1</clus>
<clus scale="   97.514">  2  7  1 -1</clus>
<clus scale="  106.483">  5  6 -1 -1</clus>
<clus scale="   75.535">  2  5  1 -1</clus>
</clustering>
</event>
<event>
 9    1  0.5590768E-005  0.9849597E+02  0.7546771E-02  0.1285672E+00
         21   -1    0    0  501  502  0.00000000000E+00  0.00000000000E+00  0.93344699875E+02  0.93344699875E+02  0.00000000000E+00 0. -1.
          3   -1    0    0  502    0 -0.00000000000E+00 -0.00000000000E+00 -0.43566692239E+03  0.43566692239E+03  0.00000000000E+00 0. -1.
         23    2    1    2    0    0  0.38798698111E+02 -0.76140452813E+01 -0.31747888612E+03  0.33256867652E+03  0.90806215687E+02 0.  0.
         23    2    1    2    0    0 -0.13040786410E+02  0.59366293279E+02 -0.66777241350E+02  0.12502713816E+03  0.86476392307E+02 0.  0.
        -11    1    4    4    0    0 -0.15762752643E+02 -0.14858542595E+02  0.44553986782E+01  0.22115407215E+02  0.00000000000E+00 0.  1.
         11    1    4    4    0    0  0.27219662325E+01  0.74224835874E+02 -0.71232640028E+02  0.10291173094E+03  0.00000000000E+00 0. -1.
        -13    1    3    3    0    0 -0.18912150369E+02  0.17611107046E+02 -0.37167199211E+02  0.45268324689E+02  0.00000000000E+00 0.  1.
         13    1    3    3    0    0  0.57710848480E+02 -0.25225152328E+02 -0.28031168691E+03  0.28730035183E+03  0.00000000000E+00 0. -1.
          3    1    1    2  501    0 -0.25757911701E+02 -0.51752247997E+02  0.41933904959E+02  0.71415807585E+02  0.00000000000E+00 0. -1.
<scales pt_clust_5="13000.00000" pt_clust_6="13000.00000" pt_clust_7="13000.00000" pt_clust_8="13000.00000" pt_clust_9="57.80800"></scales>
<clustering>
<clus scale="   57.808">  1  9  2 -1</clus>
<clus scale="   86.476">  5  6 -1 -1</clus>
<clus scale="   90.806">  7  8 -1 -1</clus>
<clus scale="   94.519">  1  5  2 -1</clus>
<clus scale="   57.808">  1  5  2 -1</clus>
</clustering>
</event>
<event>
 9    1  0.3231311E-005  0.1782401E+03  0.7546771E-02  0.1194104E+00
         21   -1    0    0  501  502  0.00000000000E+00  0.00000000000E+00  0.19320786156E+03  0.19320786156E+03  0.00000000000E+00 0.  1.
          1   -1    0    0  502    0 -0.00000000000E+00 -0.00000000000E+00 -0.38194828875E+03  0.38194828875E+03  0.00000000000E+00 0. -1.
         23    2    1    2    0    0  0.47573512059E+02  0.15344497708E+01 -0.18570625958E+03  0.21222741980E+03  0.91038833926E+02 0.  0.
         23    2    1    2    0    0 -0.14300198658E+03  0.10881662832E+03 -0.55463773263E+02  0.20790351406E+03  0.88639800597E+02 0.  0.
        -11    1    3    3    0    0 -0.18191415481E+02 -0.24393961513E+02 -0.39821024700E+02  0.50116932904E+02  0.00000000000E+00 0.  1.
         11    1    3    3    0    0  0.65764927541E+02  0.25928411284E+02 -0.14588523488E+03  0.16211048690E+03  0.00000000000E+00 0. -1.
        -13    1    4    4    0    0 -0.11938380570E+03  0.11653018089E+03 -0.67902295245E+02  0.18011801082E+03  0.00000000000E+00 0.  1.
         13    1    4    4    0    0 -0.23618180878E+02 -0.77135525712E+01  0.12438521982E+02  0.27785503241E+02  0.00000000000E+00 0. -1.
          1    1    1    2  501    0  0.95428474518E+02 -0.11035107809E+03  0.52429605653E+02  0.15502521644E+03  0.00000000000E+00 0. -1.
<scales pt_clust_5="13000.00000" pt_clust_6="13000.00000" pt_clust_7="13000.00000" pt_clust_8="13000.00000" pt_clust_9="154.63675"></scales>
<clustering>
<clus scale="   88.640">  7  8 -1 -1</clus>
<clus scale="   91.039">  5  6 -1 -1</clus>
<clus scale="  102.731">  2  5  1 -1</clus>
<clus scale="  154.637">  1  9  2 -1</clus>
<clus scale="  154.637">  1  5  2 -1</clus>
</clustering>
</event>
<event>
 9    1  0.3231311E-005  0.9283056E+02  0.7546771E-02  0.1297399E+00
         21   -1    0    0  501  502  0.00000000000E+00  0.00000000000E+00  0.92458451214E+02  0.92458451214E+02  0.00000000000E+00 0. -1.
          1   -1    0    0  502    0 -0.00000000000E+00 -0.00000000000E+00 -0.32355531449E+03  0.32355531449E+03  0.00000000000E+00 0. -1.
         23    2    1    2    0    0  0.13711668592E+02 -0.86762590100E+01 -0.24762057519E+03  0.26378255550E+03  0.89453898747E+02 0.  0.
         23    2    1    2    0    0 -0.20508751105E+02 -0.37516524423E+02  0.26413967043E+02  0.10450500443E+03  0.91626960108E+02 0.  0.
        -11    1    4    4    0    0  0.32117211647E+02  0.59161909483E+01  0.53443721864E+01  0.33091976571E+02  0.00000000000E+00 0.  1.
         11    1    4    4    0    0 -0.52625962752E+02 -0.43432715372E+02  0.21069594856E+02  0.71413027856E+02  0.00000000000E+00 0. -1.
        -13    1    3    3    0    0 -0.35829022539E+02 -0.11621269961E+02 -0.71647643309E+02  0.80945398655E+02  0.00000000000E+00 0.  1.
         13    1    3    3    0    0  0.49540691132E+02  0.29450109510E+01 -0.17597293188E+03  0.18283715684E+03  0.00000000000E+00 0. -1.
          1    1    1    2  501    0  0.67970825125E+01  0.46192783433E+02 -0.98902551318E+01  0.47726205784E+02  0.00000000000E+00 0. -1.
<scales pt_clust_5="13000.00000" pt_clust_6="13000.00000" pt_clust_7="13000.00000" pt_clust_8="13000.00000" pt_clust_9="46.69019"></scales>
<clustering>
<clus scale="   46.690">  1  9  2 -1</clus>
<clus scale="   89.454">  7  8 -1 -1</clus>
<clus scale="   90.686">  2  7  1 -1</clus>
<clus scale="   91.627">  5  6 -1 -1</clus>
<clus scale="   46.690">  1  5  2 -1</clus>
</clustering>
</event>
<event>
 9    1  0.3231311E-005  0.1049996E+03  0.7546771E-02  0.1271145E+00
         -3   -1    0    0    0  501 -0.00000000000E+00  0.00000000000E+00  0.19131964899E+03  0.19131964899E+03  0.00000000000E+00 0.  1.
         21   -1    0    0  501  502  0.00000000000E+00 -0.00000000000E+00 -0.15253169484E+03  0.15253169484E+03  0.00000000000E+00 0.  1.
         23    2    1    2    0    0 -0.36874938640E+02  0.17557861342E+02  0.66844082147E+02  0.12060883127E+03  0.91707792835E+02 0.  0.
         23    2    1    2    0    0  0.57794555959E+02  0.78545275567E+01  0.62375633063E+02  0.12700674320E+03  0.94011110596E+02 0.  0.
        -11    1    4    4    0    0  0.75329264772E+02 -0.10283148997E+02  0.21563336450E+02  0.79026696522E+02  0.00000000000E+00 0.  1.
         11    1    4    4    0    0 -0.17534708813E+02  0.18137676554E+02  0.40812296613E+02  0.47980046673E+02  0.00000000000E+00 0. -1.
        -13    1    3    3    0    0 -0.18300589863E+01  0.30348060536E+02  0.76290509003E+02  0.82125487263E+02  0.00000000000E+00 0.  1.
         13    1    3    3    0    0 -0.35044879654E+02 -0.12790199194E+02 -0.94464268557E+01  0.38483344003E+02  0.00000000000E+00 0. -1.
         -3    1    1    2    0  502 -0.20919617319E+02 -0.25412388898E+02 -0.90431761061E+02  0.96235769373E+02  0.00000000000E+00 0.  1.
<scales pt_clust_5="13000.00000" pt_clust_6="13000.00000" pt_clust_7="13000.00000" pt_clust_8="13000.00000" pt_clust_9="32.91534"></scales>
<clustering>
<clus scale="   32.915">  2  9  1 -1</clus>
<clus scale="   91.708">  7  8 -1 -1</clus>
<clus scale="   94.011">  5  6 -1 -1</clus>
<clus scale="  102.942">  1  7  2 -1</clus>
<clus scale="   32.915">  2  5  1 -1</clus>
</clustering>
</event>
<event>
 9    1  0.3231311E-005  0.9669491E+02  0.7546771E-02  0.1288214E+00
         -1   -1    0    0    0  501 -0.00000000000E+00  0.00000000000E+00  0.37228324432E+03  0.37228324432E+03  0.00000000000E+00 0.  1.
         21   -1    0    0  501  502  0.00000000000E+00 -0.00000000000E+00 -0.46715919987E+02  0.46715919987E+02  0.00000000000E+00 0.  1.
         23    2    1    2    0    0 -0.23068022452E+02 -0.27266726720E+02  0.26613043497E+03  0.28284726472E+03  0.88890712103E+02 0.  0.
         23    2    1    2    0    0  0.28725319428E+01  0.34099226548E+02  0.61691671584E+02  0.11471303455E+03  0.90455565124E+02 0.  0.
        -11    1    3    3    0    0 -0.12066363935E+02  0.26108933982E+02  0.34620830547E+02  0.45009726505E+02  0.00000000000E+00 0.  1.
         11    1    3    3    0    0 -0.11001658517E+02 -0.53375660702E+02  0.23150960442E+03  0.23783753822E+03  0.00000000000E+00 0. -1.
        -11    1    4    4    0    0  0.35013138943E+02  0.48810884268E+02  0.47667021644E+02  0.76684856876E+02  0.00000000000E+00 0. -1.
         11    1    4    4    0    0 -0.32140607000E+02 -0.14711657720E+02  0.14024649940E+02  0.38028177673E+02  0.00000000000E+00 0.  1.
         -1    1    1    2    0  502  0.20195490509E+02 -0.68324998281E+01 -0.22547822271E+01  0.21438865028E+02  0.00000000000E+00 0.  1.
<scales pt_clust_5="13000.00000" pt_clust_6="13000.00000" pt_clust_7="13000.00000" pt_clust_8="13000.00000" pt_clust_9="21.31996"></scales>
<clustering>
<clus scale="   21.320">  2  9  1 -1</clus>
<clus scale="   88.891">  5  6 -1 -1</clus>
<clus scale="   90.456">  7  8 -1 -1</clus>
<clus scale="   95.233">  1  5  2 -1</clus>
<clus scale="   21.320">  2  5  1 -1</clus>
</clustering>
</event>
<event>
 9    1  0.3231311E-005  0.1171870E+03  0.7546771E-02  0.1247922E+00
          3   -1    0    0  502    0 -0.00000000000E+00  0.00000000000E+00  0.26135623023E+03  0.26135623023E+03  0.00000000000E+00 0. -1.
         21   -1    0    0  501  502  0.00000000000E+00 -0.00000000000E+00 -0.11848749987E+03  0.11848749987E+03  0.00000000000E+00 0. -1.
         23    2    1    2    0    0 -0.58501402046E+02  0.45876578393E+02  0.18971317571E+03  0.22318125697E+03  0.91058826802E+02 0.  0.
         23    2    1    2    0    0  0.71997483852E+02 -0.17862816967E+02 -0.30802152901E+02  0.12167290038E+03  0.91393676768E+02 0.  0.
        -11    1    4    4    0    0  0.18285906555E+02 -0.26465875389E+02  0.27220139537E+02  0.42139683613E+02  0.00000000000E+00 0.  1.
         11    1    4    4    0    0  0.53711577297E+02  0.86030584213E+01 -0.58022292438E+02  0.79533216770E+02  0.00000000000E+00 0. -1.
        -13    1    3    3    0    0  0.14077626472E+02  0.27208190500E+02  0.10820194651E+03  0.11245499733E+03  0.00000000000E+00 0.  1.
         13    1    3    3    0    0 -0.72579028518E+02  0.18668387893E+02  0.81511229209E+02  0.11072625964E+03  0.00000000000E+00 0. -1.
          3    1    1    2  501    0 -0.13496081806E+02 -0.28013761426E+02 -0.16042292453E+02  0.34989572739E+02  0.00000000000E+00 0. -1.
<scales pt_clust_5="13000.00000" pt_clust_6="13000.00000" pt_clust_7="13000.00000" pt_clust_8="13000.00000" pt_clust_9="31.09526"></scales>
<clustering>
<clus scale="   31.095">  2  9  1 -1</clus>
<clus scale="   91.059">  7  8 -1 -1</clus>
<clus scale="   91.394">  5  6 -1 -1</clus>
<clus scale="  116.926">  1  7  2 -1</clus>
<clus scale="   31.095">  2  5  1 -1</clus>
</clustering>
</event>
<event>
 9    1  0.3231311E-005  0.9230499E+02  0.7546771E-02  0.1302486E+00
          2   -1    0    0  502    0 -0.00000000000E+00  0.00000000000E+00  0.31979902682E+03  0.31979902682E+03  0.00000000000E+00 0. -1.
         21   -1    0    0  501  502  0.00000000000E+00 -0.00000000000E+00 -0.10066056029E+03  0.10066056029E+03  0.00000000000E+00 0. -1.
         23    2    1    2    0    0 -0.34932109006E+02  0.11062608256E+02  0.24494813628E+03  0.26239995992E+03  0.86669002299E+02 0.  0.
         23    2    1    2    0    0  0.20504082077E+02  0.24707027835E+02  0.30782671299E+02  0.89573658614E+02  0.77749680765E+02 0.  0.
        -11    1    3    3    0    0  0.16637707262E+02 -0.22693303293E+02  0.11761100726E+03  0.12093034502E+03  0.00000000000E+00 0.  1.
         11    1    3    3    0    0 -0.51569816268E+02  0.33755911549E+02  0.12733712901E+03  0.14146961490E+03  0.00000000000E+00 0. -1.
        -11    1    4    4    0    0  0.41046706603E+02  0.25227378412E+02 -0.48679677633E+01  0.48424682288E+02  0.00000000000E+00 0. -1.
         11    1    4    4    0    0 -0.20542624527E+02 -0.52035057690E+00  0.35650639063E+02  0.41148976327E+02  0.00000000000E+00 0.  1.
          2    1    1    2  501    0  0.14428026929E+02 -0.35769636091E+02 -0.56592341039E+02  0.68485968573E+02  0.00000000000E+00 0. -1.
<scales pt_clust_5="13000.00000" pt_clust_6="13000.00000" pt_clust_7="13000.00000" pt_clust_8="13000.00000" pt_clust_9="38.56987"></scales>
<clustering>
<clus scale="   38.570">  2  9  1 -1</clus>
<clus scale="   77.750">  7  8 -1 -1</clus>
<clus scale="   83.986">  2  7  1 -1</clus>
<clus scale="   86.669">  5  6 -1 -1</clus>
<clus scale="   38.570">  2  5  1 -1</clus>
</clustering>
</event>
<event>
 9    1  0.3231311E-005  0.4129728E+03  0.7546771E-02  0.1085020E+00
          2   -1    0    0  502    0 -0.00000000000E+00  0.00000000000E+00  0.17415105058E+04  0.17415105058E+04  0.00000000000E+00 0. -1.
         21   -1    0    0  501  502  0.00000000000E+00 -0.00000000000E+00 -0.13163068416E+03  0.13163068416E+03  0.00000000000E+00 0.  1.
         23    2    1    2    0    0 -0.62897971388E+02 -0.37629335230E+02  0.36094733048E+03  0.37903270430E+03  0.89502479715E+02 0.  0.
         23    2    1    2    0    0  0.36124856840E+03  0.25401273300E+03  0.66040903277E+03  0.79970607017E+03  0.91469729488E+02 0.  0.
        -13    1    4    4    0    0  0.12359368029E+03  0.12006100382E+03  0.32028748016E+03  0.36369508162E+03  0.00000000000E+00 0. -1.
         13    1    4    4    0    0  0.23765488811E+03  0.13395172917E+03  0.34012155261E+03  0.43601098856E+03  0.00000000000E+00 0.  1.
        -13    1    3    3    0    0 -0.66823050932E+01  0.27691286194E+02  0.11300447997E+03  0.11653957708E+03  0.00000000000E+00 0. -1.
         13    1    3    3    0    0 -0.56215666295E+02 -0.65320621424E+02  0.24794285051E+03  0.26249312722E+03  0.00000000000E+00 0.  1.
          2    1    1    2  501    0 -0.29835059701E+03 -0.21638339777E+03  0.58852345844E+03  0.69440241553E+03  0.00000000000E+00 0. -1.
<scales pt_clust_5="13000.00000" pt_clust_6="13000.00000" pt_clust_7="13000.00000" pt_clust_8="13000.00000" pt_clust_9="402.71559"></scales>
<clustering>
<clus scale="   89.502">  7  8 -1 -1</clus>
<clus scale="   91.470">  5  6 -1 -1</clus>
<clus scale="  115.684">  1  7  2 -1</clus>
<clus scale="  402.716">  2  9  1 -1</clus>
<clus scale="  402.716">  2  5  1 -1</clus>
</clustering>
</event>
<event>
 9    1  0.3231311E-005  0.9526392E+02  0.7546771E-02  0.1290714E+00
         -3   -1    0    0    0  501 -0.00000000000E+00  0.00000000000E+00  0.30181190889E+02  0.30181190889E+02  0.00000000000E+00 0.  1.
         21   -1    0    0  501  502  0.00000000000E+00 -0.00000000000E+00 -0.61849963546E+03  0.61849963546E+03  0.00000000000E+00 0. -1.
         23    2    1    2    0    0  0.95934589437E+01  0.32617004898E+01 -0.17433537254E+03  0.19791219694E+03  0.93132928833E+02 0.  0.
         23    2    1    2    0    0  0.48861818047E+02  0.20822064184E+02 -0.19029154577E+03  0.21831444887E+03  0.92893974915E+02 0.  0.
        -11    1    4    4    0    0  0.10446231903E+02 -0.26070177038E+02 -0.13003756846E+02  0.30949565164E+02  0.00000000000E+00 0.  1.
         11    1    4    4    0    0  0.38415586144E+02  0.46892241222E+02 -0.17728778892E+03  0.18736488371E+03  0.00000000000E+00 0. -1.
        -13    1    3    3    0    0 -0.26932188128E+02 -0.31061171993E+02 -0.10137978931E+03  0.10939835851E+03  0.00000000000E+00 0.  1.
         13    1    3    3    0    0  0.36525647072E+02  0.34322872483E+02 -0.72955583228E+02  0.88513838430E+02  0.00000000000E+00 0. -1.
         -3    1    1    2    0  502 -0.58455276991E+02 -0.24083764674E+02 -0.22369152627E+03  0.23245418054E+03  0.00000000000E+00 0.  1.
<scales pt_clust_5="13000.00000" pt_clust_6="13000.00000" pt_clust_7="13000.00000" pt_clust_8="13000.00000" pt_clust_9="63.22220"></scales>
<clustering>
<clus scale="   63.222">  2  9  1 -1</clus>
<clus scale="   92.894">  5  6 -1 -1</clus>
<clus scale="   93.133">  7  8 -1 -1</clus>
<clus scale="   95.030">  2  5  1 -1</clus>
<clus scale="   63.222">  2  5  1 -1</clus>
</clustering>
</event>
<event>
 9    1  0.3231311E-005  0.1062717E+03  0.7546771E-02  0.1271196E+00
          2   -1    0    0  502    0 -0.00000000000E+00  0.00000000000E+00  0.32184733963E+03  0.32184733963E+03  0.00000000000E+00 0. -1.
         21   -1    0    0  501  502  0.00000000000E+00 -0.00000000000E+00 -0.47874909241E+02  0.47874909241E+02  0.00000000000E+00 0.  1.
         23    2    1    2    0    0  0.32187496000E+02 -0.27095785742E+02  0.16036562322E+03  0.19155019145E+03  0.95938137519E+02 0.  0.
         23    2    1    2    0    0 -0.15171037572E+02  0.54529862346E+02  0.91816182881E+02  0.13922312004E+03  0.88029537344E+02 0.  0.
        -11    1    4    4    0    0  0.33869608218E+02  0.90035376911E+01  0.47238519766E+02  0.58819144855E+02  0.00000000000E+00 0.  1.
         11    1    4    4    0    0 -0.49040645790E+02  0.45526324655E+02  0.44577663115E+02  0.80403975180E+02  0.00000000000E+00 0. -1.
        -13    1    3    3    0    0 -0.34280223076E+02 -0.46168032109E+01  0.52292666130E+02  0.62697460052E+02  0.00000000000E+00 0. -1.
         13    1    3    3    0    0  0.66467719076E+02 -0.22478982531E+02  0.10807295709E+03  0.12885273140E+03  0.00000000000E+00 0.  1.
          2    1    1    2  501    0 -0.17016458429E+02 -0.27434076604E+02  0.21790624288E+02  0.38948937385E+02  0.00000000000E+00 0. -1.
<scales pt_clust_5="13000.00000" pt_clust_6="13000.00000" pt_clust_7="13000.00000" pt_clust_8="13000.00000" pt_clust_9="32.28294"></scales>
<clustering>
<clus scale="   32.283">  2  9  1 -1</clus>
<clus scale="   88.030">  5  6 -1 -1</clus>
<clus scale="   95.938">  7  8 -1 -1</clus>
<clus scale="   99.190">  2  5  1 -1</clus>
<clus scale="   32.283">  2  5  1 -1</clus>
</clustering>
</event>
<event>
 9    1  0.3231311E-005  0.1511114E+03  0.7546771E-02  0.1199263E+00
          1   -1    0    0  502    0 -0.00000000000E+00  0.00000000000E+00  0.69350236984E+03  0.69350236984E+03  0.00000000000E+00 0. -1.
         21   -1    0    0  501  502  0.00000000000E+00 -0.00000000000E+00 -0.89202752727E+02  0.89202752727E+02  0.00000000000E+00 0. -1.
         23    2    1    2    0    0 -0.52818545394E+02  0.96272564073E+02  0.46578546518E+03  0.48778841926E+03  0.94462887219E+02 0.  0.
         23    2    1    2    0    0  0.12313996847E+03 -0.10299881285E+03  0.11993581756E+03  0.22187219992E+03  0.95238991382E+02 0.  0.
        -11    1    4    4    0    0 -0.25177292625E+01 -0.28627992606E+02 -0.56369712505E+01  0.29286112172E+02  0.00000000000E+00 0.  1.
         11    1    4    4    0    0  0.12565769774E+03 -0.74370820242E+02  0.12557278881E+03  0.19258608775E+03  0.00000000000E+00 0. -1.
        -11    1    3    3    0    0 -0.21175425374E+02  0.26235793267E+02  0.29541422254E+02  0.44826455547E+02  0.00000000000E+00 0.  1.
         11    1    3    3    0    0 -0.31643120020E+02  0.70036770807E+02  0.43624404293E+03  0.44296196372E+03  0.00000000000E+00 0. -1.
          1    1    1    2  501    0 -0.70321423080E+02  0.67262487748E+01  0.18578334368E+02  0.73044503383E+02  0.00000000000E+00 0. -1.
<scales pt_clust_5="13000.00000" pt_clust_6="13000.00000" pt_clust_7="13000.00000" pt_clust_8="13000.00000" pt_clust_9="70.64237"></scales>
<clustering>
<clus scale="   70.642">  2  9  1 -1</clus>
<clus scale="   94.463">  7  8 -1 -1</clus>
<clus scale="   95.239">  5  6 -1 -1</clus>
<clus scale="  150.623">  1  7  2 -1</clus>
<clus scale="   70.642">  2  5  1 -1</clus>
</clustering>
</event>
<event>
 9    1  0.3231311E-005  0.1026446E+03  0.7546771E-02  0.1278808E+00
          3   -1    0    0  502    0 -0.00000000000E+00  0.00000000000E+00  0.25056907491E+03  0.25056907491E+03  0.00000000000E+00 0. -1.
         21   -1    0    0  501  502  0.00000000000E+00 -0.00000000000E+00 -0.13959050454E+03  0.13959050454E+03  0.00000000000E+00 0.  1.
         23    2    1    2    0    0 -0.63857498786E+01  0.22569704297E+02  0.11216001797E+03  0.14549877235E+03  0.89665231664E+02 0.  0.
         23    2    1    2    0    0 -0.36769723962E+02 -0.42672313921E+02  0.88390476909E+02  0.14322294684E+03  0.97606337487E+02 0.  0.
        -11    1    4    4    0    0  0.16747224726E+02 -0.37967750041E+02  0.78219173702E+02  0.88545235410E+02  0.00000000000E+00 0. -1.
         11    1    4    4    0    0 -0.53516948689E+02 -0.47045638796E+01  0.10171303207E+02  0.54677711429E+02  0.00000000000E+00 0.  1.
        -13    1    3    3    0    0  0.27996229543E+02 -0.22250853273E+02  0.36759765613E+02  0.51285180197E+02  0.00000000000E+00 0. -1.
         13    1    3    3    0    0 -0.34381979421E+02  0.44820557570E+02  0.75400252359E+02  0.94213592149E+02  0.00000000000E+00 0.  1.
          3    1    1    2  501    0  0.43155473841E+02  0.20102609623E+02 -0.89571924508E+02  0.10143786027E+03  0.00000000000E+00 0. -1.
<scales pt_clust_5="13000.00000" pt_clust_6="13000.00000" pt_clust_7="13000.00000" pt_clust_8="13000.00000" pt_clust_9="47.60788"></scales>
<clustering>
<clus scale="   47.608">  2  9  1 -1</clus>
<clus scale="   89.665">  7  8 -1 -1</clus>
<clus scale="   95.125">  1  7  2 -1</clus>
<clus scale="   97.606">  5  6 -1 -1</clus>
<clus scale="   47.608">  2  5  1 -1</clus>
</clustering>
</event>
<event>
 9    1  0.3231311E-005  0.1384912E+03  0.7546771E-02  0.1216349E+00
         21   -1    0    0  501  502  0.00000000000E+00  0.00000000000E+00  0.62317642747E+02  0.62317642747E+02  0.00000000000E+00 0.  1.
          2   -1    0    0  502    0 -0.00000000000E+00 -0.00000000000E+00 -0.55439777641E+03  0.55439777641E+03  0.00000000000E+00 0. -1.
         23    2    1    2    0    0 -0.40519324148E+02  0.10478417965E+03 -0.41559736250E+03  0.43925552318E+03  0.87193503147E+02 0.  0.
         23    2    1    2    0    0  0.14350227849E+02 -0.78615315627E+02 -0.68902960071E+02  0.13968312293E+03  0.91528465710E+02 0.  0.
        -11    1    4    4    0    0  0.50288097641E+02 -0.66917935716E+02 -0.48074013293E+02  0.96529858794E+02  0.00000000000E+00 0.  1.
         11    1    4    4    0    0 -0.35937869791E+02 -0.11697379912E+02 -0.20828946778E+02  0.43153264139E+02  0.00000000000E+00 0. -1.
        -13    1    3    3    0    0 -0.44773116760E+02  0.23292880740E+02 -0.86081063411E+02  0.99785468659E+02  0.00000000000E+00 0. -1.
         13    1    3    3    0    0  0.42537926120E+01  0.81491298914E+02 -0.32951629909E+03  0.33947005452E+03  0.00000000000E+00 0.  1.
          2    1    1    2  501    0  0.26169096299E+02 -0.26168864026E+02 -0.75798110925E+01  0.37776773045E+02  0.00000000000E+00 0. -1.
<scales pt_clust_5="13000.00000" pt_clust_6="13000.00000" pt_clust_7="13000.00000" pt_clust_8="13000.00000" pt_clust_9="37.00853"></scales>
<clustering>
<clus scale="   37.009">  1  9  2 -1</clus>
<clus scale="   87.194">  7  8 -1 -1</clus>
<clus scale="   91.528">  5  6 -1 -1</clus>
<clus scale="  135.665">  2  7  1 -1</clus>
<clus scale="   37.009">  1  5  2 -1</clus>
</clustering>
</event>
<event>
 9    1  0.3231311E-005  0.9670946E+02  0.7546771E-02  0.1287971E+00
         -1   -1    0    0    0  501 -0.00000000000E+00  0.00000000000E+00  0.13237685822E+03  0.13237685822E+03  0.00000000000E+00 0.  1.
         21   -1    0    0  501  502  0.00000000000E+00 -0.00000000000E+00 -0.10942613934E+03  0.10942613934E+03  0.00000000000E+00 0. -1.
         23    2    1    2    0    0 -0.13924561169E+01 -0.22215147445E+02  0.42411872143E+02  0.10241125401E+03  0.90519867091E+02 0.  0.
         23    2    1    2    0    0 -0.12470032583E+02  0.43939531498E+02  0.67482804626E+01  0.10263508604E+03  0.91663719415E+02 0.  0.
        -11    1    4    4    0    0  0.57883956280E+01  0.31850574047E+02 -0.39734684845E+02  0.51252412341E+02  0.00000000000E+00 0. -1.
         11    1    4    4    0    0 -0.18258428211E+02  0.12088957452E+02  0.46482965307E+02  0.51382673702E+02  0.00000000000E+00 0.  1.
        -13    1    3    3    0    0  0.77819971577E+01  0.33064998607E+02  0.34120398994E+01  0.34139356012E+02  0.00000000000E+00 0. -1.
         13    1    3    3    0    0 -0.91744532746E+01 -0.55280146053E+02  0.38999832243E+02  0.68271897993E+02  0.00000000000E+00 0.  1.
         -1    1    1    2    0  502  0.13862488700E+02 -0.21724384053E+02 -0.26209433723E+02  0.36756657513E+02  0.00000000000E+00 0.  1.
<scales pt_clust_5="13000.00000" pt_clust_6="13000.00000" pt_clust_7="13000.00000" pt_clust_8="13000.00000" pt_clust_9="25.77048"></scales>
<clustering>
<clus scale="   25.770">  2  9  1 -1</clus>
<clus scale="   90.520">  7  8 -1 -1</clus>
<clus scale="   91.664">  5  6 -1 -1</clus>
<clus scale="   95.626">  1  7  2 -1</clus>
<clus scale="   25.770">  2  5  1 -1</clus>
</clustering>
</event>
<event>
 9    1  0.3231311E-005  0.1352770E+03  0.7546771E-02  0.1220166E+00
         21   -1    0    0  501  502  0.00000000000E+00  0.00000000000E+00  0.82880319761E+02  0.82880319761E+02  0.00000000000E+00 0.  1.
          2   -1    0    0  502    0 -0.00000000000E+00 -0.00000000000E+00 -0.76391973165E+03  0.76391973165E+03  0.00000000000E+00 0. -1.
         23    2    1    2    0    0  0.73327305204E+02 -0.38882133351E+02 -0.43246441734E+03  0.44982694217E+03  0.91815530548E+02 0.  0.
         23    2    1    2    0    0 -0.11423452062E+03  0.99930277896E+02 -0.26797744960E+03  0.32096829698E+03  0.90405464599E+02 0.  0.
        -11    1    4    4    0    0 -0.79434948170E+02  0.88976646704E+02 -0.25624553205E+03  0.28264558611E+03  0.00000000000E+00 0.  1.
         11    1    4    4    0    0 -0.34799572451E+02  0.10953631191E+02 -0.11731917546E+02  0.38322710869E+02  0.00000000000E+00 0. -1.
        -13    1    3    3    0    0 -0.19839923368E+02 -0.19168381234E+02 -0.12228098135E+03  0.12535424922E+03  0.00000000000E+00 0.  1.
         13    1    3    3    0    0  0.93167228572E+02 -0.19713752116E+02 -0.31018343599E+03  0.32447269294E+03  0.00000000000E+00 0. -1.
          2    1    1    2  501    0  0.40907215417E+02 -0.61048144545E+02  0.19402455053E+02  0.76004812266E+02  0.00000000000E+00 0. -1.
<scales pt_clust_5="13000.00000" pt_clust_6="13000.00000" pt_clust_7="13000.00000" pt_clust_8="13000.00000" pt_clust_9="73.48657"></scales>
<clustering>
<clus scale="   73.487">  1  9  2 -1</clus>
<clus scale="   90.405">  5  6 -1 -1</clus>
<clus scale="   91.816">  7  8 -1 -1</clus>
<clus scale="  134.324">  1  5  2 -1</clus>
<clus scale="   73.487">  1  5  2 -1</clus>
</clustering>
</event>
<event>
 9    1  0.3231311E-005  0.9597023E+02  0.7546771E-02  0.1290140E+00
         21   -1    0    0  501  502  0.00000000000E+00  0.00000000000E+00  0.23005577338E+02  0.23005577338E+02  0.00000000000E+00 0.  1.
          2   -1    0    0  502    0 -0.00000000000E+00 -0.00000000000E+00 -0.67911535334E+03  0.67911535334E+03  0.00000000000E+00 0. -1.
         23    2    1    2    0    0 -0.55666797459E+01 -0.18790082661E+02 -0.46284655637E+03  0.47258141505E+03  0.93392740495E+02 0.  0.
         23    2    1    2    0    0  0.28497493287E+02  0.20578534166E+02 -0.13362756030E+03  0.16562212650E+03  0.91316924631E+02 0.  0.
        -13    1    4    4    0    0 -0.33209478737E+02  0.17174717152E+01 -0.42514753065E+02  0.53975211118E+02  0.00000000000E+00 0.  1.
         13    1    4    4    0    0  0.61706972024E+02  0.18861062451E+02 -0.91112807234E+02  0.11164691539E+03  0.00000000000E+00 0. -1.
        -13    1    3    3    0    0  0.72886638852E+01  0.37187815825E+02 -0.19447316054E+03  0.19813093761E+03  0.00000000000E+00 0. -1.
         13    1    3    3    0    0 -0.12855343631E+02 -0.55977898485E+02 -0.26837339583E+03  0.27445047744E+03  0.00000000000E+00 0.  1.
          2    1    1    2  501    0 -0.22930813541E+02 -0.17884515051E+01 -0.59635659331E+02  0.63917389123E+02  0.00000000000E+00 0. -1.
<scales pt_clust_5="13000.00000" pt_clust_6="13000.00000" pt_clust_7="13000.00000" pt_clust_8="13000.00000" pt_clust_9="23.00045"></scales>
<clustering>
<clus scale="   23.000">  1  9  2 -1</clus>
<clus scale="   91.317">  5  6 -1 -1</clus>
<clus scale="   93.393">  7  8 -1 -1</clus>
<clus scale="   93.951">  1  5  2 -1</clus>
<clus scale="   23.000">  1  5  2 -1</clus>
</clustering>
</event>
<event>
 9    1  0.3231311E-005  0.1366990E+03  0.7546771E-02  0.1218601E+00
         21   -1    0    0  501  502  0.00000000000E+00  0.00000000000E+00  0.33504073358E+02  0.33504073358E+02  0.00000000000E+00 0. -1.
          2   -1    0    0  502    0 -0.00000000000E+00 -0.00000000000E+00 -0.79643870622E+03  0.79643870622E+03  0.00000000000E+00 0. -1.
         23    2    1    2    0    0  0.48846397460E+02 -0.72896501249E+02 -0.40289850802E+03  0.42224724811E+03  0.90915677062E+02 0.  0.
         23    2    1    2    0    0 -0.79364037775E+02  0.90156735076E+02 -0.31974734725E+03  0.35428740809E+03  0.94097364941E+02 0.  0.
        -11    1    3    3    0    0  0.30825953043E+02 -0.91423210679E+02 -0.35432717343E+03  0.36722770683E+03  0.00000000000E+00 0. -1.
         11    1    3    3    0    0  0.18020444417E+02  0.18526709430E+02 -0.48571334585E+02  0.55019541280E+02  0.00000000000E+00 0.  1.
        -13    1    4    4    0    0 -0.58549752910E+02 -0.11480435219E+00 -0.14774877039E+03  0.15892698291E+03  0.00000000000E+00 0. -1.
         13    1    4    4    0    0 -0.20814284866E+02  0.90271539428E+02 -0.17199857685E+03  0.19536042518E+03  0.00000000000E+00 0.  1.
          2    1    1    2  501    0  0.30517640316E+02 -0.17260233827E+02 -0.40288777596E+02  0.53408123374E+02  0.00000000000E+00 0. -1.
<scales pt_clust_5="13000.00000" pt_clust_6="13000.00000" pt_clust_7="13000.00000" pt_clust_8="13000.00000" pt_clust_9="35.06055"></scales>
<clustering>
<clus scale="   35.061">  1  9  2 -1</clus>
<clus scale="   90.916">  5  6 -1 -1</clus>
<clus scale="   94.097">  7  8 -1 -1</clus>
<clus scale="  134.529">  2  5  1 -1</clus>
<clus scale="   35.061">  1  5  2 -1</clus>
</clustering>
</event>
<event>
 9    1  0.3231311E-005  0.1521168E+03  0.7546771E-02  0.1198275E+00
          2   -1    0    0  502    0 -0.00000000000E+00  0.00000000000E+00  0.45705100161E+03  0.45705100161E+03  0.00000000000E+00 0. -1.
         21   -1    0    0  501  502  0.00000000000E+00 -0.00000000000E+00 -0.76958513972E+02  0.76958513972E+02  0.00000000000E+00 0. -1.
         23    2    1    2    0    0  0.45559202946E+02  0.11940767865E+03  0.23699651386E+03  0.28393478635E+03  0.90098727115E+02 0.  0.
         23    2    1    2    0    0 -0.25005244129E+02 -0.11079463704E+03  0.16383214456E+03  0.21963399193E+03  0.92181370084E+02 0.  0.
        -11    1    3    3    0    0  0.70959550549E+02  0.95756153712E+02  0.20269400445E+03  0.23513689253E+03  0.00000000000E+00 0. -1.
         11    1    3    3    0    0 -0.25400347603E+02  0.23651524935E+02  0.34302509409E+02  0.48797893826E+02  0.00000000000E+00 0.  1.
        -13    1    4    4    0    0 -0.52772483984E+02 -0.51079899277E+02  0.52487043968E+02  0.90271706312E+02  0.00000000000E+00 0.  1.
         13    1    4    4    0    0  0.27767239855E+02 -0.59714737764E+02  0.11134510059E+03  0.12936228562E+03  0.00000000000E+00 0. -1.
          2    1    1    2  501    0 -0.20553958816E+02 -0.86130416069E+01 -0.20736170777E+02  0.30440737298E+02  0.00000000000E+00 0. -1.
<scales pt_clust_5="13000.00000" pt_clust_6="13000.00000" pt_clust_7="13000.00000" pt_clust_8="13000.00000" pt_clust_9="22.28564"></scales>
<clustering>
<clus scale="   22.286">  2  9  1 -1</clus>
<clus scale="   90.099">  5  6 -1 -1</clus>
<clus scale="   92.181">  7  8 -1 -1</clus>
<clus scale="  150.864">  1  5  2 -1</clus>
<clus scale="   22.286">  2  5  1 -1</clus>
</clustering>
</event>
<event>
 9    1  0.3231311E-005  0.1170183E+03  0.7546771E-02  0.1249823E+00
          4   -1    0    0  502    0 -0.00000000000E+00  0.00000000000E+00  0.27710740191E+03  0.27710740191E+03  0.00000000000E+00 0. -1.
         21   -1    0    0  501  502  0.00000000000E+00 -0.00000000000E+00 -0.17868500526E+03  0.17868500526E+03  0.00000000000E+00 0. -1.
         23    2    1    2    0    0  0.14958049055E+02  0.63005026215E+02  0.12163577504E+03  0.16475957737E+03  0.90316554438E+02 0.  0.
         23    2    1    2    0    0  0.45263717652E+01 -0.73630706509E+02  0.10567486368E+03  0.16024778983E+03  0.95237641454E+02 0.  0.
        -13    1    3    3    0    0 -0.35107976605E+01 -0.20614007582E+02  0.45901596483E+02  0.50440257419E+02  0.00000000000E+00 0.  1.
         13    1    3    3    0    0  0.18468846715E+02  0.83619033798E+02  0.75734178557E+02  0.11431931995E+03  0.00000000000E+00 0. -1.
        -13    1    4    4    0    0 -0.42426080669E+02 -0.55897291137E+02  0.64848806409E+02  0.95550233752E+02  0.00000000000E+00 0.  1.
         13    1    4    4    0    0  0.46952452434E+02 -0.17733415371E+02  0.40826057267E+02  0.64697556076E+02  0.00000000000E+00 0. -1.
          4    1    1    2  501    0 -0.19484420820E+02  0.10625680293E+02 -0.12888824207E+03  0.13078503997E+03  0.00000000000E+00 0. -1.
<scales pt_clust_5="13000.00000" pt_clust_6="13000.00000" pt_clust_7="13000.00000" pt_clust_8="13000.00000" pt_clust_9="22.19342"></scales>
<clustering>
<clus scale="   22.193">  2  9  1 -1</clus>
<clus scale="   90.317">  5  6 -1 -1</clus>
<clus scale="   95.238">  7  8 -1 -1</clus>
<clus scale="  113.049">  1  5  2 -1</clus>
<clus scale="   22.193">  2  5  1 -1</clus>
</clustering>
</event>
<event>
 9    1  0.3231311E-005  0.1065613E+03  0.7546771E-02  0.1268238E+00
         21   -1    0    0  501  502  0.00000000000E+00  0.00000000000E+00  0.89172607431E+02  0.89172607431E+02  0.00000000000E+00 0.  1.
         -3   -1    0    0    0  501 -0.00000000000E+00 -0.00000000000E+00 -0.19537559692E+03  0.19537559692E+03  0.00000000000E+00 0.  1.
         23    2    1    2    0    0 -0.22277618748E+02  0.65697002724E+02 -0.47206814764E+02  0.12234237514E+03  0.89032493677E+02 0.  0.
         23    2    1    2    0    0  0.37396193941E+02 -0.23205776907E+02 -0.22697028829E+02  0.10431192988E+03  0.91808715242E+02 0.  0.
        -11    1    4    4    0    0  0.34673400361E+02  0.26096039827E+02  0.10706370026E+02  0.44697587702E+02  0.00000000000E+00 0.  1.
         11    1    4    4    0    0  0.27227935801E+01 -0.49301816734E+02 -0.33403398854E+02  0.59614342177E+02  0.00000000000E+00 0. -1.
        -13    1    3    3    0    0  0.12161708468E+02  0.73936873896E+02 -0.19627874644E+02  0.77458517527E+02  0.00000000000E+00 0.  1.
         13    1    3    3    0    0 -0.34439327216E+02 -0.82398711720E+01 -0.27578940120E+02  0.44883857612E+02  0.00000000000E+00 0. -1.
         -3    1    1    2    0  502 -0.15118575193E+02 -0.42491225817E+02 -0.36299145898E+02  0.57893899335E+02  0.00000000000E+00 0.  1.
<scales pt_clust_5="13000.00000" pt_clust_6="13000.00000" pt_clust_7="13000.00000" pt_clust_8="13000.00000" pt_clust_9="45.10075"></scales>
<clustering>
<clus scale="   45.101">  1  9  2 -1</clus>
<clus scale="   89.032">  7  8 -1 -1</clus>
<clus scale="   91.809">  5  6 -1 -1</clus>
<clus scale="  104.179">  2  7  1 -1</clus>
<clus scale="   45.101">  1  5  2 -1</clus>
</clustering>
</event>
<event>
 9    1  0.3231311E-005  0.9034243E+02  0.7546771E-02  0.1306470E+00
          2   -1    0    0  502    0 -0.00000000000E+00  0.00000000000E+00  0.15486341595E+03  0.15486341595E+03  0.00000000000E+00 0. -1.
         21   -1    0    0  501  502  0.00000000000E+00 -0.00000000000E+00 -0.94753833322E+02  0.94753833322E+02  0.00000000000E+00 0.  1.
         23    2    1    2    0    0 -0.25999417368E+01 -0.38914384723E+01  0.62671328078E+02  0.10403058597E+03  0.82902137869E+02 0.  0.
         23    2    1    2    0    0 -0.22718896387E+00 -0.26690647919E+02  0.32165027392E+02  0.99227139717E+02  0.89994410760E+02 0.  0.
        -13    1    4    4    0    0 -0.37195038228E+02  0.35846431023E+01 -0.62886022551E+01  0.37892836438E+02  0.00000000000E+00 0. -1.
         13    1    4    4    0    0  0.36967849264E+02 -0.30275291021E+02  0.38453629647E+02  0.61334303279E+02  0.00000000000E+00 0.  1.
        -13    1    3    3    0    0  0.38299957777E+02 -0.12023175017E+02  0.21979858917E+02  0.45766338079E+02  0.00000000000E+00 0.  1.
         13    1    3    3    0    0 -0.40899899514E+02  0.81317365446E+01  0.40691469161E+02  0.58264247888E+02  0.00000000000E+00 0. -1.
          2    1    1    2  501    0  0.28271307006E+01  0.30582086392E+02 -0.34726772836E+02  0.46359523592E+02  0.00000000000E+00 0. -1.
<scales pt_clust_5="13000.00000" pt_clust_6="13000.00000" pt_clust_7="13000.00000" pt_clust_8="13000.00000" pt_clust_9="30.71248"></scales>
<clustering>
<clus scale="   30.712">  2  9  1 -1</clus>
<clus scale="   82.902">  7  8 -1 -1</clus>
<clus scale="   83.280">  1  7  2 -1</clus>
<clus scale="   89.994">  5  6 -1 -1</clus>
<clus scale="   30.712">  2  5  1 -1</clus>
</clustering>
</event>
<event>
 9    1  0.3231311E-005  0.1192015E+03  0.7546771E-02  0.1244703E+00
         -1   -1    0    0    0  501 -0.00000000000E+00  0.00000000000E+00  0.58724428022E+03  0.58724428022E+03  0.00000000000E+00 0.  1.
         21   -1    0    0  501  502  0.00000000000E+00 -0.00000000000E+00 -0.34001536164E+02  0.34001536164E+02  0.00000000000E+00 0. -1.
         23    2    1    2    0    0 -0.18146146920E+02 -0.94009484626E+02  0.29871222823E+03  0.32683273114E+03  0.91780025079E+02 0.  0.
         23    2    1    2    0    0  0.19177902153E+02  0.53029662783E+02  0.18478400630E+03  0.21351199805E+03  0.90897234628E+02 0.  0.
        -11    1    4    4    0    0 -0.26756594041E+02  0.34268861358E+02  0.14026781648E+03  0.14685138924E+03  0.00000000000E+00 0.  1.
         11    1    4    4    0    0  0.45934496194E+02  0.18760801425E+02  0.44516189823E+02  0.66660608811E+02  0.00000000000E+00 0. -1.
        -13    1    3    3    0    0 -0.50459637612E+02 -0.25576894497E+02  0.11567064516E+03  0.12876354574E+03  0.00000000000E+00 0.  1.
         13    1    3    3    0    0  0.32313490692E+02 -0.68432590129E+02  0.18304158306E+03  0.19806918539E+03  0.00000000000E+00 0. -1.
         -1    1    1    2    0  502 -0.10317552332E+01  0.40979821843E+02  0.69746509530E+02  0.80901087192E+02  0.00000000000E+00 0.  1.
<scales pt_clust_5="13000.00000" pt_clust_6="13000.00000" pt_clust_7="13000.00000" pt_clust_8="13000.00000" pt_clust_9="40.99281"></scales>
<clustering>
<clus scale="   40.993">  2  9  1 -1</clus>
<clus scale="   90.897">  5  6 -1 -1</clus>
<clus scale="   91.780">  7  8 -1 -1</clus>
<clus scale="  118.523">  2  5  1 -1</clus>
<clus scale="   40.993">  2  5  1 -1</clus>
</clustering>
</event>
<event>
 9    1  0.3231311E-005  0.9196992E+02  0.7546771E-02  0.1298908E+00
          1   -1    0    0  502    0 -0.00000000000E+00  0.00000000000E+00  0.27541902208E+03  0.27541902208E+03  0.00000000000E+00 0. -1.
         21   -1    0    0  501  502  0.00000000000E+00 -0.00000000000E+00 -0.54028607044E+02  0.54028607044E+02  0.00000000000E+00 0.  1.
         23    2    1    2    0    0  0.10927335642E+02 -0.22964538262E+02  0.12586193067E+03  0.15650939641E+03  0.89482897205E+02 0.  0.
         23    2    1    2    0    0  0.20941232665E+02  0.18485105758E+02  0.10447990792E+03  0.13953465588E+03  0.88168218041E+02 0.  0.
        -11    1    3    3    0    0 -0.31993381450E+02 -0.34320441858E+02  0.49679048725E+02  0.68333572043E+02  0.00000000000E+00 0.  1.
         11    1    3    3    0    0  0.42920717092E+02  0.11355903596E+02  0.76182881942E+02  0.88175824369E+02  0.00000000000E+00 0. -1.
        -11    1    4    4    0    0  0.29213077267E+02 -0.64577792805E+01  0.10885731184E+03  0.11289384898E+03  0.00000000000E+00 0.  1.
         11    1    4    4    0    0 -0.82718446016E+01  0.24942885039E+02 -0.43774039218E+01  0.26640806900E+02  0.00000000000E+00 0. -1.
          1    1    1    2  501    0 -0.31868568307E+02  0.44794325040E+01 -0.89514235507E+01  0.33403576830E+02  0.00000000000E+00 0. -1.
<scales pt_clust_5="13000.00000" pt_clust_6="13000.00000" pt_clust_7="13000.00000" pt_clust_8="13000.00000" pt_clust_9="32.18184"></scales>
<clustering>
<clus scale="   32.182">  2  9  1 -1</clus>
<clus scale="   88.168">  7  8 -1 -1</clus>
<clus scale="   89.483">  5  6 -1 -1</clus>
<clus scale="   90.691">  2  7  1 -1</clus>
<clus scale="   32.182">  2  5  1 -1</clus>
</clustering>
</event>
<event>
 9    1  0.3231311E-005  0.9791080E+02  0.7546771E-02  0.1286007E+00
          2   -1    0    0  502    0 -0.00000000000E+00  0.00000000000E+00  0.72129036715E+02  0.72129036715E+02  0.00000000000E+00 0. -1.
         21   -1    0    0  501  502  0.00000000000E+00 -0.00000000000E+00 -0.43409451431E+03  0.43409451431E+03  0.00000000000E+00 0. -1.
         23    2    1    2    0    0  0.56311769440E+02 -0.99518470403E+01 -0.21723630656E+02  0.11163477084E+03  0.93382821195E+02 0.  0.
         23    2    1    2    0    0  0.17609397823E+02  0.15613468884E+02 -0.78176414458E+02  0.12223848400E+03  0.90977051450E+02 0.  0.
        -11    1    4    4    0    0 -0.24956614671E+02  0.32232965168E+02 -0.13290551248E+02  0.42876979976E+02  0.00000000000E+00 0.  1.
         11    1    4    4    0    0  0.42566012493E+02 -0.16619496284E+02 -0.64885863210E+02  0.79361504023E+02  0.00000000000E+00 0. -1.
        -13    1    3    3    0    0  0.23124788322E+02  0.26153203985E+02 -0.45324766941E+02  0.57210841734E+02  0.00000000000E+00 0.  1.
         13    1    3    3    0    0  0.33186981118E+02 -0.36105051026E+02  0.23601136285E+02  0.54423929105E+02  0.00000000000E+00 0. -1.
          2    1    1    2  501    0 -0.73921167263E+02 -0.56616218437E+01 -0.26206543248E+03  0.27235029618E+03  0.00000000000E+00 0. -1.
<scales pt_clust_5="13000.00000" pt_clust_6="13000.00000" pt_clust_7="13000.00000" pt_clust_8="13000.00000" pt_clust_9="74.13766"></scales>
<clustering>
<clus scale="   74.138">  2  9  1 -1</clus>
<clus scale="   90.977">  5  6 -1 -1</clus>
<clus scale="   93.383">  7  8 -1 -1</clus>
<clus scale="   95.619">  2  5  1 -1</clus>
<clus scale="   74.138">  2  5  1 -1</clus>
</clustering>
</event>
<event>
 9    1  0.3231311E-005  0.1058908E+03  0.7546771E-02  0.1275857E+00
         -1   -1    0    0    0  501 -0.00000000000E+00  0.00000000000E+00  0.37429128417E+03  0.37429128417E+03  0.00000000000E+00 0.  1.
         21   -1    0    0  501  502  0.00000000000E+00 -0.00000000000E+00 -0.38151183223E+02  0.38151183223E+02  0.00000000000E+00 0. -1.
         23    2    1    2    0    0  0.18544778629E+02 -0.15082881547E+02  0.21535157541E+03  0.24048496996E+03  0.10433272553E+03 0.  0.
         23    2    1    2    0    0 -0.14649981892E+02 -0.10691184493E+02  0.71731578087E+02  0.11640521561E+03  0.89865630426E+02 0.  0.
        -13    1    4    4    0    0 -0.39530773447E+02 -0.11761560345E+02  0.82414181242E+00  0.41251612826E+02  0.00000000000E+00 0.  1.
         13    1    4    4    0    0  0.24880791554E+02  0.10703758523E+01  0.70907436275E+02  0.75153602787E+02  0.00000000000E+00 0. -1.
        -13    1    3    3    0    0 -0.10189560054E+02  0.27249774720E+02  0.16887761137E+03  0.17136518018E+03  0.00000000000E+00 0.  1.
         13    1    3    3    0    0  0.28734338684E+02 -0.42332656267E+02  0.46473964041E+02  0.69119789785E+02  0.00000000000E+00 0. -1.
         -1    1    1    2    0  502 -0.38947967371E+01  0.25774066040E+02  0.49056947453E+02  0.55552281819E+02  0.00000000000E+00 0.  1.
<scales pt_clust_5="13000.00000" pt_clust_6="13000.00000" pt_clust_7="13000.00000" pt_clust_8="13000.00000" pt_clust_9="26.06670"></scales>
<clustering>
<clus scale="   26.067">  2  9  1 -1</clus>
<clus scale="   89.866">  5  6 -1 -1</clus>
<clus scale="   91.670">  2  5  1 -1</clus>
<clus scale="  104.333">  7  8 -1 -1</clus>
<clus scale="   26.067">  2  5  1 -1</clus>
</clustering>
</event>
<event>
 9    1  0.3231311E-005  0.1297599E+03  0.7546771E-02  0.1228088E+00
         -3   -1    0    0    0  501 -0.00000000000E+00  0.00000000000E+00  0.52589839327E+03  0.52589839327E+03  0.00000000000E+00 0.  1.
         21   -1    0    0  501  502  0.00000000000E+00 -0.00000000000E+00 -0.71419004314E+02  0.71419004314E+02  0.00000000000E+00 0.  1.
         23    2    1    2    0    0 -0.10129803885E+03 -0.11955345393E+02  0.37589553722E+03  0.39980279647E+03  0.90225263636E+02 0.  0.
         23    2    1    2    0    0  0.75030419343E+02 -0.80377588348E+01  0.10357232032E+03  0.15611248024E+03  0.89161154974E+02 0.  0.
        -11    1    3    3    0    0 -0.74793308111E+02  0.17379486075E+02  0.33184329798E+03  0.34061130323E+03  0.00000000000E+00 0.  1.
         11    1    3    3    0    0 -0.26504730742E+02 -0.29334831468E+02  0.44052239243E+02  0.59191493234E+02  0.00000000000E+00 0. -1.
        -13    1    4    4    0    0  0.72884952049E+02 -0.38434078961E+02  0.56030799974E+02  0.99643590895E+02  0.00000000000E+00 0. -1.
         13    1    4    4    0    0  0.21454672935E+01  0.30396320126E+02  0.47541520341E+02  0.56468889341E+02  0.00000000000E+00 0.  1.
         -3    1    1    2    0  502  0.26267619510E+02  0.19993104228E+02 -0.24988468582E+02  0.41402120882E+02  0.00000000000E+00 0.  1.
<scales pt_clust_5="13000.00000" pt_clust_6="13000.00000" pt_clust_7="13000.00000" pt_clust_8="13000.00000" pt_clust_9="33.01079"></scales>
<clustering>
<clus scale="   33.011">  2  9  1 -1</clus>
<clus scale="   89.161">  7  8 -1 -1</clus>
<clus scale="   90.225">  5  6 -1 -1</clus>
<clus scale="  129.022">  2  7  1 -1</clus>
<clus scale="   33.011">  2  5  1 -1</clus>
</clustering>
</event>
<event>
 9    1  0.3231311E-005  0.1617099E+03  0.7546771E-02  0.1188507E+00
         21   -1    0    0  501  502  0.00000000000E+00  0.00000000000E+00  0.97630119317E+02  0.97630119317E+02  0.00000000000E+00 0. -1.
         -1   -1    0    0    0  501 -0.00000000000E+00 -0.00000000000E+00 -0.41320749438E+03  0.41320749438E+03  0.00000000000E+00 0.  1.
         23    2    1    2    0    0  0.73179960258E+02  0.95049697531E+02 -0.27600226540E+03  0.31993495306E+03  0.10858808452E+03 0.  0.
         23    2    1    2    0    0 -0.53524652552E+02 -0.10875581508E+03 -0.50405959207E+02  0.16460634757E+03  0.99306460974E+02 0.  0.
        -11    1    3    3    0    0 -0.20771630871E+02  0.28220499780E+02 -0.12577066948E+03  0.13056078492E+03  0.00000000000E+00 0.  1.
         11    1    3    3    0    0  0.93951591129E+02  0.66829197751E+02 -0.15023159592E+03  0.18937416814E+03  0.00000000000E+00 0. -1.
        -13    1    4    4    0    0  0.23881982494E+02 -0.56635921690E+02 -0.32703624403E+02  0.69624017139E+02  0.00000000000E+00 0. -1.
         13    1    4    4    0    0 -0.77406635045E+02 -0.52119893391E+02 -0.17702334804E+02  0.94982330429E+02  0.00000000000E+00 0.  1.
         -1    1    1    2    0  502 -0.19655307706E+02  0.13706117551E+02  0.10830849541E+02  0.26296313071E+02  0.00000000000E+00 0.  1.
<scales pt_clust_5="13000.00000" pt_clust_6="13000.00000" pt_clust_7="13000.00000" pt_clust_8="13000.00000" pt_clust_9="23.96224"></scales>
<clustering>
<clus scale="   23.962">  1  9  2 -1</clus>
<clus scale="   99.306">  7  8 -1 -1</clus>
<clus scale="  108.588">  5  6 -1 -1</clus>
<clus scale="  155.629">  1  7  2 -1</clus>
<clus scale="   23.962">  1  5  2 -1</clus>
</clustering>
</event>
<event>
 9    1  0.3231311E-005  0.1303796E+03  0.7546771E-02  0.1227572E+00
         21   -1    0    0  501  502  0.00000000000E+00  0.00000000000E+00  0.65713165542E+02  0.65713165542E+02  0.00000000000E+00 0.  1.
         -1   -1    0    0    0  501 -0.00000000000E+00 -0.00000000000E+00 -0.45848658822E+03  0.45848658822E+03  0.00000000000E+00 0.  1.
         23    2    1    2    0    0  0.21831979904E+02  0.98188449114E+02 -0.26123411197E+03  0.29434353974E+03  0.90979400102E+02 0.  0.
         23    2    1    2    0    0  0.35314102063E+02 -0.84723429226E+02 -0.10641499278E+03  0.16599532774E+03  0.88346776279E+02 0.  0.
        -11    1    4    4    0    0 -0.11967827419E+02 -0.63174782936E+02 -0.24128964622E+02  0.68676699294E+02  0.00000000000E+00 0.  1.
         11    1    4    4    0    0  0.47281929482E+02 -0.21548646289E+02 -0.82286028162E+02  0.97318628448E+02  0.00000000000E+00 0. -1.
        -11    1    3    3    0    0 -0.53207942829E+01  0.10328299582E+03 -0.23259719664E+03  0.25455283138E+03  0.00000000000E+00 0.  1.
         11    1    3    3    0    0  0.27152774187E+02 -0.50945467088E+01 -0.28636915336E+02  0.39790708365E+02  0.00000000000E+00 0. -1.
         -1    1    1    2    0  502 -0.57146081967E+02 -0.13465019888E+02 -0.25124317916E+02  0.63860886272E+02  0.00000000000E+00 0.  1.
<scales pt_clust_5="13000.00000" pt_clust_6="13000.00000" pt_clust_7="13000.00000" pt_clust_8="13000.00000" pt_clust_9="58.71100"></scales>
<clustering>
<clus scale="   58.711">  1  9  2 -1</clus>
<clus scale="   88.347">  5  6 -1 -1</clus>
<clus scale="   90.979">  7  8 -1 -1</clus>
<clus scale="  128.556">  1  5  2 -1</clus>
<clus scale="   58.711">  1  5  2 -1</clus>
</clustering>
</event>
<event>
 9    1  0.3231311E-005  0.2244757E+03  0.7546771E-02  0.1130648E+00
          1   -1    0    0  502    0 -0.00000000000E+00  0.00000000000E+00  0.19866371325E+04  0.19866371325E+04  0.00000000000E+00 0. -1.
         21   -1    0    0  501  502  0.00000000000E+00 -0.00000000000E+00 -0.31191058481E+02  0.31191058481E+02  0.00000000000E+00 0.  1.
         23    2    1    2    0    0 -0.13460629877E+02 -0.21761356737E+03  0.10990173628E+04  0.11241815559E+04  0.91695984949E+02 0.  0.
         23    2    1    2    0    0  0.74581505505E+01  0.19086100215E+03  0.82613496717E+03  0.85278784860E+03  0.90909760671E+02 0.  0.
        -11    1    4    4    0    0 -0.25803264867E+02  0.45620435646E+02  0.11753048339E+03  0.12868740091E+03  0.00000000000E+00 0.  1.
         11    1    4    4    0    0  0.33261415418E+02  0.14524056651E+03  0.70860448378E+03  0.72410044769E+03  0.00000000000E+00 0. -1.
        -13    1    3    3    0    0 -0.51826623672E+02 -0.13449579741E+03  0.62494125215E+03  0.64134755560E+03  0.00000000000E+00 0.  1.
         13    1    3    3    0    0  0.38365993795E+02 -0.83117769967E+02  0.47407611062E+03  0.48283400027E+03  0.00000000000E+00 0. -1.
          1    1    1    2  501    0  0.60024793269E+01  0.26752565222E+02  0.30293744089E+02  0.40858786508E+02  0.00000000000E+00 0. -1.
<scales pt_clust_5="13000.00000" pt_clust_6="13000.00000" pt_clust_7="13000.00000" pt_clust_8="13000.00000" pt_clust_9="27.41769"></scales>
<clustering>
<clus scale="   27.418">  2  9  1 -1</clus>
<clus scale="   90.910">  5  6 -1 -1</clus>
<clus scale="   91.696">  7  8 -1 -1</clus>
<clus scale="  224.156">  2  5  1 -1</clus>
<clus scale="   27.418">  2  5  1 -1</clus>
</clustering>
</event>
<event>
 9    1  0.3231311E-005  0.1455071E+03  0.7546771E-02  0.1208708E+00
         21   -1    0    0  501  502  0.00000000000E+00  0.00000000000E+00  0.61935417922E+02  0.61935417922E+02  0.00000000000E+00 0.  1.
         -1   -1    0    0    0  501 -0.00000000000E+00 -0.00000000000E+00 -0.56929138576E+03  0.56929138576E+03  0.00000000000E+00 0.  1.
         23    2    1    2    0    0 -0.90477034585E+02 -0.16968434057E+02 -0.18234201699E+03  0.21848814097E+03  0.77552788767E+02 0.  0.
         23    2    1    2    0    0  0.13506489312E+03  0.21986916131E+02 -0.32897142200E+03  0.36769508526E+03  0.90837929299E+02 0.  0.
        -13    1    4    4    0    0  0.10818074945E+03  0.11137179986E+02 -0.31901430546E+03  0.33704189416E+03  0.00000000000E+00 0.  1.
         13    1    4    4    0    0  0.26884143664E+02  0.10849736145E+02 -0.99571165398E+01  0.30653191102E+02  0.00000000000E+00 0. -1.
        -13    1    3    3    0    0 -0.45561994018E+02 -0.46591954413E+02 -0.83156814796E+02  0.10564923739E+03  0.00000000000E+00 0.  1.
         13    1    3    3    0    0 -0.44915040567E+02  0.29623520355E+02 -0.99185202189E+02  0.11283890358E+03  0.00000000000E+00 0. -1.
         -1    1    1    2    0  502 -0.44587858533E+02 -0.50184820738E+01  0.39574711537E+01  0.45043577443E+02  0.00000000000E+00 0.  1.
<scales pt_clust_5="13000.00000" pt_clust_6="13000.00000" pt_clust_7="13000.00000" pt_clust_8="13000.00000" pt_clust_9="44.86939"></scales>
<clustering>
<clus scale="   44.869">  1  9  2 -1</clus>
<clus scale="   77.553">  7  8 -1 -1</clus>
<clus scale="   90.838">  5  6 -1 -1</clus>
<clus scale="  137.605">  2  7  1 -1</clus>
<clus scale="   44.869">  1  5  2 -1</clus>
</clustering>
</event>
<event>
 9    1  0.3231311E-005  0.9793833E+02  0.7546771E-02  0.1287317E+00
         21   -1    0    0  501  502  0.00000000000E+00  0.00000000000E+00  0.69938300997E+02  0.69938300997E+02  0.00000000000E+00 0. -1.
          1   -1    0    0  502    0 -0.00000000000E+00 -0.00000000000E+00 -0.32334229275E+03  0.32334229275E+03  0.00000000000E+00 0. -1.
         23    2    1    2    0    0  0.11954356260E+01  0.17404581488E+02 -0.18847693381E+03  0.21143322358E+03  0.94213082580E+02 0.  0.
         23    2    1    2    0    0 -0.34890228464E+02 -0.36733434123E+02 -0.89236129253E+02  0.13602298194E+03  0.89288810207E+02 0.  0.
        -11    1    4    4    0    0 -0.80185641994E+01 -0.63017943201E+02 -0.44347354558E+02  0.77474165974E+02  0.00000000000E+00 0.  1.
         11    1    4    4    0    0 -0.26871664265E+02  0.26284509078E+02 -0.44888774695E+02  0.58548815970E+02  0.00000000000E+00 0. -1.
        -11    1    3    3    0    0 -0.29171336015E+02  0.10505657373E+02 -0.17461562449E+03  0.17734698192E+03  0.00000000000E+00 0. -1.
         11    1    3    3    0    0  0.30366771641E+02  0.68989241146E+01 -0.13861309324E+02  0.34086241653E+02  0.00000000000E+00 0.  1.
          1    1    1    2  501    0  0.33694792838E+02  0.19328852634E+02  0.24309071311E+02  0.45824388229E+02  0.00000000000E+00 0. -1.
<scales pt_clust_5="13000.00000" pt_clust_6="13000.00000" pt_clust_7="13000.00000" pt_clust_8="13000.00000" pt_clust_9="38.84512"></scales>
<clustering>
<clus scale="   38.845">  1  9  2 -1</clus>
<clus scale="   89.289">  5  6 -1 -1</clus>
<clus scale="   93.211">  1  5  2 -1</clus>
<clus scale="   94.213">  7  8 -1 -1</clus>
<clus scale="   38.845">  1  5  2 -1</clus>
</clustering>
</event>
<event>
 9    1  0.3231311E-005  0.2136275E+03  0.7546771E-02  0.1138987E+00
         21   -1    0    0  501  502  0.00000000000E+00  0.00000000000E+00  0.72079639477E+02  0.72079639477E+02  0.00000000000E+00 0. -1.
          2   -1    0    0  502    0 -0.00000000000E+00 -0.00000000000E+00 -0.10672379131E+04  0.10672379131E+04  0.00000000000E+00 0. -1.
         23    2    1    2    0    0 -0.11132363231E+03  0.14281270480E+03 -0.41113437834E+03  0.45886256828E+03  0.93461006561E+02 0.  0.
         23    2    1    2    0    0  0.16265978103E+03 -0.14196924364E+03 -0.24979474744E+03  0.34230526175E+03  0.90343820306E+02 0.  0.
        -11    1    3    3    0    0 -0.42668753408E+02  0.10229623360E+03 -0.15459845598E+03  0.19022571991E+03  0.00000000000E+00 0.  1.
         11    1    3    3    0    0 -0.68654878899E+02  0.40516471207E+02 -0.25653592237E+03  0.26863684837E+03  0.00000000000E+00 0. -1.
        -11    1    4    4    0    0  0.14068831128E+03 -0.74619691009E+02 -0.14230283408E+03  0.21356824625E+03  0.00000000000E+00 0. -1.
         11    1    4    4    0    0  0.21971469750E+02 -0.67349552634E+02 -0.10749191336E+03  0.12873701550E+03  0.00000000000E+00 0.  1.
          2    1    1    2  501    0 -0.51336148726E+02 -0.84346115985E+00 -0.33422914788E+03  0.33814972259E+03  0.00000000000E+00 0. -1.
<scales pt_clust_5="13000.00000" pt_clust_6="13000.00000" pt_clust_7="13000.00000" pt_clust_8="13000.00000" pt_clust_9="51.34310"></scales>
<clustering>
<clus scale="   51.343">  1  9  2 -1</clus>
<clus scale="   90.344">  7  8 -1 -1</clus>
<clus scale="   93.461">  5  6 -1 -1</clus>
<clus scale="  212.282">  1  7  2 -1</clus>
<clus scale="   51.343">  1  5  2 -1</clus>
</clustering>
</event>
<event>
 9    1  0.3231311E-005  0.1432477E+03  0.7546771E-02  0.1210948E+00
         -1   -1    0    0    0  501 -0.00000000000E+00  0.00000000000E+00  0.71201734170E+03  0.71201734170E+03  0.00000000000E+00 0.  1.
         21   -1    0    0  501  502  0.00000000000E+00 -0.00000000000E+00 -0.49180223430E+02  0.49180223430E+02  0.00000000000E+00 0. -1.
         23    2    1    2    0    0 -0.68632564704E+02  0.94413748094E+02  0.35502040691E+03  0.38254442549E+03  0.81709016523E+02 0.  0.
         23    2    1    2    0    0  0.45421040353E+02 -0.94756387628E+02  0.32248873243E+03  0.35119115744E+03  0.91073610974E+02 0.  0.
        -11    1    3    3    0    0 -0.57437198970E+02  0.46197012618E+02  0.10893190891E+03  0.13152701844E+03  0.00000000000E+00 0. -1.
         11    1    3    3    0    0 -0.11195365734E+02  0.48216735476E+02  0.24608849800E+03  0.25101740705E+03  0.00000000000E+00 0.  1.
        -11    1    4    4    0    0 -0.26544559414E+02 -0.42244389005E+02  0.12137264323E+03  0.13122698107E+03  0.00000000000E+00 0. -1.
         11    1    4    4    0    0  0.71965599767E+02 -0.52511998623E+02  0.20111608920E+03  0.21996417636E+03  0.00000000000E+00 0.  1.
         -1    1    1    2    0  502  0.23211524350E+02  0.34263953393E+00 -0.14672021067E+02  0.27461982207E+02  0.00000000000E+00 0.  1.
<scales pt_clust_5="13000.00000" pt_clust_6="13000.00000" pt_clust_7="13000.00000" pt_clust_8="13000.00000" pt_clust_9="23.21405"></scales>
<clustering>
<clus scale="   23.214">  2  9  1 -1</clus>
<clus scale="   81.709">  5  6 -1 -1</clus>
<clus scale="   91.074">  7  8 -1 -1</clus>
<clus scale="  137.484">  1  5  2 -1</clus>
<clus scale="   23.214">  2  5  1 -1</clus>
</clustering>
</event>
<event>
 9    1  0.3231311E-005  0.1049901E+03  0.7546771E-02  0.1270541E+00
         21   -1    0    0  501  502  0.00000000000E+00  0.00000000000E+00  0.25579779140E+03  0.25579779140E+03  0.00000000000E+00 0. -1.
          3   -1    0    0  502    0 -0.00000000000E+00 -0.00000000000E+00 -0.34317148178E+03  0.34317148178E+03  0.00000000000E+00 0. -1.
         23    2    1    2    0    0 -0.51015367838E+02  0.57469860893E+01 -0.28991730925E+03  0.30807017778E+03  0.90661969064E+02 0.  0.
         23    2    1    2    0    0  0.40310494573E+02 -0.76594952537E+02  0.17147222918E+03  0.21280005623E+03  0.91593754280E+02 0.  0.
        -13    1    4    4    0    0  0.69849991149E+02 -0.60151694683E+02  0.12330938850E+03  0.15395600972E+03  0.00000000000E+00 0. -1.
         13    1    4    4    0    0 -0.29539496576E+02 -0.16443257854E+02  0.48162840676E+02  0.58844046502E+02  0.00000000000E+00 0.  1.
        -13    1    3    3    0    0  0.22803721167E+02 -0.15075474715E+02 -0.83708457567E+02  0.88058988781E+02  0.00000000000E+00 0.  1.
         13    1    3    3    0    0 -0.73819089005E+02  0.20822460804E+02 -0.20620885168E+03  0.22001118900E+03  0.00000000000E+00 0. -1.
          3    1    1    2  501    0  0.10704873265E+02  0.70847966448E+02  0.31071389690E+02  0.78099039166E+02  0.00000000000E+00 0. -1.
<scales pt_clust_5="13000.00000" pt_clust_6="13000.00000" pt_clust_7="13000.00000" pt_clust_8="13000.00000" pt_clust_9="71.65214"></scales>
<clustering>
<clus scale="   71.652">  1  9  2 -1</clus>
<clus scale="   90.662">  7  8 -1 -1</clus>
<clus scale="   91.594">  5  6 -1 -1</clus>
<clus scale="  104.178">  2  7  1 -1</clus>
<clus scale="   71.652">  1  5  2 -1</clus>
</clustering>
</event>
<event>
 9    1  0.3231311E-005  0.9135045E+02  0.7546771E-02  0.1299690E+00
         -1   -1    0    0    0  501 -0.00000000000E+00  0.00000000000E+00  0.53872434456E+03  0.53872434456E+03  0.00000000000E+00 0.  1.
         21   -1    0    0  501  502  0.00000000000E+00 -0.00000000000E+00 -0.26383839479E+02  0.26383839479E+02  0.00000000000E+00 0. -1.
         23    2    1    2    0    0 -0.55409658780E+01  0.27457016453E+01  0.33334723888E+03  0.34559039255E+03  0.90962061194E+02 0.  0.
         23    2    1    2    0    0  0.14935034543E+02  0.19902890350E+02  0.10253291270E+03  0.13922213218E+03  0.90832943370E+02 0.  0.
        -11    1    3    3    0    0 -0.35850634807E+01 -0.43045701964E+02  0.12472528268E+03  0.13199311072E+03  0.00000000000E+00 0.  1.
         11    1    3    3    0    0 -0.19559023973E+01  0.45791403609E+02  0.20862195620E+03  0.21359728183E+03  0.00000000000E+00 0. -1.
        -13    1    4    4    0    0 -0.18353393438E+02 -0.21152194453E+02  0.52276565932E+01  0.28488432290E+02  0.00000000000E+00 0.  1.
         13    1    4    4    0    0  0.33288427981E+02  0.41055084803E+02  0.97305256107E+02  0.11073369989E+03  0.00000000000E+00 0. -1.
         -1    1    1    2    0  502 -0.93940686651E+01 -0.22648591995E+02  0.76460353500E+02  0.80295659302E+02  0.00000000000E+00 0.  1.
<scales pt_clust_5="13000.00000" pt_clust_6="13000.00000" pt_clust_7="13000.00000" pt_clust_8="13000.00000" pt_clust_9="24.51954"></scales>
<clustering>
<clus scale="   24.520">  2  9  1 -1</clus>
<clus scale="   90.833">  7  8 -1 -1</clus>
<clus scale="   90.962">  5  6 -1 -1</clus>
<clus scale="   91.222">  2  7  1 -1</clus>
<clus scale="   24.520">  2  5  1 -1</clus>
</clustering>
</event>
<event>
 9    1  0.3231311E-005  0.1396464E+03  0.7546771E-02  0.1213907E+00
         21   -1    0    0  501  502  0.00000000000E+00  0.00000000000E+00  0.14561648023E+03  0.14561648023E+03  0.00000000000E+00 0.  1.
          2   -1    0    0  502    0 -0.00000000000E+00 -0.00000000000E+00 -0.26715530886E+03  0.26715530886E+03  0.00000000000E+00 0. -1.
         23    2    1    2    0    0 -0.93822606401E+02  0.19388225744E+02 -0.13885899710E+03  0.19235460311E+03  0.92411511687E+02 0.  0.
         23    2    1    2    0    0  0.12010027879E+03 -0.38047609973E+02 -0.34169177831E+02  0.15967312068E+03  0.91958007614E+02 0.  0.
        -11    1    4    4    0    0  0.99020509125E+02 -0.24715956968E+02  0.16323955041E+02  0.10335575100E+03  0.00000000000E+00 0.  1.
         11    1    4    4    0    0  0.21079769670E+02 -0.13331653005E+02 -0.50493132872E+02  0.56317369687E+02  0.00000000000E+00 0. -1.
        -13    1    3    3    0    0 -0.10687541427E+03  0.35250894360E+02 -0.11886225851E+03  0.16368633488E+03  0.00000000000E+00 0. -1.
         13    1    3    3    0    0  0.13052807871E+02 -0.15862668616E+02 -0.19996738591E+02  0.28668268229E+02  0.00000000000E+00 0.  1.
          2    1    1    2  501    0 -0.26277672394E+02  0.18659384229E+02  0.51489346297E+02  0.60744065294E+02  0.00000000000E+00 0. -1.
<scales pt_clust_5="13000.00000" pt_clust_6="13000.00000" pt_clust_7="13000.00000" pt_clust_8="13000.00000" pt_clust_9="32.22869"></scales>
<clustering>
<clus scale="   32.229">  1  9  2 -1</clus>
<clus scale="   91.958">  5  6 -1 -1</clus>
<clus scale="   92.412">  7  8 -1 -1</clus>
<clus scale="  139.347">  1  5  2 -1</clus>
<clus scale="   32.229">  1  5  2 -1</clus>
</clustering>
</event>
<event>
 9    1  0.3231311E-005  0.1104498E+03  0.7546771E-02  0.1262192E+00
         21   -1    0    0  501  502  0.00000000000E+00  0.00000000000E+00  0.42958485016E+02  0.42958485016E+02  0.00000000000E+00 0.  1.
          1   -1    0    0  502    0 -0.00000000000E+00 -0.00000000000E+00 -0.54068973920E+03  0.54068973920E+03  0.00000000000E+00 0. -1.
         23    2    1    2    0    0 -0.30831108831E+02 -0.63227207547E+01 -0.24522091095E+03  0.26638488872E+03  0.99182053312E+02 0.  0.
         23    2    1    2    0    0  0.78816346692E+02 -0.34230623041E+02 -0.19123128595E+03  0.22950070332E+03  0.93367103621E+02 0.  0.
        -13    1    4    4    0    0  0.49244062554E+02  0.54871872641E+01 -0.23929529942E+02  0.55024624707E+02  0.00000000000E+00 0.  1.
         13    1    4    4    0    0  0.29572284138E+02 -0.39717810305E+02 -0.16730175601E+03  0.17447607862E+03  0.00000000000E+00 0. -1.
        -13    1    3    3    0    0 -0.56711193140E+02 -0.26494317472E+02 -0.10384731687E+03  0.12125334431E+03  0.00000000000E+00 0.  1.
         13    1    3    3    0    0  0.25880084309E+02  0.20171596717E+02 -0.14137359408E+03  0.14513154440E+03  0.00000000000E+00 0. -1.
          1    1    1    2  501    0 -0.47985237861E+02  0.40553343796E+02 -0.61279057277E+02  0.87762632175E+02  0.00000000000E+00 0. -1.
<scales pt_clust_5="13000.00000" pt_clust_6="13000.00000" pt_clust_7="13000.00000" pt_clust_8="13000.00000" pt_clust_9="62.82640"></scales>
<clustering>
<clus scale="   62.826">  1  9  2 -1</clus>
<clus scale="   93.367">  5  6 -1 -1</clus>
<clus scale="   99.182">  7  8 -1 -1</clus>
<clus scale="  105.259">  1  5  2 -1</clus>
<clus scale="   62.826">  1  5  2 -1</clus>
</clustering>
</event>
<event>
 9    1  0.3231311E-005  0.1013171E+03  0.7546771E-02  0.1278340E+00
         21   -1    0    0  501  502  0.00000000000E+00  0.00000000000E+00  0.45263931895E+02  0.45263931895E+02  0.00000000000E+00 0.  1.
          1   -1    0    0  502    0 -0.00000000000E+00 -0.00000000000E+00 -0.30935151414E+03  0.30935151414E+03  0.00000000000E+00 0. -1.
         23    2    1    2    0    0 -0.52009752556E+02 -0.17795398220E+02 -0.16728427355E+03  0.19756284642E+03  0.89584371111E+02 0.  0.
         23    2    1    2    0    0  0.26675306492E+02  0.49413175936E+01 -0.72753020248E+02  0.11983059107E+03  0.91270915439E+02 0.  0.
        -11    1    3    3    0    0 -0.31752101042E+02  0.34925733136E+02 -0.92501957103E+02  0.10384900011E+03  0.00000000000E+00 0. -1.
         11    1    3    3    0    0 -0.20257651515E+02 -0.52721131355E+02 -0.74782316448E+02  0.93713846306E+02  0.00000000000E+00 0.  1.
        -11    1    4    4    0    0 -0.39053077385E+01 -0.40352525495E+02 -0.29612213046E+02  0.50204192094E+02  0.00000000000E+00 0.  1.
         11    1    4    4    0    0  0.30580614231E+02  0.45293843088E+02 -0.43140807203E+02  0.69626398977E+02  0.00000000000E+00 0. -1.
          1    1    1    2  501    0  0.25334446064E+02  0.12854080626E+02 -0.24050288447E+02  0.37222008550E+02  0.00000000000E+00 0. -1.
<scales pt_clust_5="13000.00000" pt_clust_6="13000.00000" pt_clust_7="13000.00000" pt_clust_8="13000.00000" pt_clust_9="28.40883"></scales>
<clustering>
<clus scale="   28.409">  1  9  2 -1</clus>
<clus scale="   89.584">  5  6 -1 -1</clus>
<clus scale="   91.271">  7  8 -1 -1</clus>
<clus scale="   99.800">  2  5  1 -1</clus>
<clus scale="   28.409">  1  5  2 -1</clus>
</clustering>
</event>
<event>
 9    1  0.3231311E-005  0.1010589E+03  0.7546771E-02  0.1281897E+00
         21   -1    0    0  501  502  0.00000000000E+00  0.00000000000E+00  0.28071534511E+03  0.28071534511E+03  0.00000000000E+00 0.  1.
          1   -1    0    0  502    0 -0.00000000000E+00 -0.00000000000E+00 -0.11427658443E+03  0.11427658443E+03  0.00000000000E+00 0. -1.
         23    2    1    2    0    0 -0.45529715613E+01  0.12149274031E+02 -0.25578025748E+02  0.94890691059E+02  0.90452603274E+02 0.  0.
         23    2    1    2    0    0 -0.24433213165E+02 -0.46786511267E+02  0.88730479591E+01  0.11147047204E+03  0.97780241430E+02 0.  0.
        -11    1    3    3    0    0  0.22598343321E+02 -0.13717920430E+02  0.21942116736E+02  0.34355828452E+02  0.00000000000E+00 0. -1.
         11    1    3    3    0    0 -0.27151314882E+02  0.25867194461E+02 -0.47520142484E+02  0.60534862607E+02  0.00000000000E+00 0.  1.
        -13    1    4    4    0    0 -0.40433047073E+02 -0.11374905533E+02  0.42740396800E+02  0.59924630079E+02  0.00000000000E+00 0.  1.
         13    1    4    4    0    0  0.15999833908E+02 -0.35411605734E+02 -0.33867348841E+02  0.51545841959E+02  0.00000000000E+00 0. -1.
          1    1    1    2  501    0  0.28986184726E+02  0.34637237236E+02  0.18314373847E+03  0.18863076644E+03  0.00000000000E+00 0. -1.
<scales pt_clust_5="13000.00000" pt_clust_6="13000.00000" pt_clust_7="13000.00000" pt_clust_8="13000.00000" pt_clust_9="45.16566"></scales>
<clustering>
<clus scale="   45.166">  1  9  2 -1</clus>
<clus scale="   90.453">  5  6 -1 -1</clus>
<clus scale="   93.987">  2  5  1 -1</clus>
<clus scale="   97.780">  7  8 -1 -1</clus>
<clus scale="   45.166">  1  5  2 -1</clus>
</clustering>
</event>
<event>
 9    1  0.8059859E-005  0.9165088E+02  0.7546771E-02  0.1300484E+00
         -3   -1    0    0    0  501 -0.00000000000E+00  0.00000000000E+00  0.41418996765E+03  0.41418996765E+03  0.00000000000E+00 0.  1.
         21   -1    0    0  501  502  0.00000000000E+00 -0.00000000000E+00 -0.14622448537E+03  0.14622448537E+03  0.00000000000E+00 0.  1.
         23    2    1    2    0    0  0.16950975299E+00 -0.55690281202E+01  0.35662601727E+03  0.36753099757E+03  0.88689769280E+02 0.  0.
         23    2    1    2    0    0 -0.42810148662E+02  0.16261998028E+02 -0.98557417589E+01  0.10264621741E+03  0.91334270095E+02 0.  0.
        -11    1    4    4    0    0 -0.68189514533E+02  0.25958960436E+02  0.20289035809E+01  0.72991739046E+02  0.00000000000E+00 0.  1.
         11    1    4    4    0    0  0.25379365871E+02 -0.96969624079E+01 -0.11884645340E+02  0.29654478360E+02  0.00000000000E+00 0. -1.
        -11    1    3    3    0    0 -0.13357778484E+02 -0.44797183794E+02  0.21046495443E+03  0.21559386579E+03  0.00000000000E+00 0.  1.
         11    1    3    3    0    0  0.13527288237E+02  0.39228155674E+02  0.14616106284E+03  0.15193713179E+03  0.00000000000E+00 0. -1.
         -3    1    1    2    0  502  0.42640638909E+02 -0.10692969908E+02 -0.78804793235E+02  0.90237238039E+02  0.00000000000E+00 0.  1.
<scales pt_clust_5="13000.00000" pt_clust_6="13000.00000" pt_clust_7="13000.00000" pt_clust_8="13000.00000" pt_clust_9="43.96093"></scales>
<clustering>
<clus scale="   43.961">  2  9  1 -1</clus>
<clus scale="   88.690">  7  8 -1 -1</clus>
<clus scale="   89.016">  1  7  2 -1</clus>
<clus scale="   91.334">  5  6 -1 -1</clus>
<clus scale="   43.961">  2  5  1 -1</clus>
</clustering>
</event>
<event>
 9    1  0.3759509E-005  0.1755668E+03  0.7546771E-02  0.1172402E+00
          2   -1    0    0  502    0 -0.00000000000E+00  0.00000000000E+00  0.38707856967E+03  0.38707856967E+03  0.00000000000E+00 0. -1.
         21   -1    0    0  501  502  0.00000000000E+00 -0.00000000000E+00 -0.20893894460E+03  0.20893894460E+03  0.00000000000E+00 0.  1.
         23    2    1    2    0    0 -0.71937628281E+02  0.12954805187E+03  0.29992638513E+03  0.34647084689E+03  0.90158145179E+02 0.  0.
         23    2    1    2    0    0  0.53835608821E+02 -0.15215877598E+03 -0.11861090560E+03  0.22040882249E+03  0.91983347511E+02 0.  0.
        -13    1    3    3    0    0 -0.31762218681E+02  0.33981391807E+02  0.25344679561E+02  0.52970994957E+02  0.00000000000E+00 0.  1.
         13    1    3    3    0    0 -0.40175409600E+02  0.95566660063E+02  0.27458170557E+03  0.29349985193E+03  0.00000000000E+00 0. -1.
        -13    1    4    4    0    0  0.83741063221E+00 -0.12297566825E+03 -0.95258362776E+02  0.15555665179E+03  0.00000000000E+00 0.  1.
         13    1    4    4    0    0  0.52998198189E+02 -0.29183107736E+02 -0.23352542820E+02  0.64852170700E+02  0.00000000000E+00 0. -1.
          2    1    1    2  501    0  0.18102019460E+02  0.22610724110E+02 -0.31758544583E+01  0.29137844890E+02  0.00000000000E+00 0. -1.
<scales pt_clust_5="13000.00000" pt_clust_6="13000.00000" pt_clust_7="13000.00000" pt_clust_8="13000.00000" pt_clust_9="28.96425"></scales>
<clustering>
<clus scale="   28.964">  2  9  1 -1</clus>
<clus scale="   90.158">  5  6 -1 -1</clus>
<clus scale="   91.983">  7  8 -1 -1</clus>
<clus scale="  174.617">  1  5  2 -1</clus>
<clus scale="   28.964">  2  5  1 -1</clus>
</clustering>
</event>
<event>
 9    1  0.3231311E-005  0.1091922E+03  0.7546771E-02  0.1262282E+00
          2   -1    0    0  502    0 -0.00000000000E+00  0.00000000000E+00  0.45216256999E+02  0.45216256999E+02  0.00000000000E+00 0. -1.
         21   -1    0    0  501  502  0.00000000000E+00 -0.00000000000E+00 -0.12411447012E+04  0.12411447012E+04  0.00000000000E+00 0.  1.
         23    2    1    2    0    0 -0.38137035690E+02 -0.24383111036E+02 -0.51745940699E+02  0.11677829910E+03  0.94395758206E+02 0.  0.
         23    2    1    2    0    0  0.69871688173E+02  0.94836045488E+02 -0.55099131224E+03  0.57137993967E+03  0.94908803381E+02 0.  0.
        -11    1    4    4    0    0  0.77344355968E+02  0.67362636229E+02 -0.51683199873E+03  0.52691098780E+03  0.00000000000E+00 0.  1.
         11    1    4    4    0    0 -0.74726677949E+01  0.27473409259E+02 -0.34159313514E+02  0.44468951866E+02  0.00000000000E+00 0. -1.
        -13    1    3    3    0    0 -0.21507089774E+02  0.32651893135E+01 -0.74295713188E+02  0.77414916973E+02  0.00000000000E+00 0.  1.
         13    1    3    3    0    0 -0.16629945916E+02 -0.27648300350E+02  0.22549772488E+02  0.39363382129E+02  0.00000000000E+00 0. -1.
          2    1    1    2  501    0 -0.31734652483E+02 -0.70452934452E+02 -0.59319119124E+03  0.59820271940E+03  0.00000000000E+00 0. -1.
<scales pt_clust_5="13000.00000" pt_clust_6="13000.00000" pt_clust_7="13000.00000" pt_clust_8="13000.00000" pt_clust_9="77.27033"></scales>
<clustering>
<clus scale="   77.270">  2  9  1 -1</clus>
<clus scale="   94.396">  7  8 -1 -1</clus>
<clus scale="   94.909">  5  6 -1 -1</clus>
<clus scale="  108.747">  1  7  2 -1</clus>
<clus scale="   77.270">  2  5  1 -1</clus>
</clustering>
</event>
<event>
 9    1  0.3231311E-005  0.1154003E+03  0.7546771E-02  0.1253020E+00
         -3   -1    0    0    0  501 -0.00000000000E+00  0.00000000000E+00  0.41093125436E+02  0.41093125436E+02  0.00000000000E+00 0.  1.
         21   -1    0    0  501  502  0.00000000000E+00 -0.00000000000E+00 -0.54350569706E+03  0.54350569706E+03  0.00000000000E+00 0.  1.
         23    2    1    2    0    0 -0.17606801887E+02 -0.80062404716E+02 -0.18344680677E+03  0.22172907801E+03  0.93760679392E+02 0.  0.
         23    2    1    2    0    0  0.40376511340E+02  0.20450800133E+02 -0.20177409504E+03  0.22943102992E+03  0.99384677741E+02 0.  0.
        -11    1    4    4    0    0 -0.60655729082E+01  0.52155056403E+02 -0.10805031645E+03  0.12013247675E+03  0.00000000000E+00 0.  1.
         11    1    4    4    0    0  0.46442084248E+02 -0.31704256271E+02 -0.93723778581E+02  0.10929855318E+03  0.00000000000E+00 0. -1.
        -13    1    3    3    0    0 -0.18851228066E+02 -0.10126742603E+03 -0.15754968572E+03  0.18823486352E+03  0.00000000000E+00 0.  1.
         13    1    3    3    0    0  0.12444261790E+01  0.21205021317E+02 -0.25897121056E+02  0.33494214494E+02  0.00000000000E+00 0. -1.
         -3    1    1    2    0  502 -0.22769709453E+02  0.59611604583E+02 -0.11719166982E+03  0.13343871456E+03  0.00000000000E+00 0.  1.
<scales pt_clust_5="13000.00000" pt_clust_6="13000.00000" pt_clust_7="13000.00000" pt_clust_8="13000.00000" pt_clust_9="63.81225"></scales>
<clustering>
<clus scale="   63.812">  2  9  1 -1</clus>
<clus scale="   93.761">  7  8 -1 -1</clus>
<clus scale="   99.385">  5  6 -1 -1</clus>
<clus scale="  110.594">  1  7  2 -1</clus>
<clus scale="   63.812">  2  5  1 -1</clus>
</clustering>
</event>
<event>
 9    1  0.3231311E-005  0.2068232E+03  0.7546771E-02  0.1144272E+00
         21   -1    0    0  501  502  0.00000000000E+00  0.00000000000E+00  0.12818648296E+03  0.12818648296E+03  0.00000000000E+00 0.  1.
          2   -1    0    0  502    0 -0.00000000000E+00 -0.00000000000E+00 -0.65419881841E+03  0.65419881841E+03  0.00000000000E+00 0. -1.
         23    2    1    2    0    0  0.11851433401E+03  0.13336758200E+03 -0.32745371726E+03  0.38432421645E+03  0.92987134089E+02 0.  0.
         23    2    1    2    0    0 -0.15340689520E+03 -0.12083705454E+03 -0.25290427127E+03  0.33227389048E+03  0.91159742330E+02 0.  0.
        -11    1    4    4    0    0 -0.12274472257E+03 -0.13436299537E+03 -0.21476911889E+03  0.28150569421E+03  0.00000000000E+00 0.  1.
         11    1    4    4    0    0 -0.30662172635E+02  0.13525940822E+02 -0.38135152377E+02  0.50768196271E+02  0.00000000000E+00 0. -1.
        -13    1    3    3    0    0 -0.25464295972E+01  0.36127317208E+02 -0.11902355531E+03  0.12441171195E+03  0.00000000000E+00 0.  1.
         13    1    3    3    0    0  0.12106076361E+03  0.97240264793E+02 -0.20843016195E+03  0.25991250449E+03  0.00000000000E+00 0. -1.
          2    1    1    2  501    0  0.34892561192E+02 -0.12530527456E+02  0.54345653075E+02  0.65787194445E+02  0.00000000000E+00 0. -1.
<scales pt_clust_5="13000.00000" pt_clust_6="13000.00000" pt_clust_7="13000.00000" pt_clust_8="13000.00000" pt_clust_9="37.07432"></scales>
<clustering>
<clus scale="   37.074">  1  9  2 -1</clus>
<clus scale="   91.160">  5  6 -1 -1</clus>
<clus scale="   92.987">  7  8 -1 -1</clus>
<clus scale="  206.008">  1  5  2 -1</clus>
<clus scale="   37.074">  1  5  2 -1</clus>
</clustering>
</event>
<event>
 9    1  0.3231311E-005  0.1552815E+03  0.7546771E-02  0.1194860E+00
          1   -1    0    0  502    0 -0.00000000000E+00  0.00000000000E+00  0.40361867041E+03  0.40361867041E+03  0.00000000000E+00 0. -1.
         21   -1    0    0  501  502  0.00000000000E+00 -0.00000000000E+00 -0.15052225321E+03  0.15052225321E+03  0.00000000000E+00 0.  1.
         23    2    1    2    0    0  0.75069036381E+02 -0.10905412009E+03  0.31243807210E+03  0.35096760189E+03  0.89624479629E+02 0.  0.
         23    2    1    2    0    0 -0.66346058600E+02  0.84328857464E+02  0.13423052723E+01  0.13706755817E+03  0.85279294233E+02 0.  0.
        -11    1    4    4    0    0 -0.56807798796E+02  0.24936366133E+02 -0.30361400127E+02  0.69070709984E+02  0.00000000000E+00 0.  1.
         11    1    4    4    0    0 -0.95382598041E+01  0.59392491331E+02  0.31703705399E+02  0.67996848182E+02  0.00000000000E+00 0. -1.
        -11    1    3    3    0    0  0.22808887118E+02 -0.88090280939E+02  0.25403704331E+03  0.26984247683E+03  0.00000000000E+00 0. -1.
         11    1    3    3    0    0  0.52260149263E+02 -0.20963839152E+02  0.58401028793E+02  0.81125125067E+02  0.00000000000E+00 0.  1.
          1    1    1    2  501    0 -0.87229777804E+01  0.24725262627E+02 -0.60683960176E+02  0.66105763561E+02  0.00000000000E+00 0. -1.
<scales pt_clust_5="13000.00000" pt_clust_6="13000.00000" pt_clust_7="13000.00000" pt_clust_8="13000.00000" pt_clust_9="26.21887"></scales>
<clustering>
<clus scale="   26.219">  2  9  1 -1</clus>
<clus scale="   85.279">  5  6 -1 -1</clus>
<clus scale="   89.624">  7  8 -1 -1</clus>
<clus scale="  152.815">  2  5  1 -1</clus>
<clus scale="   26.219">  2  5  1 -1</clus>
</clustering>
</event>
<event>
 9    1  0.3231311E-005  0.1426267E+03  0.7546771E-02  0.1210307E+00
          2   -1    0    0  502    0 -0.00000000000E+00  0.00000000000E+00  0.62149539750E+03  0.62149539750E+03  0.00000000000E+00 0. -1.
         21   -1    0    0  501  502  0.00000000000E+00 -0.00000000000E+00 -0.41836684795E+02  0.41836684795E+02  0.00000000000E+00 0.  1.
         23    2    1    2    0    0  0.95635515253E+02 -0.92091137087E+01  0.25934398677E+03  0.29116569918E+03  0.91034066988E+02 0.  0.
         23    2    1    2    0    0 -0.12766962837E+03  0.36902154240E+00  0.27571812641E+03  0.31654994380E+03  0.88790266951E+02 0.  0.
        -13    1    3    3    0    0  0.34328794094E+02  0.45914002366E+01  0.13098968691E+02  0.37028773148E+02  0.00000000000E+00 0.  1.
         13    1    3    3    0    0  0.61306721159E+02 -0.13800513945E+02  0.24624501808E+03  0.25413692603E+03  0.00000000000E+00 0. -1.
        -13    1    4    4    0    0 -0.87589053904E+02  0.13613089375E+02  0.25411470550E+03  0.26913090145E+03  0.00000000000E+00 0.  1.
         13    1    4    4    0    0 -0.40080574465E+02 -0.13244067833E+02  0.21603420910E+02  0.47419042348E+02  0.00000000000E+00 0. -1.
          2    1    1    2  501    0  0.32034113117E+02  0.88400921663E+01  0.44596599526E+02  0.55616439314E+02  0.00000000000E+00 0. -1.
<scales pt_clust_5="13000.00000" pt_clust_6="13000.00000" pt_clust_7="13000.00000" pt_clust_8="13000.00000" pt_clust_9="33.23149"></scales>
<clustering>
<clus scale="   33.231">  2  9  1 -1</clus>
<clus scale="   88.790">  7  8 -1 -1</clus>
<clus scale="   91.034">  5  6 -1 -1</clus>
<clus scale="  141.205">  2  7  1 -1</clus>
<clus scale="   33.231">  2  5  1 -1</clus>
</clustering>
</event>
<event>
 9    1  0.3231311E-005  0.1068684E+03  0.7546771E-02  0.1266862E+00
         21   -1    0    0  501  502  0.00000000000E+00  0.00000000000E+00  0.69379760471E+02  0.69379760471E+02  0.00000000000E+00 0. -1.
          1   -1    0    0  502    0 -0.00000000000E+00 -0.00000000000E+00 -0.53263070637E+03  0.53263070637E+03  0.00000000000E+00 0. -1.
         23    2    1    2    0    0  0.56683095487E+02  0.61852417051E+01 -0.43627041762E+03  0.44946865938E+03  0.91863855477E+02 0.  0.
         23    2    1    2    0    0 -0.44661517937E+02  0.11582404742E+02 -0.56084632254E+02  0.11638580581E+03  0.90947053467E+02 0.  0.
        -11    1    3    3    0    0 -0.22450534733E+02 -0.12330242860E+02 -0.78073501491E+02  0.82167712843E+02  0.00000000000E+00 0.  1.
         11    1    3    3    0    0  0.79133630220E+02  0.18515484565E+02 -0.35819691613E+03  0.36730094654E+03  0.00000000000E+00 0. -1.
        -13    1    4    4    0    0 -0.14930821228E+01  0.43104812851E+02 -0.67684940081E+01  0.43658523753E+02  0.00000000000E+00 0.  1.
         13    1    4    4    0    0 -0.43168435814E+02 -0.31522408108E+02 -0.49316138246E+02  0.72727282055E+02  0.00000000000E+00 0. -1.
          1    1    1    2  501    0 -0.12021577550E+02 -0.17767646448E+02  0.29104103979E+02  0.36156001652E+02  0.00000000000E+00 0. -1.
<scales pt_clust_5="13000.00000" pt_clust_6="13000.00000" pt_clust_7="13000.00000" pt_clust_8="13000.00000" pt_clust_9="21.45245"></scales>
<clustering>
<clus scale="   21.452">  1  9  2 -1</clus>
<clus scale="   90.947">  7  8 -1 -1</clus>
<clus scale="   91.864">  5  6 -1 -1</clus>
<clus scale="  106.081">  1  7  2 -1</clus>
<clus scale="   21.452">  1  5  2 -1</clus>
</clustering>
</event>
<event>
 9    1  0.3231311E-005  0.2284489E+03  0.7546771E-02  0.1127765E+00
         21   -1    0    0  501  502  0.00000000000E+00  0.00000000000E+00  0.25131826422E+03  0.25131826422E+03  0.00000000000E+00 0.  1.
          2   -1    0    0  502    0 -0.00000000000E+00 -0.00000000000E+00 -0.36652583992E+03  0.36652583992E+03  0.00000000000E+00 0. -1.
         23    2    1    2    0    0  0.19640979109E+03 -0.53809502692E+02 -0.22286773031E+03  0.31569212675E+03  0.92299648219E+02 0.  0.
         23    2    1    2    0    0 -0.22399056748E+03  0.57411435128E+02  0.11388405702E+03  0.27364916867E+03  0.91904525810E+02 0.  0.
        -11    1    4    4    0    0 -0.17291350227E+03  0.76059656290E+02  0.62869488764E+02  0.19908973655E+03  0.00000000000E+00 0.  1.
         11    1    4    4    0    0 -0.51077065210E+02 -0.18648221162E+02  0.51014568254E+02  0.74559432113E+02  0.00000000000E+00 0. -1.
        -13    1    3    3    0    0  0.12242496822E+03  0.13685994031E+02 -0.13037587319E+03  0.17936846876E+03  0.00000000000E+00 0. -1.
         13    1    3    3    0    0  0.73984822867E+02 -0.67495496722E+02 -0.92491857122E+02  0.13632365798E+03  0.00000000000E+00 0.  1.
          2    1    1    2  501    0  0.27580776396E+02 -0.36019324364E+01 -0.62239024148E+01  0.28502808724E+02  0.00000000000E+00 0. -1.
<scales pt_clust_5="13000.00000" pt_clust_6="13000.00000" pt_clust_7="13000.00000" pt_clust_8="13000.00000" pt_clust_9="27.81499"></scales>
<clustering>
<clus scale="   27.815">  1  9  2 -1</clus>
<clus scale="   91.905">  5  6 -1 -1</clus>
<clus scale="   92.300">  7  8 -1 -1</clus>
<clus scale="  228.290">  1  5  2 -1</clus>
<clus scale="   27.815">  1  5  2 -1</clus>
</clustering>
</event>
<event>
 9    1  0.3231311E-005  0.1680262E+03  0.7546771E-02  0.1180068E+00
         21   -1    0    0  501  502  0.00000000000E+00  0.00000000000E+00  0.99720666614E+02  0.99720666614E+02  0.00000000000E+00 0. -1.
         -1   -1    0    0    0  501 -0.00000000000E+00 -0.00000000000E+00 -0.59942912906E+03  0.59942912906E+03  0.00000000000E+00 0.  1.
         23    2    1    2    0    0 -0.10906070925E+03 -0.10021935378E+03 -0.47064923263E+03  0.50177054699E+03  0.91240476085E+02 0.  0.
         23    2    1    2    0    0  0.78185418156E+02  0.84222656820E+02 -0.51375436255E+02  0.15606108097E+03  0.92245379345E+02 0.  0.
        -11    1    4    4    0    0  0.62963690670E+02  0.55009009227E+01 -0.40698333415E+02  0.75173403519E+02  0.00000000000E+00 0.  1.
         11    1    4    4    0    0  0.15221727486E+02  0.78721755897E+02 -0.10677102839E+02  0.80887677456E+02  0.00000000000E+00 0. -1.
        -13    1    3    3    0    0 -0.90311281943E+02 -0.82594644625E+02 -0.45604775490E+03  0.47218381772E+03  0.00000000000E+00 0.  1.
         13    1    3    3    0    0 -0.18749427304E+02 -0.17624709150E+02 -0.14601477729E+02  0.29586729267E+02  0.00000000000E+00 0. -1.
         -1    1    1    2    0  502  0.30875291090E+02  0.15996696955E+02  0.22316206437E+02  0.41318167713E+02  0.00000000000E+00 0.  1.
<scales pt_clust_5="13000.00000" pt_clust_6="13000.00000" pt_clust_7="13000.00000" pt_clust_8="13000.00000" pt_clust_9="34.77324"></scales>
<clustering>
<clus scale="   34.773">  1  9  2 -1</clus>
<clus scale="   91.240">  7  8 -1 -1</clus>
<clus scale="   92.245">  5  6 -1 -1</clus>
<clus scale="  167.477">  2  7  1 -1</clus>
<clus scale="   34.773">  1  5  2 -1</clus>
</clustering>
</event>
<event>
 9    1  0.3231311E-005  0.9314427E+02  0.7546771E-02  0.1299110E+00
          2   -1    0    0  502    0 -0.00000000000E+00  0.00000000000E+00  0.18241722624E+03  0.18241722624E+03  0.00000000000E+00 0. -1.
         21   -1    0    0  501  502  0.00000000000E+00 -0.00000000000E+00 -0.17024277888E+03  0.17024277888E+03  0.00000000000E+00 0.  1.
         23    2    1    2    0    0 -0.20989097878E+02 -0.38996790921E+01  0.89779882136E+02  0.12600303139E+03  0.85793863163E+02 0.  0.
         23    2    1    2    0    0 -0.37435550599E+02  0.37729315345E+02  0.19830964810E+02  0.10811695601E+03  0.92038510020E+02 0.  0.
        -13    1    3    3    0    0  0.29049882509E+02 -0.15107366056E+02  0.16779943690E+02  0.36792590194E+02  0.00000000000E+00 0.  1.
         13    1    3    3    0    0 -0.50038980387E+02  0.11207686964E+02  0.72999938447E+02  0.89210441197E+02  0.00000000000E+00 0. -1.
        -13    1    4    4    0    0 -0.58034826503E+02  0.11198207317E+02  0.37665602400E+02  0.70086650216E+02  0.00000000000E+00 0. -1.
         13    1    4    4    0    0  0.20599275904E+02  0.26531108027E+02 -0.17834637590E+02  0.38030305795E+02  0.00000000000E+00 0.  1.
          2    1    1    2  501    0  0.58424648477E+02 -0.33829636252E+02 -0.97436399586E+02  0.11854001773E+03  0.00000000000E+00 0. -1.
<scales pt_clust_5="13000.00000" pt_clust_6="13000.00000" pt_clust_7="13000.00000" pt_clust_8="13000.00000" pt_clust_9="67.51210"></scales>
<clustering>
<clus scale="   67.512">  2  9  1 -1</clus>
<clus scale="   85.794">  5  6 -1 -1</clus>
<clus scale="   86.979">  1  5  2 -1</clus>
<clus scale="   92.039">  7  8 -1 -1</clus>
<clus scale="   67.512">  2  5  1 -1</clus>
</clustering>
</event>
<event>
 9    1  0.3231311E-005  0.1082391E+03  0.7546771E-02  0.1270362E+00
          3   -1    0    0  502    0 -0.00000000000E+00  0.00000000000E+00  0.22809854072E+03  0.22809854072E+03  0.00000000000E+00 0. -1.
         21   -1    0    0  501  502  0.00000000000E+00 -0.00000000000E+00 -0.75294231931E+02  0.75294231931E+02  0.00000000000E+00 0.  1.
         23    2    1    2    0    0  0.30259254813E+02  0.88484046539E+01  0.11316824021E+03  0.14621462982E+03  0.87050276360E+02 0.  0.
         23    2    1    2    0    0 -0.48120054735E+02 -0.34389863973E+02  0.45364944413E+02  0.12548911735E+03  0.10095215688E+03 0.  0.
        -13    1    4    4    0    0 -0.47837808644E+02 -0.67786448074E+02  0.26312757739E+02  0.87039184843E+02  0.00000000000E+00 0.  1.
         13    1    4    4    0    0 -0.28224609070E+00  0.33396584101E+02  0.19052186675E+02  0.38449932504E+02  0.00000000000E+00 0. -1.
        -13    1    3    3    0    0  0.47849470069E+02 -0.12477584228E+02  0.28338540148E+02  0.56994164191E+02  0.00000000000E+00 0.  1.
         13    1    3    3    0    0 -0.17590215257E+02  0.21325988881E+02  0.84829700059E+02  0.89220465627E+02  0.00000000000E+00 0. -1.
          3    1    1    2  501    0  0.17860799922E+02  0.25541459319E+02 -0.57288758320E+01  0.31689025487E+02  0.00000000000E+00 0. -1.
<scales pt_clust_5="13000.00000" pt_clust_6="13000.00000" pt_clust_7="13000.00000" pt_clust_8="13000.00000" pt_clust_9="31.16688"></scales>
<clustering>
<clus scale="   31.167">  2  9  1 -1</clus>
<clus scale="   87.050">  7  8 -1 -1</clus>
<clus scale="   95.405">  1  7  2 -1</clus>
<clus scale="  100.952">  5  6 -1 -1</clus>
<clus scale="   31.167">  2  5  1 -1</clus>
</clustering>
</event>
<event>
 9    1  0.3231311E-005  0.9778411E+02  0.7546771E-02  0.1285442E+00
         21   -1    0    0  501  502  0.00000000000E+00  0.00000000000E+00  0.15047574997E+03  0.15047574997E+03  0.00000000000E+00 0.  1.
          3   -1    0    0  502    0 -0.00000000000E+00 -0.00000000000E+00 -0.96599484810E+02  0.96599484810E+02  0.00000000000E+00 0. -1.
         23    2    1    2    0    0 -0.15601673811E+02 -0.26484708170E+02 -0.24982594005E+01  0.95842287620E+02  0.90744976741E+02 0.  0.
         23    2    1    2    0    0  0.45065694877E+02  0.25007582356E+02  0.62601877059E+02  0.12108182185E+03  0.89919500343E+02 0.  0.
        -11    1    3    3    0    0  0.57684849009E+01  0.20662009772E+02 -0.30268678210E+02  0.37099689304E+02  0.00000000000E+00 0.  1.
         11    1    3    3    0    0 -0.21370158712E+02 -0.47146717941E+02  0.27770418810E+02  0.58742598316E+02  0.00000000000E+00 0. -1.
        -11    1    4    4    0    0 -0.25602603517E+02  0.15001216118E+02  0.66960908951E+01  0.30419852484E+02  0.00000000000E+00 0. -1.
         11    1    4    4    0    0  0.70668298395E+02  0.10006366238E+02  0.55905786164E+02  0.90661969369E+02  0.00000000000E+00 0.  1.
          3    1    1    2  501    0 -0.29464021066E+02  0.14771258139E+01 -0.62273524992E+01  0.30151125305E+02  0.00000000000E+00 0. -1.
<scales pt_clust_5="13000.00000" pt_clust_6="13000.00000" pt_clust_7="13000.00000" pt_clust_8="13000.00000" pt_clust_9="29.50104"></scales>
<clustering>
<clus scale="   29.501">  1  9  2 -1</clus>
<clus scale="   89.920">  7  8 -1 -1</clus>
<clus scale="   90.745">  5  6 -1 -1</clus>
<clus scale="   97.019">  1  7  2 -1</clus>
<clus scale="   29.501">  1  5  2 -1</clus>
</clustering>
</event>
<event>
 9    1  0.3231311E-005  0.1188394E+03  0.7546771E-02  0.1251636E+00
         21   -1    0    0  501  502  0.00000000000E+00  0.00000000000E+00  0.45529486100E+02  0.45529486100E+02  0.00000000000E+00 0.  1.
         -2   -1    0    0    0  501 -0.00000000000E+00 -0.00000000000E+00 -0.50314704147E+03  0.50314704147E+03  0.00000000000E+00 0.  1.
         23    2    1    2    0    0  0.14074670914E+01  0.36921295783E+02 -0.27117872443E+03  0.29372344536E+03  0.10663207176E+03 0.  0.
         23    2    1    2    0    0  0.75206222938E+01 -0.85584619127E+02 -0.13657392853E+03  0.18470823676E+03  0.89907774872E+02 0.  0.
        -11    1    4    4    0    0 -0.75582419986E+01 -0.10175202703E+03 -0.10792134360E+03  0.14851807443E+03  0.00000000000E+00 0.  1.
         11    1    4    4    0    0  0.15078864292E+02  0.16167407903E+02 -0.28652584927E+02  0.36190162332E+02  0.00000000000E+00 0. -1.
        -13    1    3    3    0    0 -0.93007825954E+01  0.66126589697E+02 -0.24210434419E+03  0.25114486636E+03  0.00000000000E+00 0.  1.
         13    1    3    3    0    0  0.10708249687E+02 -0.29205293914E+02 -0.29074380234E+02  0.42578579004E+02  0.00000000000E+00 0. -1.
         -2    1    1    2    0  502 -0.89280893852E+01  0.48663323344E+02 -0.49864902410E+02  0.70244845443E+02  0.00000000000E+00 0.  1.
<scales pt_clust_5="13000.00000" pt_clust_6="13000.00000" pt_clust_7="13000.00000" pt_clust_8="13000.00000" pt_clust_9="49.47555"></scales>
<clustering>
<clus scale="   49.476">  1  9  2 -1</clus>
<clus scale="   89.908">  5  6 -1 -1</clus>
<clus scale="  104.095">  1  5  2 -1</clus>
<clus scale="  106.632">  7  8 -1 -1</clus>
<clus scale="   49.476">  1  5  2 -1</clus>
</clustering>
</event>
<event>
 9    1  0.3231311E-005  0.9748242E+02  0.7546771E-02  0.1286259E+00
          1   -1    0    0  502    0 -0.00000000000E+00  0.00000000000E+00  0.67324769011E+03  0.67324769011E+03  0.00000000000E+00 0. -1.
         21   -1    0    0  501  502  0.00000000000E+00 -0.00000000000E+00 -0.48345173415E+02  0.48345173415E+02  0.00000000000E+00 0.  1.
         23    2    1    2    0    0  0.23550735144E+02 -0.18710700498E+02  0.42274223706E+03  0.43389181855E+03  0.92985933198E+02 0.  0.
         23    2    1    2    0    0 -0.59939802675E+01  0.32442742430E+02  0.23127499298E+03  0.25103395960E+03  0.91877457295E+02 0.  0.
        -11    1    3    3    0    0  0.32113926631E+02  0.31389452958E+02  0.15528152019E+03  0.16164452528E+03  0.00000000000E+00 0.  1.
         11    1    3    3    0    0 -0.85631914870E+01 -0.50100153456E+02  0.26746071687E+03  0.27224729327E+03  0.00000000000E+00 0. -1.
        -13    1    4    4    0    0 -0.14524413522E+02  0.59737640503E+02  0.10601324543E+03  0.12254938796E+03  0.00000000000E+00 0.  1.
         13    1    4    4    0    0  0.85304332546E+01 -0.27294898073E+02  0.12526174755E+03  0.12848457165E+03  0.00000000000E+00 0. -1.
          1    1    1    2  501    0 -0.17556754877E+02 -0.13732041932E+02 -0.29114713338E+02  0.36667085379E+02  0.00000000000E+00 0. -1.
<scales pt_clust_5="13000.00000" pt_clust_6="13000.00000" pt_clust_7="13000.00000" pt_clust_8="13000.00000" pt_clust_9="22.28920"></scales>
<clustering>
<clus scale="   22.289">  2  9  1 -1</clus>
<clus scale="   91.877">  7  8 -1 -1</clus>
<clus scale="   92.986">  5  6 -1 -1</clus>
<clus scale="   96.426">  2  7  1 -1</clus>
<clus scale="   22.289">  2  5  1 -1</clus>
</clustering>
</event>
<event>
 9    1  0.3231311E-005  0.2378094E+03  0.7546771E-02  0.1122835E+00
          1   -1    0    0  502    0 -0.00000000000E+00  0.00000000000E+00  0.32619174234E+03  0.32619174234E+03  0.00000000000E+00 0. -1.
         21   -1    0    0  501  502  0.00000000000E+00 -0.00000000000E+00 -0.46865535721E+03  0.46865535721E+03  0.00000000000E+00 0.  1.
         23    2    1    2    0    0  0.19744288120E+02  0.20252184092E+03  0.11475435753E+03  0.25914678032E+03  0.11217646017E+03 0.  0.
         23    2    1    2    0    0  0.11507178691E+03 -0.24259899801E+03 -0.27367451373E+03  0.39409392686E+03  0.91194812037E+02 0.  0.
        -11    1    3    3    0    0 -0.77734635786E+01  0.61277820514E+02 -0.16973744015E+02  0.64058613854E+02  0.00000000000E+00 0.  1.
         11    1    3    3    0    0  0.27517751698E+02  0.14124402041E+03  0.13172810154E+03  0.19508816647E+03  0.00000000000E+00 0. -1.
        -11    1    4    4    0    0  0.12742799635E+03 -0.20559756982E+03 -0.21494255904E+03  0.32358701868E+03  0.00000000000E+00 0.  1.
         11    1    4    4    0    0 -0.12356209436E+02 -0.37001428194E+02 -0.58731954686E+02  0.70506908181E+02  0.00000000000E+00 0. -1.
          1    1    1    2  501    0 -0.13481607503E+03  0.40077157089E+02  0.16456541328E+02  0.14160639237E+03  0.00000000000E+00 0. -1.
<scales pt_clust_5="13000.00000" pt_clust_6="13000.00000" pt_clust_7="13000.00000" pt_clust_8="13000.00000" pt_clust_9="140.64698"></scales>
<clustering>
<clus scale="   91.195">  7  8 -1 -1</clus>
<clus scale="  112.176">  5  6 -1 -1</clus>
<clus scale="  140.647">  2  9  1 -1</clus>
<clus scale="  228.662">  2  7  1 -1</clus>
<clus scale="  140.647">  2  5  1 -1</clus>
</clustering>
</event>
<event>
 9    1  0.3231311E-005  0.1026624E+03  0.7546771E-02  0.1274886E+00
         -3   -1    0    0    0  501 -0.00000000000E+00  0.00000000000E+00  0.14325064173E+03  0.14325064173E+03  0.00000000000E+00 0.  1.
         21   -1    0    0  501  502  0.00000000000E+00 -0.00000000000E+00 -0.34281439050E+03  0.34281439050E+03  0.00000000000E+00 0.  1.
         23    2    1    2    0    0  0.28064611733E+02 -0.45272828270E+02  0.10219575317E+03  0.14711962410E+03  0.91449223167E+02 0.  0.
         23    2    1    2    0    0  0.70003055418E+01 -0.49101087270E+01 -0.16114875312E+03  0.18558551027E+03  0.91651227742E+02 0.  0.
        -13    1    3    3    0    0  0.96243241852E+01 -0.66183438858E+02  0.98408297894E+02  0.11898347906E+03  0.00000000000E+00 0.  1.
         13    1    3    3    0    0  0.18440287548E+02  0.20910610588E+02  0.37874552724E+01  0.28136145035E+02  0.00000000000E+00 0. -1.
        -13    1    4    4    0    0  0.17537339833E+02  0.29238250694E+02 -0.19037022762E+02  0.39049223138E+02  0.00000000000E+00 0. -1.
         13    1    4    4    0    0 -0.10537034292E+02 -0.34148359421E+02 -0.14211173035E+03  0.14653628713E+03  0.00000000000E+00 0.  1.
         -3    1    1    2    0  502 -0.35064917275E+02  0.50182936997E+02 -0.14061074881E+03  0.15335989786E+03  0.00000000000E+00 0.  1.
<scales pt_clust_5="13000.00000" pt_clust_6="13000.00000" pt_clust_7="13000.00000" pt_clust_8="13000.00000" pt_clust_9="61.21990"></scales>
<clustering>
<clus scale="   61.220">  2  9  1 -1</clus>
<clus scale="   91.449">  5  6 -1 -1</clus>
<clus scale="   91.651">  7  8 -1 -1</clus>
<clus scale="  102.482">  1  5  2 -1</clus>
<clus scale="   61.220">  2  5  1 -1</clus>
</clustering>
</event>
<event>
 9    1  0.3231311E-005  0.2004640E+03  0.7546771E-02  0.1149373E+00
          1   -1    0    0  502    0 -0.00000000000E+00  0.00000000000E+00  0.21492410404E+03  0.21492410404E+03  0.00000000000E+00 0. -1.
         21   -1    0    0  501  502  0.00000000000E+00 -0.00000000000E+00 -0.26662436603E+03  0.26662436603E+03  0.00000000000E+00 0. -1.
         23    2    1    2    0    0 -0.88398258676E+02  0.13162715442E+03  0.20968792007E+02  0.18387884780E+03  0.90729160210E+02 0.  0.
         23    2    1    2    0    0  0.11850609269E+03 -0.17603801546E+03 -0.38564678183E+02  0.23409356785E+03  0.90991687610E+02 0.  0.
        -11    1    4    4    0    0  0.52279667294E+02 -0.13190455133E+02 -0.19185731607E+02  0.57229747652E+02  0.00000000000E+00 0.  1.
         11    1    4    4    0    0  0.66226425394E+02 -0.16284756032E+03 -0.19378946575E+02  0.17686382020E+03  0.00000000000E+00 0. -1.
        -11    1    3    3    0    0 -0.22650935372E+02 -0.33063118256E+01 -0.17633575774E+02  0.28895320827E+02  0.00000000000E+00 0.  1.
         11    1    3    3    0    0 -0.65747323304E+02  0.13493346624E+03  0.38602367781E+02  0.15498352697E+03  0.00000000000E+00 0. -1.
          1    1    1    2  501    0 -0.30107834012E+02  0.44410861038E+02 -0.34104375806E+02  0.63576054424E+02  0.00000000000E+00 0. -1.
<scales pt_clust_5="13000.00000" pt_clust_6="13000.00000" pt_clust_7="13000.00000" pt_clust_8="13000.00000" pt_clust_9="53.65451"></scales>
<clustering>
<clus scale="   53.655">  2  9  1 -1</clus>
<clus scale="   90.729">  7  8 -1 -1</clus>
<clus scale="   90.992">  5  6 -1 -1</clus>
<clus scale="  200.345">  1  7  2 -1</clus>
<clus scale="   53.655">  2  5  1 -1</clus>
</clustering>
</event>
<event>
 9    1  0.3231311E-005  0.1311049E+03  0.7546771E-02  0.1226465E+00
          1   -1    0    0  502    0 -0.00000000000E+00  0.00000000000E+00  0.53763730885E+03  0.53763730885E+03  0.00000000000E+00 0. -1.
         21   -1    0    0  501  502  0.00000000000E+00 -0.00000000000E+00 -0.14158579266E+03  0.14158579266E+03  0.00000000000E+00 0. -1.
         23    2    1    2    0    0  0.57607498265E+02  0.79351265311E+02  0.40489580127E+03  0.42627197713E+03  0.90288102389E+02 0.  0.
         23    2    1    2    0    0 -0.79524230072E+01 -0.95363605938E+02  0.78125306103E+02  0.15153252971E+03  0.87755830227E+02 0.  0.
        -13    1    4    4    0    0  0.16306392149E+02 -0.19036709159E+02 -0.14600104183E+02  0.29007891386E+02  0.00000000000E+00 0.  1.
         13    1    4    4    0    0 -0.24258815156E+02 -0.76326896779E+02  0.92725410286E+02  0.12252463833E+03  0.00000000000E+00 0. -1.
        -13    1    3    3    0    0 -0.21274621122E+02  0.38849341275E+02  0.14930247314E+03  0.15573409808E+03  0.00000000000E+00 0. -1.
         13    1    3    3    0    0  0.78882119387E+02  0.40501924036E+02  0.25559332814E+03  0.27053787904E+03  0.00000000000E+00 0.  1.
          1    1    1    2  501    0 -0.49655075258E+02  0.16012340626E+02 -0.86969591187E+02  0.10141859466E+03  0.00000000000E+00 0. -1.
<scales pt_clust_5="13000.00000" pt_clust_6="13000.00000" pt_clust_7="13000.00000" pt_clust_8="13000.00000" pt_clust_9="52.17300"></scales>
<clustering>
<clus scale="   52.173">  2  9  1 -1</clus>
<clus scale="   87.756">  5  6 -1 -1</clus>
<clus scale="   90.288">  7  8 -1 -1</clus>
<clus scale="  129.374">  2  5  1 -1</clus>
<clus scale="   52.173">  2  5  1 -1</clus>
</clustering>
</event>
<event>
 9    1  0.3231311E-005  0.2268281E+03  0.7546771E-02  0.1129082E+00
         21   -1    0    0  501  502  0.00000000000E+00  0.00000000000E+00  0.11298445795E+04  0.11298445795E+04  0.00000000000E+00 0. -1.
         -1   -1    0    0    0  501 -0.00000000000E+00 -0.00000000000E+00 -0.52158952627E+02  0.52158952627E+02  0.00000000000E+00 0.  1.
         23    2    1    2    0    0  0.16613421111E+03  0.11633949977E+03  0.45115398940E+03  0.50235808812E+03  0.87682787587E+02 0.  0.
         23    2    1    2    0    0 -0.19073375982E+03 -0.10022729486E+03  0.56678784223E+03  0.61305669110E+03  0.90361333710E+02 0.  0.
        -11    1    3    3    0    0  0.88054396096E+02  0.11046149554E+03  0.26241879252E+03  0.29802506830E+03  0.00000000000E+00 0.  1.
         11    1    3    3    0    0  0.78079815012E+02  0.58780042317E+01  0.18873519688E+03  0.20433301982E+03  0.00000000000E+00 0. -1.
        -13    1    4    4    0    0 -0.67195419100E+02 -0.20272869348E+02  0.90335282719E+02  0.11439701431E+03  0.00000000000E+00 0.  1.
         13    1    4    4    0    0 -0.12353834072E+03 -0.79954425514E+02  0.47645255951E+03  0.49865967678E+03  0.00000000000E+00 0. -1.
         -1    1    1    2    0  502  0.24599548708E+02 -0.16112204908E+02  0.59743795200E+02  0.66588752869E+02  0.00000000000E+00 0.  1.
<scales pt_clust_5="13000.00000" pt_clust_6="13000.00000" pt_clust_7="13000.00000" pt_clust_8="13000.00000" pt_clust_9="29.40649"></scales>
<clustering>
<clus scale="   29.406">  1  9  2 -1</clus>
<clus scale="   87.683">  5  6 -1 -1</clus>
<clus scale="   90.361">  7  8 -1 -1</clus>
<clus scale="  225.774">  2  5  1 -1</clus>
<clus scale="   29.406">  1  5  2 -1</clus>
</clustering>
</event>
<event>
 9    1  0.3231311E-005  0.1048858E+03  0.7546771E-02  0.1273353E+00
         21   -1    0    0  501  502  0.00000000000E+00  0.00000000000E+00  0.37482332712E+03  0.37482332712E+03  0.00000000000E+00 0.  1.
          1   -1    0    0  502    0 -0.00000000000E+00 -0.00000000000E+00 -0.44148474811E+02  0.44148474811E+02  0.00000000000E+00 0. -1.
         23    2    1    2    0    0 -0.14885047138E+02 -0.21802965568E+02  0.13802966668E+03  0.16595808890E+03  0.88277768719E+02 0.  0.
         23    2    1    2    0    0  0.25811227906E+01  0.67534138210E+02  0.14246616021E+03  0.18401616744E+03  0.94856845078E+02 0.  0.
        -11    1    3    3    0    0 -0.28504035290E+02  0.16110515211E+02  0.14106679740E+02  0.35651467592E+02  0.00000000000E+00 0.  1.
         11    1    3    3    0    0  0.13618988152E+02 -0.37913480779E+02  0.12392298694E+03  0.13030662130E+03  0.00000000000E+00 0. -1.
        -13    1    4    4    0    0  0.89762779733E+01 -0.19270760859E+02  0.58852895234E+01  0.22058386684E+02  0.00000000000E+00 0. -1.
         13    1    4    4    0    0 -0.63951551826E+01  0.86804899068E+02  0.13658087068E+03  0.16195778076E+03  0.00000000000E+00 0.  1.
          1    1    1    2  501    0  0.12303924348E+02 -0.45731172641E+02  0.50179025420E+02  0.68997545591E+02  0.00000000000E+00 0. -1.
<scales pt_clust_5="13000.00000" pt_clust_6="13000.00000" pt_clust_7="13000.00000" pt_clust_8="13000.00000" pt_clust_9="47.35746"></scales>
<clustering>
<clus scale="   47.357">  1  9  2 -1</clus>
<clus scale="   88.278">  5  6 -1 -1</clus>
<clus scale="   94.857">  7  8 -1 -1</clus>
<clus scale="   98.976">  2  5  1 -1</clus>
<clus scale="   47.357">  1  5  2 -1</clus>
</clustering>
</event>
<event>
 9    1  0.3231311E-005  0.2438248E+03  0.7546771E-02  0.1117647E+00
          2   -1    0    0  502    0 -0.00000000000E+00  0.00000000000E+00  0.10490692850E+04  0.10490692850E+04  0.00000000000E+00 0. -1.
         21   -1    0    0  501  502  0.00000000000E+00 -0.00000000000E+00 -0.12896094321E+03  0.12896094321E+03  0.00000000000E+00 0.  1.
         23    2    1    2    0    0  0.22100186278E+03  0.73639402620E+02  0.88337985698E+03  0.91838268513E+03  0.93820038703E+02 0.  0.
         23    2    1    2    0    0 -0.17092961854E+03 -0.62488338996E+02  0.11151220800E+02  0.20232588662E+03  0.87690864214E+02 0.  0.
        -11    1    3    3    0    0  0.14243330156E+03  0.60278569653E+02  0.40726638559E+03  0.43564510807E+03  0.00000000000E+00 0.  1.
         11    1    3    3    0    0  0.78568561217E+02  0.13360832967E+02  0.47611347138E+03  0.48273757706E+03  0.00000000000E+00 0. -1.
        -11    1    4    4    0    0 -0.44138998050E+02 -0.45693743301E+02  0.34530501163E+02  0.72308539166E+02  0.00000000000E+00 0. -1.
         11    1    4    4    0    0 -0.12679062049E+03 -0.16794595695E+02 -0.23379280362E+02  0.13001734746E+03  0.00000000000E+00 0.  1.
          2    1    1    2  501    0 -0.50072244237E+02 -0.11151063625E+02  0.25577263996E+02  0.57321656435E+02  0.00000000000E+00 0. -1.
<scales pt_clust_5="13000.00000" pt_clust_6="13000.00000" pt_clust_7="13000.00000" pt_clust_8="13000.00000" pt_clust_9="51.29889"></scales>
<clustering>
<clus scale="   51.299">  2  9  1 -1</clus>
<clus scale="   87.691">  7  8 -1 -1</clus>
<clus scale="   93.820">  5  6 -1 -1</clus>
<clus scale="  241.533">  2  7  1 -1</clus>
<clus scale="   51.299">  2  5  1 -1</clus>
</clustering>
</event>
<event>
 9    1  0.3231311E-005  0.9402037E+02  0.7546771E-02  0.1294283E+00
         -1   -1    0    0    0  501 -0.00000000000E+00  0.00000000000E+00  0.50180888315E+03  0.50180888315E+03  0.00000000000E+00 0.  1.
         21   -1    0    0  501  502  0.00000000000E+00 -0.00000000000E+00 -0.10795384313E+03  0.10795384313E+03  0.00000000000E+00 0.  1.
         23    2    1    2    0    0  0.17960465566E+02 -0.16894503197E+02  0.46214066688E+03  0.47169194308E+03  0.91166280048E+02 0.  0.
         23    2    1    2    0    0  0.58923411026E+01 -0.11765264065E+01 -0.55332050773E+02  0.10546229305E+03  0.89579883427E+02 0.  0.
        -11    1    3    3    0    0  0.44946483918E+02  0.18390269791E+02  0.19981465603E+03  0.20563143048E+03  0.00000000000E+00 0.  1.
         11    1    3    3    0    0 -0.26986018352E+02 -0.35284772988E+02  0.26232601085E+03  0.26606051259E+03  0.00000000000E+00 0. -1.
        -11    1    4    4    0    0 -0.43891060429E+01  0.43479644223E+02 -0.23034575458E+02  0.49399750811E+02  0.00000000000E+00 0. -1.
         11    1    4    4    0    0  0.10281447146E+02 -0.44656170630E+02 -0.32297475315E+02  0.56062542240E+02  0.00000000000E+00 0.  1.
         -1    1    1    2    0  502 -0.23852806669E+02  0.18071029604E+02 -0.12953576090E+02  0.32608490158E+02  0.00000000000E+00 0.  1.
<scales pt_clust_5="13000.00000" pt_clust_6="13000.00000" pt_clust_7="13000.00000" pt_clust_8="13000.00000" pt_clust_9="29.92522"></scales>
<clustering>
<clus scale="   29.925">  2  9  1 -1</clus>
<clus scale="   89.580">  7  8 -1 -1</clus>
<clus scale="   91.166">  5  6 -1 -1</clus>
<clus scale="   92.483">  2  7  1 -1</clus>
<clus scale="   29.925">  2  5  1 -1</clus>
</clustering>
</event>
<event>
 9    1  0.3231311E-005  0.9341614E+02  0.7546771E-02  0.1296437E+00
         21   -1    0    0  501  502  0.00000000000E+00  0.00000000000E+00  0.34722493585E+02  0.34722493585E+02  0.00000000000E+00 0.  1.
          3   -1    0    0  502    0 -0.00000000000E+00 -0.00000000000E+00 -0.44805220230E+03  0.44805220230E+03  0.00000000000E+00 0. -1.
         23    2    1    2    0    0  0.38866140440E+02 -0.60045700268E+01 -0.18897173302E+03  0.21242396688E+03  0.88696077108E+02 0.  0.
         23    2    1    2    0    0  0.10314955195E+02 -0.20430847352E+02 -0.12899558620E+03  0.15984463509E+03  0.91578536155E+02 0.  0.
        -11    1    3    3    0    0 -0.89797993107E+01 -0.37630014201E+02 -0.91297601829E+02  0.99155972407E+02  0.00000000000E+00 0. -1.
         11    1    3    3    0    0  0.47845939751E+02  0.31625444174E+02 -0.97674131187E+02  0.11326799448E+03  0.00000000000E+00 0.  1.
        -13    1    4    4    0    0 -0.39011942610E+02  0.41959414321E+01 -0.55468940320E+02  0.67943659976E+02  0.00000000000E+00 0. -1.
         13    1    4    4    0    0  0.49326897805E+02 -0.24626788784E+02 -0.73526645883E+02  0.91900975118E+02  0.00000000000E+00 0.  1.
          3    1    1    2  501    0 -0.49181095635E+02  0.26435417379E+02 -0.95362389497E+02  0.11050609391E+03  0.00000000000E+00 0. -1.
<scales pt_clust_5="13000.00000" pt_clust_6="13000.00000" pt_clust_7="13000.00000" pt_clust_8="13000.00000" pt_clust_9="55.83560"></scales>
<clustering>
<clus scale="   55.836">  1  9  2 -1</clus>
<clus scale="   88.696">  5  6 -1 -1</clus>
<clus scale="   90.592">  2  5  1 -1</clus>
<clus scale="   91.579">  7  8 -1 -1</clus>
<clus scale="   55.836">  1  5  2 -1</clus>
</clustering>
</event>
<event>
 9    1  0.3231311E-005  0.1606799E+03  0.7546771E-02  0.1188178E+00
         21   -1    0    0  501  502  0.00000000000E+00  0.00000000000E+00  0.78354846965E+02  0.78354846965E+02  0.00000000000E+00 0. -1.
          2   -1    0    0  502    0 -0.00000000000E+00 -0.00000000000E+00 -0.61884881867E+03  0.61884881867E+03  0.00000000000E+00 0. -1.
         23    2    1    2    0    0  0.10933189266E+03  0.39299792064E+02 -0.26286811938E+03  0.30111851317E+03  0.89859748398E+02 0.  0.
         23    2    1    2    0    0 -0.13696439573E+03 -0.68298723710E+02 -0.30091071952E+03  0.34975289261E+03  0.91410411938E+02 0.  0.
        -13    1    4    4    0    0 -0.94795041665E+01 -0.25649442686E+02 -0.97053445497E+01  0.29016350946E+02  0.00000000000E+00 0.  1.
         13    1    4    4    0    0 -0.12748489156E+03 -0.42649281024E+02 -0.29120537497E+03  0.32073654167E+03  0.00000000000E+00 0. -1.
        -13    1    3    3    0    0  0.17318055594E+02 -0.27753520241E+02 -0.67116533365E+02  0.74664596605E+02  0.00000000000E+00 0. -1.
         13    1    3    3    0    0  0.92013837066E+02  0.67053312305E+02 -0.19575158601E+03  0.22645391657E+03  0.00000000000E+00 0.  1.
          2    1    1    2  501    0  0.27632503066E+02  0.28998931646E+02  0.23284867196E+02  0.46332259848E+02  0.00000000000E+00 0. -1.
<scales pt_clust_5="13000.00000" pt_clust_6="13000.00000" pt_clust_7="13000.00000" pt_clust_8="13000.00000" pt_clust_9="40.05613"></scales>
<clustering>
<clus scale="   40.056">  1  9  2 -1</clus>
<clus scale="   89.860">  7  8 -1 -1</clus>
<clus scale="   91.410">  5  6 -1 -1</clus>
<clus scale="  159.803">  2  7  1 -1</clus>
<clus scale="   40.056">  1  5  2 -1</clus>
</clustering>
</event>
<event>
 9    1  0.3231311E-005  0.2979692E+03  0.7546771E-02  0.1086289E+00
         21   -1    0    0  501  502  0.00000000000E+00  0.00000000000E+00  0.22425970315E+03  0.22425970315E+03  0.00000000000E+00 0.  1.
          1   -1    0    0  502    0 -0.00000000000E+00 -0.00000000000E+00 -0.64203954908E+03  0.64203954908E+03  0.00000000000E+00 0. -1.
         23    2    1    2    0    0 -0.21581213015E+03 -0.14811400164E+03 -0.29764014633E+03  0.40673110315E+03  0.91257331561E+02 0.  0.
         23    2    1    2    0    0  0.24764152620E+03  0.21638571164E+03 -0.15725336026E+03  0.37559457796E+03  0.90518318467E+02 0.  0.
        -11    1    3    3    0    0 -0.11262378520E+03 -0.90269879440E+02 -0.97288280442E+02  0.17406256817E+03  0.00000000000E+00 0.  1.
         11    1    3    3    0    0 -0.10318834495E+03 -0.57844122199E+02 -0.20035186589E+03  0.23266853498E+03  0.00000000000E+00 0. -1.
        -13    1    4    4    0    0  0.10818084319E+03  0.99169016468E+02 -0.21334170003E+02  0.14829947900E+03  0.00000000000E+00 0.  1.
         13    1    4    4    0    0  0.13946068301E+03  0.11721669518E+03 -0.13591919026E+03  0.22729509896E+03  0.00000000000E+00 0. -1.
          1    1    1    2  501    0 -0.31829396056E+02 -0.68271710004E+02  0.37113660657E+02  0.83973571125E+02  0.00000000000E+00 0. -1.
<scales pt_clust_5="13000.00000" pt_clust_6="13000.00000" pt_clust_7="13000.00000" pt_clust_8="13000.00000" pt_clust_9="75.32687"></scales>
<clustering>
<clus scale="   75.327">  1  9  2 -1</clus>
<clus scale="   90.518">  7  8 -1 -1</clus>
<clus scale="   91.257">  5  6 -1 -1</clus>
<clus scale="  297.744">  1  7  2 -1</clus>
<clus scale="   75.327">  1  5  2 -1</clus>
</clustering>
</event>
<event>
 9    1  0.3231311E-005  0.1056210E+03  0.7546771E-02  0.1269182E+00
         -1   -1    0    0    0  501 -0.00000000000E+00  0.00000000000E+00  0.48761803353E+03  0.48761803353E+03  0.00000000000E+00 0.  1.
         21   -1    0    0  501  502  0.00000000000E+00 -0.00000000000E+00 -0.14998213871E+03  0.14998213871E+03  0.00000000000E+00 0.  1.
         23    2    1    2    0    0 -0.47812236553E+02 -0.25126092915E+02  0.44939241382E+03  0.46178867204E+03  0.91530899228E+02 0.  0.
         23    2    1    2    0    0  0.13537565910E+02  0.34604415637E+02 -0.94573769905E+02  0.13631670921E+03  0.90869774860E+02 0.  0.
        -11    1    3    3    0    0 -0.71009616073E+02 -0.35427503964E+01  0.35982635811E+03  0.36678321205E+03  0.00000000000E+00 0.  1.
         11    1    3    3    0    0  0.23197379520E+02 -0.21583342519E+02  0.89566055710E+02  0.95005459982E+02  0.00000000000E+00 0. -1.
        -13    1    4    4    0    0 -0.25737235951E+02  0.31193180872E+02 -0.87323175136E+02  0.96232825809E+02  0.00000000000E+00 0.  1.
         13    1    4    4    0    0  0.39274801862E+02  0.34112347656E+01 -0.72505947688E+01  0.40083883400E+02  0.00000000000E+00 0. -1.
         -1    1    1    2    0  502  0.34274670642E+02 -0.94783227222E+01 -0.17182749090E+02  0.39494790993E+02  0.00000000000E+00 0.  1.
<scales pt_clust_5="13000.00000" pt_clust_6="13000.00000" pt_clust_7="13000.00000" pt_clust_8="13000.00000" pt_clust_9="35.56110"></scales>
<clustering>
<clus scale="   35.561">  2  9  1 -1</clus>
<clus scale="   90.870">  7  8 -1 -1</clus>
<clus scale="   91.531">  5  6 -1 -1</clus>
<clus scale="  105.049">  2  7  1 -1</clus>
<clus scale="   35.561">  2  5  1 -1</clus>
</clustering>
</event>
<event>
 9    1  0.3231311E-005  0.1111203E+03  0.7546771E-02  0.1258727E+00
         -4   -1    0    0    0  501 -0.00000000000E+00  0.00000000000E+00  0.29416307714E+02  0.29416307714E+02  0.00000000000E+00 0.  1.
         21   -1    0    0  501  502  0.00000000000E+00 -0.00000000000E+00 -0.58703844659E+03  0.58703844659E+03  0.00000000000E+00 0. -1.
         23    2    1    2    0    0 -0.55005671258E+02  0.10262157695E+02 -0.17894083768E+03  0.20847249716E+03  0.91159327173E+02 0.  0.
         23    2    1    2    0    0  0.75165236806E+02  0.91117457651E+01 -0.25244049507E+03  0.27868222872E+03  0.90580043724E+02 0.  0.
        -13    1    3    3    0    0 -0.35300723083E+02 -0.36212856463E+02 -0.55372353264E+02  0.74990729623E+02  0.00000000000E+00 0.  1.
         13    1    3    3    0    0 -0.19704948175E+02  0.46475014158E+02 -0.12356848441E+03  0.13348176753E+03  0.00000000000E+00 0. -1.
        -13    1    4    4    0    0  0.13774028220E+02 -0.37990823768E+02 -0.77879341671E+02  0.87739491696E+02  0.00000000000E+00 0.  1.
         13    1    4    4    0    0  0.61391208586E+02  0.47102569533E+02 -0.17456115340E+03  0.19094273703E+03  0.00000000000E+00 0. -1.
         -4    1    1    2    0  502 -0.20159565548E+02 -0.19373903460E+02 -0.12624080614E+03  0.12930002843E+03  0.00000000000E+00 0.  1.
<scales pt_clust_5="13000.00000" pt_clust_6="13000.00000" pt_clust_7="13000.00000" pt_clust_8="13000.00000" pt_clust_9="27.95990"></scales>
<clustering>
<clus scale="   27.960">  2  9  1 -1</clus>
<clus scale="   90.580">  7  8 -1 -1</clus>
<clus scale="   91.159">  5  6 -1 -1</clus>
<clus scale="  110.646">  2  7  1 -1</clus>
<clus scale="   27.960">  2  5  1 -1</clus>
</clustering>
</event>
<event>
 9    1  0.3231311E-005  0.1230818E+03  0.7546771E-02  0.1238855E+00
         21   -1    0    0  501  502  0.00000000000E+00  0.00000000000E+00  0.21705404507E+02  0.21705404507E+02  0.00000000000E+00 0.  1.
          2   -1    0    0  502    0 -0.00000000000E+00 -0.00000000000E+00 -0.10621138660E+04  0.10621138660E+04  0.00000000000E+00 0. -1.
         23    2    1    2    0    0  0.46014914246E+02  0.64263560408E+02 -0.63123170922E+03  0.64333687589E+03  0.95821123068E+02 0.  0.
         23    2    1    2    0    0 -0.61030754839E+02 -0.46386837517E+02 -0.39523358275E+03  0.41328929502E+03  0.93391459528E+02 0.  0.
        -11    1    4    4    0    0 -0.43672029746E+02  0.18254348792E+02 -0.23357374080E+03  0.23832154713E+03  0.00000000000E+00 0.  1.
         11    1    4    4    0    0 -0.17358725094E+02 -0.64641186309E+02 -0.16165984195E+03  0.17496774789E+03  0.00000000000E+00 0. -1.
        -13    1    3    3    0    0  0.11624194582E+02  0.83795189097E+02 -0.42029717713E+03  0.42872657104E+03  0.00000000000E+00 0.  1.
         13    1    3    3    0    0  0.34390719664E+02 -0.19531628689E+02 -0.21093453209E+03  0.21461030484E+03  0.00000000000E+00 0. -1.
          2    1    1    2  501    0  0.15015840594E+02 -0.17876722891E+02 -0.13943169548E+02  0.27193099623E+02  0.00000000000E+00 0. -1.
<scales pt_clust_5="13000.00000" pt_clust_6="13000.00000" pt_clust_7="13000.00000" pt_clust_8="13000.00000" pt_clust_9="23.34636"></scales>
<clustering>
<clus scale="   23.346">  1  9  2 -1</clus>
<clus scale="   93.391">  5  6 -1 -1</clus>
<clus scale="   95.821">  7  8 -1 -1</clus>
<clus scale="  121.200">  1  5  2 -1</clus>
<clus scale="   23.346">  1  5  2 -1</clus>
</clustering>
</event>
<event>
 9    1  0.3231311E-005  0.1041103E+03  0.7546771E-02  0.1277592E+00
         21   -1    0    0  501  502  0.00000000000E+00  0.00000000000E+00  0.11718787682E+03  0.11718787682E+03  0.00000000000E+00 0. -1.
          3   -1    0    0  502    0 -0.00000000000E+00 -0.00000000000E+00 -0.28729085055E+03  0.28729085055E+03  0.00000000000E+00 0. -1.
         23    2    1    2    0    0  0.30433973624E+01 -0.15391108259E+02 -0.13251355518E+03  0.16140759911E+03  0.90809813703E+02 0.  0.
         23    2    1    2    0    0 -0.37508954792E+02  0.10205078619E+02 -0.11481512246E+03  0.15834463360E+03  0.10187956285E+03 0.  0.
        -11    1    4    4    0    0 -0.68085090199E+02 -0.11982980164E+02 -0.88517982456E+02  0.11231475655E+03  0.00000000000E+00 0. -1.
         11    1    4    4    0    0  0.30576135408E+02  0.22188058784E+02 -0.26297140000E+02  0.46029877050E+02  0.00000000000E+00 0.  1.
        -13    1    3    3    0    0 -0.37485172436E+02 -0.67131245575E+01 -0.10491485038E+03  0.11161240981E+03  0.00000000000E+00 0. -1.
         13    1    3    3    0    0  0.40528569798E+02 -0.86779837014E+01 -0.27598704798E+02  0.49795189301E+02  0.00000000000E+00 0.  1.
          3    1    1    2  501    0  0.34465557429E+02  0.51860296395E+01  0.77225703910E+02  0.84726494656E+02  0.00000000000E+00 0. -1.
<scales pt_clust_5="13000.00000" pt_clust_6="13000.00000" pt_clust_7="13000.00000" pt_clust_8="13000.00000" pt_clust_9="34.85354"></scales>
<clustering>
<clus scale="   34.854">  1  9  2 -1</clus>
<clus scale="   90.810">  7  8 -1 -1</clus>
<clus scale="   93.306">  2  7  1 -1</clus>
<clus scale="  101.880">  5  6 -1 -1</clus>
<clus scale="   34.854">  1  5  2 -1</clus>
</clustering>
</event>
<event>
 9    1  0.3231311E-005  0.1164160E+03  0.7546771E-02  0.1249783E+00
          1   -1    0    0  502    0 -0.00000000000E+00  0.00000000000E+00  0.77600324204E+03  0.77600324204E+03  0.00000000000E+00 0. -1.
         21   -1    0    0  501  502  0.00000000000E+00 -0.00000000000E+00 -0.65755413525E+02  0.65755413525E+02  0.00000000000E+00 0. -1.
         23    2    1    2    0    0 -0.40950189863E+02 -0.68880555365E+02  0.51658890561E+03  0.53105219163E+03  0.93439198845E+02 0.  0.
         23    2    1    2    0    0  0.85592148103E+02 -0.34161618777E+02  0.11616856273E+03  0.17426838271E+03  0.91549452389E+02 0.  0.
        -11    1    4    4    0    0  0.42267333660E+02  0.28433542750E+02  0.64826701434E+02  0.82446922725E+02  0.00000000000E+00 0.  1.
         11    1    4    4    0    0  0.43324814443E+02 -0.62595161527E+02  0.51341861293E+02  0.91821459987E+02  0.00000000000E+00 0. -1.
        -13    1    3    3    0    0 -0.53899752014E+02 -0.34358400933E+01  0.18055122140E+03  0.18845618009E+03  0.00000000000E+00 0.  1.
         13    1    3    3    0    0  0.12949562151E+02 -0.65444715272E+02  0.33603768420E+03  0.34259601154E+03  0.00000000000E+00 0. -1.
          1    1    1    2  501    0 -0.44641958240E+02  0.10304217414E+03  0.77490360186E+02  0.13643808123E+03  0.00000000000E+00 0. -1.
<scales pt_clust_5="13000.00000" pt_clust_6="13000.00000" pt_clust_7="13000.00000" pt_clust_8="13000.00000" pt_clust_9="112.29690"></scales>
<clustering>
<clus scale="   91.549">  5  6 -1 -1</clus>
<clus scale="   93.439">  7  8 -1 -1</clus>
<clus scale="  112.297">  2  9  1 -1</clus>
<clus scale="  114.905">  2  5  1 -1</clus>
<clus scale="  112.297">  2  5  1 -1</clus>
</clustering>
</event>
<event>
 9    1  0.3231311E-005  0.1024255E+03  0.7546771E-02  0.1278018E+00
          1   -1    0    0  502    0 -0.00000000000E+00  0.00000000000E+00  0.30321815900E+03  0.30321815900E+03  0.00000000000E+00 0. -1.
         21   -1    0    0  501  502  0.00000000000E+00 -0.00000000000E+00 -0.90618776468E+02  0.90618776468E+02  0.00000000000E+00 0. -1.
         23    2    1    2    0    0 -0.12753211934E+02  0.30241448417E+02  0.16587737399E+03  0.19356540423E+03  0.94207605298E+02 0.  0.
         23    2    1    2    0    0 -0.16020522470E+02 -0.57710535541E+02  0.91285030832E+02  0.14053593470E+03  0.88488581387E+02 0.  0.
        -11    1    3    3    0    0  0.31127966904E+02 -0.16306614384E+02  0.48569850708E+02  0.59949031636E+02  0.00000000000E+00 0. -1.
         11    1    3    3    0    0 -0.43881178839E+02  0.46548062801E+02  0.11730752328E+03  0.13361637259E+03  0.00000000000E+00 0.  1.
        -11    1    4    4    0    0  0.27317041267E+02 -0.25778394943E+02  0.37147795715E+01  0.37743158012E+02  0.00000000000E+00 0.  1.
         11    1    4    4    0    0 -0.43337563737E+02 -0.31932140598E+02  0.87570251260E+02  0.10279277669E+03  0.00000000000E+00 0. -1.
          1    1    1    2  501    0  0.28773734404E+02  0.27469087125E+02 -0.44563022284E+02  0.59735596541E+02  0.00000000000E+00 0. -1.
<scales pt_clust_5="13000.00000" pt_clust_6="13000.00000" pt_clust_7="13000.00000" pt_clust_8="13000.00000" pt_clust_9="39.78038"></scales>
<clustering>
<clus scale="   39.780">  2  9  1 -1</clus>
<clus scale="   88.489">  7  8 -1 -1</clus>
<clus scale="   94.208">  5  6 -1 -1</clus>
<clus scale="   97.191">  2  7  1 -1</clus>
<clus scale="   39.780">  2  5  1 -1</clus>
</clustering>
</event>
<event>
 9    1  0.3231311E-005  0.1327940E+03  0.7546771E-02  0.1226025E+00
          1   -1    0    0  502    0 -0.00000000000E+00  0.00000000000E+00  0.63082485637E+03  0.63082485637E+03  0.00000000000E+00 0. -1.
         21   -1    0    0  501  502  0.00000000000E+00 -0.00000000000E+00 -0.49416382601E+02  0.49416382601E+02  0.00000000000E+00 0. -1.
         23    2    1    2    0    0  0.59353158983E+02  0.48614490366E+02  0.29666856014E+03  0.32282133733E+03  0.10156384745E+03 0.  0.
         23    2    1    2    0    0 -0.59784993984E+02 -0.75248884934E+02  0.29895414748E+03  0.32722682463E+03  0.92017239013E+02 0.  0.
        -11    1    4    4    0    0 -0.28760539876E+02 -0.12090474737E+02  0.14876449710E+02  0.34563810399E+02  0.00000000000E+00 0.  1.
         11    1    4    4    0    0 -0.31024454108E+02 -0.63158410196E+02  0.28407769777E+03  0.29266301424E+03  0.00000000000E+00 0. -1.
        -13    1    3    3    0    0 -0.22428864256E+02  0.19865639507E+02  0.29929646785E+02  0.42349514065E+02  0.00000000000E+00 0.  1.
         13    1    3    3    0    0  0.81782023239E+02  0.28748850859E+02  0.26673891335E+03  0.28047182327E+03  0.00000000000E+00 0. -1.
          1    1    1    2  501    0  0.43183500086E+00  0.26634394568E+02 -0.14214233843E+02  0.30193077008E+02  0.00000000000E+00 0. -1.
<scales pt_clust_5="13000.00000" pt_clust_6="13000.00000" pt_clust_7="13000.00000" pt_clust_8="13000.00000" pt_clust_9="26.63790"></scales>
<clustering>
<clus scale="   26.638">  2  9  1 -1</clus>
<clus scale="   92.017">  5  6 -1 -1</clus>
<clus scale="  101.564">  7  8 -1 -1</clus>
<clus scale="  125.643">  2  5  1 -1</clus>
<clus scale="   26.638">  2  5  1 -1</clus>
</clustering>
</event>
<event>
 9    1  0.3231311E-005  0.2521909E+03  0.7546771E-02  0.1137293E+00
         21   -1    0    0  501  502  0.00000000000E+00  0.00000000000E+00  0.22830060973E+03  0.22830060973E+03  0.00000000000E+00 0. -1.
          2   -1    0    0  502    0 -0.00000000000E+00 -0.00000000000E+00 -0.98024443851E+03  0.98024443851E+03  0.00000000000E+00 0. -1.
         23    2    1    2    0    0  0.10365856292E+03  0.54498379681E+01  0.18658464030E+02  0.13571828690E+03  0.85419650659E+02 0.  0.
         23    2    1    2    0    0 -0.68673421510E+02  0.23023334088E+03 -0.79319051767E+03  0.83349279214E+03  0.88518964963E+02 0.  0.
        -13    1    3    3    0    0  0.45292055523E+02  0.42025592338E+02  0.24773298107E+02  0.66567537163E+02  0.00000000000E+00 0. -1.
         13    1    3    3    0    0  0.58366507401E+02 -0.36575754370E+02 -0.61148340762E+01  0.69150749740E+02  0.00000000000E+00 0.  1.
        -13    1    4    4    0    0 -0.70095756396E+02  0.14677490305E+03 -0.40524296517E+03  0.43666709064E+03  0.00000000000E+00 0. -1.
         13    1    4    4    0    0  0.14223348856E+01  0.83458437834E+02 -0.38794755249E+03  0.39682570150E+03  0.00000000000E+00 0.  1.
          2    1    1    2  501    0 -0.34985141414E+02 -0.23568317885E+03  0.22588224856E+02  0.23933396920E+03  0.00000000000E+00 0. -1.
<scales pt_clust_5="13000.00000" pt_clust_6="13000.00000" pt_clust_7="13000.00000" pt_clust_8="13000.00000" pt_clust_9="236.14539"></scales>
<clustering>
<clus scale="   85.420">  5  6 -1 -1</clus>
<clus scale="   88.519">  7  8 -1 -1</clus>
<clus scale="  134.430">  2  5  1 -1</clus>
<clus scale="  236.145">  1  9  2 -1</clus>
<clus scale="  236.145">  1  5  2 -1</clus>
</clustering>
</event>
<event>
 9    1  0.3231311E-005  0.1943140E+03  0.7546771E-02  0.1154768E+00
         21   -1    0    0  501  502  0.00000000000E+00  0.00000000000E+00  0.17369061128E+03  0.17369061128E+03  0.00000000000E+00 0. -1.
         -1   -1    0    0    0  501 -0.00000000000E+00 -0.00000000000E+00 -0.34113079967E+03  0.34113079967E+03  0.00000000000E+00 0.  1.
         23    2    1    2    0    0 -0.54981213255E+02  0.14977928402E+03 -0.16128873657E+03  0.24444098777E+03  0.90997649551E+02 0.  0.
         23    2    1    2    0    0  0.95018139552E+02 -0.17691210059E+03 -0.13564689904E+02  0.22145086870E+03  0.92358801735E+02 0.  0.
        -11    1    4    4    0    0  0.31933438952E+02 -0.24844254398E+02  0.30909772859E+02  0.50915572845E+02  0.00000000000E+00 0.  1.
         11    1    4    4    0    0  0.63084700600E+02 -0.15206784619E+03 -0.44474462763E+02  0.17053529586E+03  0.00000000000E+00 0. -1.
        -13    1    3    3    0    0 -0.71539105101E+02  0.13574130329E+03 -0.11014051066E+03  0.18887688335E+03  0.00000000000E+00 0.  1.
         13    1    3    3    0    0  0.16557891846E+02  0.14037980734E+02 -0.51148225916E+02  0.55564104418E+02  0.00000000000E+00 0. -1.
         -1    1    1    2    0  502 -0.40036926297E+02  0.27132816564E+02  0.74132380833E+01  0.48929554472E+02  0.00000000000E+00 0.  1.
<scales pt_clust_5="13000.00000" pt_clust_6="13000.00000" pt_clust_7="13000.00000" pt_clust_8="13000.00000" pt_clust_9="48.36471"></scales>
<clustering>
<clus scale="   48.365">  1  9  2 -1</clus>
<clus scale="   90.998">  7  8 -1 -1</clus>
<clus scale="   92.359">  5  6 -1 -1</clus>
<clus scale="  193.671">  2  7  1 -1</clus>
<clus scale="   48.365">  1  5  2 -1</clus>
</clustering>
</event>
<event>
 9    1  0.3231311E-005  0.2103227E+03  0.7546771E-02  0.1141447E+00
          1   -1    0    0  502    0 -0.00000000000E+00  0.00000000000E+00  0.10650591119E+04  0.10650591119E+04  0.00000000000E+00 0. -1.
         21   -1    0    0  501  502  0.00000000000E+00 -0.00000000000E+00 -0.94669050355E+02  0.94669050355E+02  0.00000000000E+00 0. -1.
         23    2    1    2    0    0  0.87442071104E+02 -0.15516275866E+03  0.60367953645E+03  0.63613943379E+03  0.92319006783E+02 0.  0.
         23    2    1    2    0    0 -0.12148046180E+03  0.17085172903E+03  0.40814186533E+03  0.46772002718E+03  0.90743736327E+02 0.  0.
        -11    1    4    4    0    0 -0.96246953268E+02  0.12560538911E+03  0.21016556425E+03  0.26307746803E+03  0.00000000000E+00 0. -1.
         11    1    4    4    0    0 -0.25233508530E+02  0.45246339921E+02  0.19797630108E+03  0.20464255916E+03  0.00000000000E+00 0.  1.
        -13    1    3    3    0    0  0.93171134293E+02 -0.74625480246E+02  0.33787286974E+03  0.35834047870E+03  0.00000000000E+00 0.  1.
         13    1    3    3    0    0 -0.57290631895E+01 -0.80537278418E+02  0.26580666672E+03  0.27779895509E+03  0.00000000000E+00 0. -1.
          1    1    1    2  501    0  0.34038390694E+02 -0.15688970370E+02 -0.41431340221E+02  0.55868701299E+02  0.00000000000E+00 0. -1.
<scales pt_clust_5="13000.00000" pt_clust_6="13000.00000" pt_clust_7="13000.00000" pt_clust_8="13000.00000" pt_clust_9="37.48007"></scales>
<clustering>
<clus scale="   37.480">  2  9  1 -1</clus>
<clus scale="   90.744">  5  6 -1 -1</clus>
<clus scale="   92.319">  7  8 -1 -1</clus>
<clus scale="  209.636">  2  5  1 -1</clus>
<clus scale="   37.480">  2  5  1 -1</clus>
</clustering>
</event>
<event>
 9    1  0.3231311E-005  0.1572310E+03  0.7546771E-02  0.1212000E+00
         -3   -1    0    0    0  501 -0.00000000000E+00  0.00000000000E+00  0.12702637828E+04  0.12702637828E+04  0.00000000000E+00 0.  1.
         21   -1    0    0  501  502  0.00000000000E+00 -0.00000000000E+00 -0.31856996332E+02  0.31856996332E+02  0.00000000000E+00 0.  1.
         23    2    1    2    0    0 -0.25949534077E+01 -0.36756238842E+02  0.21706140058E+03  0.23968987659E+03  0.94751413922E+02 0.  0.
         23    2    1    2    0    0  0.10252471521E+03  0.95272616088E+02  0.46286780871E+03  0.49207370928E+03  0.91113876106E+02 0.  0.
        -11    1    3    3    0    0 -0.22474231407E+02  0.22757611971E+02  0.11939212512E+03  0.12360210160E+03  0.00000000000E+00 0.  1.
         11    1    3    3    0    0  0.19879277999E+02 -0.59513850813E+02  0.97669275468E+02  0.11608777499E+03  0.00000000000E+00 0. -1.
        -11    1    4    4    0    0 -0.41494969751E+01  0.41555041401E+02  0.70606999379E+02  0.82032848008E+02  0.00000000000E+00 0. -1.
         11    1    4    4    0    0  0.10667421218E+03  0.53717574687E+02  0.39226080933E+03  0.41004086127E+03  0.00000000000E+00 0.  1.
         -3    1    1    2    0  502 -0.99929761798E+02 -0.58516377245E+02  0.55847757714E+03  0.57035719323E+03  0.00000000000E+00 0.  1.
<scales pt_clust_5="13000.00000" pt_clust_6="13000.00000" pt_clust_7="13000.00000" pt_clust_8="13000.00000" pt_clust_9="128.14008"></scales>
<clustering>
<clus scale="   91.114">  7  8 -1 -1</clus>
<clus scale="   94.751">  5  6 -1 -1</clus>
<clus scale="  101.664">  1  5  2 -1</clus>
<clus scale="  128.140">  2  9  1 -1</clus>
<clus scale="  128.140">  2  5  1 -1</clus>
</clustering>
</event>
<event>
 9    1  0.3231311E-005  0.1849579E+03  0.7546771E-02  0.1163436E+00
         -2   -1    0    0    0  501 -0.00000000000E+00  0.00000000000E+00  0.45202663790E+03  0.45202663790E+03  0.00000000000E+00 0.  1.
         21   -1    0    0  501  502  0.00000000000E+00 -0.00000000000E+00 -0.53814603388E+03  0.53814603388E+03  0.00000000000E+00 0.  1.
         23    2    1    2    0    0 -0.85564902600E+02 -0.16184492431E+03  0.23379334056E+03  0.30949829329E+03  0.87262451132E+02 0.  0.
         23    2    1    2    0    0  0.12808214838E+03  0.81881235259E+02  0.13300456661E+03  0.21879128586E+03  0.84082332308E+02 0.  0.
        -11    1    4    4    0    0  0.43710329528E+02  0.71778952495E+02  0.91447529135E+02  0.12419928145E+03  0.00000000000E+00 0. -1.
         11    1    4    4    0    0  0.84371818849E+02  0.10102282764E+02  0.41557037477E+02  0.94592004402E+02  0.00000000000E+00 0.  1.
        -11    1    3    3    0    0 -0.67554463101E+02 -0.48031081495E+02  0.66035949768E+02  0.10597800213E+03  0.00000000000E+00 0. -1.
         11    1    3    3    0    0 -0.18010439500E+02 -0.11381384281E+03  0.16775739080E+03  0.20352029116E+03  0.00000000000E+00 0.  1.
         -2    1    1    2    0  502 -0.42517245777E+02  0.79963689051E+02 -0.45291730315E+03  0.46188309262E+03  0.00000000000E+00 0.  1.
<scales pt_clust_5="13000.00000" pt_clust_6="13000.00000" pt_clust_7="13000.00000" pt_clust_8="13000.00000" pt_clust_9="90.56438"></scales>
<clustering>
<clus scale="   84.082">  5  6 -1 -1</clus>
<clus scale="   87.262">  7  8 -1 -1</clus>
<clus scale="   90.564">  2  9  1 -1</clus>
<clus scale="  183.479">  2  5  1 -1</clus>
<clus scale="   90.564">  2  5  1 -1</clus>
</clustering>
</event>
<event>
 9    1  0.3231311E-005  0.3313941E+03  0.7546771E-02  0.1087934E+00
         21   -1    0    0  501  502  0.00000000000E+00  0.00000000000E+00  0.30090620259E+03  0.30090620259E+03  0.00000000000E+00 0. -1.
          2   -1    0    0  502    0 -0.00000000000E+00 -0.00000000000E+00 -0.13450816316E+04  0.13450816316E+04  0.00000000000E+00 0. -1.
         23    2    1    2    0    0  0.91055065770E+02 -0.16299860075E+03 -0.11454053125E+02  0.20748676843E+03  0.89777474285E+02 0.  0.
         23    2    1    2    0    0 -0.21228573244E+03  0.43294171323E+03 -0.10317297774E+04  0.11425836080E+04  0.92342885010E+02 0.  0.
        -13    1    4    4    0    0 -0.90184046689E+02  0.11283897911E+03 -0.37505944320E+03  0.40191464693E+03  0.00000000000E+00 0. -1.
         13    1    4    4    0    0 -0.12210168575E+03  0.32010273411E+03 -0.65667033424E+03  0.74066896109E+03  0.00000000000E+00 0.  1.
        -13    1    3    3    0    0  0.22203131213E+02 -0.50384606228E+02  0.37598414811E+02  0.66672545900E+02  0.00000000000E+00 0. -1.
         13    1    3    3    0    0  0.68851934557E+02 -0.11261399453E+03 -0.49052467936E+02  0.14081422253E+03  0.00000000000E+00 0.  1.
          2    1    1    2  501    0  0.12123066667E+03 -0.26994311247E+03 -0.99159841038E+00  0.29591745771E+03  0.00000000000E+00 0. -1.
<scales pt_clust_5="13000.00000" pt_clust_6="13000.00000" pt_clust_7="13000.00000" pt_clust_8="13000.00000" pt_clust_9="318.26855"></scales>
<clustering>
<clus scale="   89.777">  7  8 -1 -1</clus>
<clus scale="   92.343">  5  6 -1 -1</clus>
<clus scale="  207.170">  2  7  1 -1</clus>
<clus scale="  318.269">  1  9  2 -1</clus>
<clus scale="  318.269">  1  5  2 -1</clus>
</clustering>
</event>
<event>
 9    1  0.3231311E-005  0.1820613E+03  0.7546771E-02  0.1188377E+00
         21   -1    0    0  501  502  0.00000000000E+00  0.00000000000E+00  0.12500376221E+04  0.12500376221E+04  0.00000000000E+00 0. -1.
          3   -1    0    0  502    0 -0.00000000000E+00 -0.00000000000E+00 -0.67221276871E+02  0.67221276871E+02  0.00000000000E+00 0. -1.
         23    2    1    2    0    0  0.76779960100E+00  0.59194915176E+02  0.66311472360E+02  0.12790351681E+03  0.91964508077E+02 0.  0.
         23    2    1    2    0    0  0.15499153411E+03 -0.78692488506E+02  0.30054700523E+03  0.35843518915E+03  0.89064016722E+02 0.  0.
        -11    1    4    4    0    0  0.12302645441E+02  0.18532773445E+02  0.42136593686E+02  0.47647783830E+02  0.00000000000E+00 0.  1.
         11    1    4    4    0    0  0.14268888867E+03 -0.97225261951E+02  0.25841041155E+03  0.31078740532E+03  0.00000000000E+00 0. -1.
        -13    1    3    3    0    0  0.39039665504E+02  0.45595758823E+02  0.63208947521E+02  0.87169029776E+02  0.00000000000E+00 0.  1.
         13    1    3    3    0    0 -0.38271865903E+02  0.13599156353E+02  0.31025248390E+01  0.40734487030E+02  0.00000000000E+00 0. -1.
          3    1    1    2  501    0 -0.15575933371E+03  0.19497573330E+02  0.81595786766E+03  0.83092019304E+03  0.00000000000E+00 0. -1.
<scales pt_clust_5="13000.00000" pt_clust_6="13000.00000" pt_clust_7="13000.00000" pt_clust_8="13000.00000" pt_clust_9="158.78893"></scales>
<clustering>
<clus scale="   89.064">  5  6 -1 -1</clus>
<clus scale="   91.965">  7  8 -1 -1</clus>
<clus scale="  109.371">  2  7  1 -1</clus>
<clus scale="  158.789">  1  9  2 -1</clus>
<clus scale="  158.789">  1  5  2 -1</clus>
</clustering>
</event>
<event>
 9    1  0.3231311E-005  0.1580360E+03  0.7546771E-02  0.1191021E+00
         21   -1    0    0  501  502  0.00000000000E+00  0.00000000000E+00  0.46952458421E+03  0.46952458421E+03  0.00000000000E+00 0. -1.
          1   -1    0    0  502    0 -0.00000000000E+00 -0.00000000000E+00 -0.12407547245E+03  0.12407547245E+03  0.00000000000E+00 0. -1.
         23    2    1    2    0    0  0.13763560607E+03 -0.16757822188E+01 -0.25276817898E+02  0.16684567489E+03  0.90841584106E+02 0.  0.
         23    2    1    2    0    0 -0.10342769947E+03 -0.32932603996E+02  0.17615346636E+03  0.22618926829E+03  0.91376670738E+02 0.  0.
        -13    1    4    4    0    0 -0.21931078887E+02  0.29255912950E+02  0.67771853708E+02  0.77005875222E+02  0.00000000000E+00 0.  1.
         13    1    4    4    0    0 -0.81496620581E+02 -0.62188516945E+02  0.10838161265E+03  0.14918339307E+03  0.00000000000E+00 0. -1.
        -13    1    3    3    0    0  0.11814521568E+03 -0.19050106116E+02 -0.51098248174E+02  0.13012390056E+03  0.00000000000E+00 0. -1.
         13    1    3    3    0    0  0.19490390390E+02  0.17374323897E+02  0.25821430277E+02  0.36721774330E+02  0.00000000000E+00 0.  1.
          1    1    1    2  501    0 -0.34207906597E+02  0.34608386214E+02  0.19457246330E+03  0.20056511348E+03  0.00000000000E+00 0. -1.
<scales pt_clust_5="13000.00000" pt_clust_6="13000.00000" pt_clust_7="13000.00000" pt_clust_8="13000.00000" pt_clust_9="48.66129"></scales>
<clustering>
<clus scale="   48.661">  1  9  2 -1</clus>
<clus scale="   90.842">  7  8 -1 -1</clus>
<clus scale="   91.377">  5  6 -1 -1</clus>
<clus scale="  157.727">  2  7  1 -1</clus>
<clus scale="   48.661">  1  5  2 -1</clus>
</clustering>
</event>
<event>
 9    1  0.3231311E-005  0.1602434E+03  0.7546771E-02  0.1188817E+00
         -1   -1    0    0    0  501 -0.00000000000E+00  0.00000000000E+00  0.44242355742E+03  0.44242355742E+03  0.00000000000E+00 0.  1.
         21   -1    0    0  501  502  0.00000000000E+00 -0.00000000000E+00 -0.14556317106E+03  0.14556317106E+03  0.00000000000E+00 0.  1.
         23    2    1    2    0    0 -0.11207036090E+03 -0.35634803016E+02  0.22368901763E+03  0.26799055958E+03  0.89177118346E+02 0.  0.
         23    2    1    2    0    0  0.14875163215E+03  0.56937736088E+02  0.14668476144E+03  0.23512244196E+03  0.91636180727E+02 0.  0.
        -11    1    4    4    0    0  0.93756562862E+02  0.16521320912E+02  0.13604844453E+03  0.16604946969E+03  0.00000000000E+00 0.  1.
         11    1    4    4    0    0  0.54995069284E+02  0.40416415175E+02  0.10636316907E+02  0.69072972272E+02  0.00000000000E+00 0. -1.
        -11    1    3    3    0    0 -0.36658724576E+02 -0.54284090627E+02  0.70519692730E+02  0.96247865667E+02  0.00000000000E+00 0.  1.
         11    1    3    3    0    0 -0.75411636327E+02  0.18649287612E+02  0.15316932490E+03  0.17174269391E+03  0.00000000000E+00 0. -1.
         -1    1    1    2    0  502 -0.36681271243E+02 -0.21302933072E+02 -0.73513392704E+02  0.84873726938E+02  0.00000000000E+00 0.  1.
<scales pt_clust_5="13000.00000" pt_clust_6="13000.00000" pt_clust_7="13000.00000" pt_clust_8="13000.00000" pt_clust_9="42.41852"></scales>
<clustering>
<clus scale="   42.419">  2  9  1 -1</clus>
<clus scale="   89.177">  7  8 -1 -1</clus>
<clus scale="   91.636">  5  6 -1 -1</clus>
<clus scale="  158.850">  1  7  2 -1</clus>
<clus scale="   42.419">  2  5  1 -1</clus>
</clustering>
</event>
<event>
 9    1  0.3231311E-005  0.9448626E+02  0.7546771E-02  0.1292369E+00
         21   -1    0    0  501  502  0.00000000000E+00  0.00000000000E+00  0.19528832767E+03  0.19528832767E+03  0.00000000000E+00 0.  1.
          2   -1    0    0  502    0 -0.00000000000E+00 -0.00000000000E+00 -0.23785165180E+03  0.23785165180E+03  0.00000000000E+00 0. -1.
         23    2    1    2    0    0 -0.88423678517E+01 -0.18269778324E+02 -0.20560322516E+03  0.22610256746E+03  0.91857022312E+02 0.  0.
         23    2    1    2    0    0  0.11376500307E+02  0.42196884190E+02  0.11687029285E+03  0.15497436424E+03  0.91915104458E+02 0.  0.
        -13    1    3    3    0    0  0.34859783267E+02 -0.52657609717E+01 -0.15053300016E+03  0.15460632867E+03  0.00000000000E+00 0. -1.
         13    1    3    3    0    0 -0.43702151119E+02 -0.13004017352E+02 -0.55070224996E+02  0.71496238788E+02  0.00000000000E+00 0.  1.
        -13    1    4    4    0    0  0.15010609464E+02 -0.27845652580E+02  0.37081811505E+02  0.48741763495E+02  0.00000000000E+00 0. -1.
         13    1    4    4    0    0 -0.36341091562E+01  0.70042536771E+02  0.79788481342E+02  0.10623260075E+03  0.00000000000E+00 0.  1.
          2    1    1    2  501    0 -0.25341324557E+01 -0.23927105866E+02  0.46169608189E+02  0.52063047766E+02  0.00000000000E+00 0. -1.
<scales pt_clust_5="13000.00000" pt_clust_6="13000.00000" pt_clust_7="13000.00000" pt_clust_8="13000.00000" pt_clust_9="24.06093"></scales>
<clustering>
<clus scale="   24.061">  1  9  2 -1</clus>
<clus scale="   91.857">  5  6 -1 -1</clus>
<clus scale="   91.915">  7  8 -1 -1</clus>
<clus scale="   94.430">  2  5  1 -1</clus>
<clus scale="   24.061">  1  5  2 -1</clus>
</clustering>
</event>
<event>
 9    1  0.3231311E-005  0.9828857E+02  0.7546771E-02  0.1284167E+00
         -2   -1    0    0    0  501 -0.00000000000E+00  0.00000000000E+00  0.20654636942E+03  0.20654636942E+03  0.00000000000E+00 0.  1.
         21   -1    0    0  501  502  0.00000000000E+00 -0.00000000000E+00 -0.18440047156E+03  0.18440047156E+03  0.00000000000E+00 0. -1.
         23    2    1    2    0    0 -0.35569800687E+02  0.16421820198E+02  0.15113364907E+03  0.18065697813E+03  0.90888266377E+02 0.  0.
         23    2    1    2    0    0 -0.11080547005E+01 -0.54979150363E+02 -0.55345359897E+02  0.11943209167E+03  0.90426660332E+02 0.  0.
        -13    1    3    3    0    0  0.16986012238E+02  0.31749455308E+02  0.97837731112E+02  0.10425341315E+03  0.00000000000E+00 0.  1.
         13    1    3    3    0    0 -0.52555812925E+02 -0.15327635111E+02  0.53295917961E+02  0.76403564980E+02  0.00000000000E+00 0. -1.
        -13    1    4    4    0    0 -0.34280890083E+02 -0.29919059700E+02 -0.62436595003E+02  0.77257089990E+02  0.00000000000E+00 0. -1.
         13    1    4    4    0    0  0.33172835382E+02 -0.25060090663E+02  0.70912351069E+01  0.42175001680E+02  0.00000000000E+00 0.  1.
         -2    1    1    2    0  502  0.36677855388E+02  0.38557330165E+02 -0.73642391316E+02  0.90857771181E+02  0.00000000000E+00 0.  1.
<scales pt_clust_5="13000.00000" pt_clust_6="13000.00000" pt_clust_7="13000.00000" pt_clust_8="13000.00000" pt_clust_9="53.21591"></scales>
<clustering>
<clus scale="   53.216">  2  9  1 -1</clus>
<clus scale="   90.427">  7  8 -1 -1</clus>
<clus scale="   90.888">  5  6 -1 -1</clus>
<clus scale="   97.862">  2  7  1 -1</clus>
<clus scale="   53.216">  2  5  1 -1</clus>
</clustering>
</event>
<event>
 9    1  0.3231311E-005  0.1399743E+03  0.7546771E-02  0.1217269E+00
         -2   -1    0    0    0  501 -0.00000000000E+00  0.00000000000E+00  0.14638478915E+03  0.14638478915E+03  0.00000000000E+00 0.  1.
         21   -1    0    0  501  502  0.00000000000E+00 -0.00000000000E+00 -0.22826706962E+03  0.22826706962E+03  0.00000000000E+00 0. -1.
         23    2    1    2    0    0 -0.11423915662E+02 -0.89126499578E+02  0.14812670986E+02  0.13065535148E+03  0.93687602560E+02 0.  0.
         23    2    1    2    0    0  0.47638586799E+02  0.77144591616E+02 -0.13097474908E+03  0.19271129451E+03  0.10845522195E+03 0.  0.
        -11    1    3    3    0    0  0.39585748460E+02 -0.57273377074E+02  0.97979428568E+01  0.70308398409E+02  0.00000000000E+00 0. -1.
         11    1    3    3    0    0 -0.51009664122E+02 -0.31853122503E+02  0.50147281295E+01  0.60346953074E+02  0.00000000000E+00 0.  1.
        -13    1    4    4    0    0 -0.11085434725E+02  0.56380088338E+02 -0.12414819494E+02  0.58785448601E+02  0.00000000000E+00 0.  1.
         13    1    4    4    0    0  0.58724021524E+02  0.20764503277E+02 -0.11855992959E+03  0.13392584591E+03  0.00000000000E+00 0. -1.
         -2    1    1    2    0  502 -0.36214671137E+02  0.11981907962E+02  0.34279797621E+02  0.51285212771E+02  0.00000000000E+00 0.  1.
<scales pt_clust_5="13000.00000" pt_clust_6="13000.00000" pt_clust_7="13000.00000" pt_clust_8="13000.00000" pt_clust_9="38.14538"></scales>
<clustering>
<clus scale="   38.145">  2  9  1 -1</clus>
<clus scale="   93.688">  5  6 -1 -1</clus>
<clus scale="  108.455">  7  8 -1 -1</clus>
<clus scale="  128.871">  1  5  2 -1</clus>
<clus scale="   38.145">  2  5  1 -1</clus>
</clustering>
</event>
<event>
 9    1  0.7952717E-005  0.1044704E+03  0.7546771E-02  0.1271703E+00
         21   -1    0    0  501  502  0.00000000000E+00  0.00000000000E+00  0.32498701938E+03  0.32498701938E+03  0.00000000000E+00 0.  1.
          1   -1    0    0  502    0 -0.00000000000E+00 -0.00000000000E+00 -0.20928275170E+03  0.20928275170E+03  0.00000000000E+00 0. -1.
         23    2    1    2    0    0 -0.48817279692E+02  0.13053629546E+02 -0.17262663443E+03  0.20176014051E+03  0.91398442777E+02 0.  0.
         23    2    1    2    0    0  0.60645084731E+02  0.30396625709E+02  0.24627725659E+03  0.27089525923E+03  0.90166364035E+02 0.  0.
        -11    1    4    4    0    0  0.84190592273E+02  0.18642472509E+02  0.18014921987E+03  0.19972315596E+03  0.00000000000E+00 0. -1.
         11    1    4    4    0    0 -0.23545507542E+02  0.11754153200E+02  0.66128036718E+02  0.71172103264E+02  0.00000000000E+00 0.  1.
        -13    1    3    3    0    0  0.11777962137E+02 -0.28519191739E+02 -0.47151374861E+02  0.56349949786E+02  0.00000000000E+00 0.  1.
         13    1    3    3    0    0 -0.60595241829E+02  0.41572821284E+02 -0.12547525957E+03  0.14541019072E+03  0.00000000000E+00 0. -1.
          1    1    1    2  501    0 -0.11827805039E+02 -0.43450255255E+02  0.42053645528E+02  0.61614371342E+02  0.00000000000E+00 0. -1.
<scales pt_clust_5="13000.00000" pt_clust_6="13000.00000" pt_clust_7="13000.00000" pt_clust_8="13000.00000" pt_clust_9="45.03134"></scales>
<clustering>
<clus scale="   45.031">  1  9  2 -1</clus>
<clus scale="   90.166">  5  6 -1 -1</clus>
<clus scale="   91.398">  7  8 -1 -1</clus>
<clus scale="  103.394">  1  5  2 -1</clus>
<clus scale="   45.031">  1  5  2 -1</clus>
</clustering>
</event>
<event>
 9    1  0.3231311E-005  0.1053254E+03  0.7546771E-02  0.1270341E+00
         -3   -1    0    0    0  501 -0.00000000000E+00  0.00000000000E+00  0.22095888994E+03  0.22095888994E+03  0.00000000000E+00 0.  1.
         21   -1    0    0  501  502  0.00000000000E+00 -0.00000000000E+00 -0.10062708594E+03  0.10062708594E+03  0.00000000000E+00 0.  1.
         23    2    1    2    0    0 -0.15681465763E+02  0.38774011509E+02  0.91691325078E+02  0.13693139835E+03  0.92701544884E+02 0.  0.
         23    2    1    2    0    0 -0.12443959555E+02 -0.65588330352E+02  0.66168083347E+02  0.13063265292E+03  0.90719311878E+02 0.  0.
        -11    1    3    3    0    0 -0.37373055276E+02 -0.17141213776E+02  0.30047713652E+02  0.50925745611E+02  0.00000000000E+00 0. -1.
         11    1    3    3    0    0  0.21691589512E+02  0.55915225284E+02  0.61643611425E+02  0.86005652743E+02  0.00000000000E+00 0.  1.
        -11    1    4    4    0    0 -0.27945822706E+02 -0.83578124861E+02  0.58086783489E+02  0.10554783929E+03  0.00000000000E+00 0.  1.
         11    1    4    4    0    0  0.15501863151E+02  0.17989794509E+02  0.80812998583E+01  0.25084813634E+02  0.00000000000E+00 0. -1.
         -3    1    1    2    0  502  0.28125425318E+02  0.26814318843E+02 -0.37527604419E+02  0.54021924603E+02  0.00000000000E+00 0.  1.
<scales pt_clust_5="13000.00000" pt_clust_6="13000.00000" pt_clust_7="13000.00000" pt_clust_8="13000.00000" pt_clust_9="38.85933"></scales>
<clustering>
<clus scale="   38.859">  2  9  1 -1</clus>
<clus scale="   90.719">  7  8 -1 -1</clus>
<clus scale="   92.702">  5  6 -1 -1</clus>
<clus scale="  103.585">  2  7  1 -1</clus>
<clus scale="   38.859">  2  5  1 -1</clus>
</clustering>
</event>
<event>
 9    1  0.3231311E-005  0.9473645E+02  0.7546771E-02  0.1292168E+00
          1   -1    0    0  502    0 -0.00000000000E+00  0.00000000000E+00  0.31662922465E+03  0.31662922465E+03  0.00000000000E+00 0. -1.
         21   -1    0    0  501  502  0.00000000000E+00 -0.00000000000E+00 -0.89379673695E+02  0.89379673695E+02  0.00000000000E+00 0. -1.
         23    2    1    2    0    0  0.14383128808E+02 -0.69463465022E+01  0.16701500333E+03  0.19083600773E+03  0.90935385769E+02 0.  0.
         23    2    1    2    0    0 -0.31117149569E+02  0.31473167392E+02  0.11510098442E+03  0.15278764975E+03  0.90205277218E+02 0.  0.
        -11    1    3    3    0    0 -0.23391828178E+02 -0.36327264892E+02  0.63641792028E+02  0.76922854163E+02  0.00000000000E+00 0.  1.
         11    1    3    3    0    0  0.37774956986E+02  0.29380918390E+02  0.10337321130E+03  0.11391315356E+03  0.00000000000E+00 0. -1.
        -13    1    4    4    0    0  0.29728913103E+02  0.21442040398E+02  0.28286834360E+02  0.46300263161E+02  0.00000000000E+00 0. -1.
         13    1    4    4    0    0 -0.60846062671E+02  0.10031126994E+02  0.86814150059E+02  0.10648738659E+03  0.00000000000E+00 0.  1.
          1    1    1    2  501    0  0.16734020760E+02 -0.24526820889E+02 -0.54866436785E+02  0.62385240877E+02  0.00000000000E+00 0. -1.
<scales pt_clust_5="13000.00000" pt_clust_6="13000.00000" pt_clust_7="13000.00000" pt_clust_8="13000.00000" pt_clust_9="29.69162"></scales>
<clustering>
<clus scale="   29.692">  2  9  1 -1</clus>
<clus scale="   90.205">  7  8 -1 -1</clus>
<clus scale="   90.935">  5  6 -1 -1</clus>
<clus scale="   94.036">  2  7  1 -1</clus>
<clus scale="   29.692">  2  5  1 -1</clus>
</clustering>
</event>
<event>
 9    1  0.3231311E-005  0.9271642E+02  0.7546771E-02  0.1297318E+00
          3   -1    0    0  502    0 -0.00000000000E+00  0.00000000000E+00  0.52325947468E+03  0.52325947468E+03  0.00000000000E+00 0. -1.
         21   -1    0    0  501  502  0.00000000000E+00 -0.00000000000E+00 -0.30031795899E+02  0.30031795899E+02  0.00000000000E+00 0. -1.
         23    2    1    2    0    0 -0.11135462868E+01 -0.18003135066E+02  0.37578073669E+03  0.38681784413E+03  0.89952930001E+02 0.  0.
         23    2    1    2    0    0 -0.14550580523E+02  0.38915700902E+01  0.11050353907E+03  0.14427630996E+03  0.91530092084E+02 0.  0.
        -11    1    3    3    0    0 -0.35115350070E+02  0.18818398043E+02  0.20496772093E+03  0.20880370337E+03  0.00000000000E+00 0. -1.
         11    1    3    3    0    0  0.34001803783E+02 -0.36821533109E+02  0.17081301575E+03  0.17801414076E+03  0.00000000000E+00 0.  1.
        -13    1    4    4    0    0 -0.45197717981E+02 -0.10295079380E+02  0.97736359464E+02  0.10817216986E+03  0.00000000000E+00 0. -1.
         13    1    4    4    0    0  0.30647137457E+02  0.14186649470E+02  0.12767179608E+02  0.36104140104E+02  0.00000000000E+00 0.  1.
          3    1    1    2  501    0  0.15664126810E+02  0.14111564976E+02  0.69434030199E+01  0.22197116486E+02  0.00000000000E+00 0. -1.
<scales pt_clust_5="13000.00000" pt_clust_6="13000.00000" pt_clust_7="13000.00000" pt_clust_8="13000.00000" pt_clust_9="21.08320"></scales>
<clustering>
<clus scale="   21.083">  2  9  1 -1</clus>
<clus scale="   89.953">  5  6 -1 -1</clus>
<clus scale="   91.160">  1  5  2 -1</clus>
<clus scale="   91.530">  7  8 -1 -1</clus>
<clus scale="   21.083">  2  5  1 -1</clus>
</clustering>
</event>
<event>
 9    1  0.3231311E-005  0.9592174E+02  0.7546771E-02  0.1289721E+00
         21   -1    0    0  501  502  0.00000000000E+00  0.00000000000E+00  0.82216409911E+02  0.82216409911E+02  0.00000000000E+00 0.  1.
          2   -1    0    0  502    0 -0.00000000000E+00 -0.00000000000E+00 -0.32446773872E+03  0.32446773872E+03  0.00000000000E+00 0. -1.
         23    2    1    2    0    0 -0.66511869592E+01 -0.36756391462E+02 -0.22680811605E+03  0.24700786331E+03  0.90419535654E+02 0.  0.
         23    2    1    2    0    0  0.19958727574E+02 -0.10603510365E+01 -0.50469453143E+02  0.10644063781E+03  0.91558552452E+02 0.  0.
        -11    1    3    3    0    0 -0.10742375131E+02 -0.65513505240E+02 -0.13051921132E+03  0.14643320155E+03  0.00000000000E+00 0.  1.
         11    1    3    3    0    0  0.40911881722E+01  0.28757113778E+02 -0.96288904732E+02  0.10057466176E+03  0.00000000000E+00 0. -1.
        -13    1    4    4    0    0  0.34060263890E+02 -0.22842953275E+02  0.86177660210E+01  0.41906657964E+02  0.00000000000E+00 0.  1.
         13    1    4    4    0    0 -0.14101536316E+02  0.21782602238E+02 -0.59087219164E+02  0.64533979850E+02  0.00000000000E+00 0. -1.
          2    1    1    2  501    0 -0.13307540615E+02  0.37816742499E+02  0.35026240383E+02  0.53235647510E+02  0.00000000000E+00 0. -1.
<scales pt_clust_5="13000.00000" pt_clust_6="13000.00000" pt_clust_7="13000.00000" pt_clust_8="13000.00000" pt_clust_9="40.08986"></scales>
<clustering>
<clus scale="   40.090">  1  9  2 -1</clus>
<clus scale="   90.420">  5  6 -1 -1</clus>
<clus scale="   91.559">  7  8 -1 -1</clus>
<clus scale="   94.835">  2  5  1 -1</clus>
<clus scale="   40.090">  1  5  2 -1</clus>
</clustering>
</event>
<event>
 9    1  0.3231311E-005  0.1897168E+03  0.7546771E-02  0.1159010E+00
          4   -1    0    0  502    0 -0.00000000000E+00  0.00000000000E+00  0.10041434180E+03  0.10041434180E+03  0.00000000000E+00 0. -1.
         21   -1    0    0  501  502  0.00000000000E+00 -0.00000000000E+00 -0.50098481302E+03  0.50098481302E+03  0.00000000000E+00 0. -1.
         23    2    1    2    0    0 -0.47595890894E+02  0.16743382236E+03 -0.12499004124E+03  0.23373112887E+03  0.93318146641E+02 0.  0.
         23    2    1    2    0    0  0.17218306767E+02 -0.15616422739E+03 -0.14242065059E+03  0.23062303977E+03  0.90662057950E+02 0.  0.
        -11    1    4    4    0    0  0.50119783676E+02 -0.65269919969E+02 -0.46876607219E+02  0.94707821603E+02  0.00000000000E+00 0.  1.
         11    1    4    4    0    0 -0.32901476909E+02 -0.90894307424E+02 -0.95544043368E+02  0.13591521816E+03  0.00000000000E+00 0. -1.
        -13    1    3    3    0    0 -0.58165637170E+02  0.50897482236E+02 -0.29609200004E+02  0.82767745953E+02  0.00000000000E+00 0. -1.
         13    1    3    3    0    0  0.10569746276E+02  0.11653634013E+03 -0.95380841239E+02  0.15096338292E+03  0.00000000000E+00 0.  1.
          4    1    1    2  501    0  0.30377584127E+02 -0.11269594971E+02 -0.13315977939E+03  0.13704498618E+03  0.00000000000E+00 0. -1.
<scales pt_clust_5="13000.00000" pt_clust_6="13000.00000" pt_clust_7="13000.00000" pt_clust_8="13000.00000" pt_clust_9="32.40064"></scales>
<clustering>
<clus scale="   32.401">  2  9  1 -1</clus>
<clus scale="   90.662">  5  6 -1 -1</clus>
<clus scale="   93.318">  7  8 -1 -1</clus>
<clus scale="  188.425">  2  5  1 -1</clus>
<clus scale="   32.401">  2  5  1 -1</clus>
</clustering>
</event>
<event>
 9    1  0.3231311E-005  0.9207028E+02  0.7546771E-02  0.1300578E+00
         -1   -1    0    0    0  501 -0.00000000000E+00  0.00000000000E+00  0.28571869261E+03  0.28571869261E+03  0.00000000000E+00 0.  1.
         21   -1    0    0  501  502  0.00000000000E+00 -0.00000000000E+00 -0.12241590652E+03  0.12241590652E+03  0.00000000000E+00 0.  1.
         23    2    1    2    0    0  0.20951680173E+01  0.59142093897E+01  0.20668883103E+03  0.22635074275E+03  0.92059862420E+02 0.  0.
         23    2    1    2    0    0  0.11930364108E+02  0.16854324109E+02  0.36788153233E+02  0.97267445408E+02  0.87642374961E+02 0.  0.
        -11    1    3    3    0    0  0.15510346744E+02 -0.35643016857E+02  0.14906243888E+03  0.15404741540E+03  0.00000000000E+00 0. -1.
         11    1    3    3    0    0 -0.13415178727E+02  0.41557226246E+02  0.57626392157E+02  0.72303327355E+02  0.00000000000E+00 0.  1.
        -11    1    4    4    0    0  0.30890407356E+01  0.46301333117E+02  0.45829068376E+02  0.65220082254E+02  0.00000000000E+00 0.  1.
         11    1    4    4    0    0  0.88413233728E+01 -0.29447009008E+02 -0.90409151427E+01  0.32047363153E+02  0.00000000000E+00 0. -1.
         -1    1    1    2    0  502 -0.14025532126E+02 -0.22768533499E+02 -0.80174198176E+02  0.84516410964E+02  0.00000000000E+00 0.  1.
<scales pt_clust_5="13000.00000" pt_clust_6="13000.00000" pt_clust_7="13000.00000" pt_clust_8="13000.00000" pt_clust_9="26.74176"></scales>
<clustering>
<clus scale="   26.742">  2  9  1 -1</clus>
<clus scale="   87.642">  7  8 -1 -1</clus>
<clus scale="   87.653">  2  7  1 -1</clus>
<clus scale="   92.060">  5  6 -1 -1</clus>
<clus scale="   26.742">  2  5  1 -1</clus>
</clustering>
</event>
<event>
 9    1  0.3231311E-005  0.1023307E+03  0.7546771E-02  0.1276033E+00
          4   -1    0    0  502    0 -0.00000000000E+00  0.00000000000E+00  0.60947655667E+02  0.60947655667E+02  0.00000000000E+00 0. -1.
         21   -1    0    0  501  502  0.00000000000E+00 -0.00000000000E+00 -0.26260489116E+03  0.26260489116E+03  0.00000000000E+00 0. -1.
         23    2    1    2    0    0 -0.90731277704E+00  0.37543632974E+02 -0.37634610263E+02  0.10528695200E+03  0.90877009075E+02 0.  0.
         23    2    1    2    0    0  0.82432250492E+00 -0.61916674104E+02 -0.15813273862E+03  0.19319085084E+03  0.92099879412E+02 0.  0.
        -11    1    3    3    0    0 -0.34536067502E+02  0.13174478897E+02 -0.49793356840E+02  0.62013589141E+02  0.00000000000E+00 0. -1.
         11    1    3    3    0    0  0.33628754725E+02  0.24369154078E+02  0.12158746577E+02  0.43273362859E+02  0.00000000000E+00 0.  1.
        -13    1    4    4    0    0  0.29750256739E+02 -0.65520724981E+02 -0.70106538729E+02  0.10046377432E+03  0.00000000000E+00 0. -1.
         13    1    4    4    0    0 -0.28925934234E+02  0.36040508764E+01 -0.88026199886E+02  0.92727076523E+02  0.00000000000E+00 0.  1.
          4    1    1    2  501    0  0.82990272123E-01  0.24373041130E+02 -0.58898866108E+01  0.25074743979E+02  0.00000000000E+00 0. -1.
<scales pt_clust_5="13000.00000" pt_clust_6="13000.00000" pt_clust_7="13000.00000" pt_clust_8="13000.00000" pt_clust_9="24.37319"></scales>
<clustering>
<clus scale="   24.373">  2  9  1 -1</clus>
<clus scale="   90.877">  5  6 -1 -1</clus>
<clus scale="   92.100">  7  8 -1 -1</clus>
<clus scale="  101.232">  1  5  2 -1</clus>
<clus scale="   24.373">  2  5  1 -1</clus>
</clustering>
</event>
<event>
 9    1  0.3231311E-005  0.1067572E+03  0.7546771E-02  0.1266805E+00
         21   -1    0    0  501  502  0.00000000000E+00  0.00000000000E+00  0.95889133922E+02  0.95889133922E+02  0.00000000000E+00 0. -1.
          1   -1    0    0  502    0 -0.00000000000E+00 -0.00000000000E+00 -0.32521022123E+03  0.32521022123E+03  0.00000000000E+00 0. -1.
         23    2    1    2    0    0  0.72561733366E-01  0.53317494943E+02 -0.16822251275E+03  0.19948987377E+03  0.93030292958E+02 0.  0.
         23    2    1    2    0    0  0.66171941501E+02 -0.35620812745E+02 -0.87619381913E+02  0.14809172849E+03  0.92770878063E+02 0.  0.
        -11    1    4    4    0    0 -0.62445334640E+01  0.24490120254E+02 -0.18924549381E+02  0.31573703576E+02  0.00000000000E+00 0.  1.
         11    1    4    4    0    0  0.72416474965E+02 -0.60110932999E+02 -0.68694832532E+02  0.11651802491E+03  0.00000000000E+00 0. -1.
        -11    1    3    3    0    0  0.44628272528E+02  0.12331147391E+02 -0.64607403631E+02  0.79484945170E+02  0.00000000000E+00 0. -1.
         11    1    3    3    0    0 -0.44555710794E+02  0.40986347552E+02 -0.10361510912E+03  0.12000492860E+03  0.00000000000E+00 0.  1.
          1    1    1    2  501    0 -0.66244503234E+02 -0.17696682198E+02  0.26520807348E+02  0.73517752904E+02  0.00000000000E+00 0. -1.
<scales pt_clust_5="13000.00000" pt_clust_6="13000.00000" pt_clust_7="13000.00000" pt_clust_8="13000.00000" pt_clust_9="68.56753"></scales>
<clustering>
<clus scale="   68.568">  1  9  2 -1</clus>
<clus scale="   92.771">  5  6 -1 -1</clus>
<clus scale="   93.030">  7  8 -1 -1</clus>
<clus scale="  106.531">  1  5  2 -1</clus>
<clus scale="   68.568">  1  5  2 -1</clus>
</clustering>
</event>
<event>
 9    1  0.3231311E-005  0.9309352E+02  0.7546771E-02  0.1302734E+00
         21   -1    0    0  501  502  0.00000000000E+00  0.00000000000E+00  0.33758475152E+03  0.33758475152E+03  0.00000000000E+00 0.  1.
          1   -1    0    0  502    0 -0.00000000000E+00 -0.00000000000E+00 -0.93758315822E+02  0.93758315822E+02  0.00000000000E+00 0. -1.
         23    2    1    2    0    0 -0.16468544173E+02 -0.18560774407E+02 -0.49914698641E+02  0.10664449339E+03  0.90916750584E+02 0.  0.
         23    2    1    2    0    0 -0.12701871661E+02 -0.17776624078E+02  0.23977464156E+03  0.25339848958E+03  0.79003606738E+02 0.  0.
        -13    1    3    3    0    0 -0.38929001652E+02  0.23120083872E+02 -0.34253803117E+02  0.56774364601E+02  0.00000000000E+00 0.  1.
         13    1    3    3    0    0  0.22460457479E+02 -0.41680858279E+02 -0.15660895524E+02  0.49870128791E+02  0.00000000000E+00 0. -1.
        -13    1    4    4    0    0  0.19305980794E+02 -0.27090477981E+02  0.45946990731E+02  0.56725134190E+02  0.00000000000E+00 0. -1.
         13    1    4    4    0    0 -0.32007852455E+02  0.93138539034E+01  0.19382765083E+03  0.19667335539E+03  0.00000000000E+00 0.  1.
          1    1    1    2  501    0  0.29170415833E+02  0.36337398484E+02  0.53966492777E+02  0.71300084370E+02  0.00000000000E+00 0. -1.
<scales pt_clust_5="13000.00000" pt_clust_6="13000.00000" pt_clust_7="13000.00000" pt_clust_8="13000.00000" pt_clust_9="46.59742"></scales>
<clustering>
<clus scale="   46.597">  1  9  2 -1</clus>
<clus scale="   79.004">  7  8 -1 -1</clus>
<clus scale="   81.499">  1  7  2 -1</clus>
<clus scale="   90.917">  5  6 -1 -1</clus>
<clus scale="   46.597">  1  5  2 -1</clus>
</clustering>
</event>
<event>
 9    1  0.3231311E-005  0.1700402E+03  0.7546771E-02  0.1194640E+00
         -2   -1    0    0    0  501 -0.00000000000E+00  0.00000000000E+00  0.24643694386E+03  0.24643694386E+03  0.00000000000E+00 0.  1.
         21   -1    0    0  501  502  0.00000000000E+00 -0.00000000000E+00 -0.12086582708E+04  0.12086582708E+04  0.00000000000E+00 0.  1.
         23    2    1    2    0    0 -0.21952553297E+02 -0.70195317421E+02 -0.69746243660E+02  0.13615847673E+03  0.90913668369E+02 0.  0.
         23    2    1    2    0    0 -0.11875202049E+03  0.40834467380E+02  0.17934463957E+03  0.23752222218E+03  0.92102172575E+02 0.  0.
        -13    1    4    4    0    0 -0.48558758486E+02  0.52891549671E+02  0.42989602118E+02  0.83687364295E+02  0.00000000000E+00 0.  1.
         13    1    4    4    0    0 -0.70193262005E+02 -0.12057082291E+02  0.13635503745E+03  0.15383485789E+03  0.00000000000E+00 0. -1.
        -13    1    3    3    0    0 -0.30381434287E+02 -0.60110905509E+01 -0.64084859071E+02  0.71176076888E+02  0.00000000000E+00 0.  1.
         13    1    3    3    0    0  0.84288809896E+01 -0.64184226870E+02 -0.56613845887E+01  0.64982399841E+02  0.00000000000E+00 0. -1.
         -2    1    1    2    0  502  0.14070457379E+03  0.29360850041E+02 -0.10718197229E+04  0.10814145158E+04  0.00000000000E+00 0.  1.
<scales pt_clust_5="13000.00000" pt_clust_6="13000.00000" pt_clust_7="13000.00000" pt_clust_8="13000.00000" pt_clust_9="142.93651"></scales>
<clustering>
<clus scale="   90.914">  7  8 -1 -1</clus>
<clus scale="   92.102">  5  6 -1 -1</clus>
<clus scale="  116.938">  1  7  2 -1</clus>
<clus scale="  142.937">  2  9  1 -1</clus>
<clus scale="  142.937">  2  5  1 -1</clus>
</clustering>
</event>
<event>
 9    1  0.3231311E-005  0.1174452E+03  0.7546771E-02  0.1249206E+00
          3   -1    0    0  502    0 -0.00000000000E+00  0.00000000000E+00  0.66621556957E+02  0.66621556957E+02  0.00000000000E+00 0. -1.
         21   -1    0    0  501  502  0.00000000000E+00 -0.00000000000E+00 -0.60462828106E+03  0.60462828106E+03  0.00000000000E+00 0. -1.
         23    2    1    2    0    0 -0.13017968008E+02  0.88414693734E+02 -0.45106901451E+02  0.13537787665E+03  0.91136772871E+02 0.  0.
         23    2    1    2    0    0 -0.18384069455E+02 -0.53256419634E+02 -0.11101043958E+03  0.15108410670E+03  0.85608815896E+02 0.  0.
        -11    1    4    4    0    0 -0.13651395442E+02 -0.74142329169E+02 -0.10419944070E+03  0.12861169859E+03  0.00000000000E+00 0.  1.
         11    1    4    4    0    0 -0.47326740129E+01  0.20885909535E+02 -0.68109988803E+01  0.22472408108E+02  0.00000000000E+00 0. -1.
        -13    1    3    3    0    0  0.38205106962E+02  0.38624237400E+02 -0.81040100986E+01  0.54928470690E+02  0.00000000000E+00 0. -1.
         13    1    3    3    0    0 -0.51223074970E+02  0.49790456334E+02 -0.37002891352E+02  0.80449405963E+02  0.00000000000E+00 0.  1.
          3    1    1    2  501    0  0.31402037463E+02 -0.35158274100E+02 -0.38188938307E+03  0.38478785467E+03  0.00000000000E+00 0. -1.
<scales pt_clust_5="13000.00000" pt_clust_6="13000.00000" pt_clust_7="13000.00000" pt_clust_8="13000.00000" pt_clust_9="47.14013"></scales>
<clustering>
<clus scale="   47.140">  2  9  1 -1</clus>
<clus scale="   85.609">  5  6 -1 -1</clus>
<clus scale="   91.137">  7  8 -1 -1</clus>
<clus scale="  113.209">  2  5  1 -1</clus>
<clus scale="   47.140">  2  5  1 -1</clus>
</clustering>
</event>
<event>
 9    1  0.3231311E-005  0.8999291E+02  0.7546771E-02  0.1306402E+00
         21   -1    0    0  501  502  0.00000000000E+00  0.00000000000E+00  0.11865842373E+03  0.11865842373E+03  0.00000000000E+00 0.  1.
          1   -1    0    0  502    0 -0.00000000000E+00 -0.00000000000E+00 -0.89874632388E+02  0.89874632388E+02  0.00000000000E+00 0. -1.
         23    2    1    2    0    0  0.99474234127E+01  0.13487278170E+02 -0.16409373784E+02  0.86681067625E+02  0.83447480679E+02 0.  0.
         23    2    1    2    0    0  0.12133947325E+02 -0.93842781431E+01  0.39388478363E+02  0.98654662540E+02  0.89140298738E+02 0.  0.
        -11    1    4    4    0    0  0.14791078660E+02 -0.43241229262E+02  0.45110682922E+02  0.64214901928E+02  0.00000000000E+00 0. -1.
         11    1    4    4    0    0 -0.26571313348E+01  0.33856951118E+02 -0.57222045590E+01  0.34439760612E+02  0.00000000000E+00 0.  1.
        -13    1    3    3    0    0 -0.28728089701E+02  0.31001976338E+02 -0.12335895785E+02  0.44029535536E+02  0.00000000000E+00 0.  1.
         13    1    3    3    0    0  0.38675513114E+02 -0.17514698167E+02 -0.40734779986E+01  0.42651532089E+02  0.00000000000E+00 0. -1.
          1    1    1    2  501    0 -0.22081370738E+02 -0.41030000272E+01  0.58046867603E+01  0.23197325951E+02  0.00000000000E+00 0. -1.
<scales pt_clust_5="13000.00000" pt_clust_6="13000.00000" pt_clust_7="13000.00000" pt_clust_8="13000.00000" pt_clust_9="22.45933"></scales>
<clustering>
<clus scale="   22.459">  1  9  2 -1</clus>
<clus scale="   83.447">  7  8 -1 -1</clus>
<clus scale="   84.358">  2  7  1 -1</clus>
<clus scale="   89.140">  5  6 -1 -1</clus>
<clus scale="   22.459">  1  5  2 -1</clus>
</clustering>
</event>
<event>
 9    1  0.3231311E-005  0.1100525E+03  0.7546771E-02  0.1260664E+00
         -1   -1    0    0    0  501 -0.00000000000E+00  0.00000000000E+00  0.36611434827E+03  0.36611434827E+03  0.00000000000E+00 0.  1.
         21   -1    0    0  501  502  0.00000000000E+00 -0.00000000000E+00 -0.23739924242E+03  0.23739924242E+03  0.00000000000E+00 0. -1.
         23    2    1    2    0    0 -0.65150650185E+01  0.58170077598E+02  0.31998061582E+03  0.33795192013E+03  0.91638975447E+02 0.  0.
         23    2    1    2    0    0  0.27156800116E+02 -0.77124321392E+02 -0.71223443321E+02  0.14229187559E+03  0.92133306882E+02 0.  0.
        -11    1    4    4    0    0  0.20109261967E+02 -0.97861103620E+02 -0.49702784391E+02  0.11158649020E+03  0.00000000000E+00 0. -1.
         11    1    4    4    0    0  0.70475381490E+01  0.20736782228E+02 -0.21520658930E+02  0.30705385389E+02  0.00000000000E+00 0.  1.
        -11    1    3    3    0    0 -0.42672292324E+02  0.34433053211E+01  0.11362654457E+03  0.12142393715E+03  0.00000000000E+00 0. -1.
         11    1    3    3    0    0  0.36157227305E+02  0.54726772277E+02  0.20635407126E+03  0.21652798298E+03  0.00000000000E+00 0.  1.
         -1    1    1    2    0  502 -0.20641735097E+02  0.18954243794E+02 -0.12004206665E+03  0.12326979496E+03  0.00000000000E+00 0.  1.
<scales pt_clust_5="13000.00000" pt_clust_6="13000.00000" pt_clust_7="13000.00000" pt_clust_8="13000.00000" pt_clust_9="28.02400"></scales>
<clustering>
<clus scale="   28.024">  2  9  1 -1</clus>
<clus scale="   91.639">  7  8 -1 -1</clus>
<clus scale="   92.133">  5  6 -1 -1</clus>
<clus scale="  109.639">  1  7  2 -1</clus>
<clus scale="   28.024">  2  5  1 -1</clus>
</clustering>
</event>
<event>
 9    1  0.3231311E-005  0.9246178E+02  0.7546771E-02  0.1297262E+00
          1   -1    0    0  502    0 -0.00000000000E+00  0.00000000000E+00  0.20374999645E+03  0.20374999645E+03  0.00000000000E+00 0. -1.
         21   -1    0    0  501  502  0.00000000000E+00 -0.00000000000E+00 -0.13711470079E+03  0.13711470079E+03  0.00000000000E+00 0.  1.
         23    2    1    2    0    0  0.12165530045E+01 -0.16834643948E+02  0.16176211832E+03  0.18623699578E+03  0.90732300949E+02 0.  0.
         23    2    1    2    0    0  0.15417313988E+02  0.50810868506E+01 -0.50324892097E+02  0.10541342896E+03  0.91191475628E+02 0.  0.
        -13    1    3    3    0    0 -0.41118021547E+02 -0.19046818936E+02  0.54355836826E+02  0.70767436046E+02  0.00000000000E+00 0.  1.
         13    1    3    3    0    0  0.42334574551E+02  0.22121749888E+01  0.10740628149E+03  0.11546955973E+03  0.00000000000E+00 0. -1.
        -13    1    4    4    0    0 -0.38083342878E+02  0.88860776978E+00 -0.28062823622E+02  0.47314402650E+02  0.00000000000E+00 0.  1.
         13    1    4    4    0    0  0.53500656865E+02  0.41924790809E+01 -0.22262068475E+02  0.58099026314E+02  0.00000000000E+00 0. -1.
          1    1    1    2  501    0 -0.16633866992E+02  0.11753557097E+02 -0.44801930558E+02  0.49214272496E+02  0.00000000000E+00 0. -1.
<scales pt_clust_5="13000.00000" pt_clust_6="13000.00000" pt_clust_7="13000.00000" pt_clust_8="13000.00000" pt_clust_9="20.36742"></scales>
<clustering>
<clus scale="   20.367">  2  9  1 -1</clus>
<clus scale="   90.732">  5  6 -1 -1</clus>
<clus scale="   91.191">  7  8 -1 -1</clus>
<clus scale="   92.009">  1  5  2 -1</clus>
<clus scale="   20.367">  2  5  1 -1</clus>
</clustering>
</event>
<event>
 9    1  0.3231311E-005  0.2334075E+03  0.7546771E-02  0.1124292E+00
         21   -1    0    0  501  502  0.00000000000E+00  0.00000000000E+00  0.36761314965E+02  0.36761314965E+02  0.00000000000E+00 0.  1.
          2   -1    0    0  502    0 -0.00000000000E+00 -0.00000000000E+00 -0.18578853064E+04  0.18578853064E+04  0.00000000000E+00 0. -1.
         23    2    1    2    0    0  0.14973991607E+03  0.13919482721E+03 -0.10062263810E+04  0.10310640913E+04  0.93831701505E+02 0.  0.
         23    2    1    2    0    0 -0.16341300032E+03 -0.15843431443E+03 -0.79656213511E+03  0.83369439265E+03  0.93433744330E+02 0.  0.
        -11    1    4    4    0    0 -0.95253724735E+02 -0.54346569908E+02 -0.50368155891E+03  0.51548223492E+03  0.00000000000E+00 0. -1.
         11    1    4    4    0    0 -0.68159275583E+02 -0.10408774452E+03 -0.29288057620E+03  0.31821215773E+03  0.00000000000E+00 0.  1.
        -13    1    3    3    0    0  0.52712517191E+02  0.10322682582E+03 -0.64397525140E+03  0.65432294125E+03  0.00000000000E+00 0.  1.
         13    1    3    3    0    0  0.97027398877E+02  0.35968001388E+02 -0.36225112959E+03  0.37674115005E+03  0.00000000000E+00 0. -1.
          2    1    1    2  501    0  0.13673084249E+02  0.19239487223E+02 -0.18335475325E+02  0.29888137394E+02  0.00000000000E+00 0. -1.
<scales pt_clust_5="13000.00000" pt_clust_6="13000.00000" pt_clust_7="13000.00000" pt_clust_8="13000.00000" pt_clust_9="23.60320"></scales>
<clustering>
<clus scale="   23.603">  1  9  2 -1</clus>
<clus scale="   93.434">  5  6 -1 -1</clus>
<clus scale="   93.832">  7  8 -1 -1</clus>
<clus scale="  233.248">  1  5  2 -1</clus>
<clus scale="   23.603">  1  5  2 -1</clus>
</clustering>
</event>
<event>
 9    1  0.3231311E-005  0.1161328E+03  0.7546771E-02  0.1251004E+00
         21   -1    0    0  501  502  0.00000000000E+00  0.00000000000E+00  0.27211927954E+03  0.27211927954E+03  0.00000000000E+00 0. -1.
         -3   -1    0    0    0  501 -0.00000000000E+00 -0.00000000000E+00 -0.11067269885E+03  0.11067269885E+03  0.00000000000E+00 0.  1.
         23    2    1    2    0    0 -0.56693640794E+02  0.11768239304E+02  0.12731575241E+02  0.10860639731E+03  0.90997781107E+02 0.  0.
         23    2    1    2    0    0  0.65337108914E+02 -0.86266615224E+02  0.13617521898E+03  0.19814635567E+03  0.94907435424E+02 0.  0.
        -13    1    3    3    0    0 -0.53665820158E+02 -0.17815088843E+02  0.39192725020E+02  0.68800198679E+02  0.00000000000E+00 0.  1.
         13    1    3    3    0    0 -0.30278206354E+01  0.29583328147E+02 -0.26461149779E+02  0.39806198634E+02  0.00000000000E+00 0. -1.
        -13    1    4    4    0    0  0.74180495934E+02 -0.56527151365E+02  0.13856509141E+03  0.16702798980E+03  0.00000000000E+00 0. -1.
         13    1    4    4    0    0 -0.88433870197E+01 -0.29739463859E+02 -0.23898724280E+01  0.31118365876E+02  0.00000000000E+00 0.  1.
         -3    1    1    2    0  502 -0.86434681205E+01  0.74498375920E+02  0.12539786467E+02  0.76039225407E+02  0.00000000000E+00 0.  1.
<scales pt_clust_5="13000.00000" pt_clust_6="13000.00000" pt_clust_7="13000.00000" pt_clust_8="13000.00000" pt_clust_9="74.99815"></scales>
<clustering>
<clus scale="   74.998">  1  9  2 -1</clus>
<clus scale="   90.998">  5  6 -1 -1</clus>
<clus scale="   94.907">  7  8 -1 -1</clus>
<clus scale="  112.960">  2  5  1 -1</clus>
<clus scale="   74.998">  1  5  2 -1</clus>
</clustering>
</event>
<event>
 9    1  0.3231311E-005  0.1056334E+03  0.7546771E-02  0.1269635E+00
         21   -1    0    0  501  502  0.00000000000E+00  0.00000000000E+00  0.49429565055E+03  0.49429565055E+03  0.00000000000E+00 0. -1.
         -3   -1    0    0    0  501 -0.00000000000E+00 -0.00000000000E+00 -0.10428874659E+03  0.10428874659E+03  0.00000000000E+00 0.  1.
         23    2    1    2    0    0 -0.32607851504E+02 -0.34917776326E+02 -0.64529792304E+02  0.12290050548E+03  0.93047928881E+02 0.  0.
         23    2    1    2    0    0  0.90880022418E+01  0.32399975633E+02  0.42999560566E+03  0.44159888384E+03  0.94768154550E+02 0.  0.
        -11    1    3    3    0    0  0.27256803886E+02 -0.22150153144E+02 -0.48035559098E+02  0.59506113805E+02  0.00000000000E+00 0.  1.
         11    1    3    3    0    0 -0.59864655390E+02 -0.12767623182E+02 -0.16494233206E+02  0.63394391674E+02  0.00000000000E+00 0. -1.
        -13    1    4    4    0    0 -0.39988287381E+02  0.21138222952E+02  0.13604864452E+03  0.14337057324E+03  0.00000000000E+00 0.  1.
         13    1    4    4    0    0  0.49076289623E+02  0.11261752681E+02  0.29394696114E+03  0.29822831060E+03  0.00000000000E+00 0. -1.
         -3    1    1    2    0  502  0.23519849262E+02  0.25178006929E+01  0.24541090604E+02  0.34085007814E+02  0.00000000000E+00 0.  1.
<scales pt_clust_5="13000.00000" pt_clust_6="13000.00000" pt_clust_7="13000.00000" pt_clust_8="13000.00000" pt_clust_9="23.65423"></scales>
<clustering>
<clus scale="   23.654">  1  9  2 -1</clus>
<clus scale="   93.048">  5  6 -1 -1</clus>
<clus scale="   94.768">  7  8 -1 -1</clus>
<clus scale="  104.093">  2  5  1 -1</clus>
<clus scale="   23.654">  1  5  2 -1</clus>
</clustering>
</event>
<event>
 9    1  0.3231311E-005  0.9462601E+02  0.7546771E-02  0.1293562E+00
          1   -1    0    0  502    0 -0.00000000000E+00  0.00000000000E+00  0.35078881287E+03  0.35078881287E+03  0.00000000000E+00 0. -1.
         21   -1    0    0  501  502  0.00000000000E+00 -0.00000000000E+00 -0.65816386502E+02  0.65816386502E+02  0.00000000000E+00 0.  1.
         23    2    1    2    0    0  0.24659213733E+02  0.19056043536E+00  0.24349927296E+03  0.26122948655E+03  0.91328175147E+02 0.  0.
         23    2    1    2    0    0 -0.17325816891E+02  0.40899730905E+02  0.52622893485E+02  0.11217261738E+03  0.88546909896E+02 0.  0.
        -13    1    4    4    0    0  0.34630962732E+02  0.33864293879E+01  0.21803363085E+02  0.41062855789E+02  0.00000000000E+00 0.  1.
         13    1    4    4    0    0 -0.51956779623E+02  0.37513301517E+02  0.30819530400E+02  0.71109761591E+02  0.00000000000E+00 0. -1.
        -13    1    3    3    0    0  0.39983084463E+02 -0.30700420359E+02  0.19695197932E+03  0.20330087312E+03  0.00000000000E+00 0.  1.
         13    1    3    3    0    0 -0.15323870730E+02  0.30890980794E+02  0.46547293638E+02  0.57928613427E+02  0.00000000000E+00 0. -1.
          1    1    1    2  501    0 -0.73333968427E+01 -0.41090291340E+02 -0.11149740081E+02  0.43203095439E+02  0.00000000000E+00 0. -1.
<scales pt_clust_5="13000.00000" pt_clust_6="13000.00000" pt_clust_7="13000.00000" pt_clust_8="13000.00000" pt_clust_9="41.73956"></scales>
<clustering>
<clus scale="   41.740">  2  9  1 -1</clus>
<clus scale="   88.547">  5  6 -1 -1</clus>
<clus scale="   91.328">  7  8 -1 -1</clus>
<clus scale="   91.945">  2  5  1 -1</clus>
<clus scale="   41.740">  2  5  1 -1</clus>
</clustering>
</event>
<event>
 9    1  0.3231311E-005  0.1608704E+03  0.7546771E-02  0.1187771E+00
         21   -1    0    0  501  502  0.00000000000E+00  0.00000000000E+00  0.90879310074E+02  0.90879310074E+02  0.00000000000E+00 0.  1.
          1   -1    0    0  502    0 -0.00000000000E+00 -0.00000000000E+00 -0.90121892338E+03  0.90121892338E+03  0.00000000000E+00 0. -1.
         23    2    1    2    0    0  0.78240423526E+02 -0.11128673512E+03 -0.76762150106E+03  0.78466427274E+03  0.89156888399E+02 0.  0.
         23    2    1    2    0    0 -0.54298059566E+02  0.10900740863E+03 -0.73755630147E+02  0.16816871350E+03  0.89498205641E+02 0.  0.
        -11    1    3    3    0    0  0.26754616095E+02 -0.10760130918E+03 -0.53948825497E+03  0.55076440378E+03  0.00000000000E+00 0. -1.
         11    1    3    3    0    0  0.51485807431E+02 -0.36854259329E+01 -0.22813324609E+03  0.23389986896E+03  0.00000000000E+00 0.  1.
        -13    1    4    4    0    0  0.79084706221E+01  0.28168742496E+02 -0.57992840723E+02  0.64955304145E+02  0.00000000000E+00 0. -1.
         13    1    4    4    0    0 -0.62206530188E+02  0.80838666132E+02 -0.15762789424E+02  0.10321340935E+03  0.00000000000E+00 0.  1.
          1    1    1    2  501    0 -0.23942363960E+02  0.22793264888E+01  0.31037517899E+02  0.39265247211E+02  0.00000000000E+00 0. -1.
<scales pt_clust_5="13000.00000" pt_clust_6="13000.00000" pt_clust_7="13000.00000" pt_clust_8="13000.00000" pt_clust_9="24.05062"></scales>
<clustering>
<clus scale="   24.051">  1  9  2 -1</clus>
<clus scale="   89.157">  5  6 -1 -1</clus>
<clus scale="   89.498">  7  8 -1 -1</clus>
<clus scale="  160.681">  2  5  1 -1</clus>
<clus scale="   24.051">  1  5  2 -1</clus>
</clustering>
</event>
<event>
 9    1  0.3231311E-005  0.9976328E+02  0.7546771E-02  0.1282030E+00
         21   -1    0    0  501  502  0.00000000000E+00  0.00000000000E+00  0.15498102382E+03  0.15498102382E+03  0.00000000000E+00 0. -1.
          2   -1    0    0  502    0 -0.00000000000E+00 -0.00000000000E+00 -0.19616338523E+03  0.19616338523E+03  0.00000000000E+00 0. -1.
         23    2    1    2    0    0  0.64178326128E+01  0.16403640038E+02 -0.59625092400E+02  0.10928544581E+03  0.89877077387E+02 0.  0.
         23    2    1    2    0    0 -0.40030584983E+02 -0.47257458555E+02 -0.77541405571E+02  0.13558229737E+03  0.92380596764E+02 0.  0.
        -13    1    4    4    0    0 -0.19878876932E+02 -0.15597951104E+02 -0.91968047338E+02  0.95376032408E+02  0.00000000000E+00 0.  1.
         13    1    4    4    0    0 -0.20151708051E+02 -0.31659507450E+02  0.14426641767E+02  0.40206264960E+02  0.00000000000E+00 0. -1.
        -13    1    3    3    0    0  0.35513148404E+01  0.53522400795E+02 -0.28396656322E+02  0.60692909917E+02  0.00000000000E+00 0.  1.
         13    1    3    3    0    0  0.28665177724E+01 -0.37118760757E+02 -0.31228436078E+02  0.48592535889E+02  0.00000000000E+00 0. -1.
          2    1    1    2  501    0  0.33612752370E+02  0.30853818516E+02  0.95984136557E+02  0.10627666588E+03  0.00000000000E+00 0. -1.
<scales pt_clust_5="13000.00000" pt_clust_6="13000.00000" pt_clust_7="13000.00000" pt_clust_8="13000.00000" pt_clust_9="45.62648"></scales>
<clustering>
<clus scale="   45.626">  1  9  2 -1</clus>
<clus scale="   89.877">  7  8 -1 -1</clus>
<clus scale="   92.381">  5  6 -1 -1</clus>
<clus scale="   97.450">  2  7  1 -1</clus>
<clus scale="   45.626">  1  5  2 -1</clus>
</clustering>
</event>
<event>
 9    1  0.3231311E-005  0.1105838E+03  0.7546771E-02  0.1260836E+00
          1   -1    0    0  502    0 -0.00000000000E+00  0.00000000000E+00  0.21046064335E+03  0.21046064335E+03  0.00000000000E+00 0. -1.
         21   -1    0    0  501  502  0.00000000000E+00 -0.00000000000E+00 -0.15707226756E+03  0.15707226756E+03  0.00000000000E+00 0. -1.
         23    2    1    2    0    0  0.35735027865E+02 -0.50176028055E+02  0.71318218435E+02  0.12804017258E+03  0.86679706428E+02 0.  0.
         23    2    1    2    0    0 -0.13881309884E+02  0.67853864133E+02  0.79050412297E+02  0.13852115458E+03  0.90234721360E+02 0.  0.
        -11    1    4    4    0    0 -0.38977425143E+02  0.77296783847E+02  0.64960278697E+02  0.10823063463E+03  0.00000000000E+00 0.  1.
         11    1    4    4    0    0  0.25096115259E+02 -0.94429197138E+01  0.14090133600E+02  0.30290519947E+02  0.00000000000E+00 0. -1.
        -13    1    3    3    0    0 -0.67297957314E+00 -0.20231825908E+02 -0.17972258362E+02  0.27069941849E+02  0.00000000000E+00 0.  1.
         13    1    3    3    0    0  0.36408007438E+02 -0.29944202147E+02  0.89290476798E+02  0.10097023073E+03  0.00000000000E+00 0. -1.
          1    1    1    2  501    0 -0.21853717981E+02 -0.17677836077E+02 -0.96980254943E+02  0.10097158376E+03  0.00000000000E+00 0. -1.
<scales pt_clust_5="13000.00000" pt_clust_6="13000.00000" pt_clust_7="13000.00000" pt_clust_8="13000.00000" pt_clust_9="28.10856"></scales>
<clustering>
<clus scale="   28.109">  2  9  1 -1</clus>
<clus scale="   86.680">  7  8 -1 -1</clus>
<clus scale="   90.235">  5  6 -1 -1</clus>
<clus scale="  107.703">  1  7  2 -1</clus>
<clus scale="   28.109">  2  5  1 -1</clus>
</clustering>
</event>
<event>
 9    1  0.3231311E-005  0.2178924E+03  0.7546771E-02  0.1154160E+00
         21   -1    0    0  501  502  0.00000000000E+00  0.00000000000E+00  0.40622889216E+03  0.40622889216E+03  0.00000000000E+00 0.  1.
         -3   -1    0    0    0  501 -0.00000000000E+00 -0.00000000000E+00 -0.22187135139E+03  0.22187135139E+03  0.00000000000E+00 0.  1.
         23    2    1    2    0    0  0.48376140431E+02  0.92506857713E+02  0.35197142612E+02  0.14371155308E+03  0.92284353785E+02 0.  0.
         23    2    1    2    0    0  0.16381407482E+03 -0.70181005780E+02 -0.34437169077E+02  0.20290832205E+03  0.90694232788E+02 0.  0.
        -11    1    3    3    0    0 -0.10882178447E+02  0.66189412064E+02  0.40995148360E+02  0.78613372057E+02  0.00000000000E+00 0.  1.
         11    1    3    3    0    0  0.59258318878E+02  0.26317445649E+02 -0.57980057479E+01  0.65098181023E+02  0.00000000000E+00 0. -1.
        -11    1    4    4    0    0  0.17934992621E+02 -0.49111941755E+02 -0.42555009162E+01  0.52457183219E+02  0.00000000000E+00 0. -1.
         11    1    4    4    0    0  0.14587908220E+03 -0.21069064025E+02 -0.30181668161E+02  0.15045113883E+03  0.00000000000E+00 0.  1.
         -3    1    1    2    0  502 -0.21219021525E+03 -0.22325851933E+02  0.18359756723E+03  0.28148036842E+03  0.00000000000E+00 0.  1.
<scales pt_clust_5="13000.00000" pt_clust_6="13000.00000" pt_clust_7="13000.00000" pt_clust_8="13000.00000" pt_clust_9="198.12034"></scales>
<clustering>
<clus scale="   90.694">  7  8 -1 -1</clus>
<clus scale="   92.284">  5  6 -1 -1</clus>
<clus scale="  139.335">  2  5  1 -1</clus>
<clus scale="  198.120">  1  9  2 -1</clus>
<clus scale="  198.120">  1  5  2 -1</clus>
</clustering>
</event>
<event>
 9    1  0.3231311E-005  0.9039739E+02  0.7546771E-02  0.1301933E+00
         -1   -1    0    0    0  501 -0.00000000000E+00  0.00000000000E+00  0.32721409344E+03  0.32721409344E+03  0.00000000000E+00 0.  1.
         21   -1    0    0  501  502  0.00000000000E+00 -0.00000000000E+00 -0.44556380847E+02  0.44556380847E+02  0.00000000000E+00 0. -1.
         23    2    1    2    0    0 -0.12377537990E+02 -0.14559483097E+02  0.16495145235E+03  0.18880296602E+03  0.89846515521E+02 0.  0.
         23    2    1    2    0    0 -0.26062606270E+02  0.25386359500E+00  0.10351022802E+03  0.13956448106E+03  0.89914143362E+02 0.  0.
        -13    1    3    3    0    0 -0.43819700162E+02  0.14673992237E+02  0.62576331468E+02  0.77790034262E+02  0.00000000000E+00 0. -1.
         13    1    3    3    0    0  0.31442162172E+02 -0.29233475334E+02  0.10237512088E+03  0.11101293176E+03  0.00000000000E+00 0.  1.
        -13    1    4    4    0    0 -0.16339582115E+02  0.27340570328E+02 -0.28611936469E+00  0.31852324779E+02  0.00000000000E+00 0. -1.
         13    1    4    4    0    0 -0.97230241551E+01 -0.27086706733E+02  0.10379634738E+03  0.10771215628E+03  0.00000000000E+00 0.  1.
         -1    1    1    2    0  502  0.38440144260E+02  0.14305619502E+02  0.14196032230E+02  0.43403027212E+02  0.00000000000E+00 0.  1.
<scales pt_clust_5="13000.00000" pt_clust_6="13000.00000" pt_clust_7="13000.00000" pt_clust_8="13000.00000" pt_clust_9="41.01580"></scales>
<clustering>
<clus scale="   41.016">  2  9  1 -1</clus>
<clus scale="   89.847">  5  6 -1 -1</clus>
<clus scale="   89.914">  7  8 -1 -1</clus>
<clus scale="   90.330">  1  5  2 -1</clus>
<clus scale="   41.016">  2  5  1 -1</clus>
</clustering>
</event>
<event>
 9    1  0.3231311E-005  0.9639902E+02  0.7546771E-02  0.1288719E+00
         -3   -1    0    0    0  501 -0.00000000000E+00  0.00000000000E+00  0.37198596987E+03  0.37198596987E+03  0.00000000000E+00 0.  1.
         21   -1    0    0  501  502  0.00000000000E+00 -0.00000000000E+00 -0.35371900793E+02  0.35371900793E+02  0.00000000000E+00 0. -1.
         23    2    1    2    0    0 -0.29140714108E+02 -0.30789742135E+01  0.16741020343E+03  0.19258640738E+03  0.90579726181E+02 0.  0.
         23    2    1    2    0    0  0.26233600927E+02 -0.26780347513E+02  0.10817196616E+03  0.14676467571E+03  0.91833038403E+02 0.  0.
        -13    1    4    4    0    0  0.50214718398E+02  0.13388384327E+02  0.63785222076E+02  0.82275885495E+02  0.00000000000E+00 0.  1.
         13    1    4    4    0    0 -0.23981117471E+02 -0.40168731840E+02  0.44386744087E+02  0.64488790215E+02  0.00000000000E+00 0. -1.
        -13    1    3    3    0    0 -0.27384152223E+02  0.40239951546E+02  0.11284179304E+03  0.12289188643E+03  0.00000000000E+00 0.  1.
         13    1    3    3    0    0 -0.17565618851E+01 -0.43318925759E+02  0.54568410394E+02  0.69694520958E+02  0.00000000000E+00 0. -1.
         -3    1    1    2    0  502  0.29071131815E+01  0.29859321727E+02  0.61031899477E+02  0.68006787565E+02  0.00000000000E+00 0.  1.
<scales pt_clust_5="13000.00000" pt_clust_6="13000.00000" pt_clust_7="13000.00000" pt_clust_8="13000.00000" pt_clust_9="30.00052"></scales>
<clustering>
<clus scale="   30.001">  2  9  1 -1</clus>
<clus scale="   90.580">  7  8 -1 -1</clus>
<clus scale="   91.833">  5  6 -1 -1</clus>
<clus scale="   95.206">  1  7  2 -1</clus>
<clus scale="   30.001">  2  5  1 -1</clus>
</clustering>
</event>
<event>
 9    1  0.4484409E-005  0.4506682E+03  0.7546771E-02  0.1068961E+00
         21   -1    0    0  501  502  0.00000000000E+00  0.00000000000E+00  0.32356488550E+03  0.32356488550E+03  0.00000000000E+00 0. -1.
          1   -1    0    0  502    0 -0.00000000000E+00 -0.00000000000E+00 -0.16773502121E+04  0.16773502121E+04  0.00000000000E+00 0. -1.
         23    2    1    2    0    0  0.90616367193E+02 -0.48036137247E+02 -0.15847465637E+03  0.20983515074E+03  0.91639387229E+02 0.  0.
         23    2    1    2    0    0 -0.41329198461E+03 -0.24544954507E+03 -0.12583987027E+04  0.13503606489E+04  0.94078921875E+02 0.  0.
        -11    1    4    4    0    0 -0.87686479643E+02 -0.45385550041E+02 -0.16718916626E+03  0.19416741276E+03  0.00000000000E+00 0.  1.
         11    1    4    4    0    0 -0.32560550497E+03 -0.20006399502E+03 -0.10912095364E+04  0.11561932361E+04  0.00000000000E+00 0. -1.
        -11    1    3    3    0    0  0.21089334677E+02  0.17308289137E+02 -0.30399871129E+01  0.27451383055E+02  0.00000000000E+00 0.  1.
         11    1    3    3    0    0  0.69527032516E+02 -0.65344426384E+02 -0.15543466925E+03  0.18238376769E+03  0.00000000000E+00 0. -1.
          1    1    1    2  501    0  0.32267561742E+03  0.29348568231E+03  0.63088032390E+02  0.44071929800E+03  0.00000000000E+00 0. -1.
<scales pt_clust_5="13000.00000" pt_clust_6="13000.00000" pt_clust_7="13000.00000" pt_clust_8="13000.00000" pt_clust_9="440.73912"></scales>
<clustering>
<clus scale="   91.639">  7  8 -1 -1</clus>
<clus scale="   94.079">  5  6 -1 -1</clus>
<clus scale="  137.538">  2  7  1 -1</clus>
<clus scale="  440.739">  1  9  2 -1</clus>
<clus scale="  440.739">  1  5  2 -1</clus>
</clustering>
</event>
<event>
 9    1  0.3231311E-005  0.9817112E+02  0.7546771E-02  0.1285084E+00
          2   -1    0    0  502    0 -0.00000000000E+00  0.00000000000E+00  0.30077840154E+03  0.30077840154E+03  0.00000000000E+00 0. -1.
         21   -1    0    0  501  502  0.00000000000E+00 -0.00000000000E+00 -0.40071398274E+02  0.40071398274E+02  0.00000000000E+00 0.  1.
         23    2    1    2    0    0 -0.40972740665E+02 -0.22654326360E+02  0.14580518202E+03  0.17709818489E+03  0.88952976376E+02 0.  0.
         23    2    1    2    0    0  0.22268290393E+02  0.14642405384E+02  0.10436564406E+03  0.14083746280E+03  0.90734373179E+02 0.  0.
        -13    1    4    4    0    0  0.96495700187E+00  0.27948320381E+02 -0.51873432744E+01  0.28442016180E+02  0.00000000000E+00 0.  1.
         13    1    4    4    0    0  0.21303333391E+02 -0.13305914997E+02  0.10955298734E+03  0.11239544662E+03  0.00000000000E+00 0. -1.
        -13    1    3    3    0    0  0.72683373763E+01  0.28947942997E+02  0.41182065134E+02  0.50860344284E+02  0.00000000000E+00 0.  1.
         13    1    3    3    0    0 -0.48241078041E+02 -0.51602269357E+02  0.10462311689E+03  0.12623784061E+03  0.00000000000E+00 0. -1.
          2    1    1    2  501    0  0.18704450272E+02  0.80119209761E+01  0.10536177180E+02  0.22914152118E+02  0.00000000000E+00 0. -1.
<scales pt_clust_5="13000.00000" pt_clust_6="13000.00000" pt_clust_7="13000.00000" pt_clust_8="13000.00000" pt_clust_9="20.34815"></scales>
<clustering>
<clus scale="   20.348">  2  9  1 -1</clus>
<clus scale="   88.953">  7  8 -1 -1</clus>
<clus scale="   90.734">  5  6 -1 -1</clus>
<clus scale="   96.527">  1  7  2 -1</clus>
<clus scale="   20.348">  2  5  1 -1</clus>
</clustering>
</event>
<event>
 9    1  0.3231311E-005  0.1118558E+03  0.7546771E-02  0.1259001E+00
          1   -1    0    0  502    0 -0.00000000000E+00  0.00000000000E+00  0.51715505098E+03  0.51715505098E+03  0.00000000000E+00 0. -1.
         21   -1    0    0  501  502  0.00000000000E+00 -0.00000000000E+00 -0.37147889348E+03  0.37147889348E+03  0.00000000000E+00 0.  1.
         23    2    1    2    0    0 -0.34366270598E+02  0.46651993043E+02  0.49929024848E+03  0.51084855350E+03  0.91203307889E+02 0.  0.
         23    2    1    2    0    0  0.38931029654E+02 -0.26259838410E+02 -0.24599354686E+03  0.26815483631E+03  0.95859203826E+02 0.  0.
        -11    1    4    4    0    0  0.46851308381E+02  0.64465893580E+01 -0.48227904086E+02  0.67546534655E+02  0.00000000000E+00 0.  1.
         11    1    4    4    0    0 -0.79202787269E+01 -0.32706427767E+02 -0.19776564277E+03  0.20060830165E+03  0.00000000000E+00 0. -1.
        -13    1    3    3    0    0 -0.24800157327E+02  0.74546733039E+02  0.36304377055E+03  0.37144722713E+03  0.00000000000E+00 0. -1.
         13    1    3    3    0    0 -0.95661132711E+01 -0.27894739996E+02  0.13624647793E+03  0.13940132636E+03  0.00000000000E+00 0.  1.
          1    1    1    2  501    0 -0.45647590563E+01 -0.20392154634E+02 -0.10762054412E+03  0.10963055465E+03  0.00000000000E+00 0. -1.
<scales pt_clust_5="13000.00000" pt_clust_6="13000.00000" pt_clust_7="13000.00000" pt_clust_8="13000.00000" pt_clust_9="20.89682"></scales>
<clustering>
<clus scale="   20.897">  2  9  1 -1</clus>
<clus scale="   91.203">  7  8 -1 -1</clus>
<clus scale="   95.859">  5  6 -1 -1</clus>
<clus scale="  107.892">  1  7  2 -1</clus>
<clus scale="   20.897">  2  5  1 -1</clus>
</clustering>
</event>
<event>
 9    1  0.3231311E-005  0.2196995E+03  0.7546771E-02  0.1159054E+00
          2   -1    0    0  502    0 -0.00000000000E+00  0.00000000000E+00  0.77003965596E+03  0.77003965596E+03  0.00000000000E+00 0. -1.
         21   -1    0    0  501  502  0.00000000000E+00 -0.00000000000E+00 -0.28364372471E+03  0.28364372471E+03  0.00000000000E+00 0. -1.
         23    2    1    2    0    0  0.72591734453E+02 -0.33607913766E+02  0.27586504946E+03  0.30131795102E+03  0.91060036881E+02 0.  0.
         23    2    1    2    0    0  0.59550165459E+02 -0.12514604337E+03  0.42412713087E+03  0.45523303787E+03  0.90252652336E+02 0.  0.
        -11    1    4    4    0    0  0.66683426592E+02 -0.50897178090E+02  0.15848568228E+03  0.17931791212E+03  0.00000000000E+00 0.  1.
         11    1    4    4    0    0 -0.71332611333E+01 -0.74248865280E+02  0.26564144859E+03  0.27591512575E+03  0.00000000000E+00 0. -1.
        -13    1    3    3    0    0  0.57780226055E+02 -0.35414933946E+01  0.25576912896E+03  0.26223833439E+03  0.00000000000E+00 0. -1.
         13    1    3    3    0    0  0.14811508399E+02 -0.30066420371E+02  0.20095920502E+02  0.39079616628E+02  0.00000000000E+00 0.  1.
          2    1    1    2  501    0 -0.13214189991E+03  0.15875395714E+03 -0.21359624908E+03  0.29713239177E+03  0.00000000000E+00 0. -1.
<scales pt_clust_5="13000.00000" pt_clust_6="13000.00000" pt_clust_7="13000.00000" pt_clust_8="13000.00000" pt_clust_9="200.30561"></scales>
<clustering>
<clus scale="   90.253">  5  6 -1 -1</clus>
<clus scale="   91.060">  7  8 -1 -1</clus>
<clus scale="  121.206">  1  7  2 -1</clus>
<clus scale="  200.306">  2  9  1 -1</clus>
<clus scale="  200.306">  2  5  1 -1</clus>
</clustering>
</event>
<event>
 9    1  0.3231311E-005  0.1219250E+03  0.7546771E-02  0.1241104E+00
         21   -1    0    0  501  502  0.00000000000E+00  0.00000000000E+00  0.37979783149E+03  0.37979783149E+03  0.00000000000E+00 0.  1.
          1   -1    0    0  502    0 -0.00000000000E+00 -0.00000000000E+00 -0.18450351276E+03  0.18450351276E+03  0.00000000000E+00 0. -1.
         23    2    1    2    0    0 -0.53308150650E+02  0.52657165616E+02 -0.81004785709E+02  0.14129507007E+03  0.88249563743E+02 0.  0.
         23    2    1    2    0    0  0.10152075532E+03 -0.17808739244E+02 -0.22444233603E+01  0.13818112616E+03  0.92007452068E+02 0.  0.
        -11    1    3    3    0    0 -0.76314941122E+02  0.29763660711E+02 -0.67496809813E+02  0.10613983735E+03  0.00000000000E+00 0. -1.
         11    1    3    3    0    0  0.23006790472E+02  0.22893504905E+02 -0.13507975896E+02  0.35155232718E+02  0.00000000000E+00 0.  1.
        -13    1    4    4    0    0  0.33195403575E+02 -0.32059370377E+02 -0.37980857084E+02  0.59768583322E+02  0.00000000000E+00 0.  1.
         13    1    4    4    0    0  0.68325351745E+02  0.14250631133E+02  0.35736433724E+02  0.78412542837E+02  0.00000000000E+00 0. -1.
          1    1    1    2  501    0 -0.48212604670E+02 -0.34848426373E+02  0.27854352780E+03  0.28482514803E+03  0.00000000000E+00 0. -1.
<scales pt_clust_5="13000.00000" pt_clust_6="13000.00000" pt_clust_7="13000.00000" pt_clust_8="13000.00000" pt_clust_9="59.48839"></scales>
<clustering>
<clus scale="   59.488">  1  9  2 -1</clus>
<clus scale="   88.250">  5  6 -1 -1</clus>
<clus scale="   92.007">  7  8 -1 -1</clus>
<clus scale="  119.115">  2  5  1 -1</clus>
<clus scale="   59.488">  1  5  2 -1</clus>
</clustering>
</event>
<event>
 9    1  0.3231311E-005  0.1008945E+03  0.7546771E-02  0.1279872E+00
          2   -1    0    0  502    0 -0.00000000000E+00  0.00000000000E+00  0.23558972308E+03  0.23558972308E+03  0.00000000000E+00 0. -1.
         21   -1    0    0  501  502  0.00000000000E+00 -0.00000000000E+00 -0.79976894123E+02  0.79976894123E+02  0.00000000000E+00 0.  1.
         23    2    1    2    0    0 -0.31157398538E+02 -0.27773938946E+02  0.15653285921E+03  0.18624049149E+03  0.91873878185E+02 0.  0.
         23    2    1    2    0    0  0.15318036014E+02 -0.14798263540E+01 -0.16322276197E+01  0.96051880196E+02  0.94796979956E+02 0.  0.
        -11    1    3    3    0    0 -0.27231908260E+02  0.30063965228E+02  0.45295983351E+02  0.60804152329E+02  0.00000000000E+00 0. -1.
         11    1    3    3    0    0 -0.39254902779E+01 -0.57837904175E+02  0.11123687585E+03  0.12543633916E+03  0.00000000000E+00 0.  1.
        -13    1    4    4    0    0  0.45465374358E+02  0.12753106120E+02  0.24956268032E+02  0.53409337155E+02  0.00000000000E+00 0. -1.
         13    1    4    4    0    0 -0.30147338344E+02 -0.14232932474E+02 -0.26588495651E+02  0.42642543042E+02  0.00000000000E+00 0.  1.
          2    1    1    2  501    0  0.15839362525E+02  0.29253765300E+02  0.71219737239E+00  0.33274245514E+02  0.00000000000E+00 0. -1.
<scales pt_clust_5="13000.00000" pt_clust_6="13000.00000" pt_clust_7="13000.00000" pt_clust_8="13000.00000" pt_clust_9="33.26662"></scales>
<clustering>
<clus scale="   33.267">  2  9  1 -1</clus>
<clus scale="   91.874">  5  6 -1 -1</clus>
<clus scale="   94.797">  7  8 -1 -1</clus>
<clus scale="   98.153">  1  5  2 -1</clus>
<clus scale="   33.267">  2  5  1 -1</clus>
</clustering>
</event>
<event>
 9    1  0.3231311E-005  0.1144833E+03  0.7546771E-02  0.1255016E+00
         21   -1    0    0  501  502  0.00000000000E+00  0.00000000000E+00  0.44565283553E+02  0.44565283553E+02  0.00000000000E+00 0.  1.
          1   -1    0    0  502    0 -0.00000000000E+00 -0.00000000000E+00 -0.54674290482E+03  0.54674290482E+03  0.00000000000E+00 0. -1.
         23    2    1    2    0    0  0.61574053504E+02 -0.21957186579E+02 -0.29524061289E+03  0.31796094559E+03  0.98278488558E+02 0.  0.
         23    2    1    2    0    0 -0.39459071266E+02  0.37056175193E+02 -0.21935578223E+03  0.24382982690E+03  0.91683405610E+02 0.  0.
        -11    1    4    4    0    0 -0.14748615755E+02  0.62271294083E+02 -0.17960265181E+03  0.19066291793E+03  0.00000000000E+00 0. -1.
         11    1    4    4    0    0 -0.24710455512E+02 -0.25215118890E+02 -0.39753130417E+02  0.53166908978E+02  0.00000000000E+00 0.  1.
        -11    1    3    3    0    0 -0.17114337270E+02  0.19925451567E+02 -0.42505137576E+02  0.49966097313E+02  0.00000000000E+00 0. -1.
         11    1    3    3    0    0  0.78688390774E+02 -0.41882638146E+02 -0.25273547531E+03  0.26799484828E+03  0.00000000000E+00 0.  1.
          1    1    1    2  501    0 -0.22114982238E+02 -0.15098988613E+02  0.12418773851E+02  0.29517415884E+02  0.00000000000E+00 0. -1.
<scales pt_clust_5="13000.00000" pt_clust_6="13000.00000" pt_clust_7="13000.00000" pt_clust_8="13000.00000" pt_clust_9="26.77782"></scales>
<clustering>
<clus scale="   26.778">  1  9  2 -1</clus>
<clus scale="   91.683">  5  6 -1 -1</clus>
<clus scale="   98.278">  7  8 -1 -1</clus>
<clus scale="  108.874">  1  5  2 -1</clus>
<clus scale="   26.778">  1  5  2 -1</clus>
</clustering>
</event>
<event>
 9    1  0.3231311E-005  0.1544353E+03  0.7546771E-02  0.1195362E+00
         21   -1    0    0  501  502  0.00000000000E+00  0.00000000000E+00  0.15047230934E+03  0.15047230934E+03  0.00000000000E+00 0. -1.
          1   -1    0    0  502    0 -0.00000000000E+00 -0.00000000000E+00 -0.81233711245E+03  0.81233711245E+03  0.00000000000E+00 0. -1.
         23    2    1    2    0    0 -0.23806014961E+02  0.13188388888E+03 -0.51742973401E+03  0.54215794487E+03  0.90783374338E+02 0.  0.
         23    2    1    2    0    0 -0.12184362218E+02 -0.11098410233E+03 -0.26013451784E+03  0.29769428613E+03  0.92119438610E+02 0.  0.
        -13    1    4    4    0    0 -0.26752442180E+01 -0.51142772739E+02 -0.21789473209E+03  0.22383220146E+03  0.00000000000E+00 0. -1.
         13    1    4    4    0    0 -0.95091179998E+01 -0.59841329588E+02 -0.42239785744E+02  0.73862084670E+02  0.00000000000E+00 0.  1.
        -13    1    3    3    0    0 -0.33638029347E+01  0.13788867206E+03 -0.47585466139E+03  0.49544147971E+03  0.00000000000E+00 0. -1.
         13    1    3    3    0    0 -0.20442212027E+02 -0.60047831837E+01 -0.41575072618E+02  0.46716465157E+02  0.00000000000E+00 0.  1.
          1    1    1    2  501    0  0.35990377179E+02 -0.20899786549E+02  0.11569944874E+03  0.12295719079E+03  0.00000000000E+00 0. -1.
<scales pt_clust_5="13000.00000" pt_clust_6="13000.00000" pt_clust_7="13000.00000" pt_clust_8="13000.00000" pt_clust_9="41.61861"></scales>
<clustering>
<clus scale="   41.619">  1  9  2 -1</clus>
<clus scale="   90.783">  7  8 -1 -1</clus>
<clus scale="   92.119">  5  6 -1 -1</clus>
<clus scale="  153.642">  2  7  1 -1</clus>
<clus scale="   41.619">  1  5  2 -1</clus>
</clustering>
</event>
<event>
 9    1  0.3231311E-005  0.1011347E+03  0.7546771E-02  0.1278265E+00
         21   -1    0    0  501  502  0.00000000000E+00  0.00000000000E+00  0.17403861001E+03  0.17403861001E+03  0.00000000000E+00 0. -1.
          1   -1    0    0  502    0 -0.00000000000E+00 -0.00000000000E+00 -0.14809172969E+03  0.14809172969E+03  0.00000000000E+00 0. -1.
         23    2    1    2    0    0  0.25347271065E+02 -0.48876012226E+02 -0.47647617039E+02  0.11653991756E+03  0.90994001201E+02 0.  0.
         23    2    1    2    0    0 -0.39032623075E+01  0.33862201595E+02 -0.28163529179E+02  0.10051922729E+03  0.90272069469E+02 0.  0.
        -11    1    3    3    0    0 -0.19414537639E+02 -0.38931469616E+02  0.82107324549E+01  0.44271884144E+02  0.00000000000E+00 0.  1.
         11    1    3    3    0    0  0.44761808704E+02 -0.99445426107E+01 -0.55858349494E+02  0.72268033420E+02  0.00000000000E+00 0. -1.
        -13    1    4    4    0    0 -0.16205992136E+02  0.62770834047E+02 -0.22313032635E+02  0.68561528669E+02  0.00000000000E+00 0.  1.
         13    1    4    4    0    0  0.12302729829E+02 -0.28908632452E+02 -0.58504965442E+01  0.31957698624E+02  0.00000000000E+00 0. -1.
          1    1    1    2  501    0 -0.21444008757E+02  0.15013810632E+02  0.10175802654E+03  0.10507119485E+03  0.00000000000E+00 0. -1.
<scales pt_clust_5="13000.00000" pt_clust_6="13000.00000" pt_clust_7="13000.00000" pt_clust_8="13000.00000" pt_clust_9="26.17747"></scales>
<clustering>
<clus scale="   26.177">  1  9  2 -1</clus>
<clus scale="   90.272">  7  8 -1 -1</clus>
<clus scale="   90.994">  5  6 -1 -1</clus>
<clus scale="  100.486">  1  7  2 -1</clus>
<clus scale="   26.177">  1  5  2 -1</clus>
</clustering>
</event>
<event>
 9    1  0.3231311E-005  0.9473437E+02  0.7546771E-02  0.1293231E+00
          1   -1    0    0  502    0 -0.00000000000E+00  0.00000000000E+00  0.19204816664E+03  0.19204816664E+03  0.00000000000E+00 0. -1.
         21   -1    0    0  501  502  0.00000000000E+00 -0.00000000000E+00 -0.23838695553E+03  0.23838695553E+03  0.00000000000E+00 0. -1.
         23    2    1    2    0    0  0.13260383029E+02 -0.19884297085E+02  0.11667336517E+03  0.14958280290E+03  0.90504794094E+02 0.  0.
         23    2    1    2    0    0  0.96984969187E+01  0.83577697090E+01  0.19980180413E+02  0.96065508384E+02  0.93088458655E+02 0.  0.
        -11    1    3    3    0    0  0.28624162440E+02 -0.44682891452E+02  0.36875290411E+02  0.64619582997E+02  0.00000000000E+00 0. -1.
         11    1    3    3    0    0 -0.15363779411E+02  0.24798594367E+02  0.79798074764E+02  0.84963219904E+02  0.00000000000E+00 0.  1.
        -11    1    4    4    0    0 -0.36396006835E+02 -0.55124374202E+01  0.29284158246E+02  0.47038475784E+02  0.00000000000E+00 0. -1.
         11    1    4    4    0    0  0.46094503754E+02  0.13870207129E+02 -0.93039778324E+01  0.49027032601E+02  0.00000000000E+00 0.  1.
          1    1    1    2  501    0 -0.22958879948E+02  0.11526527376E+02 -0.18299233447E+03  0.18478681088E+03  0.00000000000E+00 0. -1.
<scales pt_clust_5="13000.00000" pt_clust_6="13000.00000" pt_clust_7="13000.00000" pt_clust_8="13000.00000" pt_clust_9="25.68990"></scales>
<clustering>
<clus scale="   25.690">  2  9  1 -1</clus>
<clus scale="   90.505">  5  6 -1 -1</clus>
<clus scale="   92.197">  1  5  2 -1</clus>
<clus scale="   93.088">  7  8 -1 -1</clus>
<clus scale="   25.690">  2  5  1 -1</clus>
</clustering>
</event>
<event>
 9    1  0.3231311E-005  0.1452139E+03  0.7546771E-02  0.1208565E+00
          2   -1    0    0  502    0 -0.00000000000E+00  0.00000000000E+00  0.62809262624E+03  0.62809262624E+03  0.00000000000E+00 0. -1.
         21   -1    0    0  501  502  0.00000000000E+00 -0.00000000000E+00 -0.68260611596E+02  0.68260611596E+02  0.00000000000E+00 0. -1.
         23    2    1    2    0    0  0.66640749239E+02  0.31842737364E+02  0.19182276526E+03  0.22912583754E+03  0.10123105638E+03 0.  0.
         23    2    1    2    0    0 -0.83017186632E+02 -0.12410605895E+03  0.31248001547E+03  0.35830447327E+03  0.91892156085E+02 0.  0.
        -11    1    3    3    0    0  0.93041705259E+02  0.30918776707E+02  0.13944125444E+03  0.17045994576E+03  0.00000000000E+00 0. -1.
         11    1    3    3    0    0 -0.26400956020E+02  0.92396065761E+00  0.52381510826E+02  0.58665891781E+02  0.00000000000E+00 0.  1.
        -13    1    4    4    0    0  0.20035934686E+02 -0.16714808209E+02  0.55656555030E+02  0.61469306243E+02  0.00000000000E+00 0.  1.
         13    1    4    4    0    0 -0.10305312132E+03 -0.10739125074E+03  0.25682346044E+03  0.29683516702E+03  0.00000000000E+00 0. -1.
          2    1    1    2  501    0  0.16376437393E+02  0.92263321590E+02  0.55529233909E+02  0.10892292702E+03  0.00000000000E+00 0. -1.
<scales pt_clust_5="13000.00000" pt_clust_6="13000.00000" pt_clust_7="13000.00000" pt_clust_8="13000.00000" pt_clust_9="93.70543"></scales>
<clustering>
<clus scale="   91.892">  7  8 -1 -1</clus>
<clus scale="   93.705">  2  9  1 -1</clus>
<clus scale="  101.231">  5  6 -1 -1</clus>
<clus scale="  138.865">  2  7  1 -1</clus>
<clus scale="   93.705">  2  5  1 -1</clus>
</clustering>
</event>
<event>
 9    1  0.3231311E-005  0.9393197E+02  0.7546771E-02  0.1294106E+00
         21   -1    0    0  501  502  0.00000000000E+00  0.00000000000E+00  0.18890495595E+03  0.18890495595E+03  0.00000000000E+00 0. -1.
          2   -1    0    0  502    0 -0.00000000000E+00 -0.00000000000E+00 -0.37788167764E+03  0.37788167764E+03  0.00000000000E+00 0. -1.
         23    2    1    2    0    0  0.33102842704E+01 -0.76503425533E+01 -0.17984315766E+03  0.20149526992E+03  0.90483682062E+02 0.  0.
         23    2    1    2    0    0 -0.35352882919E+02  0.18934777300E+02 -0.17203365241E+03  0.19888672014E+03  0.91389265041E+02 0.  0.
        -11    1    4    4    0    0 -0.57523203302E+02  0.36628775764E+02 -0.14227805296E+03  0.15777715451E+03  0.00000000000E+00 0. -1.
         11    1    4    4    0    0  0.22170320383E+02 -0.17693998464E+02 -0.29755599455E+02  0.41109565632E+02  0.00000000000E+00 0.  1.
        -13    1    3    3    0    0 -0.10636632134E+02 -0.45978435604E+02 -0.70926903046E+02  0.85192605662E+02  0.00000000000E+00 0.  1.
         13    1    3    3    0    0  0.13946916404E+02  0.38328093051E+02 -0.10891625461E+03  0.11630266426E+03  0.00000000000E+00 0. -1.
          2    1    1    2  501    0  0.32042598648E+02 -0.11284434747E+02  0.16290008838E+03  0.16640464353E+03  0.00000000000E+00 0. -1.
<scales pt_clust_5="13000.00000" pt_clust_6="13000.00000" pt_clust_7="13000.00000" pt_clust_8="13000.00000" pt_clust_9="33.97156"></scales>
<clustering>
<clus scale="   33.972">  1  9  2 -1</clus>
<clus scale="   90.484">  7  8 -1 -1</clus>
<clus scale="   91.389">  5  6 -1 -1</clus>
<clus scale="   93.051">  2  7  1 -1</clus>
<clus scale="   33.972">  1  5  2 -1</clus>
</clustering>
</event>
<event>
 9    1  0.3231311E-005  0.1098592E+03  0.7546771E-02  0.1268453E+00
         21   -1    0    0  501  502  0.00000000000E+00  0.00000000000E+00  0.50391326398E+02  0.50391326398E+02  0.00000000000E+00 0.  1.
          1   -1    0    0  502    0 -0.00000000000E+00 -0.00000000000E+00 -0.48845517126E+03  0.48845517126E+03  0.00000000000E+00 0. -1.
         23    2    1    2    0    0  0.33412845575E+02  0.12627502250E+02 -0.33851852040E+03  0.35158471594E+03  0.87983815346E+02 0.  0.
         23    2    1    2    0    0 -0.15079247874E+02 -0.41498279841E+02 -0.10287467495E+03  0.15290007079E+03  0.10414289200E+03 0.  0.
        -11    1    3    3    0    0  0.46427603057E+02 -0.20429111058E+02 -0.26645490626E+03  0.27123990852E+03  0.00000000000E+00 0.  1.
         11    1    3    3    0    0 -0.13014757482E+02  0.33056613308E+02 -0.72063614150E+02  0.80344807424E+02  0.00000000000E+00 0. -1.
        -11    1    4    4    0    0 -0.33483750896E+01 -0.76277437445E+02 -0.67107871276E+02  0.10165099835E+03  0.00000000000E+00 0.  1.
         11    1    4    4    0    0 -0.11730872785E+02  0.34779157604E+02 -0.35766803678E+02  0.51249072433E+02  0.00000000000E+00 0. -1.
          1    1    1    2  501    0 -0.18333597701E+02  0.28870777591E+02  0.33293504983E+01  0.34361710931E+02  0.00000000000E+00 0. -1.
<scales pt_clust_5="13000.00000" pt_clust_6="13000.00000" pt_clust_7="13000.00000" pt_clust_8="13000.00000" pt_clust_9="34.20004"></scales>
<clustering>
<clus scale="   34.200">  1  9  2 -1</clus>
<clus scale="   87.984">  5  6 -1 -1</clus>
<clus scale="   94.681">  2  5  1 -1</clus>
<clus scale="  104.143">  7  8 -1 -1</clus>
<clus scale="   34.200">  1  5  2 -1</clus>
</clustering>
</event>
<event>
 9    1  0.3231311E-005  0.3421455E+03  0.7546771E-02  0.1066097E+00
          1   -1    0    0  502    0 -0.00000000000E+00  0.00000000000E+00  0.52251960413E+03  0.52251960413E+03  0.00000000000E+00 0. -1.
         21   -1    0    0  501  502  0.00000000000E+00 -0.00000000000E+00 -0.53854577507E+03  0.53854577507E+03  0.00000000000E+00 0. -1.
         23    2    1    2    0    0  0.32915830385E+03  0.74995628985E+02  0.35024686855E+03  0.49489486751E+03  0.90986414363E+02 0.  0.
         23    2    1    2    0    0 -0.28809193121E+03 -0.60223485407E+02 -0.14832243626E+03  0.34389336794E+03  0.98179806436E+02 0.  0.
        -11    1    4    4    0    0 -0.20503535124E+03 -0.87078934418E+02 -0.10080141114E+03  0.24450595200E+03  0.00000000000E+00 0.  1.
         11    1    4    4    0    0 -0.83056579977E+02  0.26855449011E+02 -0.47521025120E+02  0.99387415942E+02  0.00000000000E+00 0. -1.
        -13    1    3    3    0    0  0.20062379686E+03  0.70737084357E+02  0.26829728859E+03  0.34239900414E+03  0.00000000000E+00 0. -1.
         13    1    3    3    0    0  0.12853450699E+03  0.42585446284E+01  0.81949579953E+02  0.15249586337E+03  0.00000000000E+00 0.  1.
          1    1    1    2  501    0 -0.41066372635E+02 -0.14772143578E+02 -0.21795060323E+03  0.22227714375E+03  0.00000000000E+00 0. -1.
<scales pt_clust_5="13000.00000" pt_clust_6="13000.00000" pt_clust_7="13000.00000" pt_clust_8="13000.00000" pt_clust_9="43.64245"></scales>
<clustering>
<clus scale="   43.642">  2  9  1 -1</clus>
<clus scale="   90.986">  7  8 -1 -1</clus>
<clus scale="   98.180">  5  6 -1 -1</clus>
<clus scale="  340.151">  1  7  2 -1</clus>
<clus scale="   43.642">  2  5  1 -1</clus>
</clustering>
</event>
<event>
 9    1  0.3231311E-005  0.1204372E+03  0.7546771E-02  0.1250087E+00
         21   -1    0    0  501  502  0.00000000000E+00  0.00000000000E+00  0.64609084263E+02  0.64609084263E+02  0.00000000000E+00 0.  1.
          1   -1    0    0  502    0 -0.00000000000E+00 -0.00000000000E+00 -0.26219345772E+03  0.26219345772E+03  0.00000000000E+00 0. -1.
         23    2    1    2    0    0 -0.24969865150E+02  0.20088945055E+02 -0.10529445641E+03  0.15872226576E+03  0.11436247295E+03 0.  0.
         23    2    1    2    0    0  0.47751482099E+02  0.46562923120E+00 -0.84277867244E+02  0.13636773080E+03  0.95984260390E+02 0.  0.
        -11    1    3    3    0    0 -0.60505240526E+02  0.44930504895E+02 -0.64674285690E+02  0.99309604927E+02  0.00000000000E+00 0.  1.
         11    1    3    3    0    0  0.35535375376E+02 -0.24841559840E+02 -0.40620170715E+02  0.59412660834E+02  0.00000000000E+00 0. -1.
        -13    1    4    4    0    0  0.45963060143E+02  0.42471396405E+02 -0.64615990248E+02  0.89953591402E+02  0.00000000000E+00 0. -1.
         13    1    4    4    0    0  0.17884219559E+01 -0.42005767174E+02 -0.19661876996E+02  0.46414139397E+02  0.00000000000E+00 0.  1.
          1    1    1    2  501    0 -0.22781616949E+02 -0.20554574286E+02 -0.80120498029E+01  0.31712545419E+02  0.00000000000E+00 0. -1.
<scales pt_clust_5="13000.00000" pt_clust_6="13000.00000" pt_clust_7="13000.00000" pt_clust_8="13000.00000" pt_clust_9="30.68375"></scales>
<clustering>
<clus scale="   30.684">  1  9  2 -1</clus>
<clus scale="   95.984">  7  8 -1 -1</clus>
<clus scale="  103.147">  1  7  2 -1</clus>
<clus scale="  114.362">  5  6 -1 -1</clus>
<clus scale="   30.684">  1  5  2 -1</clus>
</clustering>
</event>
<event>
 9    1  0.3231311E-005  0.1584686E+03  0.7546771E-02  0.1191433E+00
          1   -1    0    0  502    0 -0.00000000000E+00  0.00000000000E+00  0.12643741464E+04  0.12643741464E+04  0.00000000000E+00 0. -1.
         21   -1    0    0  501  502  0.00000000000E+00 -0.00000000000E+00 -0.43919345738E+02  0.43919345738E+02  0.00000000000E+00 0. -1.
         23    2    1    2    0    0 -0.11921964018E+03  0.55080821492E+02  0.82782554728E+03  0.84325429644E+03  0.92387511259E+02 0.  0.
         23    2    1    2    0    0  0.12992011409E+03 -0.61402938989E+01  0.38357912979E+03  0.41413163121E+03  0.86343036222E+02 0.  0.
        -11    1    4    4    0    0  0.80012420792E+02  0.34280928961E+02  0.16832152480E+03  0.18949750732E+03  0.00000000000E+00 0. -1.
         11    1    4    4    0    0  0.49907693301E+02 -0.40421222859E+02  0.21525760499E+03  0.22463412388E+03  0.00000000000E+00 0.  1.
        -13    1    3    3    0    0 -0.46291217126E+01  0.44917580119E+02  0.26007909958E+03  0.26396999036E+03  0.00000000000E+00 0.  1.
         13    1    3    3    0    0 -0.11459051847E+03  0.10163241372E+02  0.56774644770E+03  0.57928430608E+03  0.00000000000E+00 0. -1.
          1    1    1    2  501    0 -0.10700473913E+02 -0.48940527593E+02  0.90501235714E+01  0.50907564464E+02  0.00000000000E+00 0. -1.
<scales pt_clust_5="13000.00000" pt_clust_6="13000.00000" pt_clust_7="13000.00000" pt_clust_8="13000.00000" pt_clust_9="50.09666"></scales>
<clustering>
<clus scale="   50.097">  2  9  1 -1</clus>
<clus scale="   86.343">  5  6 -1 -1</clus>
<clus scale="   92.388">  7  8 -1 -1</clus>
<clus scale="  155.022">  2  5  1 -1</clus>
<clus scale="   50.097">  2  5  1 -1</clus>
</clustering>
</event>
<event>
 9    1  0.3231311E-005  0.1082401E+03  0.7546771E-02  0.1265665E+00
         21   -1    0    0  501  502  0.00000000000E+00  0.00000000000E+00  0.85230937915E+03  0.85230937915E+03  0.00000000000E+00 0.  1.
         -2   -1    0    0    0  501 -0.00000000000E+00 -0.00000000000E+00 -0.31133628324E+02  0.31133628324E+02  0.00000000000E+00 0.  1.
         23    2    1    2    0    0 -0.76237826043E+02 -0.41026680483E+02  0.18144118503E+03  0.21931019026E+03  0.87639382116E+02 0.  0.
         23    2    1    2    0    0  0.22692718095E+02  0.53236710311E+01  0.22185105570E+03  0.24132268077E+03  0.92062176867E+02 0.  0.
        -11    1    3    3    0    0 -0.68966702148E+02 -0.15379086781E+02  0.53521908553E+02  0.88642636527E+02  0.00000000000E+00 0.  1.
         11    1    3    3    0    0 -0.72711238958E+01 -0.25647593702E+02  0.12791927648E+03  0.13066755374E+03  0.00000000000E+00 0. -1.
        -13    1    4    4    0    0  0.48899711784E+02  0.29861448713E+02  0.11286419106E+03  0.12657493257E+03  0.00000000000E+00 0. -1.
         13    1    4    4    0    0 -0.26206993690E+02 -0.24537777682E+02  0.10898686464E+03  0.11474774820E+03  0.00000000000E+00 0.  1.
         -2    1    1    2    0  502  0.53545107949E+02  0.35703009452E+02  0.41788351010E+03  0.42281013645E+03  0.00000000000E+00 0.  1.
<scales pt_clust_5="13000.00000" pt_clust_6="13000.00000" pt_clust_7="13000.00000" pt_clust_8="13000.00000" pt_clust_9="64.35669"></scales>
<clustering>
<clus scale="   64.357">  1  9  2 -1</clus>
<clus scale="   87.639">  5  6 -1 -1</clus>
<clus scale="   92.062">  7  8 -1 -1</clus>
<clus scale="  104.504">  2  5  1 -1</clus>
<clus scale="   64.357">  1  5  2 -1</clus>
</clustering>
</event>
<event>
 9    1  0.3231311E-005  0.1014259E+03  0.7546771E-02  0.1278797E+00
         21   -1    0    0  501  502  0.00000000000E+00  0.00000000000E+00  0.11029843037E+03  0.11029843037E+03  0.00000000000E+00 0.  1.
         -1   -1    0    0    0  501 -0.00000000000E+00 -0.00000000000E+00 -0.41560354394E+03  0.41560354394E+03  0.00000000000E+00 0.  1.
         23    2    1    2    0    0  0.37213133578E+02 -0.66178983164E+01 -0.28628643158E+03  0.30219729798E+03  0.89076776494E+02 0.  0.
         23    2    1    2    0    0 -0.53576742024E+02  0.18174737242E+02 -0.95720604655E+02  0.14442975501E+03  0.92177717580E+02 0.  0.
        -11    1    3    3    0    0  0.48873081624E+02  0.27485554245E+02 -0.12607146015E+03  0.13797842898E+03  0.00000000000E+00 0.  1.
         11    1    3    3    0    0 -0.11659948046E+02 -0.34103452562E+02 -0.16021497143E+03  0.16421886900E+03  0.00000000000E+00 0. -1.
        -11    1    4    4    0    0 -0.60430582783E+02 -0.10059468056E+02 -0.21835248779E+02  0.65037114960E+02  0.00000000000E+00 0. -1.
         11    1    4    4    0    0  0.68538407588E+01  0.28234205298E+02 -0.73885355876E+02  0.79392640055E+02  0.00000000000E+00 0.  1.
         -1    1    1    2    0  502  0.16363608446E+02 -0.11556838926E+02  0.76701922666E+02  0.79274921306E+02  0.00000000000E+00 0.  1.
<scales pt_clust_5="13000.00000" pt_clust_6="13000.00000" pt_clust_7="13000.00000" pt_clust_8="13000.00000" pt_clust_9="20.03318"></scales>
<clustering>
<clus scale="   20.033">  1  9  2 -1</clus>
<clus scale="   89.077">  5  6 -1 -1</clus>
<clus scale="   92.178">  7  8 -1 -1</clus>
<clus scale="   98.616">  2  5  1 -1</clus>
<clus scale="   20.033">  1  5  2 -1</clus>
</clustering>
</event>
<event>
 9    1  0.3231311E-005  0.9318178E+02  0.7546771E-02  0.1295697E+00
         21   -1    0    0  501  502  0.00000000000E+00  0.00000000000E+00  0.74006585344E+02  0.74006585344E+02  0.00000000000E+00 0. -1.
         -1   -1    0    0    0  501 -0.00000000000E+00 -0.00000000000E+00 -0.21917707800E+03  0.21917707800E+03  0.00000000000E+00 0.  1.
         23    2    1    2    0    0  0.61439979819E+01  0.12853989799E+02 -0.12560254558E+03  0.15671321716E+03  0.92628609031E+02 0.  0.
         23    2    1    2    0    0  0.29988026637E+02 -0.34468276935E+00 -0.11964916797E+02  0.97485679482E+02  0.91983139337E+02 0.  0.
        -11    1    3    3    0    0 -0.22653005950E+02 -0.28950774324E+02 -0.26337749746E+02  0.45221489075E+02  0.00000000000E+00 0.  1.
         11    1    3    3    0    0  0.28797003932E+02  0.41804764123E+02 -0.99264795838E+02  0.11149172809E+03  0.00000000000E+00 0. -1.
        -13    1    4    4    0    0  0.43473867571E+02  0.35709488363E+02  0.26222252187E+01  0.56320695892E+02  0.00000000000E+00 0. -1.
         13    1    4    4    0    0 -0.13485840934E+02 -0.36054171132E+02 -0.14587142016E+02  0.41164983589E+02  0.00000000000E+00 0.  1.
         -1    1    1    2    0  502 -0.36132024619E+02 -0.12509307030E+02 -0.76030302750E+01  0.38984766701E+02  0.00000000000E+00 0.  1.
<scales pt_clust_5="13000.00000" pt_clust_6="13000.00000" pt_clust_7="13000.00000" pt_clust_8="13000.00000" pt_clust_9="38.23619"></scales>
<clustering>
<clus scale="   38.236">  1  9  2 -1</clus>
<clus scale="   91.983">  7  8 -1 -1</clus>
<clus scale="   92.540">  1  7  2 -1</clus>
<clus scale="   92.629">  5  6 -1 -1</clus>
<clus scale="   38.236">  1  5  2 -1</clus>
</clustering>
</event>
<event>
 9    1  0.3231311E-005  0.1300964E+03  0.7546771E-02  0.1228300E+00
         21   -1    0    0  501  502  0.00000000000E+00  0.00000000000E+00  0.15374256585E+03  0.15374256585E+03  0.00000000000E+00 0.  1.
          2   -1    0    0  502    0 -0.00000000000E+00 -0.00000000000E+00 -0.33863987457E+03  0.33863987457E+03  0.00000000000E+00 0.  1.
         23    2    1    2    0    0  0.61591194580E+02  0.54060838147E+02 -0.15834468629E+03  0.20184691486E+03  0.94620758248E+02 0.  0.
         23    2    1    2    0    0 -0.83787698207E+02 -0.53872050891E+02 -0.12843764197E+03  0.18626051599E+03  0.90962496142E+02 0.  0.
        -11    1    3    3    0    0  0.67022771984E+02  0.75484739433E+02 -0.11379524262E+03  0.15211625520E+03  0.00000000000E+00 0.  1.
         11    1    3    3    0    0 -0.54315774041E+01 -0.21423901286E+02 -0.44549443669E+02  0.49730659664E+02  0.00000000000E+00 0. -1.
        -13    1    4    4    0    0 -0.72579302377E+02  0.70405304407E+01 -0.71710894066E+02  0.10227304889E+03  0.00000000000E+00 0.  1.
         13    1    4    4    0    0 -0.11208395830E+02 -0.60912581332E+02 -0.56726747907E+02  0.83987467099E+02  0.00000000000E+00 0. -1.
          2    1    1    2  501    0  0.22196503627E+02 -0.18878725579E+00  0.10188501954E+03  0.10427500957E+03  0.00000000000E+00 0.  1.
<scales pt_clust_5="13000.00000" pt_clust_6="13000.00000" pt_clust_7="13000.00000" pt_clust_8="13000.00000" pt_clust_9="22.19731"></scales>
<clustering>
<clus scale="   22.197">  1  9  2 -1</clus>
<clus scale="   90.962">  7  8 -1 -1</clus>
<clus scale="   94.621">  5  6 -1 -1</clus>
<clus scale="  127.460">  1  7  2 -1</clus>
<clus scale="   22.197">  1  5  2 -1</clus>
</clustering>
</event>
<event>
 9    1  0.3231311E-005  0.1174960E+03  0.7546771E-02  0.1247740E+00
         21   -1    0    0  501  502  0.00000000000E+00  0.00000000000E+00  0.96109078464E+02  0.96109078464E+02  0.00000000000E+00 0. -1.
         -3   -1    0    0    0  501 -0.00000000000E+00 -0.00000000000E+00 -0.30969490189E+03  0.30969490189E+03  0.00000000000E+00 0.  1.
         23    2    1    2    0    0  0.54850557474E+02 -0.43434093023E+02 -0.21588835961E+03  0.24463118591E+03  0.91331972584E+02 0.  0.
         23    2    1    2    0    0 -0.62939380352E+02  0.62767015952E+02 -0.22765695883E+02  0.12849853510E+03  0.89958505558E+02 0.  0.
        -13    1    4    4    0    0 -0.48384872709E+02  0.82910819944E+02 -0.18460438950E+01  0.96014102344E+02  0.00000000000E+00 0. -1.
         13    1    4    4    0    0 -0.14554507643E+02 -0.20143803991E+02 -0.20919651988E+02  0.32484432753E+02  0.00000000000E+00 0.  1.
        -13    1    3    3    0    0  0.53078768180E+02  0.98575897061E+01 -0.15263956178E+03  0.16190541537E+03  0.00000000000E+00 0.  1.
         13    1    3    3    0    0  0.17717892940E+01 -0.53291682729E+02 -0.63248797830E+02  0.82725770546E+02  0.00000000000E+00 0. -1.
         -3    1    1    2    0  502  0.80888228783E+01 -0.19332922929E+02  0.25068232066E+02  0.32674259341E+02  0.00000000000E+00 0.  1.
<scales pt_clust_5="13000.00000" pt_clust_6="13000.00000" pt_clust_7="13000.00000" pt_clust_8="13000.00000" pt_clust_9="20.95688"></scales>
<clustering>
<clus scale="   20.957">  1  9  2 -1</clus>
<clus scale="   89.959">  5  6 -1 -1</clus>
<clus scale="   91.332">  7  8 -1 -1</clus>
<clus scale="  116.432">  1  5  2 -1</clus>
<clus scale="   20.957">  1  5  2 -1</clus>
</clustering>
</event>
<event>
 9    1  0.3231311E-005  0.1149598E+03  0.7546771E-02  0.1251773E+00
         -1   -1    0    0    0  501 -0.00000000000E+00  0.00000000000E+00  0.18648205057E+03  0.18648205057E+03  0.00000000000E+00 0.  1.
         21   -1    0    0  501  502  0.00000000000E+00 -0.00000000000E+00 -0.14078273185E+03  0.14078273185E+03  0.00000000000E+00 0. -1.
         23    2    1    2    0    0 -0.19765957935E+02 -0.72082713379E+02  0.11575832663E+03  0.16621147482E+03  0.92949736494E+02 0.  0.
         23    2    1    2    0    0  0.14479715350E+01  0.47960069777E+02 -0.26858282095E+02  0.10829202188E+03  0.93292710174E+02 0.  0.
        -13    1    3    3    0    0 -0.53293628574E+02 -0.62513986363E+02  0.65605899745E+02  0.10513012612E+03  0.00000000000E+00 0.  1.
         13    1    3    3    0    0  0.33527670639E+02 -0.95687270159E+01  0.50152426888E+02  0.61081348691E+02  0.00000000000E+00 0. -1.
        -13    1    4    4    0    0  0.28585810546E+02  0.26235619716E+02 -0.52366860018E+02  0.65174721592E+02  0.00000000000E+00 0. -1.
         13    1    4    4    0    0 -0.27137839011E+02  0.21724450061E+02  0.25508577922E+02  0.43117300290E+02  0.00000000000E+00 0.  1.
         -1    1    1    2    0  502  0.18317986400E+02  0.24122643603E+02 -0.43200725817E+02  0.52761285724E+02  0.00000000000E+00 0.  1.
<scales pt_clust_5="13000.00000" pt_clust_6="13000.00000" pt_clust_7="13000.00000" pt_clust_8="13000.00000" pt_clust_9="30.28945"></scales>
<clustering>
<clus scale="   30.289">  2  9  1 -1</clus>
<clus scale="   92.950">  5  6 -1 -1</clus>
<clus scale="   93.293">  7  8 -1 -1</clus>
<clus scale="  114.682">  1  5  2 -1</clus>
<clus scale="   30.289">  2  5  1 -1</clus>
</clustering>
</event>
<event>
 9    1  0.3231311E-005  0.1725853E+03  0.7546771E-02  0.1175609E+00
          2   -1    0    0  502    0 -0.00000000000E+00  0.00000000000E+00  0.25123006928E+03  0.25123006928E+03  0.00000000000E+00 0. -1.
         21   -1    0    0  501  502  0.00000000000E+00 -0.00000000000E+00 -0.39087920881E+03  0.39087920881E+03  0.00000000000E+00 0.  1.
         23    2    1    2    0    0 -0.47901386026E+02  0.12372501175E+03  0.11446458509E+03  0.19661570871E+03  0.89180571624E+02 0.  0.
         23    2    1    2    0    0  0.11161971529E+03 -0.20746920791E+03 -0.21872493112E+03  0.33447337942E+03  0.92354821074E+02 0.  0.
        -11    1    3    3    0    0 -0.65414458732E+02  0.10788567115E+03  0.11798757531E+03  0.17274095455E+03  0.00000000000E+00 0. -1.
         11    1    3    3    0    0  0.17513072705E+02  0.15839340600E+02 -0.35229902169E+01  0.23874754162E+02  0.00000000000E+00 0.  1.
        -11    1    4    4    0    0  0.53995303316E+02 -0.23136309498E+02 -0.65172861327E+02  0.87739862383E+02  0.00000000000E+00 0.  1.
         11    1    4    4    0    0  0.57624411969E+02 -0.18433289841E+03 -0.15355206980E+03  0.24673351704E+03  0.00000000000E+00 0. -1.
          2    1    1    2  501    0 -0.63718329259E+02  0.83744196160E+02 -0.35388793496E+02  0.11102018996E+03  0.00000000000E+00 0. -1.
<scales pt_clust_5="13000.00000" pt_clust_6="13000.00000" pt_clust_7="13000.00000" pt_clust_8="13000.00000" pt_clust_9="105.22887"></scales>
<clustering>
<clus scale="   89.181">  5  6 -1 -1</clus>
<clus scale="   92.355">  7  8 -1 -1</clus>
<clus scale="  105.229">  2  9  1 -1</clus>
<clus scale="  170.908">  1  5  2 -1</clus>
<clus scale="  105.229">  2  5  1 -1</clus>
</clustering>
</event>
<event>
 9    1  0.3231311E-005  0.1029021E+03  0.7546771E-02  0.1274794E+00
         21   -1    0    0  501  502  0.00000000000E+00  0.00000000000E+00  0.52638849454E+03  0.52638849454E+03  0.00000000000E+00 0. -1.
          2   -1    0    0  502    0 -0.00000000000E+00 -0.00000000000E+00 -0.42200361057E+02  0.42200361057E+02  0.00000000000E+00 0. -1.
         23    2    1    2    0    0 -0.57092621768E+01  0.44966203498E+02  0.53689509074E+02  0.11765344267E+03  0.94367441716E+02 0.  0.
         23    2    1    2    0    0 -0.21458822662E+02 -0.27521365966E+02  0.28555087779E+03  0.30243532390E+03  0.93326923670E+02 0.  0.
        -11    1    4    4    0    0  0.32465224529E+02 -0.80265830282E+01  0.51071823712E+02  0.61047096705E+02  0.00000000000E+00 0.  1.
         11    1    4    4    0    0 -0.53924047192E+02 -0.19494782937E+02  0.23447905408E+03  0.24138822720E+03  0.00000000000E+00 0. -1.
        -13    1    3    3    0    0 -0.22728832176E+02  0.27181276421E+02  0.76365197399E+02  0.84184707482E+02  0.00000000000E+00 0.  1.
         13    1    3    3    0    0  0.17019570000E+02  0.17784927077E+02 -0.22675688326E+02  0.33468735189E+02  0.00000000000E+00 0. -1.
          2    1    1    2  501    0  0.27168084839E+02 -0.17444837532E+02  0.14494774662E+03  0.14850008902E+03  0.00000000000E+00 0. -1.
<scales pt_clust_5="13000.00000" pt_clust_6="13000.00000" pt_clust_7="13000.00000" pt_clust_8="13000.00000" pt_clust_9="32.28664"></scales>
<clustering>
<clus scale="   32.287">  1  9  2 -1</clus>
<clus scale="   93.327">  5  6 -1 -1</clus>
<clus scale="   94.367">  7  8 -1 -1</clus>
<clus scale="  101.949">  1  5  2 -1</clus>
<clus scale="   32.287">  1  5  2 -1</clus>
</clustering>
</event>
<event>
 9    1  0.3231311E-005  0.1398276E+03  0.7546771E-02  0.1213831E+00
         21   -1    0    0  501  502  0.00000000000E+00  0.00000000000E+00  0.43505727961E+03  0.43505727961E+03  0.00000000000E+00 0.  1.
          2   -1    0    0  502    0 -0.00000000000E+00 -0.00000000000E+00 -0.11993495905E+03  0.11993495905E+03  0.00000000000E+00 0. -1.
         23    2    1    2    0    0  0.96208252219E+02  0.49202952672E+02 -0.44932668373E+02  0.14809803736E+03  0.90758611909E+02 0.  0.
         23    2    1    2    0    0 -0.99232833082E+02 -0.23636773425E+02  0.18224934600E+03  0.22723445548E+03  0.89525535028E+02 0.  0.
        -11    1    4    4    0    0 -0.69345727044E+02 -0.23624373429E+02  0.18322855935E+03  0.19733130983E+03  0.00000000000E+00 0.  1.
         11    1    4    4    0    0 -0.29887106037E+02 -0.12399995965E-01 -0.97921334821E+00  0.29903145651E+02  0.00000000000E+00 0. -1.
        -13    1    3    3    0    0  0.71596632035E+02  0.62989110365E+02 -0.63279904433E+02  0.11444672144E+03  0.00000000000E+00 0. -1.
         13    1    3    3    0    0  0.24611620184E+02 -0.13786157693E+02  0.18347236060E+02  0.33651315918E+02  0.00000000000E+00 0.  1.
          2    1    1    2  501    0  0.30245808627E+01 -0.25566179247E+02  0.17780564293E+03  0.17965974582E+03  0.00000000000E+00 0. -1.
<scales pt_clust_5="13000.00000" pt_clust_6="13000.00000" pt_clust_7="13000.00000" pt_clust_8="13000.00000" pt_clust_9="25.74447"></scales>
<clustering>
<clus scale="   25.744">  1  9  2 -1</clus>
<clus scale="   89.526">  5  6 -1 -1</clus>
<clus scale="   90.759">  7  8 -1 -1</clus>
<clus scale="  139.030">  1  5  2 -1</clus>
<clus scale="   25.744">  1  5  2 -1</clus>
</clustering>
</event>
<event>
 9    1  0.3231311E-005  0.1118439E+03  0.7546771E-02  0.1257857E+00
          3   -1    0    0  502    0 -0.00000000000E+00  0.00000000000E+00  0.15544042634E+03  0.15544042634E+03  0.00000000000E+00 0. -1.
         21   -1    0    0  501  502  0.00000000000E+00 -0.00000000000E+00 -0.12539504051E+03  0.12539504051E+03  0.00000000000E+00 0.  1.
         23    2    1    2    0    0 -0.58952126278E+01  0.70501561371E+02  0.59307583389E+02  0.12939000304E+03  0.90659581686E+02 0.  0.
         23    2    1    2    0    0  0.22550243498E+02 -0.55389094444E+02  0.85521814009E+01  0.10744882796E+03  0.88857445146E+02 0.  0.
        -11    1    4    4    0    0 -0.29242446361E+01 -0.54083193181E+02 -0.29471876652E+02  0.61661450718E+02  0.00000000000E+00 0.  1.
         11    1    4    4    0    0  0.25474488134E+02 -0.13059012632E+01  0.38024058053E+02  0.45787377241E+02  0.00000000000E+00 0. -1.
        -11    1    3    3    0    0  0.32941073043E+02  0.66158806567E+02  0.49963157610E+02  0.89209971965E+02  0.00000000000E+00 0.  1.
         11    1    3    3    0    0 -0.38836285671E+02  0.43427548040E+01  0.93444257795E+01  0.40180031075E+02  0.00000000000E+00 0. -1.
          3    1    1    2  501    0 -0.16655030870E+02 -0.15112466927E+02 -0.37814378957E+02  0.43996635847E+02  0.00000000000E+00 0. -1.
<scales pt_clust_5="13000.00000" pt_clust_6="13000.00000" pt_clust_7="13000.00000" pt_clust_8="13000.00000" pt_clust_9="22.48948"></scales>
<clustering>
<clus scale="   22.489">  2  9  1 -1</clus>
<clus scale="   88.857">  5  6 -1 -1</clus>
<clus scale="   90.660">  7  8 -1 -1</clus>
<clus scale="  110.388">  2  5  1 -1</clus>
<clus scale="   22.489">  2  5  1 -1</clus>
</clustering>
</event>
<event>
 9    1  0.3231311E-005  0.9770765E+02  0.7546771E-02  0.1286389E+00
         21   -1    0    0  501  502  0.00000000000E+00  0.00000000000E+00  0.58827602402E+03  0.58827602402E+03  0.00000000000E+00 0.  1.
          3   -1    0    0  502    0 -0.00000000000E+00 -0.00000000000E+00 -0.21935397556E+02  0.21935397556E+02  0.00000000000E+00 0. -1.
         23    2    1    2    0    0 -0.17690904589E+02  0.16450620583E+02  0.17836388834E+03  0.20250063697E+03  0.92785991866E+02 0.  0.
         23    2    1    2    0    0  0.20212764878E+02 -0.38833071575E+02  0.34274245586E+03  0.35717887208E+03  0.90486420522E+02 0.  0.
        -13    1    3    3    0    0  0.16496318434E+02  0.34273225776E+02  0.14970530152E+03  0.15446183939E+03  0.00000000000E+00 0.  1.
         13    1    3    3    0    0 -0.34187223023E+02 -0.17822605193E+02  0.28658586828E+02  0.48038797579E+02  0.00000000000E+00 0. -1.
        -13    1    4    4    0    0  0.48683548071E+02 -0.27881430203E+01  0.23580100890E+03  0.24079031832E+03  0.00000000000E+00 0.  1.
         13    1    4    4    0    0 -0.28470783193E+02 -0.36044928555E+02  0.10694144695E+03  0.11638855376E+03  0.00000000000E+00 0. -1.
          3    1    1    2  501    0 -0.25218602886E+01  0.22382450992E+02  0.45234282266E+02  0.50531912529E+02  0.00000000000E+00 0. -1.
<scales pt_clust_5="13000.00000" pt_clust_6="13000.00000" pt_clust_7="13000.00000" pt_clust_8="13000.00000" pt_clust_9="22.52408"></scales>
<clustering>
<clus scale="   22.524">  1  9  2 -1</clus>
<clus scale="   90.486">  7  8 -1 -1</clus>
<clus scale="   92.786">  5  6 -1 -1</clus>
<clus scale="   95.527">  1  7  2 -1</clus>
<clus scale="   22.524">  1  5  2 -1</clus>
</clustering>
</event>
<event>
 9    1  0.3231311E-005  0.1139030E+03  0.7546771E-02  0.1253742E+00
          2   -1    0    0  502    0 -0.00000000000E+00  0.00000000000E+00  0.71067968091E+03  0.71067968091E+03  0.00000000000E+00 0. -1.
         21   -1    0    0  501  502  0.00000000000E+00 -0.00000000000E+00 -0.69038695510E+02  0.69038695510E+02  0.00000000000E+00 0. -1.
         23    2    1    2    0    0 -0.12043389585E+02 -0.84326119283E+02  0.53358240730E+03  0.54791631793E+03  0.90808416216E+02 0.  0.
         23    2    1    2    0    0 -0.45463091981E+02  0.16605680422E+02  0.97771708373E+02  0.14236564000E+03  0.91465988982E+02 0.  0.
        -13    1    4    4    0    0  0.14635514391E+02  0.36848474216E+02  0.43923501271E+02  0.59171634230E+02  0.00000000000E+00 0.  1.
         13    1    4    4    0    0 -0.60098606372E+02 -0.20242793795E+02  0.53848207102E+02  0.83194005773E+02  0.00000000000E+00 0. -1.
        -13    1    3    3    0    0  0.31140106991E+02 -0.63740193423E+02  0.39472664877E+03  0.40105067731E+03  0.00000000000E+00 0. -1.
         13    1    3    3    0    0 -0.43183496576E+02 -0.20585925860E+02  0.13885575853E+03  0.14686564062E+03  0.00000000000E+00 0.  1.
          2    1    1    2  501    0  0.57506481566E+02  0.67720438861E+02  0.10286869727E+02  0.89436418479E+02  0.00000000000E+00 0. -1.
<scales pt_clust_5="13000.00000" pt_clust_6="13000.00000" pt_clust_7="13000.00000" pt_clust_8="13000.00000" pt_clust_9="88.84286"></scales>
<clustering>
<clus scale="   88.843">  2  9  1 -1</clus>
<clus scale="   90.808">  7  8 -1 -1</clus>
<clus scale="   91.466">  5  6 -1 -1</clus>
<clus scale="  113.376">  1  7  2 -1</clus>
<clus scale="   88.843">  2  5  1 -1</clus>
</clustering>
</event>
<event>
 9    1  0.3231311E-005  0.2157865E+03  0.7546771E-02  0.1137529E+00
          1   -1    0    0  502    0 -0.00000000000E+00  0.00000000000E+00  0.28216755623E+03  0.28216755623E+03  0.00000000000E+00 0. -1.
         21   -1    0    0  501  502  0.00000000000E+00 -0.00000000000E+00 -0.34843735407E+03  0.34843735407E+03  0.00000000000E+00 0. -1.
         23    2    1    2    0    0  0.48013245528E+02  0.21513978139E+03  0.94342031753E+02  0.25898314431E+03  0.97884895670E+02 0.  0.
         23    2    1    2    0    0 -0.10060511373E+03 -0.13379700564E+03 -0.86565899280E+01  0.19141925039E+03  0.92430326426E+02 0.  0.
        -11    1    4    4    0    0  0.14167784408E+02 -0.18203720074E+02 -0.16460134592E+02  0.28337917538E+02  0.00000000000E+00 0. -1.
         11    1    4    4    0    0 -0.11477289814E+03 -0.11559328556E+03  0.78035446643E+01  0.16308133285E+03  0.00000000000E+00 0.  1.
        -11    1    3    3    0    0 -0.10364331993E+02  0.16151445163E+03  0.60333695803E+02  0.17272664042E+03  0.00000000000E+00 0. -1.
         11    1    3    3    0    0  0.58377577522E+02  0.53625329763E+02  0.34008335950E+02  0.86256503892E+02  0.00000000000E+00 0.  1.
          1    1    1    2  501    0  0.52591868205E+02 -0.81342775754E+02 -0.15195523966E+03  0.18020251560E+03  0.00000000000E+00 0. -1.
<scales pt_clust_5="13000.00000" pt_clust_6="13000.00000" pt_clust_7="13000.00000" pt_clust_8="13000.00000" pt_clust_9="96.86357"></scales>
<clustering>
<clus scale="   92.430">  5  6 -1 -1</clus>
<clus scale="   96.864">  2  9  1 -1</clus>
<clus scale="   97.885">  7  8 -1 -1</clus>
<clus scale="  213.368">  2  5  1 -1</clus>
<clus scale="   96.864">  2  5  1 -1</clus>
</clustering>
</event>
<event>
 9    1  0.3231311E-005  0.1099372E+03  0.7546771E-02  0.1260873E+00
          2   -1    0    0  502    0 -0.00000000000E+00  0.00000000000E+00  0.44448846276E+03  0.44448846276E+03  0.00000000000E+00 0. -1.
         21   -1    0    0  501  502  0.00000000000E+00 -0.00000000000E+00 -0.12960516022E+03  0.12960516022E+03  0.00000000000E+00 0. -1.
         23    2    1    2    0    0  0.67681026825E+02 -0.75430226703E+01  0.36059085451E+03  0.37815326043E+03  0.91304465595E+02 0.  0.
         23    2    1    2    0    0 -0.35736518078E+02 -0.21528373204E+01  0.38821740074E+02  0.10505767688E+03  0.90819901648E+02 0.  0.
        -11    1    4    4    0    0 -0.10468895858E+02 -0.17728067567E+02 -0.26353114056E+02  0.33442021180E+02  0.00000000000E+00 0.  1.
         11    1    4    4    0    0 -0.25267622220E+02  0.15575230246E+02  0.65174854130E+02  0.71615655696E+02  0.00000000000E+00 0. -1.
        -11    1    3    3    0    0  0.64041515775E+01 -0.40894726571E+02  0.17643180345E+03  0.18122244091E+03  0.00000000000E+00 0.  1.
         11    1    3    3    0    0  0.61276875248E+02  0.33351703901E+02  0.18415905106E+03  0.19693081953E+03  0.00000000000E+00 0. -1.
          2    1    1    2  501    0 -0.31944508747E+02  0.96958599907E+01 -0.84529292052E+02  0.90882685671E+02  0.00000000000E+00 0. -1.
<scales pt_clust_5="13000.00000" pt_clust_6="13000.00000" pt_clust_7="13000.00000" pt_clust_8="13000.00000" pt_clust_9="33.38355"></scales>
<clustering>
<clus scale="   33.384">  2  9  1 -1</clus>
<clus scale="   90.820">  5  6 -1 -1</clus>
<clus scale="   91.304">  7  8 -1 -1</clus>
<clus scale="  109.535">  2  5  1 -1</clus>
<clus scale="   33.384">  2  5  1 -1</clus>
</clustering>
</event>
<event>
 9    1  0.3231311E-005  0.1101290E+03  0.7546771E-02  0.1266150E+00
         21   -1    0    0  501  502  0.00000000000E+00  0.00000000000E+00  0.90511556517E+02  0.90511556517E+02  0.00000000000E+00 0.  1.
         -2   -1    0    0    0  501 -0.00000000000E+00 -0.00000000000E+00 -0.46887412337E+03  0.46887412337E+03  0.00000000000E+00 0.  1.
         23    2    1    2    0    0  0.41452814306E+02 -0.25847262652E+02 -0.29071335963E+03  0.31248488761E+03  0.10366354574E+03 0.  0.
         23    2    1    2    0    0 -0.29628010934E+02 -0.18091130760E+02 -0.14439601666E+03  0.17416422121E+03  0.90982736158E+02 0.  0.
        -11    1    3    3    0    0 -0.27125039779E+02  0.11759243405E+01 -0.25603592985E+02  0.37318823063E+02  0.00000000000E+00 0. -1.
         11    1    3    3    0    0  0.68577854086E+02 -0.27023186993E+02 -0.26510976664E+03  0.27516606454E+03  0.00000000000E+00 0.  1.
        -13    1    4    4    0    0  0.93363981946E+01 -0.40276787582E+02 -0.11042327719E+03  0.11790966073E+03  0.00000000000E+00 0.  1.
         13    1    4    4    0    0 -0.38964409129E+02  0.22185656822E+02 -0.33972739470E+02  0.56254560477E+02  0.00000000000E+00 0. -1.
         -2    1    1    2    0  502 -0.11824803372E+02  0.43938393413E+02  0.56746809433E+02  0.72736571072E+02  0.00000000000E+00 0.  1.
<scales pt_clust_5="13000.00000" pt_clust_6="13000.00000" pt_clust_7="13000.00000" pt_clust_8="13000.00000" pt_clust_9="45.50174"></scales>
<clustering>
<clus scale="   45.502">  1  9  2 -1</clus>
<clus scale="   90.983">  7  8 -1 -1</clus>
<clus scale="   98.286">  1  7  2 -1</clus>
<clus scale="  103.664">  5  6 -1 -1</clus>
<clus scale="   45.502">  1  5  2 -1</clus>
</clustering>
</event>
<event>
 9    1  0.3231311E-005  0.1089979E+03  0.7546771E-02  0.1263060E+00
          1   -1    0    0  502    0 -0.00000000000E+00  0.00000000000E+00  0.57620562239E+02  0.57620562239E+02  0.00000000000E+00 0. -1.
         21   -1    0    0  501  502  0.00000000000E+00 -0.00000000000E+00 -0.32770457807E+03  0.32770457807E+03  0.00000000000E+00 0.  1.
         23    2    1    2    0    0 -0.67857067000E+02 -0.34881013187E+01 -0.55137793461E+02  0.12666859985E+03  0.91586077154E+02 0.  0.
         23    2    1    2    0    0  0.38525432655E+02 -0.76686101668E+01 -0.20219400922E+03  0.22478271686E+03  0.90010198825E+02 0.  0.
        -11    1    3    3    0    0  0.17676833185E+02  0.17850228287E+02 -0.18520632871E+02  0.31210814204E+02  0.00000000000E+00 0. -1.
         11    1    3    3    0    0 -0.85533900186E+02 -0.21338329606E+02 -0.36617160591E+02  0.95457785650E+02  0.00000000000E+00 0.  1.
        -13    1    4    4    0    0 -0.17168201182E+02 -0.15119245039E+02 -0.10775205572E+02  0.25287225184E+02  0.00000000000E+00 0.  1.
         13    1    4    4    0    0  0.55693633838E+02  0.74506348724E+01 -0.19141880365E+03  0.19949549168E+03  0.00000000000E+00 0. -1.
          1    1    1    2  501    0  0.29331634345E+02  0.11156711485E+02 -0.12752213149E+02  0.33873823592E+02  0.00000000000E+00 0. -1.
<scales pt_clust_5="13000.00000" pt_clust_6="13000.00000" pt_clust_7="13000.00000" pt_clust_8="13000.00000" pt_clust_9="31.38181"></scales>
<clustering>
<clus scale="   31.382">  2  9  1 -1</clus>
<clus scale="   90.010">  7  8 -1 -1</clus>
<clus scale="   91.586">  5  6 -1 -1</clus>
<clus scale="  107.677">  2  7  1 -1</clus>
<clus scale="   31.382">  2  5  1 -1</clus>
</clustering>
</event>
<event>
 9    1  0.3231311E-005  0.2123931E+03  0.7546771E-02  0.1148093E+00
         21   -1    0    0  501  502  0.00000000000E+00  0.00000000000E+00  0.51213986714E+02  0.51213986714E+02  0.00000000000E+00 0.  1.
          2   -1    0    0  502    0 -0.00000000000E+00 -0.00000000000E+00 -0.18614998421E+04  0.18614998421E+04  0.00000000000E+00 0. -1.
         23    2    1    2    0    0 -0.13879097590E+03 -0.51262657977E+02 -0.35955935697E+03  0.39929525933E+03  0.90900923251E+02 0.  0.
         23    2    1    2    0    0 -0.18174061831E+02 -0.14622354313E+03 -0.66875741167E+03  0.69176506871E+03  0.97932699015E+02 0.  0.
        -11    1    4    4    0    0 -0.38865736397E+02 -0.15073682147E+03 -0.58168136191E+03  0.60215059711E+03  0.00000000000E+00 0.  1.
         11    1    4    4    0    0  0.20691674566E+02  0.45132783381E+01 -0.87076049767E+02  0.89614471604E+02  0.00000000000E+00 0. -1.
        -13    1    3    3    0    0 -0.81280090012E+02 -0.74538314405E+02 -0.25297026512E+03  0.27596443318E+03  0.00000000000E+00 0.  1.
         13    1    3    3    0    0 -0.57510885890E+02  0.23275656428E+02 -0.10658909185E+03  0.12333082615E+03  0.00000000000E+00 0. -1.
          2    1    1    2  501    0  0.15696503773E+03  0.19748620110E+03 -0.78196908675E+03  0.82165350077E+03  0.00000000000E+00 0. -1.
<scales pt_clust_5="13000.00000" pt_clust_6="13000.00000" pt_clust_7="13000.00000" pt_clust_8="13000.00000" pt_clust_9="188.46769"></scales>
<clustering>
<clus scale="   90.901">  7  8 -1 -1</clus>
<clus scale="   97.933">  5  6 -1 -1</clus>
<clus scale="  173.649">  2  7  1 -1</clus>
<clus scale="  188.468">  1  9  2 -1</clus>
<clus scale="  188.468">  1  5  2 -1</clus>
</clustering>
</event>
<event>
 9    1  0.3231311E-005  0.1655194E+03  0.7546771E-02  0.1186597E+00
          1   -1    0    0  502    0 -0.00000000000E+00  0.00000000000E+00  0.43419865657E+03  0.43419865657E+03  0.00000000000E+00 0. -1.
         21   -1    0    0  501  502  0.00000000000E+00 -0.00000000000E+00 -0.10689189933E+03  0.10689189933E+03  0.00000000000E+00 0. -1.
         23    2    1    2    0    0 -0.60198453693E+02 -0.11542912864E+03  0.31162264971E+03  0.34839514763E+03  0.85573158833E+02 0.  0.
         23    2    1    2    0    0  0.54209615499E+02  0.93580214245E+02  0.41071825083E+02  0.15866927940E+03  0.10859607037E+03 0.  0.
        -11    1    4    4    0    0  0.40048052798E+02  0.11166950242E+03  0.86704441859E+01  0.11894999330E+03  0.00000000000E+00 0.  1.
         11    1    4    4    0    0  0.14161562701E+02 -0.18089288172E+02  0.32401380898E+02  0.39719286106E+02  0.00000000000E+00 0. -1.
        -13    1    3    3    0    0 -0.22556106908E+02  0.10081533228E+02  0.52712108530E+02  0.58214960764E+02  0.00000000000E+00 0.  1.
         13    1    3    3    0    0 -0.37642346785E+02 -0.12551066187E+03  0.25891054118E+03  0.29018018687E+03  0.00000000000E+00 0. -1.
          1    1    1    2  501    0  0.59888381942E+01  0.21848914399E+02 -0.25387717550E+02  0.34026128868E+02  0.00000000000E+00 0. -1.
<scales pt_clust_5="13000.00000" pt_clust_6="13000.00000" pt_clust_7="13000.00000" pt_clust_8="13000.00000" pt_clust_9="22.65483"></scales>
<clustering>
<clus scale="   22.655">  2  9  1 -1</clus>
<clus scale="   85.573">  7  8 -1 -1</clus>
<clus scale="  108.596">  5  6 -1 -1</clus>
<clus scale="  151.414">  1  7  2 -1</clus>
<clus scale="   22.655">  2  5  1 -1</clus>
</clustering>
</event>
<event>
 9    1  0.3231311E-005  0.1026501E+03  0.7546771E-02  0.1275556E+00
         21   -1    0    0  501  502  0.00000000000E+00  0.00000000000E+00  0.78641277494E+03  0.78641277494E+03  0.00000000000E+00 0. -1.
          1   -1    0    0  502    0 -0.00000000000E+00 -0.00000000000E+00 -0.92727230089E+02  0.92727230089E+02  0.00000000000E+00 0. -1.
         23    2    1    2    0    0 -0.46608245386E+02 -0.20891791156E+01 -0.53976365698E+02  0.11479986978E+03  0.89938138958E+02 0.  0.
         23    2    1    2    0    0  0.39889742350E+02  0.43974586072E+02  0.42001411389E+03  0.43395762322E+03  0.91555486584E+02 0.  0.
        -13    1    3    3    0    0  0.18520719874E+01 -0.22218711115E+02  0.15921293207E+02  0.27396877042E+02  0.00000000000E+00 0.  1.
         13    1    3    3    0    0 -0.48460317374E+02  0.20129531999E+02 -0.69897658905E+02  0.87402992734E+02  0.00000000000E+00 0. -1.
        -13    1    4    4    0    0 -0.26113323867E+02  0.19550141452E+02  0.74186916927E+02  0.81042040678E+02  0.00000000000E+00 0. -1.
         13    1    4    4    0    0  0.66003066217E+02  0.24424444619E+02  0.34582719696E+03  0.35291558255E+03  0.00000000000E+00 0.  1.
          1    1    1    2  501    0  0.67185030359E+01 -0.41885406956E+02  0.32764779666E+03  0.33038251203E+03  0.00000000000E+00 0. -1.
<scales pt_clust_5="13000.00000" pt_clust_6="13000.00000" pt_clust_7="13000.00000" pt_clust_8="13000.00000" pt_clust_9="42.42082"></scales>
<clustering>
<clus scale="   42.421">  1  9  2 -1</clus>
<clus scale="   89.938">  5  6 -1 -1</clus>
<clus scale="   91.555">  7  8 -1 -1</clus>
<clus scale="  101.210">  2  5  1 -1</clus>
<clus scale="   42.421">  1  5  2 -1</clus>
</clustering>
</event>
<event>
 9    1  0.3231311E-005  0.1384063E+03  0.7546771E-02  0.1217815E+00
          2   -1    0    0  502    0 -0.00000000000E+00  0.00000000000E+00  0.59626171878E+03  0.59626171878E+03  0.00000000000E+00 0. -1.
         21   -1    0    0  501  502  0.00000000000E+00 -0.00000000000E+00 -0.51229892368E+02  0.51229892368E+02  0.00000000000E+00 0.  1.
         23    2    1    2    0    0 -0.15427406935E+02 -0.83871040679E+02  0.24437839706E+03  0.27644713825E+03  0.97107481418E+02 0.  0.
         23    2    1    2    0    0  0.15512427653E+02  0.12483051909E+03  0.14800258153E+03  0.21299395110E+03  0.87397741151E+02 0.  0.
        -11    1    4    4    0    0  0.38542759785E+02  0.27409025575E+02  0.76628341672E+02  0.90048330147E+02  0.00000000000E+00 0. -1.
         11    1    4    4    0    0 -0.23030332131E+02  0.97421493512E+02  0.71374239854E+02  0.12294562095E+03  0.00000000000E+00 0.  1.
        -13    1    3    3    0    0  0.28589523527E+02  0.45654691995E+01  0.39260778780E+02  0.48781278324E+02  0.00000000000E+00 0.  1.
         13    1    3    3    0    0 -0.44016930462E+02 -0.88436509878E+02  0.20511761828E+03  0.22766585993E+03  0.00000000000E+00 0. -1.
          2    1    1    2  501    0 -0.85020718400E-01 -0.40959478409E+02  0.15265084782E+03  0.15805052180E+03  0.00000000000E+00 0. -1.
<scales pt_clust_5="13000.00000" pt_clust_6="13000.00000" pt_clust_7="13000.00000" pt_clust_8="13000.00000" pt_clust_9="40.95959"></scales>
<clustering>
<clus scale="   40.960">  2  9  1 -1</clus>
<clus scale="   87.398">  5  6 -1 -1</clus>
<clus scale="   97.107">  7  8 -1 -1</clus>
<clus scale="  131.776">  2  5  1 -1</clus>
<clus scale="   40.960">  2  5  1 -1</clus>
</clustering>
</event>
<event>
 9    1  0.3231311E-005  0.9596357E+02  0.7546771E-02  0.1289661E+00
         21   -1    0    0  501  502  0.00000000000E+00  0.00000000000E+00  0.11219966921E+03  0.11219966921E+03  0.00000000000E+00 0.  1.
         -1   -1    0    0    0  501 -0.00000000000E+00 -0.00000000000E+00 -0.35773572056E+03  0.35773572056E+03  0.00000000000E+00 0.  1.
         23    2    1    2    0    0  0.47956478720E+02 -0.25823712250E+02 -0.23233478955E+03  0.25497166404E+03  0.89802043731E+02 0.  0.
         23    2    1    2    0    0 -0.47024363053E+01 -0.22152149726E+02 -0.80403053225E+02  0.12175065642E+03  0.88576186004E+02 0.  0.
        -13    1    3    3    0    0  0.17289525402E+02  0.31801693148E+02 -0.11668900067E+03  0.12217445826E+03  0.00000000000E+00 0. -1.
         13    1    3    3    0    0  0.30666953318E+02 -0.57625405398E+02 -0.11564578889E+03  0.13279720577E+03  0.00000000000E+00 0.  1.
        -13    1    4    4    0    0 -0.17930536943E+02 -0.53544896195E+02 -0.58179913844E+02  0.81076892136E+02  0.00000000000E+00 0. -1.
         13    1    4    4    0    0  0.13228100637E+02  0.31392746469E+02 -0.22223139381E+02  0.40673764287E+02  0.00000000000E+00 0.  1.
         -1    1    1    2    0  502 -0.43254042414E+02  0.47975861976E+02  0.67201791430E+02  0.93213069303E+02  0.00000000000E+00 0.  1.
<scales pt_clust_5="13000.00000" pt_clust_6="13000.00000" pt_clust_7="13000.00000" pt_clust_8="13000.00000" pt_clust_9="64.59563"></scales>
<clustering>
<clus scale="   64.596">  1  9  2 -1</clus>
<clus scale="   88.576">  7  8 -1 -1</clus>
<clus scale="   89.802">  5  6 -1 -1</clus>
<clus scale="   94.817">  1  7  2 -1</clus>
<clus scale="   64.596">  1  5  2 -1</clus>
</clustering>
</event>
<event>
 9    1  0.3231311E-005  0.1141242E+03  0.7546771E-02  0.1254136E+00
          1   -1    0    0  502    0 -0.00000000000E+00  0.00000000000E+00  0.48993580162E+03  0.48993580162E+03  0.00000000000E+00 0. -1.
         21   -1    0    0  501  502  0.00000000000E+00 -0.00000000000E+00 -0.76224668655E+02  0.76224668655E+02  0.00000000000E+00 0. -1.
         23    2    1    2    0    0 -0.26314299982E+02 -0.53465539479E+02  0.23686692260E+03  0.26128443360E+03  0.92804148185E+02 0.  0.
         23    2    1    2    0    0 -0.58198237382E+02  0.10358939038E+03  0.12009028698E+03  0.19140455471E+03  0.89979052587E+02 0.  0.
        -11    1    4    4    0    0 -0.79877407996E+02  0.97987970971E+02  0.98063458133E+02  0.15999526426E+03  0.00000000000E+00 0. -1.
         11    1    4    4    0    0  0.21679170615E+02  0.56014194056E+01  0.22026828847E+02  0.31409290456E+02  0.00000000000E+00 0.  1.
        -13    1    3    3    0    0  0.25625602040E+02  0.22299242000E+01  0.11290494801E+03  0.11579797635E+03  0.00000000000E+00 0.  1.
         13    1    3    3    0    0 -0.51939902022E+02 -0.55695463679E+02  0.12396197459E+03  0.14548645724E+03  0.00000000000E+00 0. -1.
          1    1    1    2  501    0  0.84512537364E+02 -0.50123850897E+02  0.56753923380E+02  0.11347148197E+03  0.00000000000E+00 0. -1.
<scales pt_clust_5="13000.00000" pt_clust_6="13000.00000" pt_clust_7="13000.00000" pt_clust_8="13000.00000" pt_clust_9="98.25869"></scales>
<clustering>
<clus scale="   89.979">  5  6 -1 -1</clus>
<clus scale="   92.804">  7  8 -1 -1</clus>
<clus scale="   98.259">  2  9  1 -1</clus>
<clus scale="  111.839">  2  5  1 -1</clus>
<clus scale="   98.259">  2  5  1 -1</clus>
</clustering>
</event>
<event>
 9    1  0.3231311E-005  0.1061724E+03  0.7546771E-02  0.1268198E+00
          1   -1    0    0  502    0 -0.00000000000E+00  0.00000000000E+00  0.33545273317E+03  0.33545273317E+03  0.00000000000E+00 0. -1.
         21   -1    0    0  501  502  0.00000000000E+00 -0.00000000000E+00 -0.12959510707E+03  0.12959510707E+03  0.00000000000E+00 0. -1.
         23    2    1    2    0    0 -0.62928143808E+02 -0.18266037403E+02  0.19692963054E+03  0.22701188471E+03  0.91975632697E+02 0.  0.
         23    2    1    2    0    0  0.92415691564E+01  0.47131855287E+02  0.89078227752E+02  0.13734065545E+03  0.92847760316E+02 0.  0.
        -11    1    4    4    0    0 -0.26399705032E+02 -0.15301888863E+01  0.68796639899E+02  0.73703891113E+02  0.00000000000E+00 0.  1.
         11    1    4    4    0    0  0.35641274189E+02  0.48662044173E+02  0.20281587852E+02  0.63636764333E+02  0.00000000000E+00 0. -1.
        -11    1    3    3    0    0 -0.25001401100E+02 -0.49629276831E+02  0.61351670508E+02  0.82777790801E+02  0.00000000000E+00 0.  1.
         11    1    3    3    0    0 -0.37926742708E+02  0.31363239428E+02  0.13557796003E+03  0.14423409391E+03  0.00000000000E+00 0. -1.
          1    1    1    2  501    0  0.53686574652E+02 -0.28865817884E+02 -0.80150232188E+02  0.10069530009E+03  0.00000000000E+00 0. -1.
<scales pt_clust_5="13000.00000" pt_clust_6="13000.00000" pt_clust_7="13000.00000" pt_clust_8="13000.00000" pt_clust_9="60.95477"></scales>
<clustering>
<clus scale="   60.955">  2  9  1 -1</clus>
<clus scale="   91.976">  7  8 -1 -1</clus>
<clus scale="   92.848">  5  6 -1 -1</clus>
<clus scale="  105.411">  1  7  2 -1</clus>
<clus scale="   60.955">  2  5  1 -1</clus>
</clustering>
</event>
<event>
 9    1  0.3231311E-005  0.9854365E+02  0.7546771E-02  0.1283753E+00
         21   -1    0    0  501  502  0.00000000000E+00  0.00000000000E+00  0.31296019935E+03  0.31296019935E+03  0.00000000000E+00 0. -1.
          2   -1    0    0  502    0 -0.00000000000E+00 -0.00000000000E+00 -0.27444615541E+03  0.27444615541E+03  0.00000000000E+00 0. -1.
         23    2    1    2    0    0  0.31155909061E+02 -0.29980600377E+02 -0.21305667654E+03  0.23582371918E+03  0.91379166327E+02 0.  0.
         23    2    1    2    0    0 -0.29360599982E+02 -0.23311517846E+02  0.38319473506E+01  0.98170377172E+02  0.90649144717E+02 0.  0.
        -11    1    3    3    0    0 -0.30547963192E+02 -0.20190203156E+02 -0.57259570352E+02  0.67966762139E+02  0.00000000000E+00 0. -1.
         11    1    3    3    0    0  0.61703872253E+02 -0.97903972205E+01 -0.15579710619E+03  0.16785695704E+03  0.00000000000E+00 0.  1.
        -13    1    4    4    0    0 -0.59011574531E+02 -0.14474165808E+02  0.19067997577E+02  0.63682461762E+02  0.00000000000E+00 0.  1.
         13    1    4    4    0    0  0.29650974549E+02 -0.88373520377E+01 -0.15236050227E+02  0.34487915409E+02  0.00000000000E+00 0. -1.
          2    1    1    2  501    0 -0.17953090794E+01  0.53292118223E+02  0.24773877314E+03  0.25341225842E+03  0.00000000000E+00 0. -1.
<scales pt_clust_5="13000.00000" pt_clust_6="13000.00000" pt_clust_7="13000.00000" pt_clust_8="13000.00000" pt_clust_9="53.32235"></scales>
<clustering>
<clus scale="   53.322">  1  9  2 -1</clus>
<clus scale="   90.649">  7  8 -1 -1</clus>
<clus scale="   91.379">  5  6 -1 -1</clus>
<clus scale="   97.867">  1  7  2 -1</clus>
<clus scale="   53.322">  1  5  2 -1</clus>
</clustering>
</event>
<event>
 9    1  0.3231311E-005  0.1960264E+03  0.7546771E-02  0.1153152E+00
         21   -1    0    0  501  502  0.00000000000E+00  0.00000000000E+00  0.76026850743E+03  0.76026850743E+03  0.00000000000E+00 0.  1.
         -3   -1    0    0    0  501 -0.00000000000E+00 -0.00000000000E+00 -0.12300013532E+03  0.12300013532E+03  0.00000000000E+00 0.  1.
         23    2    1    2    0    0  0.17263168390E+03 -0.73030627158E+02  0.32986830854E+02  0.21178867031E+03  0.92903923883E+02 0.  0.
         23    2    1    2    0    0 -0.14826333301E+03  0.68490141423E+01  0.22225662743E+03  0.28299978348E+03  0.93069565951E+02 0.  0.
        -11    1    3    3    0    0  0.14762091414E+03 -0.63788904933E+02 -0.10087557793E+02  0.16112950538E+03  0.00000000000E+00 0.  1.
         11    1    3    3    0    0  0.25010769767E+02 -0.92417222252E+01  0.43074388647E+02  0.50659164929E+02  0.00000000000E+00 0. -1.
        -13    1    4    4    0    0 -0.30378060191E+02  0.39204572013E+02  0.90972255540E+02  0.10361359122E+03  0.00000000000E+00 0. -1.
         13    1    4    4    0    0 -0.11788527281E+03 -0.32355557871E+02  0.13128437189E+03  0.17938619226E+03  0.00000000000E+00 0.  1.
         -3    1    1    2    0  502 -0.24368350899E+02  0.66181613016E+02  0.38202491382E+03  0.38848018895E+03  0.00000000000E+00 0.  1.
<scales pt_clust_5="13000.00000" pt_clust_6="13000.00000" pt_clust_7="13000.00000" pt_clust_8="13000.00000" pt_clust_9="70.52533"></scales>
<clustering>
<clus scale="   70.525">  1  9  2 -1</clus>
<clus scale="   92.904">  5  6 -1 -1</clus>
<clus scale="   93.070">  7  8 -1 -1</clus>
<clus scale="  195.948">  2  5  1 -1</clus>
<clus scale="   70.525">  1  5  2 -1</clus>
</clustering>
</event>
<event>
 9    1  0.3231311E-005  0.1558959E+03  0.7546771E-02  0.1193921E+00
         21   -1    0    0  501  502  0.00000000000E+00  0.00000000000E+00  0.21131069345E+03  0.21131069345E+03  0.00000000000E+00 0. -1.
          1   -1    0    0  502    0 -0.00000000000E+00 -0.00000000000E+00 -0.98442612057E+03  0.98442612057E+03  0.00000000000E+00 0. -1.
         23    2    1    2    0    0  0.91534663529E+02 -0.44868300852E+02 -0.48018448326E+03  0.49931208588E+03  0.91343648376E+02 0.  0.
         23    2    1    2    0    0 -0.19295501331E+03 -0.44156218831E+01 -0.45258405290E+03  0.50096601738E+03  0.94252271865E+02 0.  0.
        -11    1    4    4    0    0 -0.88393497279E+02 -0.34783776806E+02 -0.29107389153E+03  0.30618186070E+03  0.00000000000E+00 0. -1.
         11    1    4    4    0    0 -0.10456151603E+03  0.30368154922E+02 -0.16151016136E+03  0.19478415668E+03  0.00000000000E+00 0.  1.
        -13    1    3    3    0    0  0.88701961993E+02  0.13336718942E+01 -0.27431450288E+03  0.28830238159E+03  0.00000000000E+00 0. -1.
         13    1    3    3    0    0  0.28327015356E+01 -0.46201972746E+02 -0.20586998038E+03  0.21100970429E+03  0.00000000000E+00 0.  1.
          1    1    1    2  501    0  0.10142034978E+03  0.49283922735E+02  0.15965310904E+03  0.19545871077E+03  0.00000000000E+00 0. -1.
<scales pt_clust_5="13000.00000" pt_clust_6="13000.00000" pt_clust_7="13000.00000" pt_clust_8="13000.00000" pt_clust_9="112.76078"></scales>
<clustering>
<clus scale="   91.344">  7  8 -1 -1</clus>
<clus scale="   94.252">  5  6 -1 -1</clus>
<clus scale="  112.761">  1  9  2 -1</clus>
<clus scale="  154.155">  2  7  1 -1</clus>
<clus scale="  112.761">  1  5  2 -1</clus>
</clustering>
</event>
<event>
 9    1  0.3231311E-005  0.1629417E+03  0.7546771E-02  0.1186333E+00
         21   -1    0    0  501  502  0.00000000000E+00  0.00000000000E+00  0.30115463099E+03  0.30115463099E+03  0.00000000000E+00 0. -1.
          1   -1    0    0  502    0 -0.00000000000E+00 -0.00000000000E+00 -0.17167310045E+03  0.17167310045E+03  0.00000000000E+00 0. -1.
         23    2    1    2    0    0 -0.13165634207E+03  0.20430670405E+02  0.90944075727E+01  0.16511162373E+03  0.97099615560E+02 0.  0.
         23    2    1    2    0    0  0.99472034531E+02 -0.10304611516E+03  0.15896027356E+02  0.17067768089E+03  0.91460371549E+02 0.  0.
        -11    1    4    4    0    0 -0.84811703646E+01 -0.25795471845E+02  0.25938871778E+02  0.37552119615E+02  0.00000000000E+00 0.  1.
         11    1    4    4    0    0  0.10795320490E+03 -0.77250643314E+02 -0.10042844422E+02  0.13312556127E+03  0.00000000000E+00 0. -1.
        -13    1    3    3    0    0 -0.68786973430E+02 -0.78834533299E+01  0.49575226057E+02  0.85155737262E+02  0.00000000000E+00 0.  1.
         13    1    3    3    0    0 -0.62869368641E+02  0.28314123735E+02 -0.40480818484E+02  0.79955886471E+02  0.00000000000E+00 0. -1.
          1    1    1    2  501    0  0.32184307540E+02  0.82615444755E+02  0.10449109561E+03  0.13703842682E+03  0.00000000000E+00 0. -1.
<scales pt_clust_5="13000.00000" pt_clust_6="13000.00000" pt_clust_7="13000.00000" pt_clust_8="13000.00000" pt_clust_9="88.66308"></scales>
<clustering>
<clus scale="   88.663">  1  9  2 -1</clus>
<clus scale="   91.460">  5  6 -1 -1</clus>
<clus scale="   97.100">  7  8 -1 -1</clus>
<clus scale="  159.645">  1  5  2 -1</clus>
<clus scale="   88.663">  1  5  2 -1</clus>
</clustering>
</event>
<event>
 9    1  0.3231311E-005  0.1015374E+03  0.7546771E-02  0.1277509E+00
         21   -1    0    0  501  502  0.00000000000E+00  0.00000000000E+00  0.17876859522E+03  0.17876859522E+03  0.00000000000E+00 0. -1.
          1   -1    0    0  502    0 -0.00000000000E+00 -0.00000000000E+00 -0.13991074561E+03  0.13991074561E+03  0.00000000000E+00 0. -1.
         23    2    1    2    0    0  0.25063813017E+02  0.22091242802E+02 -0.53707679870E+02  0.11199828327E+03  0.92427716874E+02 0.  0.
         23    2    1    2    0    0 -0.27868748820E+02 -0.53744751121E+02  0.10039350581E+01  0.10976182405E+03  0.91550448926E+02 0.  0.
        -11    1    3    3    0    0 -0.27548585496E+02  0.34520942427E+02 -0.22302039861E+02  0.49477277722E+02  0.00000000000E+00 0.  1.
         11    1    3    3    0    0  0.52612398513E+02 -0.12429699624E+02 -0.31405640010E+02  0.62521005546E+02  0.00000000000E+00 0. -1.
        -13    1    4    4    0    0  0.19201163522E+02  0.12096532904E+02 -0.15074305759E+02  0.27244182553E+02  0.00000000000E+00 0.  1.
         13    1    4    4    0    0 -0.47069912342E+02 -0.65841284025E+02  0.16078240817E+02  0.82517641493E+02  0.00000000000E+00 0. -1.
          1    1    1    2  501    0  0.28049358031E+01  0.31653508318E+02  0.91561594418E+02  0.96919233520E+02  0.00000000000E+00 0. -1.
<scales pt_clust_5="13000.00000" pt_clust_6="13000.00000" pt_clust_7="13000.00000" pt_clust_8="13000.00000" pt_clust_9="31.77754"></scales>
<clustering>
<clus scale="   31.778">  1  9  2 -1</clus>
<clus scale="   91.550">  7  8 -1 -1</clus>
<clus scale="   92.428">  5  6 -1 -1</clus>
<clus scale="  100.740">  1  7  2 -1</clus>
<clus scale="   31.778">  1  5  2 -1</clus>
</clustering>
</event>
<event>
 9    1  0.3687914E-005  0.9289538E+02  0.7546771E-02  0.1296897E+00
         21   -1    0    0  501  502  0.00000000000E+00  0.00000000000E+00  0.11145772838E+03  0.11145772838E+03  0.00000000000E+00 0. -1.
          1   -1    0    0  502    0 -0.00000000000E+00 -0.00000000000E+00 -0.45366513399E+03  0.45366513399E+03  0.00000000000E+00 0. -1.
         23    2    1    2    0    0  0.83733079566E+01  0.28654941829E+02 -0.35151750787E+03  0.36340348548E+03  0.87214201510E+02 0.  0.
         23    2    1    2    0    0  0.14913551309E+02 -0.20321364809E+02 -0.71766482866E+02  0.11695417780E+03  0.88839629455E+02 0.  0.
        -11    1    4    4    0    0  0.50096613103E+02 -0.25963960925E+02 -0.48437927009E+02  0.74364176081E+02  0.00000000000E+00 0.  1.
         11    1    4    4    0    0 -0.35183061794E+02  0.56425961152E+01 -0.23328555858E+02  0.42590001720E+02  0.00000000000E+00 0. -1.
        -13    1    3    3    0    0  0.40689484458E+02  0.83750095003E+00 -0.94767566538E+02  0.10313693432E+03  0.00000000000E+00 0.  1.
         13    1    3    3    0    0 -0.32316176501E+02  0.27817440879E+02 -0.25674994133E+03  0.26026655116E+03  0.00000000000E+00 0. -1.
          1    1    1    2  501    0 -0.23286859266E+02 -0.83335770199E+01  0.81076585127E+02  0.84765199087E+02  0.00000000000E+00 0. -1.
<scales pt_clust_5="13000.00000" pt_clust_6="13000.00000" pt_clust_7="13000.00000" pt_clust_8="13000.00000" pt_clust_9="24.73310"></scales>
<clustering>
<clus scale="   24.733">  1  9  2 -1</clus>
<clus scale="   87.214">  7  8 -1 -1</clus>
<clus scale="   88.840">  5  6 -1 -1</clus>
<clus scale="   91.342">  2  7  1 -1</clus>
<clus scale="   24.733">  1  5  2 -1</clus>
</clustering>
</event>
<event>
 9    1  0.3231311E-005  0.1357064E+03  0.7546771E-02  0.1219826E+00
          3   -1    0    0  502    0 -0.00000000000E+00  0.00000000000E+00  0.90625786626E+02  0.90625786626E+02  0.00000000000E+00 0. -1.
         21   -1    0    0  501  502  0.00000000000E+00 -0.00000000000E+00 -0.31146794175E+03  0.31146794175E+03  0.00000000000E+00 0. -1.
         23    2    1    2    0    0  0.82954376358E+02  0.65856604681E+02 -0.35105713052E+02  0.14867660772E+03  0.98253761536E+02 0.  0.
         23    2    1    2    0    0 -0.35474132201E+02 -0.65459670718E+02 -0.15488086273E+03  0.19679029029E+03  0.95890323628E+02 0.  0.
        -11    1    4    4    0    0 -0.47479999190E+02 -0.15354651212E+02 -0.22505386782E+02  0.54741283060E+02  0.00000000000E+00 0.  1.
         11    1    4    4    0    0  0.12005866989E+02 -0.50105019506E+02 -0.13237547595E+03  0.14204900723E+03  0.00000000000E+00 0. -1.
        -13    1    3    3    0    0  0.10801156383E+01 -0.23341403434E+02 -0.45862186740E+01  0.23812206235E+02  0.00000000000E+00 0.  1.
         13    1    3    3    0    0  0.81874260720E+02  0.89198008115E+02 -0.30519494378E+02  0.12486440148E+03  0.00000000000E+00 0. -1.
          3    1    1    2  501    0 -0.47480244157E+02 -0.39693396220E+00 -0.30855579350E+02  0.56626830379E+02  0.00000000000E+00 0. -1.
<scales pt_clust_5="13000.00000" pt_clust_6="13000.00000" pt_clust_7="13000.00000" pt_clust_8="13000.00000" pt_clust_9="47.48193"></scales>
<clustering>
<clus scale="   47.482">  2  9  1 -1</clus>
<clus scale="   95.890">  5  6 -1 -1</clus>
<clus scale="   98.254">  7  8 -1 -1</clus>
<clus scale="  134.005">  2  5  1 -1</clus>
<clus scale="   47.482">  2  5  1 -1</clus>
</clustering>
</event>
<event>
 9    1  0.3231311E-005  0.1059605E+03  0.7546771E-02  0.1269166E+00
          1   -1    0    0  502    0 -0.00000000000E+00  0.00000000000E+00  0.25327952330E+03  0.25327952330E+03  0.00000000000E+00 0. -1.
         21   -1    0    0  501  502  0.00000000000E+00 -0.00000000000E+00 -0.90273531309E+02  0.90273531309E+02  0.00000000000E+00 0.  1.
         23    2    1    2    0    0  0.31605412569E+02  0.40315104498E+02  0.16800572430E+03  0.19883591584E+03  0.93196503560E+02 0.  0.
         23    2    1    2    0    0 -0.46801062614E+02 -0.22825966320E+02  0.24003902708E+02  0.10759587021E+03  0.91045701383E+02 0.  0.
        -13    1    3    3    0    0  0.11531440900E+02 -0.29086208763E+02  0.73468199874E+02  0.79853353481E+02  0.00000000000E+00 0.  1.
         13    1    3    3    0    0  0.20073971669E+02  0.69401313261E+02  0.94537524430E+02  0.11898256236E+03  0.00000000000E+00 0. -1.
        -13    1    4    4    0    0 -0.37338430367E+02 -0.37884824140E+01 -0.30967370850E+02  0.48656849863E+02  0.00000000000E+00 0.  1.
         13    1    4    4    0    0 -0.94626322474E+01 -0.19037483906E+02  0.54971273558E+02  0.58939020344E+02  0.00000000000E+00 0. -1.
          1    1    1    2  501    0  0.15195650045E+02 -0.17489138178E+02 -0.29003635024E+02  0.37121268555E+02  0.00000000000E+00 0. -1.
<scales pt_clust_5="13000.00000" pt_clust_6="13000.00000" pt_clust_7="13000.00000" pt_clust_8="13000.00000" pt_clust_9="23.16846"></scales>
<clustering>
<clus scale="   23.168">  2  9  1 -1</clus>
<clus scale="   91.046">  7  8 -1 -1</clus>
<clus scale="   93.197">  5  6 -1 -1</clus>
<clus scale="  104.074">  2  7  1 -1</clus>
<clus scale="   23.168">  2  5  1 -1</clus>
</clustering>
</event>
<event>
 9    1  0.3231311E-005  0.9637784E+02  0.7546771E-02  0.1288510E+00
          3   -1    0    0  502    0 -0.00000000000E+00  0.00000000000E+00  0.40285162557E+03  0.40285162557E+03  0.00000000000E+00 0. -1.
         21   -1    0    0  501  502  0.00000000000E+00 -0.00000000000E+00 -0.12756595474E+03  0.12756595474E+03  0.00000000000E+00 0. -1.
         23    2    1    2    0    0  0.29820876743E+02  0.13122853728E+02  0.19662469040E+03  0.21963262839E+03  0.92280705461E+02 0.  0.
         23    2    1    2    0    0  0.18596997916E+02 -0.43173249829E+02  0.17258683186E+03  0.20092421070E+03  0.91512546046E+02 0.  0.
        -11    1    3    3    0    0 -0.11526658852E+02  0.19648025638E+02  0.47817481967E+01  0.23276036853E+02  0.00000000000E+00 0.  1.
         11    1    3    3    0    0  0.41347535594E+02 -0.65251719100E+01  0.19184294220E+03  0.19635659154E+03  0.00000000000E+00 0. -1.
        -13    1    4    4    0    0  0.40500188099E+01  0.27801815457E+02  0.69133647976E+02  0.74624425476E+02  0.00000000000E+00 0.  1.
         13    1    4    4    0    0  0.14546979107E+02 -0.70975065286E+02  0.10345318388E+03  0.12629978523E+03  0.00000000000E+00 0. -1.
          3    1    1    2  501    0 -0.48417874659E+02  0.30050396101E+02 -0.93925851436E+02  0.10986074121E+03  0.00000000000E+00 0. -1.
<scales pt_clust_5="13000.00000" pt_clust_6="13000.00000" pt_clust_7="13000.00000" pt_clust_8="13000.00000" pt_clust_9="56.98523"></scales>
<clustering>
<clus scale="   56.985">  2  9  1 -1</clus>
<clus scale="   91.513">  7  8 -1 -1</clus>
<clus scale="   92.281">  5  6 -1 -1</clus>
<clus scale="   95.643">  2  7  1 -1</clus>
<clus scale="   56.985">  2  5  1 -1</clus>
</clustering>
</event>
<event>
 9    1  0.3231311E-005  0.1164406E+03  0.7546771E-02  0.1249700E+00
          1   -1    0    0  502    0 -0.00000000000E+00  0.00000000000E+00  0.85160836856E+03  0.85160836856E+03  0.00000000000E+00 0. -1.
         21   -1    0    0  501  502  0.00000000000E+00 -0.00000000000E+00 -0.28055541657E+02  0.28055541657E+02  0.00000000000E+00 0.  1.
         23    2    1    2    0    0 -0.43380871768E+02  0.50123265091E+02  0.51937460364E+03  0.53122421690E+03  0.89749361942E+02 0.  0.
         23    2    1    2    0    0  0.33292001530E+02 -0.81390379418E+02  0.28065839177E+03  0.30803424549E+03  0.91559883667E+02 0.  0.
        -11    1    4    4    0    0 -0.26884617818E+02 -0.52839387387E+02  0.15210371451E+03  0.16324926800E+03  0.00000000000E+00 0. -1.
         11    1    4    4    0    0  0.60176619348E+02 -0.28550992030E+02  0.12855467727E+03  0.14478497750E+03  0.00000000000E+00 0.  1.
        -11    1    3    3    0    0  0.25445772940E+02  0.24738937620E+02  0.11879418629E+03  0.12398209989E+03  0.00000000000E+00 0.  1.
         11    1    3    3    0    0 -0.68826644708E+02  0.25384327472E+02  0.40058041735E+03  0.40724211701E+03  0.00000000000E+00 0. -1.
          1    1    1    2  501    0  0.10088870238E+02  0.31267114326E+02  0.23519831491E+02  0.40405447830E+02  0.00000000000E+00 0. -1.
<scales pt_clust_5="13000.00000" pt_clust_6="13000.00000" pt_clust_7="13000.00000" pt_clust_8="13000.00000" pt_clust_9="32.85449"></scales>
<clustering>
<clus scale="   32.854">  2  9  1 -1</clus>
<clus scale="   89.749">  7  8 -1 -1</clus>
<clus scale="   91.560">  5  6 -1 -1</clus>
<clus scale="  115.022">  1  7  2 -1</clus>
<clus scale="   32.854">  2  5  1 -1</clus>
</clustering>
</event>
<event>
 9    1  0.3231311E-005  0.9692120E+02  0.7546771E-02  0.1290671E+00
         21   -1    0    0  501  502  0.00000000000E+00  0.00000000000E+00  0.29057800973E+02  0.29057800973E+02  0.00000000000E+00 0. -1.
         -4   -1    0    0    0  501 -0.00000000000E+00 -0.00000000000E+00 -0.43081571110E+03  0.43081571110E+03  0.00000000000E+00 0.  1.
         23    2    1    2    0    0 -0.33287604402E+02 -0.28739262803E+02 -0.26044183082E+03  0.27635407299E+03  0.81287247376E+02 0.  0.
         23    2    1    2    0    0  0.11098355283E+02  0.29998918444E+02 -0.10597773725E+03  0.14177320657E+03  0.88573431190E+02 0.  0.
        -13    1    4    4    0    0  0.11174323407E+02  0.60494068060E+02 -0.84294585699E+02  0.10435504277E+03  0.00000000000E+00 0. -1.
         13    1    4    4    0    0 -0.75968124448E-01 -0.30495149616E+02 -0.21683151547E+02  0.37418163801E+02  0.00000000000E+00 0.  1.
        -13    1    3    3    0    0 -0.50922554327E+02  0.28561593736E+01 -0.10466858032E+03  0.11643356858E+03  0.00000000000E+00 0. -1.
         13    1    3    3    0    0  0.17634949925E+02 -0.31595422177E+02 -0.15577325049E+03  0.15992050441E+03  0.00000000000E+00 0.  1.
         -4    1    1    2    0  502  0.22189249119E+02 -0.12596556413E+01 -0.35338342065E+02  0.41746232509E+02  0.00000000000E+00 0.  1.
<scales pt_clust_5="13000.00000" pt_clust_6="13000.00000" pt_clust_7="13000.00000" pt_clust_8="13000.00000" pt_clust_9="22.22497"></scales>
<clustering>
<clus scale="   22.225">  1  9  2 -1</clus>
<clus scale="   81.287">  7  8 -1 -1</clus>
<clus scale="   88.573">  5  6 -1 -1</clus>
<clus scale="   90.311">  2  7  1 -1</clus>
<clus scale="   22.225">  1  5  2 -1</clus>
</clustering>
</event>
<event>
 9    1  0.3231311E-005  0.1800122E+03  0.7546771E-02  0.1187637E+00
         -1   -1    0    0    0  501 -0.00000000000E+00  0.00000000000E+00  0.68286952406E+03  0.68286952406E+03  0.00000000000E+00 0.  1.
         21   -1    0    0  501  502  0.00000000000E+00 -0.00000000000E+00 -0.87409371350E+02  0.87409371350E+02  0.00000000000E+00 0.  1.
         23    2    1    2    0    0  0.27543846359E+01 -0.70712310563E+02  0.10866295475E+03  0.15823102376E+03  0.90673048072E+02 0.  0.
         23    2    1    2    0    0 -0.68731314910E+02 -0.86036875746E+02  0.39058463338E+03  0.41665053205E+03  0.94419131484E+02 0.  0.
        -11    1    3    3    0    0 -0.26216525152E+02  0.93552053081E+00  0.17249092875E+01  0.26289859295E+02  0.00000000000E+00 0. -1.
         11    1    3    3    0    0  0.28970909788E+02 -0.71647831094E+02  0.10693804546E+03  0.13194116447E+03  0.00000000000E+00 0.  1.
        -13    1    4    4    0    0 -0.60340800735E+02 -0.21589230990E+01  0.14830849891E+03  0.16012833613E+03  0.00000000000E+00 0.  1.
         13    1    4    4    0    0 -0.83905141749E+01 -0.83877952647E+02  0.24227613447E+03  0.25652219592E+03  0.00000000000E+00 0. -1.
         -1    1    1    2    0  502  0.65976930274E+02  0.15674918631E+03  0.96212564584E+02  0.19539733960E+03  0.00000000000E+00 0.  1.
<scales pt_clust_5="13000.00000" pt_clust_6="13000.00000" pt_clust_7="13000.00000" pt_clust_8="13000.00000" pt_clust_9="153.26262"></scales>
<clustering>
<clus scale="   90.673">  5  6 -1 -1</clus>
<clus scale="   94.419">  7  8 -1 -1</clus>
<clus scale="  115.019">  1  5  2 -1</clus>
<clus scale="  153.263">  2  9  1 -1</clus>
<clus scale="  153.263">  2  5  1 -1</clus>
</clustering>
</event>
<event>
 9    1  0.3231311E-005  0.1033780E+03  0.7546771E-02  0.1274054E+00
          3   -1    0    0  502    0 -0.00000000000E+00  0.00000000000E+00  0.83661143194E+02  0.83661143194E+02  0.00000000000E+00 0. -1.
         21   -1    0    0  501  502  0.00000000000E+00 -0.00000000000E+00 -0.39841051712E+03  0.39841051712E+03  0.00000000000E+00 0. -1.
         23    2    1    2    0    0 -0.47278150877E+02  0.43085158075E+01  0.62993693843E+01  0.10146000073E+03  0.89446424378E+02 0.  0.
         23    2    1    2    0    0  0.53786731586E+02 -0.44357304504E+02 -0.83989720933E+02  0.14010542851E+03  0.87833222169E+02 0.  0.
        -11    1    3    3    0    0  0.26180321423E+02  0.85263430597E+01 -0.74717585710E+00  0.27543892745E+02  0.00000000000E+00 0.  1.
         11    1    3    3    0    0 -0.73458472300E+02 -0.42178272522E+01  0.70465452414E+01  0.73916107982E+02  0.00000000000E+00 0. -1.
        -11    1    4    4    0    0  0.32586137000E+02 -0.70853170080E+02 -0.54441697523E+02  0.95110075513E+02  0.00000000000E+00 0. -1.
         11    1    4    4    0    0  0.21200594586E+02  0.26495865576E+02 -0.29548023410E+02  0.44995352992E+02  0.00000000000E+00 0.  1.
          3    1    1    2  501    0 -0.65085807091E+01  0.40048788697E+02 -0.23705902238E+03  0.24050623109E+03  0.00000000000E+00 0. -1.
<scales pt_clust_5="13000.00000" pt_clust_6="13000.00000" pt_clust_7="13000.00000" pt_clust_8="13000.00000" pt_clust_9="40.57422"></scales>
<clustering>
<clus scale="   40.574">  2  9  1 -1</clus>
<clus scale="   87.833">  7  8 -1 -1</clus>
<clus scale="   89.446">  5  6 -1 -1</clus>
<clus scale="  101.985">  2  7  1 -1</clus>
<clus scale="   40.574">  2  5  1 -1</clus>
</clustering>
</event>
<event>
 9    1  0.3231311E-005  0.1698261E+03  0.7546771E-02  0.1178400E+00
          1   -1    0    0  502    0 -0.00000000000E+00  0.00000000000E+00  0.29348589931E+03  0.29348589931E+03  0.00000000000E+00 0. -1.
         21   -1    0    0  501  502  0.00000000000E+00 -0.00000000000E+00 -0.38066355307E+03  0.38066355307E+03  0.00000000000E+00 0. -1.
         23    2    1    2    0    0  0.14690794314E+03  0.17219266768E+02  0.16087177735E+03  0.23576295677E+03  0.88464660358E+02 0.  0.
         23    2    1    2    0    0 -0.12755056717E+03 -0.52045594367E+02  0.20911501979E+02  0.16649025689E+03  0.91125318361E+02 0.  0.
        -11    1    3    3    0    0  0.11642744588E+03  0.40179104013E+02  0.81484147946E+02  0.14767998145E+03  0.00000000000E+00 0.  1.
         11    1    3    3    0    0  0.30480497256E+02 -0.22959837245E+02  0.79387629404E+02  0.88082975323E+02  0.00000000000E+00 0. -1.
        -13    1    4    4    0    0 -0.10520762905E+01 -0.26249246169E+02  0.26437268130E+02  0.37270080965E+02  0.00000000000E+00 0.  1.
         13    1    4    4    0    0 -0.12649849087E+03 -0.25796348198E+02 -0.55257661513E+01  0.12922017592E+03  0.00000000000E+00 0. -1.
          1    1    1    2  501    0 -0.19357375972E+02  0.34826327599E+02 -0.26896093309E+03  0.27189623871E+03  0.00000000000E+00 0. -1.
<scales pt_clust_5="13000.00000" pt_clust_6="13000.00000" pt_clust_7="13000.00000" pt_clust_8="13000.00000" pt_clust_9="39.84446"></scales>
<clustering>
<clus scale="   39.844">  2  9  1 -1</clus>
<clus scale="   88.465">  5  6 -1 -1</clus>
<clus scale="   91.125">  7  8 -1 -1</clus>
<clus scale="  168.413">  1  5  2 -1</clus>
<clus scale="   39.844">  2  5  1 -1</clus>
</clustering>
</event>
<event>
 9    1  0.3231311E-005  0.9496613E+02  0.7546771E-02  0.1309691E+00
         21   -1    0    0  501  502  0.00000000000E+00  0.00000000000E+00  0.77122392383E+02  0.77122392383E+02  0.00000000000E+00 0. -1.
          1   -1    0    0  502    0 -0.00000000000E+00 -0.00000000000E+00 -0.32636180839E+03  0.32636180839E+03  0.00000000000E+00 0. -1.
         23    2    1    2    0    0  0.34605486288E+02 -0.48843815471E+01 -0.16156477803E+03  0.17731048240E+03  0.64143844628E+02 0.  0.
         23    2    1    2    0    0  0.50721059987E+01  0.73180105542E+01 -0.13528981628E+03  0.16414599001E+03  0.92527250636E+02 0.  0.
        -11    1    4    4    0    0 -0.22818240692E+02 -0.32821019347E+02 -0.37446003725E+02  0.54773119450E+02  0.00000000000E+00 0.  1.
         11    1    4    4    0    0  0.27890346690E+02  0.40139029901E+02 -0.97843812553E+02  0.10937287056E+03  0.00000000000E+00 0. -1.
        -13    1    3    3    0    0  0.45731438415E+02 -0.23409811260E+02 -0.11701075039E+03  0.12779240755E+03  0.00000000000E+00 0. -1.
         13    1    3    3    0    0 -0.11125952127E+02  0.18525429713E+02 -0.44554027648E+02  0.49518074846E+02  0.00000000000E+00 0.  1.
          1    1    1    2  501    0 -0.39677592287E+02 -0.24336290071E+01  0.47615178309E+02  0.62027728358E+02  0.00000000000E+00 0. -1.
<scales pt_clust_5="13000.00000" pt_clust_6="13000.00000" pt_clust_7="13000.00000" pt_clust_8="13000.00000" pt_clust_9="39.75216"></scales>
<clustering>
<clus scale="   39.752">  1  9  2 -1</clus>
<clus scale="   64.144">  7  8 -1 -1</clus>
<clus scale="   67.614">  2  7  1 -1</clus>
<clus scale="   92.527">  5  6 -1 -1</clus>
<clus scale="   39.752">  1  5  2 -1</clus>
</clustering>
</event>
<event>
 9    1  0.3231311E-005  0.2608328E+03  0.7546771E-02  0.1106987E+00
         21   -1    0    0  501  502  0.00000000000E+00  0.00000000000E+00  0.12586823728E+04  0.12586823728E+04  0.00000000000E+00 0.  1.
         -3   -1    0    0    0  501 -0.00000000000E+00 -0.00000000000E+00 -0.67156664850E+02  0.67156664850E+02  0.00000000000E+00 0.  1.
         23    2    1    2    0    0  0.23598274324E+03 -0.38149704520E+02  0.36747418301E+03  0.44772826571E+03  0.90994888158E+02 0.  0.
         23    2    1    2    0    0 -0.24549104519E+03  0.70988233271E+02  0.72448930088E+03  0.77284248025E+03  0.84235204390E+02 0.  0.
        -11    1    4    4    0    0 -0.31157790642E+02 -0.65914033707E+01  0.38449130886E+02  0.49925846832E+02  0.00000000000E+00 0. -1.
         11    1    4    4    0    0 -0.21433325455E+03  0.77579636642E+02  0.68604016999E+03  0.72291663342E+03  0.00000000000E+00 0.  1.
        -13    1    3    3    0    0  0.12749028415E+03 -0.65139895003E+02  0.18849991410E+03  0.23670487128E+03  0.00000000000E+00 0.  1.
         13    1    3    3    0    0  0.10849245910E+03  0.26990190483E+02  0.17897426891E+03  0.21102339443E+03  0.00000000000E+00 0. -1.
         -3    1    1    2    0  502  0.95083019436E+01 -0.32838528751E+02  0.99562224107E+02  0.10526829174E+03  0.00000000000E+00 0.  1.
<scales pt_clust_5="13000.00000" pt_clust_6="13000.00000" pt_clust_7="13000.00000" pt_clust_8="13000.00000" pt_clust_9="34.18738"></scales>
<clustering>
<clus scale="   34.187">  1  9  2 -1</clus>
<clus scale="   84.235">  5  6 -1 -1</clus>
<clus scale="   90.995">  7  8 -1 -1</clus>
<clus scale="  258.552">  1  5  2 -1</clus>
<clus scale="   34.187">  1  5  2 -1</clus>
</clustering>
</event>
<event>
 9    1  0.3231311E-005  0.1211141E+03  0.7546771E-02  0.1242576E+00
          1   -1    0    0  502    0 -0.00000000000E+00  0.00000000000E+00  0.84904223085E+03  0.84904223085E+03  0.00000000000E+00 0. -1.
         21   -1    0    0  501  502  0.00000000000E+00 -0.00000000000E+00 -0.49759950444E+02  0.49759950444E+02  0.00000000000E+00 0. -1.
         23    2    1    2    0    0  0.75082602235E+02  0.36274466009E+01  0.52974959652E+03  0.54270262648E+03  0.90779679717E+02 0.  0.
         23    2    1    2    0    0 -0.75322604203E+02  0.20566787267E+02  0.29585398230E+03  0.32034722196E+03  0.94848702297E+02 0.  0.
        -11    1    3    3    0    0 -0.24523071025E+01  0.30351435323E+02  0.81293260372E+02  0.86809087187E+02  0.00000000000E+00 0.  1.
         11    1    3    3    0    0  0.77534909338E+02 -0.26723988722E+02  0.44845633615E+03  0.45589353930E+03  0.00000000000E+00 0. -1.
        -11    1    4    4    0    0  0.18663128901E+02 -0.12046333801E+02  0.38718525051E+02  0.44637996377E+02  0.00000000000E+00 0. -1.
         11    1    4    4    0    0 -0.93985733104E+02  0.32613121068E+02  0.25713545725E+03  0.27570922558E+03  0.00000000000E+00 0.  1.
          1    1    1    2  501    0  0.24000196807E+00 -0.24194233867E+02 -0.26321298425E+02  0.35752332849E+02  0.00000000000E+00 0. -1.
<scales pt_clust_5="13000.00000" pt_clust_6="13000.00000" pt_clust_7="13000.00000" pt_clust_8="13000.00000" pt_clust_9="24.19542"></scales>
<clustering>
<clus scale="   24.195">  2  9  1 -1</clus>
<clus scale="   90.780">  5  6 -1 -1</clus>
<clus scale="   94.849">  7  8 -1 -1</clus>
<clus scale="  117.955">  1  5  2 -1</clus>
<clus scale="   24.195">  2  5  1 -1</clus>
</clustering>
</event>
<event>
 9    1  0.3231311E-005  0.1072354E+03  0.7546771E-02  0.1266118E+00
         21   -1    0    0  501  502  0.00000000000E+00  0.00000000000E+00  0.56497203633E+02  0.56497203633E+02  0.00000000000E+00 0. -1.
         -1   -1    0    0    0  501 -0.00000000000E+00 -0.00000000000E+00 -0.30455912681E+03  0.30455912681E+03  0.00000000000E+00 0.  1.
         23    2    1    2    0    0  0.47018334935E+02  0.13486493261E+02 -0.11394655321E+03  0.15402368258E+03  0.91361197922E+02 0.  0.
         23    2    1    2    0    0 -0.41452628122E+02 -0.54172418110E+02 -0.11240989025E+03  0.16058429565E+03  0.92186557172E+02 0.  0.
        -11    1    3    3    0    0  0.49559502820E+02 -0.30722054443E+02 -0.53822439302E+02  0.79352655415E+02  0.00000000000E+00 0. -1.
         11    1    3    3    0    0 -0.25411678848E+01  0.44208547704E+02 -0.60124113913E+02  0.74671027166E+02  0.00000000000E+00 0.  1.
        -11    1    4    4    0    0 -0.22994243685E+02 -0.70142119155E+02 -0.11434395562E+03  0.13609993500E+03  0.00000000000E+00 0.  1.
         11    1    4    4    0    0 -0.18458384438E+02  0.15969701046E+02  0.19340653699E+01  0.24484360649E+02  0.00000000000E+00 0. -1.
         -1    1    1    2    0  502 -0.55657068131E+01  0.40685924849E+02 -0.21705479716E+02  0.46448352208E+02  0.00000000000E+00 0.  1.
<scales pt_clust_5="13000.00000" pt_clust_6="13000.00000" pt_clust_7="13000.00000" pt_clust_8="13000.00000" pt_clust_9="41.06485"></scales>
<clustering>
<clus scale="   41.065">  1  9  2 -1</clus>
<clus scale="   91.361">  5  6 -1 -1</clus>
<clus scale="   92.187">  7  8 -1 -1</clus>
<clus scale="  106.527">  2  5  1 -1</clus>
<clus scale="   41.065">  1  5  2 -1</clus>
</clustering>
</event>
<event>
 9    1  0.3231311E-005  0.1033271E+03  0.7546771E-02  0.1277350E+00
          3   -1    0    0  502    0 -0.00000000000E+00  0.00000000000E+00  0.14083770891E+03  0.14083770891E+03  0.00000000000E+00 0. -1.
         21   -1    0    0  501  502  0.00000000000E+00 -0.00000000000E+00 -0.15880656831E+03  0.15880656831E+03  0.00000000000E+00 0.  1.
         23    2    1    2    0    0 -0.25625451656E+02 -0.13268179036E+02  0.79796937701E+02  0.13173177907E+03  0.10076210599E+03 0.  0.
         23    2    1    2    0    0  0.95242873042E+01 -0.22073298615E+01 -0.32784265733E+02  0.99200502924E+02  0.93114699951E+02 0.  0.
        -11    1    4    4    0    0 -0.26450968444E+02 -0.35396989418E+02 -0.20633434898E+02  0.48768219438E+02  0.00000000000E+00 0. -1.
         11    1    4    4    0    0  0.35975255748E+02  0.33189659556E+02 -0.12150830836E+02  0.50432283486E+02  0.00000000000E+00 0.  1.
        -11    1    3    3    0    0  0.28413571021E+02  0.43499559139E+01 -0.54666844795E+01  0.29259832088E+02  0.00000000000E+00 0.  1.
         11    1    3    3    0    0 -0.54039022676E+02 -0.17618134950E+02  0.85263622181E+02  0.10247194698E+03  0.00000000000E+00 0. -1.
          3    1    1    2  501    0  0.16101164351E+02  0.15475508897E+02 -0.64981531364E+02  0.68711995223E+02  0.00000000000E+00 0. -1.
<scales pt_clust_5="13000.00000" pt_clust_6="13000.00000" pt_clust_7="13000.00000" pt_clust_8="13000.00000" pt_clust_9="22.33246"></scales>
<clustering>
<clus scale="   22.332">  2  9  1 -1</clus>
<clus scale="   93.115">  5  6 -1 -1</clus>
<clus scale="   95.885">  2  5  1 -1</clus>
<clus scale="  100.762">  7  8 -1 -1</clus>
<clus scale="   22.332">  2  5  1 -1</clus>
</clustering>
</event>
<event>
 9    1  0.3231311E-005  0.9288835E+02  0.7546771E-02  0.1297803E+00
         21   -1    0    0  501  502  0.00000000000E+00  0.00000000000E+00  0.83500361110E+02  0.83500361110E+02  0.00000000000E+00 0.  1.
          2   -1    0    0  502    0 -0.00000000000E+00 -0.00000000000E+00 -0.34501749654E+03  0.34501749654E+03  0.00000000000E+00 0. -1.
         23    2    1    2    0    0  0.34208316036E+01 -0.11328695900E+02 -0.26140098967E+03  0.27723873670E+03  0.91601300693E+02 0.  0.
         23    2    1    2    0    0 -0.41327698315E+02  0.12657675801E+02 -0.30023440839E+02  0.10297650165E+03  0.88513035696E+02 0.  0.
        -11    1    4    4    0    0  0.10731247047E+02 -0.29413277241E+02 -0.61164575052E+01  0.31901592338E+02  0.00000000000E+00 0.  1.
         11    1    4    4    0    0 -0.52058945362E+02  0.42070953042E+02 -0.23906983333E+02  0.71074909315E+02  0.00000000000E+00 0. -1.
        -11    1    3    3    0    0  0.22722481609E+02  0.35043535459E+02 -0.13108427810E+03  0.13757706391E+03  0.00000000000E+00 0. -1.
         11    1    3    3    0    0 -0.19301650006E+02 -0.46372231359E+02 -0.13031671157E+03  0.13966167280E+03  0.00000000000E+00 0.  1.
          2    1    1    2  501    0  0.37906866712E+02 -0.13289799006E+01  0.29907295080E+02  0.48302619292E+02  0.00000000000E+00 0. -1.
<scales pt_clust_5="13000.00000" pt_clust_6="13000.00000" pt_clust_7="13000.00000" pt_clust_8="13000.00000" pt_clust_9="37.93016"></scales>
<clustering>
<clus scale="   37.930">  1  9  2 -1</clus>
<clus scale="   88.513">  5  6 -1 -1</clus>
<clus scale="   89.844">  1  5  2 -1</clus>
<clus scale="   91.601">  7  8 -1 -1</clus>
<clus scale="   37.930">  1  5  2 -1</clus>
</clustering>
</event>
<event>
 9    1  0.3231311E-005  0.1871442E+03  0.7546771E-02  0.1161195E+00
         -3   -1    0    0    0  501 -0.00000000000E+00  0.00000000000E+00  0.52339286946E+03  0.52339286946E+03  0.00000000000E+00 0.  1.
         21   -1    0    0  501  502  0.00000000000E+00 -0.00000000000E+00 -0.11540903715E+03  0.11540903715E+03  0.00000000000E+00 0.  1.
         23    2    1    2    0    0 -0.13915373864E+03 -0.14397313897E+03  0.31963881620E+03  0.38848228054E+03  0.93045589625E+02 0.  0.
         23    2    1    2    0    0  0.71565559583E+02  0.81295760003E+02  0.53184793062E+02  0.15166438258E+03  0.91884888955E+02 0.  0.
        -11    1    4    4    0    0  0.33704948427E+02  0.14896908444E+02 -0.23248098808E+02  0.43570810502E+02  0.00000000000E+00 0.  1.
         11    1    4    4    0    0  0.37860611156E+02  0.66398851560E+02  0.76432891871E+02  0.10809357208E+03  0.00000000000E+00 0. -1.
        -13    1    3    3    0    0 -0.27879116509E+02  0.11031573377E+02  0.43673950815E+02  0.52975038728E+02  0.00000000000E+00 0. -1.
         13    1    3    3    0    0 -0.11127462213E+03 -0.15500471235E+03  0.27596486539E+03  0.33550724181E+03  0.00000000000E+00 0.  1.
         -3    1    1    2    0  502  0.67588179059E+02  0.62677378971E+02  0.35160223040E+02  0.98655243486E+02  0.00000000000E+00 0.  1.
<scales pt_clust_5="13000.00000" pt_clust_6="13000.00000" pt_clust_7="13000.00000" pt_clust_8="13000.00000" pt_clust_9="92.17709"></scales>
<clustering>
<clus scale="   91.885">  5  6 -1 -1</clus>
<clus scale="   92.177">  2  9  1 -1</clus>
<clus scale="   93.046">  7  8 -1 -1</clus>
<clus scale="  186.570">  2  5  1 -1</clus>
<clus scale="   92.177">  2  5  1 -1</clus>
</clustering>
</event>
<event>
 9    1  0.3231311E-005  0.1004006E+03  0.7546771E-02  0.1279590E+00
          1   -1    0    0  502    0 -0.00000000000E+00  0.00000000000E+00  0.35529910588E+03  0.35529910588E+03  0.00000000000E+00 0. -1.
         21   -1    0    0  501  502  0.00000000000E+00 -0.00000000000E+00 -0.53281585047E+02  0.53281585047E+02  0.00000000000E+00 0. -1.
         23    2    1    2    0    0 -0.38766541784E+01  0.19457836973E+02  0.13194267741E+03  0.16156740008E+03  0.91112670797E+02 0.  0.
         23    2    1    2    0    0  0.13710282402E+02 -0.69153686561E+02  0.15716684722E+03  0.19473524502E+03  0.90830576222E+02 0.  0.
        -11    1    3    3    0    0  0.19526344548E-01 -0.29223702210E+02  0.11155103693E+02  0.31280369092E+02  0.00000000000E+00 0.  1.
         11    1    3    3    0    0 -0.38961805230E+01  0.48681539183E+02  0.12078757371E+03  0.13028703099E+03  0.00000000000E+00 0. -1.
        -13    1    4    4    0    0 -0.29685383115E+02 -0.12376096353E+02  0.94026717863E+02  0.99375114610E+02  0.00000000000E+00 0. -1.
         13    1    4    4    0    0  0.43395665517E+02 -0.56777590208E+02  0.63140129362E+02  0.95360130408E+02  0.00000000000E+00 0.  1.
          1    1    1    2  501    0 -0.98336282238E+01  0.49695849588E+02  0.12907996206E+02  0.52278045835E+02  0.00000000000E+00 0. -1.
<scales pt_clust_5="13000.00000" pt_clust_6="13000.00000" pt_clust_7="13000.00000" pt_clust_8="13000.00000" pt_clust_9="50.65943"></scales>
<clustering>
<clus scale="   50.659">  2  9  1 -1</clus>
<clus scale="   90.831">  7  8 -1 -1</clus>
<clus scale="   91.113">  5  6 -1 -1</clus>
<clus scale="  100.145">  2  7  1 -1</clus>
<clus scale="   50.659">  2  5  1 -1</clus>
</clustering>
</event>
<event>
 9    1  0.3231311E-005  0.9417990E+02  0.7546771E-02  0.1293326E+00
         21   -1    0    0  501  502  0.00000000000E+00  0.00000000000E+00  0.93308452461E+02  0.93308452461E+02  0.00000000000E+00 0. -1.
          2   -1    0    0  502    0 -0.00000000000E+00 -0.00000000000E+00 -0.36351347107E+03  0.36351347107E+03  0.00000000000E+00 0. -1.
         23    2    1    2    0    0 -0.13992148397E+01  0.23842287612E+02 -0.24673999399E+03  0.26403268349E+03  0.90896759195E+02 0.  0.
         23    2    1    2    0    0 -0.33744387507E+02 -0.31317481472E+02  0.48450863710E+02  0.11239741022E+03  0.90367158280E+02 0.  0.
        -11    1    3    3    0    0  0.37326016870E+02  0.66932110253E+01 -0.18697950716E+03  0.19078618060E+03  0.00000000000E+00 0. -1.
         11    1    3    3    0    0 -0.38725231710E+02  0.17149076587E+02 -0.59760486832E+02  0.73246502887E+02  0.00000000000E+00 0.  1.
        -13    1    4    4    0    0 -0.55271311225E+02  0.56037492602E+01  0.13459841372E+02  0.57161938211E+02  0.00000000000E+00 0. -1.
         13    1    4    4    0    0  0.21526923718E+02 -0.36921230732E+02  0.34991022338E+02  0.55235472007E+02  0.00000000000E+00 0.  1.
          2    1    1    2  501    0  0.35143602347E+02  0.74751938598E+01 -0.71915888328E+02  0.80391829829E+02  0.00000000000E+00 0. -1.
<scales pt_clust_5="13000.00000" pt_clust_6="13000.00000" pt_clust_7="13000.00000" pt_clust_8="13000.00000" pt_clust_9="35.92983"></scales>
<clustering>
<clus scale="   35.930">  1  9  2 -1</clus>
<clus scale="   90.367">  7  8 -1 -1</clus>
<clus scale="   90.897">  5  6 -1 -1</clus>
<clus scale="   93.669">  1  7  2 -1</clus>
<clus scale="   35.930">  1  5  2 -1</clus>
</clustering>
</event>
<event>
 9    1  0.3231311E-005  0.1705549E+03  0.7546771E-02  0.1177737E+00
         -1   -1    0    0    0  501 -0.00000000000E+00  0.00000000000E+00  0.46192425399E+02  0.46192425399E+02  0.00000000000E+00 0.  1.
         21   -1    0    0  501  502  0.00000000000E+00 -0.00000000000E+00 -0.74599404645E+03  0.74599404645E+03  0.00000000000E+00 0. -1.
         23    2    1    2    0    0 -0.11421201907E+03 -0.73782456183E+02 -0.24775577754E+03  0.29658217321E+03  0.89943449007E+02 0.  0.
         23    2    1    2    0    0  0.12437979950E+03  0.91050444392E+02 -0.42754392963E+03  0.46395132154E+03  0.93255021573E+02 0.  0.
        -11    1    3    3    0    0 -0.12845630158E+03 -0.55857847134E+02 -0.21015709428E+03  0.25256113078E+03  0.00000000000E+00 0.  1.
         11    1    3    3    0    0  0.14244282513E+02 -0.17924609049E+02 -0.37598683260E+02  0.44021042431E+02  0.00000000000E+00 0. -1.
        -13    1    4    4    0    0  0.87609173735E+01  0.59605857401E+02 -0.15017335363E+03  0.16180744127E+03  0.00000000000E+00 0.  1.
         13    1    4    4    0    0  0.11561888212E+03  0.31444586991E+02 -0.27737057600E+03  0.30214388027E+03  0.00000000000E+00 0. -1.
         -1    1    1    2    0  502 -0.10167780429E+02 -0.17267988209E+02 -0.24501913884E+02  0.31652977106E+02  0.00000000000E+00 0.  1.
<scales pt_clust_5="13000.00000" pt_clust_6="13000.00000" pt_clust_7="13000.00000" pt_clust_8="13000.00000" pt_clust_9="20.03915"></scales>
<clustering>
<clus scale="   20.039">  2  9  1 -1</clus>
<clus scale="   89.943">  5  6 -1 -1</clus>
<clus scale="   93.255">  7  8 -1 -1</clus>
<clus scale="  168.767">  1  5  2 -1</clus>
<clus scale="   20.039">  2  5  1 -1</clus>
</clustering>
</event>
<event>
 9    1  0.3231311E-005  0.1094166E+03  0.7546771E-02  0.1262940E+00
         -4   -1    0    0    0  501 -0.00000000000E+00  0.00000000000E+00  0.24682931848E+03  0.24682931848E+03  0.00000000000E+00 0.  1.
         21   -1    0    0  501  502  0.00000000000E+00 -0.00000000000E+00 -0.10842798463E+03  0.10842798463E+03  0.00000000000E+00 0. -1.
         23    2    1    2    0    0 -0.26164965898E+02  0.48594348234E+02  0.15605558574E+03  0.19062514447E+03  0.94544083599E+02 0.  0.
         23    2    1    2    0    0  0.59068105757E+02 -0.26109965364E+02  0.15272919329E+02  0.11293725861E+03  0.91382661967E+02 0.  0.
        -11    1    4    4    0    0  0.83211475444E+02 -0.12930874313E+02  0.14285816075E+02  0.85413357837E+02  0.00000000000E+00 0. -1.
         11    1    4    4    0    0 -0.24143369688E+02 -0.13179091051E+02  0.98710325462E+00  0.27523900771E+02  0.00000000000E+00 0.  1.
        -11    1    3    3    0    0 -0.46784999247E+02  0.49968391408E+02  0.55949690380E+02  0.88408394104E+02  0.00000000000E+00 0. -1.
         11    1    3    3    0    0  0.20620033350E+02 -0.13740431742E+01  0.10010589536E+03  0.10221675036E+03  0.00000000000E+00 0.  1.
         -4    1    1    2    0  502 -0.32903139859E+02 -0.22484382870E+02 -0.32927171211E+02  0.51694900035E+02  0.00000000000E+00 0.  1.
<scales pt_clust_5="13000.00000" pt_clust_6="13000.00000" pt_clust_7="13000.00000" pt_clust_8="13000.00000" pt_clust_9="39.85178"></scales>
<clustering>
<clus scale="   39.852">  2  9  1 -1</clus>
<clus scale="   91.383">  5  6 -1 -1</clus>
<clus scale="   94.544">  7  8 -1 -1</clus>
<clus scale="  106.697">  2  5  1 -1</clus>
<clus scale="   39.852">  2  5  1 -1</clus>
</clustering>
</event>
<event>
 9    1  0.3231311E-005  0.1108292E+03  0.7546771E-02  0.1259857E+00
          3   -1    0    0  502    0 -0.00000000000E+00  0.00000000000E+00  0.16215195432E+03  0.16215195432E+03  0.00000000000E+00 0. -1.
         21   -1    0    0  501  502  0.00000000000E+00 -0.00000000000E+00 -0.11728949153E+03  0.11728949153E+03  0.00000000000E+00 0. -1.
         23    2    1    2    0    0 -0.25017959913E+02 -0.62418890184E+02  0.49384310146E+02  0.12249532506E+03  0.89689901339E+02 0.  0.
         23    2    1    2    0    0  0.29230497259E+01  0.58029227426E+02  0.32665315717E+02  0.11346808849E+03  0.91826187981E+02 0.  0.
        -11    1    4    4    0    0 -0.40301231317E+02  0.49476800387E+02  0.12569276787E+02  0.65039447577E+02  0.00000000000E+00 0. -1.
         11    1    4    4    0    0  0.43224281043E+02  0.85524270387E+01  0.20096038929E+02  0.48428640912E+02  0.00000000000E+00 0.  1.
        -13    1    3    3    0    0 -0.47068507025E+02 -0.49858698400E+02  0.18266176537E+01  0.68590602066E+02  0.00000000000E+00 0. -1.
         13    1    3    3    0    0  0.22050547112E+02 -0.12560191784E+02  0.47557692492E+02  0.53904722991E+02  0.00000000000E+00 0.  1.
          3    1    1    2  501    0  0.22094910187E+02  0.43896627578E+01 -0.37187163079E+02  0.43478032306E+02  0.00000000000E+00 0. -1.
<scales pt_clust_5="13000.00000" pt_clust_6="13000.00000" pt_clust_7="13000.00000" pt_clust_8="13000.00000" pt_clust_9="22.52674"></scales>
<clustering>
<clus scale="   22.527">  2  9  1 -1</clus>
<clus scale="   89.690">  7  8 -1 -1</clus>
<clus scale="   91.826">  5  6 -1 -1</clus>
<clus scale="  109.066">  1  7  2 -1</clus>
<clus scale="   22.527">  2  5  1 -1</clus>
</clustering>
</event>
<event>
 9    1  0.3231311E-005  0.1049143E+03  0.7546771E-02  0.1271183E+00
         21   -1    0    0  501  502  0.00000000000E+00  0.00000000000E+00  0.80324152044E+02  0.80324152044E+02  0.00000000000E+00 0. -1.
          1   -1    0    0  502    0 -0.00000000000E+00 -0.00000000000E+00 -0.33263617050E+03  0.33263617050E+03  0.00000000000E+00 0. -1.
         23    2    1    2    0    0  0.30314910718E+02  0.46091711481E+02 -0.14482418265E+03  0.17944023458E+03  0.90450617616E+02 0.  0.
         23    2    1    2    0    0  0.54240236746E+02 -0.56103224553E+02 -0.75089983085E+02  0.14241891224E+03  0.92493599326E+02 0.  0.
        -11    1    4    4    0    0 -0.16850961367E+01 -0.51864071970E+02 -0.68516837266E+02  0.85949278643E+02  0.00000000000E+00 0.  1.
         11    1    4    4    0    0  0.55925332882E+02 -0.42391525832E+01 -0.65731458193E+01  0.56469633597E+02  0.00000000000E+00 0. -1.
        -13    1    3    3    0    0 -0.24794785751E+02  0.30217605390E+02 -0.97643268024E+02  0.10517648438E+03  0.00000000000E+00 0.  1.
         13    1    3    3    0    0  0.55109696470E+02  0.15874106092E+02 -0.47180914628E+02  0.74263750204E+02  0.00000000000E+00 0. -1.
          1    1    1    2  501    0 -0.84555147464E+02  0.10011513072E+02 -0.32397852714E+02  0.91101175718E+02  0.00000000000E+00 0. -1.
<scales pt_clust_5="13000.00000" pt_clust_6="13000.00000" pt_clust_7="13000.00000" pt_clust_8="13000.00000" pt_clust_9="85.14578"></scales>
<clustering>
<clus scale="   85.146">  1  9  2 -1</clus>
<clus scale="   90.451">  7  8 -1 -1</clus>
<clus scale="   92.494">  5  6 -1 -1</clus>
<clus scale="  103.118">  2  7  1 -1</clus>
<clus scale="   85.146">  1  5  2 -1</clus>
</clustering>
</event>
<event>
 9    1  0.3231311E-005  0.9149471E+02  0.7546771E-02  0.1299451E+00
          1   -1    0    0  502    0 -0.00000000000E+00  0.00000000000E+00  0.22561091107E+03  0.22561091107E+03  0.00000000000E+00 0. -1.
         21   -1    0    0  501  502  0.00000000000E+00 -0.00000000000E+00 -0.79563691959E+02  0.79563691959E+02  0.00000000000E+00 0.  1.
         23    2    1    2    0    0  0.10442191285E+02  0.19819469942E+02  0.11544457495E+03  0.14869906344E+03  0.91006103285E+02 0.  0.
         23    2    1    2    0    0  0.21794696219E+01  0.93690207018E+01  0.63176054020E+02  0.11095300298E+03  0.90701854617E+02 0.  0.
        -13    1    4    4    0    0  0.14652322980E+02 -0.14896209649E+02 -0.16570942214E+02  0.26668028732E+02  0.00000000000E+00 0.  1.
         13    1    4    4    0    0 -0.12472853358E+02  0.24265230351E+02  0.79746996233E+02  0.84284974243E+02  0.00000000000E+00 0. -1.
        -13    1    3    3    0    0  0.48899692479E+02 -0.44251918467E+00  0.73583862270E+02  0.88351347100E+02  0.00000000000E+00 0.  1.
         13    1    3    3    0    0 -0.38457501194E+02  0.20261989127E+02  0.41860712676E+02  0.60347716338E+02  0.00000000000E+00 0. -1.
          1    1    1    2  501    0 -0.12621660907E+02 -0.29188490644E+02 -0.32573409857E+02  0.45522536614E+02  0.00000000000E+00 0. -1.
<scales pt_clust_5="13000.00000" pt_clust_6="13000.00000" pt_clust_7="13000.00000" pt_clust_8="13000.00000" pt_clust_9="31.80054"></scales>
<clustering>
<clus scale="   31.801">  2  9  1 -1</clus>
<clus scale="   90.702">  5  6 -1 -1</clus>
<clus scale="   91.006">  7  8 -1 -1</clus>
<clus scale="   91.192">  2  5  1 -1</clus>
<clus scale="   31.801">  2  5  1 -1</clus>
</clustering>
</event>
<event>
 9    1  0.3231311E-005  0.1156418E+03  0.7546771E-02  0.1257325E+00
          1   -1    0    0  502    0 -0.00000000000E+00  0.00000000000E+00  0.67129832399E+03  0.67129832399E+03  0.00000000000E+00 0. -1.
         21   -1    0    0  501  502  0.00000000000E+00 -0.00000000000E+00 -0.36176409584E+02  0.36176409584E+02  0.00000000000E+00 0. -1.
         23    2    1    2    0    0 -0.40218001576E+02 -0.79880086081E+01  0.48130278792E+03  0.49487878151E+03  0.10757015756E+03 0.  0.
         23    2    1    2    0    0  0.36548607055E+02  0.36995429842E+02  0.14976774699E+03  0.18307801483E+03  0.91557189615E+02 0.  0.
        -11    1    4    4    0    0 -0.14559127201E+02  0.50391325288E+02  0.75816514077E+02  0.92192177846E+02  0.00000000000E+00 0. -1.
         11    1    4    4    0    0  0.51107734256E+02 -0.13395895446E+02  0.73951232908E+02  0.90885836983E+02  0.00000000000E+00 0.  1.
        -11    1    3    3    0    0 -0.66233788996E+02 -0.28169115881E+02  0.41091317157E+03  0.41716908858E+03  0.00000000000E+00 0. -1.
         11    1    3    3    0    0  0.26015787420E+02  0.20181107273E+02  0.70389616349E+02  0.77709692932E+02  0.00000000000E+00 0.  1.
          1    1    1    2  501    0  0.36693945218E+01 -0.29007421234E+02  0.40513795021E+01  0.29517937236E+02  0.00000000000E+00 0. -1.
<scales pt_clust_5="13000.00000" pt_clust_6="13000.00000" pt_clust_7="13000.00000" pt_clust_8="13000.00000" pt_clust_9="29.23859"></scales>
<clustering>
<clus scale="   29.239">  2  9  1 -1</clus>
<clus scale="   91.557">  5  6 -1 -1</clus>
<clus scale="  100.918">  2  5  1 -1</clus>
<clus scale="  107.570">  7  8 -1 -1</clus>
<clus scale="   29.239">  2  5  1 -1</clus>
</clustering>
</event>
<event>
 9    1  0.3231311E-005  0.1057003E+03  0.7546771E-02  0.1269990E+00
         21   -1    0    0  501  502  0.00000000000E+00  0.00000000000E+00  0.21974199794E+03  0.21974199794E+03  0.00000000000E+00 0. -1.
          1   -1    0    0  502    0 -0.00000000000E+00 -0.00000000000E+00 -0.23640684570E+03  0.23640684570E+03  0.00000000000E+00 0. -1.
         23    2    1    2    0    0  0.21343609839E+02  0.53932954044E+02 -0.19092320074E+03  0.21766477964E+03  0.86959614202E+02 0.  0.
         23    2    1    2    0    0  0.62815294732E+01 -0.45049178331E+02  0.53123130804E+02  0.11392158231E+03  0.89928715148E+02 0.  0.
        -11    1    3    3    0    0  0.47661069331E+02  0.10033632853E+02 -0.12535425087E+03  0.13448397499E+03  0.00000000000E+00 0. -1.
         11    1    3    3    0    0 -0.26317459492E+02  0.43899321190E+02 -0.65568949864E+02  0.83180804644E+02  0.00000000000E+00 0.  1.
        -13    1    4    4    0    0 -0.26996708026E+02 -0.38611159851E+02  0.62952462874E+02  0.78629870222E+02  0.00000000000E+00 0.  1.
         13    1    4    4    0    0  0.33278237499E+02 -0.64380184801E+01 -0.98293320691E+01  0.35291712086E+02  0.00000000000E+00 0. -1.
          1    1    1    2  501    0 -0.27625139313E+02 -0.88837757129E+01  0.12113522217E+03  0.12456248169E+03  0.00000000000E+00 0. -1.
<scales pt_clust_5="13000.00000" pt_clust_6="13000.00000" pt_clust_7="13000.00000" pt_clust_8="13000.00000" pt_clust_9="29.01844"></scales>
<clustering>
<clus scale="   29.018">  1  9  2 -1</clus>
<clus scale="   86.960">  5  6 -1 -1</clus>
<clus scale="   89.929">  7  8 -1 -1</clus>
<clus scale="  103.186">  2  5  1 -1</clus>
<clus scale="   29.018">  1  5  2 -1</clus>
</clustering>
</event>
<event>
 9    1  0.3231311E-005  0.9397586E+02  0.7546771E-02  0.1294095E+00
          2   -1    0    0  502    0 -0.00000000000E+00  0.00000000000E+00  0.11830984885E+03  0.11830984885E+03  0.00000000000E+00 0. -1.
         21   -1    0    0  501  502  0.00000000000E+00 -0.00000000000E+00 -0.22780863606E+03  0.22780863606E+03  0.00000000000E+00 0. -1.
         23    2    1    2    0    0  0.12425759639E+02  0.51945109752E+01  0.12038019966E+02  0.91750851973E+02  0.89955113619E+02 0.  0.
         23    2    1    2    0    0  0.29755202833E+02 -0.40981056623E+02  0.16680804189E+02  0.10549178354E+03  0.91024436658E+02 0.  0.
        -13    1    3    3    0    0 -0.24372477923E+01  0.44533475419E+02  0.20119684349E+02  0.48928236305E+02  0.00000000000E+00 0.  1.
         13    1    3    3    0    0  0.14863007431E+02 -0.39338964443E+02 -0.80816643831E+01  0.42822615667E+02  0.00000000000E+00 0. -1.
        -13    1    4    4    0    0  0.37919497400E+02 -0.21441206037E+02  0.49810718515E+02  0.66171907018E+02  0.00000000000E+00 0. -1.
         13    1    4    4    0    0 -0.81642945669E+01 -0.19539850586E+02 -0.33129914326E+02  0.39319876525E+02  0.00000000000E+00 0.  1.
          2    1    1    2  501    0 -0.42180962472E+02  0.35786545647E+02 -0.13821761136E+03  0.14887584940E+03  0.00000000000E+00 0. -1.
<scales pt_clust_5="13000.00000" pt_clust_6="13000.00000" pt_clust_7="13000.00000" pt_clust_8="13000.00000" pt_clust_9="55.31646"></scales>
<clustering>
<clus scale="   55.316">  2  9  1 -1</clus>
<clus scale="   89.955">  5  6 -1 -1</clus>
<clus scale="   91.024">  7  8 -1 -1</clus>
<clus scale="   92.941">  1  5  2 -1</clus>
<clus scale="   55.316">  2  5  1 -1</clus>
</clustering>
</event>
<event>
 9    1  0.3231311E-005  0.1857276E+03  0.7546771E-02  0.1183886E+00
         21   -1    0    0  501  502  0.00000000000E+00  0.00000000000E+00  0.27773367000E+03  0.27773367000E+03  0.00000000000E+00 0. -1.
          3   -1    0    0  502    0 -0.00000000000E+00 -0.00000000000E+00 -0.51153983934E+03  0.51153983934E+03  0.00000000000E+00 0. -1.
         23    2    1    2    0    0  0.14205733443E+02 -0.27364130301E+02 -0.17885300810E+03  0.21201118211E+03  0.10958897912E+03 0.  0.
         23    2    1    2    0    0 -0.21046618709E+02  0.17559930382E+03 -0.25459440601E+03  0.32851126493E+03  0.10873483319E+03 0.  0.
        -11    1    3    3    0    0  0.35112734153E+02  0.31589649748E+02 -0.10562677321E+03  0.11570577033E+03  0.00000000000E+00 0. -1.
         11    1    3    3    0    0 -0.20907000710E+02 -0.58953780049E+02 -0.73226234894E+02  0.96305411776E+02  0.00000000000E+00 0.  1.
        -13    1    4    4    0    0 -0.45034398795E+02  0.18651357909E+02 -0.64059497993E+02  0.80495897472E+02  0.00000000000E+00 0.  1.
         13    1    4    4    0    0  0.23987780086E+02  0.15694794592E+03 -0.19053490802E+03  0.24801536746E+03  0.00000000000E+00 0. -1.
          3    1    1    2  501    0  0.68408852665E+01 -0.14823517352E+03  0.19964124478E+03  0.24875106230E+03  0.00000000000E+00 0. -1.
<scales pt_clust_5="13000.00000" pt_clust_6="13000.00000" pt_clust_7="13000.00000" pt_clust_8="13000.00000" pt_clust_9="150.57052"></scales>
<clustering>
<clus scale="  108.735">  7  8 -1 -1</clus>
<clus scale="  109.589">  5  6 -1 -1</clus>
<clus scale="  113.844">  2  5  1 -1</clus>
<clus scale="  150.571">  1  9  2 -1</clus>
<clus scale="  150.571">  1  5  2 -1</clus>
</clustering>
</event>
<event>
 9    1  0.3231311E-005  0.1023989E+03  0.7546771E-02  0.1284407E+00
         21   -1    0    0  501  502  0.00000000000E+00  0.00000000000E+00  0.16419139499E+03  0.16419139499E+03  0.00000000000E+00 0.  1.
         -3   -1    0    0    0  501 -0.00000000000E+00 -0.00000000000E+00 -0.85612627527E+02  0.85612627527E+02  0.00000000000E+00 0.  1.
         23    2    1    2    0    0 -0.42947916689E+02  0.84642408188E+01 -0.36504616234E+01  0.10077653306E+03  0.90699596608E+02 0.  0.
         23    2    1    2    0    0  0.43328015966E+02 -0.38830611939E+02  0.51533861413E+02  0.10584802018E+03  0.71853539320E+02 0.  0.
        -11    1    3    3    0    0 -0.70516435749E+02 -0.28910053029E+01  0.11040700856E+01  0.70584308406E+02  0.00000000000E+00 0.  1.
         11    1    3    3    0    0  0.27568519061E+02  0.11355246122E+02 -0.47545317090E+01  0.30192224652E+02  0.00000000000E+00 0. -1.
        -13    1    4    4    0    0  0.26210446876E+02 -0.59441898755E+02  0.30407593813E+02  0.71728297167E+02  0.00000000000E+00 0.  1.
         13    1    4    4    0    0  0.17117569090E+02  0.20611286816E+02  0.21126267601E+02  0.34119723013E+02  0.00000000000E+00 0. -1.
         -3    1    1    2    0  502 -0.38009927750E+00  0.30366371120E+02  0.30695367670E+02  0.43179469275E+02  0.00000000000E+00 0.  1.
<scales pt_clust_5="13000.00000" pt_clust_6="13000.00000" pt_clust_7="13000.00000" pt_clust_8="13000.00000" pt_clust_9="30.36875"></scales>
<clustering>
<clus scale="   30.369">  1  9  2 -1</clus>
<clus scale="   71.854">  7  8 -1 -1</clus>
<clus scale="   86.151">  1  7  2 -1</clus>
<clus scale="   90.700">  5  6 -1 -1</clus>
<clus scale="   30.369">  1  5  2 -1</clus>
</clustering>
</event>
<event>
 9    1  0.3231311E-005  0.1526039E+03  0.7546771E-02  0.1197408E+00
         21   -1    0    0  501  502  0.00000000000E+00  0.00000000000E+00  0.59224713824E+02  0.59224713824E+02  0.00000000000E+00 0. -1.
          1   -1    0    0  502    0 -0.00000000000E+00 -0.00000000000E+00 -0.59400931278E+03  0.59400931278E+03  0.00000000000E+00 0. -1.
         23    2    1    2    0    0  0.13561011823E+02  0.13001542251E+03 -0.39593041842E+03  0.42669028769E+03  0.90641018605E+02 0.  0.
         23    2    1    2    0    0 -0.38447324905E+02 -0.10080546510E+03 -0.11169974183E+03  0.17953401936E+03  0.90087142235E+02 0.  0.
        -11    1    3    3    0    0  0.17969819265E+02  0.67856956308E+02 -0.32402059901E+03  0.33153707109E+03  0.00000000000E+00 0. -1.
         11    1    3    3    0    0 -0.44088074426E+01  0.62158466198E+02 -0.71909819408E+02  0.95153216606E+02  0.00000000000E+00 0.  1.
        -13    1    4    4    0    0 -0.55060341292E+01 -0.91486641964E+02 -0.39840763393E+02  0.99937022657E+02  0.00000000000E+00 0. -1.
         13    1    4    4    0    0 -0.32941290775E+02 -0.93188231405E+01 -0.71858978434E+02  0.79596996704E+02  0.00000000000E+00 0.  1.
          1    1    1    2  501    0  0.24886313082E+02 -0.29209957401E+02 -0.27154438710E+02  0.47009719547E+02  0.00000000000E+00 0. -1.
<scales pt_clust_5="13000.00000" pt_clust_6="13000.00000" pt_clust_7="13000.00000" pt_clust_8="13000.00000" pt_clust_9="38.37382"></scales>
<clustering>
<clus scale="   38.374">  1  9  2 -1</clus>
<clus scale="   90.087">  7  8 -1 -1</clus>
<clus scale="   90.641">  5  6 -1 -1</clus>
<clus scale="  152.276">  1  7  2 -1</clus>
<clus scale="   38.374">  1  5  2 -1</clus>
</clustering>
</event>
<event>
 9    1  0.3231311E-005  0.1627934E+03  0.7546771E-02  0.1185643E+00
          1   -1    0    0  502    0 -0.00000000000E+00  0.00000000000E+00  0.53973609773E+03  0.53973609773E+03  0.00000000000E+00 0. -1.
         21   -1    0    0  501  502  0.00000000000E+00 -0.00000000000E+00 -0.58514329718E+02  0.58514329718E+02  0.00000000000E+00 0.  1.
         23    2    1    2    0    0  0.90100150708E+02 -0.85819490004E+02  0.21183502152E+03  0.26127065232E+03  0.88911503192E+02 0.  0.
         23    2    1    2    0    0 -0.10129473826E+03  0.10938002909E+03  0.25001613585E+03  0.30448918651E+03  0.89336340596E+02 0.  0.
        -11    1    4    4    0    0 -0.27613499899E+02  0.92316900516E+02  0.16150877511E+03  0.18806913605E+03  0.00000000000E+00 0.  1.
         11    1    4    4    0    0 -0.73681238356E+02  0.17063128572E+02  0.88507360746E+02  0.11642005046E+03  0.00000000000E+00 0. -1.
        -11    1    3    3    0    0  0.46733213345E+02 -0.43399227868E+02  0.31751219349E+02  0.71243428745E+02  0.00000000000E+00 0.  1.
         11    1    3    3    0    0  0.43366937363E+02 -0.42420262136E+02  0.18008380217E+03  0.19002722358E+03  0.00000000000E+00 0. -1.
          1    1    1    2  501    0  0.11194587547E+02 -0.23560539084E+02  0.19370610633E+02  0.32490588615E+02  0.00000000000E+00 0. -1.
<scales pt_clust_5="13000.00000" pt_clust_6="13000.00000" pt_clust_7="13000.00000" pt_clust_8="13000.00000" pt_clust_9="26.08482"></scales>
<clustering>
<clus scale="   26.085">  2  9  1 -1</clus>
<clus scale="   88.912">  7  8 -1 -1</clus>
<clus scale="   89.336">  5  6 -1 -1</clus>
<clus scale="  162.561">  1  7  2 -1</clus>
<clus scale="   26.085">  2  5  1 -1</clus>
</clustering>
</event>
<event>
 9    1  0.3231311E-005  0.1010900E+03  0.7546771E-02  0.1278289E+00
         21   -1    0    0  501  502  0.00000000000E+00  0.00000000000E+00  0.57511869720E+03  0.57511869720E+03  0.00000000000E+00 0.  1.
         -3   -1    0    0    0  501 -0.00000000000E+00 -0.00000000000E+00 -0.11903665366E+03  0.11903665366E+03  0.00000000000E+00 0.  1.
         23    2    1    2    0    0  0.24411376103E+02  0.24794291457E+02 -0.60186289572E+02  0.11416208395E+03  0.90553408476E+02 0.  0.
         23    2    1    2    0    0 -0.83794911256E+02 -0.46535091147E+02  0.11959176029E+03  0.17830760617E+03  0.91127994756E+02 0.  0.
        -11    1    3    3    0    0 -0.25151128868E+02  0.41265892950E+01  0.85982314429E+01  0.26898654362E+02  0.00000000000E+00 0. -1.
         11    1    3    3    0    0  0.49562504972E+02  0.20667702162E+02 -0.68784521015E+02  0.87263429585E+02  0.00000000000E+00 0.  1.
        -13    1    4    4    0    0 -0.79039151691E+02 -0.25944671123E+02  0.13031993956E+03  0.15460789148E+03  0.00000000000E+00 0. -1.
         13    1    4    4    0    0 -0.47557595648E+01 -0.20590420025E+02 -0.10728179275E+02  0.23699714690E+02  0.00000000000E+00 0.  1.
         -3    1    1    2    0  502  0.59383535153E+02  0.21740799690E+02  0.39667657282E+03  0.40168566074E+03  0.00000000000E+00 0.  1.
<scales pt_clust_5="13000.00000" pt_clust_6="13000.00000" pt_clust_7="13000.00000" pt_clust_8="13000.00000" pt_clust_9="63.23817"></scales>
<clustering>
<clus scale="   63.238">  1  9  2 -1</clus>
<clus scale="   90.553">  5  6 -1 -1</clus>
<clus scale="   91.128">  7  8 -1 -1</clus>
<clus scale="  100.572">  2  5  1 -1</clus>
<clus scale="   63.238">  1  5  2 -1</clus>
</clustering>
</event>
<event>
 9    1  0.3231311E-005  0.1260209E+03  0.7546771E-02  0.1238618E+00
         21   -1    0    0  501  502  0.00000000000E+00  0.00000000000E+00  0.29429370881E+03  0.29429370881E+03  0.00000000000E+00 0.  1.
         -4   -1    0    0    0  501 -0.00000000000E+00 -0.00000000000E+00 -0.16785975801E+03  0.16785975801E+03  0.00000000000E+00 0.  1.
         23    2    1    2    0    0 -0.57720493276E+02  0.48574648927E+02 -0.12071637815E+03  0.16775554801E+03  0.88759946330E+02 0.  0.
         23    2    1    2    0    0  0.22339884555E+02 -0.34823502439E+02  0.13261848398E+03  0.17373962023E+03  0.10433621894E+03 0.  0.
        -11    1    3    3    0    0 -0.25189593575E+02  0.69219375161E+02 -0.99415434348E+02  0.12373061912E+03  0.00000000000E+00 0.  1.
         11    1    3    3    0    0 -0.32530899701E+02 -0.20644726234E+02 -0.21300943801E+02  0.44024928887E+02  0.00000000000E+00 0. -1.
        -11    1    4    4    0    0 -0.18368077269E+02 -0.27220516162E+02 -0.19965310128E+01  0.32898767435E+02  0.00000000000E+00 0.  1.
         11    1    4    4    0    0  0.40707961824E+02 -0.76029862771E+01  0.13461501499E+03  0.14084085280E+03  0.00000000000E+00 0. -1.
         -4    1    1    2    0  502  0.35380608722E+02 -0.13751146489E+02  0.11453184497E+03  0.12065829858E+03  0.00000000000E+00 0.  1.
<scales pt_clust_5="13000.00000" pt_clust_6="13000.00000" pt_clust_7="13000.00000" pt_clust_8="13000.00000" pt_clust_9="37.95894"></scales>
<clustering>
<clus scale="   37.959">  1  9  2 -1</clus>
<clus scale="   88.760">  5  6 -1 -1</clus>
<clus scale="  104.336">  7  8 -1 -1</clus>
<clus scale="  113.462">  2  5  1 -1</clus>
<clus scale="   37.959">  1  5  2 -1</clus>
</clustering>
</event>
<event>
 9    1  0.3231311E-005  0.1062837E+03  0.7546771E-02  0.1268579E+00
         21   -1    0    0  501  502  0.00000000000E+00  0.00000000000E+00  0.14516491489E+03  0.14516491489E+03  0.00000000000E+00 0.  1.
          1   -1    0    0  502    0 -0.00000000000E+00 -0.00000000000E+00 -0.33005368603E+03  0.33005368603E+03  0.00000000000E+00 0. -1.
         23    2    1    2    0    0  0.51668272725E+01 -0.48273479259E+02 -0.29223525524E+03  0.31059541941E+03  0.93332980508E+02 0.  0.
         23    2    1    2    0    0  0.88169938048E+00  0.22772181327E+02  0.89811629268E+02  0.13308951687E+03  0.95537119028E+02 0.  0.
        -13    1    4    4    0    0 -0.43572135065E+02 -0.41230905933E+01  0.26407301232E+02  0.51116302571E+02  0.00000000000E+00 0. -1.
         13    1    4    4    0    0  0.44453834445E+02  0.26895271921E+02  0.63404328036E+02  0.81973214298E+02  0.00000000000E+00 0.  1.
        -13    1    3    3    0    0 -0.15601918262E+02  0.22734746092E+02 -0.12027980336E+03  0.12339983643E+03  0.00000000000E+00 0.  1.
         13    1    3    3    0    0  0.20768745534E+02 -0.71008225351E+02 -0.17195545188E+03  0.18719558299E+03  0.00000000000E+00 0. -1.
          1    1    1    2  501    0 -0.60485266529E+01  0.25501297932E+02  0.17534854833E+02  0.31533664628E+02  0.00000000000E+00 0. -1.
<scales pt_clust_5="13000.00000" pt_clust_6="13000.00000" pt_clust_7="13000.00000" pt_clust_8="13000.00000" pt_clust_9="26.20879"></scales>
<clustering>
<clus scale="   26.209">  1  9  2 -1</clus>
<clus scale="   93.333">  7  8 -1 -1</clus>
<clus scale="   95.537">  5  6 -1 -1</clus>
<clus scale="  104.307">  2  7  1 -1</clus>
<clus scale="   26.209">  1  5  2 -1</clus>
</clustering>
</event>
<event>
 9    1  0.3231311E-005  0.1411374E+03  0.7546771E-02  0.1211843E+00
         -3   -1    0    0    0  501 -0.00000000000E+00  0.00000000000E+00  0.90980962278E+03  0.90980962278E+03  0.00000000000E+00 0.  1.
         21   -1    0    0  501  502  0.00000000000E+00 -0.00000000000E+00 -0.50271867966E+02  0.50271867966E+02  0.00000000000E+00 0. -1.
         23    2    1    2    0    0 -0.90087412173E+02  0.61413931273E+02  0.64644652000E+03  0.66189976952E+03  0.91273155369E+02 0.  0.
         23    2    1    2    0    0  0.60893446209E+02 -0.85806757773E+02  0.82107214849E+02  0.16178483299E+03  0.91443567208E+02 0.  0.
        -13    1    4    4    0    0  0.11249386482E+02 -0.87067930569E+02  0.65093707749E+02  0.10929118912E+03  0.00000000000E+00 0.  1.
         13    1    4    4    0    0  0.49644059728E+02  0.12611727964E+01  0.17013507099E+02  0.52493643871E+02  0.00000000000E+00 0. -1.
        -13    1    3    3    0    0 -0.50958852825E+02  0.81744043890E+02  0.39207758959E+03  0.40373720370E+03  0.00000000000E+00 0.  1.
         13    1    3    3    0    0 -0.39128559348E+02 -0.20330112616E+02  0.25436893041E+03  0.25816256583E+03  0.00000000000E+00 0. -1.
         -3    1    1    2    0  502  0.29193965963E+02  0.24392826499E+02  0.13098401997E+03  0.13639688823E+03  0.00000000000E+00 0.  1.
<scales pt_clust_5="13000.00000" pt_clust_6="13000.00000" pt_clust_7="13000.00000" pt_clust_8="13000.00000" pt_clust_9="38.04338"></scales>
<clustering>
<clus scale="   38.043">  2  9  1 -1</clus>
<clus scale="   91.273">  7  8 -1 -1</clus>
<clus scale="   91.444">  5  6 -1 -1</clus>
<clus scale="  141.027">  1  7  2 -1</clus>
<clus scale="   38.043">  2  5  1 -1</clus>
</clustering>
</event>
<event>
 9    1  0.3231311E-005  0.1116639E+03  0.7546771E-02  0.1258964E+00
         -2   -1    0    0    0  501 -0.00000000000E+00  0.00000000000E+00  0.42807729359E+02  0.42807729359E+02  0.00000000000E+00 0.  1.
         21   -1    0    0  501  502  0.00000000000E+00 -0.00000000000E+00 -0.48044440211E+03  0.48044440211E+03  0.00000000000E+00 0. -1.
         23    2    1    2    0    0  0.53812399348E+02  0.60744139550E+01 -0.96129807341E+02  0.14461578154E+03  0.93488563908E+02 0.  0.
         23    2    1    2    0    0 -0.68741623608E+02 -0.24045044740E+02 -0.17006774915E+03  0.20561266401E+03  0.89721532005E+02 0.  0.
        -11    1    3    3    0    0  0.21173132152E+02 -0.43673525365E+02 -0.43940831793E+02  0.65471177183E+02  0.00000000000E+00 0. -1.
         11    1    3    3    0    0  0.32639267196E+02  0.49747939320E+02 -0.52188975548E+02  0.79144604355E+02  0.00000000000E+00 0.  1.
        -13    1    4    4    0    0 -0.46259225032E+02  0.29870195176E+02 -0.63214445696E+02  0.83834423748E+02  0.00000000000E+00 0.  1.
         13    1    4    4    0    0 -0.22482398576E+02 -0.53915239917E+02 -0.10685330346E+03  0.12177824026E+03  0.00000000000E+00 0. -1.
         -2    1    1    2    0  502  0.14929224260E+02  0.17970630786E+02 -0.17143911626E+03  0.17302368592E+03  0.00000000000E+00 0.  1.
<scales pt_clust_5="13000.00000" pt_clust_6="13000.00000" pt_clust_7="13000.00000" pt_clust_8="13000.00000" pt_clust_9="23.36290"></scales>
<clustering>
<clus scale="   23.363">  2  9  1 -1</clus>
<clus scale="   89.722">  7  8 -1 -1</clus>
<clus scale="   93.489">  5  6 -1 -1</clus>
<clus scale="  108.530">  2  7  1 -1</clus>
<clus scale="   23.363">  2  5  1 -1</clus>
</clustering>
</event>
<event>
 9    1  0.3231311E-005  0.1410861E+03  0.7546771E-02  0.1212166E+00
          2   -1    0    0  502    0 -0.00000000000E+00  0.00000000000E+00  0.63976479514E+03  0.63976479514E+03  0.00000000000E+00 0. -1.
         21   -1    0    0  501  502  0.00000000000E+00 -0.00000000000E+00 -0.42954274197E+02  0.42954274197E+02  0.00000000000E+00 0. -1.
         23    2    1    2    0    0 -0.11641607310E+03  0.39612318246E+02  0.39971170732E+03  0.42781531142E+03  0.90192316076E+02 0.  0.
         23    2    1    2    0    0  0.80582839345E+02 -0.26216350444E+02  0.14034197229E+03  0.18645807411E+03  0.88824845540E+02 0.  0.
        -11    1    4    4    0    0  0.16254030483E+02 -0.48905072571E+02  0.81216383164E+02  0.96187319977E+02  0.00000000000E+00 0.  1.
         11    1    4    4    0    0  0.64328808861E+02  0.22688722127E+02  0.59125589128E+02  0.90270754129E+02  0.00000000000E+00 0. -1.
        -13    1    3    3    0    0 -0.56007999650E+02 -0.15014410954E+02  0.86133726933E+02  0.10383326768E+03  0.00000000000E+00 0.  1.
         13    1    3    3    0    0 -0.60408073453E+02  0.54626729199E+02  0.31357798039E+03  0.32398204374E+03  0.00000000000E+00 0. -1.
          2    1    1    2  501    0  0.35833233759E+02 -0.13395967802E+02  0.56756841326E+02  0.68445683810E+02  0.00000000000E+00 0. -1.
<scales pt_clust_5="13000.00000" pt_clust_6="13000.00000" pt_clust_7="13000.00000" pt_clust_8="13000.00000" pt_clust_9="38.25536"></scales>
<clustering>
<clus scale="   38.255">  2  9  1 -1</clus>
<clus scale="   88.825">  5  6 -1 -1</clus>
<clus scale="   90.192">  7  8 -1 -1</clus>
<clus scale="  140.216">  2  5  1 -1</clus>
<clus scale="   38.255">  2  5  1 -1</clus>
</clustering>
</event>
<event>
 9    1  0.3231311E-005  0.9287232E+02  0.7546771E-02  0.1296084E+00
         21   -1    0    0  501  502  0.00000000000E+00  0.00000000000E+00  0.11663867295E+03  0.11663867295E+03  0.00000000000E+00 0. -1.
          1   -1    0    0  502    0 -0.00000000000E+00 -0.00000000000E+00 -0.10642997891E+03  0.10642997891E+03  0.00000000000E+00 0. -1.
         23    2    1    2    0    0  0.19648658782E+02 -0.15625896051E+02 -0.17581619685E+02  0.96488764069E+02  0.91491692637E+02 0.  0.
         23    2    1    2    0    0  0.34695667183E+01  0.87810059482E+01  0.31482738675E+01  0.92104751842E+02  0.91565439576E+02 0.  0.
        -11    1    4    4    0    0 -0.25974361809E+02 -0.29987357617E+02 -0.11431111316E+02  0.41286552219E+02  0.00000000000E+00 0. -1.
         11    1    4    4    0    0  0.29443928527E+02  0.38768363565E+02  0.14579385183E+02  0.50818199623E+02  0.00000000000E+00 0.  1.
        -11    1    3    3    0    0  0.18005624016E+02 -0.53262056396E+02 -0.37152922286E+01  0.56345829873E+02  0.00000000000E+00 0. -1.
         11    1    3    3    0    0  0.16430347660E+01  0.37636160345E+02 -0.13866327457E+02  0.40142934196E+02  0.00000000000E+00 0.  1.
          1    1    1    2  501    0 -0.23118225501E+02  0.68448901024E+01  0.24642039853E+02  0.34475135952E+02  0.00000000000E+00 0. -1.
<scales pt_clust_5="13000.00000" pt_clust_6="13000.00000" pt_clust_7="13000.00000" pt_clust_8="13000.00000" pt_clust_9="24.11026"></scales>
<clustering>
<clus scale="   24.110">  1  9  2 -1</clus>
<clus scale="   91.492">  7  8 -1 -1</clus>
<clus scale="   91.565">  5  6 -1 -1</clus>
<clus scale="   92.800">  2  7  1 -1</clus>
<clus scale="   24.110">  1  5  2 -1</clus>
</clustering>
</event>
<event>
 9    1  0.3231311E-005  0.1195981E+03  0.7546771E-02  0.1244165E+00
          2   -1    0    0  502    0 -0.00000000000E+00  0.00000000000E+00  0.41815178527E+03  0.41815178527E+03  0.00000000000E+00 0. -1.
         21   -1    0    0  501  502  0.00000000000E+00 -0.00000000000E+00 -0.16583482964E+03  0.16583482964E+03  0.00000000000E+00 0. -1.
         23    2    1    2    0    0  0.88456777351E+02 -0.56262280870E+02  0.24925958687E+03  0.28557004720E+03  0.91814293579E+02 0.  0.
         23    2    1    2    0    0 -0.19594325063E+02  0.49654874813E+02  0.12186690723E+03  0.16093419945E+03  0.90546834880E+02 0.  0.
        -11    1    3    3    0    0 -0.31781196813E+01 -0.46320546066E+02  0.69936897001E+02  0.83945595445E+02  0.00000000000E+00 0.  1.
         11    1    3    3    0    0  0.91634897033E+02 -0.99417348044E+01  0.17932268987E+03  0.20162445176E+03  0.00000000000E+00 0. -1.
        -13    1    4    4    0    0  0.40380083023E+01  0.60879339481E+02  0.35275284029E+02  0.70476557450E+02  0.00000000000E+00 0. -1.
         13    1    4    4    0    0 -0.23632333366E+02 -0.11224464668E+02  0.86591623198E+02  0.90457641996E+02  0.00000000000E+00 0.  1.
          2    1    1    2  501    0 -0.68862452288E+02  0.66074060567E+01 -0.11880953848E+03  0.13748236826E+03  0.00000000000E+00 0. -1.
<scales pt_clust_5="13000.00000" pt_clust_6="13000.00000" pt_clust_7="13000.00000" pt_clust_8="13000.00000" pt_clust_9="69.17872"></scales>
<clustering>
<clus scale="   69.179">  2  9  1 -1</clus>
<clus scale="   90.547">  7  8 -1 -1</clus>
<clus scale="   91.814">  5  6 -1 -1</clus>
<clus scale="  118.628">  2  7  1 -1</clus>
<clus scale="   69.179">  2  5  1 -1</clus>
</clustering>
</event>
<event>
 9    1  0.3231311E-005  0.1013073E+03  0.7546771E-02  0.1278498E+00
         -2   -1    0    0    0  501 -0.00000000000E+00  0.00000000000E+00  0.37174150465E+03  0.37174150465E+03  0.00000000000E+00 0.  1.
         21   -1    0    0  501  502  0.00000000000E+00 -0.00000000000E+00 -0.53180701436E+02  0.53180701436E+02  0.00000000000E+00 0. -1.
         23    2    1    2    0    0 -0.67916158161E+01 -0.19347871660E+02  0.11547138572E+03  0.14969955373E+03  0.93036816817E+02 0.  0.
         23    2    1    2    0    0  0.67169281838E+02  0.11033412430E+02  0.17356258282E+03  0.20749948976E+03  0.91096758906E+02 0.  0.
        -13    1    4    4    0    0 -0.22536181565E+02 -0.32609377627E+01  0.38563276136E+02  0.44784366256E+02  0.00000000000E+00 0. -1.
         13    1    4    4    0    0  0.89705463403E+02  0.14294350193E+02  0.13499930668E+03  0.16271512350E+03  0.00000000000E+00 0.  1.
        -13    1    3    3    0    0  0.28168382222E+02  0.89756269797E+00  0.10393132705E+03  0.10768465126E+03  0.00000000000E+00 0.  1.
         13    1    3    3    0    0 -0.34959998038E+02 -0.20245434358E+02  0.11540058676E+02  0.42014902468E+02  0.00000000000E+00 0. -1.
         -2    1    1    2    0  502 -0.60377666022E+02  0.83144592302E+01  0.29526834677E+02  0.67723162600E+02  0.00000000000E+00 0.  1.
<scales pt_clust_5="13000.00000" pt_clust_6="13000.00000" pt_clust_7="13000.00000" pt_clust_8="13000.00000" pt_clust_9="60.94746"></scales>
<clustering>
<clus scale="   60.947">  2  9  1 -1</clus>
<clus scale="   91.097">  5  6 -1 -1</clus>
<clus scale="   93.037">  7  8 -1 -1</clus>
<clus scale="   99.529">  2  5  1 -1</clus>
<clus scale="   60.947">  2  5  1 -1</clus>
</clustering>
</event>
<event>
 9    1  0.3231311E-005  0.1411885E+03  0.7546771E-02  0.1212118E+00
         -1   -1    0    0    0  501 -0.00000000000E+00  0.00000000000E+00  0.35211725085E+03  0.35211725085E+03  0.00000000000E+00 0.  1.
         21   -1    0    0  501  502  0.00000000000E+00 -0.00000000000E+00 -0.12135177606E+03  0.12135177606E+03  0.00000000000E+00 0.  1.
         23    2    1    2    0    0  0.51589604500E+02  0.86143738547E+02  0.21004804946E+03  0.25038309656E+03  0.92137294160E+02 0.  0.
         23    2    1    2    0    0 -0.46231089941E+02 -0.11551324204E+03  0.67210453076E+02  0.16783302960E+03  0.90388373464E+02 0.  0.
        -11    1    3    3    0    0  0.53946976363E+02  0.88396246565E+01  0.11876067994E+03  0.13073834297E+03  0.00000000000E+00 0. -1.
         11    1    3    3    0    0 -0.23573718636E+01  0.77304113890E+02  0.91287369522E+02  0.11964475359E+03  0.00000000000E+00 0.  1.
        -13    1    4    4    0    0 -0.66017156131E+02 -0.87818373675E+02  0.74863125068E+02  0.13294667786E+03  0.00000000000E+00 0.  1.
         13    1    4    4    0    0  0.19786066191E+02 -0.27694868364E+02 -0.76526719924E+01  0.34886351738E+02  0.00000000000E+00 0. -1.
         -1    1    1    2    0  502 -0.53585145589E+01  0.29369503492E+02 -0.46493027746E+02  0.55252900762E+02  0.00000000000E+00 0.  1.
<scales pt_clust_5="13000.00000" pt_clust_6="13000.00000" pt_clust_7="13000.00000" pt_clust_8="13000.00000" pt_clust_9="29.85434"></scales>
<clustering>
<clus scale="   29.854">  2  9  1 -1</clus>
<clus scale="   90.388">  7  8 -1 -1</clus>
<clus scale="   92.137">  5  6 -1 -1</clus>
<clus scale="  140.053">  2  7  1 -1</clus>
<clus scale="   29.854">  2  5  1 -1</clus>
</clustering>
</event>
<event>
 9    1  0.3231311E-005  0.9795175E+02  0.7546771E-02  0.1285744E+00
         21   -1    0    0  501  502  0.00000000000E+00  0.00000000000E+00  0.72971228740E+02  0.72971228740E+02  0.00000000000E+00 0.  1.
         -4   -1    0    0    0  501 -0.00000000000E+00 -0.00000000000E+00 -0.24021527905E+03  0.24021527905E+03  0.00000000000E+00 0.  1.
         23    2    1    2    0    0  0.23151900047E+02 -0.29579756848E+02 -0.13934924974E+03  0.17144666905E+03  0.92546066549E+02 0.  0.
         23    2    1    2    0    0 -0.25552362966E+02  0.69509873695E+01 -0.52779415928E+02  0.10801940707E+03  0.90450462020E+02 0.  0.
        -11    1    3    3    0    0  0.37518035575E+02  0.23472260561E+02 -0.52469803751E+02  0.68641316384E+02  0.00000000000E+00 0. -1.
         11    1    3    3    0    0 -0.14366135527E+02 -0.53052017409E+02 -0.86879445986E+02  0.10280535266E+03  0.00000000000E+00 0.  1.
        -11    1    4    4    0    0  0.20881749545E+02  0.19880591000E+02 -0.52410215332E+02  0.59817355623E+02  0.00000000000E+00 0.  1.
         11    1    4    4    0    0 -0.46434112511E+02 -0.12929603630E+02 -0.36920059593E+00  0.48202051448E+02  0.00000000000E+00 0. -1.
         -4    1    1    2    0  502  0.24004629191E+01  0.22628769479E+02  0.24884615359E+02  0.33720431669E+02  0.00000000000E+00 0.  1.
<scales pt_clust_5="13000.00000" pt_clust_6="13000.00000" pt_clust_7="13000.00000" pt_clust_8="13000.00000" pt_clust_9="22.75573"></scales>
<clustering>
<clus scale="   22.756">  1  9  2 -1</clus>
<clus scale="   90.450">  7  8 -1 -1</clus>
<clus scale="   92.546">  5  6 -1 -1</clus>
<clus scale="   95.974">  1  7  2 -1</clus>
<clus scale="   22.756">  1  5  2 -1</clus>
</clustering>
</event>
<event>
 9    1  0.3231311E-005  0.1188144E+03  0.7546771E-02  0.1245474E+00
          1   -1    0    0  502    0 -0.00000000000E+00  0.00000000000E+00  0.42071964697E+03  0.42071964697E+03  0.00000000000E+00 0. -1.
         21   -1    0    0  501  502  0.00000000000E+00 -0.00000000000E+00 -0.69726547120E+02  0.69726547120E+02  0.00000000000E+00 0. -1.
         23    2    1    2    0    0 -0.66234916315E+02  0.37449816235E+02  0.31383167630E+03  0.33541151854E+03  0.90669801196E+02 0.  0.
         23    2    1    2    0    0  0.46533867500E+02 -0.61003900080E+02  0.27723698330E+02  0.12290996781E+03  0.91931387935E+02 0.  0.
        -11    1    3    3    0    0 -0.76808840760E+02  0.14257536559E+02  0.29062227122E+03  0.30093883082E+03  0.00000000000E+00 0. -1.
         11    1    3    3    0    0  0.10573924445E+02  0.23192279676E+02  0.23209405081E+02  0.34472687725E+02  0.00000000000E+00 0.  1.
        -13    1    4    4    0    0 -0.13496841644E+02  0.16733970461E+02  0.40105255355E+01  0.21869495121E+02  0.00000000000E+00 0.  1.
         13    1    4    4    0    0  0.60030709144E+02 -0.77737870541E+02  0.23713172795E+02  0.10104047269E+03  0.00000000000E+00 0. -1.
          1    1    1    2  501    0  0.19701048815E+02  0.23554083845E+02  0.94377252281E+01  0.32124707744E+02  0.00000000000E+00 0. -1.
<scales pt_clust_5="13000.00000" pt_clust_6="13000.00000" pt_clust_7="13000.00000" pt_clust_8="13000.00000" pt_clust_9="30.70710"></scales>
<clustering>
<clus scale="   30.707">  2  9  1 -1</clus>
<clus scale="   90.670">  5  6 -1 -1</clus>
<clus scale="   91.931">  7  8 -1 -1</clus>
<clus scale="  117.841">  1  5  2 -1</clus>
<clus scale="   30.707">  2  5  1 -1</clus>
</clustering>
</event>
<event>
 9    1  0.3231311E-005  0.9681940E+02  0.7546771E-02  0.1287920E+00
          2   -1    0    0  502    0 -0.00000000000E+00  0.00000000000E+00  0.10712623661E+03  0.10712623661E+03  0.00000000000E+00 0.  1.
         21   -1    0    0  501  502  0.00000000000E+00 -0.00000000000E+00 -0.12115321894E+03  0.12115321894E+03  0.00000000000E+00 0. -1.
         23    2    1    2    0    0  0.11818817272E+02  0.42817694071E+02  0.25910773995E+01  0.10104692126E+03  0.90723355575E+02 0.  0.
         23    2    1    2    0    0 -0.16912586790E+02 -0.15339187850E+02 -0.29187715813E+02  0.96589247158E+02  0.89197722148E+02 0.  0.
        -11    1    3    3    0    0  0.51395595159E+02  0.29446157290E+02  0.98740418028E+00  0.59241525537E+02  0.00000000000E+00 0. -1.
         11    1    3    3    0    0 -0.39576777887E+02  0.13371536781E+02  0.16036732192E+01  0.41805395723E+02  0.00000000000E+00 0.  1.
        -13    1    4    4    0    0  0.87267147565E+01 -0.46025688155E+02 -0.31634310941E+02  0.56526534913E+02  0.00000000000E+00 0. -1.
         13    1    4    4    0    0 -0.25639301546E+02  0.30686500305E+02  0.24465951280E+01  0.40062712245E+02  0.00000000000E+00 0.  1.
          2    1    1    2  501    0  0.50937695180E+01 -0.27478506221E+02  0.12569656082E+02  0.30643287128E+02  0.00000000000E+00 0.  1.
<scales pt_clust_5="13000.00000" pt_clust_6="13000.00000" pt_clust_7="13000.00000" pt_clust_8="13000.00000" pt_clust_9="27.94666"></scales>
<clustering>
<clus scale="   27.947">  2  9  1 -1</clus>
<clus scale="   89.198">  7  8 -1 -1</clus>
<clus scale="   90.723">  5  6 -1 -1</clus>
<clus scale="   95.391">  2  7  1 -1</clus>
<clus scale="   27.947">  2  5  1 -1</clus>
</clustering>
</event>
<event>
 9    1  0.3231311E-005  0.1048470E+03  0.7546771E-02  0.1274295E+00
         -1   -1    0    0    0  501 -0.00000000000E+00  0.00000000000E+00  0.14906514691E+03  0.14906514691E+03  0.00000000000E+00 0.  1.
         21   -1    0    0  501  502  0.00000000000E+00 -0.00000000000E+00 -0.38699896050E+03  0.38699896050E+03  0.00000000000E+00 0.  1.
         23    2    1    2    0    0  0.35178119737E+02  0.54985634674E+02  0.95960548904E+02  0.14136264075E+03  0.80709659431E+02 0.  0.
         23    2    1    2    0    0  0.44375835699E+02 -0.23135753855E+02 -0.91233792095E+02  0.13735462062E+03  0.89656059954E+02 0.  0.
        -11    1    4    4    0    0 -0.78626318295E+00  0.21811181625E+02 -0.64791692835E+02  0.68368920673E+02  0.00000000000E+00 0.  1.
         11    1    4    4    0    0  0.45162098882E+02 -0.44946935480E+02 -0.26442099260E+02  0.68985699951E+02  0.00000000000E+00 0. -1.
        -13    1    3    3    0    0  0.58813097063E+02  0.49425332092E+02  0.85445460633E+02  0.11490330971E+03  0.00000000000E+00 0.  1.
         13    1    3    3    0    0 -0.23634977326E+02  0.55603025816E+01  0.10515088270E+02  0.26459331045E+02  0.00000000000E+00 0. -1.
         -1    1    1    2    0  502 -0.79553955436E+02 -0.31849880819E+02 -0.24266057041E+03  0.25734684603E+03  0.00000000000E+00 0.  1.
<scales pt_clust_5="13000.00000" pt_clust_6="13000.00000" pt_clust_7="13000.00000" pt_clust_8="13000.00000" pt_clust_9="85.69275"></scales>
<clustering>
<clus scale="   80.710">  7  8 -1 -1</clus>
<clus scale="   85.693">  2  9  1 -1</clus>
<clus scale="   89.656">  5  6 -1 -1</clus>
<clus scale="   97.307">  1  7  2 -1</clus>
<clus scale="   85.693">  2  5  1 -1</clus>
</clustering>
</event>
<event>
 9    1  0.3231311E-005  0.1210430E+03  0.7546771E-02  0.1242119E+00
         21   -1    0    0  501  502  0.00000000000E+00  0.00000000000E+00  0.16272846143E+03  0.16272846143E+03  0.00000000000E+00 0. -1.
          2   -1    0    0  502    0 -0.00000000000E+00 -0.00000000000E+00 -0.30842631663E+03  0.30842631663E+03  0.00000000000E+00 0. -1.
         23    2    1    2    0    0  0.12216277614E+02 -0.89459733038E+02 -0.15616298246E+03  0.20182242984E+03  0.90515936826E+02 0.  0.
         23    2    1    2    0    0 -0.34266732090E+01  0.63921574694E+02 -0.10297621532E+03  0.15272020098E+03  0.92852835528E+02 0.  0.
        -13    1    3    3    0    0 -0.36558452456E+02 -0.19448803664E+02 -0.39013704232E+02  0.56893281922E+02  0.00000000000E+00 0.  1.
         13    1    3    3    0    0  0.48774730071E+02 -0.70010929373E+02 -0.11714927823E+03  0.14492914791E+03  0.00000000000E+00 0. -1.
        -13    1    4    4    0    0  0.31907345043E+01  0.20329868226E+02  0.15851578475E+02  0.25976082632E+02  0.00000000000E+00 0.  1.
         13    1    4    4    0    0 -0.66174077133E+01  0.43591706468E+02 -0.11882779380E+03  0.12674411835E+03  0.00000000000E+00 0. -1.
          2    1    1    2  501    0 -0.87896044051E+01  0.25538158344E+02  0.11344134258E+03  0.11661214724E+03  0.00000000000E+00 0. -1.
<scales pt_clust_5="13000.00000" pt_clust_6="13000.00000" pt_clust_7="13000.00000" pt_clust_8="13000.00000" pt_clust_9="27.00842"></scales>
<clustering>
<clus scale="   27.008">  1  9  2 -1</clus>
<clus scale="   90.516">  5  6 -1 -1</clus>
<clus scale="   92.853">  7  8 -1 -1</clus>
<clus scale="  119.260">  2  5  1 -1</clus>
<clus scale="   27.008">  1  5  2 -1</clus>
</clustering>
</event>
<event>
 9    1  0.3231311E-005  0.2094157E+03  0.7546771E-02  0.1167474E+00
          2   -1    0    0  502    0 -0.00000000000E+00  0.00000000000E+00  0.55076318303E+03  0.55076318303E+03  0.00000000000E+00 0. -1.
         21   -1    0    0  501  502  0.00000000000E+00 -0.00000000000E+00 -0.13293852164E+03  0.13293852164E+03  0.00000000000E+00 0. -1.
         23    2    1    2    0    0 -0.21359862263E+02  0.67949833345E+02  0.14396667335E+03  0.18436620753E+03  0.90504540632E+02 0.  0.
         23    2    1    2    0    0 -0.14250215910E+03 -0.14085084779E+03  0.21438548870E+03  0.31038497946E+03  0.10115271147E+03 0.  0.
        -11    1    4    4    0    0 -0.18218780460E+02  0.14141805196E+02  0.39339785058E+02  0.45601900225E+02  0.00000000000E+00 0.  1.
         11    1    4    4    0    0 -0.12428337864E+03 -0.15499265299E+03  0.17504570365E+03  0.26478307924E+03  0.00000000000E+00 0. -1.
        -13    1    3    3    0    0 -0.28617668199E+01  0.36140419730E+02  0.14303450935E+03  0.14755741430E+03  0.00000000000E+00 0. -1.
         13    1    3    3    0    0 -0.18498095443E+02  0.31809413615E+02  0.93216399864E+00  0.36808793233E+02  0.00000000000E+00 0.  1.
          2    1    1    2  501    0  0.16386202136E+03  0.72901014444E+02  0.59472499338E+02  0.18895051768E+03  0.00000000000E+00 0. -1.
<scales pt_clust_5="13000.00000" pt_clust_6="13000.00000" pt_clust_7="13000.00000" pt_clust_8="13000.00000" pt_clust_9="183.36598"></scales>
<clustering>
<clus scale="   90.505">  7  8 -1 -1</clus>
<clus scale="  101.153">  5  6 -1 -1</clus>
<clus scale="  115.172">  1  7  2 -1</clus>
<clus scale="  183.366">  2  9  1 -1</clus>
<clus scale="  183.366">  2  5  1 -1</clus>
</clustering>
</event>
<event>
 9    1  0.3231311E-005  0.1323097E+03  0.7546771E-02  0.1236567E+00
         21   -1    0    0  501  502  0.00000000000E+00  0.00000000000E+00  0.38508313701E+02  0.38508313701E+02  0.00000000000E+00 0. -1.
          2   -1    0    0  502    0 -0.00000000000E+00 -0.00000000000E+00 -0.86238059763E+03  0.86238059763E+03  0.00000000000E+00 0. -1.
         23    2    1    2    0    0  0.44088372419E+02  0.14781747118E+02 -0.19849564113E+03  0.22327279651E+03  0.91038110068E+02 0.  0.
         23    2    1    2    0    0  0.63654926292E+02  0.24086521395E+02 -0.48344710674E+03  0.49523367619E+03  0.83085370913E+02 0.  0.
        -11    1    4    4    0    0  0.83693729599E+02  0.16722048168E+02 -0.36206295331E+03  0.37198635651E+03  0.00000000000E+00 0. -1.
         11    1    4    4    0    0 -0.20038803306E+02  0.73644732275E+01 -0.12138415343E+03  0.12324731967E+03  0.00000000000E+00 0.  1.
        -13    1    3    3    0    0  0.99660169643E+00 -0.30782512212E+02 -0.11375111124E+03  0.11784681405E+03  0.00000000000E+00 0.  1.
         13    1    3    3    0    0  0.43091770723E+02  0.45564259330E+02 -0.84744529890E+02  0.10542598246E+03  0.00000000000E+00 0. -1.
          2    1    1    2  501    0 -0.10774329871E+03 -0.38868268513E+02 -0.14192953605E+03  0.18238243863E+03  0.00000000000E+00 0. -1.
<scales pt_clust_5="13000.00000" pt_clust_6="13000.00000" pt_clust_7="13000.00000" pt_clust_8="13000.00000" pt_clust_9="102.96926"></scales>
<clustering>
<clus scale="   83.085">  5  6 -1 -1</clus>
<clus scale="   91.038">  7  8 -1 -1</clus>
<clus scale="  102.226">  2  7  1 -1</clus>
<clus scale="  102.969">  1  9  2 -1</clus>
<clus scale="  102.969">  1  5  2 -1</clus>
</clustering>
</event>
<event>
 9    1  0.3231311E-005  0.3438666E+03  0.7546771E-02  0.1103391E+00
         21   -1    0    0  501  502  0.00000000000E+00  0.00000000000E+00  0.29657019728E+03  0.29657019728E+03  0.00000000000E+00 0. -1.
          2   -1    0    0  502    0 -0.00000000000E+00 -0.00000000000E+00 -0.74948751839E+03  0.74948751839E+03  0.00000000000E+00 0. -1.
         23    2    1    2    0    0  0.79308126788E+02 -0.29171197432E+02 -0.29050247454E+03  0.31576780739E+03  0.90426117578E+02 0.  0.
         23    2    1    2    0    0  0.29419241927E+03 -0.65199480019E+02 -0.70516914923E+01  0.31490310947E+03  0.91181633273E+02 0.  0.
        -13    1    4    4    0    0  0.50962490347E+01 -0.21904673328E+02 -0.12786788553E+01  0.22526018011E+02  0.00000000000E+00 0.  1.
         13    1    4    4    0    0  0.28909617024E+03 -0.43294806691E+02 -0.57730126369E+01  0.29237709146E+03  0.00000000000E+00 0. -1.
        -13    1    3    3    0    0  0.13770986322E+02 -0.51903005747E+02 -0.11035569559E+03  0.12272710222E+03  0.00000000000E+00 0. -1.
         13    1    3    3    0    0  0.65537140466E+02  0.22731808315E+02 -0.18014677895E+03  0.19304070517E+03  0.00000000000E+00 0.  1.
          2    1    1    2  501    0 -0.37350054606E+03  0.94370677450E+02 -0.15536315507E+03  0.41538679881E+03  0.00000000000E+00 0. -1.
<scales pt_clust_5="13000.00000" pt_clust_6="13000.00000" pt_clust_7="13000.00000" pt_clust_8="13000.00000" pt_clust_9="331.55729"></scales>
<clustering>
<clus scale="   90.426">  7  8 -1 -1</clus>
<clus scale="   91.182">  5  6 -1 -1</clus>
<clus scale="  123.764">  2  7  1 -1</clus>
<clus scale="  331.557">  1  9  2 -1</clus>
<clus scale="  331.557">  1  5  2 -1</clus>
</clustering>
</event>
<event>
 9    1  0.3231311E-005  0.2156982E+03  0.7546771E-02  0.1138605E+00
         21   -1    0    0  501  502  0.00000000000E+00  0.00000000000E+00  0.51067033850E+03  0.51067033850E+03  0.00000000000E+00 0. -1.
          1   -1    0    0  502    0 -0.00000000000E+00 -0.00000000000E+00 -0.19358731834E+03  0.19358731834E+03  0.00000000000E+00 0. -1.
         23    2    1    2    0    0  0.59763907722E+02  0.18564168720E+03 -0.80469347468E+02  0.22961426356E+03  0.90624684602E+02 0.  0.
         23    2    1    2    0    0 -0.28237000598E+02 -0.15939962381E+03  0.22400096665E+03  0.29631033255E+03  0.10685416156E+03 0.  0.
        -11    1    3    3    0    0  0.78047888444E+02  0.14811621376E+03 -0.84754883526E+02  0.18765200759E+03  0.00000000000E+00 0. -1.
         11    1    3    3    0    0 -0.18283980722E+02  0.37525473433E+02  0.42855360578E+01  0.41962255978E+02  0.00000000000E+00 0.  1.
        -13    1    4    4    0    0 -0.60195634065E+02 -0.13682212430E+03  0.14551265437E+03  0.20860906174E+03  0.00000000000E+00 0.  1.
         13    1    4    4    0    0  0.31958633467E+02 -0.22577499512E+02  0.78488312282E+02  0.87701270813E+02  0.00000000000E+00 0. -1.
          1    1    1    2  501    0 -0.31526907124E+02 -0.26242063387E+02  0.17355140098E+03  0.17833306072E+03  0.00000000000E+00 0. -1.
<scales pt_clust_5="13000.00000" pt_clust_6="13000.00000" pt_clust_7="13000.00000" pt_clust_8="13000.00000" pt_clust_9="41.01941"></scales>
<clustering>
<clus scale="   41.019">  1  9  2 -1</clus>
<clus scale="   90.625">  5  6 -1 -1</clus>
<clus scale="  106.854">  7  8 -1 -1</clus>
<clus scale="  208.136">  2  5  1 -1</clus>
<clus scale="   41.019">  1  5  2 -1</clus>
</clustering>
</event>
<event>
 9    1  0.3231311E-005  0.2567061E+03  0.7546771E-02  0.1109298E+00
         -1   -1    0    0    0  501 -0.00000000000E+00  0.00000000000E+00  0.13544074007E+03  0.13544074007E+03  0.00000000000E+00 0.  1.
         21   -1    0    0  501  502  0.00000000000E+00 -0.00000000000E+00 -0.77839560311E+03  0.77839560311E+03  0.00000000000E+00 0. -1.
         23    2    1    2    0    0  0.18823241154E+03  0.15789409715E+03 -0.66185565803E+02  0.27136186496E+03  0.94311960872E+02 0.  0.
         23    2    1    2    0    0 -0.17763973430E+03 -0.13064448421E+03 -0.42084861670E+03  0.48383651041E+03  0.91434972328E+02 0.  0.
        -13    1    4    4    0    0 -0.12840870117E+03 -0.12851322069E+03 -0.27240613326E+03  0.32742868516E+03  0.00000000000E+00 0.  1.
         13    1    4    4    0    0 -0.49231033130E+02 -0.21312635204E+01 -0.14844248344E+03  0.15640782525E+03  0.00000000000E+00 0. -1.
        -13    1    3    3    0    0  0.11416489849E+03  0.35863546186E+02 -0.19990090729E+02  0.12132362391E+03  0.00000000000E+00 0.  1.
         13    1    3    3    0    0  0.74067513049E+02  0.12203055097E+03 -0.46195475075E+02  0.15003824104E+03  0.00000000000E+00 0. -1.
         -1    1    1    2    0  502 -0.10592677237E+02 -0.27249612937E+02 -0.15592068053E+03  0.15863796782E+03  0.00000000000E+00 0.  1.
<scales pt_clust_5="13000.00000" pt_clust_6="13000.00000" pt_clust_7="13000.00000" pt_clust_8="13000.00000" pt_clust_9="29.23604"></scales>
<clustering>
<clus scale="   29.236">  2  9  1 -1</clus>
<clus scale="   91.435">  5  6 -1 -1</clus>
<clus scale="   94.312">  7  8 -1 -1</clus>
<clus scale="  255.663">  2  5  1 -1</clus>
<clus scale="   29.236">  2  5  1 -1</clus>
</clustering>
</event>
<event>
 9    1  0.3231311E-005  0.1427846E+03  0.7546771E-02  0.1215076E+00
          2   -1    0    0  502    0 -0.00000000000E+00  0.00000000000E+00  0.53540537411E+02  0.53540537411E+02  0.00000000000E+00 0. -1.
         21   -1    0    0  501  502  0.00000000000E+00 -0.00000000000E+00 -0.57086543352E+03  0.57086543352E+03  0.00000000000E+00 0.  1.
         23    2    1    2    0    0 -0.10007366595E+03 -0.14702640644E+02 -0.12214140204E+03  0.19323579832E+03  0.11041125577E+03 0.  0.
         23    2    1    2    0    0  0.71327885470E+02  0.31890271345E+02 -0.19546323885E+03  0.22866112370E+03  0.89304955620E+02 0.  0.
        -11    1    4    4    0    0 -0.19689284982E+02  0.16719069455E+02 -0.34102205743E+02  0.42780318642E+02  0.00000000000E+00 0.  1.
         11    1    4    4    0    0  0.91017170452E+02  0.15171201889E+02 -0.16136103311E+03  0.18588080506E+03  0.00000000000E+00 0. -1.
        -11    1    3    3    0    0 -0.65196384928E+02 -0.20996145272E+02 -0.13826461787E+03  0.15430006895E+03  0.00000000000E+00 0.  1.
         11    1    3    3    0    0 -0.34877281027E+02  0.62935046286E+01  0.16123215835E+02  0.38935729365E+02  0.00000000000E+00 0. -1.
          2    1    1    2  501    0  0.28745780485E+02 -0.17187630701E+02 -0.19972025522E+03  0.20250904891E+03  0.00000000000E+00 0. -1.
<scales pt_clust_5="13000.00000" pt_clust_6="13000.00000" pt_clust_7="13000.00000" pt_clust_8="13000.00000" pt_clust_9="33.49231"></scales>
<clustering>
<clus scale="   33.492">  2  9  1 -1</clus>
<clus scale="   89.305">  5  6 -1 -1</clus>
<clus scale="  110.411">  7  8 -1 -1</clus>
<clus scale="  127.170">  2  5  1 -1</clus>
<clus scale="   33.492">  2  5  1 -1</clus>
</clustering>
</event>
<event>
 9    1  0.3231311E-005  0.1183439E+03  0.7546771E-02  0.1246553E+00
         21   -1    0    0  501  502  0.00000000000E+00  0.00000000000E+00  0.51149162800E+02  0.51149162800E+02  0.00000000000E+00 0. -1.
          1   -1    0    0  502    0 -0.00000000000E+00 -0.00000000000E+00 -0.42018525110E+03  0.42018525110E+03  0.00000000000E+00 0. -1.
         23    2    1    2    0    0  0.49137350843E+02 -0.50064868568E+02 -0.23500428957E+03  0.26169971324E+03  0.91316775469E+02 0.  0.
         23    2    1    2    0    0 -0.37072798439E+02  0.80891551077E+02 -0.11895587521E+03  0.17325996699E+03  0.89166588442E+02 0.  0.
        -11    1    3    3    0    0  0.23229193750E+02 -0.56964399880E+02 -0.22471236056E+03  0.23298107924E+03  0.00000000000E+00 0.  1.
         11    1    3    3    0    0  0.25908157093E+02  0.68995313120E+01 -0.10291929015E+02  0.28718634005E+02  0.00000000000E+00 0. -1.
        -11    1    4    4    0    0 -0.25330249862E+02 -0.13048497495E+02 -0.44398040333E+02  0.52754818077E+02  0.00000000000E+00 0.  1.
         11    1    4    4    0    0 -0.11742548577E+02  0.93940048572E+02 -0.74557834882E+02  0.12050514892E+03  0.00000000000E+00 0. -1.
          1    1    1    2  501    0 -0.12064552404E+02 -0.30826682509E+02 -0.15075923511E+02  0.36374733661E+02  0.00000000000E+00 0. -1.
<scales pt_clust_5="13000.00000" pt_clust_6="13000.00000" pt_clust_7="13000.00000" pt_clust_8="13000.00000" pt_clust_9="33.10344"></scales>
<clustering>
<clus scale="   33.103">  1  9  2 -1</clus>
<clus scale="   89.167">  7  8 -1 -1</clus>
<clus scale="   91.317">  5  6 -1 -1</clus>
<clus scale="  116.693">  1  7  2 -1</clus>
<clus scale="   33.103">  1  5  2 -1</clus>
</clustering>
</event>
<event>
 9    1  0.3231311E-005  0.1101596E+03  0.7546771E-02  0.1260999E+00
         -1   -1    0    0    0  501 -0.00000000000E+00  0.00000000000E+00  0.32383768427E+03  0.32383768427E+03  0.00000000000E+00 0.  1.
         21   -1    0    0  501  502  0.00000000000E+00 -0.00000000000E+00 -0.76249422592E+02  0.76249422592E+02  0.00000000000E+00 0.  1.
         23    2    1    2    0    0  0.67577530855E+01  0.62846553390E+02  0.21044445965E+03  0.23777370142E+03  0.90852110529E+02 0.  0.
         23    2    1    2    0    0  0.37514790582E+02 -0.47832009396E+02  0.20827610824E+02  0.11279863240E+03  0.92706426230E+02 0.  0.
        -11    1    3    3    0    0 -0.27338789747E+02  0.42033665294E+02  0.44344993853E+02  0.66938157449E+02  0.00000000000E+00 0. -1.
         11    1    3    3    0    0  0.34096542833E+02  0.20812888096E+02  0.16609946580E+03  0.17083554397E+03  0.00000000000E+00 0.  1.
        -13    1    4    4    0    0  0.36502677701E+02 -0.77585279563E+01 -0.30130339976E+02  0.47963294533E+02  0.00000000000E+00 0.  1.
         13    1    4    4    0    0  0.10121128810E+01 -0.40073481439E+02  0.50957950799E+02  0.64835337871E+02  0.00000000000E+00 0. -1.
         -1    1    1    2    0  502 -0.44272543667E+02 -0.15014543994E+02  0.16316191203E+02  0.49514773043E+02  0.00000000000E+00 0.  1.
<scales pt_clust_5="13000.00000" pt_clust_6="13000.00000" pt_clust_7="13000.00000" pt_clust_8="13000.00000" pt_clust_9="46.74927"></scales>
<clustering>
<clus scale="   46.749">  2  9  1 -1</clus>
<clus scale="   90.852">  5  6 -1 -1</clus>
<clus scale="   92.706">  7  8 -1 -1</clus>
<clus scale="  108.604">  1  5  2 -1</clus>
<clus scale="   46.749">  2  5  1 -1</clus>
</clustering>
</event>
<event>
 9    1  0.3231311E-005  0.9216281E+02  0.7546771E-02  0.1306951E+00
         21   -1    0    0  501  502  0.00000000000E+00  0.00000000000E+00  0.23965688320E+02  0.23965688320E+02  0.00000000000E+00 0.  1.
          1   -1    0    0  502    0 -0.00000000000E+00 -0.00000000000E+00 -0.48174070753E+03  0.48174070753E+03  0.00000000000E+00 0. -1.
         23    2    1    2    0    0 -0.13407420782E+02 -0.16098053978E+02 -0.25636987256E+03  0.27287012134E+03  0.91069672721E+02 0.  0.
         23    2    1    2    0    0  0.15105058524E+02 -0.20133176196E+02 -0.14234973646E+03  0.16353168963E+03  0.76456905929E+02 0.  0.
        -11    1    3    3    0    0  0.35005202508E+02 -0.26513562657E+02 -0.12295020897E+03  0.13055683472E+03  0.00000000000E+00 0.  1.
         11    1    3    3    0    0 -0.48412623289E+02  0.10415508679E+02 -0.13341966359E+03  0.14231328662E+03  0.00000000000E+00 0. -1.
        -13    1    4    4    0    0  0.15714199734E+02 -0.41122017276E+02 -0.13380727596E+03  0.14086285343E+03  0.00000000000E+00 0. -1.
         13    1    4    4    0    0 -0.60914121036E+00  0.20988841080E+02 -0.85424605071E+01  0.22668836195E+02  0.00000000000E+00 0.  1.
          1    1    1    2  501    0 -0.16976377418E+01  0.36231230174E+02 -0.59055410193E+02  0.69304584891E+02  0.00000000000E+00 0. -1.
<scales pt_clust_5="13000.00000" pt_clust_6="13000.00000" pt_clust_7="13000.00000" pt_clust_8="13000.00000" pt_clust_9="36.27098"></scales>
<clustering>
<clus scale="   36.271">  1  9  2 -1</clus>
<clus scale="   76.457">  7  8 -1 -1</clus>
<clus scale="   77.756">  1  7  2 -1</clus>
<clus scale="   91.070">  5  6 -1 -1</clus>
<clus scale="   36.271">  1  5  2 -1</clus>
</clustering>
</event>
<event>
 9    1  0.3231311E-005  0.1404897E+03  0.7546771E-02  0.1215157E+00
         21   -1    0    0  501  502  0.00000000000E+00  0.00000000000E+00  0.67358289772E+02  0.67358289772E+02  0.00000000000E+00 0.  1.
          1   -1    0    0  502    0 -0.00000000000E+00 -0.00000000000E+00 -0.67153575831E+03  0.67153575831E+03  0.00000000000E+00 0. -1.
         23    2    1    2    0    0 -0.90844446516E+02 -0.31766660305E+02 -0.48133387124E+03  0.50117680517E+03  0.10116353235E+03 0.  0.
         23    2    1    2    0    0  0.81269281803E+02  0.68386316761E+02 -0.13847781708E+03  0.19676468687E+03  0.90878224511E+02 0.  0.
        -11    1    4    4    0    0  0.63631819508E+02  0.45836225538E+02 -0.29010328660E+02  0.83615591814E+02  0.00000000000E+00 0.  1.
         11    1    4    4    0    0  0.17637462295E+02  0.22550091223E+02 -0.10946748842E+03  0.11314909506E+03  0.00000000000E+00 0. -1.
        -13    1    3    3    0    0  0.51416963259E+01 -0.42172618786E+02 -0.12658452469E+03  0.13352381326E+03  0.00000000000E+00 0. -1.
         13    1    3    3    0    0 -0.95986142841E+02  0.10405958481E+02 -0.35474934655E+03  0.36765299191E+03  0.00000000000E+00 0.  1.
          1    1    1    2  501    0  0.95751647123E+01 -0.36619656456E+02  0.15634219778E+02  0.40952556041E+02  0.00000000000E+00 0. -1.
<scales pt_clust_5="13000.00000" pt_clust_6="13000.00000" pt_clust_7="13000.00000" pt_clust_8="13000.00000" pt_clust_9="37.85080"></scales>
<clustering>
<clus scale="   37.851">  1  9  2 -1</clus>
<clus scale="   90.878">  5  6 -1 -1</clus>
<clus scale="  101.164">  7  8 -1 -1</clus>
<clus scale="  133.275">  1  5  2 -1</clus>
<clus scale="   37.851">  1  5  2 -1</clus>
</clustering>
</event>
<event>
 9    1  0.3231311E-005  0.9396937E+02  0.7546771E-02  0.1295930E+00
         21   -1    0    0  501  502  0.00000000000E+00  0.00000000000E+00  0.16896927891E+03  0.16896927891E+03  0.00000000000E+00 0.  1.
          1   -1    0    0  502    0 -0.00000000000E+00 -0.00000000000E+00 -0.10562191126E+03  0.10562191126E+03  0.00000000000E+00 0. -1.
         23    2    1    2    0    0  0.76112636206E+01  0.41132324607E+02 -0.15935452079E+02  0.10128547314E+03  0.90857079933E+02 0.  0.
         23    2    1    2    0    0  0.28173305287E+02  0.95953690740E+01  0.53865349515E+02  0.10622455671E+03  0.86581605040E+02 0.  0.
        -13    1    3    3    0    0  0.33416542966E+02 -0.69006553744E+01  0.16436390954E+02  0.37873992871E+02  0.00000000000E+00 0.  1.
         13    1    3    3    0    0 -0.25805279345E+02  0.48032979982E+02 -0.32371843034E+02  0.63411480265E+02  0.00000000000E+00 0. -1.
        -13    1    4    4    0    0  0.27768988812E+02  0.46722438049E+02  0.34082177870E+02  0.64153704533E+02  0.00000000000E+00 0.  1.
         13    1    4    4    0    0  0.40431647502E+00 -0.37127068975E+02  0.19783171645E+02  0.42070852176E+02  0.00000000000E+00 0. -1.
          1    1    1    2  501    0 -0.35784568907E+02 -0.50727693681E+02  0.25417470220E+02  0.67081160325E+02  0.00000000000E+00 0. -1.
<scales pt_clust_5="13000.00000" pt_clust_6="13000.00000" pt_clust_7="13000.00000" pt_clust_8="13000.00000" pt_clust_9="62.07926"></scales>
<clustering>
<clus scale="   62.079">  1  9  2 -1</clus>
<clus scale="   86.582">  7  8 -1 -1</clus>
<clus scale="   89.842">  1  7  2 -1</clus>
<clus scale="   90.857">  5  6 -1 -1</clus>
<clus scale="   62.079">  1  5  2 -1</clus>
</clustering>
</event>
<event>
 9    1  0.3231311E-005  0.1115763E+03  0.7546771E-02  0.1257933E+00
         21   -1    0    0  501  502  0.00000000000E+00  0.00000000000E+00  0.60123490237E+02  0.60123490237E+02  0.00000000000E+00 0.  1.
          1   -1    0    0  502    0 -0.00000000000E+00 -0.00000000000E+00 -0.50885720567E+03  0.50885720567E+03  0.00000000000E+00 0. -1.
         23    2    1    2    0    0  0.37501086289E+02 -0.43593757152E+02 -0.34804215168E+03  0.36405946443E+03  0.89995595195E+02 0.  0.
         23    2    1    2    0    0 -0.55206643052E+02  0.80799106661E+02 -0.93934742983E+02  0.16316743645E+03  0.90684107228E+02 0.  0.
        -13    1    4    4    0    0 -0.75750623830E+02  0.83424507638E+02 -0.80378437615E+02  0.13841422874E+03  0.00000000000E+00 0. -1.
         13    1    4    4    0    0  0.20543980778E+02 -0.26254009763E+01 -0.13556305368E+02  0.24753207705E+02  0.00000000000E+00 0.  1.
        -13    1    3    3    0    0  0.45437315315E+02  0.62179618249E+01 -0.88664129370E+02  0.99822545094E+02  0.00000000000E+00 0.  1.
         13    1    3    3    0    0 -0.79362290259E+01 -0.49811718977E+02 -0.25937802231E+03  0.26423691933E+03  0.00000000000E+00 0. -1.
          1    1    1    2  501    0  0.17705556764E+02 -0.37205349509E+02 -0.67568207622E+01  0.41753795027E+02  0.00000000000E+00 0. -1.
<scales pt_clust_5="13000.00000" pt_clust_6="13000.00000" pt_clust_7="13000.00000" pt_clust_8="13000.00000" pt_clust_9="41.20346"></scales>
<clustering>
<clus scale="   41.203">  1  9  2 -1</clus>
<clus scale="   89.996">  7  8 -1 -1</clus>
<clus scale="   90.684">  5  6 -1 -1</clus>
<clus scale="  111.017">  2  7  1 -1</clus>
<clus scale="   41.203">  1  5  2 -1</clus>
</clustering>
</event>
<event>
 9    1  0.3231311E-005  0.9156783E+02  0.7546771E-02  0.1299324E+00
         21   -1    0    0  501  502  0.00000000000E+00  0.00000000000E+00  0.13767694040E+03  0.13767694040E+03  0.00000000000E+00 0. -1.
         -4   -1    0    0    0  501 -0.00000000000E+00 -0.00000000000E+00 -0.90710315243E+02  0.90710315243E+02  0.00000000000E+00 0.  1.
         23    2    1    2    0    0 -0.19151706269E+02 -0.25191622093E+02  0.43832709230E+01  0.93558649462E+02  0.87935215634E+02 0.  0.
         23    2    1    2    0    0 -0.93599129055E+01  0.24781254446E+02  0.10747353914E+02  0.92089727557E+02  0.87540240826E+02 0.  0.
        -11    1    4    4    0    0 -0.46692990053E+02  0.23040135138E+01 -0.16639519222E+01  0.46779402886E+02  0.00000000000E+00 0.  1.
         11    1    4    4    0    0  0.37333077148E+02  0.22477240932E+02  0.12411305836E+02  0.45310324671E+02  0.00000000000E+00 0. -1.
        -13    1    3    3    0    0  0.51729509641E+01 -0.22452283490E+02 -0.38101651040E+02  0.44526399670E+02  0.00000000000E+00 0.  1.
         13    1    3    3    0    0 -0.24324657233E+02 -0.27393386030E+01  0.42484921963E+02  0.49032249792E+02  0.00000000000E+00 0. -1.
         -4    1    1    2    0  502  0.28511619174E+02  0.41036764694E+00  0.31836000320E+02  0.42738878623E+02  0.00000000000E+00 0.  1.
<scales pt_clust_5="13000.00000" pt_clust_6="13000.00000" pt_clust_7="13000.00000" pt_clust_8="13000.00000" pt_clust_9="28.51457"></scales>
<clustering>
<clus scale="   28.515">  1  9  2 -1</clus>
<clus scale="   87.540">  5  6 -1 -1</clus>
<clus scale="   87.935">  7  8 -1 -1</clus>
<clus scale="   91.189">  1  5  2 -1</clus>
<clus scale="   28.515">  1  5  2 -1</clus>
</clustering>
</event>
<event>
 9    1  0.3231311E-005  0.1037303E+03  0.7546771E-02  0.1273440E+00
          2   -1    0    0  502    0 -0.00000000000E+00  0.00000000000E+00  0.45135780265E+03  0.45135780265E+03  0.00000000000E+00 0.  1.
         21   -1    0    0  501  502  0.00000000000E+00 -0.00000000000E+00 -0.54149411322E+02  0.54149411322E+02  0.00000000000E+00 0.  1.
         23    2    1    2    0    0  0.11957439868E+02  0.72171251186E+02  0.19339760154E+03  0.22640897717E+03  0.92231896853E+02 0.  0.
         23    2    1    2    0    0  0.47512672071E+02 -0.15893938159E+02  0.14584510746E+03  0.17877949227E+03  0.90450208459E+02 0.  0.
        -11    1    3    3    0    0 -0.22205256699E+02  0.58005988702E+02  0.17377765605E+03  0.18454387525E+03  0.00000000000E+00 0.  1.
         11    1    3    3    0    0  0.34162696567E+02  0.14165262484E+02  0.19619945490E+02  0.41865101922E+02  0.00000000000E+00 0. -1.
        -13    1    4    4    0    0  0.76326055699E+01 -0.34070320997E+02  0.10415977875E+02  0.36435367923E+02  0.00000000000E+00 0. -1.
         13    1    4    4    0    0  0.39880066501E+02  0.18176382837E+02  0.13542912958E+03  0.14234412435E+03  0.00000000000E+00 0.  1.
          2    1    1    2  501    0 -0.59470111939E+02 -0.56277313027E+02  0.57965682329E+02  0.10031874453E+03  0.00000000000E+00 0.  1.
<scales pt_clust_5="13000.00000" pt_clust_6="13000.00000" pt_clust_7="13000.00000" pt_clust_8="13000.00000" pt_clust_9="81.87692"></scales>
<clustering>
<clus scale="   81.877">  2  9  1 -1</clus>
<clus scale="   90.450">  7  8 -1 -1</clus>
<clus scale="   92.232">  5  6 -1 -1</clus>
<clus scale="  102.149">  2  7  1 -1</clus>
<clus scale="   81.877">  2  5  1 -1</clus>
</clustering>
</event>
<event>
 9    1  0.3231311E-005  0.1237108E+03  0.7546771E-02  0.1237649E+00
          1   -1    0    0  502    0 -0.00000000000E+00  0.00000000000E+00  0.18929567660E+03  0.18929567660E+03  0.00000000000E+00 0. -1.
         21   -1    0    0  501  502  0.00000000000E+00 -0.00000000000E+00 -0.29612354209E+03  0.29612354209E+03  0.00000000000E+00 0. -1.
         23    2    1    2    0    0  0.15056851667E+02  0.87321117526E+02  0.94062769795E+02  0.15856226109E+03  0.91883075869E+02 0.  0.
         23    2    1    2    0    0  0.39290538888E+02 -0.73773088487E+02 -0.48054895408E+01  0.12292909700E+03  0.90012527613E+02 0.  0.
        -11    1    3    3    0    0  0.39493769952E+02  0.89579595459E+02  0.91301319418E+02  0.13386632405E+03  0.00000000000E+00 0.  1.
         11    1    3    3    0    0 -0.24436918285E+02 -0.22584779324E+01  0.27614503766E+01  0.24695937035E+02  0.00000000000E+00 0. -1.
        -13    1    4    4    0    0  0.26108323068E+02  0.65853236051E+01  0.24480073805E+02  0.36390727307E+02  0.00000000000E+00 0. -1.
         13    1    4    4    0    0  0.13182215821E+02 -0.80358412092E+02 -0.29285563346E+02  0.86538369689E+02  0.00000000000E+00 0.  1.
          1    1    1    2  501    0 -0.54347390555E+02 -0.13548029039E+02 -0.19608514574E+03  0.20392786061E+03  0.00000000000E+00 0. -1.
<scales pt_clust_5="13000.00000" pt_clust_6="13000.00000" pt_clust_7="13000.00000" pt_clust_8="13000.00000" pt_clust_9="56.01061"></scales>
<clustering>
<clus scale="   56.011">  2  9  1 -1</clus>
<clus scale="   90.013">  7  8 -1 -1</clus>
<clus scale="   91.883">  5  6 -1 -1</clus>
<clus scale="  122.328">  2  7  1 -1</clus>
<clus scale="   56.011">  2  5  1 -1</clus>
</clustering>
</event>
<event>
 9    1  0.3231311E-005  0.1749230E+03  0.7546771E-02  0.1198277E+00
         21   -1    0    0  501  502  0.00000000000E+00  0.00000000000E+00  0.17002355045E+03  0.17002355045E+03  0.00000000000E+00 0. -1.
          1   -1    0    0  502    0 -0.00000000000E+00 -0.00000000000E+00 -0.48111684246E+03  0.48111684246E+03  0.00000000000E+00 0. -1.
         23    2    1    2    0    0 -0.12073914155E+02  0.42404190262E+02  0.16300194803E+02  0.10054098378E+03  0.88875746494E+02 0.  0.
         23    2    1    2    0    0 -0.72972566251E+02 -0.15587442700E+03 -0.35482746521E+03  0.40616595862E+03  0.97192712964E+02 0.  0.
        -11    1    3    3    0    0 -0.39492659926E+02  0.10832053266E+02  0.35807701721E+02  0.54398484065E+02  0.00000000000E+00 0.  1.
         11    1    3    3    0    0  0.27418745772E+02  0.31572136996E+02 -0.19507506918E+02  0.46142499719E+02  0.00000000000E+00 0. -1.
        -11    1    4    4    0    0  0.18338954916E+02 -0.68760488693E+02 -0.13868688964E+03  0.15587936178E+03  0.00000000000E+00 0.  1.
         11    1    4    4    0    0 -0.91311521167E+02 -0.87113938309E+02 -0.21614057558E+03  0.25028659684E+03  0.00000000000E+00 0. -1.
          1    1    1    2  501    0  0.85046480406E+02  0.11347023674E+03  0.27433978398E+02  0.14443345051E+03  0.00000000000E+00 0. -1.
<scales pt_clust_5="13000.00000" pt_clust_6="13000.00000" pt_clust_7="13000.00000" pt_clust_8="13000.00000" pt_clust_9="145.43596"></scales>
<clustering>
<clus scale="   88.876">  5  6 -1 -1</clus>
<clus scale="   97.193">  7  8 -1 -1</clus>
<clus scale="   99.211">  2  5  1 -1</clus>
<clus scale="  145.436">  1  9  2 -1</clus>
<clus scale="  145.436">  1  5  2 -1</clus>
</clustering>
</event>
<event>
 9    1  0.3231311E-005  0.1632383E+03  0.7546771E-02  0.1186642E+00
         -3   -1    0    0    0  501 -0.00000000000E+00  0.00000000000E+00  0.27251616646E+03  0.27251616646E+03  0.00000000000E+00 0.  1.
         21   -1    0    0  501  502  0.00000000000E+00 -0.00000000000E+00 -0.13224085598E+03  0.13224085598E+03  0.00000000000E+00 0. -1.
         23    2    1    2    0    0 -0.64245344265E+02 -0.10113808241E+03  0.11740598365E+03  0.19182040449E+03  0.93029708192E+02 0.  0.
         23    2    1    2    0    0  0.58655146816E+02  0.12970455854E+03  0.39225126664E+02  0.17954790648E+03  0.10215253989E+03 0.  0.
        -11    1    4    4    0    0  0.28736627827E+02  0.10109343233E+03  0.71451012685E+02  0.12708628192E+03  0.00000000000E+00 0.  1.
         11    1    4    4    0    0  0.29918518989E+02  0.28611126202E+02 -0.32225886021E+02  0.52461624555E+02  0.00000000000E+00 0. -1.
        -13    1    3    3    0    0 -0.55923256374E+02 -0.31874254393E+02  0.12089942623E+02  0.65494621224E+02  0.00000000000E+00 0. -1.
         13    1    3    3    0    0 -0.83220878903E+01 -0.69263828016E+02  0.10531604103E+03  0.12632578326E+03  0.00000000000E+00 0.  1.
         -3    1    1    2    0  502  0.55901974488E+01 -0.28566476126E+02 -0.16355799840E+02  0.33388711478E+02  0.00000000000E+00 0.  1.
<scales pt_clust_5="13000.00000" pt_clust_6="13000.00000" pt_clust_7="13000.00000" pt_clust_8="13000.00000" pt_clust_9="29.10831"></scales>
<clustering>
<clus scale="   29.108">  2  9  1 -1</clus>
<clus scale="   93.030">  7  8 -1 -1</clus>
<clus scale="  102.153">  5  6 -1 -1</clus>
<clus scale="  157.690">  1  7  2 -1</clus>
<clus scale="   29.108">  2  5  1 -1</clus>
</clustering>
</event>
<event>
 9    1  0.3231311E-005  0.1538936E+03  0.7546771E-02  0.1196384E+00
          1   -1    0    0  502    0 -0.00000000000E+00  0.00000000000E+00  0.11483602179E+04  0.11483602179E+04  0.00000000000E+00 0. -1.
         21   -1    0    0  501  502  0.00000000000E+00 -0.00000000000E+00 -0.56593133649E+02  0.56593133649E+02  0.00000000000E+00 0. -1.
         23    2    1    2    0    0 -0.17259745196E+02  0.11253570767E+03  0.69567233062E+03  0.71134595456E+03  0.95346165026E+02 0.  0.
         23    2    1    2    0    0  0.23128939888E+02 -0.13207132174E+03  0.42681080405E+03  0.45673513892E+03  0.91987731742E+02 0.  0.
        -13    1    3    3    0    0 -0.51031547216E+02  0.31229691679E+02  0.31424063967E+03  0.31988543586E+03  0.00000000000E+00 0. -1.
         13    1    3    3    0    0  0.33771802020E+02  0.81306015994E+02  0.38143169095E+03  0.39146051871E+03  0.00000000000E+00 0.  1.
        -13    1    4    4    0    0 -0.44914358559E+01 -0.76688610682E+02  0.34878791154E+03  0.35714748108E+03  0.00000000000E+00 0.  1.
         13    1    4    4    0    0  0.27620375744E+02 -0.55382711053E+02  0.78022892507E+02  0.99587657844E+02  0.00000000000E+00 0. -1.
          1    1    1    2  501    0 -0.58691946915E+01  0.19535614063E+02 -0.30716050401E+02  0.36872258073E+02  0.00000000000E+00 0. -1.
<scales pt_clust_5="13000.00000" pt_clust_6="13000.00000" pt_clust_7="13000.00000" pt_clust_8="13000.00000" pt_clust_9="20.39823"></scales>
<clustering>
<clus scale="   20.398">  2  9  1 -1</clus>
<clus scale="   91.988">  7  8 -1 -1</clus>
<clus scale="   95.346">  5  6 -1 -1</clus>
<clus scale="  151.836">  2  7  1 -1</clus>
<clus scale="   20.398">  2  5  1 -1</clus>
</clustering>
</event>
<event>
 9    1  0.3231311E-005  0.1191628E+03  0.7546771E-02  0.1244927E+00
         21   -1    0    0  501  502  0.00000000000E+00  0.00000000000E+00  0.20750752741E+03  0.20750752741E+03  0.00000000000E+00 0.  1.
          1   -1    0    0  502    0 -0.00000000000E+00 -0.00000000000E+00 -0.49365012527E+03  0.49365012527E+03  0.00000000000E+00 0. -1.
         23    2    1    2    0    0  0.52848869363E+02 -0.25022768159E+02 -0.23689050921E+03  0.25996497214E+03  0.89696886596E+02 0.  0.
         23    2    1    2    0    0 -0.11172726010E+03  0.21615909729E+02 -0.21810926119E+03  0.26233235432E+03  0.91084499786E+02 0.  0.
        -11    1    4    4    0    0 -0.85412827952E+02 -0.99410011950E+01 -0.77217016927E+02  0.11557094093E+03  0.00000000000E+00 0.  1.
         11    1    4    4    0    0 -0.26314432145E+02  0.31556910924E+02 -0.14089224427E+03  0.14676141339E+03  0.00000000000E+00 0. -1.
        -11    1    3    3    0    0 -0.18350078790E+02 -0.11355163180E+02 -0.12355226579E+03  0.12542259567E+03  0.00000000000E+00 0.  1.
         11    1    3    3    0    0  0.71198948153E+02 -0.13667604979E+02 -0.11333824342E+03  0.13454237646E+03  0.00000000000E+00 0. -1.
          1    1    1    2  501    0  0.58878390733E+02  0.34068584298E+01  0.16885717254E+03  0.17886032622E+03  0.00000000000E+00 0. -1.
<scales pt_clust_5="13000.00000" pt_clust_6="13000.00000" pt_clust_7="13000.00000" pt_clust_8="13000.00000" pt_clust_9="58.97687"></scales>
<clustering>
<clus scale="   58.977">  1  9  2 -1</clus>
<clus scale="   89.697">  7  8 -1 -1</clus>
<clus scale="   91.084">  5  6 -1 -1</clus>
<clus scale="  118.106">  2  7  1 -1</clus>
<clus scale="   58.977">  1  5  2 -1</clus>
</clustering>
</event>
<event>
 9    1  0.3231311E-005  0.1935544E+03  0.7546771E-02  0.1178338E+00
         21   -1    0    0  501  502  0.00000000000E+00  0.00000000000E+00  0.10893573756E+04  0.10893573756E+04  0.00000000000E+00 0.  1.
          3   -1    0    0  502    0 -0.00000000000E+00 -0.00000000000E+00 -0.80562827131E+02  0.80562827131E+02  0.00000000000E+00 0. -1.
         23    2    1    2    0    0 -0.95199978094E+01  0.65034759407E+02  0.26919641198E+02  0.11705457079E+03  0.93042759904E+02 0.  0.
         23    2    1    2    0    0 -0.29304382655E+00 -0.20953741621E+03  0.53793420301E+03  0.58589597285E+03  0.99974344585E+02 0.  0.
        -11    1    4    4    0    0 -0.46541564455E+02 -0.10841113297E+03  0.22990387513E+03  0.25840836437E+03  0.00000000000E+00 0. -1.
         11    1    4    4    0    0  0.46248520628E+02 -0.10112628324E+03  0.30803032788E+03  0.32748760849E+03  0.00000000000E+00 0.  1.
        -11    1    3    3    0    0  0.10663129940E+02  0.53871964801E+02 -0.24926683761E+02  0.60309456100E+02  0.00000000000E+00 0. -1.
         11    1    3    3    0    0 -0.20183127750E+02  0.11162794606E+02  0.51846324959E+02  0.56745114688E+02  0.00000000000E+00 0.  1.
          3    1    1    2  501    0  0.98130416359E+01  0.14450265680E+03  0.44394070425E+03  0.46696965908E+03  0.00000000000E+00 0. -1.
<scales pt_clust_5="13000.00000" pt_clust_6="13000.00000" pt_clust_7="13000.00000" pt_clust_8="13000.00000" pt_clust_9="165.73602"></scales>
<clustering>
<clus scale="   93.043">  7  8 -1 -1</clus>
<clus scale="   99.974">  5  6 -1 -1</clus>
<clus scale="  113.917">  2  7  1 -1</clus>
<clus scale="  165.736">  1  9  2 -1</clus>
<clus scale="  165.736">  1  5  2 -1</clus>
</clustering>
</event>
<event>
 9    1  0.3231311E-005  0.1097316E+03  0.7546771E-02  0.1261529E+00
         21   -1    0    0  501  502  0.00000000000E+00  0.00000000000E+00  0.10619714459E+03  0.10619714459E+03  0.00000000000E+00 0. -1.
          1   -1    0    0  502    0 -0.00000000000E+00 -0.00000000000E+00 -0.53564780923E+03  0.53564780923E+03  0.00000000000E+00 0. -1.
         23    2    1    2    0    0 -0.56370012628E+02 -0.31336998127E+02 -0.39457452457E+03  0.40994246585E+03  0.90576951248E+02 0.  0.
         23    2    1    2    0    0  0.32894010779E+02  0.38926146670E+02 -0.11047000567E+03  0.15238424883E+03  0.91760973726E+02 0.  0.
        -11    1    3    3    0    0 -0.25122357170E+02  0.31343509970E+02 -0.11852788888E+03  0.12514954610E+03  0.00000000000E+00 0.  1.
         11    1    3    3    0    0 -0.31247655458E+02 -0.62680508097E+02 -0.27604663568E+03  0.28479291975E+03  0.00000000000E+00 0. -1.
        -13    1    4    4    0    0  0.10474426027E+01  0.63945114656E+02 -0.74836895652E+02  0.98441026890E+02  0.00000000000E+00 0.  1.
         13    1    4    4    0    0  0.31846568176E+02 -0.25018967986E+02 -0.35633110020E+02  0.53943221942E+02  0.00000000000E+00 0. -1.
          1    1    1    2  501    0  0.23476001849E+02 -0.75891485429E+01  0.75593865600E+02  0.79518239133E+02  0.00000000000E+00 0. -1.
<scales pt_clust_5="13000.00000" pt_clust_6="13000.00000" pt_clust_7="13000.00000" pt_clust_8="13000.00000" pt_clust_9="24.67221"></scales>
<clustering>
<clus scale="   24.672">  1  9  2 -1</clus>
<clus scale="   90.577">  5  6 -1 -1</clus>
<clus scale="   91.761">  7  8 -1 -1</clus>
<clus scale="  108.743">  2  5  1 -1</clus>
<clus scale="   24.672">  1  5  2 -1</clus>
</clustering>
</event>
<event>
 9    1  0.3231311E-005  0.9805198E+02  0.7546771E-02  0.1284495E+00
         21   -1    0    0  501  502  0.00000000000E+00  0.00000000000E+00  0.42988007068E+02  0.42988007068E+02  0.00000000000E+00 0.  1.
          2   -1    0    0  502    0 -0.00000000000E+00 -0.00000000000E+00 -0.65378331770E+03  0.65378331770E+03  0.00000000000E+00 0. -1.
         23    2    1    2    0    0  0.14872443981E+02  0.10504833469E+02 -0.30092145312E+03  0.31509177819E+03  0.91638237763E+02 0.  0.
         23    2    1    2    0    0 -0.54071346641E+02 -0.15567555581E+02 -0.32270521575E+03  0.34012441598E+03  0.91541808780E+02 0.  0.
        -11    1    3    3    0    0 -0.32068470746E+02 -0.19390558753E+01 -0.49419714163E+02  0.58944506967E+02  0.00000000000E+00 0.  1.
         11    1    3    3    0    0  0.46940914728E+02  0.12443889344E+02 -0.25150173895E+03  0.25614727122E+03  0.00000000000E+00 0. -1.
        -13    1    4    4    0    0  0.35571694912E+01 -0.31963601470E+02 -0.40951948893E+02  0.52070984164E+02  0.00000000000E+00 0.  1.
         13    1    4    4    0    0 -0.57628516132E+02  0.16396045889E+02 -0.28175326686E+03  0.28805343181E+03  0.00000000000E+00 0. -1.
          2    1    1    2  501    0  0.39198902659E+02  0.50627221117E+01  0.12831358241E+02  0.41555130600E+02  0.00000000000E+00 0. -1.
<scales pt_clust_5="13000.00000" pt_clust_6="13000.00000" pt_clust_7="13000.00000" pt_clust_8="13000.00000" pt_clust_9="39.52449"></scales>
<clustering>
<clus scale="   39.524">  1  9  2 -1</clus>
<clus scale="   91.542">  7  8 -1 -1</clus>
<clus scale="   91.638">  5  6 -1 -1</clus>
<clus scale="   97.962">  1  7  2 -1</clus>
<clus scale="   39.524">  1  5  2 -1</clus>
</clustering>
</event>
<event>
 9    1  0.3231311E-005  0.1069445E+03  0.7546771E-02  0.1267606E+00
          1   -1    0    0  502    0 -0.00000000000E+00  0.00000000000E+00  0.53594970789E+03  0.53594970789E+03  0.00000000000E+00 0. -1.
         21   -1    0    0  501  502  0.00000000000E+00 -0.00000000000E+00 -0.40465350237E+02  0.40465350237E+02  0.00000000000E+00 0.  1.
         23    2    1    2    0    0 -0.31067715571E+02  0.36604106232E+02  0.20654786741E+03  0.22971947913E+03  0.88339991043E+02 0.  0.
         23    2    1    2    0    0 -0.17829127720E+02 -0.78481187030E+02  0.22565521712E+03  0.25642315404E+03  0.91407780843E+02 0.  0.
        -13    1    4    4    0    0 -0.32649169817E+02 -0.93625341233E+02  0.16907139046E+03  0.19600206091E+03  0.00000000000E+00 0. -1.
         13    1    4    4    0    0  0.14820042096E+02  0.15144154203E+02  0.56583826665E+02  0.60421093124E+02  0.00000000000E+00 0.  1.
        -13    1    3    3    0    0  0.17925167826E+02  0.89962538389E+01  0.52751928610E+01  0.20738174568E+02  0.00000000000E+00 0.  1.
         13    1    3    3    0    0 -0.48992883397E+02  0.27607852393E+02  0.20127267455E+03  0.20898130456E+03  0.00000000000E+00 0. -1.
          1    1    1    2  501    0  0.48896843291E+02  0.41877080798E+02  0.63281273120E+02  0.90272424958E+02  0.00000000000E+00 0. -1.
<scales pt_clust_5="13000.00000" pt_clust_6="13000.00000" pt_clust_7="13000.00000" pt_clust_8="13000.00000" pt_clust_9="64.37850"></scales>
<clustering>
<clus scale="   64.378">  2  9  1 -1</clus>
<clus scale="   88.340">  7  8 -1 -1</clus>
<clus scale="   91.408">  5  6 -1 -1</clus>
<clus scale="  104.335">  1  7  2 -1</clus>
<clus scale="   64.378">  2  5  1 -1</clus>
</clustering>
</event>
<event>
 9    1  0.3231311E-005  0.9257673E+02  0.7546771E-02  0.1297599E+00
         21   -1    0    0  501  502  0.00000000000E+00  0.00000000000E+00  0.42522478781E+03  0.42522478781E+03  0.00000000000E+00 0.  1.
          4   -1    0    0  502    0 -0.00000000000E+00 -0.00000000000E+00 -0.30249263387E+02  0.30249263387E+02  0.00000000000E+00 0. -1.
         23    2    1    2    0    0 -0.94357173936E+01  0.55271382049E+01  0.10194773058E+03  0.13661506048E+03  0.90281520597E+02 0.  0.
         23    2    1    2    0    0  0.28543649289E+02 -0.24428069341E+02  0.19980431738E+03  0.22183850410E+03  0.88764216719E+02 0.  0.
        -11    1    4    4    0    0  0.24465299691E+02 -0.57356419137E+02  0.11585633714E+03  0.13157127559E+03  0.00000000000E+00 0.  1.
         11    1    4    4    0    0  0.40783495975E+01  0.32928349796E+02  0.83947980235E+02  0.90267228501E+02  0.00000000000E+00 0. -1.
        -13    1    3    3    0    0  0.61494155536E+01  0.43741623164E+02  0.29120609162E+02  0.52907039102E+02  0.00000000000E+00 0. -1.
         13    1    3    3    0    0 -0.15585132947E+02 -0.38214484959E+02  0.72827121415E+02  0.83708021379E+02  0.00000000000E+00 0.  1.
          4    1    1    2  501    0 -0.19107931895E+02  0.18900931136E+02  0.93223476470E+02  0.97020486622E+02  0.00000000000E+00 0. -1.
<scales pt_clust_5="13000.00000" pt_clust_6="13000.00000" pt_clust_7="13000.00000" pt_clust_8="13000.00000" pt_clust_9="26.87672"></scales>
<clustering>
<clus scale="   26.877">  1  9  2 -1</clus>
<clus scale="   88.764">  5  6 -1 -1</clus>
<clus scale="   90.282">  7  8 -1 -1</clus>
<clus scale="   91.098">  1  5  2 -1</clus>
<clus scale="   26.877">  1  5  2 -1</clus>
</clustering>
</event>
<event>
 9    1  0.3231311E-005  0.1086449E+03  0.7546771E-02  0.1263452E+00
          3   -1    0    0  502    0 -0.00000000000E+00  0.00000000000E+00  0.90931828573E+02  0.90931828573E+02  0.00000000000E+00 0. -1.
         21   -1    0    0  501  502  0.00000000000E+00 -0.00000000000E+00 -0.54062342141E+03  0.54062342141E+03  0.00000000000E+00 0. -1.
         23    2    1    2    0    0  0.22035908814E+02  0.55426760137E+02  0.39497110076E+02  0.11567767246E+03  0.90904318843E+02 0.  0.
         23    2    1    2    0    0 -0.47331705967E+02 -0.32164331847E+02 -0.22707569403E+03  0.25152128888E+03  0.91786454911E+02 0.  0.
        -13    1    3    3    0    0  0.55850089226E+02  0.48658499973E+02  0.29916508672E+02  0.79886667081E+02  0.00000000000E+00 0. -1.
         13    1    3    3    0    0 -0.33814180413E+02  0.67682601649E+01  0.95806014033E+01  0.35791005377E+02  0.00000000000E+00 0.  1.
        -13    1    4    4    0    0  0.27134576665E+02 -0.27904314088E+01 -0.72199461809E+02  0.77180528916E+02  0.00000000000E+00 0.  1.
         13    1    4    4    0    0 -0.74466282632E+02 -0.29373900439E+02 -0.15487623222E+03  0.17434075996E+03  0.00000000000E+00 0. -1.
          3    1    1    2  501    0  0.25295797153E+02 -0.23262428290E+02 -0.26211300888E+03  0.26435628865E+03  0.00000000000E+00 0. -1.
<scales pt_clust_5="13000.00000" pt_clust_6="13000.00000" pt_clust_7="13000.00000" pt_clust_8="13000.00000" pt_clust_9="34.36594"></scales>
<clustering>
<clus scale="   34.366">  2  9  1 -1</clus>
<clus scale="   90.904">  5  6 -1 -1</clus>
<clus scale="   91.786">  7  8 -1 -1</clus>
<clus scale="  107.901">  1  5  2 -1</clus>
<clus scale="   34.366">  2  5  1 -1</clus>
</clustering>
</event>
<event>
 9    1  0.3231311E-005  0.1048921E+03  0.7546771E-02  0.1270456E+00
         21   -1    0    0  501  502  0.00000000000E+00  0.00000000000E+00  0.14866201450E+03  0.14866201450E+03  0.00000000000E+00 0. -1.
          2   -1    0    0  502    0 -0.00000000000E+00 -0.00000000000E+00 -0.15987433734E+03  0.15987433734E+03  0.00000000000E+00 0. -1.
         23    2    1    2    0    0  0.85295038124E+01 -0.37467766004E+02 -0.54865458752E+02  0.11362654303E+03  0.91783368823E+02 0.  0.
         23    2    1    2    0    0  0.27296655691E+02  0.77261833207E+02 -0.44834989563E+01  0.12290830115E+03  0.91497816621E+02 0.  0.
        -11    1    3    3    0    0  0.75690404682E+01 -0.67637391755E+02 -0.29414607021E+02  0.74143956215E+02  0.00000000000E+00 0.  1.
         11    1    3    3    0    0  0.96046334414E+00  0.30169625751E+02 -0.25450851732E+02  0.39482586816E+02  0.00000000000E+00 0. -1.
        -13    1    4    4    0    0 -0.22263379970E+02  0.62060224796E+02  0.14844648755E+02  0.67583231545E+02  0.00000000000E+00 0. -1.
         13    1    4    4    0    0  0.49560035660E+02  0.15201608412E+02 -0.19328147711E+02  0.55325069606E+02  0.00000000000E+00 0.  1.
          2    1    1    2  501    0 -0.35826159503E+02 -0.39794067204E+02  0.48136634869E+02  0.72001507664E+02  0.00000000000E+00 0. -1.
<scales pt_clust_5="13000.00000" pt_clust_6="13000.00000" pt_clust_7="13000.00000" pt_clust_8="13000.00000" pt_clust_9="53.54514"></scales>
<clustering>
<clus scale="   53.545">  1  9  2 -1</clus>
<clus scale="   91.498">  7  8 -1 -1</clus>
<clus scale="   91.783">  5  6 -1 -1</clus>
<clus scale="  104.642">  1  7  2 -1</clus>
<clus scale="   53.545">  1  5  2 -1</clus>
</clustering>
</event>
<event>
 9    1  0.3231311E-005  0.9710627E+02  0.7546771E-02  0.1287557E+00
         21   -1    0    0  501  502  0.00000000000E+00  0.00000000000E+00  0.32663553596E+03  0.32663553596E+03  0.00000000000E+00 0.  1.
          3   -1    0    0  502    0 -0.00000000000E+00 -0.00000000000E+00 -0.58269551520E+02  0.58269551520E+02  0.00000000000E+00 0. -1.
         23    2    1    2    0    0 -0.45880818050E+02 -0.19088449273E+02  0.45573142058E+02  0.11356444369E+03  0.91381361518E+02 0.  0.
         23    2    1    2    0    0  0.11712294843E+02  0.65129541593E+01  0.70064682614E+02  0.11433261265E+03  0.89349259337E+02 0.  0.
        -11    1    4    4    0    0  0.45384960948E+01  0.32027255878E+02  0.79792706663E+02  0.86100052860E+02  0.00000000000E+00 0.  1.
         11    1    4    4    0    0  0.71737987480E+01 -0.25514301718E+02 -0.97280240484E+01  0.28232559794E+02  0.00000000000E+00 0. -1.
        -13    1    3    3    0    0 -0.54029613100E+02 -0.48971650173E+02  0.34502024878E+02  0.80671006769E+02  0.00000000000E+00 0. -1.
         13    1    3    3    0    0  0.81487950499E+01  0.29883200900E+02  0.11071117179E+02  0.32893436920E+02  0.00000000000E+00 0.  1.
          3    1    1    2  501    0  0.34168523208E+02  0.12575495114E+02  0.15272815977E+03  0.15700803114E+03  0.00000000000E+00 0. -1.
<scales pt_clust_5="13000.00000" pt_clust_6="13000.00000" pt_clust_7="13000.00000" pt_clust_8="13000.00000" pt_clust_9="36.40922"></scales>
<clustering>
<clus scale="   36.409">  1  9  2 -1</clus>
<clus scale="   89.349">  5  6 -1 -1</clus>
<clus scale="   91.381">  7  8 -1 -1</clus>
<clus scale="   95.196">  1  5  2 -1</clus>
<clus scale="   36.409">  1  5  2 -1</clus>
</clustering>
</event>
<event>
 9    1  0.3231311E-005  0.1723355E+03  0.7546771E-02  0.1195956E+00
         21   -1    0    0  501  502  0.00000000000E+00  0.00000000000E+00  0.24691814075E+03  0.24691814075E+03  0.00000000000E+00 0.  1.
          2   -1    0    0  502    0 -0.00000000000E+00 -0.00000000000E+00 -0.23020907423E+03  0.23020907423E+03  0.00000000000E+00 0. -1.
         23    2    1    2    0    0 -0.53363694612E+02  0.27408787878E+02 -0.50812384532E+02  0.12038680794E+03  0.91171045559E+02 0.  0.
         23    2    1    2    0    0  0.81089554639E+02  0.12262132024E+03  0.10126444272E+03  0.20048309956E+03  0.91255037120E+02 0.  0.
        -11    1    4    4    0    0  0.22083336275E+02 -0.12091566354E+02  0.83650025700E+01  0.26530227778E+02  0.00000000000E+00 0. -1.
         11    1    4    4    0    0  0.59006218364E+02  0.13471288660E+03  0.92899440150E+02  0.17395287178E+03  0.00000000000E+00 0.  1.
        -13    1    3    3    0    0  0.14634056725E+02 -0.20012787872E+02 -0.37947842821E+01  0.25081221708E+02  0.00000000000E+00 0. -1.
         13    1    3    3    0    0 -0.67997751336E+02  0.47421575750E+02 -0.47017600250E+02  0.95305586230E+02  0.00000000000E+00 0.  1.
          2    1    1    2  501    0 -0.27725860027E+02 -0.15003010812E+03 -0.33742991661E+02  0.15625730749E+03  0.00000000000E+00 0. -1.
<scales pt_clust_5="13000.00000" pt_clust_6="13000.00000" pt_clust_7="13000.00000" pt_clust_8="13000.00000" pt_clust_9="146.19186"></scales>
<clustering>
<clus scale="   91.171">  7  8 -1 -1</clus>
<clus scale="   91.255">  5  6 -1 -1</clus>
<clus scale="  109.138">  2  7  1 -1</clus>
<clus scale="  146.192">  1  9  2 -1</clus>
<clus scale="  146.192">  1  5  2 -1</clus>
</clustering>
</event>
<event>
 9    1  0.3231311E-005  0.1330265E+03  0.7546771E-02  0.1223233E+00
         21   -1    0    0  501  502  0.00000000000E+00  0.00000000000E+00  0.74348412158E+03  0.74348412158E+03  0.00000000000E+00 0.  1.
          1   -1    0    0  502    0 -0.00000000000E+00 -0.00000000000E+00 -0.72208886607E+02  0.72208886607E+02  0.00000000000E+00 0. -1.
         23    2    1    2    0    0 -0.94876850946E+02  0.22239121706E+02  0.38221867599E+02  0.13707455789E+03  0.88500439991E+02 0.  0.
         23    2    1    2    0    0  0.11197956237E+03  0.39515600120E+02  0.25062553558E+03  0.29085925320E+03  0.87664365872E+02 0.  0.
        -11    1    4    4    0    0  0.43653561140E+02 -0.27600212969E+02  0.81078194751E+02  0.96130530115E+02  0.00000000000E+00 0.  1.
         11    1    4    4    0    0  0.68326001227E+02  0.67115813088E+02  0.16954734083E+03  0.19472872308E+03  0.00000000000E+00 0. -1.
        -11    1    3    3    0    0 -0.87241616456E+02 -0.19335886817E+02  0.26689088974E+02  0.93259228129E+02  0.00000000000E+00 0.  1.
         11    1    3    3    0    0 -0.76352344896E+01  0.41575008523E+02  0.11532778625E+02  0.43815329763E+02  0.00000000000E+00 0. -1.
          1    1    1    2  501    0 -0.17102711422E+02 -0.61754721825E+02  0.38242783179E+03  0.38775919709E+03  0.00000000000E+00 0. -1.
<scales pt_clust_5="13000.00000" pt_clust_6="13000.00000" pt_clust_7="13000.00000" pt_clust_8="13000.00000" pt_clust_9="64.07924"></scales>
<clustering>
<clus scale="   64.079">  1  9  2 -1</clus>
<clus scale="   87.664">  5  6 -1 -1</clus>
<clus scale="   88.500">  7  8 -1 -1</clus>
<clus scale="  132.472">  1  5  2 -1</clus>
<clus scale="   64.079">  1  5  2 -1</clus>
</clustering>
</event>
<event>
 9    1  0.3231311E-005  0.1215972E+03  0.7546771E-02  0.1240765E+00
         -4   -1    0    0    0  501 -0.00000000000E+00  0.00000000000E+00  0.40022100870E+02  0.40022100870E+02  0.00000000000E+00 0.  1.
         21   -1    0    0  501  502  0.00000000000E+00 -0.00000000000E+00 -0.51436697068E+03  0.51436697068E+03  0.00000000000E+00 0. -1.
         23    2    1    2    0    0  0.11074666001E+02 -0.91471713126E+02 -0.14600784088E+03  0.19476158576E+03  0.90133585078E+02 0.  0.
         23    2    1    2    0    0 -0.47837417199E+00  0.60780296948E+02 -0.28625243541E+03  0.30647339433E+03  0.91054990612E+02 0.  0.
        -13    1    4    4    0    0  0.14995438327E+02  0.79663081361E+02 -0.17934403324E+03  0.19681298728E+03  0.00000000000E+00 0.  1.
         13    1    4    4    0    0 -0.15473812499E+02 -0.18882784413E+02 -0.10690840216E+03  0.10966040705E+03  0.00000000000E+00 0. -1.
        -13    1    3    3    0    0 -0.36880903592E+02 -0.34744654001E+02 -0.36539583363E+02  0.62470258393E+02  0.00000000000E+00 0.  1.
         13    1    3    3    0    0  0.47955569592E+02 -0.56727059125E+02 -0.10946825752E+03  0.13229132737E+03  0.00000000000E+00 0. -1.
         -4    1    1    2    0  502 -0.10596291829E+02  0.30691416178E+02 -0.42084593518E+02  0.53154091462E+02  0.00000000000E+00 0.  1.
<scales pt_clust_5="13000.00000" pt_clust_6="13000.00000" pt_clust_7="13000.00000" pt_clust_8="13000.00000" pt_clust_9="32.46915"></scales>
<clustering>
<clus scale="   32.469">  2  9  1 -1</clus>
<clus scale="   90.134">  7  8 -1 -1</clus>
<clus scale="   91.055">  5  6 -1 -1</clus>
<clus scale="  120.909">  1  7  2 -1</clus>
<clus scale="   32.469">  2  5  1 -1</clus>
</clustering>
</event>
<event>
 9    1  0.3231311E-005  0.9658072E+02  0.7546771E-02  0.1288264E+00
          2   -1    0    0  502    0 -0.00000000000E+00  0.00000000000E+00  0.47229490600E+03  0.47229490600E+03  0.00000000000E+00 0. -1.
         21   -1    0    0  501  502  0.00000000000E+00 -0.00000000000E+00 -0.52330318603E+02  0.52330318603E+02  0.00000000000E+00 0. -1.
         23    2    1    2    0    0 -0.29070033949E+02 -0.13154669107E+02  0.30232889391E+03  0.31763158705E+03  0.92026913481E+02 0.  0.
         23    2    1    2    0    0  0.29798815769E+02 -0.26549088826E+02  0.13166062137E+03  0.16487929179E+03  0.90872647705E+02 0.  0.
        -11    1    3    3    0    0 -0.62749871247E+02 -0.90037522138E+01  0.20276139930E+03  0.21244010672E+03  0.00000000000E+00 0.  1.
         11    1    3    3    0    0  0.33679837299E+02 -0.41509168931E+01  0.99567494607E+02  0.10519148033E+03  0.00000000000E+00 0. -1.
        -11    1    4    4    0    0  0.61425076170E+02 -0.13368777999E+02  0.10064070482E+03  0.11866050596E+03  0.00000000000E+00 0. -1.
         11    1    4    4    0    0 -0.31626260402E+02 -0.13180310827E+02  0.31019916559E+02  0.46218785832E+02  0.00000000000E+00 0.  1.
          2    1    1    2  501    0 -0.72878182001E+00  0.39703757933E+02 -0.14024927889E+02  0.42114345766E+02  0.00000000000E+00 0. -1.
<scales pt_clust_5="13000.00000" pt_clust_6="13000.00000" pt_clust_7="13000.00000" pt_clust_8="13000.00000" pt_clust_9="39.71045"></scales>
<clustering>
<clus scale="   39.710">  2  9  1 -1</clus>
<clus scale="   90.873">  7  8 -1 -1</clus>
<clus scale="   92.027">  5  6 -1 -1</clus>
<clus scale="   95.482">  2  7  1 -1</clus>
<clus scale="   39.710">  2  5  1 -1</clus>
</clustering>
</event>
<event>
 9    1  0.3231311E-005  0.9455811E+02  0.7546771E-02  0.1292892E+00
         -3   -1    0    0    0  501 -0.00000000000E+00  0.00000000000E+00  0.35937926506E+02  0.35937926506E+02  0.00000000000E+00 0.  1.
         21   -1    0    0  501  502  0.00000000000E+00 -0.00000000000E+00 -0.42503477192E+03  0.42503477192E+03  0.00000000000E+00 0. -1.
         23    2    1    2    0    0 -0.16478395434E+02  0.87315038170E+00 -0.64325906042E+02  0.11339877204E+03  0.91919309206E+02 0.  0.
         23    2    1    2    0    0  0.37641708878E+02  0.88643280239E+01 -0.23480671545E+03  0.25464241446E+03  0.90626105875E+02 0.  0.
        -11    1    4    4    0    0  0.42905207697E+01  0.29849087892E+02 -0.19846884798E+02  0.36100906535E+02  0.00000000000E+00 0. -1.
         11    1    4    4    0    0  0.33351188108E+02 -0.20984759868E+02 -0.21495983065E+03  0.21854150793E+03  0.00000000000E+00 0.  1.
        -11    1    3    3    0    0 -0.32218399526E+02 -0.15852187927E+02  0.86161689495E+01  0.36926352344E+02  0.00000000000E+00 0.  1.
         11    1    3    3    0    0  0.15740004092E+02  0.16725338309E+02 -0.72942074992E+02  0.76472419698E+02  0.00000000000E+00 0. -1.
         -3    1    1    2    0  502 -0.21163313444E+02 -0.97374784056E+01 -0.89964223924E+02  0.92931511921E+02  0.00000000000E+00 0.  1.
<scales pt_clust_5="13000.00000" pt_clust_6="13000.00000" pt_clust_7="13000.00000" pt_clust_8="13000.00000" pt_clust_9="23.29602"></scales>
<clustering>
<clus scale="   23.296">  2  9  1 -1</clus>
<clus scale="   90.626">  5  6 -1 -1</clus>
<clus scale="   91.919">  7  8 -1 -1</clus>
<clus scale="   93.301">  2  5  1 -1</clus>
<clus scale="   23.296">  2  5  1 -1</clus>
</clustering>
</event>
<event>
 9    1  0.3231311E-005  0.1442949E+03  0.7546771E-02  0.1208161E+00
          2   -1    0    0  502    0 -0.00000000000E+00  0.00000000000E+00  0.76095499178E+03  0.76095499178E+03  0.00000000000E+00 0. -1.
         21   -1    0    0  501  502  0.00000000000E+00 -0.00000000000E+00 -0.18278020191E+03  0.18278020191E+03  0.00000000000E+00 0. -1.
         23    2    1    2    0    0  0.78635866523E+02  0.79759749988E+02  0.44350779451E+03  0.46642784594E+03  0.91162242479E+02 0.  0.
         23    2    1    2    0    0 -0.54607507099E+02 -0.94122520112E+02  0.28782575124E+03  0.32161131142E+03  0.93536858672E+02 0.  0.
        -11    1    4    4    0    0 -0.18690013825E+02 -0.33652024728E+02  0.22189092843E+03  0.22520514982E+03  0.00000000000E+00 0. -1.
         11    1    4    4    0    0 -0.35917493274E+02 -0.60470495384E+02  0.65934822811E+02  0.96406161599E+02  0.00000000000E+00 0.  1.
        -13    1    3    3    0    0 -0.18218343364E+02  0.26567867667E+02  0.72965626969E+02  0.79760531256E+02  0.00000000000E+00 0.  1.
         13    1    3    3    0    0  0.96854209886E+02  0.53191882321E+02  0.37054216754E+03  0.38666731468E+03  0.00000000000E+00 0. -1.
          2    1    1    2  501    0 -0.24028359423E+02  0.14362770124E+02 -0.15315875589E+03  0.15569603633E+03  0.00000000000E+00 0. -1.
<scales pt_clust_5="13000.00000" pt_clust_6="13000.00000" pt_clust_7="13000.00000" pt_clust_8="13000.00000" pt_clust_9="27.99377"></scales>
<clustering>
<clus scale="   27.994">  2  9  1 -1</clus>
<clus scale="   91.162">  7  8 -1 -1</clus>
<clus scale="   93.537">  5  6 -1 -1</clus>
<clus scale="  142.767">  1  7  2 -1</clus>
<clus scale="   27.994">  2  5  1 -1</clus>
</clustering>
</event>
<event>
 9    1  0.3231311E-005  0.1122966E+03  0.7546771E-02  0.1256855E+00
         -3   -1    0    0    0  501 -0.00000000000E+00  0.00000000000E+00  0.55038136711E+03  0.55038136711E+03  0.00000000000E+00 0.  1.
         21   -1    0    0  501  502  0.00000000000E+00 -0.00000000000E+00 -0.61872971467E+02  0.61872971467E+02  0.00000000000E+00 0.  1.
         23    2    1    2    0    0 -0.83093628599E+02  0.19182355015E+01  0.31001286566E+03  0.33264180181E+03  0.87374828725E+02 0.  0.
         23    2    1    2    0    0  0.53358959582E+02  0.93879453843E+01  0.21032422960E+03  0.23461202135E+03  0.88719822586E+02 0.  0.
        -11    1    3    3    0    0 -0.63904699581E+02 -0.21196555507E+02  0.28701933257E+03  0.29481045073E+03  0.00000000000E+00 0.  1.
         11    1    3    3    0    0 -0.19188929018E+02  0.23114791009E+02  0.22993533097E+02  0.37831351080E+02  0.00000000000E+00 0. -1.
        -13    1    4    4    0    0  0.15994003022E+01 -0.25545271272E+02  0.15266121873E+02  0.29802238888E+02  0.00000000000E+00 0.  1.
         13    1    4    4    0    0  0.51759559280E+02  0.34933216656E+02  0.19505810773E+03  0.20480978246E+03  0.00000000000E+00 0. -1.
         -3    1    1    2    0  502  0.29734669017E+02 -0.11306180886E+02 -0.31828699621E+02  0.45000515412E+02  0.00000000000E+00 0.  1.
<scales pt_clust_5="13000.00000" pt_clust_6="13000.00000" pt_clust_7="13000.00000" pt_clust_8="13000.00000" pt_clust_9="31.81164"></scales>
<clustering>
<clus scale="   31.812">  2  9  1 -1</clus>
<clus scale="   87.375">  5  6 -1 -1</clus>
<clus scale="   88.720">  7  8 -1 -1</clus>
<clus scale="  111.237">  1  5  2 -1</clus>
<clus scale="   31.812">  2  5  1 -1</clus>
</clustering>
</event>
<event>
 9    1  0.7183162E-005  0.9468235E+02  0.7546771E-02  0.1292544E+00
          2   -1    0    0  502    0 -0.00000000000E+00  0.00000000000E+00  0.35894490852E+03  0.35894490852E+03  0.00000000000E+00 0. -1.
         21   -1    0    0  501  502  0.00000000000E+00 -0.00000000000E+00 -0.30688740399E+03  0.30688740399E+03  0.00000000000E+00 0.  1.
         23    2    1    2    0    0  0.35296315454E+01  0.16146058512E+02  0.30799939547E+03  0.32199847069E+03  0.92445843684E+02 0.  0.
         23    2    1    2    0    0  0.21176871887E+02  0.61938800831E+02 -0.23185906904E+03  0.25846617299E+03  0.93601601111E+02 0.  0.
        -11    1    3    3    0    0  0.45452096130E+02 -0.64296006182E+01  0.13650809468E+03  0.14401976503E+03  0.00000000000E+00 0.  1.
         11    1    3    3    0    0 -0.41922464585E+02  0.22575659130E+02  0.17149130079E+03  0.17797870566E+03  0.00000000000E+00 0. -1.
        -13    1    4    4    0    0  0.92720171890E+01  0.81985418834E+02 -0.12999881149E+03  0.15397165386E+03  0.00000000000E+00 0.  1.
         13    1    4    4    0    0  0.11904854698E+02 -0.20046618003E+02 -0.10186025755E+03  0.10449451913E+03  0.00000000000E+00 0. -1.
          2    1    1    2  501    0 -0.24706503433E+02 -0.78084859343E+02 -0.24082821898E+02  0.85367668828E+02  0.00000000000E+00 0. -1.
<scales pt_clust_5="13000.00000" pt_clust_6="13000.00000" pt_clust_7="13000.00000" pt_clust_8="13000.00000" pt_clust_9="81.90028"></scales>
<clustering>
<clus scale="   81.900">  2  9  1 -1</clus>
<clus scale="   92.446">  5  6 -1 -1</clus>
<clus scale="   93.540">  1  5  2 -1</clus>
<clus scale="   93.602">  7  8 -1 -1</clus>
<clus scale="   81.900">  2  5  1 -1</clus>
</clustering>
</event>
<event>
 9    1  0.3231311E-005  0.1043746E+03  0.7546771E-02  0.1276604E+00
          4   -1    0    0  502    0 -0.00000000000E+00  0.00000000000E+00  0.77864377600E+02  0.77864377600E+02  0.00000000000E+00 0. -1.
         21   -1    0    0  501  502  0.00000000000E+00 -0.00000000000E+00 -0.71844022383E+03  0.71844022383E+03  0.00000000000E+00 0.  1.
         23    2    1    2    0    0 -0.45214889383E+02  0.49025195642E+01  0.23283128891E+02  0.10768573331E+03  0.94792890805E+02 0.  0.
         23    2    1    2    0    0  0.12342221242E+02 -0.68104066912E+02 -0.46111322184E+03  0.47372147779E+03  0.83642936398E+02 0.  0.
        -11    1    4    4    0    0 -0.10896200506E+02 -0.80381298933E+02 -0.37565384515E+03  0.38431197194E+03  0.00000000000E+00 0.  1.
         11    1    4    4    0    0  0.23238421748E+02  0.12277232022E+02 -0.85459376691E+02  0.89409505847E+02  0.00000000000E+00 0. -1.
        -11    1    3    3    0    0 -0.48662990792E+02  0.41686088845E+02  0.28942559315E+02  0.70309945355E+02  0.00000000000E+00 0. -1.
         11    1    3    3    0    0  0.34481014098E+01 -0.36783569281E+02 -0.56594304245E+01  0.37375787953E+02  0.00000000000E+00 0.  1.
          4    1    1    2  501    0  0.32872668140E+02  0.63201547347E+02 -0.20274575328E+03  0.21489739033E+03  0.00000000000E+00 0. -1.
<scales pt_clust_5="13000.00000" pt_clust_6="13000.00000" pt_clust_7="13000.00000" pt_clust_8="13000.00000" pt_clust_9="71.23937"></scales>
<clustering>
<clus scale="   71.239">  2  9  1 -1</clus>
<clus scale="   83.643">  5  6 -1 -1</clus>
<clus scale="   94.364">  2  5  1 -1</clus>
<clus scale="   94.793">  7  8 -1 -1</clus>
<clus scale="   71.239">  2  5  1 -1</clus>
</clustering>
</event>
<event>
 9    1  0.3231311E-005  0.1953012E+03  0.7546771E-02  0.1153885E+00
          1   -1    0    0  502    0 -0.00000000000E+00  0.00000000000E+00  0.92098869450E+03  0.92098869450E+03  0.00000000000E+00 0. -1.
         21   -1    0    0  501  502  0.00000000000E+00 -0.00000000000E+00 -0.11688214294E+03  0.11688214294E+03  0.00000000000E+00 0. -1.
         23    2    1    2    0    0 -0.15490897224E+02  0.19044328819E+03  0.72546130890E+03  0.75596618226E+03  0.93178023639E+02 0.  0.
         23    2    1    2    0    0  0.63931017873E+01 -0.12462028438E+03  0.12643179867E+03  0.20005728109E+03  0.92015373569E+02 0.  0.
        -11    1    3    3    0    0  0.28932646807E+02  0.11592011446E+03  0.50746231825E+03  0.52133729526E+03  0.00000000000E+00 0. -1.
         11    1    3    3    0    0 -0.44423544031E+02  0.74523173733E+02  0.21799899065E+03  0.23462888699E+03  0.00000000000E+00 0.  1.
        -13    1    4    4    0    0 -0.17653717288E+02 -0.99965851033E+01 -0.79601419409E+01  0.21793331722E+02  0.00000000000E+00 0.  1.
         13    1    4    4    0    0  0.24046819075E+02 -0.11462369928E+03  0.13439194061E+03  0.17826394937E+03  0.00000000000E+00 0. -1.
          1    1    1    2  501    0  0.90977954369E+01 -0.65823003810E+02 -0.47786556002E+02  0.81847374099E+02  0.00000000000E+00 0. -1.
<scales pt_clust_5="13000.00000" pt_clust_6="13000.00000" pt_clust_7="13000.00000" pt_clust_8="13000.00000" pt_clust_9="66.44876"></scales>
<clustering>
<clus scale="   66.449">  2  9  1 -1</clus>
<clus scale="   92.015">  7  8 -1 -1</clus>
<clus scale="   93.178">  5  6 -1 -1</clus>
<clus scale="  194.749">  2  7  1 -1</clus>
<clus scale="   66.449">  2  5  1 -1</clus>
</clustering>
</event>
<event>
 9    1  0.3231311E-005  0.1208686E+03  0.7546771E-02  0.1244377E+00
         21   -1    0    0  501  502  0.00000000000E+00  0.00000000000E+00  0.46955909625E+02  0.46955909625E+02  0.00000000000E+00 0.  1.
         -3   -1    0    0    0  501 -0.00000000000E+00 -0.00000000000E+00 -0.64334140650E+03  0.64334140650E+03  0.00000000000E+00 0.  1.
         23    2    1    2    0    0 -0.60046666738E+02  0.27484887100E+02 -0.43069158454E+03  0.44554548288E+03  0.93029646425E+02 0.  0.
         23    2    1    2    0    0  0.79313405493E+02  0.17670754005E+02 -0.13380018205E+03  0.18620741270E+03  0.10083570791E+03 0.  0.
        -11    1    4    4    0    0  0.67229243092E+02  0.50757023709E+02 -0.12352724815E+03  0.14951597780E+03  0.00000000000E+00 0.  1.
         11    1    4    4    0    0  0.12084162401E+02 -0.33086269703E+02 -0.10272933900E+02  0.36691434896E+02  0.00000000000E+00 0. -1.
        -13    1    3    3    0    0 -0.19186404569E+02 -0.34595151602E+02 -0.16259850271E+03  0.16734161382E+03  0.00000000000E+00 0.  1.
         13    1    3    3    0    0 -0.40860262169E+02  0.62080038702E+02 -0.26809308183E+03  0.27820386905E+03  0.00000000000E+00 0. -1.
         -3    1    1    2    0  502 -0.19266738755E+02 -0.45155641105E+02 -0.31893730283E+02  0.58544420548E+02  0.00000000000E+00 0.  1.
<scales pt_clust_5="13000.00000" pt_clust_6="13000.00000" pt_clust_7="13000.00000" pt_clust_8="13000.00000" pt_clust_9="49.09419"></scales>
<clustering>
<clus scale="   49.094">  1  9  2 -1</clus>
<clus scale="   93.030">  7  8 -1 -1</clus>
<clus scale="  100.836">  5  6 -1 -1</clus>
<clus scale="  114.437">  2  7  1 -1</clus>
<clus scale="   49.094">  1  5  2 -1</clus>
</clustering>
</event>
<event>
 9    1  0.3231311E-005  0.1881760E+03  0.7546771E-02  0.1161704E+00
          3   -1    0    0  502    0 -0.00000000000E+00  0.00000000000E+00  0.22991424058E+03  0.22991424058E+03  0.00000000000E+00 0. -1.
         21   -1    0    0  501  502  0.00000000000E+00 -0.00000000000E+00 -0.23790855925E+03  0.23790855925E+03  0.00000000000E+00 0. -1.
         23    2    1    2    0    0 -0.16422564553E+03 -0.20131579704E+02  0.12108864074E+03  0.22238985653E+03  0.86136207362E+02 0.  0.
         23    2    1    2    0    0  0.14247117930E+03  0.19198492360E+02 -0.81275696904E+02  0.19290046000E+03  0.99690669184E+02 0.  0.
        -11    1    4    4    0    0  0.89731469824E+00  0.24330453442E+02 -0.37341229332E+02  0.44577388286E+02  0.00000000000E+00 0.  1.
         11    1    4    4    0    0  0.14157386460E+03 -0.51319610822E+01 -0.43934467571E+02  0.14832307172E+03  0.00000000000E+00 0. -1.
        -13    1    3    3    0    0 -0.22146329631E+02 -0.26115235375E+02  0.56811389865E+02  0.66332491685E+02  0.00000000000E+00 0.  1.
         13    1    3    3    0    0 -0.14207931590E+03  0.59836556702E+01  0.64277250877E+02  0.15605736484E+03  0.00000000000E+00 0. -1.
          3    1    1    2  501    0  0.21754466226E+02  0.93308734472E+00 -0.47807262512E+02  0.52532483300E+02  0.00000000000E+00 0. -1.
<scales pt_clust_5="13000.00000" pt_clust_6="13000.00000" pt_clust_7="13000.00000" pt_clust_8="13000.00000" pt_clust_9="21.77447"></scales>
<clustering>
<clus scale="   21.774">  2  9  1 -1</clus>
<clus scale="   86.136">  7  8 -1 -1</clus>
<clus scale="   99.691">  5  6 -1 -1</clus>
<clus scale="  181.360">  1  7  2 -1</clus>
<clus scale="   21.774">  2  5  1 -1</clus>
</clustering>
</event>
<event>
 9    1  0.3231311E-005  0.9180969E+02  0.7546771E-02  0.1299836E+00
          3   -1    0    0  502    0 -0.00000000000E+00  0.00000000000E+00  0.29522997308E+03  0.29522997308E+03  0.00000000000E+00 0. -1.
         21   -1    0    0  501  502  0.00000000000E+00 -0.00000000000E+00 -0.53539399793E+02  0.53539399793E+02  0.00000000000E+00 0.  1.
         23    2    1    2    0    0 -0.26338692764E+01 -0.20894770905E+02  0.19047586945E+03  0.21092278371E+03  0.88112627505E+02 0.  0.
         23    2    1    2    0    0  0.19063420658E+02 -0.94082479774E+00  0.58825127220E+02  0.10948037788E+03  0.90339683363E+02 0.  0.
        -11    1    4    4    0    0  0.46697619854E+02 -0.13338484870E+02  0.64682822162E+01  0.48994097129E+02  0.00000000000E+00 0. -1.
         11    1    4    4    0    0 -0.27634199196E+02  0.12397660072E+02  0.52356845004E+02  0.60486280752E+02  0.00000000000E+00 0.  1.
        -11    1    3    3    0    0  0.22133557019E+02  0.25345298090E+02  0.10852191447E+03  0.11361903187E+03  0.00000000000E+00 0. -1.
         11    1    3    3    0    0 -0.24767426295E+02 -0.46240068995E+02  0.81953954977E+02  0.97303751841E+02  0.00000000000E+00 0.  1.
          3    1    1    2  501    0 -0.16429551382E+02  0.21835595703E+02 -0.76104233858E+01  0.28366211281E+02  0.00000000000E+00 0. -1.
<scales pt_clust_5="13000.00000" pt_clust_6="13000.00000" pt_clust_7="13000.00000" pt_clust_8="13000.00000" pt_clust_9="27.32624"></scales>
<clustering>
<clus scale="   27.326">  2  9  1 -1</clus>
<clus scale="   88.113">  7  8 -1 -1</clus>
<clus scale="   89.619">  1  7  2 -1</clus>
<clus scale="   90.340">  5  6 -1 -1</clus>
<clus scale="   27.326">  2  5  1 -1</clus>
</clustering>
</event>
<event>
 9    1  0.3231311E-005  0.9821945E+02  0.7546771E-02  0.1285421E+00
         -2   -1    0    0    0  501 -0.00000000000E+00  0.00000000000E+00  0.28346712543E+02  0.28346712543E+02  0.00000000000E+00 0.  1.
         21   -1    0    0  501  502  0.00000000000E+00 -0.00000000000E+00 -0.46762561882E+03  0.46762561882E+03  0.00000000000E+00 0. -1.
         23    2    1    2    0    0  0.13470509091E+01 -0.42616016775E+02 -0.11711553160E+03  0.15217312396E+03  0.87307917630E+02 0.  0.
         23    2    1    2    0    0  0.15417938196E+02  0.31521207898E+02 -0.29192240845E+03  0.30748563306E+03  0.89985680054E+02 0.  0.
        -11    1    4    4    0    0  0.51226850960E+02  0.32405691945E+02 -0.19163489250E+03  0.20099316196E+03  0.00000000000E+00 0. -1.
         11    1    4    4    0    0 -0.35808912765E+02 -0.88448404635E+00 -0.10028751595E+03  0.10649247110E+03  0.00000000000E+00 0.  1.
        -13    1    3    3    0    0  0.42315402382E+02 -0.72711633231E+01 -0.55577739410E+02  0.70230678573E+02  0.00000000000E+00 0. -1.
         13    1    3    3    0    0 -0.40968351473E+02 -0.35344853452E+02 -0.61537792195E+02  0.81942445388E+02  0.00000000000E+00 0.  1.
         -2    1    1    2    0  502 -0.16764989105E+02  0.11094808877E+02 -0.30240966215E+02  0.36313574340E+02  0.00000000000E+00 0.  1.
<scales pt_clust_5="13000.00000" pt_clust_6="13000.00000" pt_clust_7="13000.00000" pt_clust_8="13000.00000" pt_clust_9="20.10373"></scales>
<clustering>
<clus scale="   20.104">  2  9  1 -1</clus>
<clus scale="   87.308">  7  8 -1 -1</clus>
<clus scale="   89.986">  5  6 -1 -1</clus>
<clus scale="   95.772">  1  7  2 -1</clus>
<clus scale="   20.104">  2  5  1 -1</clus>
</clustering>
</event>
<event>
 9    1  0.3231311E-005  0.1202182E+03  0.7546771E-02  0.1251886E+00
         21   -1    0    0  501  502  0.00000000000E+00  0.00000000000E+00  0.13981940184E+03  0.13981940184E+03  0.00000000000E+00 0.  1.
          1   -1    0    0  502    0 -0.00000000000E+00 -0.00000000000E+00 -0.14763582072E+03  0.14763582072E+03  0.00000000000E+00 0. -1.
         23    2    1    2    0    0 -0.28941014875E+02 -0.72955225595E+02 -0.51005465177E+02  0.11244104559E+03  0.62300754176E+02 0.  0.
         23    2    1    2    0    0  0.66218658231E+02  0.54316345601E+02  0.45813458846E+02  0.13325393173E+03  0.91228072509E+02 0.  0.
        -11    1    3    3    0    0  0.44595897242E+01 -0.40304886549E+02  0.34509506353E+01  0.40697430883E+02  0.00000000000E+00 0.  1.
         11    1    3    3    0    0 -0.33400604599E+02 -0.32650339046E+02 -0.54456415812E+02  0.71743614702E+02  0.00000000000E+00 0. -1.
        -13    1    4    4    0    0  0.78442342002E+02  0.11074981231E+02  0.21151807060E+02  0.81995458227E+02  0.00000000000E+00 0.  1.
         13    1    4    4    0    0 -0.12223683770E+02  0.43241364369E+02  0.24661651787E+02  0.51258473507E+02  0.00000000000E+00 0. -1.
          1    1    1    2  501    0 -0.37277643356E+02  0.18638879994E+02 -0.26244125497E+01  0.41760245244E+02  0.00000000000E+00 0. -1.
<scales pt_clust_5="13000.00000" pt_clust_6="13000.00000" pt_clust_7="13000.00000" pt_clust_8="13000.00000" pt_clust_9="41.67772"></scales>
<clustering>
<clus scale="   41.678">  1  9  2 -1</clus>
<clus scale="   62.301">  5  6 -1 -1</clus>
<clus scale="   91.228">  7  8 -1 -1</clus>
<clus scale="  100.056">  2  5  1 -1</clus>
<clus scale="   41.678">  1  5  2 -1</clus>
</clustering>
</event>
<event>
 9    1  0.3231311E-005  0.9359250E+02  0.7546771E-02  0.1295054E+00
         21   -1    0    0  501  502  0.00000000000E+00  0.00000000000E+00  0.55246390456E+02  0.55246390456E+02  0.00000000000E+00 0. -1.
         -1   -1    0    0    0  501 -0.00000000000E+00 -0.00000000000E+00 -0.20822754620E+03  0.20822754620E+03  0.00000000000E+00 0.  1.
         23    2    1    2    0    0  0.99813695165E+01  0.61617399154E+01 -0.76609949384E+02  0.11988586217E+03  0.91465517145E+02 0.  0.
         23    2    1    2    0    0  0.88244210353E+01 -0.22304948409E+02 -0.52397175393E+02  0.10910597624E+03  0.92645933169E+02 0.  0.
        -11    1    4    4    0    0  0.40924315039E+02 -0.44498366073E+01 -0.58843178565E+02  0.71813092615E+02  0.00000000000E+00 0.  1.
         11    1    4    4    0    0 -0.32099894004E+02 -0.17855111802E+02  0.64460031718E+01  0.37292883629E+02  0.00000000000E+00 0. -1.
        -13    1    3    3    0    0  0.13533033781E+02  0.36485452992E+02 -0.80202060761E+02  0.89144275383E+02  0.00000000000E+00 0.  1.
         13    1    3    3    0    0 -0.35516642645E+01 -0.30323713077E+02  0.35921113763E+01  0.30741586783E+02  0.00000000000E+00 0. -1.
         -1    1    1    2    0  502 -0.18805790552E+02  0.16143208493E+02 -0.23974030970E+02  0.34482098250E+02  0.00000000000E+00 0.  1.
<scales pt_clust_5="13000.00000" pt_clust_6="13000.00000" pt_clust_7="13000.00000" pt_clust_8="13000.00000" pt_clust_9="24.78430"></scales>
<clustering>
<clus scale="   24.784">  1  9  2 -1</clus>
<clus scale="   91.466">  7  8 -1 -1</clus>
<clus scale="   92.424">  2  7  1 -1</clus>
<clus scale="   92.646">  5  6 -1 -1</clus>
<clus scale="   24.784">  1  5  2 -1</clus>
</clustering>
</event>
<event>
 9    1  0.3231311E-005  0.1085088E+03  0.7546771E-02  0.1271777E+00
         21   -1    0    0  501  502  0.00000000000E+00  0.00000000000E+00  0.68567318362E+03  0.68567318362E+03  0.00000000000E+00 0. -1.
         -4   -1    0    0    0  501 -0.00000000000E+00 -0.00000000000E+00 -0.30790880518E+02  0.30790880518E+02  0.00000000000E+00 0.  1.
         23    2    1    2    0    0 -0.19489906012E+02 -0.13544345418E+02  0.69824612371E+02  0.11630653866E+03  0.89935692093E+02 0.  0.
         23    2    1    2    0    0 -0.57428682386E+01  0.11203257875E+02  0.44078355022E+03  0.45367475787E+03  0.10664030317E+03 0.  0.
        -13    1    4    4    0    0  0.28848723975E+02 -0.34829080862E+02  0.26118359499E+03  0.26507014928E+03  0.00000000000E+00 0. -1.
         13    1    4    4    0    0 -0.34591592214E+02  0.46032338737E+02  0.17959995523E+03  0.18860460859E+03  0.00000000000E+00 0.  1.
        -13    1    3    3    0    0 -0.50698527460E+02  0.31444963198E+01  0.18702371585E+02  0.54129541348E+02  0.00000000000E+00 0.  1.
         13    1    3    3    0    0  0.31208621448E+02 -0.16688841738E+02  0.51122240786E+02  0.62176997308E+02  0.00000000000E+00 0. -1.
         -4    1    1    2    0  502  0.25232774250E+02  0.23410875428E+01  0.14427414051E+03  0.14648276761E+03  0.00000000000E+00 0.  1.
<scales pt_clust_5="13000.00000" pt_clust_6="13000.00000" pt_clust_7="13000.00000" pt_clust_8="13000.00000" pt_clust_9="25.34114"></scales>
<clustering>
<clus scale="   25.341">  1  9  2 -1</clus>
<clus scale="   89.936">  7  8 -1 -1</clus>
<clus scale="   92.144">  2  7  1 -1</clus>
<clus scale="  106.640">  5  6 -1 -1</clus>
<clus scale="   25.341">  1  5  2 -1</clus>
</clustering>
</event>
<event>
 9    1  0.3231311E-005  0.1971930E+03  0.7546771E-02  0.1152854E+00
         21   -1    0    0  501  502  0.00000000000E+00  0.00000000000E+00  0.14300909711E+03  0.14300909711E+03  0.00000000000E+00 0. -1.
          2   -1    0    0  502    0 -0.00000000000E+00 -0.00000000000E+00 -0.39215499621E+03  0.39215499621E+03  0.00000000000E+00 0. -1.
         23    2    1    2    0    0  0.11071904163E+03  0.13992746804E+03 -0.16231513091E+03  0.26054865438E+03  0.98493639817E+02 0.  0.
         23    2    1    2    0    0 -0.12321843893E+03 -0.10875931967E+03 -0.12336225157E+03  0.22499449895E+03  0.91612805532E+02 0.  0.
        -11    1    3    3    0    0  0.33245292414E+02  0.23063156676E+02  0.66277657934E+01  0.41001048071E+02  0.00000000000E+00 0.  1.
         11    1    3    3    0    0  0.77473749213E+02  0.11686431137E+03 -0.16894289671E+03  0.21954760631E+03  0.00000000000E+00 0. -1.
        -11    1    4    4    0    0 -0.83748461677E+02 -0.58852517968E+02 -0.21035644759E+02  0.10449843087E+03  0.00000000000E+00 0.  1.
         11    1    4    4    0    0 -0.39469977258E+02 -0.49906801702E+02 -0.10232660681E+03  0.12049606808E+03  0.00000000000E+00 0. -1.
          2    1    1    2  501    0  0.12499397308E+02 -0.31168148373E+02  0.36531483390E+02  0.49620939982E+02  0.00000000000E+00 0. -1.
<scales pt_clust_5="13000.00000" pt_clust_6="13000.00000" pt_clust_7="13000.00000" pt_clust_8="13000.00000" pt_clust_9="33.58107"></scales>
<clustering>
<clus scale="   33.581">  1  9  2 -1</clus>
<clus scale="   91.613">  7  8 -1 -1</clus>
<clus scale="   98.494">  5  6 -1 -1</clus>
<clus scale="  193.848">  1  7  2 -1</clus>
<clus scale="   33.581">  1  5  2 -1</clus>
</clustering>
</event>
<event>
 9    1  0.3231311E-005  0.9600063E+02  0.7546771E-02  0.1290410E+00
         21   -1    0    0  501  502  0.00000000000E+00  0.00000000000E+00  0.19446365685E+03  0.19446365685E+03  0.00000000000E+00 0.  1.
         -1   -1    0    0    0  501 -0.00000000000E+00 -0.00000000000E+00 -0.10817573450E+03  0.10817573450E+03  0.00000000000E+00 0.  1.
         23    2    1    2    0    0 -0.37301676505E+02 -0.13215537609E+02 -0.22187871928E+02  0.10256984744E+03  0.91990251864E+02 0.  0.
         23    2    1    2    0    0  0.94497890781E+01  0.11860747211E+02  0.25939204064E+01  0.90577378427E+02  0.89261174212E+02 0.  0.
        -11    1    4    4    0    0  0.35741907230E+01  0.48003782738E+02 -0.14349415741E+02  0.50229908706E+02  0.00000000000E+00 0. -1.
         11    1    4    4    0    0  0.58755983551E+01 -0.36143035527E+02  0.16943336148E+02  0.40347469721E+02  0.00000000000E+00 0.  1.
        -13    1    3    3    0    0 -0.32866578901E+02  0.37058330805E+02 -0.13691478815E+02  0.51390548575E+02  0.00000000000E+00 0.  1.
         13    1    3    3    0    0 -0.44350976039E+01 -0.50273868414E+02 -0.84963931140E+01  0.51179298862E+02  0.00000000000E+00 0. -1.
         -1    1    1    2    0  502  0.27851887426E+02  0.13547903973E+01  0.10588187387E+03  0.10949216549E+03  0.00000000000E+00 0.  1.
<scales pt_clust_5="13000.00000" pt_clust_6="13000.00000" pt_clust_7="13000.00000" pt_clust_8="13000.00000" pt_clust_9="27.88482"></scales>
<clustering>
<clus scale="   27.885">  1  9  2 -1</clus>
<clus scale="   89.261">  5  6 -1 -1</clus>
<clus scale="   91.990">  7  8 -1 -1</clus>
<clus scale="   93.389">  1  5  2 -1</clus>
<clus scale="   27.885">  1  5  2 -1</clus>
</clustering>
</event>
<event>
 9    1  0.3231311E-005  0.1251357E+03  0.7546771E-02  0.1235020E+00
          1   -1    0    0  502    0 -0.00000000000E+00  0.00000000000E+00  0.33314656979E+03  0.33314656979E+03  0.00000000000E+00 0. -1.
         21   -1    0    0  501  502  0.00000000000E+00 -0.00000000000E+00 -0.11145825505E+03  0.11145825505E+03  0.00000000000E+00 0.  1.
         23    2    1    2    0    0  0.83283028149E+02  0.36495225074E+02  0.24444319615E+03  0.27638180756E+03  0.91468372529E+02 0.  0.
         23    2    1    2    0    0 -0.68568563215E+02 -0.50632676762E+01  0.16235527198E+02  0.11602401933E+03  0.92036385066E+02 0.  0.
        -11    1    3    3    0    0  0.51972509645E+02  0.40677142268E+02  0.59814923979E+02  0.89070740384E+02  0.00000000000E+00 0.  1.
         11    1    3    3    0    0  0.31310518505E+02 -0.41819171939E+01  0.18462827218E+03  0.18731106718E+03  0.00000000000E+00 0. -1.
        -11    1    4    4    0    0 -0.40490280743E+01  0.36970001894E+02  0.11266742625E+02  0.38860200176E+02  0.00000000000E+00 0. -1.
         11    1    4    4    0    0 -0.64519535141E+02 -0.42033269570E+02  0.49687845728E+01  0.77163819149E+02  0.00000000000E+00 0.  1.
          1    1    1    2  501    0 -0.14714464934E+02 -0.31431957398E+02 -0.38990408612E+02  0.52198997958E+02  0.00000000000E+00 0. -1.
<scales pt_clust_5="13000.00000" pt_clust_6="13000.00000" pt_clust_7="13000.00000" pt_clust_8="13000.00000" pt_clust_9="34.70567"></scales>
<clustering>
<clus scale="   34.706">  2  9  1 -1</clus>
<clus scale="   91.468">  5  6 -1 -1</clus>
<clus scale="   92.036">  7  8 -1 -1</clus>
<clus scale="  124.719">  1  5  2 -1</clus>
<clus scale="   34.706">  2  5  1 -1</clus>
</clustering>
</event>
<event>
 9    1  0.3231311E-005  0.9258946E+02  0.7546771E-02  0.1297699E+00
         21   -1    0    0  501  502  0.00000000000E+00  0.00000000000E+00  0.49820222885E+03  0.49820222885E+03  0.00000000000E+00 0. -1.
          1   -1    0    0  502    0 -0.00000000000E+00 -0.00000000000E+00 -0.45376278678E+02  0.45376278678E+02  0.00000000000E+00 0. -1.
         23    2    1    2    0    0 -0.37572310433E+01 -0.42386576801E+01  0.50990291599E+02  0.10553380097E+03  0.92224130822E+02 0.  0.
         23    2    1    2    0    0 -0.86356227381E+01 -0.29544097199E+02  0.11769940009E+03  0.15163892669E+03  0.90519542912E+02 0.  0.
        -11    1    3    3    0    0  0.59208648856E+01 -0.45107358340E+02  0.43359420659E+02  0.62847193870E+02  0.00000000000E+00 0.  1.
         11    1    3    3    0    0 -0.96780959289E+01  0.40868700660E+02  0.76308709406E+01  0.42686607101E+02  0.00000000000E+00 0. -1.
        -11    1    4    4    0    0 -0.32945403375E+02  0.18384284986E+02  0.27659879105E+02  0.46780876970E+02  0.00000000000E+00 0. -1.
         11    1    4    4    0    0  0.24309780636E+02 -0.47928382185E+02  0.90039520980E+02  0.10485804972E+03  0.00000000000E+00 0.  1.
          1    1    1    2  501    0  0.12392853781E+02  0.33782754879E+02  0.28413625848E+03  0.28640577986E+03  0.00000000000E+00 0. -1.
<scales pt_clust_5="13000.00000" pt_clust_6="13000.00000" pt_clust_7="13000.00000" pt_clust_8="13000.00000" pt_clust_9="35.98413"></scales>
<clustering>
<clus scale="   35.984">  1  9  2 -1</clus>
<clus scale="   90.520">  7  8 -1 -1</clus>
<clus scale="   90.892">  1  7  2 -1</clus>
<clus scale="   92.224">  5  6 -1 -1</clus>
<clus scale="   35.984">  1  5  2 -1</clus>
</clustering>
</event>
<event>
 9    1  0.3781957E-005  0.1163446E+03  0.7546771E-02  0.1251360E+00
          1   -1    0    0  502    0 -0.00000000000E+00  0.00000000000E+00  0.48411776780E+03  0.48411776780E+03  0.00000000000E+00 0. -1.
         21   -1    0    0  501  502  0.00000000000E+00 -0.00000000000E+00 -0.87939430546E+02  0.87939430546E+02  0.00000000000E+00 0.  1.
         23    2    1    2    0    0 -0.17105603917E+02  0.76301377220E+02  0.38769841085E+03  0.40558982115E+03  0.89880717589E+02 0.  0.
         23    2    1    2    0    0  0.27445908983E+01 -0.17281605286E+02  0.30247743606E+02  0.10194288541E+03  0.95766587245E+02 0.  0.
        -13    1    4    4    0    0  0.21541972429E+02  0.31933927697E+02 -0.45749090541E+01  0.38791263284E+02  0.00000000000E+00 0.  1.
         13    1    4    4    0    0 -0.18797381531E+02 -0.49215532983E+02  0.34822652660E+02  0.63151622129E+02  0.00000000000E+00 0. -1.
        -13    1    3    3    0    0  0.27712602322E+02 -0.30385400644E+01  0.99154374790E+02  0.10299908297E+03  0.00000000000E+00 0.  1.
         13    1    3    3    0    0 -0.44818206240E+02  0.79339917285E+02  0.28854403606E+03  0.30259073818E+03  0.00000000000E+00 0. -1.
          1    1    1    2  501    0  0.14361013019E+02 -0.59019771934E+02 -0.21767817202E+02  0.64524491783E+02  0.00000000000E+00 0. -1.
<scales pt_clust_5="13000.00000" pt_clust_6="13000.00000" pt_clust_7="13000.00000" pt_clust_8="13000.00000" pt_clust_9="60.74185"></scales>
<clustering>
<clus scale="   60.742">  2  9  1 -1</clus>
<clus scale="   89.881">  7  8 -1 -1</clus>
<clus scale="   95.767">  5  6 -1 -1</clus>
<clus scale="  111.550">  1  7  2 -1</clus>
<clus scale="   60.742">  2  5  1 -1</clus>
</clustering>
</event>
<event>
 9    1  0.3231311E-005  0.9460534E+02  0.7546771E-02  0.1294120E+00
         21   -1    0    0  501  502  0.00000000000E+00  0.00000000000E+00  0.44984000200E+03  0.44984000200E+03  0.00000000000E+00 0.  1.
          1   -1    0    0  502    0 -0.00000000000E+00 -0.00000000000E+00 -0.88387523185E+02  0.88387523185E+02  0.00000000000E+00 0. -1.
         23    2    1    2    0    0  0.67584240458E+01  0.30223784193E+02 -0.32800740932E+02  0.10182922463E+03  0.91291560164E+02 0.  0.
         23    2    1    2    0    0 -0.45508657744E+02  0.21687273744E+02  0.13194577389E+03  0.16621033876E+03  0.87606014003E+02 0.  0.
        -11    1    3    3    0    0 -0.12612311014E+02  0.57011194191E+02 -0.49418789769E+01  0.58598368748E+02  0.00000000000E+00 0.  1.
         11    1    3    3    0    0  0.19370735059E+02 -0.26787409997E+02 -0.27858861955E+02  0.43230855885E+02  0.00000000000E+00 0. -1.
        -13    1    4    4    0    0 -0.31828190749E+00 -0.26761737395E+02  0.12319962851E+02  0.29463084978E+02  0.00000000000E+00 0. -1.
         13    1    4    4    0    0 -0.45190375836E+02  0.48449011139E+02  0.11962581104E+03  0.13674725378E+03  0.00000000000E+00 0.  1.
          1    1    1    2  501    0  0.38750233698E+02 -0.51911057937E+02  0.26230744585E+03  0.27018796179E+03  0.00000000000E+00 0. -1.
<scales pt_clust_5="13000.00000" pt_clust_6="13000.00000" pt_clust_7="13000.00000" pt_clust_8="13000.00000" pt_clust_9="64.77915"></scales>
<clustering>
<clus scale="   64.779">  1  9  2 -1</clus>
<clus scale="   87.606">  7  8 -1 -1</clus>
<clus scale="   91.054">  1  7  2 -1</clus>
<clus scale="   91.292">  5  6 -1 -1</clus>
<clus scale="   64.779">  1  5  2 -1</clus>
</clustering>
</event>
<event>
 9    1  0.3231311E-005  0.1219017E+03  0.7546771E-02  0.1240051E+00
          2   -1    0    0  502    0 -0.00000000000E+00  0.00000000000E+00  0.80011968239E+03  0.80011968239E+03  0.00000000000E+00 0. -1.
         21   -1    0    0  501  502  0.00000000000E+00 -0.00000000000E+00 -0.45402231247E+02  0.45402231247E+02  0.00000000000E+00 0. -1.
         23    2    1    2    0    0  0.82329356884E+02 -0.33918205568E+02  0.49933694938E+03  0.51541983565E+03  0.91605951137E+02 0.  0.
         23    2    1    2    0    0 -0.69275970528E+02  0.56616695617E+01  0.27160292950E+03  0.29500236454E+03  0.91798851734E+02 0.  0.
        -11    1    3    3    0    0  0.50466585784E+02  0.28241021649E+02  0.21772028898E+03  0.22526996209E+03  0.00000000000E+00 0.  1.
         11    1    3    3    0    0  0.31862771100E+02 -0.62159227216E+02  0.28161666040E+03  0.29014987356E+03  0.00000000000E+00 0. -1.
        -11    1    4    4    0    0 -0.32691312698E+02  0.37796008446E+02  0.61061961103E+02  0.78903886306E+02  0.00000000000E+00 0. -1.
         11    1    4    4    0    0 -0.36584657830E+02 -0.32134338885E+02  0.21054096839E+03  0.21609847824E+03  0.00000000000E+00 0.  1.
          2    1    1    2  501    0 -0.13053386357E+02  0.28256536006E+02 -0.16222427738E+02  0.35099713448E+02  0.00000000000E+00 0. -1.
<scales pt_clust_5="13000.00000" pt_clust_6="13000.00000" pt_clust_7="13000.00000" pt_clust_8="13000.00000" pt_clust_9="31.12592"></scales>
<clustering>
<clus scale="   31.126">  2  9  1 -1</clus>
<clus scale="   91.606">  5  6 -1 -1</clus>
<clus scale="   91.799">  7  8 -1 -1</clus>
<clus scale="  121.756">  1  5  2 -1</clus>
<clus scale="   31.126">  2  5  1 -1</clus>
</clustering>
</event>
<event>
 9    1  0.3231311E-005  0.1816423E+03  0.7546771E-02  0.1167144E+00
         21   -1    0    0  501  502  0.00000000000E+00  0.00000000000E+00  0.25071284175E+03  0.25071284175E+03  0.00000000000E+00 0.  1.
          2   -1    0    0  502    0 -0.00000000000E+00 -0.00000000000E+00 -0.21474675484E+03  0.21474675484E+03  0.00000000000E+00 0. -1.
         23    2    1    2    0    0 -0.16328675919E+03 -0.10607456044E+02 -0.88711845354E+02  0.20709419272E+03  0.90791680800E+02 0.  0.
         23    2    1    2    0    0  0.14611966965E+03 -0.15918761245E+01  0.42186936598E+02  0.17322847279E+03  0.82914861365E+02 0.  0.
        -13    1    4    4    0    0  0.35182272315E+02 -0.23261263389E+02  0.42944143409E+02  0.60192010374E+02  0.00000000000E+00 0. -1.
         13    1    4    4    0    0  0.11093739734E+03  0.21669387264E+02 -0.75720681128E+00  0.11303646241E+03  0.00000000000E+00 0.  1.
        -13    1    3    3    0    0 -0.57463381756E+02  0.28409144303E+02 -0.66071489167E+02  0.92057381038E+02  0.00000000000E+00 0. -1.
         13    1    3    3    0    0 -0.10582337743E+03 -0.39016600347E+02 -0.22640356187E+02  0.11503681168E+03  0.00000000000E+00 0.  1.
          2    1    1    2  501    0  0.17167089532E+02  0.12199332168E+02  0.82490995665E+02  0.85136931082E+02  0.00000000000E+00 0. -1.
<scales pt_clust_5="13000.00000" pt_clust_6="13000.00000" pt_clust_7="13000.00000" pt_clust_8="13000.00000" pt_clust_9="21.06022"></scales>
<clustering>
<clus scale="   21.060">  1  9  2 -1</clus>
<clus scale="   82.915">  5  6 -1 -1</clus>
<clus scale="   90.792">  7  8 -1 -1</clus>
<clus scale="  177.836">  1  5  2 -1</clus>
<clus scale="   21.060">  1  5  2 -1</clus>
</clustering>
</event>
<event>
 9    1  0.3231311E-005  0.2596933E+03  0.7546771E-02  0.1107364E+00
         21   -1    0    0  501  502  0.00000000000E+00  0.00000000000E+00  0.20450262375E+03  0.20450262375E+03  0.00000000000E+00 0.  1.
          2   -1    0    0  502    0 -0.00000000000E+00 -0.00000000000E+00 -0.70102596254E+03  0.70102596254E+03  0.00000000000E+00 0. -1.
         23    2    1    2    0    0 -0.34325399507E+01 -0.24626108195E+03 -0.55651156485E+03  0.61510087718E+03  0.89373734843E+02 0.  0.
         23    2    1    2    0    0 -0.19565101741E+02  0.22828463078E+03  0.75319294929E+02  0.25745672198E+03  0.90079418549E+02 0.  0.
        -11    1    4    4    0    0 -0.17103698529E+02  0.84716198669E+02  0.74129918192E+02  0.11386226588E+03  0.00000000000E+00 0.  1.
         11    1    4    4    0    0 -0.24614032120E+01  0.14356843211E+03  0.11893767368E+01  0.14359445610E+03  0.00000000000E+00 0. -1.
        -13    1    3    3    0    0 -0.21808255979E+02 -0.11661204436E+02 -0.78556805264E+02  0.82357485215E+02  0.00000000000E+00 0.  1.
         13    1    3    3    0    0  0.18375716028E+02 -0.23459987751E+03 -0.47795475959E+03  0.53274339196E+03  0.00000000000E+00 0. -1.
          2    1    1    2  501    0  0.22997641692E+02  0.17976451166E+02 -0.15331068868E+02  0.32970987133E+02  0.00000000000E+00 0. -1.
<scales pt_clust_5="13000.00000" pt_clust_6="13000.00000" pt_clust_7="13000.00000" pt_clust_8="13000.00000" pt_clust_9="29.18980"></scales>
<clustering>
<clus scale="   29.190">  1  9  2 -1</clus>
<clus scale="   89.374">  7  8 -1 -1</clus>
<clus scale="   90.079">  5  6 -1 -1</clus>
<clus scale="  259.449">  2  7  1 -1</clus>
<clus scale="   29.190">  1  5  2 -1</clus>
</clustering>
</event>
<event>
 9    1  0.3231311E-005  0.9663804E+02  0.7546771E-02  0.1289943E+00
          1   -1    0    0  502    0 -0.00000000000E+00  0.00000000000E+00  0.33506344530E+02  0.33506344530E+02  0.00000000000E+00 0. -1.
         21   -1    0    0  501  502  0.00000000000E+00 -0.00000000000E+00 -0.43231718535E+03  0.43231718535E+03  0.00000000000E+00 0. -1.
         23    2    1    2    0    0 -0.12391311986E+02 -0.26686653271E+02 -0.84718150986E+02  0.12599689198E+03  0.88500449756E+02 0.  0.
         23    2    1    2    0    0 -0.79400624833E+01  0.24452440881E+02 -0.18026535864E+03  0.20444528369E+03  0.92958636177E+02 0.  0.
        -13    1    4    4    0    0  0.25767998222E+02  0.27537865394E+02 -0.16128975661E+03  0.16564030110E+03  0.00000000000E+00 0.  1.
         13    1    4    4    0    0 -0.33708060705E+02 -0.30854245131E+01 -0.18975602029E+02  0.38804982584E+02  0.00000000000E+00 0. -1.
        -13    1    3    3    0    0 -0.73205394697E+01  0.32715282600E+02 -0.27442435339E+02  0.43323980323E+02  0.00000000000E+00 0.  1.
         13    1    3    3    0    0 -0.50707725160E+01 -0.59401935871E+02 -0.57275715647E+02  0.82672911658E+02  0.00000000000E+00 0. -1.
          1    1    1    2  501    0  0.20331374469E+02  0.22342123900E+01 -0.13382733120E+03  0.13538135421E+03  0.00000000000E+00 0. -1.
<scales pt_clust_5="13000.00000" pt_clust_6="13000.00000" pt_clust_7="13000.00000" pt_clust_8="13000.00000" pt_clust_9="20.45376"></scales>
<clustering>
<clus scale="   20.454">  2  9  1 -1</clus>
<clus scale="   88.500">  7  8 -1 -1</clus>
<clus scale="   92.358">  1  7  2 -1</clus>
<clus scale="   92.959">  5  6 -1 -1</clus>
<clus scale="   20.454">  2  5  1 -1</clus>
</clustering>
</event>
<event>
 9    1  0.3231311E-005  0.1774990E+03  0.7546771E-02  0.1170263E+00
         21   -1    0    0  501  502  0.00000000000E+00  0.00000000000E+00  0.97910890645E+02  0.97910890645E+02  0.00000000000E+00 0.  1.
         -1   -1    0    0    0  501 -0.00000000000E+00 -0.00000000000E+00 -0.52973692609E+03  0.52973692609E+03  0.00000000000E+00 0.  1.
         23    2    1    2    0    0 -0.91302310734E+02 -0.15580234542E+03 -0.29010996635E+03  0.35331837806E+03  0.89775280081E+02 0.  0.
         23    2    1    2    0    0  0.91187720778E+02  0.86438861785E+02 -0.13426263426E+03  0.20456655683E+03  0.89633386465E+02 0.  0.
        -11    1    3    3    0    0 -0.46827948748E+02 -0.20232958315E+02 -0.37908502957E+02  0.63555361556E+02  0.00000000000E+00 0.  1.
         11    1    3    3    0    0 -0.44474361986E+02 -0.13556938710E+03 -0.25220146340E+03  0.28976301650E+03  0.00000000000E+00 0. -1.
        -11    1    4    4    0    0  0.92888583120E+02  0.30790907716E+02 -0.75331124648E+02  0.12349553519E+03  0.00000000000E+00 0.  1.
         11    1    4    4    0    0 -0.17008623419E+01  0.55647954068E+02 -0.58931509608E+02  0.81071021638E+02  0.00000000000E+00 0. -1.
         -1    1    1    2    0  502  0.11458995585E+00  0.69363483633E+02 -0.74534348380E+01  0.69762881846E+02  0.00000000000E+00 0.  1.
<scales pt_clust_5="13000.00000" pt_clust_6="13000.00000" pt_clust_7="13000.00000" pt_clust_8="13000.00000" pt_clust_9="69.36358"></scales>
<clustering>
<clus scale="   69.364">  1  9  2 -1</clus>
<clus scale="   89.633">  7  8 -1 -1</clus>
<clus scale="   89.775">  5  6 -1 -1</clus>
<clus scale="  177.427">  1  7  2 -1</clus>
<clus scale="   69.364">  1  5  2 -1</clus>
</clustering>
</event>
<event>
 9    1  0.3231311E-005  0.1894720E+03  0.7546771E-02  0.1174899E+00
         21   -1    0    0  501  502  0.00000000000E+00  0.00000000000E+00  0.11271505450E+03  0.11271505450E+03  0.00000000000E+00 0.  1.
          2   -1    0    0  502    0 -0.00000000000E+00 -0.00000000000E+00 -0.60106395006E+03  0.60106395006E+03  0.00000000000E+00 0. -1.
         23    2    1    2    0    0  0.94552153974E+02  0.97691498733E+01 -0.13681178217E+03  0.18959466089E+03  0.90515885813E+02 0.  0.
         23    2    1    2    0    0 -0.21817532779E+03  0.61851106503E+02 -0.25117036859E+03  0.34958298718E+03  0.87725012615E+02 0.  0.
        -11    1    4    4    0    0 -0.13381365561E+03  0.78446000523E+02 -0.18275086763E+03  0.23970346065E+03  0.00000000000E+00 0.  1.
         11    1    4    4    0    0 -0.84361672176E+02 -0.16594894020E+02 -0.68419500957E+02  0.10987952653E+03  0.00000000000E+00 0. -1.
        -11    1    3    3    0    0 -0.10905974663E+02 -0.18328954825E+02 -0.15187967057E+02  0.26183300244E+02  0.00000000000E+00 0.  1.
         11    1    3    3    0    0  0.10545812864E+03  0.28098104699E+02 -0.12162381512E+03  0.16341136064E+03  0.00000000000E+00 0. -1.
          2    1    1    2  501    0  0.12362317381E+03 -0.71620256376E+02 -0.10036674480E+03  0.17460135649E+03  0.00000000000E+00 0. -1.
<scales pt_clust_5="13000.00000" pt_clust_6="13000.00000" pt_clust_7="13000.00000" pt_clust_8="13000.00000" pt_clust_9="167.94032"></scales>
<clustering>
<clus scale="   87.725">  5  6 -1 -1</clus>
<clus scale="   90.516">  7  8 -1 -1</clus>
<clus scale="  131.258">  2  7  1 -1</clus>
<clus scale="  167.940">  1  9  2 -1</clus>
<clus scale="  167.940">  1  5  2 -1</clus>
</clustering>
</event>
<event>
 9    1  0.3231311E-005  0.9559071E+02  0.7546771E-02  0.1291596E+00
         21   -1    0    0  501  502  0.00000000000E+00  0.00000000000E+00  0.74435702064E+02  0.74435702064E+02  0.00000000000E+00 0. -1.
          1   -1    0    0  502    0 -0.00000000000E+00 -0.00000000000E+00 -0.32096522618E+03  0.32096522618E+03  0.00000000000E+00 0. -1.
         23    2    1    2    0    0  0.20729491616E+01 -0.24250450756E+02 -0.17874151312E+03  0.20219823544E+03  0.91341208773E+02 0.  0.
         23    2    1    2    0    0 -0.39132857610E+02 -0.34379741889E+02 -0.59944835223E+02  0.12339974366E+03  0.94449808194E+02 0.  0.
        -11    1    4    4    0    0  0.19230431135E+02  0.91669995498E+01  0.89940005638E+01  0.23124346662E+02  0.00000000000E+00 0.  1.
         11    1    4    4    0    0 -0.58363288745E+02 -0.43546741439E+02 -0.68938835787E+02  0.10027539700E+03  0.00000000000E+00 0. -1.
        -13    1    3    3    0    0  0.30860850115E+02 -0.10484324065E+02 -0.15909133290E+02  0.36268631667E+02  0.00000000000E+00 0.  1.
         13    1    3    3    0    0 -0.28787900953E+02 -0.13766126690E+02 -0.16283237983E+03  0.16592960377E+03  0.00000000000E+00 0. -1.
          1    1    1    2  501    0  0.37059908449E+02  0.58630192645E+02 -0.78431757691E+01  0.69802949149E+02  0.00000000000E+00 0. -1.
<scales pt_clust_5="13000.00000" pt_clust_6="13000.00000" pt_clust_7="13000.00000" pt_clust_8="13000.00000" pt_clust_9="69.36091"></scales>
<clustering>
<clus scale="   69.361">  1  9  2 -1</clus>
<clus scale="   91.341">  7  8 -1 -1</clus>
<clus scale="   92.520">  2  7  1 -1</clus>
<clus scale="   94.450">  5  6 -1 -1</clus>
<clus scale="   69.361">  1  5  2 -1</clus>
</clustering>
</event>
<event>
 9    1  0.3231311E-005  0.1433417E+03  0.7546771E-02  0.1211881E+00
         21   -1    0    0  501  502  0.00000000000E+00  0.00000000000E+00  0.60455506161E+03  0.60455506161E+03  0.00000000000E+00 0.  1.
          1   -1    0    0  502    0 -0.00000000000E+00 -0.00000000000E+00 -0.48587866426E+02  0.48587866426E+02  0.00000000000E+00 0. -1.
         23    2    1    2    0    0  0.57301460866E+01  0.11633154509E+03  0.15425373621E+03  0.21206476104E+03  0.87243250638E+02 0.  0.
         23    2    1    2    0    0  0.55169422494E+01 -0.84296323713E+02  0.21925301356E+03  0.25548569262E+03  0.10032321932E+03 0.  0.
        -13    1    3    3    0    0 -0.10054148470E+02  0.68216364939E+02  0.25169420732E+02  0.73403392884E+02  0.00000000000E+00 0. -1.
         13    1    3    3    0    0  0.15784294556E+02  0.48115180151E+02  0.12908431548E+03  0.13866136815E+03  0.00000000000E+00 0.  1.
        -13    1    4    4    0    0  0.40861299980E+02 -0.63040827521E+01  0.43674268156E+02  0.60140078104E+02  0.00000000000E+00 0.  1.
         13    1    4    4    0    0 -0.35344357730E+02 -0.77992240960E+02  0.17557874540E+03  0.19534561451E+03  0.00000000000E+00 0. -1.
          1    1    1    2  501    0 -0.11247088336E+02 -0.32035221377E+02  0.18246044541E+03  0.18559247438E+03  0.00000000000E+00 0. -1.
<scales pt_clust_5="13000.00000" pt_clust_6="13000.00000" pt_clust_7="13000.00000" pt_clust_8="13000.00000" pt_clust_9="33.95221"></scales>
<clustering>
<clus scale="   33.952">  1  9  2 -1</clus>
<clus scale="   87.243">  5  6 -1 -1</clus>
<clus scale="  100.323">  7  8 -1 -1</clus>
<clus scale="  134.512">  2  5  1 -1</clus>
<clus scale="   33.952">  1  5  2 -1</clus>
</clustering>
</event>
<event>
 9    1  0.3231311E-005  0.1020013E+03  0.7546771E-02  0.1279273E+00
         -1   -1    0    0    0  501 -0.00000000000E+00  0.00000000000E+00  0.11227002902E+03  0.11227002902E+03  0.00000000000E+00 0.  1.
         21   -1    0    0  501  502  0.00000000000E+00 -0.00000000000E+00 -0.24233534539E+03  0.24233534539E+03  0.00000000000E+00 0.  1.
         23    2    1    2    0    0  0.51677168138E+02 -0.22622061231E+02  0.20028933167E+02  0.10347409400E+03  0.84400489361E+02 0.  0.
         23    2    1    2    0    0 -0.37843993589E+02 -0.14483309941E+02 -0.40043089028E+01  0.99769343168E+02  0.91082123541E+02 0.  0.
        -11    1    4    4    0    0 -0.49444274245E+01 -0.47714847648E+02  0.13507163198E+02  0.49835705135E+02  0.00000000000E+00 0. -1.
         11    1    4    4    0    0 -0.32899566164E+02  0.33231537706E+02 -0.17511472101E+02  0.49933638034E+02  0.00000000000E+00 0.  1.
        -13    1    3    3    0    0 -0.20458209466E+02 -0.19590160259E+02 -0.78080821134E+00  0.28335884934E+02  0.00000000000E+00 0.  1.
         13    1    3    3    0    0  0.72135377604E+02 -0.30319009726E+01  0.20809741379E+02  0.75138209067E+02  0.00000000000E+00 0. -1.
         -1    1    1    2    0  502 -0.13833174549E+02  0.37105371173E+02 -0.14608994064E+03  0.15136193724E+03  0.00000000000E+00 0.  1.
<scales pt_clust_5="13000.00000" pt_clust_6="13000.00000" pt_clust_7="13000.00000" pt_clust_8="13000.00000" pt_clust_9="39.60007"></scales>
<clustering>
<clus scale="   39.600">  2  9  1 -1</clus>
<clus scale="   84.400">  7  8 -1 -1</clus>
<clus scale="   91.082">  5  6 -1 -1</clus>
<clus scale="   96.082">  1  7  2 -1</clus>
<clus scale="   39.600">  2  5  1 -1</clus>
</clustering>
</event>
<event>
 9    1  0.3231311E-005  0.1789644E+03  0.7546771E-02  0.1185384E+00
          2   -1    0    0  502    0 -0.00000000000E+00  0.00000000000E+00  0.11624077099E+04  0.11624077099E+04  0.00000000000E+00 0. -1.
         21   -1    0    0  501  502  0.00000000000E+00 -0.00000000000E+00 -0.47189981812E+02  0.47189981812E+02  0.00000000000E+00 0. -1.
         23    2    1    2    0    0 -0.53561753099E+02  0.59732275251E+02  0.32926814224E+03  0.35151392339E+03  0.93315179614E+02 0.  0.
         23    2    1    2    0    0 -0.23818577350E+02  0.11686075560E+03  0.38281231271E+03  0.41121412840E+03  0.91258050628E+02 0.  0.
        -11    1    4    4    0    0  0.14799190117E+02  0.53866568717E+02  0.68787377641E+02  0.88613354390E+02  0.00000000000E+00 0.  1.
         11    1    4    4    0    0 -0.38617767467E+02  0.62994186886E+02  0.31402493507E+03  0.32260077401E+03  0.00000000000E+00 0. -1.
        -13    1    3    3    0    0 -0.26943927886E+01 -0.22304871559E+02  0.10462518208E+03  0.10701026013E+03  0.00000000000E+00 0.  1.
         13    1    3    3    0    0 -0.50867360311E+02  0.82037146810E+02  0.22464296015E+03  0.24450366326E+03  0.00000000000E+00 0. -1.
          2    1    1    2  501    0  0.77380330450E+02 -0.17659303085E+03  0.40313727315E+03  0.44686963992E+03  0.00000000000E+00 0. -1.
<scales pt_clust_5="13000.00000" pt_clust_6="13000.00000" pt_clust_7="13000.00000" pt_clust_8="13000.00000" pt_clust_9="153.94889"></scales>
<clustering>
<clus scale="   91.258">  5  6 -1 -1</clus>
<clus scale="   93.315">  7  8 -1 -1</clus>
<clus scale="  123.063">  1  7  2 -1</clus>
<clus scale="  153.949">  2  9  1 -1</clus>
<clus scale="  153.949">  2  5  1 -1</clus>
</clustering>
</event>
<event>
 9    1  0.3231311E-005  0.9594263E+02  0.7546771E-02  0.1289506E+00
          4   -1    0    0  502    0 -0.00000000000E+00  0.00000000000E+00  0.46134041690E+03  0.46134041690E+03  0.00000000000E+00 0. -1.
         21   -1    0    0  501  502  0.00000000000E+00 -0.00000000000E+00 -0.71691137899E+02  0.71691137899E+02  0.00000000000E+00 0. -1.
         23    2    1    2    0    0  0.92075560609E+00 -0.11549772050E+02  0.20502335125E+03  0.22459238504E+03  0.90955592643E+02 0.  0.
         23    2    1    2    0    0 -0.35687572160E+02  0.42745926677E+02  0.22371443646E+03  0.24753068832E+03  0.90124777528E+02 0.  0.
        -13    1    4    4    0    0 -0.24324432248E+02 -0.18915111283E+02  0.13760588972E+03  0.14101361751E+03  0.00000000000E+00 0. -1.
         13    1    4    4    0    0 -0.11363139913E+02  0.61661037960E+02  0.86108546747E+02  0.10651707081E+03  0.00000000000E+00 0.  1.
        -13    1    3    3    0    0 -0.28787091293E+02  0.27960581686E+02  0.11627432129E+03  0.12300491269E+03  0.00000000000E+00 0.  1.
         13    1    3    3    0    0  0.29707846899E+02 -0.39510353736E+02  0.88749029960E+02  0.10158747235E+03  0.00000000000E+00 0. -1.
          4    1    1    2  501    0  0.34766816554E+02 -0.31196154627E+02 -0.39088508719E+02  0.60908481435E+02  0.00000000000E+00 0. -1.
<scales pt_clust_5="13000.00000" pt_clust_6="13000.00000" pt_clust_7="13000.00000" pt_clust_8="13000.00000" pt_clust_9="46.71115"></scales>
<clustering>
<clus scale="   46.711">  2  9  1 -1</clus>
<clus scale="   90.125">  5  6 -1 -1</clus>
<clus scale="   90.956">  7  8 -1 -1</clus>
<clus scale="   95.155">  2  5  1 -1</clus>
<clus scale="   46.711">  2  5  1 -1</clus>
</clustering>
</event>
<event>
 9    1  0.3231311E-005  0.9221792E+02  0.7546771E-02  0.1297865E+00
          3   -1    0    0  502    0 -0.00000000000E+00  0.00000000000E+00  0.21678752781E+03  0.21678752781E+03  0.00000000000E+00 0. -1.
         21   -1    0    0  501  502  0.00000000000E+00 -0.00000000000E+00 -0.82261331564E+02  0.82261331564E+02  0.00000000000E+00 0. -1.
         23    2    1    2    0    0 -0.22663940515E+02 -0.20777116083E+00  0.13358245679E+03  0.16234236945E+03  0.89426365169E+02 0.  0.
         23    2    1    2    0    0  0.83427012630E+01 -0.29536369509E+02  0.22000987292E+02  0.97550143257E+02  0.89944367359E+02 0.  0.
        -13    1    4    4    0    0  0.26015852749E+01  0.29144071704E+02 -0.94210187255E+01  0.30739238040E+02  0.00000000000E+00 0.  1.
         13    1    4    4    0    0  0.57411159881E+01 -0.58680441214E+02  0.31422006017E+02  0.66810905217E+02  0.00000000000E+00 0. -1.
        -13    1    3    3    0    0 -0.42560431261E+02 -0.21248442617E+02  0.12236700024E+03  0.13128811588E+03  0.00000000000E+00 0. -1.
         13    1    3    3    0    0  0.19896490747E+02  0.21040671456E+02  0.11215456555E+02  0.31054253575E+02  0.00000000000E+00 0.  1.
          3    1    1    2  501    0  0.14321239252E+02  0.29744140670E+02 -0.21057247837E+02  0.39156346668E+02  0.00000000000E+00 0. -1.
<scales pt_clust_5="13000.00000" pt_clust_6="13000.00000" pt_clust_7="13000.00000" pt_clust_8="13000.00000" pt_clust_9="33.01230"></scales>
<clustering>
<clus scale="   33.012">  2  9  1 -1</clus>
<clus scale="   89.426">  7  8 -1 -1</clus>
<clus scale="   89.944">  5  6 -1 -1</clus>
<clus scale="   91.713">  1  7  2 -1</clus>
<clus scale="   33.012">  2  5  1 -1</clus>
</clustering>
</event>
<event>
 9    1  0.3231311E-005  0.1327686E+03  0.7546771E-02  0.1223630E+00
         21   -1    0    0  501  502  0.00000000000E+00  0.00000000000E+00  0.20631960524E+03  0.20631960524E+03  0.00000000000E+00 0.  1.
          3   -1    0    0  502    0 -0.00000000000E+00 -0.00000000000E+00 -0.13817857347E+03  0.13817857347E+03  0.00000000000E+00 0. -1.
         23    2    1    2    0    0  0.82113402402E+02 -0.35676492850E+02 -0.47343675381E+02  0.13782051253E+03  0.93475382206E+02 0.  0.
         23    2    1    2    0    0 -0.90796986270E+02  0.58299395366E+02  0.78357804957E+02  0.16234249716E+03  0.92586330359E+02 0.  0.
        -11    1    4    4    0    0 -0.45976405375E+02  0.23903768631E+02  0.90749597800E+02  0.10450219857E+03  0.00000000000E+00 0.  1.
         11    1    4    4    0    0 -0.44820580894E+02  0.34395626734E+02 -0.12391792842E+02  0.57840298582E+02  0.00000000000E+00 0. -1.
        -13    1    3    3    0    0  0.46890400299E+02 -0.47673003547E+02 -0.67909528558E+02  0.95305450927E+02  0.00000000000E+00 0. -1.
         13    1    3    3    0    0  0.35223002103E+02  0.11996510697E+02  0.20565853176E+02  0.42515061601E+02  0.00000000000E+00 0.  1.
          3    1    1    2  501    0  0.86835838676E+01 -0.22622902515E+02  0.37126902194E+02  0.44335169036E+02  0.00000000000E+00 0. -1.
<scales pt_clust_5="13000.00000" pt_clust_6="13000.00000" pt_clust_7="13000.00000" pt_clust_8="13000.00000" pt_clust_9="24.23222"></scales>
<clustering>
<clus scale="   24.232">  1  9  2 -1</clus>
<clus scale="   92.586">  5  6 -1 -1</clus>
<clus scale="   93.475">  7  8 -1 -1</clus>
<clus scale="  132.144">  1  5  2 -1</clus>
<clus scale="   24.232">  1  5  2 -1</clus>
</clustering>
</event>
<event>
 9    1  0.3231311E-005  0.1046133E+03  0.7546771E-02  0.1271511E+00
         -2   -1    0    0    0  501 -0.00000000000E+00  0.00000000000E+00  0.84135592041E+03  0.84135592041E+03  0.00000000000E+00 0.  1.
         21   -1    0    0  501  502  0.00000000000E+00 -0.00000000000E+00 -0.26656466386E+02  0.26656466386E+02  0.00000000000E+00 0.  1.
         23    2    1    2    0    0  0.32028658426E+02  0.46170569349E+02  0.44328920393E+03  0.45590117899E+03  0.90459992567E+02 0.  0.
         23    2    1    2    0    0 -0.46726223065E+02 -0.14392163092E+02  0.36081539124E+03  0.37553065908E+03  0.91896980777E+02 0.  0.
        -11    1    4    4    0    0 -0.50972730568E+02  0.23957202648E+02  0.28443961796E+03  0.28996217526E+03  0.00000000000E+00 0.  1.
         11    1    4    4    0    0  0.42465075031E+01 -0.38349365740E+02  0.76375773278E+02  0.85568483815E+02  0.00000000000E+00 0. -1.
        -13    1    3    3    0    0 -0.13196692375E+02 -0.18639412157E+02  0.53328941155E+02  0.58013415172E+02  0.00000000000E+00 0. -1.
         13    1    3    3    0    0  0.45225350800E+02  0.64809981507E+02  0.38996026277E+03  0.39788776382E+03  0.00000000000E+00 0.  1.
         -2    1    1    2    0  502  0.14697564639E+02 -0.31778406258E+02  0.10594858861E+02  0.36580548723E+02  0.00000000000E+00 0.  1.
<scales pt_clust_5="13000.00000" pt_clust_6="13000.00000" pt_clust_7="13000.00000" pt_clust_8="13000.00000" pt_clust_9="35.01265"></scales>
<clustering>
<clus scale="   35.013">  2  9  1 -1</clus>
<clus scale="   90.460">  7  8 -1 -1</clus>
<clus scale="   91.897">  5  6 -1 -1</clus>
<clus scale="  103.353">  1  7  2 -1</clus>
<clus scale="   35.013">  2  5  1 -1</clus>
</clustering>
</event>
<event>
 9    1  0.3231311E-005  0.9481179E+02  0.7546771E-02  0.1292058E+00
         21   -1    0    0  501  502  0.00000000000E+00  0.00000000000E+00  0.45158732285E+02  0.45158732285E+02  0.00000000000E+00 0. -1.
          1   -1    0    0  502    0 -0.00000000000E+00 -0.00000000000E+00 -0.54351679343E+03  0.54351679343E+03  0.00000000000E+00 0. -1.
         23    2    1    2    0    0 -0.12305680173E+02  0.26633449293E+02 -0.31485421942E+03  0.32896505592E+03  0.90686592965E+02 0.  0.
         23    2    1    2    0    0  0.42234869496E+02  0.52708596940E+01 -0.19100394637E+03  0.21532699454E+03  0.89842311217E+02 0.  0.
        -13    1    3    3    0    0  0.31224478309E+02 -0.13866542173E+02 -0.14614747653E+03  0.15008775411E+03  0.00000000000E+00 0.  1.
         13    1    3    3    0    0 -0.43530158482E+02  0.40499991466E+02 -0.16870674289E+03  0.17887730181E+03  0.00000000000E+00 0. -1.
        -13    1    4    4    0    0  0.69082741657E+02  0.36439913261E+01 -0.15979514760E+03  0.17412694525E+03  0.00000000000E+00 0. -1.
         13    1    4    4    0    0 -0.26847872161E+02  0.16268683679E+01 -0.31208798774E+02  0.41200049286E+02  0.00000000000E+00 0.  1.
          1    1    1    2  501    0 -0.29929189323E+02 -0.31904308987E+02  0.75001046520E+01  0.44383475250E+02  0.00000000000E+00 0. -1.
<scales pt_clust_5="13000.00000" pt_clust_6="13000.00000" pt_clust_7="13000.00000" pt_clust_8="13000.00000" pt_clust_9="43.74519"></scales>
<clustering>
<clus scale="   43.745">  1  9  2 -1</clus>
<clus scale="   89.842">  7  8 -1 -1</clus>
<clus scale="   90.687">  5  6 -1 -1</clus>
<clus scale="   94.005">  1  7  2 -1</clus>
<clus scale="   43.745">  1  5  2 -1</clus>
</clustering>
</event>
<event>
 9    1  0.3231311E-005  0.9219120E+02  0.7546771E-02  0.1300930E+00
         -3   -1    0    0    0  501 -0.00000000000E+00  0.00000000000E+00  0.28060075188E+03  0.28060075188E+03  0.00000000000E+00 0.  1.
         21   -1    0    0  501  502  0.00000000000E+00 -0.00000000000E+00 -0.18146672994E+03  0.18146672994E+03  0.00000000000E+00 0.  1.
         23    2    1    2    0    0  0.16488970832E+02 -0.69314250732E+01  0.25082032230E+03  0.26551191706E+03  0.85239739608E+02 0.  0.
         23    2    1    2    0    0  0.15305039962E+02 -0.11146896005E+01 -0.10767031115E+03  0.14166470587E+03  0.90777233950E+02 0.  0.
        -11    1    4    4    0    0  0.53008675058E+02 -0.26466463470E+01 -0.74178766448E+02  0.91210820411E+02  0.00000000000E+00 0.  1.
         11    1    4    4    0    0 -0.37703635096E+02  0.15319567466E+01 -0.33491544705E+02  0.50453885456E+02  0.00000000000E+00 0. -1.
        -13    1    3    3    0    0 -0.15782595836E+02  0.32478922916E+02  0.99723886778E+02  0.10606047501E+03  0.00000000000E+00 0. -1.
         13    1    3    3    0    0  0.32271566668E+02 -0.39410347990E+02  0.15109643552E+03  0.15945144205E+03  0.00000000000E+00 0.  1.
         -3    1    1    2    0  502 -0.31794010795E+02  0.80461146737E+01 -0.44015989209E+02  0.54890858891E+02  0.00000000000E+00 0.  1.
<scales pt_clust_5="13000.00000" pt_clust_6="13000.00000" pt_clust_7="13000.00000" pt_clust_8="13000.00000" pt_clust_9="32.79633"></scales>
<clustering>
<clus scale="   32.796">  2  9  1 -1</clus>
<clus scale="   85.240">  7  8 -1 -1</clus>
<clus scale="   86.744">  1  7  2 -1</clus>
<clus scale="   90.777">  5  6 -1 -1</clus>
<clus scale="   32.796">  2  5  1 -1</clus>
</clustering>
</event>
<event>
 9    1  0.3231311E-005  0.1042155E+03  0.7546771E-02  0.1274749E+00
          1   -1    0    0  502    0 -0.00000000000E+00  0.00000000000E+00  0.18349664143E+03  0.18349664143E+03  0.00000000000E+00 0. -1.
         21   -1    0    0  501  502  0.00000000000E+00 -0.00000000000E+00 -0.39827086714E+03  0.39827086714E+03  0.00000000000E+00 0.  1.
         23    2    1    2    0    0 -0.54323708159E+01 -0.28963929965E+02  0.15863225052E+03  0.18997358246E+03  0.10028634621E+03 0.  0.
         23    2    1    2    0    0  0.74393440134E+01  0.71274910260E+01 -0.27024999438E+03  0.28633247460E+03  0.94048293875E+02 0.  0.
        -11    1    4    4    0    0  0.42536534164E+02 -0.97934204591E+01 -0.71276372938E+02  0.83579837055E+02  0.00000000000E+00 0. -1.
         11    1    4    4    0    0 -0.35097190150E+02  0.16920911485E+02 -0.19897362144E+03  0.20275263754E+03  0.00000000000E+00 0.  1.
        -13    1    3    3    0    0 -0.10220215875E+02 -0.49090905730E+02  0.16148334120E+03  0.16908944179E+03  0.00000000000E+00 0. -1.
         13    1    3    3    0    0  0.47878450593E+01  0.20126975765E+02 -0.28510906788E+01  0.20884140677E+02  0.00000000000E+00 0.  1.
          1    1    1    2  501    0 -0.20069731975E+01  0.21836438939E+02 -0.10315648185E+03  0.10546145151E+03  0.00000000000E+00 0. -1.
<scales pt_clust_5="13000.00000" pt_clust_6="13000.00000" pt_clust_7="13000.00000" pt_clust_8="13000.00000" pt_clust_9="21.92847"></scales>
<clustering>
<clus scale="   21.928">  2  9  1 -1</clus>
<clus scale="   94.048">  5  6 -1 -1</clus>
<clus scale="   98.227">  2  5  1 -1</clus>
<clus scale="  100.286">  7  8 -1 -1</clus>
<clus scale="   21.928">  2  5  1 -1</clus>
</clustering>
</event>
<event>
 9    1  0.3231311E-005  0.1588274E+03  0.7546771E-02  0.1190585E+00
         21   -1    0    0  501  502  0.00000000000E+00  0.00000000000E+00  0.52272432635E+02  0.52272432635E+02  0.00000000000E+00 0.  1.
          1   -1    0    0  502    0 -0.00000000000E+00 -0.00000000000E+00 -0.81329942551E+03  0.81329942551E+03  0.00000000000E+00 0. -1.
         23    2    1    2    0    0  0.99356965859E+02  0.68659126093E+02 -0.50832987306E+03  0.53066770400E+03  0.92860486555E+02 0.  0.
         23    2    1    2    0    0 -0.13887029939E+03 -0.63236629620E+02 -0.22560716742E+03  0.28669033335E+03  0.89492579939E+02 0.  0.
        -11    1    4    4    0    0 -0.27515988599E+02  0.22228423615E+02 -0.59439019125E+02  0.69168124447E+02  0.00000000000E+00 0. -1.
         11    1    4    4    0    0 -0.11135431080E+03 -0.85465053235E+02 -0.16616814829E+03  0.21752220890E+03  0.00000000000E+00 0.  1.
        -13    1    3    3    0    0  0.26742727416E+02  0.71094196299E+02 -0.31789729770E+03  0.32684591186E+03  0.00000000000E+00 0. -1.
         13    1    3    3    0    0  0.72614238443E+02 -0.24350702063E+01 -0.19043257536E+03  0.20382179214E+03  0.00000000000E+00 0.  1.
          1    1    1    2  501    0  0.39513333535E+02 -0.54224964727E+01 -0.27089952397E+02  0.48213820798E+02  0.00000000000E+00 0. -1.
<scales pt_clust_5="13000.00000" pt_clust_6="13000.00000" pt_clust_7="13000.00000" pt_clust_8="13000.00000" pt_clust_9="39.88367"></scales>
<clustering>
<clus scale="   39.884">  1  9  2 -1</clus>
<clus scale="   89.493">  5  6 -1 -1</clus>
<clus scale="   92.860">  7  8 -1 -1</clus>
<clus scale="  156.882">  1  5  2 -1</clus>
<clus scale="   39.884">  1  5  2 -1</clus>
</clustering>
</event>
<event>
 9    1  0.3231311E-005  0.1072780E+03  0.7546771E-02  0.1265896E+00
         21   -1    0    0  501  502  0.00000000000E+00  0.00000000000E+00  0.52592006381E+03  0.52592006381E+03  0.00000000000E+00 0. -1.
          3   -1    0    0  502    0 -0.00000000000E+00 -0.00000000000E+00 -0.51060804649E+02  0.51060804649E+02  0.00000000000E+00 0. -1.
         23    2    1    2    0    0 -0.14886091627E+02  0.49350716686E+02  0.44325799414E+02  0.11267000545E+03  0.89848008726E+02 0.  0.
         23    2    1    2    0    0  0.58611237725E+02 -0.66284621517E+02  0.29770604063E+03  0.32345004943E+03  0.90344449814E+02 0.  0.
        -13    1    4    4    0    0 -0.14352461687E+01 -0.38958142209E+02  0.21061553079E+03  0.21419313385E+03  0.00000000000E+00 0.  1.
         13    1    4    4    0    0  0.60046483893E+02 -0.27326479308E+02  0.87090509838E+02  0.10925691559E+03  0.00000000000E+00 0. -1.
        -13    1    3    3    0    0 -0.30252300588E+02  0.35477012537E+01 -0.16777729716E+02  0.34774704736E+02  0.00000000000E+00 0.  1.
         13    1    3    3    0    0  0.15366208961E+02  0.45803015433E+02  0.61103529130E+02  0.77895300710E+02  0.00000000000E+00 0. -1.
          3    1    1    2  501    0 -0.43725146098E+02  0.16933904830E+02  0.13282741912E+03  0.14086081359E+03  0.00000000000E+00 0. -1.
<scales pt_clust_5="13000.00000" pt_clust_6="13000.00000" pt_clust_7="13000.00000" pt_clust_8="13000.00000" pt_clust_9="46.88972"></scales>
<clustering>
<clus scale="   46.890">  1  9  2 -1</clus>
<clus scale="   89.848">  7  8 -1 -1</clus>
<clus scale="   90.344">  5  6 -1 -1</clus>
<clus scale="  106.860">  2  7  1 -1</clus>
<clus scale="   46.890">  1  5  2 -1</clus>
</clustering>
</event>
<event>
 9    1  0.3231311E-005  0.1036483E+03  0.7546771E-02  0.1273805E+00
          1   -1    0    0  502    0 -0.00000000000E+00  0.00000000000E+00  0.37544404725E+03  0.37544404725E+03  0.00000000000E+00 0. -1.
         21   -1    0    0  501  502  0.00000000000E+00 -0.00000000000E+00 -0.50417298271E+02  0.50417298271E+02  0.00000000000E+00 0.  1.
         23    2    1    2    0    0 -0.47747585276E+02 -0.31833060058E+01  0.25353500738E+03  0.27449269429E+03  0.93681769372E+02 0.  0.
         23    2    1    2    0    0  0.29880380802E+02  0.21679739909E+02  0.31030978343E+02  0.10342672359E+03  0.91494902899E+02 0.  0.
        -11    1    3    3    0    0  0.13003718594E+02 -0.32082245126E+02  0.56208093548E+02  0.66013005763E+02  0.00000000000E+00 0.  1.
         11    1    3    3    0    0 -0.60751303870E+02  0.28898939120E+02  0.19732691383E+03  0.20847968852E+03  0.00000000000E+00 0. -1.
        -11    1    4    4    0    0 -0.68275750191E+01  0.50058675341E+02  0.64887762469E+01  0.50937127665E+02  0.00000000000E+00 0.  1.
         11    1    4    4    0    0  0.36707955821E+02 -0.28378935432E+02  0.24542202096E+02  0.52489595927E+02  0.00000000000E+00 0. -1.
          1    1    1    2  501    0  0.17867204474E+02 -0.18496433903E+02  0.40460763254E+02  0.47941927641E+02  0.00000000000E+00 0. -1.
<scales pt_clust_5="13000.00000" pt_clust_6="13000.00000" pt_clust_7="13000.00000" pt_clust_8="13000.00000" pt_clust_9="25.71684"></scales>
<clustering>
<clus scale="   25.717">  2  9  1 -1</clus>
<clus scale="   91.495">  7  8 -1 -1</clus>
<clus scale="   93.682">  5  6 -1 -1</clus>
<clus scale="  101.676">  2  7  1 -1</clus>
<clus scale="   25.717">  2  5  1 -1</clus>
</clustering>
</event>
<event>
 9    1  0.3231311E-005  0.1062463E+03  0.7546771E-02  0.1268188E+00
          2   -1    0    0  502    0 -0.00000000000E+00  0.00000000000E+00  0.73674684864E+02  0.73674684864E+02  0.00000000000E+00 0. -1.
         21   -1    0    0  501  502  0.00000000000E+00 -0.00000000000E+00 -0.32527561752E+03  0.32527561752E+03  0.00000000000E+00 0. -1.
         23    2    1    2    0    0 -0.42822250536E+02  0.86133542475E+01 -0.12174760510E+02  0.10169307144E+03  0.91023738513E+02 0.  0.
         23    2    1    2    0    0  0.86308326536E+02  0.14113965437E+02 -0.17433807514E+03  0.21574630998E+03  0.92219165974E+02 0.  0.
        -11    1    4    4    0    0  0.11816713149E+02  0.34975145658E+02 -0.10698757230E+03  0.11317789604E+03  0.00000000000E+00 0.  1.
         11    1    4    4    0    0  0.74491613388E+02 -0.20861180221E+02 -0.67350502840E+02  0.10256841394E+03  0.00000000000E+00 0. -1.
        -11    1    3    3    0    0  0.21884929280E+02  0.14678984955E+01 -0.27139271079E+02  0.34894768810E+02  0.00000000000E+00 0.  1.
         11    1    3    3    0    0 -0.64707179816E+02  0.71454557520E+01  0.14964510569E+02  0.66798302630E+02  0.00000000000E+00 0. -1.
          2    1    1    2  501    0 -0.43486076000E+02 -0.22727319685E+02 -0.65088096998E+02  0.81510920966E+02  0.00000000000E+00 0. -1.
<scales pt_clust_5="13000.00000" pt_clust_6="13000.00000" pt_clust_7="13000.00000" pt_clust_8="13000.00000" pt_clust_9="49.06699"></scales>
<clustering>
<clus scale="   49.067">  2  9  1 -1</clus>
<clus scale="   91.024">  7  8 -1 -1</clus>
<clus scale="   92.219">  5  6 -1 -1</clus>
<clus scale="  105.210">  1  7  2 -1</clus>
<clus scale="   49.067">  2  5  1 -1</clus>
</clustering>
</event>
<event>
 9    1  0.3231311E-005  0.1193606E+03  0.7546771E-02  0.1244384E+00
          3   -1    0    0  502    0 -0.00000000000E+00  0.00000000000E+00  0.48938146989E+03  0.48938146989E+03  0.00000000000E+00 0. -1.
         21   -1    0    0  501  502  0.00000000000E+00 -0.00000000000E+00 -0.34852560908E+02  0.34852560908E+02  0.00000000000E+00 0.  1.
         23    2    1    2    0    0 -0.74788873807E+02  0.30877563820E+02  0.21155978883E+03  0.24375449351E+03  0.90066138293E+02 0.  0.
         23    2    1    2    0    0  0.74492480701E+02 -0.10259436170E+02  0.18953937668E+03  0.22320884212E+03  0.90788909987E+02 0.  0.
        -11    1    4    4    0    0  0.25529231184E+02 -0.47675224276E+02  0.67484974191E+02  0.86480578144E+02  0.00000000000E+00 0. -1.
         11    1    4    4    0    0  0.48963249517E+02  0.37415788106E+02  0.12205440249E+03  0.13672826398E+03  0.00000000000E+00 0.  1.
        -13    1    3    3    0    0 -0.71779388410E+02 -0.15373431418E+02  0.14663817904E+03  0.16398590959E+03  0.00000000000E+00 0. -1.
         13    1    3    3    0    0 -0.30094853961E+01  0.46250995238E+02  0.64921609788E+02  0.79768583919E+02  0.00000000000E+00 0.  1.
          3    1    1    2  501    0  0.29639310560E+00 -0.20618127650E+02  0.53429743473E+02  0.57270695161E+02  0.00000000000E+00 0. -1.
<scales pt_clust_5="13000.00000" pt_clust_6="13000.00000" pt_clust_7="13000.00000" pt_clust_8="13000.00000" pt_clust_9="20.62027"></scales>
<clustering>
<clus scale="   20.620">  2  9  1 -1</clus>
<clus scale="   90.066">  7  8 -1 -1</clus>
<clus scale="   90.789">  5  6 -1 -1</clus>
<clus scale="  118.812">  1  7  2 -1</clus>
<clus scale="   20.620">  2  5  1 -1</clus>
</clustering>
</event>
<event>
 9    1  0.3231311E-005  0.2420243E+03  0.7546771E-02  0.1118641E+00
         -3   -1    0    0    0  501 -0.00000000000E+00  0.00000000000E+00  0.42157187737E+03  0.42157187737E+03  0.00000000000E+00 0.  1.
         21   -1    0    0  501  502  0.00000000000E+00 -0.00000000000E+00 -0.79411794961E+03  0.79411794961E+03  0.00000000000E+00 0.  1.
         23    2    1    2    0    0 -0.67917450533E+02  0.21379756382E+03  0.33482984637E+03  0.41407139623E+03  0.94983771117E+02 0.  0.
         23    2    1    2    0    0  0.16783634738E+03 -0.15895614145E+03 -0.37313737956E+03  0.44847997555E+03  0.92014618612E+02 0.  0.
        -11    1    3    3    0    0 -0.88763912222E+02  0.19579208243E+03  0.30812757005E+03  0.37570756058E+03  0.00000000000E+00 0.  1.
         11    1    3    3    0    0  0.20846461689E+02  0.18005481395E+02  0.26702276322E+02  0.38363835653E+02  0.00000000000E+00 0. -1.
        -13    1    4    4    0    0  0.12393588409E+03 -0.15758154741E+03 -0.26925348021E+03  0.33569254393E+03  0.00000000000E+00 0. -1.
         13    1    4    4    0    0  0.43900463286E+02 -0.13745940394E+01 -0.10388389936E+03  0.11278743162E+03  0.00000000000E+00 0.  1.
         -3    1    1    2    0  502 -0.99918896846E+02 -0.54841422376E+02 -0.33423853905E+03  0.35313845520E+03  0.00000000000E+00 0.  1.
<scales pt_clust_5="13000.00000" pt_clust_6="13000.00000" pt_clust_7="13000.00000" pt_clust_8="13000.00000" pt_clust_9="113.97968"></scales>
<clustering>
<clus scale="   92.015">  7  8 -1 -1</clus>
<clus scale="   94.984">  5  6 -1 -1</clus>
<clus scale="  113.980">  2  9  1 -1</clus>
<clus scale="  240.875">  2  7  1 -1</clus>
<clus scale="  113.980">  2  5  1 -1</clus>
</clustering>
</event>
<event>
 9    1  0.3231311E-005  0.1324988E+03  0.7546771E-02  0.1241643E+00
         21   -1    0    0  501  502  0.00000000000E+00  0.00000000000E+00  0.95540427437E+02  0.95540427437E+02  0.00000000000E+00 0.  1.
         -2   -1    0    0    0  501 -0.00000000000E+00 -0.00000000000E+00 -0.33577998804E+03  0.33577998804E+03  0.00000000000E+00 0.  1.
         23    2    1    2    0    0 -0.48830801819E+02  0.24008240747E+00 -0.14000894158E+03  0.16742327881E+03  0.77740245173E+02 0.  0.
         23    2    1    2    0    0 -0.67116131229E+02  0.39292189256E+02 -0.32416813653E+02  0.12387855224E+03  0.90810763077E+02 0.  0.
        -11    1    3    3    0    0  0.97485259095E+01 -0.25859927732E+02 -0.39997388398E+02  0.48616465301E+02  0.00000000000E+00 0. -1.
         11    1    3    3    0    0 -0.58579327728E+02  0.26100010140E+02 -0.10001155318E+03  0.11880681351E+03  0.00000000000E+00 0.  1.
        -13    1    4    4    0    0 -0.47226738144E+02 -0.15816055840E+02 -0.41198933841E+02  0.64636402806E+02  0.00000000000E+00 0. -1.
         13    1    4    4    0    0 -0.19889393085E+02  0.55108245096E+02  0.87821201874E+01  0.59242149436E+02  0.00000000000E+00 0.  1.
         -2    1    1    2    0  502  0.11594693305E+03 -0.39532271664E+02 -0.67813805373E+02  0.14001858443E+03  0.00000000000E+00 0.  1.
<scales pt_clust_5="13000.00000" pt_clust_6="13000.00000" pt_clust_7="13000.00000" pt_clust_8="13000.00000" pt_clust_9="96.48500"></scales>
<clustering>
<clus scale="   77.740">  5  6 -1 -1</clus>
<clus scale="   90.811">  7  8 -1 -1</clus>
<clus scale="   91.804">  2  5  1 -1</clus>
<clus scale="   96.485">  1  9  2 -1</clus>
<clus scale="   96.485">  1  5  2 -1</clus>
</clustering>
</event>
<event>
 9    1  0.3524666E-005  0.1718498E+03  0.7546771E-02  0.1198537E+00
         21   -1    0    0  501  502  0.00000000000E+00  0.00000000000E+00  0.33917379306E+03  0.33917379306E+03  0.00000000000E+00 0. -1.
          1   -1    0    0  502    0 -0.00000000000E+00 -0.00000000000E+00 -0.65869255902E+03  0.65869255902E+03  0.00000000000E+00 0. -1.
         23    2    1    2    0    0  0.34039945685E+02  0.35384851174E+02 -0.15409300489E+03  0.18592706820E+03  0.91724669204E+02 0.  0.
         23    2    1    2    0    0 -0.16695942906E+03  0.16839014571E+02 -0.45222792864E+03  0.49154826569E+03  0.94607582677E+02 0.  0.
        -13    1    4    4    0    0 -0.10130711025E+03  0.34781296576E+02 -0.16765642944E+03  0.19895111839E+03  0.00000000000E+00 0. -1.
         13    1    4    4    0    0 -0.65652318805E+02 -0.17942282005E+02 -0.28457149920E+03  0.29259714729E+03  0.00000000000E+00 0.  1.
        -13    1    3    3    0    0  0.22309452741E+02 -0.22979011730E+02 -0.16543320700E+02  0.36047581354E+02  0.00000000000E+00 0.  1.
         13    1    3    3    0    0  0.11730492943E+02  0.58363862905E+02 -0.13754968419E+03  0.14987948685E+03  0.00000000000E+00 0. -1.
          1    1    1    2  501    0  0.13291948337E+03 -0.52223865745E+02  0.28680216757E+03  0.32039101819E+03  0.00000000000E+00 0. -1.
<scales pt_clust_5="13000.00000" pt_clust_6="13000.00000" pt_clust_7="13000.00000" pt_clust_8="13000.00000" pt_clust_9="143.46339"></scales>
<clustering>
<clus scale="   91.725">  7  8 -1 -1</clus>
<clus scale="   94.608">  5  6 -1 -1</clus>
<clus scale="  104.040">  2  7  1 -1</clus>
<clus scale="  143.463">  1  9  2 -1</clus>
<clus scale="  143.463">  1  5  2 -1</clus>
</clustering>
</event>
<event>
 9    1  0.3231311E-005  0.1494735E+03  0.7546771E-02  0.1217380E+00
         -3   -1    0    0    0  501 -0.00000000000E+00  0.00000000000E+00  0.95525244969E+03  0.95525244969E+03  0.00000000000E+00 0.  1.
         21   -1    0    0  501  502  0.00000000000E+00 -0.00000000000E+00 -0.47051460904E+02  0.47051460904E+02  0.00000000000E+00 0.  1.
         23    2    1    2    0    0  0.26450159846E+02  0.47309362892E+02  0.47594791314E+03  0.48751802923E+03  0.90606986641E+02 0.  0.
         23    2    1    2    0    0 -0.10203593082E+02  0.89299311276E+02  0.29238710387E+03  0.31860134872E+03  0.89096131171E+02 0.  0.
        -13    1    4    4    0    0  0.34457226746E+02  0.62192802889E+02  0.20269411409E+03  0.21480258167E+03  0.00000000000E+00 0. -1.
         13    1    4    4    0    0 -0.44660819828E+02  0.27106508386E+02  0.89692989777E+02  0.10379876704E+03  0.00000000000E+00 0.  1.
        -13    1    3    3    0    0  0.50450875905E+02  0.57251199518E+02  0.40098604930E+03  0.40818231522E+03  0.00000000000E+00 0.  1.
         13    1    3    3    0    0 -0.24000716059E+02 -0.99418366261E+01  0.74961863835E+02  0.79335714004E+02  0.00000000000E+00 0. -1.
         -3    1    1    2    0  502 -0.16246566764E+02 -0.13660867417E+03  0.13986597178E+03  0.19618453265E+03  0.00000000000E+00 0.  1.
<scales pt_clust_5="13000.00000" pt_clust_6="13000.00000" pt_clust_7="13000.00000" pt_clust_8="13000.00000" pt_clust_9="120.01753"></scales>
<clustering>
<clus scale="   89.096">  5  6 -1 -1</clus>
<clus scale="   90.607">  7  8 -1 -1</clus>
<clus scale="  105.581">  1  7  2 -1</clus>
<clus scale="  120.018">  2  9  1 -1</clus>
<clus scale="  120.018">  2  5  1 -1</clus>
</clustering>
</event>
<event>
 9    1  0.3231311E-005  0.1361922E+03  0.7546771E-02  0.1218933E+00
          3   -1    0    0  502    0 -0.00000000000E+00  0.00000000000E+00  0.37469841327E+03  0.37469841327E+03  0.00000000000E+00 0. -1.
         21   -1    0    0  501  502  0.00000000000E+00 -0.00000000000E+00 -0.23362405030E+03  0.23362405030E+03  0.00000000000E+00 0.  1.
         23    2    1    2    0    0 -0.38432135554E+02  0.87570263293E+02  0.29295654326E+03  0.32127844323E+03  0.90833483859E+02 0.  0.
         23    2    1    2    0    0  0.66646339211E+02 -0.14013265888E+03 -0.13352206039E+03  0.22462654906E+03  0.92466476711E+02 0.  0.
        -11    1    3    3    0    0 -0.42805762848E+02  0.65755505199E+01  0.55800458918E+02  0.70634711106E+02  0.00000000000E+00 0.  1.
         11    1    3    3    0    0  0.43736272949E+01  0.80994712773E+02  0.23715608434E+03  0.25064373212E+03  0.00000000000E+00 0. -1.
        -13    1    4    4    0    0  0.35209455773E+02 -0.10411229573E+03 -0.13821698801E+03  0.17658712205E+03  0.00000000000E+00 0.  1.
         13    1    4    4    0    0  0.31436883437E+02 -0.36020363156E+02  0.46949276245E+01  0.48039427011E+02  0.00000000000E+00 0. -1.
          3    1    1    2  501    0 -0.28214203657E+02  0.52562395590E+02 -0.18360119906E+02  0.62417471281E+02  0.00000000000E+00 0. -1.
<scales pt_clust_5="13000.00000" pt_clust_6="13000.00000" pt_clust_7="13000.00000" pt_clust_8="13000.00000" pt_clust_9="59.65607"></scales>
<clustering>
<clus scale="   59.656">  2  9  1 -1</clus>
<clus scale="   90.833">  5  6 -1 -1</clus>
<clus scale="   92.466">  7  8 -1 -1</clus>
<clus scale="  135.089">  1  5  2 -1</clus>
<clus scale="   59.656">  2  5  1 -1</clus>
</clustering>
</event>
<event>
 9    1  0.3231311E-005  0.1330682E+03  0.7546771E-02  0.1223760E+00
         21   -1    0    0  501  502  0.00000000000E+00  0.00000000000E+00  0.13415949511E+03  0.13415949511E+03  0.00000000000E+00 0. -1.
          1   -1    0    0  502    0 -0.00000000000E+00 -0.00000000000E+00 -0.22798788863E+03  0.22798788863E+03  0.00000000000E+00 0. -1.
         23    2    1    2    0    0 -0.85371102495E+02 -0.43103662957E+02 -0.75439794486E+02  0.14920139464E+03  0.86161143614E+02 0.  0.
         23    2    1    2    0    0  0.10723113283E+03  0.42933948848E+01 -0.59962532781E+02  0.15201578475E+03  0.89422281282E+02 0.  0.
        -11    1    3    3    0    0 -0.96668733375E+02 -0.18648925158E+02 -0.72159783788E+02  0.12206416681E+03  0.00000000000E+00 0.  1.
         11    1    3    3    0    0  0.11297630880E+02 -0.24454737799E+02 -0.32800106988E+01  0.27137227834E+02  0.00000000000E+00 0. -1.
        -13    1    4    4    0    0  0.64128860694E+02  0.31750162792E+02  0.21389370198E+01  0.71590213457E+02  0.00000000000E+00 0.  1.
         13    1    4    4    0    0  0.43102272133E+02 -0.27456767908E+02 -0.62101469801E+02  0.80425571297E+02  0.00000000000E+00 0. -1.
          1    1    1    2  501    0 -0.21860030333E+02  0.38810268072E+02  0.41573933745E+02  0.60930204341E+02  0.00000000000E+00 0. -1.
<scales pt_clust_5="13000.00000" pt_clust_6="13000.00000" pt_clust_7="13000.00000" pt_clust_8="13000.00000" pt_clust_9="44.54321"></scales>
<clustering>
<clus scale="   44.543">  1  9  2 -1</clus>
<clus scale="   86.161">  5  6 -1 -1</clus>
<clus scale="   89.422">  7  8 -1 -1</clus>
<clus scale="  130.899">  2  5  1 -1</clus>
<clus scale="   44.543">  1  5  2 -1</clus>
</clustering>
</event>
<event>
 9    1  0.3231311E-005  0.1044913E+03  0.7546771E-02  0.1271679E+00
         21   -1    0    0  501  502  0.00000000000E+00  0.00000000000E+00  0.23450387465E+03  0.23450387465E+03  0.00000000000E+00 0.  1.
         -2   -1    0    0    0  501 -0.00000000000E+00 -0.00000000000E+00 -0.33137709313E+03  0.33137709313E+03  0.00000000000E+00 0.  1.
         23    2    1    2    0    0 -0.35567734142E+02  0.26325031231E+02 -0.24985074421E+03  0.26959021781E+03  0.91079197271E+02 0.  0.
         23    2    1    2    0    0  0.68742574924E+02 -0.28126067676E+02 -0.19975707055E+02  0.12017534882E+03  0.92338877515E+02 0.  0.
        -13    1    3    3    0    0 -0.63701507557E+02  0.53507353985E+01 -0.18675066035E+03  0.19738875747E+03  0.00000000000E+00 0.  1.
         13    1    3    3    0    0  0.28133773415E+02  0.20974295832E+02 -0.63100083868E+02  0.72201460348E+02  0.00000000000E+00 0. -1.
        -13    1    4    4    0    0 -0.69738987913E+01  0.22639352773E+02 -0.16649596951E+02  0.28954872422E+02  0.00000000000E+00 0. -1.
         13    1    4    4    0    0  0.75716473716E+02 -0.50765420449E+02 -0.33261101032E+01  0.91220476395E+02  0.00000000000E+00 0.  1.
         -2    1    1    2    0  502 -0.33174840782E+02  0.18010364450E+01  0.17295323278E+03  0.17611540115E+03  0.00000000000E+00 0.  1.
<scales pt_clust_5="13000.00000" pt_clust_6="13000.00000" pt_clust_7="13000.00000" pt_clust_8="13000.00000" pt_clust_9="33.22369"></scales>
<clustering>
<clus scale="   33.224">  1  9  2 -1</clus>
<clus scale="   91.079">  5  6 -1 -1</clus>
<clus scale="   92.339">  7  8 -1 -1</clus>
<clus scale="  103.380">  2  5  1 -1</clus>
<clus scale="   33.224">  1  5  2 -1</clus>
</clustering>
</event>
<event>
 9    1  0.3231311E-005  0.1182182E+03  0.7546771E-02  0.1246321E+00
         21   -1    0    0  501  502  0.00000000000E+00  0.00000000000E+00  0.20631998059E+03  0.20631998059E+03  0.00000000000E+00 0.  1.
         -4   -1    0    0    0  501 -0.00000000000E+00 -0.00000000000E+00 -0.52530473579E+03  0.52530473579E+03  0.00000000000E+00 0.  1.
         23    2    1    2    0    0 -0.70108622097E+02  0.17839410293E+02 -0.44230576921E+03  0.45729801030E+03  0.90849398980E+02 0.  0.
         23    2    1    2    0    0  0.87835329241E+02 -0.29997358305E+02 -0.17748737828E+02  0.13162867970E+03  0.91630808451E+02 0.  0.
        -11    1    3    3    0    0 -0.53447720386E+02 -0.30688416528E+02 -0.29331680793E+03  0.29972185028E+03  0.00000000000E+00 0.  1.
         11    1    3    3    0    0 -0.16660901712E+02  0.48527826821E+02 -0.14898896129E+03  0.15757616002E+03  0.00000000000E+00 0. -1.
        -11    1    4    4    0    0  0.34098628308E+02 -0.71974438236E+01 -0.53004189948E+02  0.63434720793E+02  0.00000000000E+00 0.  1.
         11    1    4    4    0    0  0.53736700934E+02 -0.22799914482E+02  0.35255452119E+02  0.68193958910E+02  0.00000000000E+00 0. -1.
         -4    1    1    2    0  502 -0.17726707144E+02  0.12157948012E+02  0.14106975184E+03  0.14269802637E+03  0.00000000000E+00 0.  1.
<scales pt_clust_5="13000.00000" pt_clust_6="13000.00000" pt_clust_7="13000.00000" pt_clust_8="13000.00000" pt_clust_9="21.49539"></scales>
<clustering>
<clus scale="   21.495">  1  9  2 -1</clus>
<clus scale="   90.849">  5  6 -1 -1</clus>
<clus scale="   91.631">  7  8 -1 -1</clus>
<clus scale="  117.614">  2  5  1 -1</clus>
<clus scale="   21.495">  1  5  2 -1</clus>
</clustering>
</event>
<event>
 9    1  0.3231311E-005  0.1304942E+03  0.7546771E-02  0.1227719E+00
         21   -1    0    0  501  502  0.00000000000E+00  0.00000000000E+00  0.14183294201E+03  0.14183294201E+03  0.00000000000E+00 0. -1.
          1   -1    0    0  502    0 -0.00000000000E+00 -0.00000000000E+00 -0.24538908253E+03  0.24538908253E+03  0.00000000000E+00 0. -1.
         23    2    1    2    0    0  0.95277441483E+01 -0.86070350596E+02 -0.14414638750E+03  0.19241667834E+03  0.93526006619E+02 0.  0.
         23    2    1    2    0    0 -0.55097226868E+01  0.11155610232E+03  0.66734634475E+02  0.15807392866E+03  0.89770454354E+02 0.  0.
        -11    1    4    4    0    0 -0.33848543257E+02  0.81625783664E+01  0.25724582127E+02  0.43290942377E+02  0.00000000000E+00 0.  1.
         11    1    4    4    0    0  0.28338820571E+02  0.10339352395E+03  0.41010052348E+02  0.11478298628E+03  0.00000000000E+00 0. -1.
        -11    1    3    3    0    0 -0.34473048542E+01 -0.67388554785E+02 -0.26341450379E+02  0.72435994056E+02  0.00000000000E+00 0.  1.
         11    1    3    3    0    0  0.12975049002E+02 -0.18681795811E+02 -0.11780493712E+03  0.11998068429E+03  0.00000000000E+00 0. -1.
          1    1    1    2  501    0 -0.40180214615E+01 -0.25485751723E+02 -0.26144387492E+02  0.36731417543E+02  0.00000000000E+00 0. -1.
<scales pt_clust_5="13000.00000" pt_clust_6="13000.00000" pt_clust_7="13000.00000" pt_clust_8="13000.00000" pt_clust_9="25.80056"></scales>
<clustering>
<clus scale="   25.801">  1  9  2 -1</clus>
<clus scale="   89.770">  5  6 -1 -1</clus>
<clus scale="   93.526">  7  8 -1 -1</clus>
<clus scale="  127.829">  1  5  2 -1</clus>
<clus scale="   25.801">  1  5  2 -1</clus>
</clustering>
</event>
<event>
 9    1  0.3231311E-005  0.1013973E+03  0.7546771E-02  0.1278607E+00
          1   -1    0    0  502    0 -0.00000000000E+00  0.00000000000E+00  0.29852207299E+03  0.29852207299E+03  0.00000000000E+00 0. -1.
         21   -1    0    0  501  502  0.00000000000E+00 -0.00000000000E+00 -0.34251936385E+03  0.34251936385E+03  0.00000000000E+00 0. -1.
         23    2    1    2    0    0  0.41583513239E+02 -0.10772879264E+02  0.26728318111E+03  0.28542035109E+03  0.90439119911E+02 0.  0.
         23    2    1    2    0    0  0.26379108584E+02  0.29598130783E+02 -0.19436554026E+03  0.21908387722E+03  0.92993953033E+02 0.  0.
        -11    1    4    4    0    0 -0.30795488685E+02  0.19220684958E+02 -0.11584902968E+03  0.12140343706E+03  0.00000000000E+00 0.  1.
         11    1    4    4    0    0  0.57174597269E+02  0.10377445826E+02 -0.78516510582E+02  0.97680440154E+02  0.00000000000E+00 0. -1.
        -13    1    3    3    0    0  0.56910469208E+02  0.22258090862E+02  0.19706204856E+03  0.20631935221E+03  0.00000000000E+00 0. -1.
         13    1    3    3    0    0 -0.15326955969E+02 -0.33030970126E+02  0.70221132546E+02  0.79100998874E+02  0.00000000000E+00 0.  1.
          1    1    1    2  501    0 -0.67962621823E+02 -0.18825251519E+02 -0.11691493171E+03  0.13653720854E+03  0.00000000000E+00 0. -1.
<scales pt_clust_5="13000.00000" pt_clust_6="13000.00000" pt_clust_7="13000.00000" pt_clust_8="13000.00000" pt_clust_9="70.52169"></scales>
<clustering>
<clus scale="   70.522">  2  9  1 -1</clus>
<clus scale="   90.439">  7  8 -1 -1</clus>
<clus scale="   92.994">  5  6 -1 -1</clus>
<clus scale="   99.059">  1  7  2 -1</clus>
<clus scale="   70.522">  2  5  1 -1</clus>
</clustering>
</event>
<event>
 9    1  0.3231311E-005  0.1405312E+03  0.7546771E-02  0.1213435E+00
          1   -1    0    0  502    0 -0.00000000000E+00  0.00000000000E+00  0.82745118623E+02  0.82745118623E+02  0.00000000000E+00 0. -1.
         21   -1    0    0  501  502  0.00000000000E+00 -0.00000000000E+00 -0.35570100547E+03  0.35570100547E+03  0.00000000000E+00 0. -1.
         23    2    1    2    0    0 -0.87804825098E+02  0.10725976201E+02 -0.69796705102E+02  0.14744187622E+03  0.95093600960E+02 0.  0.
         23    2    1    2    0    0  0.12157442938E+03 -0.22286916843E+02 -0.10404626716E+03  0.18565999621E+03  0.91471088000E+02 0.  0.
        -13    1    3    3    0    0 -0.27230092660E+02 -0.41671099456E+02 -0.27301690254E+02  0.56774472845E+02  0.00000000000E+00 0. -1.
         13    1    3    3    0    0 -0.60574732438E+02  0.52397075657E+02 -0.42495014848E+02  0.90667403373E+02  0.00000000000E+00 0.  1.
        -13    1    4    4    0    0  0.11044158888E+03  0.87171110627E+01 -0.48188117261E+02  0.12081153598E+03  0.00000000000E+00 0. -1.
         13    1    4    4    0    0  0.11132840498E+02 -0.31004027906E+02 -0.55858149896E+02  0.64848460226E+02  0.00000000000E+00 0.  1.
          1    1    1    2  501    0 -0.33769604283E+02  0.11560940642E+02 -0.99112914588E+02  0.10534425167E+03  0.00000000000E+00 0. -1.
<scales pt_clust_5="13000.00000" pt_clust_6="13000.00000" pt_clust_7="13000.00000" pt_clust_8="13000.00000" pt_clust_9="35.69372"></scales>
<clustering>
<clus scale="   35.694">  2  9  1 -1</clus>
<clus scale="   91.471">  7  8 -1 -1</clus>
<clus scale="   95.094">  5  6 -1 -1</clus>
<clus scale="  138.106">  2  7  1 -1</clus>
<clus scale="   35.694">  2  5  1 -1</clus>
</clustering>
</event>
<event>
 9    1  0.3231311E-005  0.1019967E+03  0.7546771E-02  0.1276769E+00
         21   -1    0    0  501  502  0.00000000000E+00  0.00000000000E+00  0.17229491517E+02  0.17229491517E+02  0.00000000000E+00 0.  1.
          1   -1    0    0  502    0 -0.00000000000E+00 -0.00000000000E+00 -0.88804042849E+03  0.88804042849E+03  0.00000000000E+00 0. -1.
         23    2    1    2    0    0 -0.12024684877E+02 -0.48085795629E+02 -0.51048357611E+03  0.52120939794E+03  0.92784256420E+02 0.  0.
         23    2    1    2    0    0  0.14976584721E+02  0.24396154314E+02 -0.19788443673E+03  0.21987277460E+03  0.91467569512E+02 0.  0.
        -11    1    4    4    0    0 -0.11807674175E+02 -0.17670924959E+02 -0.66892513406E+01  0.22280683155E+02  0.00000000000E+00 0.  1.
         11    1    4    4    0    0  0.26784258896E+02  0.42067079273E+02 -0.19119518539E+03  0.19759209144E+03  0.00000000000E+00 0. -1.
        -13    1    3    3    0    0 -0.18092103583E+02  0.25531939756E+02 -0.14588550601E+03  0.14920383716E+03  0.00000000000E+00 0. -1.
         13    1    3    3    0    0  0.60674187061E+01 -0.73617735385E+02 -0.36459807010E+03  0.37200556078E+03  0.00000000000E+00 0.  1.
          1    1    1    2  501    0 -0.29518998444E+01  0.23689641315E+02 -0.16244292413E+03  0.16418774747E+03  0.00000000000E+00 0. -1.
<scales pt_clust_5="13000.00000" pt_clust_6="13000.00000" pt_clust_7="13000.00000" pt_clust_8="13000.00000" pt_clust_9="23.87286"></scales>
<clustering>
<clus scale="   23.873">  1  9  2 -1</clus>
<clus scale="   91.468">  5  6 -1 -1</clus>
<clus scale="   92.784">  7  8 -1 -1</clus>
<clus scale="  100.800">  1  5  2 -1</clus>
<clus scale="   23.873">  1  5  2 -1</clus>
</clustering>
</event>
<event>
 9    1  0.3231311E-005  0.1161544E+03  0.7546771E-02  0.1250005E+00
          3   -1    0    0  502    0 -0.00000000000E+00  0.00000000000E+00  0.12419243220E+03  0.12419243220E+03  0.00000000000E+00 0. -1.
         21   -1    0    0  501  502  0.00000000000E+00 -0.00000000000E+00 -0.21058512847E+03  0.21058512847E+03  0.00000000000E+00 0. -1.
         23    2    1    2    0    0 -0.13954683822E+02 -0.78069763308E+02 -0.20884361482E+02  0.12492969676E+03  0.94242513940E+02 0.  0.
         23    2    1    2    0    0  0.71021730515E+02  0.26751079921E+02 -0.56127653003E+02  0.13252870540E+03  0.93026006260E+02 0.  0.
        -11    1    3    3    0    0 -0.35394169190E+02 -0.17033512178E+02  0.24146598128E+02  0.46107981423E+02  0.00000000000E+00 0.  1.
         11    1    3    3    0    0  0.21439485368E+02 -0.61036251130E+02 -0.45030959609E+02  0.78821715334E+02  0.00000000000E+00 0. -1.
        -11    1    4    4    0    0  0.51109222325E+02  0.55827929182E+02 -0.12941287548E+02  0.76787936597E+02  0.00000000000E+00 0.  1.
         11    1    4    4    0    0  0.19912508189E+02 -0.29076849261E+02 -0.43186365455E+02  0.55740768801E+02  0.00000000000E+00 0. -1.
          3    1    1    2  501    0 -0.57067046693E+02  0.51318683387E+02 -0.93806817889E+01  0.77319158516E+02  0.00000000000E+00 0. -1.
<scales pt_clust_5="13000.00000" pt_clust_6="13000.00000" pt_clust_7="13000.00000" pt_clust_8="13000.00000" pt_clust_9="76.74804"></scales>
<clustering>
<clus scale="   76.748">  2  9  1 -1</clus>
<clus scale="   93.026">  7  8 -1 -1</clus>
<clus scale="   94.243">  5  6 -1 -1</clus>
<clus scale="  115.170">  2  7  1 -1</clus>
<clus scale="   76.748">  2  5  1 -1</clus>
</clustering>
</event>
<event>
 9    1  0.3231311E-005  0.9731142E+02  0.7546771E-02  0.1287390E+00
         21   -1    0    0  501  502  0.00000000000E+00  0.00000000000E+00  0.21712642049E+03  0.21712642049E+03  0.00000000000E+00 0. -1.
          3   -1    0    0  502    0 -0.00000000000E+00 -0.00000000000E+00 -0.87323751478E+02  0.87323751478E+02  0.00000000000E+00 0. -1.
         23    2    1    2    0    0  0.22224094821E+01  0.23787896816E+02 -0.27584649405E+02  0.10114042935E+03  0.94327463801E+02 0.  0.
         23    2    1    2    0    0  0.20181838561E+02 -0.23340360573E+02  0.89761668284E+02  0.13206804714E+03  0.91829913116E+02 0.  0.
        -11    1    4    4    0    0 -0.27551746921E+02 -0.34689896742E+02  0.25158480713E+02  0.50945430081E+02  0.00000000000E+00 0.  1.
         11    1    4    4    0    0  0.47733585482E+02  0.11349536168E+02  0.64603187571E+02  0.81122617059E+02  0.00000000000E+00 0. -1.
        -13    1    3    3    0    0  0.25964955916E+02  0.46557367143E+02  0.65800056161E+01  0.53712790329E+02  0.00000000000E+00 0. -1.
         13    1    3    3    0    0 -0.23742546434E+02 -0.22769470328E+02 -0.34164655021E+02  0.47427639019E+02  0.00000000000E+00 0.  1.
          3    1    1    2  501    0 -0.22404248043E+02 -0.44753624241E+00  0.67625650134E+02  0.71241695482E+02  0.00000000000E+00 0. -1.
<scales pt_clust_5="13000.00000" pt_clust_6="13000.00000" pt_clust_7="13000.00000" pt_clust_8="13000.00000" pt_clust_9="22.40872"></scales>
<clustering>
<clus scale="   22.409">  1  9  2 -1</clus>
<clus scale="   91.830">  5  6 -1 -1</clus>
<clus scale="   94.327">  7  8 -1 -1</clus>
<clus scale="   94.892">  1  5  2 -1</clus>
<clus scale="   22.409">  1  5  2 -1</clus>
</clustering>
</event>
<event>
 9    1  0.3231311E-005  0.1834305E+03  0.7546771E-02  0.1166082E+00
         21   -1    0    0  501  502  0.00000000000E+00  0.00000000000E+00  0.14702897645E+03  0.14702897645E+03  0.00000000000E+00 0. -1.
          1   -1    0    0  502    0 -0.00000000000E+00 -0.00000000000E+00 -0.31956261665E+03  0.31956261665E+03  0.00000000000E+00 0. -1.
         23    2    1    2    0    0 -0.11608007429E+03 -0.11438782436E+03 -0.14168247674E+03  0.23977307901E+03  0.10420195389E+03 0.  0.
         23    2    1    2    0    0  0.64576120365E+02  0.12339272545E+03 -0.44232870141E+02  0.17284800744E+03  0.92325764888E+02 0.  0.
        -13    1    4    4    0    0  0.47144090123E+02  0.14348790422E+02  0.92657080671E+01  0.50142859572E+02  0.00000000000E+00 0.  1.
         13    1    4    4    0    0  0.17432030242E+02  0.10904393502E+03 -0.53498578209E+02  0.12270514787E+03  0.00000000000E+00 0. -1.
        -13    1    3    3    0    0 -0.28807373118E+02 -0.24803332780E-01 -0.76674910508E+02  0.81907919413E+02  0.00000000000E+00 0.  1.
         13    1    3    3    0    0 -0.87272701174E+02 -0.11436302102E+03 -0.65007566235E+02  0.15786515960E+03  0.00000000000E+00 0. -1.
          1    1    1    2  501    0  0.51503953928E+02 -0.90049010888E+01  0.13381706685E+02  0.53970506646E+02  0.00000000000E+00 0. -1.
<scales pt_clust_5="13000.00000" pt_clust_6="13000.00000" pt_clust_7="13000.00000" pt_clust_8="13000.00000" pt_clust_9="52.28523"></scales>
<clustering>
<clus scale="   52.285">  1  9  2 -1</clus>
<clus scale="   92.326">  5  6 -1 -1</clus>
<clus scale="  104.202">  7  8 -1 -1</clus>
<clus scale="  176.954">  1  5  2 -1</clus>
<clus scale="   52.285">  1  5  2 -1</clus>
</clustering>
</event>
<event>
 9    1  0.3669138E-005  0.1188689E+03  0.7546771E-02  0.1245476E+00
          2   -1    0    0  502    0 -0.00000000000E+00  0.00000000000E+00  0.37054045635E+03  0.37054045635E+03  0.00000000000E+00 0. -1.
         21   -1    0    0  501  502  0.00000000000E+00 -0.00000000000E+00 -0.13019965006E+03  0.13019965006E+03  0.00000000000E+00 0. -1.
         23    2    1    2    0    0  0.81036310623E+02  0.11264826910E+02  0.28276797572E+03  0.30901666166E+03  0.94020152764E+02 0.  0.
         23    2    1    2    0    0 -0.45308122766E+02  0.26191135584E+02  0.22547710463E+02  0.10865005821E+03  0.92507482567E+02 0.  0.
        -11    1    4    4    0    0 -0.42002535727E+02 -0.27119638700E+02  0.23463995781E+02  0.55229040447E+02  0.00000000000E+00 0.  1.
         11    1    4    4    0    0 -0.33055870390E+01  0.53310774283E+02 -0.91628531771E+00  0.53421017766E+02  0.00000000000E+00 0. -1.
        -11    1    3    3    0    0 -0.13886485613E+02  0.22948823886E+02  0.40737945226E+02  0.48775641274E+02  0.00000000000E+00 0. -1.
         11    1    3    3    0    0  0.94922796236E+02 -0.11683996976E+02  0.24203003049E+03  0.26024102039E+03  0.00000000000E+00 0.  1.
          2    1    1    2  501    0 -0.35728187857E+02 -0.37455962494E+02 -0.64974879896E+02  0.83073386541E+02  0.00000000000E+00 0. -1.
<scales pt_clust_5="13000.00000" pt_clust_6="13000.00000" pt_clust_7="13000.00000" pt_clust_8="13000.00000" pt_clust_9="51.76343"></scales>
<clustering>
<clus scale="   51.763">  2  9  1 -1</clus>
<clus scale="   92.507">  5  6 -1 -1</clus>
<clus scale="   94.020">  7  8 -1 -1</clus>
<clus scale="  117.676">  2  5  1 -1</clus>
<clus scale="   51.763">  2  5  1 -1</clus>
</clustering>
</event>
<event>
 9    1  0.3231311E-005  0.1281440E+03  0.7546771E-02  0.1230284E+00
         21   -1    0    0  501  502  0.00000000000E+00  0.00000000000E+00  0.19559603085E+03  0.19559603085E+03  0.00000000000E+00 0. -1.
          1   -1    0    0  502    0 -0.00000000000E+00 -0.00000000000E+00 -0.42288933958E+03  0.42288933958E+03  0.00000000000E+00 0. -1.
         23    2    1    2    0    0  0.81852565256E+02 -0.55136992230E+02 -0.23341742827E+03  0.26983629809E+03  0.92671471305E+02 0.  0.
         23    2    1    2    0    0 -0.71989540991E+02  0.27987016993E+02 -0.14846460794E+03  0.19138472461E+03  0.92847217894E+02 0.  0.
        -11    1    3    3    0    0  0.84455342293E+02 -0.76210350204E+02 -0.18877195117E+03  0.22039866576E+03  0.00000000000E+00 0.  1.
         11    1    3    3    0    0 -0.26027770372E+01  0.21073357974E+02 -0.44645477104E+02  0.49437632330E+02  0.00000000000E+00 0. -1.
        -11    1    4    4    0    0 -0.44086303061E+02  0.62362519181E+02 -0.89707748124E+02  0.11781411626E+03  0.00000000000E+00 0.  1.
         11    1    4    4    0    0 -0.27903237930E+02 -0.34375502188E+02 -0.58756859812E+02  0.73570608347E+02  0.00000000000E+00 0. -1.
          1    1    1    2  501    0 -0.98630242650E+01  0.27149975237E+02  0.15458872748E+03  0.15726434773E+03  0.00000000000E+00 0. -1.
<scales pt_clust_5="13000.00000" pt_clust_6="13000.00000" pt_clust_7="13000.00000" pt_clust_8="13000.00000" pt_clust_9="28.88599"></scales>
<clustering>
<clus scale="   28.886">  1  9  2 -1</clus>
<clus scale="   92.671">  5  6 -1 -1</clus>
<clus scale="   92.847">  7  8 -1 -1</clus>
<clus scale="  128.017">  2  5  1 -1</clus>
<clus scale="   28.886">  1  5  2 -1</clus>
</clustering>
</event>
<event>
 9    1  0.3231311E-005  0.1002448E+03  0.7546771E-02  0.1279904E+00
         21   -1    0    0  501  502  0.00000000000E+00  0.00000000000E+00  0.13943489683E+03  0.13943489683E+03  0.00000000000E+00 0.  1.
          1   -1    0    0  502    0 -0.00000000000E+00 -0.00000000000E+00 -0.24847694478E+03  0.24847694478E+03  0.00000000000E+00 0. -1.
         23    2    1    2    0    0 -0.18805959378E+02 -0.38657687816E+02 -0.17038888404E+03  0.19737468284E+03  0.89868307464E+02 0.  0.
         23    2    1    2    0    0 -0.27464043831E+02  0.69983431866E+02  0.66280809669E+02  0.13444295647E+03  0.89609198043E+02 0.  0.
        -11    1    4    4    0    0  0.25218934656E+02  0.27333102428E+02  0.53982756770E+02  0.65553269804E+02  0.00000000000E+00 0.  1.
         11    1    4    4    0    0 -0.52682978486E+02  0.42650329438E+02  0.12298052899E+02  0.68889686663E+02  0.00000000000E+00 0. -1.
        -13    1    3    3    0    0 -0.36182732750E+02 -0.14637223171E+02 -0.19556996835E+02  0.43656781565E+02  0.00000000000E+00 0.  1.
         13    1    3    3    0    0  0.17376773372E+02 -0.24020464645E+02 -0.15083188720E+03  0.15371790127E+03  0.00000000000E+00 0. -1.
          1    1    1    2  501    0  0.46270003209E+02 -0.31325744050E+02 -0.49339735794E+01  0.56094202307E+02  0.00000000000E+00 0. -1.
<scales pt_clust_5="13000.00000" pt_clust_6="13000.00000" pt_clust_7="13000.00000" pt_clust_8="13000.00000" pt_clust_9="55.87679"></scales>
<clustering>
<clus scale="   55.877">  1  9  2 -1</clus>
<clus scale="   89.609">  5  6 -1 -1</clus>
<clus scale="   89.868">  7  8 -1 -1</clus>
<clus scale="  100.013">  1  5  2 -1</clus>
<clus scale="   55.877">  1  5  2 -1</clus>
</clustering>
</event>
<event>
 9    1  0.3231311E-005  0.1206659E+03  0.7546771E-02  0.1243799E+00
          3   -1    0    0  502    0 -0.00000000000E+00  0.00000000000E+00  0.13383353160E+03  0.13383353160E+03  0.00000000000E+00 0. -1.
         21   -1    0    0  501  502  0.00000000000E+00 -0.00000000000E+00 -0.22833922733E+03  0.22833922733E+03  0.00000000000E+00 0.  1.
         23    2    1    2    0    0 -0.71073601294E+02 -0.51434277008E+02  0.24844402299E+02  0.12916488349E+03  0.91484321878E+02 0.  0.
         23    2    1    2    0    0  0.57540799954E+02  0.72701010306E+01 -0.88898706502E+01  0.11327871029E+03  0.96898082424E+02 0.  0.
        -11    1    4    4    0    0  0.79890653764E+02  0.86438652448E+01 -0.26690270221E+02  0.84673511146E+02  0.00000000000E+00 0.  1.
         11    1    4    4    0    0 -0.22349853810E+02 -0.13737642143E+01  0.17800399571E+02  0.28605199149E+02  0.00000000000E+00 0. -1.
        -11    1    3    3    0    0 -0.32543312114E+02  0.11652404956E+02  0.40867751059E+02  0.53525870205E+02  0.00000000000E+00 0. -1.
         11    1    3    3    0    0 -0.38530289180E+02 -0.63086681964E+02 -0.16023348760E+02  0.75639013287E+02  0.00000000000E+00 0.  1.
          3    1    1    2  501    0  0.13532801340E+02  0.44164175977E+02 -0.11046022738E+03  0.11972916514E+03  0.00000000000E+00 0. -1.
<scales pt_clust_5="13000.00000" pt_clust_6="13000.00000" pt_clust_7="13000.00000" pt_clust_8="13000.00000" pt_clust_9="46.19103"></scales>
<clustering>
<clus scale="   46.191">  2  9  1 -1</clus>
<clus scale="   91.484">  7  8 -1 -1</clus>
<clus scale="   96.898">  5  6 -1 -1</clus>
<clus scale="  116.363">  1  7  2 -1</clus>
<clus scale="   46.191">  2  5  1 -1</clus>
</clustering>
</event>
<event>
 9    1  0.3231311E-005  0.9700531E+02  0.7546771E-02  0.1290459E+00
         -3   -1    0    0    0  501 -0.00000000000E+00  0.00000000000E+00  0.35252733678E+03  0.35252733678E+03  0.00000000000E+00 0.  1.
         21   -1    0    0  501  502  0.00000000000E+00 -0.00000000000E+00 -0.39344611943E+02  0.39344611943E+02  0.00000000000E+00 0. -1.
         23    2    1    2    0    0 -0.70698017785E+00 -0.61250047614E+01  0.21989440728E+03  0.24001798139E+03  0.96005549498E+02 0.  0.
         23    2    1    2    0    0  0.10569051133E+00  0.30960673682E+02  0.78767829876E+02  0.12307869040E+03  0.89361168983E+02 0.  0.
        -11    1    3    3    0    0  0.30298889699E+02  0.33267111605E+02  0.12201491100E+03  0.13004753723E+03  0.00000000000E+00 0. -1.
         11    1    3    3    0    0 -0.31005869877E+02 -0.39392116366E+02  0.97879496273E+02  0.10997044416E+03  0.00000000000E+00 0.  1.
        -13    1    4    4    0    0 -0.30060373801E+02  0.37127313629E+02  0.78962277011E+02  0.92288161110E+02  0.00000000000E+00 0.  1.
         13    1    4    4    0    0  0.30166064312E+02 -0.61666399468E+01 -0.19444713487E+00  0.30790529291E+02  0.00000000000E+00 0. -1.
         -3    1    1    2    0  502  0.60128966652E+00 -0.24835668921E+02  0.14520487687E+02  0.28775276935E+02  0.00000000000E+00 0.  1.
<scales pt_clust_5="13000.00000" pt_clust_6="13000.00000" pt_clust_7="13000.00000" pt_clust_8="13000.00000" pt_clust_9="24.84295"></scales>
<clustering>
<clus scale="   24.843">  2  9  1 -1</clus>
<clus scale="   89.361">  7  8 -1 -1</clus>
<clus scale="   90.434">  2  7  1 -1</clus>
<clus scale="   96.006">  5  6 -1 -1</clus>
<clus scale="   24.843">  2  5  1 -1</clus>
</clustering>
</event>
<event>
 9    1  0.3231311E-005  0.9303780E+02  0.7546771E-02  0.1296685E+00
         -1   -1    0    0    0  501 -0.00000000000E+00  0.00000000000E+00  0.28013826886E+03  0.28013826886E+03  0.00000000000E+00 0.  1.
         21   -1    0    0  501  502  0.00000000000E+00 -0.00000000000E+00 -0.14477267780E+03  0.14477267780E+03  0.00000000000E+00 0. -1.
         23    2    1    2    0    0 -0.15542903862E+01 -0.24176533072E+01  0.24484044051E+03  0.26130290973E+03  0.91236552207E+02 0.  0.
         23    2    1    2    0    0 -0.22284029519E+02  0.85826575562E+01 -0.78353181405E+02  0.12392389659E+03  0.92992855252E+02 0.  0.
        -13    1    4    4    0    0  0.20452408044E+02 -0.24932187207E+02 -0.49689992374E+01  0.32628299176E+02  0.00000000000E+00 0.  1.
         13    1    4    4    0    0 -0.42736437563E+02  0.33514844763E+02 -0.73384182168E+02  0.91295597416E+02  0.00000000000E+00 0. -1.
        -13    1    3    3    0    0  0.40115467011E+00 -0.41813013698E+02  0.18475251154E+03  0.18942539312E+03  0.00000000000E+00 0.  1.
         13    1    3    3    0    0 -0.19554450563E+01  0.39395360391E+02  0.60087928966E+02  0.71877516604E+02  0.00000000000E+00 0. -1.
         -1    1    1    2    0  502  0.23838319906E+02 -0.61650042490E+01 -0.31121668043E+02  0.39684140347E+02  0.00000000000E+00 0.  1.
<scales pt_clust_5="13000.00000" pt_clust_6="13000.00000" pt_clust_7="13000.00000" pt_clust_8="13000.00000" pt_clust_9="24.62261"></scales>
<clustering>
<clus scale="   24.623">  2  9  1 -1</clus>
<clus scale="   91.237">  7  8 -1 -1</clus>
<clus scale="   91.282">  1  7  2 -1</clus>
<clus scale="   92.993">  5  6 -1 -1</clus>
<clus scale="   24.623">  2  5  1 -1</clus>
</clustering>
</event>
<event>
 9    1  0.3231311E-005  0.1060120E+03  0.7546771E-02  0.1269036E+00
          4   -1    0    0  502    0 -0.00000000000E+00  0.00000000000E+00  0.14971084002E+03  0.14971084002E+03  0.00000000000E+00 0. -1.
         21   -1    0    0  501  502  0.00000000000E+00 -0.00000000000E+00 -0.27262383702E+03  0.27262383702E+03  0.00000000000E+00 0.  1.
         23    2    1    2    0    0 -0.21072485900E+02  0.43990026214E+02  0.10470918232E+03  0.14794322798E+03  0.92433834578E+02 0.  0.
         23    2    1    2    0    0  0.33937563366E+02 -0.67247469321E+02 -0.14011589226E+03  0.18293780422E+03  0.90331592555E+02 0.  0.
        -13    1    3    3    0    0 -0.34043938768E+02  0.66318558307E+02  0.94040727442E+02  0.12000333062E+03  0.00000000000E+00 0. -1.
         13    1    3    3    0    0  0.12971452868E+02 -0.22328532093E+02  0.10668454882E+02  0.27939897360E+02  0.00000000000E+00 0.  1.
        -13    1    4    4    0    0  0.61268467367E+02 -0.24098397668E+02 -0.68890012218E+02  0.95291089023E+02  0.00000000000E+00 0.  1.
         13    1    4    4    0    0 -0.27330904001E+02 -0.43149071653E+02 -0.71225880039E+02  0.87646715200E+02  0.00000000000E+00 0. -1.
          4    1    1    2  501    0 -0.12865077466E+02  0.23257443106E+02 -0.87506287069E+02  0.91453644840E+02  0.00000000000E+00 0. -1.
<scales pt_clust_5="13000.00000" pt_clust_6="13000.00000" pt_clust_7="13000.00000" pt_clust_8="13000.00000" pt_clust_9="26.57854"></scales>
<clustering>
<clus scale="   26.579">  2  9  1 -1</clus>
<clus scale="   90.332">  7  8 -1 -1</clus>
<clus scale="   92.434">  5  6 -1 -1</clus>
<clus scale="  104.184">  2  7  1 -1</clus>
<clus scale="   26.579">  2  5  1 -1</clus>
</clustering>
</event>
<event>
 9    1  0.3231311E-005  0.1493934E+03  0.7546771E-02  0.1201540E+00
         21   -1    0    0  501  502  0.00000000000E+00  0.00000000000E+00  0.30347202966E+03  0.30347202966E+03  0.00000000000E+00 0.  1.
         -2   -1    0    0    0  501 -0.00000000000E+00 -0.00000000000E+00 -0.25430486485E+03  0.25430486485E+03  0.00000000000E+00 0.  1.
         23    2    1    2    0    0  0.12505884952E+03 -0.19655239797E+02 -0.17906897210E+03  0.23783859187E+03  0.92062232862E+02 0.  0.
         23    2    1    2    0    0 -0.88876371515E+02  0.11745565856E+02  0.48182199121E+02  0.13611459587E+03  0.90380811930E+02 0.  0.
        -11    1    3    3    0    0  0.10350160016E+03 -0.36018868786E+02 -0.81465981360E+02  0.13655272338E+03  0.00000000000E+00 0.  1.
         11    1    3    3    0    0  0.21557249357E+02  0.16363628989E+02 -0.97602990743E+02  0.10128586849E+03  0.00000000000E+00 0. -1.
        -11    1    4    4    0    0 -0.30027914307E+02  0.48671195834E+02  0.28554345063E+02  0.63921135499E+02  0.00000000000E+00 0.  1.
         11    1    4    4    0    0 -0.58848457207E+02 -0.36925629978E+02  0.19627854058E+02  0.72193460368E+02  0.00000000000E+00 0. -1.
         -2    1    1    2    0  502 -0.36182478005E+02  0.79096739420E+01  0.18005393779E+03  0.18382370677E+03  0.00000000000E+00 0.  1.
<scales pt_clust_5="13000.00000" pt_clust_6="13000.00000" pt_clust_7="13000.00000" pt_clust_8="13000.00000" pt_clust_9="37.03694"></scales>
<clustering>
<clus scale="   37.037">  1  9  2 -1</clus>
<clus scale="   90.381">  7  8 -1 -1</clus>
<clus scale="   92.062">  5  6 -1 -1</clus>
<clus scale="  148.363">  1  7  2 -1</clus>
<clus scale="   37.037">  1  5  2 -1</clus>
</clustering>
</event>
<event>
 9    1  0.3231311E-005  0.1130455E+03  0.7546771E-02  0.1255498E+00
         -4   -1    0    0    0  501 -0.00000000000E+00  0.00000000000E+00  0.13428000577E+03  0.13428000577E+03  0.00000000000E+00 0.  1.
         21   -1    0    0  501  502  0.00000000000E+00 -0.00000000000E+00 -0.32850952862E+03  0.32850952862E+03  0.00000000000E+00 0.  1.
         23    2    1    2    0    0  0.52679861840E+01 -0.53485886804E+02  0.36219696246E+02  0.11107003184E+03  0.90200852607E+02 0.  0.
         23    2    1    2    0    0  0.72968505681E+01  0.97465595318E+02 -0.16743327314E+02  0.13317363079E+03  0.88893704100E+02 0.  0.
        -13    1    4    4    0    0  0.24358398205E+02 -0.56304758128E+01  0.71007508408E+01  0.25989507180E+02  0.00000000000E+00 0.  1.
         13    1    4    4    0    0 -0.17061547636E+02  0.10309607113E+03 -0.23844078155E+02  0.10718412361E+03  0.00000000000E+00 0. -1.
        -13    1    3    3    0    0 -0.31424495801E+02 -0.56270084155E+02  0.36899674397E+02  0.74265788071E+02  0.00000000000E+00 0. -1.
         13    1    3    3    0    0  0.36692481985E+02  0.27841973510E+01 -0.67997815101E+00  0.36804243769E+02  0.00000000000E+00 0.  1.
         -4    1    1    2    0  502 -0.12564836752E+02 -0.43979708513E+02 -0.21370589178E+03  0.21854587176E+03  0.00000000000E+00 0.  1.
<scales pt_clust_5="13000.00000" pt_clust_6="13000.00000" pt_clust_7="13000.00000" pt_clust_8="13000.00000" pt_clust_9="45.73937"></scales>
<clustering>
<clus scale="   45.739">  2  9  1 -1</clus>
<clus scale="   88.894">  5  6 -1 -1</clus>
<clus scale="   90.201">  7  8 -1 -1</clus>
<clus scale="  112.005">  2  5  1 -1</clus>
<clus scale="   45.739">  2  5  1 -1</clus>
</clustering>
</event>
<event>
 9    1  0.3231311E-005  0.9630469E+02  0.7546771E-02  0.1290038E+00
          1   -1    0    0  502    0 -0.00000000000E+00  0.00000000000E+00  0.28175629467E+03  0.28175629467E+03  0.00000000000E+00 0. -1.
         21   -1    0    0  501  502  0.00000000000E+00 -0.00000000000E+00 -0.99862660380E+02  0.99862660380E+02  0.00000000000E+00 0.  1.
         23    2    1    2    0    0 -0.11636505828E+01  0.94547651255E+01  0.14749030550E+03  0.17424214084E+03  0.92283187853E+02 0.  0.
         23    2    1    2    0    0 -0.37436257466E+02  0.15248448874E+02  0.88621629896E+02  0.13638508330E+03  0.95462605742E+02 0.  0.
        -11    1    4    4    0    0 -0.13716415589E+02  0.31952182405E+02 -0.78489549573E+01  0.35646712484E+02  0.00000000000E+00 0.  1.
         11    1    4    4    0    0 -0.23719841876E+02 -0.16703733531E+02  0.96470584853E+02  0.10073837081E+03  0.00000000000E+00 0. -1.
        -13    1    3    3    0    0  0.43349751962E+02 -0.12312460339E+01  0.96021580614E+02  0.10536062313E+03  0.00000000000E+00 0.  1.
         13    1    3    3    0    0 -0.44513402545E+02  0.10686011159E+02  0.51468724885E+02  0.68881517709E+02  0.00000000000E+00 0. -1.
          1    1    1    2  501    0  0.38599908048E+02 -0.24703213999E+02 -0.54218301107E+02  0.70991730914E+02  0.00000000000E+00 0. -1.
<scales pt_clust_5="13000.00000" pt_clust_6="13000.00000" pt_clust_7="13000.00000" pt_clust_8="13000.00000" pt_clust_9="45.82796"></scales>
<clustering>
<clus scale="   45.828">  2  9  1 -1</clus>
<clus scale="   92.283">  7  8 -1 -1</clus>
<clus scale="   93.154">  1  7  2 -1</clus>
<clus scale="   95.463">  5  6 -1 -1</clus>
<clus scale="   45.828">  2  5  1 -1</clus>
</clustering>
</event>
<event>
 9    1  0.3231311E-005  0.2202502E+03  0.7546771E-02  0.1133766E+00
          2   -1    0    0  502    0 -0.00000000000E+00  0.00000000000E+00  0.32671162796E+03  0.32671162796E+03  0.00000000000E+00 0. -1.
         21   -1    0    0  501  502  0.00000000000E+00 -0.00000000000E+00 -0.24259087999E+03  0.24259087999E+03  0.00000000000E+00 0. -1.
         23    2    1    2    0    0  0.11119367477E+03 -0.18035356778E+03  0.97948848575E+02  0.25012752298E+03  0.89879686778E+02 0.  0.
         23    2    1    2    0    0 -0.13360601293E+02  0.19828484507E+03  0.17712652142E+01  0.21849638155E+03  0.90786265024E+02 0.  0.
        -11    1    4    4    0    0  0.36260198675E+02  0.50289072291E+02  0.64537813266E+01  0.62333330516E+02  0.00000000000E+00 0.  1.
         11    1    4    4    0    0 -0.49620799968E+02  0.14799577278E+03 -0.46825161124E+01  0.15616305103E+03  0.00000000000E+00 0. -1.
        -13    1    3    3    0    0  0.46725451160E+01 -0.76404133714E+02  0.98660042312E+01  0.77180064563E+02  0.00000000000E+00 0.  1.
         13    1    3    3    0    0  0.10652112966E+03 -0.10394943407E+03  0.88082844344E+02  0.17294745842E+03  0.00000000000E+00 0. -1.
          2    1    1    2  501    0 -0.97833073479E+02 -0.17931277293E+02 -0.15599365825E+02  0.10067860342E+03  0.00000000000E+00 0. -1.
<scales pt_clust_5="13000.00000" pt_clust_6="13000.00000" pt_clust_7="13000.00000" pt_clust_8="13000.00000" pt_clust_9="99.46276"></scales>
<clustering>
<clus scale="   89.880">  7  8 -1 -1</clus>
<clus scale="   90.786">  5  6 -1 -1</clus>
<clus scale="   99.463">  2  9  1 -1</clus>
<clus scale="  219.878">  1  7  2 -1</clus>
<clus scale="   99.463">  2  5  1 -1</clus>
</clustering>
</event>
<event>
 9    1  0.3231311E-005  0.1181098E+03  0.7546771E-02  0.1247910E+00
         21   -1    0    0  501  502  0.00000000000E+00  0.00000000000E+00  0.49858983049E+02  0.49858983049E+02  0.00000000000E+00 0.  1.
          1   -1    0    0  502    0 -0.00000000000E+00 -0.00000000000E+00 -0.40366255458E+03  0.40366255458E+03  0.00000000000E+00 0. -1.
         23    2    1    2    0    0  0.10687989834E+02  0.48165685699E+02 -0.15789188843E+03  0.18998398458E+03  0.93433931514E+02 0.  0.
         23    2    1    2    0    0 -0.28560670134E+02 -0.85688354707E+02 -0.16240265545E+03  0.21014992972E+03  0.98133401314E+02 0.  0.
        -11    1    4    4    0    0 -0.57478645931E+02 -0.86250526362E+02 -0.13594937749E+03  0.17095374016E+03  0.00000000000E+00 0.  1.
         11    1    4    4    0    0  0.28917975796E+02  0.56217165482E+00 -0.26453277969E+02  0.39196189565E+02  0.00000000000E+00 0. -1.
        -11    1    3    3    0    0  0.43955957165E+02  0.82970569196E+01 -0.11230842307E+03  0.12088899543E+03  0.00000000000E+00 0. -1.
         11    1    3    3    0    0 -0.33267967331E+02  0.39868628779E+02 -0.45583465366E+02  0.69094989151E+02  0.00000000000E+00 0.  1.
          1    1    1    2  501    0  0.17872680300E+02  0.37522669008E+02 -0.33509027638E+02  0.53387623321E+02  0.00000000000E+00 0. -1.
<scales pt_clust_5="13000.00000" pt_clust_6="13000.00000" pt_clust_7="13000.00000" pt_clust_8="13000.00000" pt_clust_9="41.56180"></scales>
<clustering>
<clus scale="   41.562">  1  9  2 -1</clus>
<clus scale="   93.434">  7  8 -1 -1</clus>
<clus scale="   98.133">  5  6 -1 -1</clus>
<clus scale="  114.235">  2  7  1 -1</clus>
<clus scale="   41.562">  1  5  2 -1</clus>
</clustering>
</event>
<event>
 9    1  0.3231311E-005  0.1654342E+03  0.7546771E-02  0.1195780E+00
          1   -1    0    0  502    0 -0.00000000000E+00  0.00000000000E+00  0.58747641997E+03  0.58747641997E+03  0.00000000000E+00 0. -1.
         21   -1    0    0  501  502  0.00000000000E+00 -0.00000000000E+00 -0.23343982151E+03  0.23343982151E+03  0.00000000000E+00 0. -1.
         23    2    1    2    0    0 -0.69263018188E+02 -0.46645009536E+02  0.22507396347E+03  0.25689916795E+03  0.91464588003E+02 0.  0.
         23    2    1    2    0    0  0.84545611591E+02 -0.93633564907E+02  0.30267960204E+03  0.34021086103E+03  0.90627167853E+02 0.  0.
        -11    1    4    4    0    0  0.65314170971E+02 -0.49701227379E+02  0.88383912143E+02  0.12061454663E+03  0.00000000000E+00 0.  1.
         11    1    4    4    0    0  0.19231440620E+02 -0.43932337528E+02  0.21429568990E+03  0.21959631440E+03  0.00000000000E+00 0. -1.
        -13    1    3    3    0    0 -0.76608498682E+02 -0.65816140775E+02  0.20310254351E+03  0.22682872313E+03  0.00000000000E+00 0. -1.
         13    1    3    3    0    0  0.73454804946E+01  0.19171131238E+02  0.21971419964E+02  0.30070444824E+02  0.00000000000E+00 0.  1.
          1    1    1    2  501    0 -0.15282593404E+02  0.14027857444E+03 -0.17371696705E+03  0.22380621249E+03  0.00000000000E+00 0. -1.
<scales pt_clust_5="13000.00000" pt_clust_6="13000.00000" pt_clust_7="13000.00000" pt_clust_8="13000.00000" pt_clust_9="138.40223"></scales>
<clustering>
<clus scale="   90.627">  5  6 -1 -1</clus>
<clus scale="   91.465">  7  8 -1 -1</clus>
<clus scale="  123.850">  1  7  2 -1</clus>
<clus scale="  138.402">  2  9  1 -1</clus>
<clus scale="  138.402">  2  5  1 -1</clus>
</clustering>
</event>
<event>
 9    1  0.3231311E-005  0.3148826E+03  0.7546771E-02  0.1078173E+00
         21   -1    0    0  501  502  0.00000000000E+00  0.00000000000E+00  0.23657797884E+03  0.23657797884E+03  0.00000000000E+00 0.  1.
          2   -1    0    0  502    0 -0.00000000000E+00 -0.00000000000E+00 -0.14539389589E+04  0.14539389589E+04  0.00000000000E+00 0.  1.
         23    2    1    2    0    0 -0.29289791352E+03 -0.54375628720E+02 -0.12475284757E+04  0.12853713300E+04  0.84298645921E+02 0.  0.
         23    2    1    2    0    0  0.33538860720E+03  0.76477451261E+02  0.17933929057E+02  0.35571272635E+03  0.88744574416E+02 0.  0.
        -11    1    4    4    0    0  0.24871622471E+03  0.53197757357E+02  0.52210640106E+02  0.25964535960E+03  0.00000000000E+00 0.  1.
         11    1    4    4    0    0  0.86672382493E+02  0.23279693904E+02 -0.34276711049E+02  0.96067366757E+02  0.00000000000E+00 0. -1.
        -11    1    3    3    0    0 -0.20255327620E+03 -0.97816068495E+00 -0.74818398949E+03  0.77511809979E+03  0.00000000000E+00 0.  1.
         11    1    3    3    0    0 -0.90344637313E+02 -0.53397468035E+02 -0.49934448619E+03  0.51025323024E+03  0.00000000000E+00 0. -1.
          2    1    1    2  501    0 -0.42490693684E+02 -0.22101822541E+02  0.12233566549E+02  0.49432881363E+02  0.00000000000E+00 0.  1.
<scales pt_clust_5="13000.00000" pt_clust_6="13000.00000" pt_clust_7="13000.00000" pt_clust_8="13000.00000" pt_clust_9="47.89519"></scales>
<clustering>
<clus scale="   47.895">  1  9  2 -1</clus>
<clus scale="   84.299">  7  8 -1 -1</clus>
<clus scale="   88.745">  5  6 -1 -1</clus>
<clus scale="  313.659">  2  7  1 -1</clus>
<clus scale="   47.895">  1  5  2 -1</clus>
</clustering>
</event>
<event>
 9    1  0.3231311E-005  0.2419555E+03  0.7546771E-02  0.1118582E+00
         21   -1    0    0  501  502  0.00000000000E+00  0.00000000000E+00  0.14566778744E+03  0.14566778744E+03  0.00000000000E+00 0.  1.
          1   -1    0    0  502    0 -0.00000000000E+00 -0.00000000000E+00 -0.89986573659E+03  0.89986573659E+03  0.00000000000E+00 0. -1.
         23    2    1    2    0    0 -0.10648438648E+03 -0.21509209886E+03 -0.67200933840E+03  0.71935864733E+03  0.90976793965E+02 0.  0.
         23    2    1    2    0    0  0.10154126058E+03  0.15758198049E+03 -0.13512774197E+03  0.24785246725E+03  0.89602626608E+02 0.  0.
        -11    1    3    3    0    0  0.15790722527E+02 -0.32662027527E+02 -0.77176340723E+02  0.85278030744E+02  0.00000000000E+00 0.  1.
         11    1    3    3    0    0 -0.12227510901E+03 -0.18243007133E+03 -0.59483299768E+03  0.63408061659E+03  0.00000000000E+00 0. -1.
        -13    1    4    4    0    0 -0.93763901182E+01  0.19360593110E+02 -0.43077271909E+02  0.48149772714E+02  0.00000000000E+00 0. -1.
         13    1    4    4    0    0  0.11091765069E+03  0.13822138738E+03 -0.92050470063E+02  0.19970269453E+03  0.00000000000E+00 0.  1.
          1    1    1    2  501    0  0.49431259056E+01  0.57510118363E+02  0.52939131218E+02  0.78322409450E+02  0.00000000000E+00 0. -1.
<scales pt_clust_5="13000.00000" pt_clust_6="13000.00000" pt_clust_7="13000.00000" pt_clust_8="13000.00000" pt_clust_9="57.72216"></scales>
<clustering>
<clus scale="   57.722">  1  9  2 -1</clus>
<clus scale="   89.603">  7  8 -1 -1</clus>
<clus scale="   90.977">  5  6 -1 -1</clus>
<clus scale="  241.442">  1  7  2 -1</clus>
<clus scale="   57.722">  1  5  2 -1</clus>
</clustering>
</event>
<event>
 9    1  0.3231311E-005  0.1448245E+03  0.7546771E-02  0.1207093E+00
         -3   -1    0    0    0  501 -0.00000000000E+00  0.00000000000E+00  0.91505692667E+02  0.91505692667E+02  0.00000000000E+00 0.  1.
         21   -1    0    0  501  502  0.00000000000E+00 -0.00000000000E+00 -0.37874316628E+03  0.37874316628E+03  0.00000000000E+00 0.  1.
         23    2    1    2    0    0 -0.63497318299E+02 -0.47588002698E+02 -0.12675276618E+03  0.17465428275E+03  0.90229304090E+02 0.  0.
         23    2    1    2    0    0  0.10546943870E+03  0.10684423363E+03 -0.11849380981E+03  0.21171254428E+03  0.90785052083E+02 0.  0.
        -11    1    4    4    0    0  0.58041906370E+02  0.11182957926E+03 -0.72030838296E+02  0.14513152434E+03  0.00000000000E+00 0.  1.
         11    1    4    4    0    0  0.47427532334E+02 -0.49853456260E+01 -0.46462971516E+02  0.66581019941E+02  0.00000000000E+00 0. -1.
        -11    1    3    3    0    0 -0.12703996028E+02 -0.33648784789E+02  0.15090572961E+01  0.35998742850E+02  0.00000000000E+00 0.  1.
         11    1    3    3    0    0 -0.50793322271E+02 -0.13939217909E+02 -0.12826182348E+03  0.13865553990E+03  0.00000000000E+00 0. -1.
         -3    1    1    2    0  502 -0.41972120405E+02 -0.59256230932E+02 -0.41990897622E+02  0.83882031917E+02  0.00000000000E+00 0.  1.
<scales pt_clust_5="13000.00000" pt_clust_6="13000.00000" pt_clust_7="13000.00000" pt_clust_8="13000.00000" pt_clust_9="72.61518"></scales>
<clustering>
<clus scale="   72.615">  2  9  1 -1</clus>
<clus scale="   90.229">  7  8 -1 -1</clus>
<clus scale="   90.785">  5  6 -1 -1</clus>
<clus scale="  144.477">  1  7  2 -1</clus>
<clus scale="   72.615">  2  5  1 -1</clus>
</clustering>
</event>
<event>
 9    1  0.3231311E-005  0.9441380E+02  0.7546771E-02  0.1293554E+00
          1   -1    0    0  502    0 -0.00000000000E+00  0.00000000000E+00  0.11939813019E+03  0.11939813019E+03  0.00000000000E+00 0. -1.
         21   -1    0    0  501  502  0.00000000000E+00 -0.00000000000E+00 -0.13992465534E+03  0.13992465534E+03  0.00000000000E+00 0.  1.
         23    2    1    2    0    0 -0.22250151092E+02  0.15229203093E+02  0.30065681840E+02  0.99271006028E+02  0.90685112135E+02 0.  0.
         23    2    1    2    0    0 -0.11937942661E+01  0.70278412179E+01 -0.75165775172E+02  0.11944568576E+03  0.92555725881E+02 0.  0.
        -11    1    4    4    0    0 -0.11543668195E+02  0.32947290075E+02 -0.83345893418E+02  0.90362149976E+02  0.00000000000E+00 0.  1.
         11    1    4    4    0    0  0.10349873928E+02 -0.25919448857E+02  0.81801182463E+01  0.29083535787E+02  0.00000000000E+00 0. -1.
        -13    1    3    3    0    0 -0.23341787552E+01  0.49331552818E+02  0.33427861484E+02  0.59636167024E+02  0.00000000000E+00 0.  1.
         13    1    3    3    0    0 -0.19915972336E+02 -0.34102349726E+02 -0.33621796447E+01  0.39634839004E+02  0.00000000000E+00 0. -1.
          1    1    1    2  501    0  0.23443945358E+02 -0.22257044310E+02  0.24573568184E+02  0.40606093738E+02  0.00000000000E+00 0. -1.
<scales pt_clust_5="13000.00000" pt_clust_6="13000.00000" pt_clust_7="13000.00000" pt_clust_8="13000.00000" pt_clust_9="32.32639"></scales>
<clustering>
<clus scale="   32.326">  2  9  1 -1</clus>
<clus scale="   90.685">  7  8 -1 -1</clus>
<clus scale="   92.556">  5  6 -1 -1</clus>
<clus scale="   92.581">  1  7  2 -1</clus>
<clus scale="   32.326">  2  5  1 -1</clus>
</clustering>
</event>
<event>
 9    1  0.3231311E-005  0.9227704E+02  0.7546771E-02  0.1303960E+00
         21   -1    0    0  501  502  0.00000000000E+00  0.00000000000E+00  0.24604621543E+03  0.24604621543E+03  0.00000000000E+00 0. -1.
          1   -1    0    0  502    0 -0.00000000000E+00 -0.00000000000E+00 -0.58598945836E+02  0.58598945836E+02  0.00000000000E+00 0. -1.
         23    2    1    2    0    0  0.18526601373E+00  0.26384559882E+02  0.20201744825E+02  0.96783734651E+02  0.90899953110E+02 0.  0.
         23    2    1    2    0    0 -0.15045938191E+02  0.46645618938E+01  0.81511350226E+02  0.11547508442E+03  0.80263668689E+02 0.  0.
        -11    1    3    3    0    0 -0.34108881280E+02 -0.17189346318E+01 -0.17688253950E+02  0.38460952227E+02  0.00000000000E+00 0. -1.
         11    1    3    3    0    0  0.34294147294E+02  0.28103494514E+02  0.37889998775E+02  0.58322782424E+02  0.00000000000E+00 0.  1.
        -11    1    4    4    0    0 -0.46119243172E+02 -0.53478802042E+01  0.61948831054E+02  0.77416032463E+02  0.00000000000E+00 0. -1.
         11    1    4    4    0    0  0.31073304980E+02  0.10012442098E+02  0.19562519173E+02  0.38059051953E+02  0.00000000000E+00 0.  1.
          1    1    1    2  501    0  0.14860672178E+02 -0.31049121776E+02  0.85734174540E+02  0.92386342198E+02  0.00000000000E+00 0. -1.
<scales pt_clust_5="13000.00000" pt_clust_6="13000.00000" pt_clust_7="13000.00000" pt_clust_8="13000.00000" pt_clust_9="34.42220"></scales>
<clustering>
<clus scale="   34.422">  1  9  2 -1</clus>
<clus scale="   80.264">  7  8 -1 -1</clus>
<clus scale="   81.820">  1  7  2 -1</clus>
<clus scale="   90.900">  5  6 -1 -1</clus>
<clus scale="   34.422">  1  5  2 -1</clus>
</clustering>
</event>
<event>
 9    1  0.3231311E-005  0.9368969E+02  0.7546771E-02  0.1316476E+00
         21   -1    0    0  501  502  0.00000000000E+00  0.00000000000E+00  0.78380257282E+02  0.78380257282E+02  0.00000000000E+00 0.  1.
          2   -1    0    0  502    0 -0.00000000000E+00 -0.00000000000E+00 -0.12425836658E+03  0.12425836658E+03  0.00000000000E+00 0. -1.
         23    2    1    2    0    0  0.10962460066E+02  0.16836735522E+02 -0.35272633233E+02  0.99699221741E+02  0.91061105675E+02 0.  0.
         23    2    1    2    0    0  0.20557010501E+02 -0.26842925481E+02  0.23898539500E+01  0.67408015085E+02  0.58266592201E+02 0.  0.
        -11    1    4    4    0    0  0.72439910700E+01 -0.42259852660E+02 -0.93691945578E+01  0.43887952334E+02  0.00000000000E+00 0. -1.
         11    1    4    4    0    0  0.13313019431E+02  0.15416927179E+02  0.11759048508E+02  0.23520062751E+02  0.00000000000E+00 0.  1.
        -13    1    3    3    0    0 -0.22615549875E+02  0.44047716251E+02 -0.24052329058E+02  0.55047061104E+02  0.00000000000E+00 0. -1.
         13    1    3    3    0    0  0.33578009941E+02 -0.27210980728E+02 -0.11220304175E+02  0.44652160637E+02  0.00000000000E+00 0.  1.
          2    1    1    2  501    0 -0.31519470566E+02  0.10006189958E+02 -0.12995330012E+02  0.35531387031E+02  0.00000000000E+00 0. -1.
<scales pt_clust_5="13000.00000" pt_clust_6="13000.00000" pt_clust_7="13000.00000" pt_clust_8="13000.00000" pt_clust_9="33.06965"></scales>
<clustering>
<clus scale="   33.070">  1  9  2 -1</clus>
<clus scale="   58.267">  5  6 -1 -1</clus>
<clus scale="   62.295">  1  5  2 -1</clus>
<clus scale="   91.061">  7  8 -1 -1</clus>
<clus scale="   33.070">  1  5  2 -1</clus>
</clustering>
</event>
<event>
 9    1  0.3231311E-005  0.1250715E+03  0.7546771E-02  0.1235208E+00
         21   -1    0    0  501  502  0.00000000000E+00  0.00000000000E+00  0.32996824516E+03  0.32996824516E+03  0.00000000000E+00 0. -1.
          3   -1    0    0  502    0 -0.00000000000E+00 -0.00000000000E+00 -0.31242021694E+03  0.31242021694E+03  0.00000000000E+00 0. -1.
         23    2    1    2    0    0  0.93416646703E+02 -0.85193839689E+00 -0.26699320289E+03  0.29759303246E+03  0.92459974567E+02 0.  0.
         23    2    1    2    0    0 -0.23617790971E+02  0.23840370894E+02  0.75916627302E+02  0.12360642990E+03  0.91591767521E+02 0.  0.
        -11    1    4    4    0    0 -0.50006956085E+02  0.69970241004E+01  0.77230608435E+02  0.92272535905E+02  0.00000000000E+00 0. -1.
         11    1    4    4    0    0  0.26389165114E+02  0.16843346794E+02 -0.13139811332E+01  0.31333893997E+02  0.00000000000E+00 0.  1.
        -13    1    3    3    0    0  0.65567435859E+02 -0.28220379891E+02 -0.82869745231E+02  0.10937492016E+03  0.00000000000E+00 0.  1.
         13    1    3    3    0    0  0.27849210843E+02  0.27368441494E+02 -0.18412345766E+03  0.18821811229E+03  0.00000000000E+00 0. -1.
          3    1    1    2  501    0 -0.69798855732E+02 -0.22988432497E+02  0.20862460381E+03  0.22118899974E+03  0.00000000000E+00 0. -1.
<scales pt_clust_5="13000.00000" pt_clust_6="13000.00000" pt_clust_7="13000.00000" pt_clust_8="13000.00000" pt_clust_9="73.48706"></scales>
<clustering>
<clus scale="   73.487">  1  9  2 -1</clus>
<clus scale="   91.592">  5  6 -1 -1</clus>
<clus scale="   92.460">  7  8 -1 -1</clus>
<clus scale="  124.431">  1  5  2 -1</clus>
<clus scale="   73.487">  1  5  2 -1</clus>
</clustering>
</event>
<event>
 9    1  0.3231311E-005  0.1297799E+03  0.7546771E-02  0.1228240E+00
         21   -1    0    0  501  502  0.00000000000E+00  0.00000000000E+00  0.10983758322E+03  0.10983758322E+03  0.00000000000E+00 0. -1.
          1   -1    0    0  502    0 -0.00000000000E+00 -0.00000000000E+00 -0.24822533417E+03  0.24822533417E+03  0.00000000000E+00 0. -1.
         23    2    1    2    0    0 -0.79296739861E+02 -0.58746070706E+02 -0.14626066796E+03  0.19842193184E+03  0.90774480265E+02 0.  0.
         23    2    1    2    0    0  0.40276854021E+02  0.64133035217E+02  0.11420774545E+02  0.12009154596E+03  0.92500130511E+02 0.  0.
        -11    1    4    4    0    0 -0.22363489730E+02 -0.81751465087E+01  0.65242937921E+00  0.23819831180E+02  0.00000000000E+00 0.  1.
         11    1    4    4    0    0  0.62640343751E+02  0.72308181726E+02  0.10768345166E+02  0.96271714784E+02  0.00000000000E+00 0. -1.
        -13    1    3    3    0    0 -0.50576502433E+02 -0.69327771047E+02 -0.14412630095E+03  0.16774001628E+03  0.00000000000E+00 0. -1.
         13    1    3    3    0    0 -0.28720237428E+02  0.10581700341E+02 -0.21343670143E+01  0.30681915562E+02  0.00000000000E+00 0.  1.
          1    1    1    2  501    0  0.39019885840E+02 -0.53869645113E+01 -0.35478575300E+01  0.39549439575E+02  0.00000000000E+00 0. -1.
<scales pt_clust_5="13000.00000" pt_clust_6="13000.00000" pt_clust_7="13000.00000" pt_clust_8="13000.00000" pt_clust_9="39.38998"></scales>
<clustering>
<clus scale="   39.390">  1  9  2 -1</clus>
<clus scale="   90.774">  7  8 -1 -1</clus>
<clus scale="   92.500">  5  6 -1 -1</clus>
<clus scale="  128.556">  2  7  1 -1</clus>
<clus scale="   39.390">  1  5  2 -1</clus>
</clustering>
</event>
<event>
 9    1  0.3231311E-005  0.1699294E+03  0.7546771E-02  0.1179192E+00
         21   -1    0    0  501  502  0.00000000000E+00  0.00000000000E+00  0.49582809014E+03  0.49582809014E+03  0.00000000000E+00 0.  1.
          1   -1    0    0  502    0 -0.00000000000E+00 -0.00000000000E+00 -0.51693982136E+03  0.51693982136E+03  0.00000000000E+00 0. -1.
         23    2    1    2    0    0  0.97646315810E+02  0.10362231210E+03 -0.46328335941E+03  0.49290426300E+03  0.89725998557E+02 0.  0.
         23    2    1    2    0    0 -0.98163978955E+02 -0.15835854865E+03  0.26081298498E+03  0.33042426232E+03  0.80269441911E+02 0.  0.
        -13    1    3    3    0    0 -0.11299066205E+02  0.37551407201E+02 -0.81985637543E+02  0.90881361363E+02  0.00000000000E+00 0.  1.
         13    1    3    3    0    0  0.10894538201E+03  0.66070904903E+02 -0.38129772187E+03  0.40202290163E+03  0.00000000000E+00 0. -1.
        -13    1    4    4    0    0 -0.44366527906E+02 -0.67401715578E+02  0.18042636587E+03  0.19764881372E+03  0.00000000000E+00 0.  1.
         13    1    4    4    0    0 -0.53797451049E+02 -0.90956833073E+02  0.80386619104E+02  0.13277544861E+03  0.00000000000E+00 0. -1.
          1    1    1    2  501    0  0.51766314457E+00  0.54736236548E+02  0.18135864322E+03  0.18943938618E+03  0.00000000000E+00 0. -1.
<scales pt_clust_5="13000.00000" pt_clust_6="13000.00000" pt_clust_7="13000.00000" pt_clust_8="13000.00000" pt_clust_9="54.73868"></scales>
<clustering>
<clus scale="   54.739">  1  9  2 -1</clus>
<clus scale="   80.269">  7  8 -1 -1</clus>
<clus scale="   89.726">  5  6 -1 -1</clus>
<clus scale="  165.132">  1  7  2 -1</clus>
<clus scale="   54.739">  1  5  2 -1</clus>
</clustering>
</event>
<event>
 9    1  0.3231311E-005  0.9988241E+02  0.7546771E-02  0.1283530E+00
          1   -1    0    0  502    0 -0.00000000000E+00  0.00000000000E+00  0.54054702745E+03  0.54054702745E+03  0.00000000000E+00 0. -1.
         21   -1    0    0  501  502  0.00000000000E+00 -0.00000000000E+00 -0.10679849726E+03  0.10679849726E+03  0.00000000000E+00 0. -1.
         23    2    1    2    0    0 -0.14041346418E+02 -0.17562584891E+01  0.26414035958E+03  0.28155827654E+03  0.96460819360E+02 0.  0.
         23    2    1    2    0    0 -0.13854844397E+02  0.57464194846E+02  0.24506685919E+03  0.26793232844E+03  0.90751731388E+02 0.  0.
        -11    1    3    3    0    0  0.37311867488E+02 -0.93970206193E+01  0.62958773661E+02  0.73785409349E+02  0.00000000000E+00 0.  1.
         11    1    3    3    0    0 -0.51353213906E+02  0.76407621303E+01  0.20118158592E+03  0.20777286719E+03  0.00000000000E+00 0. -1.
        -13    1    4    4    0    0  0.17026311933E+02  0.70002731717E+02  0.19406188122E+03  0.20700311951E+03  0.00000000000E+00 0.  1.
         13    1    4    4    0    0 -0.30881156330E+02 -0.12538536871E+02  0.51004977968E+02  0.60929208928E+02  0.00000000000E+00 0. -1.
          1    1    1    2  501    0  0.27896190814E+02 -0.55707936357E+02 -0.75458688578E+02  0.97854919739E+02  0.00000000000E+00 0. -1.
<scales pt_clust_5="13000.00000" pt_clust_6="13000.00000" pt_clust_7="13000.00000" pt_clust_8="13000.00000" pt_clust_9="62.30226"></scales>
<clustering>
<clus scale="   62.302">  2  9  1 -1</clus>
<clus scale="   90.752">  7  8 -1 -1</clus>
<clus scale="   94.381">  2  7  1 -1</clus>
<clus scale="   96.461">  5  6 -1 -1</clus>
<clus scale="   62.302">  2  5  1 -1</clus>
</clustering>
</event>
<event>
 9    1  0.3231311E-005  0.1006953E+03  0.7546771E-02  0.1283683E+00
          1   -1    0    0  502    0 -0.00000000000E+00  0.00000000000E+00  0.45390452134E+03  0.45390452134E+03  0.00000000000E+00 0. -1.
         21   -1    0    0  501  502  0.00000000000E+00 -0.00000000000E+00 -0.53723393987E+02  0.53723393987E+02  0.00000000000E+00 0. -1.
         23    2    1    2    0    0 -0.17418663461E+02  0.15448459526E+02  0.27142688267E+03  0.28717084499E+03  0.90843144142E+02 0.  0.
         23    2    1    2    0    0 -0.18666575453E+01  0.53220504934E+01  0.15327529684E+03  0.18297881408E+03  0.99780364545E+02 0.  0.
        -13    1    3    3    0    0 -0.37052759273E+02  0.40143737759E+02  0.11152590765E+03  0.12418717618E+03  0.00000000000E+00 0. -1.
         13    1    3    3    0    0  0.19634095812E+02 -0.24695278233E+02  0.15990097502E+03  0.16298366881E+03  0.00000000000E+00 0.  1.
        -13    1    4    4    0    0  0.18607149783E+02  0.35118611137E+02  0.19244070789E+02  0.44157413101E+02  0.00000000000E+00 0.  1.
         13    1    4    4    0    0 -0.20473807328E+02 -0.29796560644E+02  0.13403122605E+03  0.13882140098E+03  0.00000000000E+00 0. -1.
          1    1    1    2  501    0  0.19285321006E+02 -0.20770510020E+02 -0.24521052161E+02  0.37478256254E+02  0.00000000000E+00 0. -1.
<scales pt_clust_5="13000.00000" pt_clust_6="13000.00000" pt_clust_7="13000.00000" pt_clust_8="13000.00000" pt_clust_9="28.34321"></scales>
<clustering>
<clus scale="   28.343">  2  9  1 -1</clus>
<clus scale="   90.843">  5  6 -1 -1</clus>
<clus scale="   91.847">  1  5  2 -1</clus>
<clus scale="   99.780">  7  8 -1 -1</clus>
<clus scale="   28.343">  2  5  1 -1</clus>
</clustering>
</event>
<event>
 9    1  0.3231311E-005  0.1146262E+03  0.7546771E-02  0.1252460E+00
         21   -1    0    0  501  502  0.00000000000E+00  0.00000000000E+00  0.26818742131E+03  0.26818742131E+03  0.00000000000E+00 0. -1.
          3   -1    0    0  502    0 -0.00000000000E+00 -0.00000000000E+00 -0.14484510901E+03  0.14484510901E+03  0.00000000000E+00 0. -1.
         23    2    1    2    0    0 -0.65849322617E+02 -0.38879797299E+02 -0.71825835716E+02  0.13870230655E+03  0.90728205311E+02 0.  0.
         23    2    1    2    0    0  0.48088645998E+02  0.23690556023E+02  0.33682713810E+02  0.11116251819E+03  0.91371877087E+02 0.  0.
        -11    1    3    3    0    0 -0.84857406670E+01 -0.45416953938E+02  0.44059884847E+00  0.46204995694E+02  0.00000000000E+00 0.  1.
         11    1    3    3    0    0 -0.57363581950E+02  0.65371566396E+01 -0.72266434565E+02  0.92497310857E+02  0.00000000000E+00 0. -1.
        -13    1    4    4    0    0  0.31856690095E+02  0.42958365518E+02 -0.15688188434E+02  0.55734990160E+02  0.00000000000E+00 0. -1.
         13    1    4    4    0    0  0.16231955903E+02 -0.19267809495E+02  0.49370902245E+02  0.55427528031E+02  0.00000000000E+00 0.  1.
          3    1    1    2  501    0  0.17760676620E+02  0.15189241276E+02  0.16148543420E+03  0.16316770558E+03  0.00000000000E+00 0. -1.
<scales pt_clust_5="13000.00000" pt_clust_6="13000.00000" pt_clust_7="13000.00000" pt_clust_8="13000.00000" pt_clust_9="23.36995"></scales>
<clustering>
<clus scale="   23.370">  1  9  2 -1</clus>
<clus scale="   90.728">  5  6 -1 -1</clus>
<clus scale="   91.372">  7  8 -1 -1</clus>
<clus scale="  114.114">  2  5  1 -1</clus>
<clus scale="   23.370">  1  5  2 -1</clus>
</clustering>
</event>
<event>
 9    1  0.3231311E-005  0.1664579E+03  0.7546771E-02  0.1209722E+00
         -3   -1    0    0    0  501 -0.00000000000E+00  0.00000000000E+00  0.93650799310E+02  0.93650799310E+02  0.00000000000E+00 0.  1.
         21   -1    0    0  501  502  0.00000000000E+00 -0.00000000000E+00 -0.43173169327E+03  0.43173169327E+03  0.00000000000E+00 0.  1.
         23    2    1    2    0    0 -0.11743438469E+01 -0.27512898008E+02 -0.48857971062E+02  0.10235593049E+03  0.85622990663E+02 0.  0.
         23    2    1    2    0    0 -0.20759426899E+02 -0.12235789718E+03 -0.16450712648E+03  0.22682162988E+03  0.94778944441E+02 0.  0.
        -11    1    4    4    0    0  0.20566459654E+02 -0.10955230739E+03 -0.10408376664E+03  0.15250612380E+03  0.00000000000E+00 0.  1.
         11    1    4    4    0    0 -0.41325886553E+02 -0.12805589786E+02 -0.60423359843E+02  0.74315506079E+02  0.00000000000E+00 0. -1.
        -11    1    3    3    0    0 -0.27278574578E+02 -0.69497577576E+01  0.13860976709E+02  0.31377482997E+02  0.00000000000E+00 0. -1.
         11    1    3    3    0    0  0.26104230731E+02 -0.20563140251E+02 -0.62718947771E+02  0.70978447493E+02  0.00000000000E+00 0.  1.
         -3    1    1    2    0  502  0.21933770746E+02  0.14987079519E+03 -0.12471579642E+03  0.19620493222E+03  0.00000000000E+00 0.  1.
<scales pt_clust_5="13000.00000" pt_clust_6="13000.00000" pt_clust_7="13000.00000" pt_clust_8="13000.00000" pt_clust_9="136.84007"></scales>
<clustering>
<clus scale="   85.623">  7  8 -1 -1</clus>
<clus scale="   89.942">  1  7  2 -1</clus>
<clus scale="   94.779">  5  6 -1 -1</clus>
<clus scale="  136.840">  2  9  1 -1</clus>
<clus scale="  136.840">  2  5  1 -1</clus>
</clustering>
</event>
<event>
 9    1  0.3231311E-005  0.1030651E+03  0.7546771E-02  0.1276165E+00
         21   -1    0    0  501  502  0.00000000000E+00  0.00000000000E+00  0.46492458592E+02  0.46492458592E+02  0.00000000000E+00 0. -1.
         -3   -1    0    0    0  501 -0.00000000000E+00 -0.00000000000E+00 -0.58590720154E+03  0.58590720154E+03  0.00000000000E+00 0.  1.
         23    2    1    2    0    0  0.44480670741E+01 -0.38843515279E+02 -0.23179337685E+03  0.25062694907E+03  0.86931548163E+02 0.  0.
         23    2    1    2    0    0 -0.90667285494E+02  0.37207670906E+02 -0.14425140520E+03  0.19704000218E+03  0.91713287594E+02 0.  0.
        -13    1    4    4    0    0 -0.76898426878E+02  0.51388291195E+01 -0.14260839705E+03  0.16210160558E+03  0.00000000000E+00 0. -1.
         13    1    4    4    0    0 -0.13768858616E+02  0.32068841787E+02 -0.16430081520E+01  0.34938396599E+02  0.00000000000E+00 0.  1.
        -13    1    3    3    0    0  0.17013304071E+02  0.17830963847E+02 -0.22291247921E+02  0.33230942222E+02  0.00000000000E+00 0. -1.
         13    1    3    3    0    0 -0.12565236997E+02 -0.56674479126E+02 -0.20950212893E+03  0.21739600684E+03  0.00000000000E+00 0.  1.
         -3    1    1    2    0  502  0.86219218420E+02  0.16358443724E+01 -0.16336996090E+03  0.18473270889E+03  0.00000000000E+00 0.  1.
<scales pt_clust_5="13000.00000" pt_clust_6="13000.00000" pt_clust_7="13000.00000" pt_clust_8="13000.00000" pt_clust_9="86.23478"></scales>
<clustering>
<clus scale="   86.235">  1  9  2 -1</clus>
<clus scale="   86.932">  7  8 -1 -1</clus>
<clus scale="   91.713">  5  6 -1 -1</clus>
<clus scale="   98.834">  2  7  1 -1</clus>
<clus scale="   86.235">  1  5  2 -1</clus>
</clustering>
</event>
<event>
 9    1  0.3231311E-005  0.9228268E+02  0.7546771E-02  0.1298713E+00
         21   -1    0    0  501  502  0.00000000000E+00  0.00000000000E+00  0.21618842426E+02  0.21618842426E+02  0.00000000000E+00 0. -1.
         -1   -1    0    0    0  501 -0.00000000000E+00 -0.00000000000E+00 -0.62320554742E+03  0.62320554742E+03  0.00000000000E+00 0.  1.
         23    2    1    2    0    0  0.26501951096E+02 -0.78459930329E+01 -0.26627082479E+03  0.28291678608E+03  0.91530556075E+02 0.  0.
         23    2    1    2    0    0  0.15132782301E+02  0.96455767151E+01 -0.18969444465E+03  0.21044047195E+03  0.89326209218E+02 0.  0.
        -13    1    4    4    0    0 -0.28074054889E+02  0.19273484193E+02 -0.13913153135E+03  0.14323827270E+03  0.00000000000E+00 0.  1.
         13    1    4    4    0    0  0.43206837190E+02 -0.96279074778E+01 -0.50562913297E+02  0.67202199245E+02  0.00000000000E+00 0. -1.
        -13    1    3    3    0    0 -0.34285378959E+02 -0.55839693478E+01 -0.92599834029E+02  0.98900946337E+02  0.00000000000E+00 0.  1.
         13    1    3    3    0    0  0.60787330055E+02 -0.22620236850E+01 -0.17367099076E+03  0.18401583974E+03  0.00000000000E+00 0. -1.
         -1    1    1    2    0  502 -0.41634733397E+02 -0.17995836822E+01 -0.14562143556E+03  0.15146713182E+03  0.00000000000E+00 0.  1.
<scales pt_clust_5="13000.00000" pt_clust_6="13000.00000" pt_clust_7="13000.00000" pt_clust_8="13000.00000" pt_clust_9="41.67363"></scales>
<clustering>
<clus scale="   41.674">  1  9  2 -1</clus>
<clus scale="   89.326">  5  6 -1 -1</clus>
<clus scale="   90.097">  1  5  2 -1</clus>
<clus scale="   91.531">  7  8 -1 -1</clus>
<clus scale="   41.674">  1  5  2 -1</clus>
</clustering>
</event>
<event>
 9    1  0.3231311E-005  0.1163457E+03  0.7546771E-02  0.1251055E+00
         21   -1    0    0  501  502  0.00000000000E+00  0.00000000000E+00  0.43961660469E+03  0.43961660469E+03  0.00000000000E+00 0.  1.
         -3   -1    0    0    0  501 -0.00000000000E+00 -0.00000000000E+00 -0.93946925766E+02  0.93946925766E+02  0.00000000000E+00 0.  1.
         23    2    1    2    0    0 -0.11008720678E+01  0.60574106217E+02  0.98591289942E+01  0.11105340507E+03  0.92548485075E+02 0.  0.
         23    2    1    2    0    0 -0.28016407366E+02 -0.83519503003E+02  0.49074818788E+02  0.13338785591E+03  0.87312976130E+02 0.  0.
        -13    1    3    3    0    0 -0.31566608832E+02  0.31494133693E+01 -0.22054418166E+02  0.38636342456E+02  0.00000000000E+00 0.  1.
         13    1    3    3    0    0  0.30465736764E+02  0.57424692848E+02  0.31913547160E+02  0.72417062614E+02  0.00000000000E+00 0. -1.
        -13    1    4    4    0    0 -0.55065329600E+02 -0.50183778291E+02  0.96913560377E+01  0.75130050642E+02  0.00000000000E+00 0.  1.
         13    1    4    4    0    0  0.27048922234E+02 -0.33335724712E+02  0.39383462750E+02  0.58257805265E+02  0.00000000000E+00 0. -1.
         -3    1    1    2    0  502  0.29117279434E+02  0.22945396786E+02  0.28673573115E+03  0.28912226948E+03  0.00000000000E+00 0.  1.
<scales pt_clust_5="13000.00000" pt_clust_6="13000.00000" pt_clust_7="13000.00000" pt_clust_8="13000.00000" pt_clust_9="37.07165"></scales>
<clustering>
<clus scale="   37.072">  1  9  2 -1</clus>
<clus scale="   87.313">  7  8 -1 -1</clus>
<clus scale="   92.548">  5  6 -1 -1</clus>
<clus scale="  112.226">  1  7  2 -1</clus>
<clus scale="   37.072">  1  5  2 -1</clus>
</clustering>
</event>
<event>
 9    1  0.3231311E-005  0.1318558E+03  0.7546771E-02  0.1226570E+00
          2   -1    0    0  502    0 -0.00000000000E+00  0.00000000000E+00  0.26827994942E+03  0.26827994942E+03  0.00000000000E+00 0. -1.
         21   -1    0    0  501  502  0.00000000000E+00 -0.00000000000E+00 -0.93347760710E+02  0.93347760710E+02  0.00000000000E+00 0. -1.
         23    2    1    2    0    0  0.41888783661E+02  0.67776768818E+02  0.10791760072E+03  0.15971044102E+03  0.86676731819E+02 0.  0.
         23    2    1    2    0    0 -0.64132949156E+02 -0.98038521163E+02  0.67038713159E+02  0.16435961828E+03  0.93783304801E+02 0.  0.
        -13    1    4    4    0    0 -0.80992888718E+02 -0.67865789447E+02  0.74128646395E+02  0.12907621631E+03  0.00000000000E+00 0. -1.
         13    1    4    4    0    0  0.16859939563E+02 -0.30172731717E+02 -0.70899332354E+01  0.35283401970E+02  0.00000000000E+00 0.  1.
        -13    1    3    3    0    0  0.61048566634E+02  0.55391888067E+02  0.10924666641E+03  0.13685767379E+03  0.00000000000E+00 0. -1.
         13    1    3    3    0    0 -0.19159782973E+02  0.12384880752E+02 -0.13290656935E+01  0.22852767238E+02  0.00000000000E+00 0.  1.
          2    1    1    2  501    0  0.22244165495E+02  0.30261752345E+02 -0.24125170161E-01  0.37557650826E+02  0.00000000000E+00 0. -1.
<scales pt_clust_5="13000.00000" pt_clust_6="13000.00000" pt_clust_7="13000.00000" pt_clust_8="13000.00000" pt_clust_9="37.55764"></scales>
<clustering>
<clus scale="   37.558">  2  9  1 -1</clus>
<clus scale="   86.677">  7  8 -1 -1</clus>
<clus scale="   93.783">  5  6 -1 -1</clus>
<clus scale="  126.900">  1  7  2 -1</clus>
<clus scale="   37.558">  2  5  1 -1</clus>
</clustering>
</event>
<event>
 9    1  0.3231311E-005  0.1358236E+03  0.7546771E-02  0.1219144E+00
         21   -1    0    0  501  502  0.00000000000E+00  0.00000000000E+00  0.11557741786E+03  0.11557741786E+03  0.00000000000E+00 0. -1.
          2   -1    0    0  502    0 -0.00000000000E+00 -0.00000000000E+00 -0.67667984016E+03  0.67667984016E+03  0.00000000000E+00 0.  1.
         23    2    1    2    0    0  0.64648089221E+02 -0.40277055452E+02 -0.27552038984E+03  0.30004158367E+03  0.91169348350E+02 0.  0.
         23    2    1    2    0    0 -0.14447805572E+03  0.22672430840E+02 -0.34873747587E+03  0.38891341692E+03  0.90817790561E+02 0.  0.
        -11    1    3    3    0    0  0.57470935926E+02 -0.61026856345E+02 -0.14336223148E+03  0.16607201777E+03  0.00000000000E+00 0.  1.
         11    1    3    3    0    0  0.71771532948E+01  0.20749800893E+02 -0.13215815836E+03  0.13396956590E+03  0.00000000000E+00 0. -1.
        -13    1    4    4    0    0 -0.75725832445E+02  0.17948515606E+02 -0.28360965171E+03  0.29409349782E+03  0.00000000000E+00 0.  1.
         13    1    4    4    0    0 -0.68752223275E+02  0.47239152341E+01 -0.65127824154E+02  0.94819919106E+02  0.00000000000E+00 0. -1.
          2    1    1    2  501    0  0.79829966498E+02  0.17604624612E+02  0.63155443409E+02  0.10330225743E+03  0.00000000000E+00 0.  1.
<scales pt_clust_5="13000.00000" pt_clust_6="13000.00000" pt_clust_7="13000.00000" pt_clust_8="13000.00000" pt_clust_9="81.74807"></scales>
<clustering>
<clus scale="   81.748">  1  9  2 -1</clus>
<clus scale="   90.818">  7  8 -1 -1</clus>
<clus scale="   91.169">  5  6 -1 -1</clus>
<clus scale="  135.588">  1  7  2 -1</clus>
<clus scale="   81.748">  1  5  2 -1</clus>
</clustering>
</event>
<event>
 9    1  0.3325947E-005  0.9695493E+02  0.7546771E-02  0.1287562E+00
          2   -1    0    0  502    0 -0.00000000000E+00  0.00000000000E+00  0.95214261853E+03  0.95214261853E+03  0.00000000000E+00 0. -1.
         21   -1    0    0  501  502  0.00000000000E+00 -0.00000000000E+00 -0.17006893384E+03  0.17006893384E+03  0.00000000000E+00 0. -1.
         23    2    1    2    0    0 -0.22872771058E+02 -0.18876985449E+02  0.53503932905E+03  0.54351443054E+03  0.90891959763E+02 0.  0.
         23    2    1    2    0    0  0.45905653650E+02 -0.31549784465E+01  0.40512107783E+03  0.41742923028E+03  0.89480677587E+02 0.  0.
        -11    1    4    4    0    0  0.33121504285E+02  0.38854356270E+02  0.14734692294E+03  0.15594169022E+03  0.00000000000E+00 0.  1.
         11    1    4    4    0    0  0.12784149365E+02 -0.42009334717E+02  0.25777415489E+03  0.26148754006E+03  0.00000000000E+00 0. -1.
        -11    1    3    3    0    0 -0.24820825697E+02 -0.54477612453E+02  0.34650461467E+03  0.35163806909E+03  0.00000000000E+00 0. -1.
         11    1    3    3    0    0  0.19480546394E+01  0.35600627004E+02  0.18853471438E+03  0.19187636146E+03  0.00000000000E+00 0.  1.
          2    1    1    2  501    0 -0.23032882592E+02  0.22031963895E+02 -0.15808672218E+03  0.16126789155E+03  0.00000000000E+00 0. -1.
<scales pt_clust_5="13000.00000" pt_clust_6="13000.00000" pt_clust_7="13000.00000" pt_clust_8="13000.00000" pt_clust_9="31.87352"></scales>
<clustering>
<clus scale="   31.874">  2  9  1 -1</clus>
<clus scale="   89.481">  5  6 -1 -1</clus>
<clus scale="   90.892">  7  8 -1 -1</clus>
<clus scale="   95.633">  2  5  1 -1</clus>
<clus scale="   31.874">  2  5  1 -1</clus>
</clustering>
</event>
<event>
 9    1  0.3231311E-005  0.1132390E+03  0.7546771E-02  0.1259158E+00
          4   -1    0    0  502    0 -0.00000000000E+00  0.00000000000E+00  0.36003426696E+03  0.36003426696E+03  0.00000000000E+00 0. -1.
         21   -1    0    0  501  502  0.00000000000E+00 -0.00000000000E+00 -0.10813997497E+03  0.10813997497E+03  0.00000000000E+00 0. -1.
         23    2    1    2    0    0  0.47114830158E+02  0.21265624771E+02  0.22600177650E+03  0.24687899053E+03  0.84855164638E+02 0.  0.
         23    2    1    2    0    0 -0.75288767875E+02 -0.85145450113E+02  0.27320547638E+02  0.15146372465E+03  0.96315633824E+02 0.  0.
        -11    1    3    3    0    0  0.17679730436E+02 -0.24506096952E+02  0.15226882904E+03  0.15523826189E+03  0.00000000000E+00 0.  1.
         11    1    3    3    0    0  0.29435099723E+02  0.45771721723E+02  0.73732947462E+02  0.91640728645E+02  0.00000000000E+00 0. -1.
        -13    1    4    4    0    0 -0.97028444713E+02 -0.56396181194E+02  0.14274426476E+02  0.11313181510E+03  0.00000000000E+00 0. -1.
         13    1    4    4    0    0  0.21739676839E+02 -0.28749268919E+02  0.13046121163E+02  0.38331909551E+02  0.00000000000E+00 0.  1.
          4    1    1    2  501    0  0.28173937716E+02  0.63879825342E+02 -0.14280321553E+01  0.69831526749E+02  0.00000000000E+00 0. -1.
<scales pt_clust_5="13000.00000" pt_clust_6="13000.00000" pt_clust_7="13000.00000" pt_clust_8="13000.00000" pt_clust_9="69.81692"></scales>
<clustering>
<clus scale="   69.817">  2  9  1 -1</clus>
<clus scale="   84.855">  5  6 -1 -1</clus>
<clus scale="   96.316">  7  8 -1 -1</clus>
<clus scale="  103.667">  1  5  2 -1</clus>
<clus scale="   69.817">  2  5  1 -1</clus>
</clustering>
</event>
<event>
 9    1  0.3231311E-005  0.9597739E+02  0.7546771E-02  0.1289492E+00
          2   -1    0    0  502    0 -0.00000000000E+00  0.00000000000E+00  0.18737326310E+03  0.18737326310E+03  0.00000000000E+00 0. -1.
         21   -1    0    0  501  502  0.00000000000E+00 -0.00000000000E+00 -0.12311520018E+03  0.12311520018E+03  0.00000000000E+00 0.  1.
         23    2    1    2    0    0  0.15784819545E+02  0.25012812794E+02  0.12876407941E+03  0.16089481710E+03  0.91826753678E+02 0.  0.
         23    2    1    2    0    0 -0.36832842838E+02  0.31253760026E+01 -0.36593834590E+02  0.10471751832E+03  0.90885772408E+02 0.  0.
        -11    1    4    4    0    0  0.13438207362E+02 -0.33160419277E+02 -0.92465136344E+01  0.36955335719E+02  0.00000000000E+00 0.  1.
         11    1    4    4    0    0 -0.50271050200E+02  0.36285795279E+02 -0.27347320956E+02  0.67762182600E+02  0.00000000000E+00 0. -1.
        -13    1    3    3    0    0  0.38633285583E+02 -0.21663377405E+02  0.53963128026E+02  0.69812977747E+02  0.00000000000E+00 0.  1.
         13    1    3    3    0    0 -0.22848466038E+02  0.46676190199E+02  0.74800951385E+02  0.91081839353E+02  0.00000000000E+00 0. -1.
          2    1    1    2  501    0  0.21048023292E+02 -0.28138188797E+02 -0.27912181899E+02  0.44876127859E+02  0.00000000000E+00 0. -1.
<scales pt_clust_5="13000.00000" pt_clust_6="13000.00000" pt_clust_7="13000.00000" pt_clust_8="13000.00000" pt_clust_9="35.13939"></scales>
<clustering>
<clus scale="   35.139">  2  9  1 -1</clus>
<clus scale="   90.886">  5  6 -1 -1</clus>
<clus scale="   91.827">  7  8 -1 -1</clus>
<clus scale="   95.077">  2  5  1 -1</clus>
<clus scale="   35.139">  2  5  1 -1</clus>
</clustering>
</event>
<event>
 9    1  0.3231311E-005  0.1006596E+03  0.7546771E-02  0.1280083E+00
         21   -1    0    0  501  502  0.00000000000E+00  0.00000000000E+00  0.19141558887E+03  0.19141558887E+03  0.00000000000E+00 0.  1.
          3   -1    0    0  502    0 -0.00000000000E+00 -0.00000000000E+00 -0.11878532553E+03  0.11878532553E+03  0.00000000000E+00 0. -1.
         23    2    1    2    0    0 -0.28825510348E+02  0.14775826657E+02 -0.63324030010E+02  0.11636107985E+03  0.92090895458E+02 0.  0.
         23    2    1    2    0    0  0.49907310761E+02  0.25399525537E+01  0.86997689752E+02  0.13779496365E+03  0.94454554985E+02 0.  0.
        -13    1    3    3    0    0  0.31013944273E+02  0.20396290552E+02 -0.19131043338E+02  0.41759672255E+02  0.00000000000E+00 0.  1.
         13    1    3    3    0    0 -0.59839454621E+02 -0.56204638944E+01 -0.44192986672E+02  0.74601407592E+02  0.00000000000E+00 0. -1.
        -13    1    4    4    0    0  0.24257083161E+02 -0.40815586384E+02  0.70091141099E+02  0.84658645370E+02  0.00000000000E+00 0.  1.
         13    1    4    4    0    0  0.25650227601E+02  0.43355538937E+02  0.16906548653E+02  0.53136318276E+02  0.00000000000E+00 0. -1.
          3    1    1    2  501    0 -0.21081800413E+02 -0.17315779211E+02  0.48956603605E+02  0.56044870906E+02  0.00000000000E+00 0. -1.
<scales pt_clust_5="13000.00000" pt_clust_6="13000.00000" pt_clust_7="13000.00000" pt_clust_8="13000.00000" pt_clust_9="27.28147"></scales>
<clustering>
<clus scale="   27.281">  1  9  2 -1</clus>
<clus scale="   92.091">  5  6 -1 -1</clus>
<clus scale="   94.455">  7  8 -1 -1</clus>
<clus scale="   98.445">  2  5  1 -1</clus>
<clus scale="   27.281">  1  5  2 -1</clus>
</clustering>
</event>
<event>
 9    1  0.3231311E-005  0.1612364E+03  0.7546771E-02  0.1187463E+00
         -4   -1    0    0    0  501 -0.00000000000E+00  0.00000000000E+00  0.36741344566E+03  0.36741344566E+03  0.00000000000E+00 0.  1.
         21   -1    0    0  501  502  0.00000000000E+00 -0.00000000000E+00 -0.21607178100E+03  0.21607178100E+03  0.00000000000E+00 0. -1.
         23    2    1    2    0    0  0.12473535345E+03  0.31021813971E+02  0.20631901467E+03  0.25972931154E+03  0.91490535656E+02 0.  0.
         23    2    1    2    0    0 -0.14938552413E+03  0.29339936587E+02  0.63806162527E+02  0.18825427419E+03  0.90507340465E+02 0.  0.
        -13    1    3    3    0    0  0.32018283506E+02  0.40261265033E+02  0.12820984858E+03  0.13814450845E+03  0.00000000000E+00 0.  1.
         13    1    3    3    0    0  0.92717069946E+02 -0.92394510617E+01  0.78109166082E+02  0.12158480309E+03  0.00000000000E+00 0. -1.
        -13    1    4    4    0    0 -0.81582093144E+02  0.17723700295E+01 -0.12461052120E+02  0.82547301816E+02  0.00000000000E+00 0. -1.
         13    1    4    4    0    0 -0.67803430984E+02  0.27567566558E+02  0.76267214648E+02  0.10570697238E+03  0.00000000000E+00 0.  1.
         -4    1    1    2    0  502  0.24650170676E+02 -0.60361750558E+02 -0.11878351254E+03  0.13550164093E+03  0.00000000000E+00 0.  1.
<scales pt_clust_5="13000.00000" pt_clust_6="13000.00000" pt_clust_7="13000.00000" pt_clust_8="13000.00000" pt_clust_9="65.20101"></scales>
<clustering>
<clus scale="   65.201">  2  9  1 -1</clus>
<clus scale="   90.507">  7  8 -1 -1</clus>
<clus scale="   91.491">  5  6 -1 -1</clus>
<clus scale="  160.681">  2  7  1 -1</clus>
<clus scale="   65.201">  2  5  1 -1</clus>
</clustering>
</event>
<event>
 9    1  0.3231311E-005  0.1202120E+03  0.7546771E-02  0.1244417E+00
          2   -1    0    0  502    0 -0.00000000000E+00  0.00000000000E+00  0.16959366366E+03  0.16959366366E+03  0.00000000000E+00 0. -1.
         21   -1    0    0  501  502  0.00000000000E+00 -0.00000000000E+00 -0.22260004119E+03  0.22260004119E+03  0.00000000000E+00 0.  1.
         23    2    1    2    0    0 -0.79309074018E+02 -0.32507033827E+01  0.37787762087E+02  0.13138134433E+03  0.97635272218E+02 0.  0.
         23    2    1    2    0    0  0.28024172059E+02  0.80680138589E+02 -0.10845257049E+03  0.16627517848E+03  0.92686762543E+02 0.  0.
        -11    1    4    4    0    0 -0.20181827894E+02  0.70702328782E+02 -0.82907447899E+02  0.11081412541E+03  0.00000000000E+00 0. -1.
         11    1    4    4    0    0  0.48205999953E+02  0.99778098071E+01 -0.25545122591E+02  0.55461053076E+02  0.00000000000E+00 0.  1.
        -13    1    3    3    0    0 -0.35052198998E+02  0.17169611798E+02  0.64806544506E+02  0.75652762241E+02  0.00000000000E+00 0. -1.
         13    1    3    3    0    0 -0.44256875020E+02 -0.20420315180E+02 -0.27018782419E+02  0.55728582092E+02  0.00000000000E+00 0.  1.
          2    1    1    2  501    0  0.51284901959E+02 -0.77429435206E+02  0.17658430873E+02  0.94537182030E+02  0.00000000000E+00 0. -1.
<scales pt_clust_5="13000.00000" pt_clust_6="13000.00000" pt_clust_7="13000.00000" pt_clust_8="13000.00000" pt_clust_9="92.87339"></scales>
<clustering>
<clus scale="   92.687">  5  6 -1 -1</clus>
<clus scale="   92.873">  2  9  1 -1</clus>
<clus scale="   97.635">  7  8 -1 -1</clus>
<clus scale="  116.229">  2  5  1 -1</clus>
<clus scale="   92.873">  2  5  1 -1</clus>
</clustering>
</event>
<event>
 9    1  0.3231311E-005  0.9857500E+02  0.7546771E-02  0.1284896E+00
         21   -1    0    0  501  502  0.00000000000E+00  0.00000000000E+00  0.35921568250E+02  0.35921568250E+02  0.00000000000E+00 0.  1.
          3   -1    0    0  502    0 -0.00000000000E+00 -0.00000000000E+00 -0.41116415365E+03  0.41116415365E+03  0.00000000000E+00 0. -1.
         23    2    1    2    0    0 -0.45684367861E+02 -0.94096009941E+01 -0.24859708274E+03  0.26741489982E+03  0.86802171867E+02 0.  0.
         23    2    1    2    0    0  0.25887307722E+02  0.17241913866E+02 -0.12657254908E+03  0.15838058870E+03  0.89979799969E+02 0.  0.
        -11    1    3    3    0    0 -0.11420014144E+02 -0.36029310236E+02 -0.42826826827E+02  0.57119742780E+02  0.00000000000E+00 0.  1.
         11    1    3    3    0    0 -0.34264353717E+02  0.26619709242E+02 -0.20577025591E+03  0.21029515704E+03  0.00000000000E+00 0. -1.
        -13    1    4    4    0    0  0.59521964987E+02  0.12985087608E+02 -0.87945501406E+02  0.10698545711E+03  0.00000000000E+00 0.  1.
         13    1    4    4    0    0 -0.33634657265E+02  0.42568262576E+01 -0.38627047669E+02  0.51395131586E+02  0.00000000000E+00 0. -1.
          3    1    1    2  501    0  0.19797060139E+02 -0.78323128720E+01 -0.72953581919E-01  0.21290233378E+02  0.00000000000E+00 0. -1.
<scales pt_clust_5="13000.00000" pt_clust_6="13000.00000" pt_clust_7="13000.00000" pt_clust_8="13000.00000" pt_clust_9="21.29011"></scales>
<clustering>
<clus scale="   21.290">  1  9  2 -1</clus>
<clus scale="   86.802">  5  6 -1 -1</clus>
<clus scale="   89.980">  7  8 -1 -1</clus>
<clus scale="   95.683">  2  5  1 -1</clus>
<clus scale="   21.290">  1  5  2 -1</clus>
</clustering>
</event>
<event>
 9    1  0.3231311E-005  0.9547954E+02  0.7546771E-02  0.1291037E+00
         21   -1    0    0  501  502  0.00000000000E+00  0.00000000000E+00  0.21972379326E+03  0.21972379326E+03  0.00000000000E+00 0. -1.
          3   -1    0    0  502    0 -0.00000000000E+00 -0.00000000000E+00 -0.25921146963E+03  0.25921146963E+03  0.00000000000E+00 0. -1.
         23    2    1    2    0    0 -0.99669283448E+01  0.20008271386E+02 -0.22108766079E+03  0.24061268536E+03  0.92276974469E+02 0.  0.
         23    2    1    2    0    0  0.57552297705E+01 -0.63099146468E+02  0.13897751825E+03  0.17756703011E+03  0.90557576431E+02 0.  0.
        -13    1    3    3    0    0 -0.58331150994E+01 -0.31452642330E+02 -0.34647314510E+02  0.47156445414E+02  0.00000000000E+00 0.  1.
         13    1    3    3    0    0 -0.41338132454E+01  0.51460913716E+02 -0.18644034628E+03  0.19345623994E+03  0.00000000000E+00 0. -1.
        -13    1    4    4    0    0 -0.97517179652E+01 -0.82161774480E+02  0.12306167371E+03  0.14828967841E+03  0.00000000000E+00 0. -1.
         13    1    4    4    0    0  0.15506947736E+02  0.19062628013E+02  0.15915844545E+02  0.29277351698E+02  0.00000000000E+00 0.  1.
          3    1    1    2  501    0  0.42116985743E+01  0.43090875081E+02  0.42622466171E+02  0.60755547423E+02  0.00000000000E+00 0. -1.
<scales pt_clust_5="13000.00000" pt_clust_6="13000.00000" pt_clust_7="13000.00000" pt_clust_8="13000.00000" pt_clust_9="43.29621"></scales>
<clustering>
<clus scale="   43.296">  1  9  2 -1</clus>
<clus scale="   90.558">  7  8 -1 -1</clus>
<clus scale="   92.277">  5  6 -1 -1</clus>
<clus scale="   93.819">  1  7  2 -1</clus>
<clus scale="   43.296">  1  5  2 -1</clus>
</clustering>
</event>
<event>
 9    1  0.3231311E-005  0.2399572E+03  0.7546771E-02  0.1148143E+00
         21   -1    0    0  501  502  0.00000000000E+00  0.00000000000E+00  0.62438045545E+02  0.62438045545E+02  0.00000000000E+00 0. -1.
          1   -1    0    0  502    0 -0.00000000000E+00 -0.00000000000E+00 -0.14211141806E+04  0.14211141806E+04  0.00000000000E+00 0. -1.
         23    2    1    2    0    0  0.77307991181E+02 -0.99883687551E+01 -0.30018002841E+03  0.32337860975E+03  0.91593573907E+02 0.  0.
         23    2    1    2    0    0 -0.25805528108E+03 -0.37029078683E+02 -0.70872526021E+03  0.76366400972E+03  0.11369936023E+03 0.  0.
        -13    1    3    3    0    0  0.50356525333E+01  0.34841392654E+02 -0.85031108197E+02  0.92030265672E+02  0.00000000000E+00 0. -1.
         13    1    3    3    0    0  0.72272338647E+02 -0.44829761409E+02 -0.21514892021E+03  0.23134834408E+03  0.00000000000E+00 0.  1.
        -13    1    4    4    0    0 -0.16871306331E+03 -0.25209436511E+01 -0.57454366714E+03  0.59880788099E+03  0.00000000000E+00 0. -1.
         13    1    4    4    0    0 -0.89342217772E+02 -0.34508135032E+02 -0.13418159307E+03  0.16485612873E+03  0.00000000000E+00 0.  1.
          1    1    1    2  501    0  0.18074728990E+03  0.47017447438E+02 -0.34977084646E+03  0.39650960669E+03  0.00000000000E+00 0. -1.
<scales pt_clust_5="13000.00000" pt_clust_6="13000.00000" pt_clust_7="13000.00000" pt_clust_8="13000.00000" pt_clust_9="211.31004"></scales>
<clustering>
<clus scale="   91.594">  5  6 -1 -1</clus>
<clus scale="  113.699">  7  8 -1 -1</clus>
<clus scale="  120.273">  2  5  1 -1</clus>
<clus scale="  211.310">  1  9  2 -1</clus>
<clus scale="  211.310">  1  5  2 -1</clus>
</clustering>
</event>
<event>
 9    1  0.3231311E-005  0.1318868E+03  0.7546771E-02  0.1226422E+00
         21   -1    0    0  501  502  0.00000000000E+00  0.00000000000E+00  0.42218328738E+02  0.42218328738E+02  0.00000000000E+00 0.  1.
          2   -1    0    0  502    0 -0.00000000000E+00 -0.00000000000E+00 -0.91859493958E+03  0.91859493958E+03  0.00000000000E+00 0. -1.
         23    2    1    2    0    0  0.86917966882E+02 -0.40871806577E+02 -0.47387461369E+03  0.49332937950E+03  0.97936150829E+02 0.  0.
         23    2    1    2    0    0 -0.13908000348E+02  0.10498503538E+03 -0.22066662716E+03  0.26131632808E+03  0.91526896868E+02 0.  0.
        -11    1    3    3    0    0  0.75386965132E+02  0.16176414784E+02 -0.30933395682E+03  0.31879831830E+03  0.00000000000E+00 0.  1.
         11    1    3    3    0    0  0.11531001749E+02 -0.57048221360E+02 -0.16454065687E+03  0.17453106120E+03  0.00000000000E+00 0. -1.
        -13    1    4    4    0    0  0.29438871828E+02  0.88830363811E+02 -0.14225355016E+03  0.17027493427E+03  0.00000000000E+00 0.  1.
         13    1    4    4    0    0 -0.43346872176E+02  0.16154671571E+02 -0.78413077002E+02  0.91041393805E+02  0.00000000000E+00 0. -1.
          2    1    1    2  501    0 -0.73009966533E+02 -0.64113228806E+02 -0.18183537000E+03  0.20616756074E+03  0.00000000000E+00 0. -1.
<scales pt_clust_5="13000.00000" pt_clust_6="13000.00000" pt_clust_7="13000.00000" pt_clust_8="13000.00000" pt_clust_9="97.16461"></scales>
<clustering>
<clus scale="   91.527">  7  8 -1 -1</clus>
<clus scale="   97.165">  1  9  2 -1</clus>
<clus scale="   97.936">  5  6 -1 -1</clus>
<clus scale="  127.200">  1  7  2 -1</clus>
<clus scale="   97.165">  1  5  2 -1</clus>
</clustering>
</event>
<event>
 9    1  0.3231311E-005  0.1089448E+03  0.7546771E-02  0.1262710E+00
         21   -1    0    0  501  502  0.00000000000E+00  0.00000000000E+00  0.40661301344E+02  0.40661301344E+02  0.00000000000E+00 0. -1.
          2   -1    0    0  502    0 -0.00000000000E+00 -0.00000000000E+00 -0.77270678076E+03  0.77270678076E+03  0.00000000000E+00 0. -1.
         23    2    1    2    0    0  0.27835657797E+02 -0.32284299964E+02 -0.25910303282E+03  0.27702656627E+03  0.88273648012E+02 0.  0.
         23    2    1    2    0    0  0.18600767948E+02  0.98876649134E+02 -0.41622362027E+03  0.43730663378E+03  0.88726600099E+02 0.  0.
        -11    1    4    4    0    0 -0.26235902552E+02  0.35064308520E+02 -0.71292738971E+02  0.83668888750E+02  0.00000000000E+00 0.  1.
         11    1    4    4    0    0  0.44836670500E+02  0.63812340614E+02 -0.34493088130E+03  0.35363774503E+03  0.00000000000E+00 0. -1.
        -13    1    3    3    0    0  0.58258742331E+02 -0.32871125887E+02 -0.19279856756E+03  0.20407322125E+03  0.00000000000E+00 0. -1.
         13    1    3    3    0    0 -0.30423084534E+02  0.58682592259E+00 -0.66304465253E+02  0.72953345021E+02  0.00000000000E+00 0.  1.
          2    1    1    2  501    0 -0.46436425745E+02 -0.66592349170E+02 -0.56718826328E+02  0.99034882057E+02  0.00000000000E+00 0. -1.
<scales pt_clust_5="13000.00000" pt_clust_6="13000.00000" pt_clust_7="13000.00000" pt_clust_8="13000.00000" pt_clust_9="81.18425"></scales>
<clustering>
<clus scale="   81.184">  1  9  2 -1</clus>
<clus scale="   88.274">  7  8 -1 -1</clus>
<clus scale="   88.727">  5  6 -1 -1</clus>
<clus scale="  108.576">  2  7  1 -1</clus>
<clus scale="   81.184">  1  5  2 -1</clus>
</clustering>
</event>
<event>
 9    1  0.3231311E-005  0.9107320E+02  0.7546771E-02  0.1301078E+00
         21   -1    0    0  501  502  0.00000000000E+00  0.00000000000E+00  0.70378300383E+02  0.70378300383E+02  0.00000000000E+00 0.  1.
         -1   -1    0    0    0  501 -0.00000000000E+00 -0.00000000000E+00 -0.26785026069E+03  0.26785026069E+03  0.00000000000E+00 0.  1.
         23    2    1    2    0    0  0.53407816804E+01 -0.87757356452E+01 -0.17012442984E+03  0.19252887721E+03  0.89551713799E+02 0.  0.
         23    2    1    2    0    0 -0.62060702430E+01 -0.17095725895E+02 -0.55029518537E+02  0.10780016263E+03  0.90894708321E+02 0.  0.
        -11    1    3    3    0    0 -0.27009462869E+02 -0.21934340852E+02 -0.14598516532E+03  0.15007429789E+03  0.00000000000E+00 0.  1.
         11    1    3    3    0    0  0.32350244549E+02  0.13158605207E+02 -0.24139264519E+02  0.42454579316E+02  0.00000000000E+00 0. -1.
        -13    1    4    4    0    0 -0.48312413486E+02 -0.72039429129E+01 -0.35261921305E+02  0.60244412060E+02  0.00000000000E+00 0. -1.
         13    1    4    4    0    0  0.42106343243E+02 -0.98917829826E+01 -0.19767597233E+02  0.47555750570E+02  0.00000000000E+00 0.  1.
         -1    1    1    2    0  502  0.86528856267E+00  0.25871461541E+02  0.27681988070E+02  0.37899521238E+02  0.00000000000E+00 0.  1.
<scales pt_clust_5="13000.00000" pt_clust_6="13000.00000" pt_clust_7="13000.00000" pt_clust_8="13000.00000" pt_clust_9="25.88593"></scales>
<clustering>
<clus scale="   25.886">  1  9  2 -1</clus>
<clus scale="   89.552">  5  6 -1 -1</clus>
<clus scale="   89.733">  2  5  1 -1</clus>
<clus scale="   90.895">  7  8 -1 -1</clus>
<clus scale="   25.886">  1  5  2 -1</clus>
</clustering>
</event>
<event>
 9    1  0.3231311E-005  0.1386586E+03  0.7546771E-02  0.1216105E+00
         21   -1    0    0  501  502  0.00000000000E+00  0.00000000000E+00  0.32332903722E+03  0.32332903722E+03  0.00000000000E+00 0.  1.
         -1   -1    0    0    0  501 -0.00000000000E+00 -0.00000000000E+00 -0.36094272551E+03  0.36094272551E+03  0.00000000000E+00 0.  1.
         23    2    1    2    0    0  0.68549786231E+02  0.80426392682E+02 -0.30541126457E+03  0.33588364597E+03  0.91511230270E+02 0.  0.
         23    2    1    2    0    0 -0.53875295341E+01 -0.11000026386E+03  0.11923815672E+03  0.18427234767E+03  0.87232313813E+02 0.  0.
        -11    1    4    4    0    0  0.26544477795E+02 -0.42361313880E+02  0.86037108788E+01  0.50725871663E+02  0.00000000000E+00 0. -1.
         11    1    4    4    0    0 -0.31932007329E+02 -0.67638949980E+02  0.11063444585E+03  0.13354647601E+03  0.00000000000E+00 0.  1.
        -13    1    3    3    0    0  0.16545643351E+02  0.83748673383E+02 -0.15887471649E+03  0.18035735124E+03  0.00000000000E+00 0.  1.
         13    1    3    3    0    0  0.52004142879E+02 -0.33222807010E+01 -0.14653654808E+03  0.15552629472E+03  0.00000000000E+00 0. -1.
         -1    1    1    2    0  502 -0.63162256696E+02  0.29573871179E+02  0.14855941956E+03  0.16411576910E+03  0.00000000000E+00 0.  1.
<scales pt_clust_5="13000.00000" pt_clust_6="13000.00000" pt_clust_7="13000.00000" pt_clust_8="13000.00000" pt_clust_9="69.74299"></scales>
<clustering>
<clus scale="   69.743">  1  9  2 -1</clus>
<clus scale="   87.232">  5  6 -1 -1</clus>
<clus scale="   91.511">  7  8 -1 -1</clus>
<clus scale="  135.873">  1  5  2 -1</clus>
<clus scale="   69.743">  1  5  2 -1</clus>
</clustering>
</event>
<event>
 9    1  0.3231311E-005  0.1194938E+03  0.7546771E-02  0.1244769E+00
         -1   -1    0    0    0  501 -0.00000000000E+00  0.00000000000E+00  0.79459295863E+02  0.79459295863E+02  0.00000000000E+00 0.  1.
         21   -1    0    0  501  502  0.00000000000E+00 -0.00000000000E+00 -0.31521773270E+03  0.31521773270E+03  0.00000000000E+00 0. -1.
         23    2    1    2    0    0  0.78359005938E+02  0.16953059336E+02 -0.40799247953E+01  0.12284197046E+03  0.92983675388E+02 0.  0.
         23    2    1    2    0    0 -0.56065370423E+02 -0.68168647503E+01 -0.22049955363E+03  0.24491447608E+03  0.90406039830E+02 0.  0.
        -13    1    4    4    0    0 -0.12919801799E+02  0.16800523360E+02 -0.23906826528E+01  0.21328249512E+02  0.00000000000E+00 0.  1.
         13    1    4    4    0    0 -0.43145568625E+02 -0.23617388110E+02 -0.21810887097E+03  0.22358622657E+03  0.00000000000E+00 0. -1.
        -13    1    3    3    0    0  0.67193997779E+02  0.51176144929E+02  0.80717837142E+01  0.84848010228E+02  0.00000000000E+00 0.  1.
         13    1    3    3    0    0  0.11165008159E+02 -0.34223085593E+02 -0.12151708509E+02  0.37993960236E+02  0.00000000000E+00 0. -1.
         -1    1    1    2    0  502 -0.22293635515E+02 -0.10136194586E+02 -0.11178958418E+02  0.26920582023E+02  0.00000000000E+00 0.  1.
<scales pt_clust_5="13000.00000" pt_clust_6="13000.00000" pt_clust_7="13000.00000" pt_clust_8="13000.00000" pt_clust_9="24.48978"></scales>
<clustering>
<clus scale="   24.490">  2  9  1 -1</clus>
<clus scale="   90.406">  5  6 -1 -1</clus>
<clus scale="   92.984">  7  8 -1 -1</clus>
<clus scale="  117.499">  2  5  1 -1</clus>
<clus scale="   24.490">  2  5  1 -1</clus>
</clustering>
</event>
<event>
 9    1  0.3231311E-005  0.9807459E+02  0.7546771E-02  0.1285183E+00
         21   -1    0    0  501  502  0.00000000000E+00  0.00000000000E+00  0.36909713197E+03  0.36909713197E+03  0.00000000000E+00 0.  1.
         -1   -1    0    0    0  501 -0.00000000000E+00 -0.00000000000E+00 -0.43201183953E+02  0.43201183953E+02  0.00000000000E+00 0.  1.
         23    2    1    2    0    0 -0.29275833761E+02 -0.47155678154E+01  0.48731109859E+02  0.10974260229E+03  0.93751835534E+02 0.  0.
         23    2    1    2    0    0  0.69217697563E+01  0.36294907855E+01  0.19153327959E+03  0.21404781815E+03  0.95238580231E+02 0.  0.
        -11    1    4    4    0    0  0.39162346371E+02 -0.22748854393E+02  0.54710363242E+02  0.71024105735E+02  0.00000000000E+00 0. -1.
         11    1    4    4    0    0 -0.32240576615E+02  0.26378345179E+02  0.13682291635E+03  0.14302371242E+03  0.00000000000E+00 0.  1.
        -13    1    3    3    0    0 -0.53200497872E+02  0.25995091341E+02  0.26063400156E+02  0.64694192748E+02  0.00000000000E+00 0.  1.
         13    1    3    3    0    0  0.23924664111E+02 -0.30710659156E+02  0.22667709703E+02  0.45048409537E+02  0.00000000000E+00 0. -1.
         -1    1    1    2    0  502  0.22354064005E+02  0.10860770299E+01  0.85631558565E+02  0.88507895485E+02  0.00000000000E+00 0.  1.
<scales pt_clust_5="13000.00000" pt_clust_6="13000.00000" pt_clust_7="13000.00000" pt_clust_8="13000.00000" pt_clust_9="22.38043"></scales>
<clustering>
<clus scale="   22.380">  1  9  2 -1</clus>
<clus scale="   93.752">  7  8 -1 -1</clus>
<clus scale="   95.239">  5  6 -1 -1</clus>
<clus scale="   96.631">  2  7  1 -1</clus>
<clus scale="   22.380">  1  5  2 -1</clus>
</clustering>
</event>
<event>
 9    1  0.3231311E-005  0.1013156E+03  0.7546771E-02  0.1278315E+00
         21   -1    0    0  501  502  0.00000000000E+00  0.00000000000E+00  0.27669298795E+03  0.27669298795E+03  0.00000000000E+00 0. -1.
          4   -1    0    0  502    0 -0.00000000000E+00 -0.00000000000E+00 -0.21262460380E+03  0.21262460380E+03  0.00000000000E+00 0. -1.
         23    2    1    2    0    0  0.38061328916E+02 -0.11583775730E+01 -0.15869040354E+03  0.18871215191E+03  0.94760885937E+02 0.  0.
         23    2    1    2    0    0 -0.58899710041E+01  0.74131573235E+02  0.10809628410E+03  0.16093592534E+03  0.93195405030E+02 0.  0.
        -13    1    4    4    0    0  0.93354686337E+01 -0.18499954168E+02  0.46351479260E+01  0.21234026352E+02  0.00000000000E+00 0.  1.
         13    1    4    4    0    0 -0.15225439638E+02  0.92631527403E+02  0.10346113618E+03  0.13970189899E+03  0.00000000000E+00 0. -1.
        -13    1    3    3    0    0 -0.54961321188E+01 -0.37988810064E+02 -0.32753605030E+02  0.50459447092E+02  0.00000000000E+00 0.  1.
         13    1    3    3    0    0  0.43557461035E+02  0.36830432491E+02 -0.12593679851E+03  0.13825270481E+03  0.00000000000E+00 0. -1.
          4    1    1    2  501    0 -0.32171357912E+02 -0.72973195662E+02  0.11466250359E+03  0.13966951451E+03  0.00000000000E+00 0. -1.
<scales pt_clust_5="13000.00000" pt_clust_6="13000.00000" pt_clust_7="13000.00000" pt_clust_8="13000.00000" pt_clust_9="79.75013"></scales>
<clustering>
<clus scale="   79.750">  1  9  2 -1</clus>
<clus scale="   93.195">  5  6 -1 -1</clus>
<clus scale="   94.761">  7  8 -1 -1</clus>
<clus scale="   99.853">  1  5  2 -1</clus>
<clus scale="   79.750">  1  5  2 -1</clus>
</clustering>
</event>
<event>
 9    1  0.3231311E-005  0.1024352E+03  0.7546771E-02  0.1275313E+00
         21   -1    0    0  501  502  0.00000000000E+00  0.00000000000E+00  0.47154734157E+02  0.47154734157E+02  0.00000000000E+00 0.  1.
         -3   -1    0    0    0  501 -0.00000000000E+00 -0.00000000000E+00 -0.57472795097E+03  0.57472795097E+03  0.00000000000E+00 0.  1.
         23    2    1    2    0    0 -0.23619790151E+02  0.25546652177E+02 -0.26422979812E+03  0.28173600704E+03  0.91363370811E+02 0.  0.
         23    2    1    2    0    0  0.52035186323E+02 -0.30413485458E+02 -0.28418595767E+03  0.30457235819E+03  0.91487825003E+02 0.  0.
        -11    1    3    3    0    0 -0.98016982132E+01  0.59244781340E+02 -0.14146935277E+03  0.15368667860E+03  0.00000000000E+00 0. -1.
         11    1    3    3    0    0 -0.13818091938E+02 -0.33698129164E+02 -0.12276044534E+03  0.12804932844E+03  0.00000000000E+00 0.  1.
        -13    1    4    4    0    0  0.19679521539E+02 -0.45905272660E+02 -0.25026820782E+03  0.25520335710E+03  0.00000000000E+00 0.  1.
         13    1    4    4    0    0  0.32355664784E+02  0.15491787202E+02 -0.33917749842E+02  0.49369001091E+02  0.00000000000E+00 0. -1.
         -3    1    1    2    0  502 -0.28415396172E+02  0.48668332817E+01  0.20842538968E+02  0.35574319901E+02  0.00000000000E+00 0.  1.
<scales pt_clust_5="13000.00000" pt_clust_6="13000.00000" pt_clust_7="13000.00000" pt_clust_8="13000.00000" pt_clust_9="28.82917"></scales>
<clustering>
<clus scale="   28.829">  1  9  2 -1</clus>
<clus scale="   91.363">  5  6 -1 -1</clus>
<clus scale="   91.488">  7  8 -1 -1</clus>
<clus scale="  102.324">  2  5  1 -1</clus>
<clus scale="   28.829">  1  5  2 -1</clus>
</clustering>
</event>
<event>
 9    1  0.3231311E-005  0.1049279E+03  0.7546771E-02  0.1273093E+00
         -1   -1    0    0    0  501 -0.00000000000E+00  0.00000000000E+00  0.40584510679E+02  0.40584510679E+02  0.00000000000E+00 0.  1.
         21   -1    0    0  501  502  0.00000000000E+00 -0.00000000000E+00 -0.35521099117E+03  0.35521099117E+03  0.00000000000E+00 0. -1.
         23    2    1    2    0    0  0.44201547096E+02 -0.11692294118E+02 -0.12908396312E+03  0.16534519100E+03  0.92660002941E+02 0.  0.
         23    2    1    2    0    0 -0.16059059047E+02  0.23968833792E+02 -0.16166816011E+03  0.19155689246E+03  0.98615671586E+02 0.  0.
        -11    1    3    3    0    0  0.45094174968E+02 -0.48454168591E+02 -0.89485818867E+02  0.11130589763E+03  0.00000000000E+00 0.  1.
         11    1    3    3    0    0 -0.89262787214E+00  0.36761874473E+02 -0.39598144249E+02  0.54039293364E+02  0.00000000000E+00 0. -1.
        -11    1    4    4    0    0  0.24548130251E+02  0.19321868606E+02 -0.75887873271E+01  0.32148639137E+02  0.00000000000E+00 0.  1.
         11    1    4    4    0    0 -0.40607189298E+02  0.46469651858E+01 -0.15407937278E+03  0.15940825332E+03  0.00000000000E+00 0. -1.
         -1    1    1    2    0  502 -0.28142488049E+02 -0.12276539674E+02 -0.23874357267E+02  0.38893418401E+02  0.00000000000E+00 0.  1.
<scales pt_clust_5="13000.00000" pt_clust_6="13000.00000" pt_clust_7="13000.00000" pt_clust_8="13000.00000" pt_clust_9="30.70365"></scales>
<clustering>
<clus scale="   30.704">  2  9  1 -1</clus>
<clus scale="   92.660">  5  6 -1 -1</clus>
<clus scale="   98.616">  7  8 -1 -1</clus>
<clus scale="   99.351">  1  5  2 -1</clus>
<clus scale="   30.704">  2  5  1 -1</clus>
</clustering>
</event>
<event>
 9    1  0.3231311E-005  0.1469288E+03  0.7546771E-02  0.1204550E+00
          1   -1    0    0  502    0 -0.00000000000E+00  0.00000000000E+00  0.14669771955E+03  0.14669771955E+03  0.00000000000E+00 0. -1.
         21   -1    0    0  501  502  0.00000000000E+00 -0.00000000000E+00 -0.37752565623E+03  0.37752565623E+03  0.00000000000E+00 0. -1.
         23    2    1    2    0    0 -0.10651789205E+03 -0.36057610145E+02  0.72631500546E+02  0.16246471887E+03  0.92050189741E+02 0.  0.
         23    2    1    2    0    0  0.12750068188E+03  0.11744034468E+02 -0.20494489702E+03  0.25814137040E+03  0.90775602826E+02 0.  0.
        -11    1    4    4    0    0  0.79570146244E+02  0.24473518007E+01 -0.46166189668E+02  0.92025620197E+02  0.00000000000E+00 0. -1.
         11    1    4    4    0    0  0.47930535637E+02  0.92966826673E+01 -0.15877870735E+03  0.16611575020E+03  0.00000000000E+00 0.  1.
        -11    1    3    3    0    0 -0.74476074315E+02 -0.17976872749E+02  0.92934183023E+02  0.12044341399E+03  0.00000000000E+00 0. -1.
         11    1    3    3    0    0 -0.32041817734E+02 -0.18080737396E+02 -0.20302682477E+02  0.42021304885E+02  0.00000000000E+00 0.  1.
          1    1    1    2  501    0 -0.20982789833E+02  0.24313575677E+02 -0.98514540204E+02  0.10361728651E+03  0.00000000000E+00 0. -1.
<scales pt_clust_5="13000.00000" pt_clust_6="13000.00000" pt_clust_7="13000.00000" pt_clust_8="13000.00000" pt_clust_9="32.11584"></scales>
<clustering>
<clus scale="   32.116">  2  9  1 -1</clus>
<clus scale="   90.776">  5  6 -1 -1</clus>
<clus scale="   92.050">  7  8 -1 -1</clus>
<clus scale="  146.134">  2  5  1 -1</clus>
<clus scale="   32.116">  2  5  1 -1</clus>
</clustering>
</event>
<event>
 9    1  0.3231311E-005  0.1260883E+03  0.7546771E-02  0.1234001E+00
         21   -1    0    0  501  502  0.00000000000E+00  0.00000000000E+00  0.70596037610E+02  0.70596037610E+02  0.00000000000E+00 0.  1.
          2   -1    0    0  502    0 -0.00000000000E+00 -0.00000000000E+00 -0.42319115483E+03  0.42319115483E+03  0.00000000000E+00 0. -1.
         23    2    1    2    0    0 -0.75395576917E+02 -0.19476183311E+01 -0.22604091984E+03  0.25666276043E+03  0.95357165000E+02 0.  0.
         23    2    1    2    0    0  0.96273371350E+02  0.26046592332E+01 -0.32533922258E+02  0.14081178415E+03  0.97437960653E+02 0.  0.
        -11    1    4    4    0    0  0.12556036512E+02 -0.38726690705E+02  0.32137178911E+01  0.40837955489E+02  0.00000000000E+00 0. -1.
         11    1    4    4    0    0  0.83717334838E+02  0.41331349938E+02 -0.35747640149E+02  0.99973828657E+02  0.00000000000E+00 0.  1.
        -11    1    3    3    0    0 -0.39249074572E+02 -0.34959157131E+02 -0.45230413684E+02  0.69342792301E+02  0.00000000000E+00 0.  1.
         11    1    3    3    0    0 -0.36146502344E+02  0.33011538800E+02 -0.18081050615E+03  0.18731996813E+03  0.00000000000E+00 0. -1.
          2    1    1    2  501    0 -0.20877794433E+02 -0.65704090212E+00 -0.94020275130E+02  0.96312647864E+02  0.00000000000E+00 0. -1.
<scales pt_clust_5="13000.00000" pt_clust_6="13000.00000" pt_clust_7="13000.00000" pt_clust_8="13000.00000" pt_clust_9="20.88814"></scales>
<clustering>
<clus scale="   20.888">  1  9  2 -1</clus>
<clus scale="   95.357">  7  8 -1 -1</clus>
<clus scale="   97.438">  5  6 -1 -1</clus>
<clus scale="  124.487">  2  7  1 -1</clus>
<clus scale="   20.888">  1  5  2 -1</clus>
</clustering>
</event>
<event>
 9    1  0.3231311E-005  0.1331580E+03  0.7546771E-02  0.1223324E+00
          3   -1    0    0  502    0 -0.00000000000E+00  0.00000000000E+00  0.11185683114E+03  0.11185683114E+03  0.00000000000E+00 0. -1.
         21   -1    0    0  501  502  0.00000000000E+00 -0.00000000000E+00 -0.32694816585E+03  0.32694816585E+03  0.00000000000E+00 0. -1.
         23    2    1    2    0    0  0.10779623729E+03 -0.25996510226E+02  0.20799556219E+02  0.14583986157E+03  0.92416429087E+02 0.  0.
         23    2    1    2    0    0 -0.55574852774E+02  0.18070755708E+02 -0.10904091297E+03  0.15555768477E+03  0.94303531850E+02 0.  0.
        -13    1    3    3    0    0  0.15741369611E+02  0.21995162604E+02 -0.20678412853E+02  0.34046654069E+02  0.00000000000E+00 0.  1.
         13    1    3    3    0    0  0.92054867676E+02 -0.47991672830E+02  0.41477969072E+02  0.11179320750E+03  0.00000000000E+00 0. -1.
        -13    1    4    4    0    0 -0.36188261820E+02 -0.21810135754E+02 -0.51075939140E+01  0.42560073199E+02  0.00000000000E+00 0.  1.
         13    1    4    4    0    0 -0.19386590954E+02  0.39880891462E+02 -0.10393331905E+03  0.11299761158E+03  0.00000000000E+00 0. -1.
          3    1    1    2  501    0 -0.52221384514E+02  0.79257545187E+01 -0.12684997796E+03  0.13740745065E+03  0.00000000000E+00 0. -1.
<scales pt_clust_5="13000.00000" pt_clust_6="13000.00000" pt_clust_7="13000.00000" pt_clust_8="13000.00000" pt_clust_9="52.81941"></scales>
<clustering>
<clus scale="   52.819">  2  9  1 -1</clus>
<clus scale="   92.416">  5  6 -1 -1</clus>
<clus scale="   94.304">  7  8 -1 -1</clus>
<clus scale="  131.828">  1  5  2 -1</clus>
<clus scale="   52.819">  2  5  1 -1</clus>
</clustering>
</event>
<event>
 9    1  0.3231311E-005  0.1168246E+03  0.7546771E-02  0.1248873E+00
         21   -1    0    0  501  502  0.00000000000E+00  0.00000000000E+00  0.59604800306E+02  0.59604800306E+02  0.00000000000E+00 0.  1.
          4   -1    0    0  502    0 -0.00000000000E+00 -0.00000000000E+00 -0.75220352767E+03  0.75220352767E+03  0.00000000000E+00 0. -1.
         23    2    1    2    0    0  0.72334419184E+02  0.44800495253E+02 -0.46942116694E+03  0.48561955822E+03  0.90723595499E+02 0.  0.
         23    2    1    2    0    0 -0.22182707946E+02 -0.62478756798E+02 -0.24470176215E+03  0.26882147653E+03  0.89388848646E+02 0.  0.
        -13    1    4    4    0    0 -0.42652517159E+02 -0.65925195043E+02 -0.12707225570E+03  0.14937445140E+03  0.00000000000E+00 0.  1.
         13    1    4    4    0    0  0.20469809213E+02  0.34464382452E+01 -0.11762950645E+03  0.11944702513E+03  0.00000000000E+00 0. -1.
        -13    1    3    3    0    0  0.26149101395E+02  0.64798180350E+02 -0.33196281138E+03  0.33923721468E+03  0.00000000000E+00 0. -1.
         13    1    3    3    0    0  0.46185317790E+02 -0.19997685098E+02 -0.13745835556E+03  0.14638234355E+03  0.00000000000E+00 0.  1.
          4    1    1    2  501    0 -0.50151711238E+02  0.17678261546E+02  0.21524201730E+02  0.57367293221E+02  0.00000000000E+00 0. -1.
<scales pt_clust_5="13000.00000" pt_clust_6="13000.00000" pt_clust_7="13000.00000" pt_clust_8="13000.00000" pt_clust_9="53.17626"></scales>
<clustering>
<clus scale="   53.176">  1  9  2 -1</clus>
<clus scale="   89.389">  5  6 -1 -1</clus>
<clus scale="   90.724">  7  8 -1 -1</clus>
<clus scale="  115.791">  1  5  2 -1</clus>
<clus scale="   53.176">  1  5  2 -1</clus>
</clustering>
</event>
<event>
 9    1  0.3231311E-005  0.1691441E+03  0.7546771E-02  0.1178772E+00
          2   -1    0    0  502    0 -0.00000000000E+00  0.00000000000E+00  0.66382055017E+03  0.66382055017E+03  0.00000000000E+00 0. -1.
         21   -1    0    0  501  502  0.00000000000E+00 -0.00000000000E+00 -0.61211851330E+02  0.61211851330E+02  0.00000000000E+00 0.  1.
         23    2    1    2    0    0  0.77441268496E+02  0.10918353396E+03  0.41511043543E+03  0.44677316368E+03  0.96805950398E+02 0.  0.
         23    2    1    2    0    0 -0.77088029880E+02 -0.13061176422E+03  0.14691714482E+03  0.23236674371E+03  0.96993086528E+02 0.  0.
        -13    1    4    4    0    0 -0.51478461265E+01 -0.53802921793E+02  0.30726278966E+01  0.54135900799E+02  0.00000000000E+00 0.  1.
         13    1    4    4    0    0 -0.71940183754E+02 -0.76808842431E+02  0.14384451693E+03  0.17823084291E+03  0.00000000000E+00 0. -1.
        -13    1    3    3    0    0 -0.17677529844E+02  0.36197542616E+02  0.62691304734E+02  0.74518164510E+02  0.00000000000E+00 0.  1.
         13    1    3    3    0    0  0.95118798340E+02  0.72985991347E+02  0.35241913069E+03  0.37225499917E+03  0.00000000000E+00 0. -1.
          2    1    1    2  501    0 -0.35323861608E+00  0.21428230261E+02  0.40581118594E+02  0.45892494113E+02  0.00000000000E+00 0. -1.
<scales pt_clust_5="13000.00000" pt_clust_6="13000.00000" pt_clust_7="13000.00000" pt_clust_8="13000.00000" pt_clust_9="21.43115"></scales>
<clustering>
<clus scale="   21.431">  2  9  1 -1</clus>
<clus scale="   96.806">  7  8 -1 -1</clus>
<clus scale="   96.993">  5  6 -1 -1</clus>
<clus scale="  169.037">  1  7  2 -1</clus>
<clus scale="   21.431">  2  5  1 -1</clus>
</clustering>
</event>
<event>
 9    1  0.3231311E-005  0.1000937E+03  0.7546771E-02  0.1280879E+00
          1   -1    0    0  502    0 -0.00000000000E+00  0.00000000000E+00  0.15856155904E+03  0.15856155904E+03  0.00000000000E+00 0. -1.
         21   -1    0    0  501  502  0.00000000000E+00 -0.00000000000E+00 -0.14789404869E+03  0.14789404869E+03  0.00000000000E+00 0.  1.
         23    2    1    2    0    0 -0.35416186972E+02  0.83144677301E+01  0.10236374996E+03  0.14298765999E+03  0.92971484498E+02 0.  0.
         23    2    1    2    0    0  0.31009631257E+02 -0.37891046923E+02 -0.81504012453E+02  0.13187565019E+03  0.91383556500E+02 0.  0.
        -11    1    4    4    0    0  0.47034530903E+02 -0.15780593786E+02 -0.40817028946E+01  0.49778856315E+02  0.00000000000E+00 0. -1.
         11    1    4    4    0    0 -0.16024899646E+02 -0.22110453137E+02 -0.77422309558E+02  0.82096793871E+02  0.00000000000E+00 0.  1.
        -13    1    3    3    0    0 -0.14213646505E+02  0.47628825261E+02  0.76920437028E+02  0.91582129126E+02  0.00000000000E+00 0. -1.
         13    1    3    3    0    0 -0.21202540466E+02 -0.39314357531E+02  0.25443312933E+02  0.51405530863E+02  0.00000000000E+00 0.  1.
          1    1    1    2  501    0  0.44065557148E+01  0.29576579193E+02 -0.10192227160E+02  0.31592297550E+02  0.00000000000E+00 0. -1.
<scales pt_clust_5="13000.00000" pt_clust_6="13000.00000" pt_clust_7="13000.00000" pt_clust_8="13000.00000" pt_clust_9="29.90304"></scales>
<clustering>
<clus scale="   29.903">  2  9  1 -1</clus>
<clus scale="   91.384">  5  6 -1 -1</clus>
<clus scale="   92.971">  7  8 -1 -1</clus>
<clus scale="   98.621">  2  5  1 -1</clus>
<clus scale="   29.903">  2  5  1 -1</clus>
</clustering>
</event>
<event>
 9    1  0.3231311E-005  0.9540159E+02  0.7546771E-02  0.1291957E+00
         -1   -1    0    0    0  501 -0.00000000000E+00  0.00000000000E+00  0.14097881801E+03  0.14097881801E+03  0.00000000000E+00 0.  1.
         21   -1    0    0  501  502  0.00000000000E+00 -0.00000000000E+00 -0.31606008384E+03  0.31606008384E+03  0.00000000000E+00 0.  1.
         23    2    1    2    0    0 -0.11096719301E+02 -0.15445691549E+02  0.87604087843E+02  0.13021972174E+03  0.94451009296E+02 0.  0.
         23    2    1    2    0    0 -0.18747695724E+02  0.38963695476E+01 -0.39670892461E+02  0.10152043210E+03  0.91465625424E+02 0.  0.
        -11    1    4    4    0    0  0.49304812196E+01  0.33285313849E+02  0.13551477465E+02  0.36274843963E+02  0.00000000000E+00 0. -1.
         11    1    4    4    0    0 -0.23678176944E+02 -0.29388944301E+02 -0.53222369927E+02  0.65245588135E+02  0.00000000000E+00 0.  1.
        -13    1    3    3    0    0  0.39855941151E+02  0.37710906868E+01  0.24793995531E+02  0.47089907458E+02  0.00000000000E+00 0. -1.
         13    1    3    3    0    0 -0.50952660452E+02 -0.19216782235E+02  0.62810092312E+02  0.83129814284E+02  0.00000000000E+00 0.  1.
         -1    1    1    2    0  502  0.29844415025E+02  0.11549322001E+02 -0.22301446121E+03  0.22529874802E+03  0.00000000000E+00 0.  1.
<scales pt_clust_5="13000.00000" pt_clust_6="13000.00000" pt_clust_7="13000.00000" pt_clust_8="13000.00000" pt_clust_9="32.00119"></scales>
<clustering>
<clus scale="   32.001">  2  9  1 -1</clus>
<clus scale="   91.466">  5  6 -1 -1</clus>
<clus scale="   92.447">  2  5  1 -1</clus>
<clus scale="   94.451">  7  8 -1 -1</clus>
<clus scale="   32.001">  2  5  1 -1</clus>
</clustering>
</event>
<event>
 9    1  0.3231311E-005  0.1201318E+03  0.7546771E-02  0.1249961E+00
         21   -1    0    0  501  502  0.00000000000E+00  0.00000000000E+00  0.42447715265E+02  0.42447715265E+02  0.00000000000E+00 0.  1.
          1   -1    0    0  502    0 -0.00000000000E+00 -0.00000000000E+00 -0.56197617455E+03  0.56197617455E+03  0.00000000000E+00 0. -1.
         23    2    1    2    0    0 -0.51888497242E+02  0.24979978913E+02 -0.40970414577E+03  0.42764321024E+03  0.10818878273E+03 0.  0.
         23    2    1    2    0    0  0.45316843491E+02  0.10349115605E+02 -0.90676405002E+02  0.13606245328E+03  0.90166846846E+02 0.  0.
        -13    1    4    4    0    0  0.64101547544E+02 -0.12939102111E+02 -0.38416435697E+02  0.75843597572E+02  0.00000000000E+00 0.  1.
         13    1    4    4    0    0 -0.18784704053E+02  0.23288217716E+02 -0.52259969306E+02  0.60218855706E+02  0.00000000000E+00 0. -1.
        -13    1    3    3    0    0  0.33828926096E+02  0.52413956923E+01 -0.10044069050E+03  0.10611409321E+03  0.00000000000E+00 0.  1.
         13    1    3    3    0    0 -0.85717423337E+02  0.19738583221E+02 -0.30926345527E+03  0.32152911703E+03  0.00000000000E+00 0. -1.
          1    1    1    2  501    0  0.65716537510E+01 -0.35329094518E+02 -0.19147908512E+02  0.40718226298E+02  0.00000000000E+00 0. -1.
<scales pt_clust_5="13000.00000" pt_clust_6="13000.00000" pt_clust_7="13000.00000" pt_clust_8="13000.00000" pt_clust_9="35.93510"></scales>
<clustering>
<clus scale="   35.935">  1  9  2 -1</clus>
<clus scale="   90.167">  5  6 -1 -1</clus>
<clus scale="  104.196">  1  5  2 -1</clus>
<clus scale="  108.189">  7  8 -1 -1</clus>
<clus scale="   35.935">  1  5  2 -1</clus>
</clustering>
</event>
<event>
 9    1  0.3231311E-005  0.1697342E+03  0.7546771E-02  0.1178165E+00
          1   -1    0    0  502    0 -0.00000000000E+00  0.00000000000E+00  0.71257568996E+03  0.71257568996E+03  0.00000000000E+00 0. -1.
         21   -1    0    0  501  502  0.00000000000E+00 -0.00000000000E+00 -0.65001621404E+02  0.65001621404E+02  0.00000000000E+00 0.  1.
         23    2    1    2    0    0 -0.91410572800E+02 -0.75529366177E+02  0.27241563391E+03  0.31104528637E+03  0.92077763852E+02 0.  0.
         23    2    1    2    0    0  0.13226676310E+03  0.11211076215E+03  0.35920951369E+03  0.40941989934E+03  0.92357239211E+02 0.  0.
        -11    1    4    4    0    0  0.96624809614E+02  0.26300114356E+02  0.22394972708E+03  0.24531924121E+03  0.00000000000E+00 0. -1.
         11    1    4    4    0    0  0.35641953488E+02  0.85810647799E+02  0.13525978661E+03  0.16410065813E+03  0.00000000000E+00 0.  1.
        -13    1    3    3    0    0 -0.14051247315E+02 -0.55868172383E+02  0.17968210848E+03  0.18869115067E+03  0.00000000000E+00 0. -1.
         13    1    3    3    0    0 -0.77359325485E+02 -0.19661193794E+02  0.92733525437E+02  0.12235413569E+03  0.00000000000E+00 0.  1.
          1    1    1    2  501    0 -0.40856190301E+02 -0.36581395978E+02  0.15948920949E+02  0.57112125657E+02  0.00000000000E+00 0. -1.
<scales pt_clust_5="13000.00000" pt_clust_6="13000.00000" pt_clust_7="13000.00000" pt_clust_8="13000.00000" pt_clust_9="54.84001"></scales>
<clustering>
<clus scale="   54.840">  2  9  1 -1</clus>
<clus scale="   92.078">  7  8 -1 -1</clus>
<clus scale="   92.357">  5  6 -1 -1</clus>
<clus scale="  169.582">  1  7  2 -1</clus>
<clus scale="   54.840">  2  5  1 -1</clus>
</clustering>
</event>
<event>
 9    1  0.3231311E-005  0.1052064E+03  0.7546771E-02  0.1269967E+00
         21   -1    0    0  501  502  0.00000000000E+00  0.00000000000E+00  0.56728020757E+03  0.56728020757E+03  0.00000000000E+00 0.  1.
          1   -1    0    0  502    0 -0.00000000000E+00 -0.00000000000E+00 -0.90979517775E+02  0.90979517775E+02  0.00000000000E+00 0. -1.
         23    2    1    2    0    0 -0.54196481469E+02  0.31066057856E+02 -0.38679924589E+02  0.11660100085E+03  0.90538932388E+02 0.  0.
         23    2    1    2    0    0  0.82828529619E+01 -0.10943854269E+02  0.16780822909E+03  0.19088582151E+03  0.89941211378E+02 0.  0.
        -11    1    4    4    0    0 -0.33191296473E+02 -0.23037970459E+02  0.43901385359E+02  0.59663572479E+02  0.00000000000E+00 0. -1.
         11    1    4    4    0    0  0.41474149435E+02  0.12094116189E+02  0.12390684373E+03  0.13122224904E+03  0.00000000000E+00 0.  1.
        -11    1    3    3    0    0 -0.51504060784E+02 -0.34345193143E+01  0.14080320718E+02  0.53504388901E+02  0.00000000000E+00 0. -1.
         11    1    3    3    0    0 -0.26924206851E+01  0.34500577170E+02 -0.52760245307E+02  0.63096611946E+02  0.00000000000E+00 0.  1.
          1    1    1    2  501    0  0.45913628507E+02 -0.20122203587E+02  0.34717238529E+03  0.35077290298E+03  0.00000000000E+00 0. -1.
<scales pt_clust_5="13000.00000" pt_clust_6="13000.00000" pt_clust_7="13000.00000" pt_clust_8="13000.00000" pt_clust_9="50.12948"></scales>
<clustering>
<clus scale="   50.129">  1  9  2 -1</clus>
<clus scale="   89.941">  5  6 -1 -1</clus>
<clus scale="   90.539">  7  8 -1 -1</clus>
<clus scale="  104.692">  1  5  2 -1</clus>
<clus scale="   50.129">  1  5  2 -1</clus>
</clustering>
</event>
<event>
 9    1  0.3231311E-005  0.1351023E+03  0.7546771E-02  0.1224589E+00
         21   -1    0    0  501  502  0.00000000000E+00  0.00000000000E+00  0.29324206935E+02  0.29324206935E+02  0.00000000000E+00 0. -1.
         -1   -1    0    0    0  501 -0.00000000000E+00 -0.00000000000E+00 -0.90004052565E+03  0.90004052565E+03  0.00000000000E+00 0.  1.
         23    2    1    2    0    0 -0.64357966377E+02 -0.41373075897E+02 -0.53979279659E+03  0.55587297259E+03  0.10846575109E+03 0.  0.
         23    2    1    2    0    0  0.92729237775E+02  0.12684888962E+02 -0.26914616166E+03  0.29970569508E+03  0.92866729123E+02 0.  0.
        -13    1    3    3    0    0 -0.52297032504E+02 -0.78055887467E+02 -0.39484520983E+03  0.40586998030E+03  0.00000000000E+00 0. -1.
         13    1    3    3    0    0 -0.12060933873E+02  0.36682811570E+02 -0.14494758675E+03  0.15000299229E+03  0.00000000000E+00 0.  1.
        -13    1    4    4    0    0  0.10598259098E+03 -0.82405433719E+01 -0.20454430316E+03  0.23051808628E+03  0.00000000000E+00 0. -1.
         13    1    4    4    0    0 -0.13253353204E+02  0.20925432334E+02 -0.64601858503E+02  0.69187608801E+02  0.00000000000E+00 0.  1.
         -1    1    1    2    0  502 -0.28371271398E+02  0.28688186935E+02 -0.61777360469E+02  0.73786064923E+02  0.00000000000E+00 0.  1.
<scales pt_clust_5="13000.00000" pt_clust_6="13000.00000" pt_clust_7="13000.00000" pt_clust_8="13000.00000" pt_clust_9="40.34775"></scales>
<clustering>
<clus scale="   40.348">  1  9  2 -1</clus>
<clus scale="   92.867">  7  8 -1 -1</clus>
<clus scale="  108.466">  5  6 -1 -1</clus>
<clus scale="  122.931">  1  7  2 -1</clus>
<clus scale="   40.348">  1  5  2 -1</clus>
</clustering>
</event>
<event>
 9    1  0.3231311E-005  0.1421083E+03  0.7546771E-02  0.1210766E+00
          1   -1    0    0  502    0 -0.00000000000E+00  0.00000000000E+00  0.99926637696E+02  0.99926637696E+02  0.00000000000E+00 0. -1.
         21   -1    0    0  501  502  0.00000000000E+00 -0.00000000000E+00 -0.45293856107E+03  0.45293856107E+03  0.00000000000E+00 0. -1.
         23    2    1    2    0    0 -0.10436235103E+03 -0.48073145384E+02  0.18091418185E+02  0.14782416787E+03  0.91225860230E+02 0.  0.
         23    2    1    2    0    0  0.68095139931E+02  0.39806999079E+02 -0.32129902562E+03  0.34287906776E+03  0.90063566342E+02 0.  0.
        -11    1    3    3    0    0 -0.37107779495E+02 -0.16297659535E+02  0.52122813484E+02  0.66025666909E+02  0.00000000000E+00 0. -1.
         11    1    3    3    0    0 -0.67254571534E+02 -0.31775485849E+02 -0.34031395299E+02  0.81798500959E+02  0.00000000000E+00 0.  1.
        -11    1    4    4    0    0  0.63106182075E+02  0.66041443699E+02 -0.22215112119E+03  0.24019780005E+03  0.00000000000E+00 0.  1.
         11    1    4    4    0    0  0.49889578559E+01 -0.26234444621E+02 -0.99147904427E+02  0.10268126770E+03  0.00000000000E+00 0. -1.
          1    1    1    2  501    0  0.36267211099E+02  0.82661463054E+01 -0.49804315941E+02  0.62161963144E+02  0.00000000000E+00 0. -1.
<scales pt_clust_5="13000.00000" pt_clust_6="13000.00000" pt_clust_7="13000.00000" pt_clust_8="13000.00000" pt_clust_9="37.19731"></scales>
<clustering>
<clus scale="   37.197">  2  9  1 -1</clus>
<clus scale="   90.064">  7  8 -1 -1</clus>
<clus scale="   91.226">  5  6 -1 -1</clus>
<clus scale="  141.365">  2  7  1 -1</clus>
<clus scale="   37.197">  2  5  1 -1</clus>
</clustering>
</event>
<event>
 9    1  0.3231311E-005  0.1684176E+03  0.7546771E-02  0.1179524E+00
          2   -1    0    0  502    0 -0.00000000000E+00  0.00000000000E+00  0.11285050125E+04  0.11285050125E+04  0.00000000000E+00 0. -1.
         21   -1    0    0  501  502  0.00000000000E+00 -0.00000000000E+00 -0.29136726113E+02  0.29136726113E+02  0.00000000000E+00 0.  1.
         23    2    1    2    0    0 -0.19836252491E+02  0.14292017092E+03  0.56128452518E+03  0.58681402331E+03  0.92145144103E+02 0.  0.
         23    2    1    2    0    0  0.39891355878E+02 -0.13228887899E+03  0.49488293054E+03  0.52202665681E+03  0.92255339696E+02 0.  0.
        -11    1    4    4    0    0 -0.16617528748E+02 -0.79133193245E+02  0.33062642426E+03  0.34037044077E+03  0.00000000000E+00 0. -1.
         11    1    4    4    0    0  0.56508884626E+02 -0.53155685746E+02  0.16425650628E+03  0.18165621604E+03  0.00000000000E+00 0.  1.
        -13    1    3    3    0    0  0.32697282643E+02  0.30444118606E+02  0.19544577961E+03  0.20048693079E+03  0.00000000000E+00 0.  1.
         13    1    3    3    0    0 -0.52533535135E+02  0.11247605231E+03  0.36583874557E+03  0.38632709252E+03  0.00000000000E+00 0. -1.
          2    1    1    2  501    0 -0.20055103387E+02 -0.10631291925E+02  0.43200830709E+02  0.48801058532E+02  0.00000000000E+00 0. -1.
<scales pt_clust_5="13000.00000" pt_clust_6="13000.00000" pt_clust_7="13000.00000" pt_clust_8="13000.00000" pt_clust_9="22.69871"></scales>
<clustering>
<clus scale="   22.699">  2  9  1 -1</clus>
<clus scale="   92.145">  7  8 -1 -1</clus>
<clus scale="   92.255">  5  6 -1 -1</clus>
<clus scale="  168.357">  1  7  2 -1</clus>
<clus scale="   22.699">  2  5  1 -1</clus>
</clustering>
</event>
<event>
 9    1  0.3231311E-005  0.1022851E+03  0.7546771E-02  0.1276937E+00
         -4   -1    0    0    0  501 -0.00000000000E+00  0.00000000000E+00  0.25982087272E+03  0.25982087272E+03  0.00000000000E+00 0.  1.
         21   -1    0    0  501  502  0.00000000000E+00 -0.00000000000E+00 -0.10525867827E+03  0.10525867827E+03  0.00000000000E+00 0. -1.
         23    2    1    2    0    0  0.19416690320E+02 -0.48714550239E+02  0.12046808966E+03  0.15920345505E+03  0.89905863031E+02 0.  0.
         23    2    1    2    0    0 -0.38954983639E+02  0.12790256440E+02  0.90652290666E+02  0.13608262790E+03  0.92841598454E+02 0.  0.
        -11    1    4    4    0    0 -0.16773219013E+02 -0.40113394873E+02  0.46764370882E+02  0.63853987411E+02  0.00000000000E+00 0. -1.
         11    1    4    4    0    0 -0.22181764626E+02  0.52903651313E+02  0.43887919783E+02  0.72228640490E+02  0.00000000000E+00 0.  1.
        -13    1    3    3    0    0  0.13002960469E+02  0.22659690192E+02  0.59991564392E+02  0.65433373280E+02  0.00000000000E+00 0.  1.
         13    1    3    3    0    0  0.64137298513E+01 -0.71374240432E+02  0.60476525266E+02  0.93770081775E+02  0.00000000000E+00 0. -1.
         -4    1    1    2    0  502  0.19538293319E+02  0.35924293800E+02 -0.56558185870E+02  0.69793468030E+02  0.00000000000E+00 0.  1.
<scales pt_clust_5="13000.00000" pt_clust_6="13000.00000" pt_clust_7="13000.00000" pt_clust_8="13000.00000" pt_clust_9="40.89376"></scales>
<clustering>
<clus scale="   40.894">  2  9  1 -1</clus>
<clus scale="   89.906">  7  8 -1 -1</clus>
<clus scale="   92.842">  5  6 -1 -1</clus>
<clus scale="   99.628">  1  7  2 -1</clus>
<clus scale="   40.894">  2  5  1 -1</clus>
</clustering>
</event>
<event>
 9    1  0.3231311E-005  0.1116987E+03  0.7546771E-02  0.1260677E+00
         21   -1    0    0  501  502  0.00000000000E+00  0.00000000000E+00  0.19000718034E+03  0.19000718034E+03  0.00000000000E+00 0. -1.
          1   -1    0    0  502    0 -0.00000000000E+00 -0.00000000000E+00 -0.23644189663E+03  0.23644189663E+03  0.00000000000E+00 0. -1.
         23    2    1    2    0    0  0.28883889193E+02 -0.75209685092E+02 -0.11442949947E+03  0.16721461743E+03  0.91519627099E+02 0.  0.
         23    2    1    2    0    0 -0.25733617217E+02  0.41707358775E+02 -0.68757812152E+02  0.11840263639E+03  0.83004968175E+02 0.  0.
        -11    1    3    3    0    0 -0.26282868840E+02 -0.44480123121E+02 -0.24121992591E+02  0.57018778256E+02  0.00000000000E+00 0.  1.
         11    1    3    3    0    0  0.55166758033E+02 -0.30729561972E+02 -0.90307506883E+02  0.11019583917E+03  0.00000000000E+00 0. -1.
        -11    1    4    4    0    0 -0.43021195600E+02  0.18563948555E+02 -0.34394970195E+01  0.46981630416E+02  0.00000000000E+00 0.  1.
         11    1    4    4    0    0  0.17287578383E+02  0.23143410220E+02 -0.65318315132E+02  0.71421005976E+02  0.00000000000E+00 0. -1.
          1    1    1    2  501    0 -0.31502719761E+01  0.33502326317E+02  0.13675259533E+03  0.14083182315E+03  0.00000000000E+00 0. -1.
<scales pt_clust_5="13000.00000" pt_clust_6="13000.00000" pt_clust_7="13000.00000" pt_clust_8="13000.00000" pt_clust_9="33.65011"></scales>
<clustering>
<clus scale="   33.650">  1  9  2 -1</clus>
<clus scale="   83.005">  7  8 -1 -1</clus>
<clus scale="   91.520">  5  6 -1 -1</clus>
<clus scale="  104.836">  1  7  2 -1</clus>
<clus scale="   33.650">  1  5  2 -1</clus>
</clustering>
</event>
<event>
 9    1  0.3231311E-005  0.3881229E+03  0.7546771E-02  0.1047993E+00
         21   -1    0    0  501  502  0.00000000000E+00  0.00000000000E+00  0.21947638389E+03  0.21947638389E+03  0.00000000000E+00 0. -1.
          1   -1    0    0  502    0 -0.00000000000E+00 -0.00000000000E+00 -0.10985548541E+04  0.10985548541E+04  0.00000000000E+00 0. -1.
         23    2    1    2    0    0  0.27664511262E+03 -0.23395335543E+03 -0.65090441476E+03  0.75048472633E+03  0.91016902016E+02 0.  0.
         23    2    1    2    0    0 -0.36134400765E+03  0.22073276231E+03 -0.18003069462E+03  0.46922830331E+03  0.92041867630E+02 0.  0.
        -13    1    3    3    0    0  0.11789171948E+03 -0.54343635319E+02 -0.17815401066E+03  0.22043261949E+03  0.00000000000E+00 0.  1.
         13    1    3    3    0    0  0.15875339314E+03 -0.17960972011E+03 -0.47275040411E+03  0.53005210685E+03  0.00000000000E+00 0. -1.
        -13    1    4    4    0    0 -0.27446191762E+03  0.20920481614E+03 -0.13374203041E+03  0.37011205063E+03  0.00000000000E+00 0. -1.
         13    1    4    4    0    0 -0.86882090029E+02  0.11527946165E+02 -0.46288664206E+02  0.99116252676E+02  0.00000000000E+00 0.  1.
          1    1    1    2  501    0  0.84698895035E+02  0.13220593117E+02 -0.48143360854E+02  0.98318208369E+02  0.00000000000E+00 0. -1.
<scales pt_clust_5="13000.00000" pt_clust_6="13000.00000" pt_clust_7="13000.00000" pt_clust_8="13000.00000" pt_clust_9="85.72448"></scales>
<clustering>
<clus scale="   85.724">  1  9  2 -1</clus>
<clus scale="   91.017">  5  6 -1 -1</clus>
<clus scale="   92.042">  7  8 -1 -1</clus>
<clus scale="  387.881">  2  5  1 -1</clus>
<clus scale="   85.724">  1  5  2 -1</clus>
</clustering>
</event>
<event>
 9    1  0.3231311E-005  0.9316210E+02  0.7546771E-02  0.1297531E+00
         21   -1    0    0  501  502  0.00000000000E+00  0.00000000000E+00  0.25866334602E+02  0.25866334602E+02  0.00000000000E+00 0. -1.
         -2   -1    0    0    0  501 -0.00000000000E+00 -0.00000000000E+00 -0.46160905877E+03  0.46160905877E+03  0.00000000000E+00 0.  1.
         23    2    1    2    0    0  0.63565182380E+01 -0.10736400409E+02 -0.17450239778E+03  0.19632161257E+03  0.89080935740E+02 0.  0.
         23    2    1    2    0    0  0.19577375281E+02  0.20714847118E+01 -0.15723477664E+03  0.18361401153E+03  0.92756485343E+02 0.  0.
        -11    1    4    4    0    0  0.25010147188E+02  0.44453516758E+02 -0.99214127297E+02  0.11155745457E+03  0.00000000000E+00 0.  1.
         11    1    4    4    0    0 -0.54327719072E+01 -0.42382032046E+02 -0.58020649346E+02  0.72056556964E+02  0.00000000000E+00 0. -1.
        -11    1    3    3    0    0 -0.39555880817E+02 -0.12546165596E+01 -0.53438947044E+02  0.66497840800E+02  0.00000000000E+00 0. -1.
         11    1    3    3    0    0  0.45912399055E+02 -0.94817838495E+01 -0.12106345073E+03  0.12982377177E+03  0.00000000000E+00 0.  1.
         -2    1    1    2    0  502 -0.25933893519E+02  0.86649156973E+01 -0.10400554974E+03  0.10753976927E+03  0.00000000000E+00 0.  1.
<scales pt_clust_5="13000.00000" pt_clust_6="13000.00000" pt_clust_7="13000.00000" pt_clust_8="13000.00000" pt_clust_9="27.34316"></scales>
<clustering>
<clus scale="   27.343">  1  9  2 -1</clus>
<clus scale="   89.081">  7  8 -1 -1</clus>
<clus scale="   89.503">  2  7  1 -1</clus>
<clus scale="   92.756">  5  6 -1 -1</clus>
<clus scale="   27.343">  1  5  2 -1</clus>
</clustering>
</event>
<event>
 9    1  0.3231311E-005  0.9621577E+02  0.7546771E-02  0.1290097E+00
         21   -1    0    0  501  502  0.00000000000E+00  0.00000000000E+00  0.25214894092E+03  0.25214894092E+03  0.00000000000E+00 0. -1.
         -1   -1    0    0    0  501 -0.00000000000E+00 -0.00000000000E+00 -0.81020050753E+02  0.81020050753E+02  0.00000000000E+00 0.  1.
         23    2    1    2    0    0 -0.29584915011E+02  0.10758654431E+02  0.14704814733E+02  0.10020649577E+03  0.93989863156E+02 0.  0.
         23    2    1    2    0    0 -0.32990486940E+01  0.48043016746E+02  0.75592420455E+02  0.12773536989E+03  0.91011513070E+02 0.  0.
        -13    1    4    4    0    0  0.40064014387E+02  0.34188527886E+02  0.59475985387E+02  0.79444153501E+02  0.00000000000E+00 0. -1.
         13    1    4    4    0    0 -0.43363063081E+02  0.13854488860E+02  0.16116435068E+02  0.48291216392E+02  0.00000000000E+00 0.  1.
        -13    1    3    3    0    0 -0.50521099410E+02 -0.25993553360E+02  0.77745132656E+01  0.57345351672E+02  0.00000000000E+00 0.  1.
         13    1    3    3    0    0  0.20936184398E+02  0.36752207791E+02  0.69303014670E+01  0.42861144094E+02  0.00000000000E+00 0. -1.
         -1    1    1    2    0  502  0.32883963705E+02 -0.58801671177E+02  0.80831654978E+02  0.10522712601E+03  0.00000000000E+00 0.  1.
<scales pt_clust_5="13000.00000" pt_clust_6="13000.00000" pt_clust_7="13000.00000" pt_clust_8="13000.00000" pt_clust_9="67.37204"></scales>
<clustering>
<clus scale="   67.372">  1  9  2 -1</clus>
<clus scale="   91.012">  5  6 -1 -1</clus>
<clus scale="   93.308">  1  5  2 -1</clus>
<clus scale="   93.990">  7  8 -1 -1</clus>
<clus scale="   67.372">  1  5  2 -1</clus>
</clustering>
</event>
<event>
 9    1  0.3231311E-005  0.1386030E+03  0.7546771E-02  0.1215652E+00
         21   -1    0    0  501  502  0.00000000000E+00  0.00000000000E+00  0.27394142347E+03  0.27394142347E+03  0.00000000000E+00 0.  1.
          1   -1    0    0  502    0 -0.00000000000E+00 -0.00000000000E+00 -0.84114899630E+02  0.84114899630E+02  0.00000000000E+00 0. -1.
         23    2    1    2    0    0 -0.75613030470E+02  0.71967735180E+02  0.90819722693E+02  0.16816664197E+03  0.95577780677E+02 0.  0.
         23    2    1    2    0    0  0.83253025573E+02 -0.50624790374E+02  0.98375724525E+02  0.16721173863E+03  0.93744582197E+02 0.  0.
        -13    1    3    3    0    0 -0.28994561367E+02  0.43120020734E+02  0.99892298475E+02  0.11259881026E+03  0.00000000000E+00 0.  1.
         13    1    3    3    0    0 -0.46618469104E+02  0.28847714446E+02 -0.90725757821E+01  0.55567831716E+02  0.00000000000E+00 0. -1.
        -13    1    4    4    0    0  0.68270563295E+02 -0.70564241816E+01  0.99793607758E+02  0.12111741033E+03  0.00000000000E+00 0.  1.
         13    1    4    4    0    0  0.14982462278E+02 -0.43568366193E+02 -0.14178832330E+01  0.46094328300E+02  0.00000000000E+00 0. -1.
          1    1    1    2  501    0 -0.76399951030E+01 -0.21342944806E+02  0.63107662050E+00  0.22677942496E+02  0.00000000000E+00 0. -1.
<scales pt_clust_5="13000.00000" pt_clust_6="13000.00000" pt_clust_7="13000.00000" pt_clust_8="13000.00000" pt_clust_9="22.66917"></scales>
<clustering>
<clus scale="   22.669">  1  9  2 -1</clus>
<clus scale="   93.745">  7  8 -1 -1</clus>
<clus scale="   95.578">  5  6 -1 -1</clus>
<clus scale="  137.345">  1  7  2 -1</clus>
<clus scale="   22.669">  1  5  2 -1</clus>
</clustering>
</event>
<event>
 9    1  0.3231311E-005  0.1022363E+03  0.7546771E-02  0.1277111E+00
         -1   -1    0    0    0  501 -0.00000000000E+00  0.00000000000E+00  0.51527005504E+03  0.51527005504E+03  0.00000000000E+00 0.  1.
         21   -1    0    0  501  502  0.00000000000E+00 -0.00000000000E+00 -0.36080936579E+02  0.36080936579E+02  0.00000000000E+00 0.  1.
         23    2    1    2    0    0 -0.43081487498E+02 -0.60298545185E+01  0.16562675832E+03  0.19545131024E+03  0.94215804893E+02 0.  0.
         23    2    1    2    0    0  0.34409369544E+02 -0.19398554798E+02  0.10113153148E+03  0.14177666395E+03  0.91174158289E+02 0.  0.
        -11    1    3    3    0    0 -0.32743582587E+02  0.42641319024E+02  0.79172323831E+02  0.95700998686E+02  0.00000000000E+00 0. -1.
         11    1    3    3    0    0 -0.10337904911E+02 -0.48671173542E+02  0.86454434491E+02  0.99750311554E+02  0.00000000000E+00 0.  1.
        -11    1    4    4    0    0  0.25116825235E+02 -0.56096518820E+02  0.64626538965E+02  0.89186679904E+02  0.00000000000E+00 0.  1.
         11    1    4    4    0    0  0.92925443085E+01  0.36697964023E+02  0.36504992517E+02  0.52589984044E+02  0.00000000000E+00 0. -1.
         -1    1    1    2    0  502  0.86721179541E+01  0.25428409316E+02  0.21243082866E+03  0.21412301743E+03  0.00000000000E+00 0.  1.
<scales pt_clust_5="13000.00000" pt_clust_6="13000.00000" pt_clust_7="13000.00000" pt_clust_8="13000.00000" pt_clust_9="26.86653"></scales>
<clustering>
<clus scale="   26.867">  2  9  1 -1</clus>
<clus scale="   91.174">  7  8 -1 -1</clus>
<clus scale="   94.216">  5  6 -1 -1</clus>
<clus scale="   99.440">  2  7  1 -1</clus>
<clus scale="   26.867">  2  5  1 -1</clus>
</clustering>
</event>
<event>
 9    1  0.3231311E-005  0.1016146E+03  0.7546771E-02  0.1277107E+00
         21   -1    0    0  501  502  0.00000000000E+00  0.00000000000E+00  0.10057945192E+03  0.10057945192E+03  0.00000000000E+00 0. -1.
          3   -1    0    0  502    0 -0.00000000000E+00 -0.00000000000E+00 -0.16568374627E+03  0.16568374627E+03  0.00000000000E+00 0. -1.
         23    2    1    2    0    0  0.25483280310E+02 -0.49307101164E+02 -0.82941700070E+02  0.13498210538E+03  0.90885947003E+02 0.  0.
         23    2    1    2    0    0 -0.90194489026E-01  0.25737504133E+02  0.74220246544E+01  0.95103546260E+02  0.91253333130E+02 0.  0.
        -13    1    3    3    0    0 -0.16571490557E+02  0.13849424913E+02 -0.45509740643E+02  0.50374173572E+02  0.00000000000E+00 0.  1.
         13    1    3    3    0    0  0.42054770867E+02 -0.63156526077E+02 -0.37431959428E+02  0.84607931812E+02  0.00000000000E+00 0. -1.
        -13    1    4    4    0    0 -0.98438870365E+01  0.59158080014E+02  0.57936023371E+01  0.60250696021E+02  0.00000000000E+00 0.  1.
         13    1    4    4    0    0  0.97536925475E+01 -0.33420575881E+02  0.16284223173E+01  0.34852850239E+02  0.00000000000E+00 0. -1.
          3    1    1    2  501    0 -0.25393085821E+02  0.23569597031E+02  0.10415381059E+02  0.36177546550E+02  0.00000000000E+00 0. -1.
<scales pt_clust_5="13000.00000" pt_clust_6="13000.00000" pt_clust_7="13000.00000" pt_clust_8="13000.00000" pt_clust_9="34.64585"></scales>
<clustering>
<clus scale="   34.646">  1  9  2 -1</clus>
<clus scale="   90.886">  5  6 -1 -1</clus>
<clus scale="   91.253">  7  8 -1 -1</clus>
<clus scale="  101.285">  2  5  1 -1</clus>
<clus scale="   34.646">  1  5  2 -1</clus>
</clustering>
</event>
<event>
 9    1  0.3231311E-005  0.1275136E+03  0.7546771E-02  0.1231872E+00
         21   -1    0    0  501  502  0.00000000000E+00  0.00000000000E+00  0.49139076222E+02  0.49139076222E+02  0.00000000000E+00 0.  1.
          1   -1    0    0  502    0 -0.00000000000E+00 -0.00000000000E+00 -0.56993377290E+03  0.56993377290E+03  0.00000000000E+00 0. -1.
         23    2    1    2    0    0  0.62790020925E+02  0.55066156373E+02 -0.29684241921E+03  0.32169361872E+03  0.91632386077E+02 0.  0.
         23    2    1    2    0    0 -0.37613691214E+02 -0.97564548888E+02 -0.19955097582E+03  0.24228490704E+03  0.89150172547E+02 0.  0.
        -11    1    3    3    0    0  0.36387453788E+01 -0.22278145929E+02 -0.94265280889E+02  0.96930384477E+02  0.00000000000E+00 0.  1.
         11    1    3    3    0    0  0.59151275546E+02  0.77344302302E+02 -0.20257713832E+03  0.22476323425E+03  0.00000000000E+00 0. -1.
        -13    1    4    4    0    0 -0.20911688334E+02  0.13481275016E+02 -0.41864502187E+02  0.48699897622E+02  0.00000000000E+00 0. -1.
         13    1    4    4    0    0 -0.16702002879E+02 -0.11104582390E+03 -0.15768647363E+03  0.19358500942E+03  0.00000000000E+00 0.  1.
          1    1    1    2  501    0 -0.25176329711E+02  0.42498392515E+02 -0.24401301654E+02  0.55094323360E+02  0.00000000000E+00 0. -1.
<scales pt_clust_5="13000.00000" pt_clust_6="13000.00000" pt_clust_7="13000.00000" pt_clust_8="13000.00000" pt_clust_9="49.39596"></scales>
<clustering>
<clus scale="   49.396">  1  9  2 -1</clus>
<clus scale="   89.150">  7  8 -1 -1</clus>
<clus scale="   91.632">  5  6 -1 -1</clus>
<clus scale="  125.742">  1  7  2 -1</clus>
<clus scale="   49.396">  1  5  2 -1</clus>
</clustering>
</event>
<event>
 9    1  0.3231311E-005  0.1409599E+03  0.7546771E-02  0.1212317E+00
         -1   -1    0    0    0  501 -0.00000000000E+00  0.00000000000E+00  0.44133977213E+03  0.44133977213E+03  0.00000000000E+00 0.  1.
         21   -1    0    0  501  502  0.00000000000E+00 -0.00000000000E+00 -0.15538074722E+03  0.15538074722E+03  0.00000000000E+00 0.  1.
         23    2    1    2    0    0 -0.59093953426E+02 -0.61339295411E+02  0.15919343515E+03  0.20245987591E+03  0.91612483128E+02 0.  0.
         23    2    1    2    0    0  0.13252971326E+03  0.51334358258E+02  0.21879188593E+03  0.27610079924E+03  0.90346116440E+02 0.  0.
        -13    1    4    4    0    0  0.10262955410E+03  0.76969774932E+02  0.17786120305E+03  0.21929837933E+03  0.00000000000E+00 0.  1.
         13    1    4    4    0    0  0.29900159167E+02 -0.25635416674E+02  0.40930682885E+02  0.56802419911E+02  0.00000000000E+00 0. -1.
        -13    1    3    3    0    0 -0.79441070731E+02 -0.64168604041E+02  0.11545520496E+03  0.15413759378E+03  0.00000000000E+00 0. -1.
         13    1    3    3    0    0  0.20347117305E+02  0.28293086302E+01  0.43738230196E+02  0.48322282134E+02  0.00000000000E+00 0.  1.
         -1    1    1    2    0  502 -0.73435759839E+02  0.10004937153E+02 -0.92026296183E+02  0.11815984419E+03  0.00000000000E+00 0.  1.
<scales pt_clust_5="13000.00000" pt_clust_6="13000.00000" pt_clust_7="13000.00000" pt_clust_8="13000.00000" pt_clust_9="74.11417"></scales>
<clustering>
<clus scale="   74.114">  2  9  1 -1</clus>
<clus scale="   90.346">  5  6 -1 -1</clus>
<clus scale="   91.612">  7  8 -1 -1</clus>
<clus scale="  140.140">  2  5  1 -1</clus>
<clus scale="   74.114">  2  5  1 -1</clus>
</clustering>
</event>
<event>
 9    1  0.3231311E-005  0.9307444E+02  0.7546771E-02  0.1297366E+00
         21   -1    0    0  501  502  0.00000000000E+00  0.00000000000E+00  0.10318241236E+03  0.10318241236E+03  0.00000000000E+00 0. -1.
          2   -1    0    0  502    0 -0.00000000000E+00 -0.00000000000E+00 -0.11444926544E+03  0.11444926544E+03  0.00000000000E+00 0. -1.
         23    2    1    2    0    0 -0.71081754600E+01  0.20945831674E+02 -0.28609470093E+02  0.99036695508E+02  0.92198217203E+02 0.  0.
         23    2    1    2    0    0 -0.44233184732E+01 -0.22401769562E+01 -0.20509515519E+01  0.89286495937E+02  0.89125124490E+02 0.  0.
        -13    1    3    3    0    0 -0.19996818528E+02 -0.13952478131E+02  0.24256018647E+02  0.34393296409E+02  0.00000000000E+00 0.  1.
         13    1    3    3    0    0  0.12888643068E+02  0.34898309805E+02 -0.52865488741E+02  0.64643399100E+02  0.00000000000E+00 0. -1.
        -13    1    4    4    0    0 -0.10029203166E+02 -0.44754976524E+02  0.37273511476E+01  0.46016149191E+02  0.00000000000E+00 0.  1.
         13    1    4    4    0    0  0.56058846925E+01  0.42514799568E+02 -0.57783026996E+01  0.43270346746E+02  0.00000000000E+00 0. -1.
          2    1    1    2  501    0  0.11531493933E+02 -0.18705654718E+02  0.19393568568E+02  0.29308486357E+02  0.00000000000E+00 0. -1.
<scales pt_clust_5="13000.00000" pt_clust_6="13000.00000" pt_clust_7="13000.00000" pt_clust_8="13000.00000" pt_clust_9="21.97446"></scales>
<clustering>
<clus scale="   21.974">  1  9  2 -1</clus>
<clus scale="   89.125">  7  8 -1 -1</clus>
<clus scale="   90.031">  1  7  2 -1</clus>
<clus scale="   92.198">  5  6 -1 -1</clus>
<clus scale="   21.974">  1  5  2 -1</clus>
</clustering>
</event>
<event>
 9    1  0.3231311E-005  0.9687323E+02  0.7546771E-02  0.1287911E+00
         21   -1    0    0  501  502  0.00000000000E+00  0.00000000000E+00  0.91171815058E+02  0.91171815058E+02  0.00000000000E+00 0. -1.
          2   -1    0    0  502    0 -0.00000000000E+00 -0.00000000000E+00 -0.50276839585E+03  0.50276839585E+03  0.00000000000E+00 0. -1.
         23    2    1    2    0    0 -0.18829229171E+02 -0.32577128175E+02 -0.36010726490E+03  0.37297615443E+03  0.89544181236E+02 0.  0.
         23    2    1    2    0    0 -0.19476698619E+02  0.27537229710E+02 -0.11250448119E+03  0.14874497952E+03  0.91269764083E+02 0.  0.
        -11    1    4    4    0    0 -0.21070153778E+02 -0.31535902742E+02 -0.49562760513E+02  0.62409388490E+02  0.00000000000E+00 0. -1.
         11    1    4    4    0    0  0.15934551594E+01  0.59073132452E+02 -0.62941720679E+02  0.86335591033E+02  0.00000000000E+00 0.  1.
        -11    1    3    3    0    0 -0.50985476728E+02 -0.38691554802E+02 -0.25363459417E+03  0.26158566973E+03  0.00000000000E+00 0. -1.
         11    1    3    3    0    0  0.32156247557E+02  0.61144266272E+01 -0.10647267073E+03  0.11139048470E+03  0.00000000000E+00 0.  1.
          2    1    1    2  501    0  0.38305927790E+02  0.50398984651E+01  0.61015165294E+02  0.72219076955E+02  0.00000000000E+00 0. -1.
<scales pt_clust_5="13000.00000" pt_clust_6="13000.00000" pt_clust_7="13000.00000" pt_clust_8="13000.00000" pt_clust_9="38.63605"></scales>
<clustering>
<clus scale="   38.636">  1  9  2 -1</clus>
<clus scale="   89.544">  7  8 -1 -1</clus>
<clus scale="   91.270">  5  6 -1 -1</clus>
<clus scale="   95.249">  2  7  1 -1</clus>
<clus scale="   38.636">  1  5  2 -1</clus>
</clustering>
</event>
<event>
 9    1  0.3231311E-005  0.1139245E+03  0.7546771E-02  0.1254959E+00
         21   -1    0    0  501  502  0.00000000000E+00  0.00000000000E+00  0.88957622611E+02  0.88957622611E+02  0.00000000000E+00 0.  1.
          1   -1    0    0  502    0 -0.00000000000E+00 -0.00000000000E+00 -0.33628889593E+03  0.33628889593E+03  0.00000000000E+00 0. -1.
         23    2    1    2    0    0 -0.42099912393E+02  0.41397019623E+02 -0.24891673805E+03  0.27280422419E+03  0.94744321183E+02 0.  0.
         23    2    1    2    0    0  0.53023164494E+02 -0.66672450288E+02 -0.32077426415E+01  0.12449341836E+03  0.90728440981E+02 0.  0.
        -11    1    3    3    0    0 -0.69862675704E+02  0.36593579746E+02 -0.21315223002E+03  0.22727462837E+03  0.00000000000E+00 0. -1.
         11    1    3    3    0    0  0.27762763311E+02  0.48034398770E+01 -0.35764508027E+02  0.45529595822E+02  0.00000000000E+00 0.  1.
        -13    1    4    4    0    0 -0.23933211305E+02 -0.32114084146E+02 -0.25255387066E+01  0.40130927595E+02  0.00000000000E+00 0. -1.
         13    1    4    4    0    0  0.76956375799E+02 -0.34558366142E+02 -0.68220393489E+00  0.84362490769E+02  0.00000000000E+00 0.  1.
          1    1    1    2  501    0 -0.10923252102E+02  0.25275430666E+02  0.47932073775E+01  0.27948875984E+02  0.00000000000E+00 0. -1.
<scales pt_clust_5="13000.00000" pt_clust_6="13000.00000" pt_clust_7="13000.00000" pt_clust_8="13000.00000" pt_clust_9="27.53479"></scales>
<clustering>
<clus scale="   27.535">  1  9  2 -1</clus>
<clus scale="   90.728">  7  8 -1 -1</clus>
<clus scale="   94.744">  5  6 -1 -1</clus>
<clus scale="  110.607">  1  7  2 -1</clus>
<clus scale="   27.535">  1  5  2 -1</clus>
</clustering>
</event>
<event>
 9    1  0.3231311E-005  0.1261792E+03  0.7546771E-02  0.1233833E+00
         21   -1    0    0  501  502  0.00000000000E+00  0.00000000000E+00  0.10182944138E+03  0.10182944138E+03  0.00000000000E+00 0. -1.
         -2   -1    0    0    0  501 -0.00000000000E+00 -0.00000000000E+00 -0.49484678946E+03  0.49484678946E+03  0.00000000000E+00 0.  1.
         23    2    1    2    0    0 -0.58133625435E+02 -0.34892112566E+02 -0.17464102933E+03  0.20800712619E+03  0.90390804270E+02 0.  0.
         23    2    1    2    0    0  0.11688042830E+03  0.11701873445E+03 -0.56250028112E+02  0.19766935861E+03  0.92491572249E+02 0.  0.
        -11    1    3    3    0    0 -0.35657898336E+02 -0.45547943558E+02 -0.17374047315E+03  0.18311704696E+03  0.00000000000E+00 0.  1.
         11    1    3    3    0    0 -0.22475727099E+02  0.10655830992E+02 -0.90055617565E+00  0.24890079233E+02  0.00000000000E+00 0. -1.
        -13    1    4    4    0    0  0.14754161184E+02  0.60600389411E+02 -0.51523543336E+02  0.80899740339E+02  0.00000000000E+00 0.  1.
         13    1    4    4    0    0  0.10212626712E+03  0.56418345041E+02 -0.47264847763E+01  0.11676961827E+03  0.00000000000E+00 0. -1.
         -2    1    1    2    0  502 -0.58746802863E+02 -0.82126621887E+02 -0.16212629065E+03  0.19099974604E+03  0.00000000000E+00 0.  1.
<scales pt_clust_5="13000.00000" pt_clust_6="13000.00000" pt_clust_7="13000.00000" pt_clust_8="13000.00000" pt_clust_9="100.97514"></scales>
<clustering>
<clus scale="   90.391">  5  6 -1 -1</clus>
<clus scale="   92.492">  7  8 -1 -1</clus>
<clus scale="  100.975">  1  9  2 -1</clus>
<clus scale="  124.647">  2  5  1 -1</clus>
<clus scale="  100.975">  1  5  2 -1</clus>
</clustering>
</event>
<event>
 9    1  0.3231311E-005  0.1110234E+03  0.7546771E-02  0.1258829E+00
         21   -1    0    0  501  502  0.00000000000E+00  0.00000000000E+00  0.95563160817E+03  0.95563160817E+03  0.00000000000E+00 0. -1.
          1   -1    0    0  502    0 -0.00000000000E+00 -0.00000000000E+00 -0.40540449558E+02  0.40540449558E+02  0.00000000000E+00 0. -1.
         23    2    1    2    0    0 -0.62207567114E+02  0.50711856083E+02  0.84583434215E+02  0.14786059784E+03  0.90922633577E+02 0.  0.
         23    2    1    2    0    0  0.33369906928E+01 -0.24064072626E+02  0.31161242546E+03  0.32540785463E+03  0.90541443858E+02 0.  0.
        -11    1    4    4    0    0  0.30799102549E+02 -0.43776722110E+02  0.12851554308E+03  0.13921648943E+03  0.00000000000E+00 0. -1.
         11    1    4    4    0    0 -0.27462111856E+02  0.19712649484E+02  0.18309688238E+03  0.18619136520E+03  0.00000000000E+00 0.  1.
        -11    1    3    3    0    0 -0.84221807903E+02  0.50647573672E+02  0.61353666365E+02  0.11585664427E+03  0.00000000000E+00 0. -1.
         11    1    3    3    0    0  0.22014240789E+02  0.64282411423E-01  0.23229767850E+02  0.32003953570E+02  0.00000000000E+00 0.  1.
          1    1    1    2  501    0  0.58870576421E+02 -0.26647783457E+02  0.51889529894E+03  0.52290360526E+03  0.00000000000E+00 0. -1.
<scales pt_clust_5="13000.00000" pt_clust_6="13000.00000" pt_clust_7="13000.00000" pt_clust_8="13000.00000" pt_clust_9="64.62081"></scales>
<clustering>
<clus scale="   64.621">  1  9  2 -1</clus>
<clus scale="   90.541">  5  6 -1 -1</clus>
<clus scale="   90.923">  7  8 -1 -1</clus>
<clus scale="  110.711">  1  5  2 -1</clus>
<clus scale="   64.621">  1  5  2 -1</clus>
</clustering>
</event>
<event>
 9    1  0.3231311E-005  0.1101362E+03  0.7546771E-02  0.1260758E+00
         21   -1    0    0  501  502  0.00000000000E+00  0.00000000000E+00  0.61519108362E+03  0.61519108362E+03  0.00000000000E+00 0. -1.
          1   -1    0    0  502    0 -0.00000000000E+00 -0.00000000000E+00 -0.42627380238E+02  0.42627380238E+02  0.00000000000E+00 0. -1.
         23    2    1    2    0    0  0.44766793524E+02 -0.30031295152E+02  0.11820724945E+03  0.15848099544E+03  0.90759724565E+02 0.  0.
         23    2    1    2    0    0 -0.83172180158E+02 -0.97374623109E+01  0.16980507449E+03  0.20946505625E+03  0.89607012798E+02 0.  0.
        -11    1    3    3    0    0 -0.20585398104E+02  0.91986659386E+01  0.55063806063E+02  0.59501233671E+02  0.00000000000E+00 0.  1.
         11    1    3    3    0    0  0.65352191628E+02 -0.39229961091E+02  0.63143443387E+02  0.98979761773E+02  0.00000000000E+00 0. -1.
        -11    1    4    4    0    0  0.82147378784E+01 -0.27165992315E+02  0.28019997426E+02  0.39882243075E+02  0.00000000000E+00 0.  1.
         11    1    4    4    0    0 -0.91386918037E+02  0.17428530004E+02  0.14178507706E+03  0.16958281318E+03  0.00000000000E+00 0. -1.
          1    1    1    2  501    0  0.38405386634E+02  0.39768757463E+02  0.28455137944E+03  0.28987241216E+03  0.00000000000E+00 0. -1.
<scales pt_clust_5="13000.00000" pt_clust_6="13000.00000" pt_clust_7="13000.00000" pt_clust_8="13000.00000" pt_clust_9="55.28587"></scales>
<clustering>
<clus scale="   55.286">  1  9  2 -1</clus>
<clus scale="   89.607">  7  8 -1 -1</clus>
<clus scale="   90.760">  5  6 -1 -1</clus>
<clus scale="  109.188">  1  7  2 -1</clus>
<clus scale="   55.286">  1  5  2 -1</clus>
</clustering>
</event>
<event>
 9    1  0.3231311E-005  0.9675986E+02  0.7546771E-02  0.1287485E+00
         21   -1    0    0  501  502  0.00000000000E+00  0.00000000000E+00  0.68431882328E+02  0.68431882328E+02  0.00000000000E+00 0. -1.
          1   -1    0    0  502    0 -0.00000000000E+00 -0.00000000000E+00 -0.46513082854E+03  0.46513082854E+03  0.00000000000E+00 0. -1.
         23    2    1    2    0    0 -0.42646390924E+02  0.13556957681E+02 -0.34181054078E+03  0.35659250716E+03  0.91220965871E+02 0.  0.
         23    2    1    2    0    0 -0.90006410352E+01  0.32442158440E+01 -0.75247524473E+02  0.11896857381E+03  0.91650396292E+02 0.  0.
        -13    1    3    3    0    0  0.18764331420E+02  0.28350295663E+02 -0.74043925293E+02  0.81476022673E+02  0.00000000000E+00 0.  1.
         13    1    3    3    0    0 -0.61410722345E+02 -0.14793337981E+02 -0.26776661549E+03  0.27511648449E+03  0.00000000000E+00 0. -1.
        -13    1    4    4    0    0  0.30593115358E+02  0.24246631543E+01 -0.73131627157E+02  0.79309851779E+02  0.00000000000E+00 0.  1.
         13    1    4    4    0    0 -0.39593756393E+02  0.81955268971E+00 -0.21158973170E+01  0.39658722034E+02  0.00000000000E+00 0. -1.
          1    1    1    2  501    0  0.51647031960E+02 -0.16801173525E+02  0.20359119042E+02  0.58001629893E+02  0.00000000000E+00 0. -1.
<scales pt_clust_5="13000.00000" pt_clust_6="13000.00000" pt_clust_7="13000.00000" pt_clust_8="13000.00000" pt_clust_9="54.31110"></scales>
<clustering>
<clus scale="   54.311">  1  9  2 -1</clus>
<clus scale="   91.221">  5  6 -1 -1</clus>
<clus scale="   91.650">  7  8 -1 -1</clus>
<clus scale="   96.353">  2  5  1 -1</clus>
<clus scale="   54.311">  1  5  2 -1</clus>
</clustering>
</event>
<event>
 9    1  0.3231311E-005  0.1555688E+03  0.7546771E-02  0.1194365E+00
         21   -1    0    0  501  502  0.00000000000E+00  0.00000000000E+00  0.71995202915E+02  0.71995202915E+02  0.00000000000E+00 0.  1.
          1   -1    0    0  502    0 -0.00000000000E+00 -0.00000000000E+00 -0.82937522337E+03  0.82937522337E+03  0.00000000000E+00 0. -1.
         23    2    1    2    0    0  0.76968730604E+02  0.79820053658E+02 -0.48305273104E+03  0.50530759895E+03  0.98490619530E+02 0.  0.
         23    2    1    2    0    0 -0.10750985059E+03 -0.89025705328E+02 -0.30695363600E+03  0.35043408065E+03  0.95391645571E+02 0.  0.
        -11    1    3    3    0    0  0.24063805422E+02 -0.19587712673E+02 -0.60310093537E+02  0.67823687615E+02  0.00000000000E+00 0.  1.
         11    1    3    3    0    0  0.52904925182E+02  0.99407766331E+02 -0.42274263750E+03  0.43748391133E+03  0.00000000000E+00 0. -1.
        -11    1    4    4    0    0 -0.37961471379E+02 -0.80655543788E+02 -0.11117141260E+03  0.14249727377E+03  0.00000000000E+00 0.  1.
         11    1    4    4    0    0 -0.69548379210E+02 -0.83701615401E+01 -0.19578222340E+03  0.20793680688E+03  0.00000000000E+00 0. -1.
          1    1    1    2  501    0  0.30541119984E+02  0.92056516708E+01  0.32626346585E+02  0.45628746685E+02  0.00000000000E+00 0. -1.
<scales pt_clust_5="13000.00000" pt_clust_6="13000.00000" pt_clust_7="13000.00000" pt_clust_8="13000.00000" pt_clust_9="31.89834"></scales>
<clustering>
<clus scale="   31.898">  1  9  2 -1</clus>
<clus scale="   95.392">  7  8 -1 -1</clus>
<clus scale="   98.491">  5  6 -1 -1</clus>
<clus scale="  153.626">  1  7  2 -1</clus>
<clus scale="   31.898">  1  5  2 -1</clus>
</clustering>
</event>
<event>
 9    1  0.3231311E-005  0.2566666E+03  0.7546771E-02  0.1109240E+00
          2   -1    0    0  502    0 -0.00000000000E+00  0.00000000000E+00  0.12237022221E+04  0.12237022221E+04  0.00000000000E+00 0. -1.
         21   -1    0    0  501  502  0.00000000000E+00 -0.00000000000E+00 -0.49266301008E+03  0.49266301008E+03  0.00000000000E+00 0.  1.
         23    2    1    2    0    0  0.19225675670E+03  0.14124993560E+03  0.11357416942E+04  0.11641160527E+04  0.91338838104E+02 0.  0.
         23    2    1    2    0    0 -0.26032291305E+03 -0.11361458011E+03 -0.35550889356E+03  0.46383694241E+03  0.89899076025E+02 0.  0.
        -11    1    4    4    0    0 -0.10464117951E+03 -0.44565969405E+01 -0.95612849631E+02  0.14181486072E+03  0.00000000000E+00 0.  1.
         11    1    4    4    0    0 -0.15568173354E+03 -0.10915798317E+03 -0.25989604393E+03  0.32202208169E+03  0.00000000000E+00 0. -1.
        -11    1    3    3    0    0  0.21895950098E+02  0.63714283357E+02  0.25920129613E+03  0.26781384290E+03  0.00000000000E+00 0.  1.
         11    1    3    3    0    0  0.17036080660E+03  0.77535652242E+02  0.87654039807E+03  0.89630220977E+03  0.00000000000E+00 0. -1.
          2    1    1    2  501    0  0.68066156359E+02 -0.27635355491E+02 -0.49193588596E+02  0.88412237125E+02  0.00000000000E+00 0. -1.
<scales pt_clust_5="13000.00000" pt_clust_6="13000.00000" pt_clust_7="13000.00000" pt_clust_8="13000.00000" pt_clust_9="73.46233"></scales>
<clustering>
<clus scale="   73.462">  2  9  1 -1</clus>
<clus scale="   89.899">  5  6 -1 -1</clus>
<clus scale="   91.339">  7  8 -1 -1</clus>
<clus scale="  256.158">  2  5  1 -1</clus>
<clus scale="   73.462">  2  5  1 -1</clus>
</clustering>
</event>
<event>
 9    1  0.6008407E-005  0.9800753E+02  0.7546771E-02  0.1284656E+00
         21   -1    0    0  501  502  0.00000000000E+00  0.00000000000E+00  0.12093246780E+03  0.12093246780E+03  0.00000000000E+00 0.  1.
          2   -1    0    0  502    0 -0.00000000000E+00 -0.00000000000E+00 -0.36796696173E+03  0.36796696173E+03  0.00000000000E+00 0. -1.
         23    2    1    2    0    0  0.31540954025E+02  0.24315557954E+02 -0.31501378958E+03  0.33045390705E+03  0.91542443293E+02 0.  0.
         23    2    1    2    0    0  0.13592648188E+01 -0.42832853257E+01  0.14549137045E+02  0.92578245371E+02  0.91317358663E+02 0.  0.
        -13    1    4    4    0    0  0.43119627233E+02 -0.17175492177E+02  0.15286448095E+02  0.48866913956E+02  0.00000000000E+00 0.  1.
         13    1    4    4    0    0 -0.41760362414E+02  0.12892206851E+02 -0.73731104970E+00  0.43711331415E+02  0.00000000000E+00 0. -1.
        -13    1    3    3    0    0  0.37689122172E+02  0.55990256635E+02 -0.20722126917E+03  0.21793584645E+03  0.00000000000E+00 0. -1.
         13    1    3    3    0    0 -0.61481681474E+01 -0.31674698680E+02 -0.10779252040E+03  0.11251806061E+03  0.00000000000E+00 0.  1.
          2    1    1    2  501    0 -0.32900218844E+02 -0.20032272629E+02  0.53430158599E+02  0.65867277115E+02  0.00000000000E+00 0. -1.
<scales pt_clust_5="13000.00000" pt_clust_6="13000.00000" pt_clust_7="13000.00000" pt_clust_8="13000.00000" pt_clust_9="38.51904"></scales>
<clustering>
<clus scale="   38.519">  1  9  2 -1</clus>
<clus scale="   91.317">  5  6 -1 -1</clus>
<clus scale="   91.542">  7  8 -1 -1</clus>
<clus scale="   97.797">  1  5  2 -1</clus>
<clus scale="   38.519">  1  5  2 -1</clus>
</clustering>
</event>
<event>
 9    1  0.3231311E-005  0.1656060E+03  0.7546771E-02  0.1182722E+00
          1   -1    0    0  502    0 -0.00000000000E+00  0.00000000000E+00  0.73603535694E+03  0.73603535694E+03  0.00000000000E+00 0. -1.
         21   -1    0    0  501  502  0.00000000000E+00 -0.00000000000E+00 -0.11578452125E+03  0.11578452125E+03  0.00000000000E+00 0.  1.
         23    2    1    2    0    0 -0.13121261490E+03 -0.10507441122E+02  0.52933158260E+03  0.55301940971E+03  0.91166806170E+02 0.  0.
         23    2    1    2    0    0  0.18783135409E+03  0.29581425729E+02  0.28129965353E+02  0.21212871316E+03  0.89730806668E+02 0.  0.
        -11    1    3    3    0    0 -0.75974778599E+02 -0.41032215309E+02  0.39868076953E+03  0.40792421559E+03  0.00000000000E+00 0. -1.
         11    1    3    3    0    0 -0.55237836305E+02  0.30524774187E+02  0.13065081308E+03  0.14509519412E+03  0.00000000000E+00 0.  1.
        -11    1    4    4    0    0  0.10993907902E+03  0.61504073656E+02  0.13625815149E+02  0.12670838571E+03  0.00000000000E+00 0.  1.
         11    1    4    4    0    0  0.77892275075E+02 -0.31922647927E+02  0.14504150204E+02  0.85420327442E+02  0.00000000000E+00 0. -1.
          1    1    1    2  501    0 -0.56618739189E+02 -0.19073984607E+02  0.62789287730E+02  0.86671755317E+02  0.00000000000E+00 0. -1.
<scales pt_clust_5="13000.00000" pt_clust_6="13000.00000" pt_clust_7="13000.00000" pt_clust_8="13000.00000" pt_clust_9="59.74528"></scales>
<clustering>
<clus scale="   59.745">  2  9  1 -1</clus>
<clus scale="   89.731">  7  8 -1 -1</clus>
<clus scale="   91.167">  5  6 -1 -1</clus>
<clus scale="  164.820">  2  7  1 -1</clus>
<clus scale="   59.745">  2  5  1 -1</clus>
</clustering>
</event>
<event>
 9    1  0.3231311E-005  0.1378069E+03  0.7546771E-02  0.1219913E+00
         21   -1    0    0  501  502  0.00000000000E+00  0.00000000000E+00  0.16364268774E+03  0.16364268774E+03  0.00000000000E+00 0.  1.
          2   -1    0    0  502    0 -0.00000000000E+00 -0.00000000000E+00 -0.31509451743E+03  0.31509451743E+03  0.00000000000E+00 0. -1.
         23    2    1    2    0    0  0.11044574316E+03  0.18881137213E+02 -0.17746518088E+03  0.22893543687E+03  0.91448260258E+02 0.  0.
         23    2    1    2    0    0 -0.55814155729E+02 -0.18867097063E+02 -0.70015068363E+02  0.13932069342E+03  0.10505692974E+03 0.  0.
        -11    1    3    3    0    0  0.36142083564E+02 -0.36863005504E+02 -0.59068376926E+02  0.78448738242E+02  0.00000000000E+00 0. -1.
         11    1    3    3    0    0  0.74303659598E+02  0.55744142716E+02 -0.11839680396E+03  0.15048669863E+03  0.00000000000E+00 0.  1.
        -11    1    4    4    0    0 -0.28133036836E+02 -0.32462440865E+02  0.17610654489E+02  0.46426425450E+02  0.00000000000E+00 0.  1.
         11    1    4    4    0    0 -0.27681118893E+02  0.13595343802E+02 -0.87625722853E+02  0.92894267970E+02  0.00000000000E+00 0. -1.
          2    1    1    2  501    0 -0.54631587432E+02 -0.14040149347E-01  0.96028419557E+02  0.11048107487E+03  0.00000000000E+00 0. -1.
<scales pt_clust_5="13000.00000" pt_clust_6="13000.00000" pt_clust_7="13000.00000" pt_clust_8="13000.00000" pt_clust_9="54.63159"></scales>
<clustering>
<clus scale="   54.632">  1  9  2 -1</clus>
<clus scale="   91.448">  5  6 -1 -1</clus>
<clus scale="  105.057">  7  8 -1 -1</clus>
<clus scale="  127.736">  2  5  1 -1</clus>
<clus scale="   54.632">  1  5  2 -1</clus>
</clustering>
</event>
<event>
 9    1  0.3231311E-005  0.1029715E+03  0.7546771E-02  0.1275224E+00
         21   -1    0    0  501  502  0.00000000000E+00  0.00000000000E+00  0.16911139593E+03  0.16911139593E+03  0.00000000000E+00 0.  1.
         -3   -1    0    0    0  501 -0.00000000000E+00 -0.00000000000E+00 -0.34067628833E+03  0.34067628833E+03  0.00000000000E+00 0.  1.
         23    2    1    2    0    0  0.52230432502E+02  0.72270628319E+00 -0.24742325339E+03  0.26909249494E+03  0.91999805069E+02 0.  0.
         23    2    1    2    0    0 -0.30572954233E+02  0.10766408194E+02 -0.53289650295E+02  0.10924080586E+03  0.89683586902E+02 0.  0.
        -13    1    3    3    0    0  0.73916219292E+02  0.16006636254E+02 -0.21012366142E+03  0.22331988932E+03  0.00000000000E+00 0.  1.
         13    1    3    3    0    0 -0.21685786790E+02 -0.15283929971E+02 -0.37299591965E+02  0.45772605615E+02  0.00000000000E+00 0. -1.
        -13    1    4    4    0    0 -0.11659083063E+02  0.23500465408E+02 -0.73953915230E+02  0.78469023634E+02  0.00000000000E+00 0.  1.
         13    1    4    4    0    0 -0.18913871170E+02 -0.12734057215E+02  0.20664264935E+02  0.30771782221E+02  0.00000000000E+00 0. -1.
         -3    1    1    2    0  502 -0.21657478269E+02 -0.11489114477E+02  0.12914801128E+03  0.13145438347E+03  0.00000000000E+00 0.  1.
<scales pt_clust_5="13000.00000" pt_clust_6="13000.00000" pt_clust_7="13000.00000" pt_clust_8="13000.00000" pt_clust_9="24.51624"></scales>
<clustering>
<clus scale="   24.516">  1  9  2 -1</clus>
<clus scale="   89.684">  7  8 -1 -1</clus>
<clus scale="   92.000">  5  6 -1 -1</clus>
<clus scale="  100.907">  1  7  2 -1</clus>
<clus scale="   24.516">  1  5  2 -1</clus>
</clustering>
</event>
<event>
 9    1  0.3231311E-005  0.1103403E+03  0.7546771E-02  0.1260174E+00
         21   -1    0    0  501  502  0.00000000000E+00  0.00000000000E+00  0.20796150036E+03  0.20796150036E+03  0.00000000000E+00 0. -1.
          2   -1    0    0  502    0 -0.00000000000E+00 -0.00000000000E+00 -0.96456024996E+02  0.96456024996E+02  0.00000000000E+00 0. -1.
         23    2    1    2    0    0  0.60788101130E+01 -0.57141624470E+02 -0.27677688966E+01  0.10720959084E+03  0.90466118759E+02 0.  0.
         23    2    1    2    0    0  0.13285880137E+02  0.73170518848E+02  0.47637616239E+02  0.12598838941E+03  0.89851501636E+02 0.  0.
        -11    1    4    4    0    0 -0.14274402148E+02  0.50949757905E+02  0.67207963425E+02  0.85536815086E+02  0.00000000000E+00 0.  1.
         11    1    4    4    0    0  0.27560282285E+02  0.22220760943E+02 -0.19570347186E+02  0.40451574326E+02  0.00000000000E+00 0. -1.
        -13    1    3    3    0    0 -0.19438748165E+02 -0.67662493243E+02 -0.21782746491E+02  0.73692373871E+02  0.00000000000E+00 0. -1.
         13    1    3    3    0    0  0.25517558278E+02  0.10520868773E+02  0.19014977595E+02  0.33517216966E+02  0.00000000000E+00 0.  1.
          2    1    1    2  501    0 -0.19364690250E+02 -0.16028894378E+02  0.66635628019E+02  0.71219545105E+02  0.00000000000E+00 0. -1.
<scales pt_clust_5="13000.00000" pt_clust_6="13000.00000" pt_clust_7="13000.00000" pt_clust_8="13000.00000" pt_clust_9="25.13795"></scales>
<clustering>
<clus scale="   25.138">  1  9  2 -1</clus>
<clus scale="   89.852">  5  6 -1 -1</clus>
<clus scale="   90.466">  7  8 -1 -1</clus>
<clus scale="  109.837">  1  5  2 -1</clus>
<clus scale="   25.138">  1  5  2 -1</clus>
</clustering>
</event>
<event>
 9    1  0.3231311E-005  0.1003112E+03  0.7546771E-02  0.1279906E+00
         21   -1    0    0  501  502  0.00000000000E+00  0.00000000000E+00  0.11999573094E+03  0.11999573094E+03  0.00000000000E+00 0. -1.
         -1   -1    0    0    0  501 -0.00000000000E+00 -0.00000000000E+00 -0.22271060342E+03  0.22271060342E+03  0.00000000000E+00 0.  1.
         23    2    1    2    0    0  0.12989366992E+02  0.53859432050E+01 -0.33599093561E+02  0.98065350020E+02  0.91050435185E+02 0.  0.
         23    2    1    2    0    0 -0.97271753789E+02 -0.13442635313E+02  0.16460375295E+01  0.13429758545E+03  0.91600401144E+02 0.  0.
        -11    1    4    4    0    0 -0.15279565050E+01 -0.34271197607E+02 -0.97243583574E+01  0.35656875662E+02  0.00000000000E+00 0.  1.
         11    1    4    4    0    0 -0.95743797284E+02  0.20828562295E+02  0.11370395887E+02  0.98640709792E+02  0.00000000000E+00 0. -1.
        -13    1    3    3    0    0  0.12632349196E+02  0.33658194418E+02  0.17256859171E+02  0.39877932320E+02  0.00000000000E+00 0.  1.
         13    1    3    3    0    0  0.35701779600E+00 -0.28272251213E+02 -0.50855952732E+02  0.58187417700E+02  0.00000000000E+00 0. -1.
         -1    1    1    2    0  502  0.84282386797E+02  0.80566921075E+01 -0.70761816448E+02  0.11034339889E+03  0.00000000000E+00 0.  1.
<scales pt_clust_5="13000.00000" pt_clust_6="13000.00000" pt_clust_7="13000.00000" pt_clust_8="13000.00000" pt_clust_9="84.66663"></scales>
<clustering>
<clus scale="   84.667">  1  9  2 -1</clus>
<clus scale="   91.050">  7  8 -1 -1</clus>
<clus scale="   91.600">  5  6 -1 -1</clus>
<clus scale="   99.809">  2  7  1 -1</clus>
<clus scale="   84.667">  1  5  2 -1</clus>
</clustering>
</event>
<event>
 9    1  0.3231311E-005  0.9808214E+02  0.7546771E-02  0.1286001E+00
         -2   -1    0    0    0  501 -0.00000000000E+00  0.00000000000E+00  0.14576171773E+03  0.14576171773E+03  0.00000000000E+00 0.  1.
         21   -1    0    0  501  502  0.00000000000E+00 -0.00000000000E+00 -0.23163637459E+03  0.23163637459E+03  0.00000000000E+00 0. -1.
         23    2    1    2    0    0 -0.13574349915E+02  0.18440192193E+02  0.72492801502E+02  0.11758248737E+03  0.89700230780E+02 0.  0.
         23    2    1    2    0    0  0.29954878061E+02 -0.45897187251E+02 -0.10247155642E+02  0.10828398331E+03  0.92825483172E+02 0.  0.
        -11    1    3    3    0    0 -0.57649065702E+01  0.41970534982E+02  0.80967980445E+02  0.91381474117E+02  0.00000000000E+00 0.  1.
         11    1    3    3    0    0 -0.78094433450E+01 -0.23530342790E+02 -0.84751789431E+01  0.26201013249E+02  0.00000000000E+00 0. -1.
        -13    1    4    4    0    0  0.54899821813E+01 -0.35990835644E+02 -0.49215541653E+02  0.61218050401E+02  0.00000000000E+00 0. -1.
         13    1    4    4    0    0  0.24464895880E+02 -0.99063516074E+01  0.38968386011E+02  0.47065932912E+02  0.00000000000E+00 0.  1.
         -2    1    1    2    0  502 -0.16380528146E+02  0.27456995059E+02 -0.14812030272E+03  0.15153162164E+03  0.00000000000E+00 0.  1.
<scales pt_clust_5="13000.00000" pt_clust_6="13000.00000" pt_clust_7="13000.00000" pt_clust_8="13000.00000" pt_clust_9="31.97199"></scales>
<clustering>
<clus scale="   31.972">  2  9  1 -1</clus>
<clus scale="   89.700">  5  6 -1 -1</clus>
<clus scale="   92.825">  7  8 -1 -1</clus>
<clus scale="   95.130">  1  5  2 -1</clus>
<clus scale="   31.972">  2  5  1 -1</clus>
</clustering>
</event>
<event>
 9    1  0.3231311E-005  0.1314031E+03  0.7546771E-02  0.1228272E+00
          2   -1    0    0  502    0 -0.00000000000E+00  0.00000000000E+00  0.69252489962E+03  0.69252489962E+03  0.00000000000E+00 0. -1.
         21   -1    0    0  501  502  0.00000000000E+00 -0.00000000000E+00 -0.52299847341E+02  0.52299847341E+02  0.00000000000E+00 0. -1.
         23    2    1    2    0    0  0.32555790597E+02 -0.42338242606E+02  0.26408029459E+03  0.28778121425E+03  0.10112971371E+03 0.  0.
         23    2    1    2    0    0 -0.76047693933E+02  0.11368354681E+03  0.30859993090E+03  0.34960051659E+03  0.90991226402E+02 0.  0.
        -11    1    4    4    0    0 -0.48190868746E+02  0.94320549222E+02  0.12941968799E+03  0.16723690226E+03  0.00000000000E+00 0. -1.
         11    1    4    4    0    0 -0.27856825187E+02  0.19362997584E+02  0.17918024291E+03  0.18236361433E+03  0.00000000000E+00 0.  1.
        -13    1    3    3    0    0  0.59601345930E-01 -0.70946526930E+02  0.15740742810E+03  0.17265720853E+03  0.00000000000E+00 0.  1.
         13    1    3    3    0    0  0.32496189251E+02  0.28608284324E+02  0.10667286650E+03  0.11512400573E+03  0.00000000000E+00 0. -1.
          2    1    1    2  501    0  0.43491903336E+02 -0.71345304200E+02  0.67544826785E+02  0.10744301612E+03  0.00000000000E+00 0. -1.
<scales pt_clust_5="13000.00000" pt_clust_6="13000.00000" pt_clust_7="13000.00000" pt_clust_8="13000.00000" pt_clust_9="83.55656"></scales>
<clustering>
<clus scale="   83.557">  2  9  1 -1</clus>
<clus scale="   90.991">  5  6 -1 -1</clus>
<clus scale="  101.130">  7  8 -1 -1</clus>
<clus scale="  123.770">  2  5  1 -1</clus>
<clus scale="   83.557">  2  5  1 -1</clus>
</clustering>
</event>
<event>
 9    1  0.3231311E-005  0.9579584E+02  0.7546771E-02  0.1292639E+00
          1   -1    0    0  502    0 -0.00000000000E+00  0.00000000000E+00  0.34399557545E+03  0.34399557545E+03  0.00000000000E+00 0. -1.
         21   -1    0    0  501  502  0.00000000000E+00 -0.00000000000E+00 -0.42320865575E+02  0.42320865575E+02  0.00000000000E+00 0.  1.
         23    2    1    2    0    0  0.28471114400E+02 -0.53956395795E+01  0.13966760043E+03  0.16790983260E+03  0.88583045746E+02 0.  0.
         23    2    1    2    0    0  0.13874190356E+02  0.24289979246E+02  0.12505878737E+03  0.15911664797E+03  0.94318137773E+02 0.  0.
        -11    1    3    3    0    0 -0.39588065742E+01  0.37494103865E+02  0.42160120269E+02  0.56559311481E+02  0.00000000000E+00 0.  1.
         11    1    3    3    0    0  0.32429920974E+02 -0.42889743444E+02  0.97507480160E+02  0.11135052112E+03  0.00000000000E+00 0. -1.
        -11    1    4    4    0    0 -0.95923074640E+01  0.35893909029E+02  0.65196826035E+01  0.37721231808E+02  0.00000000000E+00 0.  1.
         11    1    4    4    0    0  0.23466497820E+02 -0.11603929784E+02  0.11853910477E+03  0.12139541616E+03  0.00000000000E+00 0. -1.
          1    1    1    2  501    0 -0.42345304756E+02 -0.18894339666E+02  0.36948322081E+02  0.59289960456E+02  0.00000000000E+00 0. -1.
<scales pt_clust_5="13000.00000" pt_clust_6="13000.00000" pt_clust_7="13000.00000" pt_clust_8="13000.00000" pt_clust_9="46.36940"></scales>
<clustering>
<clus scale="   46.369">  2  9  1 -1</clus>
<clus scale="   88.583">  5  6 -1 -1</clus>
<clus scale="   90.155">  1  5  2 -1</clus>
<clus scale="   94.318">  7  8 -1 -1</clus>
<clus scale="   46.369">  2  5  1 -1</clus>
</clustering>
</event>
<event>
 9    1  0.3231311E-005  0.1328739E+03  0.7546771E-02  0.1223377E+00
         21   -1    0    0  501  502  0.00000000000E+00  0.00000000000E+00  0.10260442871E+03  0.10260442871E+03  0.00000000000E+00 0.  1.
         -3   -1    0    0    0  501 -0.00000000000E+00 -0.00000000000E+00 -0.39089314824E+03  0.39089314824E+03  0.00000000000E+00 0.  1.
         23    2    1    2    0    0  0.36400199675E+02  0.60897364069E+02 -0.12802830701E+03  0.17279801608E+03  0.91839226257E+02 0.  0.
         23    2    1    2    0    0 -0.60168926057E+02 -0.11080693378E+03 -0.19938556121E+03  0.25297441957E+03  0.91339907511E+02 0.  0.
        -11    1    4    4    0    0 -0.50708340583E+02 -0.10904731456E+02 -0.44073002334E+02  0.68063782642E+02  0.00000000000E+00 0. -1.
         11    1    4    4    0    0 -0.94605854740E+01 -0.99902202323E+02 -0.15531255887E+03  0.18491063693E+03  0.00000000000E+00 0.  1.
        -13    1    3    3    0    0  0.33929372081E+02 -0.13225679092E+02 -0.19383841735E+02  0.41253535578E+02  0.00000000000E+00 0.  1.
         13    1    3    3    0    0  0.24708275934E+01  0.74123043162E+02 -0.10864446528E+03  0.13154448051E+03  0.00000000000E+00 0. -1.
         -3    1    1    2    0  502  0.23768726382E+02  0.49909569709E+02  0.39125148689E+02  0.67725141287E+02  0.00000000000E+00 0.  1.
<scales pt_clust_5="13000.00000" pt_clust_6="13000.00000" pt_clust_7="13000.00000" pt_clust_8="13000.00000" pt_clust_9="55.28035"></scales>
<clustering>
<clus scale="   55.280">  1  9  2 -1</clus>
<clus scale="   91.340">  5  6 -1 -1</clus>
<clus scale="   91.839">  7  8 -1 -1</clus>
<clus scale="  132.529">  1  5  2 -1</clus>
<clus scale="   55.280">  1  5  2 -1</clus>
</clustering>
</event>
<event>
 9    1  0.3231311E-005  0.1015162E+03  0.7546771E-02  0.1278449E+00
          1   -1    0    0  502    0 -0.00000000000E+00  0.00000000000E+00  0.14923456480E+03  0.14923456480E+03  0.00000000000E+00 0. -1.
         21   -1    0    0  501  502  0.00000000000E+00 -0.00000000000E+00 -0.12981314466E+03  0.12981314466E+03  0.00000000000E+00 0.  1.
         23    2    1    2    0    0 -0.29550073637E+02 -0.32957218038E+02  0.89381652458E+02  0.13538877241E+03  0.91551378065E+02 0.  0.
         23    2    1    2    0    0  0.11663230434E+02  0.44854603819E+02 -0.70001740451E+02  0.12217664968E+03  0.88763301157E+02 0.  0.
        -11    1    4    4    0    0  0.31237406335E+02  0.64876877593E+02 -0.53138360691E+02  0.89490056306E+02  0.00000000000E+00 0.  1.
         11    1    4    4    0    0 -0.19574175901E+02 -0.20022273774E+02 -0.16863379760E+02  0.32686593371E+02  0.00000000000E+00 0. -1.
        -13    1    3    3    0    0  0.31291898853E+02 -0.18297155961E+02  0.18047709537E+02  0.40493069403E+02  0.00000000000E+00 0.  1.
         13    1    3    3    0    0 -0.60841972490E+02 -0.14660062077E+02  0.71333942921E+02  0.94895703007E+02  0.00000000000E+00 0. -1.
          1    1    1    2  501    0  0.17886843203E+02 -0.11897385780E+02  0.41508135278E-01  0.21482287380E+02  0.00000000000E+00 0. -1.
<scales pt_clust_5="13000.00000" pt_clust_6="13000.00000" pt_clust_7="13000.00000" pt_clust_8="13000.00000" pt_clust_9="21.48225"></scales>
<clustering>
<clus scale="   21.482">  2  9  1 -1</clus>
<clus scale="   88.763">  5  6 -1 -1</clus>
<clus scale="   91.551">  7  8 -1 -1</clus>
<clus scale="   99.009">  2  5  1 -1</clus>
<clus scale="   21.482">  2  5  1 -1</clus>
</clustering>
</event>
<event>
 9    1  0.3231311E-005  0.1096919E+03  0.7546771E-02  0.1263489E+00
         21   -1    0    0  501  502  0.00000000000E+00  0.00000000000E+00  0.24643966696E+03  0.24643966696E+03  0.00000000000E+00 0.  1.
         -3   -1    0    0    0  501 -0.00000000000E+00 -0.00000000000E+00 -0.11233689475E+03  0.11233689475E+03  0.00000000000E+00 0.  1.
         23    2    1    2    0    0 -0.38817548122E+02  0.23531258684E+02 -0.37333259878E+02  0.10861862225E+03  0.91343914026E+02 0.  0.
         23    2    1    2    0    0  0.58223763179E+02 -0.31519972896E+02  0.51164869063E+02  0.12806955593E+03  0.96955928341E+02 0.  0.
        -13    1    4    4    0    0 -0.10713262785E+02 -0.39785508570E+02 -0.10178676632E+01  0.41215248953E+02  0.00000000000E+00 0.  1.
         13    1    4    4    0    0  0.68937025964E+02  0.82655356735E+01  0.52182736727E+02  0.86854306980E+02  0.00000000000E+00 0. -1.
        -13    1    3    3    0    0 -0.12586816283E+02  0.28435828570E+02  0.25588838097E+02  0.40271738549E+02  0.00000000000E+00 0. -1.
         13    1    3    3    0    0 -0.26230731839E+02 -0.49045698864E+01 -0.62922097975E+02  0.68346883705E+02  0.00000000000E+00 0.  1.
         -3    1    1    2    0  502 -0.19406215057E+02  0.79887142127E+01  0.12027116303E+03  0.12208838353E+03  0.00000000000E+00 0.  1.
<scales pt_clust_5="13000.00000" pt_clust_6="13000.00000" pt_clust_7="13000.00000" pt_clust_8="13000.00000" pt_clust_9="20.98620"></scales>
<clustering>
<clus scale="   20.986">  1  9  2 -1</clus>
<clus scale="   91.344">  7  8 -1 -1</clus>
<clus scale="   96.956">  5  6 -1 -1</clus>
<clus scale="  104.764">  2  7  1 -1</clus>
<clus scale="   20.986">  1  5  2 -1</clus>
</clustering>
</event>
<event>
 9    1  0.3231311E-005  0.1459669E+03  0.7546771E-02  0.1214989E+00
         21   -1    0    0  501  502  0.00000000000E+00  0.00000000000E+00  0.19437905126E+03  0.19437905126E+03  0.00000000000E+00 0. -1.
          1   -1    0    0  502    0 -0.00000000000E+00 -0.00000000000E+00 -0.58043333446E+03  0.58043333446E+03  0.00000000000E+00 0. -1.
         23    2    1    2    0    0 -0.22872471488E+02 -0.66852938138E+02 -0.21966154725E+03  0.24665712920E+03  0.87155486090E+02 0.  0.
         23    2    1    2    0    0  0.11786058494E+03  0.39954904177E+02 -0.30914097124E+03  0.35459459102E+03  0.12116794968E+03 0.  0.
        -11    1    4    4    0    0  0.11113452609E+03  0.76157178192E+02 -0.21766833027E+03  0.25598886828E+03  0.00000000000E+00 0. -1.
         11    1    4    4    0    0  0.67260588570E+01 -0.36202274015E+02 -0.91472640962E+02  0.98605722736E+02  0.00000000000E+00 0.  1.
        -11    1    3    3    0    0  0.22775745671E+02 -0.54461064590E+02 -0.81572287517E+02  0.10069151026E+03  0.00000000000E+00 0. -1.
         11    1    3    3    0    0 -0.45648217159E+02 -0.12391873548E+02 -0.13808925974E+03  0.14596561895E+03  0.00000000000E+00 0.  1.
          1    1    1    2  501    0 -0.94988113455E+02  0.26898033961E+02  0.14274823529E+03  0.17356066549E+03  0.00000000000E+00 0. -1.
<scales pt_clust_5="13000.00000" pt_clust_6="13000.00000" pt_clust_7="13000.00000" pt_clust_8="13000.00000" pt_clust_9="98.72308"></scales>
<clustering>
<clus scale="   87.155">  7  8 -1 -1</clus>
<clus scale="   98.723">  1  9  2 -1</clus>
<clus scale="  119.251">  2  7  1 -1</clus>
<clus scale="  121.168">  5  6 -1 -1</clus>
<clus scale="   98.723">  1  5  2 -1</clus>
</clustering>
</event>
<event>
 9    1  0.3231311E-005  0.1275653E+03  0.7546771E-02  0.1231165E+00
         21   -1    0    0  501  502  0.00000000000E+00  0.00000000000E+00  0.20615789522E+03  0.20615789522E+03  0.00000000000E+00 0. -1.
          1   -1    0    0  502    0 -0.00000000000E+00 -0.00000000000E+00 -0.21539737937E+03  0.21539737937E+03  0.00000000000E+00 0. -1.
         23    2    1    2    0    0 -0.97162808824E+02  0.24025869789E+02 -0.13526375571E+03  0.19133013672E+03  0.91066370138E+02 0.  0.
         23    2    1    2    0    0  0.59616557845E+02 -0.25459741189E+02  0.14903341352E+02  0.11292365416E+03  0.91254094126E+02 0.  0.
        -11    1    4    4    0    0  0.70796969640E+02  0.11619870744E+02  0.92641497541E+00  0.71750195477E+02  0.00000000000E+00 0.  1.
         11    1    4    4    0    0 -0.11180411795E+02 -0.37079611933E+02  0.13976926377E+02  0.41173458683E+02  0.00000000000E+00 0. -1.
        -13    1    3    3    0    0 -0.30617312359E+02  0.39558668869E+02 -0.10557268524E+03  0.11682422680E+03  0.00000000000E+00 0. -1.
         13    1    3    3    0    0 -0.66545496466E+02 -0.15532799080E+02 -0.29691070472E+02  0.74505909919E+02  0.00000000000E+00 0.  1.
          1    1    1    2  501    0  0.37546250979E+02  0.14338714001E+01  0.11112093021E+03  0.11730148371E+03  0.00000000000E+00 0. -1.
<scales pt_clust_5="13000.00000" pt_clust_6="13000.00000" pt_clust_7="13000.00000" pt_clust_8="13000.00000" pt_clust_9="37.57362"></scales>
<clustering>
<clus scale="   37.574">  1  9  2 -1</clus>
<clus scale="   91.066">  7  8 -1 -1</clus>
<clus scale="   91.254">  5  6 -1 -1</clus>
<clus scale="  127.431">  2  7  1 -1</clus>
<clus scale="   37.574">  1  5  2 -1</clus>
</clustering>
</event>
<event>
 9    1  0.3231311E-005  0.9827678E+02  0.7546771E-02  0.1284006E+00
         -4   -1    0    0    0  501 -0.00000000000E+00  0.00000000000E+00  0.24068331422E+03  0.24068331422E+03  0.00000000000E+00 0.  1.
         21   -1    0    0  501  502  0.00000000000E+00 -0.00000000000E+00 -0.10817353701E+03  0.10817353701E+03  0.00000000000E+00 0. -1.
         23    2    1    2    0    0 -0.48371028849E+01 -0.42312257894E+02  0.16815222255E+03  0.19426322771E+03  0.87460316469E+02 0.  0.
         23    2    1    2    0    0 -0.22027345943E+02  0.54575972836E+02  0.36920794212E+01  0.10540722141E+03  0.87368816489E+02 0.  0.
        -11    1    4    4    0    0 -0.26869364941E+02 -0.31362542340E+01 -0.28377791119E+02  0.39205840021E+02  0.00000000000E+00 0. -1.
         11    1    4    4    0    0  0.48420189977E+01  0.57712227070E+02  0.32069870541E+02  0.66201381390E+02  0.00000000000E+00 0.  1.
        -11    1    3    3    0    0 -0.27454986463E+02 -0.84387784822E+01  0.91767851127E+01  0.30152987397E+02  0.00000000000E+00 0. -1.
         11    1    3    3    0    0  0.22617883578E+02 -0.33873479412E+02  0.15897543744E+03  0.16411024031E+03  0.00000000000E+00 0.  1.
         -4    1    1    2    0  502  0.26864448828E+02 -0.12263714942E+02 -0.39334524757E+02  0.49186402113E+02  0.00000000000E+00 0.  1.
<scales pt_clust_5="13000.00000" pt_clust_6="13000.00000" pt_clust_7="13000.00000" pt_clust_8="13000.00000" pt_clust_9="29.53129"></scales>
<clustering>
<clus scale="   29.531">  2  9  1 -1</clus>
<clus scale="   87.369">  5  6 -1 -1</clus>
<clus scale="   87.460">  7  8 -1 -1</clus>
<clus scale="   98.195">  2  5  1 -1</clus>
<clus scale="   29.531">  2  5  1 -1</clus>
</clustering>
</event>
<event>
 9    1  0.3231311E-005  0.1158557E+03  0.7546771E-02  0.1251243E+00
         21   -1    0    0  501  502  0.00000000000E+00  0.00000000000E+00  0.11347124886E+03  0.11347124886E+03  0.00000000000E+00 0.  1.
         -1   -1    0    0    0  501 -0.00000000000E+00 -0.00000000000E+00 -0.19425202162E+03  0.19425202162E+03  0.00000000000E+00 0.  1.
         23    2    1    2    0    0 -0.42395218483E+02 -0.46022950744E+02 -0.97002989813E+02  0.14666340440E+03  0.90471584554E+02 0.  0.
         23    2    1    2    0    0  0.42728539674E+02  0.69614308808E+02 -0.11259051108E+02  0.12483993541E+03  0.93735602343E+02 0.  0.
        -13    1    3    3    0    0  0.14891537175E+02 -0.49534786168E+02 -0.36758529033E+02  0.63455830125E+02  0.00000000000E+00 0. -1.
         13    1    3    3    0    0 -0.57286755658E+02  0.35118354237E+01 -0.60244460780E+02  0.83207574274E+02  0.00000000000E+00 0.  1.
        -13    1    4    4    0    0  0.29152644829E+02  0.92132400617E+02 -0.16487931819E+02  0.98031157494E+02  0.00000000000E+00 0.  1.
         13    1    4    4    0    0  0.13575894845E+02 -0.22518091810E+02  0.52288807101E+01  0.26808777911E+02  0.00000000000E+00 0. -1.
         -1    1    1    2    0  502 -0.33332119054E+00 -0.23591358064E+02  0.27481268166E+02  0.36219930678E+02  0.00000000000E+00 0.  1.
<scales pt_clust_5="13000.00000" pt_clust_6="13000.00000" pt_clust_7="13000.00000" pt_clust_8="13000.00000" pt_clust_9="23.59371"></scales>
<clustering>
<clus scale="   23.594">  1  9  2 -1</clus>
<clus scale="   90.472">  5  6 -1 -1</clus>
<clus scale="   93.736">  7  8 -1 -1</clus>
<clus scale="  113.231">  2  5  1 -1</clus>
<clus scale="   23.594">  1  5  2 -1</clus>
</clustering>
</event>
<event>
 9    1  0.3231311E-005  0.1026315E+03  0.7546771E-02  0.1278165E+00
         21   -1    0    0  501  502  0.00000000000E+00  0.00000000000E+00  0.20680121557E+03  0.20680121557E+03  0.00000000000E+00 0.  1.
          3   -1    0    0  502    0 -0.00000000000E+00 -0.00000000000E+00 -0.14774198532E+03  0.14774198532E+03  0.00000000000E+00 0. -1.
         23    2    1    2    0    0 -0.33820105771E+02  0.26408528138E+02 -0.10558199839E+03  0.14380365458E+03  0.87696766034E+02 0.  0.
         23    2    1    2    0    0  0.89107973061E+01 -0.23342934540E+02  0.93551488937E+02  0.13534974193E+03  0.94569427711E+02 0.  0.
        -11    1    3    3    0    0  0.17132145413E+01 -0.30263092074E+02 -0.39348913574E+02  0.49670180646E+02  0.00000000000E+00 0.  1.
         11    1    3    3    0    0 -0.35533320313E+02  0.56671620213E+02 -0.66233084816E+02  0.94133473930E+02  0.00000000000E+00 0. -1.
        -13    1    4    4    0    0  0.21380479918E+02  0.27778554954E+02  0.97280194442E+01  0.36378666814E+02  0.00000000000E+00 0. -1.
         13    1    4    4    0    0 -0.12469682612E+02 -0.51121489494E+02  0.83823469493E+02  0.98971075120E+02  0.00000000000E+00 0.  1.
          3    1    1    2  501    0  0.24909308465E+02 -0.30655935981E+01  0.71089739708E+02  0.75389804378E+02  0.00000000000E+00 0. -1.
<scales pt_clust_5="13000.00000" pt_clust_6="13000.00000" pt_clust_7="13000.00000" pt_clust_8="13000.00000" pt_clust_9="25.09724"></scales>
<clustering>
<clus scale="   25.097">  1  9  2 -1</clus>
<clus scale="   87.697">  5  6 -1 -1</clus>
<clus scale="   94.569">  7  8 -1 -1</clus>
<clus scale="   96.336">  2  5  1 -1</clus>
<clus scale="   25.097">  1  5  2 -1</clus>
</clustering>
</event>
<event>
 9    1  0.3231311E-005  0.1214055E+03  0.7546771E-02  0.1253828E+00
          1   -1    0    0  502    0 -0.00000000000E+00  0.00000000000E+00  0.57170564920E+03  0.57170564920E+03  0.00000000000E+00 0. -1.
         21   -1    0    0  501  502  0.00000000000E+00 -0.00000000000E+00 -0.58176840597E+02  0.58176840597E+02  0.00000000000E+00 0.  1.
         23    2    1    2    0    0 -0.14081083508E+02 -0.18792464857E+02  0.32727883744E+03  0.34036416401E+03  0.90470398806E+02 0.  0.
         23    2    1    2    0    0 -0.50390586891E+02 -0.51877983427E+02  0.57192494635E+02  0.12887355994E+03  0.90038195216E+02 0.  0.
        -11    1    3    3    0    0 -0.28252396121E+02 -0.47429453968E+02  0.14206680931E+03  0.15241630260E+03  0.00000000000E+00 0.  1.
         11    1    3    3    0    0  0.14171312613E+02  0.28636989110E+02  0.18521202813E+03  0.18794786141E+03  0.00000000000E+00 0. -1.
        -13    1    4    4    0    0 -0.19344350208E+02 -0.73192957488E+02  0.26233068050E+02  0.80122323794E+02  0.00000000000E+00 0.  1.
         13    1    4    4    0    0 -0.31046236683E+02  0.21314974061E+02  0.30959426585E+02  0.48751236148E+02  0.00000000000E+00 0. -1.
          1    1    1    2  501    0  0.64471670400E+02  0.70670448284E+02  0.12905747653E+03  0.16064476584E+03  0.00000000000E+00 0. -1.
<scales pt_clust_5="13000.00000" pt_clust_6="13000.00000" pt_clust_7="13000.00000" pt_clust_8="13000.00000" pt_clust_9="81.43971"></scales>
<clustering>
<clus scale="   90.038">  7  8 -1 -1</clus>
<clus scale="   90.470">  5  6 -1 -1</clus>
<clus scale="   93.468">  1  5  2 -1</clus>
<clus scale="   81.440">  2  9  1 -1</clus>
<clus scale="   81.440">  2  5  1 -1</clus>
</clustering>
</event>
<event>
 9    1  0.3231311E-005  0.1056535E+03  0.7546771E-02  0.1270318E+00
         21   -1    0    0  501  502  0.00000000000E+00  0.00000000000E+00  0.11979755211E+03  0.11979755211E+03  0.00000000000E+00 0. -1.
          1   -1    0    0  502    0 -0.00000000000E+00 -0.00000000000E+00 -0.20786337882E+03  0.20786337882E+03  0.00000000000E+00 0. -1.
         23    2    1    2    0    0 -0.24270379151E+02 -0.14815288411E+02 -0.34310374120E+02  0.10345660987E+03  0.93367683265E+02 0.  0.
         23    2    1    2    0    0 -0.11212559671E+02  0.83056606043E+02 -0.75478881321E+02  0.14428045894E+03  0.89975930148E+02 0.  0.
        -13    1    4    4    0    0 -0.27308951147E+02 -0.73585578719E+00  0.40766137597E+01  0.27621351818E+02  0.00000000000E+00 0. -1.
         13    1    4    4    0    0  0.16096391476E+02  0.83792461830E+02 -0.79555495081E+02  0.11665910713E+03  0.00000000000E+00 0.  1.
        -13    1    3    3    0    0 -0.11471279831E+02 -0.48618142275E+02 -0.43414781955E+02  0.66182756904E+02  0.00000000000E+00 0.  1.
         13    1    3    3    0    0 -0.12799099320E+02  0.33802853864E+02  0.91044078352E+01  0.37273852964E+02  0.00000000000E+00 0. -1.
          1    1    1    2  501    0  0.35482938822E+02 -0.68241317632E+02  0.21723428727E+02  0.79923862114E+02  0.00000000000E+00 0. -1.
<scales pt_clust_5="13000.00000" pt_clust_6="13000.00000" pt_clust_7="13000.00000" pt_clust_8="13000.00000" pt_clust_9="76.91499"></scales>
<clustering>
<clus scale="   76.915">  1  9  2 -1</clus>
<clus scale="   89.976">  5  6 -1 -1</clus>
<clus scale="   93.368">  7  8 -1 -1</clus>
<clus scale="  102.668">  1  5  2 -1</clus>
<clus scale="   76.915">  1  5  2 -1</clus>
</clustering>
</event>
<event>
 9    1  0.3231311E-005  0.1015279E+03  0.7546771E-02  0.1281553E+00
         21   -1    0    0  501  502  0.00000000000E+00  0.00000000000E+00  0.74397558610E+02  0.74397558610E+02  0.00000000000E+00 0. -1.
          1   -1    0    0  502    0 -0.00000000000E+00 -0.00000000000E+00 -0.32680276511E+03  0.32680276511E+03  0.00000000000E+00 0. -1.
         23    2    1    2    0    0 -0.10060869119E+01 -0.56228364791E+01 -0.13985169688E+03  0.16681286643E+03  0.90749142063E+02 0.  0.
         23    2    1    2    0    0 -0.24283032642E+02  0.73711214663E+02 -0.41051062998E+02  0.13246510113E+03  0.99190747570E+02 0.  0.
        -11    1    4    4    0    0  0.12186638566E+02  0.86237316826E+02 -0.24281282250E+02  0.90415538712E+02  0.00000000000E+00 0. -1.
         11    1    4    4    0    0 -0.36469671208E+02 -0.12526102164E+02 -0.16769780747E+02  0.42049562421E+02  0.00000000000E+00 0.  1.
        -11    1    3    3    0    0 -0.36181955109E+02  0.10509187191E+02 -0.11452447205E+03  0.12056297769E+03  0.00000000000E+00 0. -1.
         11    1    3    3    0    0  0.35175868197E+02 -0.16132023670E+02 -0.25327224837E+02  0.46249888746E+02  0.00000000000E+00 0.  1.
          1    1    1    2  501    0  0.25289119554E+02 -0.68088378183E+02 -0.71502446613E+02  0.10192235615E+03  0.00000000000E+00 0. -1.
<scales pt_clust_5="13000.00000" pt_clust_6="13000.00000" pt_clust_7="13000.00000" pt_clust_8="13000.00000" pt_clust_9="72.63313"></scales>
<clustering>
<clus scale="   72.633">  1  9  2 -1</clus>
<clus scale="   90.749">  7  8 -1 -1</clus>
<clus scale="   93.298">  2  7  1 -1</clus>
<clus scale="   99.191">  5  6 -1 -1</clus>
<clus scale="   72.633">  1  5  2 -1</clus>
</clustering>
</event>
<event>
 9    1  0.3231311E-005  0.9532995E+02  0.7546771E-02  0.1294140E+00
         21   -1    0    0  501  502  0.00000000000E+00  0.00000000000E+00  0.54448324011E+02  0.54448324011E+02  0.00000000000E+00 0.  1.
          1   -1    0    0  502    0 -0.00000000000E+00 -0.00000000000E+00 -0.20403252635E+03  0.20403252635E+03  0.00000000000E+00 0. -1.
         23    2    1    2    0    0 -0.31056856150E+02 -0.13653446766E+02 -0.83378017918E+02  0.12783757372E+03  0.90772278040E+02 0.  0.
         23    2    1    2    0    0  0.26328221051E+02 -0.90417986411E+01 -0.45472075678E+02  0.99541228165E+02  0.84058414758E+02 0.  0.
        -11    1    4    4    0    0 -0.70776729328E+01  0.30368785199E+02 -0.34910045881E+02  0.46808843951E+02  0.00000000000E+00 0.  1.
         11    1    4    4    0    0  0.33405893984E+02 -0.39410583840E+02 -0.10562029797E+02  0.52732384214E+02  0.00000000000E+00 0. -1.
        -13    1    3    3    0    0  0.14784511722E+02 -0.14861416418E+02 -0.79043350238E+02  0.81775880929E+02  0.00000000000E+00 0. -1.
         13    1    3    3    0    0 -0.45841367872E+02  0.12079696518E+01 -0.43346676794E+01  0.46061692792E+02  0.00000000000E+00 0.  1.
          1    1    1    2  501    0  0.47286350985E+01  0.22695245407E+02 -0.20734108743E+02  0.31102048475E+02  0.00000000000E+00 0. -1.
<scales pt_clust_5="13000.00000" pt_clust_6="13000.00000" pt_clust_7="13000.00000" pt_clust_8="13000.00000" pt_clust_9="23.18264"></scales>
<clustering>
<clus scale="   23.183">  1  9  2 -1</clus>
<clus scale="   84.058">  5  6 -1 -1</clus>
<clus scale="   88.961">  1  5  2 -1</clus>
<clus scale="   90.772">  7  8 -1 -1</clus>
<clus scale="   23.183">  1  5  2 -1</clus>
</clustering>
</event>
<event>
 9    1  0.3231311E-005  0.1179108E+03  0.7546771E-02  0.1247118E+00
          2   -1    0    0  502    0 -0.00000000000E+00  0.00000000000E+00  0.77158495524E+02  0.77158495524E+02  0.00000000000E+00 0. -1.
         21   -1    0    0  501  502  0.00000000000E+00 -0.00000000000E+00 -0.47315763813E+03  0.47315763813E+03  0.00000000000E+00 0. -1.
         23    2    1    2    0    0  0.31360986441E+02 -0.64442225172E+02 -0.76577606662E+01  0.11445458057E+03  0.88909492522E+02 0.  0.
         23    2    1    2    0    0 -0.12202050917E+02  0.10280419830E+03 -0.35749020080E+03  0.38303635861E+03  0.90553934870E+02 0.  0.
        -11    1    4    4    0    0  0.23003414553E+02  0.47110865402E+01 -0.23732927415E+02  0.33385674490E+02  0.00000000000E+00 0.  1.
         11    1    4    4    0    0 -0.35205465470E+02  0.98093111756E+02 -0.33375727338E+03  0.34965068412E+03  0.00000000000E+00 0. -1.
        -13    1    3    3    0    0 -0.23293433551E+02 -0.58239836187E+01 -0.22548153248E+02  0.32938154876E+02  0.00000000000E+00 0.  1.
         13    1    3    3    0    0  0.54654419991E+02 -0.58618241554E+02  0.14890392582E+02  0.81516425698E+02  0.00000000000E+00 0. -1.
          2    1    1    2  501    0 -0.19158935523E+02 -0.38361973124E+02 -0.30851181141E+02  0.52825194464E+02  0.00000000000E+00 0. -1.
<scales pt_clust_5="13000.00000" pt_clust_6="13000.00000" pt_clust_7="13000.00000" pt_clust_8="13000.00000" pt_clust_9="42.88015"></scales>
<clustering>
<clus scale="   42.880">  2  9  1 -1</clus>
<clus scale="   88.909">  7  8 -1 -1</clus>
<clus scale="   90.554">  5  6 -1 -1</clus>
<clus scale="  116.653">  1  7  2 -1</clus>
<clus scale="   42.880">  2  5  1 -1</clus>
</clustering>
</event>
<event>
 9    1  0.3231311E-005  0.1210780E+03  0.7546771E-02  0.1241365E+00
         21   -1    0    0  501  502  0.00000000000E+00  0.00000000000E+00  0.50519111847E+02  0.50519111847E+02  0.00000000000E+00 0.  1.
          1   -1    0    0  502    0 -0.00000000000E+00 -0.00000000000E+00 -0.56562352106E+03  0.56562352106E+03  0.00000000000E+00 0. -1.
         23    2    1    2    0    0  0.55332276348E+02  0.51570827230E+02 -0.39900694551E+03  0.41616308746E+03  0.90906335196E+02 0.  0.
         23    2    1    2    0    0 -0.79498631933E+02 -0.59697929485E+02 -0.82863304701E+02  0.15809193560E+03  0.90790184339E+02 0.  0.
        -11    1    3    3    0    0  0.77898654033E+02  0.33917899534E+02 -0.34155177842E+03  0.35196056818E+03  0.00000000000E+00 0. -1.
         11    1    3    3    0    0 -0.22566377685E+02  0.17652927696E+02 -0.57455167083E+02  0.64202519285E+02  0.00000000000E+00 0.  1.
        -13    1    4    4    0    0  0.16310318369E+02 -0.29904852463E+02 -0.25160320611E+02  0.42348180827E+02  0.00000000000E+00 0. -1.
         13    1    4    4    0    0 -0.95808950302E+02 -0.29793077022E+02 -0.57702984090E+02  0.11574375477E+03  0.00000000000E+00 0.  1.
          1    1    1    2  501    0  0.24166355585E+02  0.81271022551E+01 -0.33234159002E+02  0.41887609837E+02  0.00000000000E+00 0. -1.
<scales pt_clust_5="13000.00000" pt_clust_6="13000.00000" pt_clust_7="13000.00000" pt_clust_8="13000.00000" pt_clust_9="25.49632"></scales>
<clustering>
<clus scale="   25.496">  1  9  2 -1</clus>
<clus scale="   90.790">  7  8 -1 -1</clus>
<clus scale="   90.906">  5  6 -1 -1</clus>
<clus scale="  120.991">  1  7  2 -1</clus>
<clus scale="   25.496">  1  5  2 -1</clus>
</clustering>
</event>
<event>
 9    1  0.3231311E-005  0.1127544E+03  0.7546771E-02  0.1255853E+00
         21   -1    0    0  501  502  0.00000000000E+00  0.00000000000E+00  0.36589158282E+03  0.36589158282E+03  0.00000000000E+00 0.  1.
          1   -1    0    0  502    0 -0.00000000000E+00 -0.00000000000E+00 -0.57395300418E+02  0.57395300418E+02  0.00000000000E+00 0. -1.
         23    2    1    2    0    0 -0.51804838983E+02 -0.16753858751E+02  0.67390088652E+02  0.12573902557E+03  0.91128729711E+02 0.  0.
         23    2    1    2    0    0  0.82689649783E+02  0.18035393600E+02  0.11936924262E+03  0.17194770185E+03  0.90300290614E+02 0.  0.
        -13    1    4    4    0    0  0.38103975254E+02  0.98931700410E+01  0.12033865344E+03  0.12661429326E+03  0.00000000000E+00 0.  1.
         13    1    4    4    0    0  0.44585674528E+02  0.81422235593E+01 -0.96941082458E+00  0.45333408597E+02  0.00000000000E+00 0. -1.
        -13    1    3    3    0    0 -0.52759608185E+02 -0.46941598844E+02  0.27685123054E+02  0.75852198363E+02  0.00000000000E+00 0.  1.
         13    1    3    3    0    0  0.95476920231E+00  0.30187740093E+02  0.39704965598E+02  0.49886827212E+02  0.00000000000E+00 0. -1.
          1    1    1    2  501    0 -0.30884810799E+02 -0.12815348488E+01  0.12173695113E+03  0.12560015581E+03  0.00000000000E+00 0. -1.
<scales pt_clust_5="13000.00000" pt_clust_6="13000.00000" pt_clust_7="13000.00000" pt_clust_8="13000.00000" pt_clust_9="30.91139"></scales>
<clustering>
<clus scale="   30.911">  1  9  2 -1</clus>
<clus scale="   90.300">  5  6 -1 -1</clus>
<clus scale="   91.129">  7  8 -1 -1</clus>
<clus scale="  112.086">  1  5  2 -1</clus>
<clus scale="   30.911">  1  5  2 -1</clus>
</clustering>
</event>
<event>
 9    1  0.3231311E-005  0.1409737E+03  0.7546771E-02  0.1212641E+00
         -1   -1    0    0    0  501 -0.00000000000E+00  0.00000000000E+00  0.16736841830E+03  0.16736841830E+03  0.00000000000E+00 0.  1.
         21   -1    0    0  501  502  0.00000000000E+00 -0.00000000000E+00 -0.42105242205E+03  0.42105242205E+03  0.00000000000E+00 0. -1.
         23    2    1    2    0    0  0.10288975840E+03 -0.28343684175E+01  0.11206856218E+03  0.17721223234E+03  0.90832134362E+02 0.  0.
         23    2    1    2    0    0 -0.12829087657E+03  0.34091025096E+01 -0.28174413635E+03  0.32344208042E+03  0.93620777773E+02 0.  0.
        -13    1    4    4    0    0 -0.69188448423E+02 -0.44503586691E+02 -0.15922702565E+03  0.17922292353E+03  0.00000000000E+00 0.  1.
         13    1    4    4    0    0 -0.59102428151E+02  0.47912689201E+02 -0.12251711070E+03  0.14421915689E+03  0.00000000000E+00 0. -1.
        -13    1    3    3    0    0  0.54184423033E+02  0.42461219595E+02  0.42189190967E+02  0.80739300860E+02  0.00000000000E+00 0. -1.
         13    1    3    3    0    0  0.48705335365E+02 -0.45295588012E+02  0.69879371214E+02  0.96472931476E+02  0.00000000000E+00 0.  1.
         -1    1    1    2    0  502  0.25401118176E+02 -0.57473409213E+00 -0.84008429587E+02  0.87766527592E+02  0.00000000000E+00 0.  1.
<scales pt_clust_5="13000.00000" pt_clust_6="13000.00000" pt_clust_7="13000.00000" pt_clust_8="13000.00000" pt_clust_9="25.40762"></scales>
<clustering>
<clus scale="   25.408">  2  9  1 -1</clus>
<clus scale="   90.832">  7  8 -1 -1</clus>
<clus scale="   93.621">  5  6 -1 -1</clus>
<clus scale="  139.137">  1  7  2 -1</clus>
<clus scale="   25.408">  2  5  1 -1</clus>
</clustering>
</event>
<event>
 9    1  0.3231311E-005  0.1225222E+03  0.7546771E-02  0.1239277E+00
          3   -1    0    0  502    0 -0.00000000000E+00  0.00000000000E+00  0.29104291739E+03  0.29104291739E+03  0.00000000000E+00 0. -1.
         21   -1    0    0  501  502  0.00000000000E+00 -0.00000000000E+00 -0.15213203288E+03  0.15213203288E+03  0.00000000000E+00 0. -1.
         23    2    1    2    0    0 -0.73018155677E+02 -0.20529241008E+02  0.21507607610E+03  0.24606560256E+03  0.92398384511E+02 0.  0.
         23    2    1    2    0    0  0.10449695084E+03  0.39437663300E+02 -0.53497569640E+02  0.15395539003E+03  0.91462178757E+02 0.  0.
        -11    1    4    4    0    0  0.34504833237E+02 -0.23366554706E+02 -0.42086182428E+02  0.59226903911E+02  0.00000000000E+00 0.  1.
         11    1    4    4    0    0  0.69992117598E+02  0.62804218006E+02 -0.11411387212E+02  0.94728486123E+02  0.00000000000E+00 0. -1.
        -13    1    3    3    0    0 -0.69647672334E+02 -0.52310139616E+02  0.14717603081E+03  0.17102027077E+03  0.00000000000E+00 0. -1.
         13    1    3    3    0    0 -0.33704833433E+01  0.31780898609E+02  0.67900045284E+02  0.75045331793E+02  0.00000000000E+00 0.  1.
          3    1    1    2  501    0 -0.31478795158E+02 -0.18908422292E+02 -0.22667621950E+02  0.43153957675E+02  0.00000000000E+00 0. -1.
<scales pt_clust_5="13000.00000" pt_clust_6="13000.00000" pt_clust_7="13000.00000" pt_clust_8="13000.00000" pt_clust_9="36.72115"></scales>
<clustering>
<clus scale="   36.721">  2  9  1 -1</clus>
<clus scale="   91.462">  5  6 -1 -1</clus>
<clus scale="   92.398">  7  8 -1 -1</clus>
<clus scale="  121.818">  2  5  1 -1</clus>
<clus scale="   36.721">  2  5  1 -1</clus>
</clustering>
</event>
<event>
 9    1  0.3231311E-005  0.1041255E+03  0.7546771E-02  0.1272083E+00
         21   -1    0    0  501  502  0.00000000000E+00  0.00000000000E+00  0.14029207980E+03  0.14029207980E+03  0.00000000000E+00 0. -1.
         -1   -1    0    0    0  501 -0.00000000000E+00 -0.00000000000E+00 -0.13131005804E+03  0.13131005804E+03  0.00000000000E+00 0.  1.
         23    2    1    2    0    0 -0.58320524213E+00 -0.54595792757E+02 -0.62505978806E+02  0.12359271012E+03  0.91581220195E+02 0.  0.
         23    2    1    2    0    0 -0.89487810672E+01  0.34720085519E+02  0.34000735499E+02  0.10452152661E+03  0.92103933083E+02 0.  0.
        -13    1    4    4    0    0  0.41126572208E+02  0.79845666096E+01  0.17534921180E+02  0.45416095234E+02  0.00000000000E+00 0.  1.
         13    1    4    4    0    0 -0.50075353275E+02  0.26735518910E+02  0.16465814318E+02  0.59105431376E+02  0.00000000000E+00 0. -1.
        -13    1    3    3    0    0  0.40345538026E+02 -0.50579866152E+02 -0.30759650937E+02  0.71639663765E+02  0.00000000000E+00 0.  1.
         13    1    3    3    0    0 -0.40928743268E+02 -0.40159266045E+01 -0.31746327869E+02  0.51953046351E+02  0.00000000000E+00 0. -1.
         -1    1    1    2    0  502  0.95319863093E+01  0.19875707237E+02  0.37487265061E+02  0.43487901110E+02  0.00000000000E+00 0.  1.
<scales pt_clust_5="13000.00000" pt_clust_6="13000.00000" pt_clust_7="13000.00000" pt_clust_8="13000.00000" pt_clust_9="22.04320"></scales>
<clustering>
<clus scale="   22.043">  1  9  2 -1</clus>
<clus scale="   91.581">  7  8 -1 -1</clus>
<clus scale="   92.104">  5  6 -1 -1</clus>
<clus scale="  103.663">  2  7  1 -1</clus>
<clus scale="   22.043">  1  5  2 -1</clus>
</clustering>
</event>
<event>
 9    1  0.3231311E-005  0.9881357E+02  0.7546771E-02  0.1283487E+00
         21   -1    0    0  501  502  0.00000000000E+00  0.00000000000E+00  0.37689836233E+03  0.37689836233E+03  0.00000000000E+00 0.  1.
         -3   -1    0    0    0  501 -0.00000000000E+00 -0.00000000000E+00 -0.48804723101E+02  0.48804723101E+02  0.00000000000E+00 0.  1.
         23    2    1    2    0    0  0.28946922348E+02  0.20425599415E+02  0.55829392025E+02  0.11367887608E+03  0.92470732813E+02 0.  0.
         23    2    1    2    0    0 -0.37916442516E+02 -0.46417671887E+00  0.10799548736E+03  0.14630415581E+03  0.91126333422E+02 0.  0.
        -13    1    4    4    0    0 -0.15624984834E+02  0.44322528974E+02  0.38944818978E+02  0.61035445856E+02  0.00000000000E+00 0.  1.
         13    1    4    4    0    0 -0.22291457682E+02 -0.44786705693E+02  0.69050668386E+02  0.85268709952E+02  0.00000000000E+00 0. -1.
        -13    1    3    3    0    0 -0.83487115009E+00 -0.26115353520E+02  0.52117242042E+02  0.58300219703E+02  0.00000000000E+00 0. -1.
         13    1    3    3    0    0  0.29781793498E+02  0.46540952935E+02  0.37121499829E+01  0.55378656372E+02  0.00000000000E+00 0.  1.
         -3    1    1    2    0  502  0.89695201673E+01 -0.19961422696E+02  0.16426875984E+03  0.16572005354E+03  0.00000000000E+00 0.  1.
<scales pt_clust_5="13000.00000" pt_clust_6="13000.00000" pt_clust_7="13000.00000" pt_clust_8="13000.00000" pt_clust_9="21.88403"></scales>
<clustering>
<clus scale="   21.884">  1  9  2 -1</clus>
<clus scale="   91.126">  5  6 -1 -1</clus>
<clus scale="   92.471">  7  8 -1 -1</clus>
<clus scale="   97.557">  1  5  2 -1</clus>
<clus scale="   21.884">  1  5  2 -1</clus>
</clustering>
</event>
<event>
 9    1  0.4171230E-005  0.8876509E+02  0.7546771E-02  0.1313592E+00
         21   -1    0    0  501  502  0.00000000000E+00  0.00000000000E+00  0.25680999784E+03  0.25680999784E+03  0.00000000000E+00 0.  1.
         -3   -1    0    0    0  501 -0.00000000000E+00 -0.00000000000E+00 -0.11104553290E+03  0.11104553290E+03  0.00000000000E+00 0.  1.
         23    2    1    2    0    0 -0.71580809218E+01  0.64138396168E+01 -0.74448550344E+02  0.11611542870E+03  0.88587982660E+02 0.  0.
         23    2    1    2    0    0 -0.25641346139E+02  0.34017414207E+01  0.11260677112E+03  0.13881866108E+03  0.76949888148E+02 0.  0.
        -11    1    3    3    0    0 -0.27648055202E+02  0.23095757967E+02 -0.81209994982E+02  0.88841951113E+02  0.00000000000E+00 0.  1.
         11    1    3    3    0    0  0.20489974280E+02 -0.16681918351E+02  0.67614446381E+01  0.27273477583E+02  0.00000000000E+00 0. -1.
        -13    1    4    4    0    0 -0.35922677977E+02  0.33644298905E+02  0.69817113083E+02  0.85421349328E+02  0.00000000000E+00 0.  1.
         13    1    4    4    0    0  0.10281331838E+02 -0.30242557484E+02  0.42789658036E+02  0.53397311752E+02  0.00000000000E+00 0. -1.
         -3    1    1    2    0  502  0.32799427061E+02 -0.98155810375E+01  0.10760624416E+03  0.11292144097E+03  0.00000000000E+00 0.  1.
<scales pt_clust_5="13000.00000" pt_clust_6="13000.00000" pt_clust_7="13000.00000" pt_clust_8="13000.00000" pt_clust_9="34.23665"></scales>
<clustering>
<clus scale="   34.237">  1  9  2 -1</clus>
<clus scale="   76.950">  7  8 -1 -1</clus>
<clus scale="   77.154">  1  7  2 -1</clus>
<clus scale="   88.588">  5  6 -1 -1</clus>
<clus scale="   34.237">  1  5  2 -1</clus>
</clustering>
</event>
<event>
 9    1  0.3231311E-005  0.1126679E+03  0.7546771E-02  0.1266625E+00
          1   -1    0    0  502    0 -0.00000000000E+00  0.00000000000E+00  0.14046607973E+03  0.14046607973E+03  0.00000000000E+00 0. -1.
         21   -1    0    0  501  502  0.00000000000E+00 -0.00000000000E+00 -0.11793964025E+03  0.11793964025E+03  0.00000000000E+00 0. -1.
         23    2    1    2    0    0 -0.40092185805E+02  0.61009195042E+02  0.72010406159E+02  0.11875988437E+03  0.59907481148E+02 0.  0.
         23    2    1    2    0    0  0.16549130878E+02 -0.53235936765E+02 -0.36015389445E+02  0.11143056399E+03  0.89508232130E+02 0.  0.
        -11    1    3    3    0    0 -0.39731509999E+02  0.33234518012E+02  0.74646266697E+02  0.90858082778E+02  0.00000000000E+00 0. -1.
         11    1    3    3    0    0 -0.36067580592E+00  0.27774677030E+02 -0.26358605378E+01  0.27901801590E+02  0.00000000000E+00 0.  1.
        -13    1    4    4    0    0 -0.20138828132E+02  0.12611224166E+00 -0.41816951471E+02  0.46413852815E+02  0.00000000000E+00 0.  1.
         13    1    4    4    0    0  0.36687959010E+02 -0.53362049007E+02  0.58015620260E+01  0.65016711178E+02  0.00000000000E+00 0. -1.
          1    1    1    2  501    0  0.23543054926E+02 -0.77732582771E+01 -0.13468577241E+02  0.28215271617E+02  0.00000000000E+00 0. -1.
<scales pt_clust_5="13000.00000" pt_clust_6="13000.00000" pt_clust_7="13000.00000" pt_clust_8="13000.00000" pt_clust_9="24.79312"></scales>
<clustering>
<clus scale="   24.793">  2  9  1 -1</clus>
<clus scale="   59.907">  5  6 -1 -1</clus>
<clus scale="   89.508">  7  8 -1 -1</clus>
<clus scale="   90.946">  1  5  2 -1</clus>
<clus scale="   24.793">  2  5  1 -1</clus>
</clustering>
</event>
<event>
 9    1  0.3231311E-005  0.9345443E+02  0.7546771E-02  0.1295558E+00
         21   -1    0    0  501  502  0.00000000000E+00  0.00000000000E+00  0.10145645133E+03  0.10145645133E+03  0.00000000000E+00 0. -1.
         -1   -1    0    0    0  501 -0.00000000000E+00 -0.00000000000E+00 -0.10717015665E+03  0.10717015665E+03  0.00000000000E+00 0.  1.
         23    2    1    2    0    0 -0.17716220774E+02  0.71292132504E+01 -0.28412193377E+01  0.95010388981E+02  0.93028013668E+02 0.  0.
         23    2    1    2    0    0 -0.71568194382E+00  0.29478296529E+01  0.35337313493E+01  0.91654400946E+02  0.91536004147E+02 0.  0.
        -11    1    3    3    0    0 -0.34008987298E+02 -0.28572542269E+02  0.20957486948E+02  0.49114332408E+02  0.00000000000E+00 0. -1.
         11    1    3    3    0    0  0.16292766523E+02  0.35701755519E+02 -0.23798706285E+02  0.45896056573E+02  0.00000000000E+00 0.  1.
        -13    1    4    4    0    0 -0.34078168903E+02 -0.29153668928E+02 -0.27501309887E+01  0.44931294530E+02  0.00000000000E+00 0. -1.
         13    1    4    4    0    0  0.33362486959E+02  0.32101498581E+02  0.62838623380E+01  0.46723106415E+02  0.00000000000E+00 0.  1.
         -1    1    1    2    0  502  0.18431902718E+02 -0.10077042903E+02 -0.64062173344E+01  0.21961818049E+02  0.00000000000E+00 0.  1.
<scales pt_clust_5="13000.00000" pt_clust_6="13000.00000" pt_clust_7="13000.00000" pt_clust_8="13000.00000" pt_clust_9="21.00672"></scales>
<clustering>
<clus scale="   21.007">  1  9  2 -1</clus>
<clus scale="   91.536">  7  8 -1 -1</clus>
<clus scale="   91.969">  1  7  2 -1</clus>
<clus scale="   93.028">  5  6 -1 -1</clus>
<clus scale="   21.007">  1  5  2 -1</clus>
</clustering>
</event>
<event>
 9    1  0.3231311E-005  0.1059946E+03  0.7546771E-02  0.1268605E+00
         21   -1    0    0  501  502  0.00000000000E+00  0.00000000000E+00  0.48341180159E+03  0.48341180159E+03  0.00000000000E+00 0.  1.
          2   -1    0    0  502    0 -0.00000000000E+00 -0.00000000000E+00 -0.41310199064E+02  0.41310199064E+02  0.00000000000E+00 0. -1.
         23    2    1    2    0    0 -0.30132736668E+02 -0.48830583578E+02  0.88595618338E+02  0.13969633822E+03  0.91506697079E+02 0.  0.
         23    2    1    2    0    0 -0.21606748994E+01  0.47897198838E+02  0.17545857547E+03  0.20407092946E+03  0.92522550605E+02 0.  0.
        -11    1    4    4    0    0  0.39725714203E+02 -0.68461347527E+00  0.59348219361E+02  0.71419970637E+02  0.00000000000E+00 0. -1.
         11    1    4    4    0    0 -0.41886389102E+02  0.48581812313E+02  0.11611035611E+03  0.13265095882E+03  0.00000000000E+00 0.  1.
        -13    1    3    3    0    0 -0.57009029889E+02 -0.42159952337E+02  0.86612069991E+02  0.11193364882E+03  0.00000000000E+00 0.  1.
         13    1    3    3    0    0  0.26876293221E+02 -0.66706312409E+01  0.19835483476E+01  0.27762689396E+02  0.00000000000E+00 0. -1.
          2    1    1    2  501    0  0.32293411568E+02  0.93338473948E+00  0.17804740872E+03  0.18095473299E+03  0.00000000000E+00 0. -1.
<scales pt_clust_5="13000.00000" pt_clust_6="13000.00000" pt_clust_7="13000.00000" pt_clust_8="13000.00000" pt_clust_9="32.30690"></scales>
<clustering>
<clus scale="   32.307">  1  9  2 -1</clus>
<clus scale="   91.507">  7  8 -1 -1</clus>
<clus scale="   92.523">  5  6 -1 -1</clus>
<clus scale="  105.109">  2  7  1 -1</clus>
<clus scale="   32.307">  1  5  2 -1</clus>
</clustering>
</event>
<event>
 9    1  0.3231311E-005  0.1875686E+03  0.7546771E-02  0.1161208E+00
         -1   -1    0    0    0  501 -0.00000000000E+00  0.00000000000E+00  0.16706395043E+03  0.16706395043E+03  0.00000000000E+00 0.  1.
         21   -1    0    0  501  502  0.00000000000E+00 -0.00000000000E+00 -0.30810541325E+03  0.30810541325E+03  0.00000000000E+00 0.  1.
         23    2    1    2    0    0  0.16822221770E+03 -0.52456827208E+02 -0.12815678985E+02  0.19627669300E+03  0.85497750491E+02 0.  0.
         23    2    1    2    0    0 -0.13887591265E+03  0.63524853834E+02 -0.35476842408E+02  0.18098417785E+03  0.90414269420E+02 0.  0.
        -11    1    4    4    0    0 -0.78868120905E+02  0.17816666116E+02 -0.61070572663E+02  0.10132733556E+03  0.00000000000E+00 0. -1.
         11    1    4    4    0    0 -0.60007791748E+02  0.45708187718E+02  0.25593730255E+02  0.79656842288E+02  0.00000000000E+00 0.  1.
        -13    1    3    3    0    0  0.50597045690E+02 -0.48174496714E+02 -0.32305842483E+02  0.76970842692E+02  0.00000000000E+00 0. -1.
         13    1    3    3    0    0  0.11762517201E+03 -0.42823304944E+01  0.19490163497E+02  0.11930585031E+03  0.00000000000E+00 0.  1.
         -1    1    1    2    0  502 -0.29346305048E+02 -0.11068026626E+02 -0.92748941419E+02  0.97908492827E+02  0.00000000000E+00 0.  1.
<scales pt_clust_5="13000.00000" pt_clust_6="13000.00000" pt_clust_7="13000.00000" pt_clust_8="13000.00000" pt_clust_9="31.36410"></scales>
<clustering>
<clus scale="   31.364">  2  9  1 -1</clus>
<clus scale="   85.498">  7  8 -1 -1</clus>
<clus scale="   90.414">  5  6 -1 -1</clus>
<clus scale="  185.249">  1  7  2 -1</clus>
<clus scale="   31.364">  2  5  1 -1</clus>
</clustering>
</event>
<event>
 9    1  0.3231311E-005  0.1425810E+03  0.7546771E-02  0.1212496E+00
         -2   -1    0    0    0  501 -0.00000000000E+00  0.00000000000E+00  0.16782262978E+03  0.16782262978E+03  0.00000000000E+00 0.  1.
         21   -1    0    0  501  502  0.00000000000E+00 -0.00000000000E+00 -0.23960784330E+03  0.23960784330E+03  0.00000000000E+00 0.  1.
         23    2    1    2    0    0  0.12050514960E+03  0.24779046938E+02  0.58035001631E+02  0.16206971004E+03  0.88108099798E+02 0.  0.
         23    2    1    2    0    0 -0.72227855521E+02 -0.10666160623E+02 -0.20572826656E+02  0.12509080596E+03  0.99467775901E+02 0.  0.
        -11    1    4    4    0    0 -0.20995615326E+02 -0.46976353752E+02 -0.32932569976E+02  0.61091307401E+02  0.00000000000E+00 0.  1.
         11    1    4    4    0    0 -0.51232240195E+02  0.36310193129E+02  0.12359743320E+02  0.63999498556E+02  0.00000000000E+00 0. -1.
        -13    1    3    3    0    0  0.10294486995E+03  0.54709101628E+02  0.43106034089E+02  0.12429345206E+03  0.00000000000E+00 0.  1.
         13    1    3    3    0    0  0.17560279657E+02 -0.29930054690E+02  0.14928967542E+02  0.37776257983E+02  0.00000000000E+00 0. -1.
         -2    1    1    2    0  502 -0.48277294083E+02 -0.14112886315E+02 -0.10924738850E+03  0.12026995709E+03  0.00000000000E+00 0.  1.
<scales pt_clust_5="13000.00000" pt_clust_6="13000.00000" pt_clust_7="13000.00000" pt_clust_8="13000.00000" pt_clust_9="50.29782"></scales>
<clustering>
<clus scale="   50.298">  2  9  1 -1</clus>
<clus scale="   88.108">  7  8 -1 -1</clus>
<clus scale="   99.468">  5  6 -1 -1</clus>
<clus scale="  134.902">  1  7  2 -1</clus>
<clus scale="   50.298">  2  5  1 -1</clus>
</clustering>
</event>
<event>
 9    1  0.3231311E-005  0.2267106E+03  0.7546771E-02  0.1129174E+00
          3   -1    0    0  502    0 -0.00000000000E+00  0.00000000000E+00  0.11416891226E+04  0.11416891226E+04  0.00000000000E+00 0. -1.
         21   -1    0    0  501  502  0.00000000000E+00 -0.00000000000E+00 -0.85580078301E+02  0.85580078301E+02  0.00000000000E+00 0. -1.
         23    2    1    2    0    0 -0.18961906948E+03  0.14599170157E+03  0.76623865735E+03  0.80816743520E+03  0.93509116477E+02 0.  0.
         23    2    1    2    0    0  0.71357490258E+02 -0.14303683921E+03  0.18856346196E+03  0.26335316898E+03  0.90814556310E+02 0.  0.
        -11    1    4    4    0    0 -0.21377322193E+02 -0.27520259035E+02  0.26424808975E+02  0.43733569381E+02  0.00000000000E+00 0.  1.
         11    1    4    4    0    0  0.92734812451E+02 -0.11551658018E+03  0.16213865298E+03  0.21961959960E+03  0.00000000000E+00 0. -1.
        -11    1    3    3    0    0 -0.82782251743E+02  0.56831922214E+02  0.18489767437E+03  0.21040417908E+03  0.00000000000E+00 0.  1.
         11    1    3    3    0    0 -0.10683681774E+03  0.89159779357E+02  0.58134098298E+03  0.59776325612E+03  0.00000000000E+00 0. -1.
          3    1    1    2  501    0  0.11826157922E+03 -0.29548623585E+01  0.10130692502E+03  0.15574859675E+03  0.00000000000E+00 0. -1.
<scales pt_clust_5="13000.00000" pt_clust_6="13000.00000" pt_clust_7="13000.00000" pt_clust_8="13000.00000" pt_clust_9="118.29849"></scales>
<clustering>
<clus scale="   90.815">  5  6 -1 -1</clus>
<clus scale="   93.509">  7  8 -1 -1</clus>
<clus scale="  118.298">  2  9  1 -1</clus>
<clus scale="  225.613">  2  5  1 -1</clus>
<clus scale="  118.298">  2  5  1 -1</clus>
</clustering>
</event>
<event>
 9    1  0.3231311E-005  0.1150215E+03  0.7546771E-02  0.1252169E+00
         21   -1    0    0  501  502  0.00000000000E+00  0.00000000000E+00  0.27148404939E+02  0.27148404939E+02  0.00000000000E+00 0.  1.
         -1   -1    0    0    0  501 -0.00000000000E+00 -0.00000000000E+00 -0.60096201000E+03  0.60096201000E+03  0.00000000000E+00 0.  1.
         23    2    1    2    0    0 -0.75163730604E+02  0.21935253266E+02 -0.34525231078E+03  0.36570425329E+03  0.91704422148E+02 0.  0.
         23    2    1    2    0    0  0.56240464073E+02 -0.14430198210E+02 -0.20507874156E+03  0.23132809623E+03  0.89912053963E+02 0.  0.
        -11    1    3    3    0    0 -0.71551721734E+02  0.51491812671E+02 -0.28774029214E+03  0.30094107626E+03  0.00000000000E+00 0.  1.
         11    1    3    3    0    0 -0.36120088692E+01 -0.29556559405E+02 -0.57512018638E+02  0.64763177035E+02  0.00000000000E+00 0. -1.
        -13    1    4    4    0    0  0.32890973556E+02  0.19346017017E+02 -0.22734496709E+02  0.44417810127E+02  0.00000000000E+00 0.  1.
         13    1    4    4    0    0  0.23349490517E+02 -0.33776215227E+02 -0.18234424485E+03  0.18691028611E+03  0.00000000000E+00 0. -1.
         -1    1    1    2    0  502  0.18923266531E+02 -0.75050550562E+01 -0.23482552717E+02  0.31078065411E+02  0.00000000000E+00 0.  1.
<scales pt_clust_5="13000.00000" pt_clust_6="13000.00000" pt_clust_7="13000.00000" pt_clust_8="13000.00000" pt_clust_9="20.35721"></scales>
<clustering>
<clus scale="   20.357">  1  9  2 -1</clus>
<clus scale="   89.912">  7  8 -1 -1</clus>
<clus scale="   91.704">  5  6 -1 -1</clus>
<clus scale="  113.598">  1  7  2 -1</clus>
<clus scale="   20.357">  1  5  2 -1</clus>
</clustering>
</event>
<event>
 9    1  0.3231311E-005  0.1217729E+03  0.7546771E-02  0.1240449E+00
         21   -1    0    0  501  502  0.00000000000E+00  0.00000000000E+00  0.17712345252E+03  0.17712345252E+03  0.00000000000E+00 0. -1.
          1   -1    0    0  502    0 -0.00000000000E+00 -0.00000000000E+00 -0.28047035921E+03  0.28047035921E+03  0.00000000000E+00 0. -1.
         23    2    1    2    0    0 -0.58130903276E+02  0.50191869060E+02 -0.17723705078E+03  0.21356421816E+03  0.91094881710E+02 0.  0.
         23    2    1    2    0    0  0.93286855447E+02 -0.30762140219E+02 -0.26397237298E+02  0.13599712531E+03  0.90275452281E+02 0.  0.
        -13    1    4    4    0    0  0.23280488198E+02 -0.53856401260E+02 -0.33801805179E+01  0.58770049411E+02  0.00000000000E+00 0.  1.
         13    1    4    4    0    0  0.70006367250E+02  0.23094261041E+02 -0.23017056780E+02  0.77227075895E+02  0.00000000000E+00 0. -1.
        -13    1    3    3    0    0  0.13621303721E+02  0.44339370800E+02 -0.81572602882E+02  0.93838207884E+02  0.00000000000E+00 0.  1.
         13    1    3    3    0    0 -0.71752206998E+02  0.58524982602E+01 -0.95664447896E+02  0.11972601027E+03  0.00000000000E+00 0. -1.
          1    1    1    2  501    0 -0.35155952171E+02 -0.19429728841E+02  0.10028738138E+03  0.10803246827E+03  0.00000000000E+00 0. -1.
<scales pt_clust_5="13000.00000" pt_clust_6="13000.00000" pt_clust_7="13000.00000" pt_clust_8="13000.00000" pt_clust_9="40.16784"></scales>
<clustering>
<clus scale="   40.168">  1  9  2 -1</clus>
<clus scale="   90.275">  5  6 -1 -1</clus>
<clus scale="   91.095">  7  8 -1 -1</clus>
<clus scale="  121.161">  1  5  2 -1</clus>
<clus scale="   40.168">  1  5  2 -1</clus>
</clustering>
</event>
<event>
 9    1  0.3231311E-005  0.1070068E+03  0.7546771E-02  0.1267825E+00
         21   -1    0    0  501  502  0.00000000000E+00  0.00000000000E+00  0.69238266522E+02  0.69238266522E+02  0.00000000000E+00 0.  1.
          1   -1    0    0  502    0 -0.00000000000E+00 -0.00000000000E+00 -0.23929036388E+03  0.23929036388E+03  0.00000000000E+00 0. -1.
         23    2    1    2    0    0  0.39798540697E+02  0.18641721593E+02 -0.83183779605E+02  0.13222026533E+03  0.92904358070E+02 0.  0.
         23    2    1    2    0    0 -0.67068589306E+02  0.53560550640E+01 -0.84297966823E+02  0.13989194653E+03  0.89088307287E+02 0.  0.
        -13    1    4    4    0    0 -0.76265584583E+02  0.32385414669E+02 -0.58666824867E+02  0.10152364658E+03  0.00000000000E+00 0.  1.
         13    1    4    4    0    0  0.91969952773E+01 -0.27029359605E+02 -0.25631141955E+02  0.38368299946E+02  0.00000000000E+00 0. -1.
        -13    1    3    3    0    0 -0.33840408330E+01  0.45837143902E+02 -0.17823334472E+02  0.49296721445E+02  0.00000000000E+00 0.  1.
         13    1    3    3    0    0  0.43182581530E+02 -0.27195422309E+02 -0.65360445133E+02  0.82923543883E+02  0.00000000000E+00 0. -1.
          1    1    1    2  501    0  0.27270048609E+02 -0.23997776657E+02 -0.25703509250E+01  0.36416418543E+02  0.00000000000E+00 0. -1.
<scales pt_clust_5="13000.00000" pt_clust_6="13000.00000" pt_clust_7="13000.00000" pt_clust_8="13000.00000" pt_clust_9="36.32559"></scales>
<clustering>
<clus scale="   36.326">  1  9  2 -1</clus>
<clus scale="   89.088">  5  6 -1 -1</clus>
<clus scale="   92.904">  7  8 -1 -1</clus>
<clus scale="  103.711">  1  5  2 -1</clus>
<clus scale="   36.326">  1  5  2 -1</clus>
</clustering>
</event>
<event>
 9    1  0.3231311E-005  0.1029053E+03  0.7546771E-02  0.1275591E+00
          2   -1    0    0  502    0 -0.00000000000E+00  0.00000000000E+00  0.15533544372E+03  0.15533544372E+03  0.00000000000E+00 0.  1.
         21   -1    0    0  501  502  0.00000000000E+00 -0.00000000000E+00 -0.11934190596E+03  0.11934190596E+03  0.00000000000E+00 0.  1.
         23    2    1    2    0    0  0.64790563235E+02  0.57303559623E+01  0.61395735065E+02  0.12631430712E+03  0.89192005445E+02 0.  0.
         23    2    1    2    0    0 -0.19833026931E+02  0.22636721897E+01  0.36821235960E+01  0.94224495490E+02  0.92012088049E+02 0.  0.
        -11    1    3    3    0    0  0.63701496249E+01  0.39369143727E+02  0.37638446547E+02  0.54837586950E+02  0.00000000000E+00 0. -1.
         11    1    3    3    0    0  0.58420413610E+02 -0.33638787764E+02  0.23757288519E+02  0.71476720171E+02  0.00000000000E+00 0.  1.
        -13    1    4    4    0    0  0.36944638671E+02  0.51478826980E+01  0.13990773160E+01  0.37327797151E+02  0.00000000000E+00 0. -1.
         13    1    4    4    0    0 -0.56777665602E+02 -0.28842105083E+01  0.22830462800E+01  0.56896698339E+02  0.00000000000E+00 0.  1.
          2    1    1    2  501    0 -0.44957536304E+02 -0.79940281520E+01 -0.29084320900E+02  0.54138547070E+02  0.00000000000E+00 0.  1.
<scales pt_clust_5="13000.00000" pt_clust_6="13000.00000" pt_clust_7="13000.00000" pt_clust_8="13000.00000" pt_clust_9="45.66273"></scales>
<clustering>
<clus scale="   45.663">  2  9  1 -1</clus>
<clus scale="   89.192">  5  6 -1 -1</clus>
<clus scale="   92.012">  7  8 -1 -1</clus>
<clus scale="  100.392">  1  5  2 -1</clus>
<clus scale="   45.663">  2  5  1 -1</clus>
</clustering>
</event>
<event>
 9    1  0.3231311E-005  0.1222490E+03  0.7546771E-02  0.1245688E+00
          4   -1    0    0  502    0 -0.00000000000E+00  0.00000000000E+00  0.10613478918E+03  0.10613478918E+03  0.00000000000E+00 0. -1.
         21   -1    0    0  501  502  0.00000000000E+00 -0.00000000000E+00 -0.27078819001E+03  0.27078819001E+03  0.00000000000E+00 0. -1.
         23    2    1    2    0    0  0.10312282236E+02  0.88799552401E+02  0.17427686278E+02  0.11522343496E+03  0.70576285278E+02 0.  0.
         23    2    1    2    0    0  0.50396703911E+02 -0.58116891751E+02 -0.12602058237E+03  0.17355314977E+03  0.91225587108E+02 0.  0.
        -11    1    4    4    0    0  0.35665368774E+02  0.17916193868E+02 -0.28612592648E+02  0.49108950208E+02  0.00000000000E+00 0.  1.
         11    1    4    4    0    0  0.14731335137E+02 -0.76033085619E+02 -0.97407989720E+02  0.12444419956E+03  0.00000000000E+00 0. -1.
        -13    1    3    3    0    0 -0.18046065754E+02  0.18015735602E+02 -0.17929301949E+02  0.31171895785E+02  0.00000000000E+00 0.  1.
         13    1    3    3    0    0  0.28358347990E+02  0.70783816799E+02  0.35356988227E+02  0.84051539176E+02  0.00000000000E+00 0. -1.
          4    1    1    2  501    0 -0.60708986147E+02 -0.30682660651E+02 -0.56060504739E+02  0.88146394454E+02  0.00000000000E+00 0. -1.
<scales pt_clust_5="13000.00000" pt_clust_6="13000.00000" pt_clust_7="13000.00000" pt_clust_8="13000.00000" pt_clust_9="68.02210"></scales>
<clustering>
<clus scale="   68.022">  2  9  1 -1</clus>
<clus scale="   70.576">  7  8 -1 -1</clus>
<clus scale="   91.226">  5  6 -1 -1</clus>
<clus scale="  107.721">  1  7  2 -1</clus>
<clus scale="   68.022">  2  5  1 -1</clus>
</clustering>
</event>
<event>
 9    1  0.3231311E-005  0.1004570E+03  0.7546771E-02  0.1280177E+00
         -3   -1    0    0    0  501 -0.00000000000E+00  0.00000000000E+00  0.31502186047E+02  0.31502186047E+02  0.00000000000E+00 0.  1.
         21   -1    0    0  501  502  0.00000000000E+00 -0.00000000000E+00 -0.94580245389E+03  0.94580245389E+03  0.00000000000E+00 0.  1.
         23    2    1    2    0    0 -0.32041016549E+02 -0.59974439526E+01 -0.80240950080E+02  0.12599719122E+03  0.91510032516E+02 0.  0.
         23    2    1    2    0    0  0.64909191853E+02 -0.32212670594E+02 -0.52066744653E+03  0.53388849093E+03  0.93228061993E+02 0.  0.
        -11    1    4    4    0    0  0.14166631788E+01 -0.49689915184E+02 -0.17122653440E+03  0.17829644048E+03  0.00000000000E+00 0.  1.
         11    1    4    4    0    0  0.63492528675E+02  0.17477244590E+02 -0.34944091213E+03  0.35559205045E+03  0.00000000000E+00 0. -1.
        -13    1    3    3    0    0 -0.57627664436E+02  0.19199947448E+02 -0.56432817072E+02  0.82911088119E+02  0.00000000000E+00 0.  1.
         13    1    3    3    0    0  0.25586647887E+02 -0.25197391401E+02 -0.23808133008E+02  0.43086103106E+02  0.00000000000E+00 0. -1.
         -3    1    1    2    0  502 -0.32868175304E+02  0.38210114547E+02 -0.31339187123E+03  0.31741895778E+03  0.00000000000E+00 0.  1.
<scales pt_clust_5="13000.00000" pt_clust_6="13000.00000" pt_clust_7="13000.00000" pt_clust_8="13000.00000" pt_clust_9="50.40168"></scales>
<clustering>
<clus scale="   50.402">  2  9  1 -1</clus>
<clus scale="   91.510">  7  8 -1 -1</clus>
<clus scale="   93.228">  5  6 -1 -1</clus>
<clus scale="   98.865">  1  7  2 -1</clus>
<clus scale="   50.402">  2  5  1 -1</clus>
</clustering>
</event>
<event>
 9    1  0.3231311E-005  0.1138480E+03  0.7546771E-02  0.1255503E+00
         -1   -1    0    0    0  501 -0.00000000000E+00  0.00000000000E+00  0.10421248140E+03  0.10421248140E+03  0.00000000000E+00 0.  1.
         21   -1    0    0  501  502  0.00000000000E+00 -0.00000000000E+00 -0.17395909898E+03  0.17395909898E+03  0.00000000000E+00 0. -1.
         23    2    1    2    0    0  0.18653614016E+02 -0.74206680211E+02  0.16570095715E+02  0.11599144968E+03  0.85585393751E+02 0.  0.
         23    2    1    2    0    0 -0.12905334368E+02  0.54160612683E+02 -0.44631387500E+02  0.11556946744E+03  0.90908863339E+02 0.  0.
        -11    1    3    3    0    0  0.99985586418E+01  0.17567930205E+02  0.12402401675E+02  0.23715457278E+02  0.00000000000E+00 0.  1.
         11    1    3    3    0    0  0.86550553740E+01 -0.91774610415E+02  0.41676940398E+01  0.92275992403E+02  0.00000000000E+00 0. -1.
        -11    1    4    4    0    0 -0.47828170489E+02  0.49398424563E+02 -0.17120873750E+02  0.70858045130E+02  0.00000000000E+00 0.  1.
         11    1    4    4    0    0  0.34922836122E+02  0.47621881201E+01 -0.27510513750E+02  0.44711422313E+02  0.00000000000E+00 0. -1.
         -1    1    1    2    0  502 -0.57482796482E+01  0.20046067527E+02 -0.41685325797E+02  0.46610663254E+02  0.00000000000E+00 0.  1.
<scales pt_clust_5="13000.00000" pt_clust_6="13000.00000" pt_clust_7="13000.00000" pt_clust_8="13000.00000" pt_clust_9="20.85396"></scales>
<clustering>
<clus scale="   20.854">  2  9  1 -1</clus>
<clus scale="   85.585">  5  6 -1 -1</clus>
<clus scale="   90.909">  7  8 -1 -1</clus>
<clus scale="  109.644">  1  5  2 -1</clus>
<clus scale="   20.854">  2  5  1 -1</clus>
</clustering>
</event>
<event>
 9    1  0.3621278E-005  0.1101276E+03  0.7546771E-02  0.1263632E+00
          2   -1    0    0  502    0 -0.00000000000E+00  0.00000000000E+00  0.20439584380E+03  0.20439584380E+03  0.00000000000E+00 0. -1.
         21   -1    0    0  501  502  0.00000000000E+00 -0.00000000000E+00 -0.44294483928E+03  0.44294483928E+03  0.00000000000E+00 0. -1.
         23    2    1    2    0    0 -0.24875848427E+02  0.13519577536E+02  0.88472441737E+02  0.13530101343E+03  0.98373799748E+02 0.  0.
         23    2    1    2    0    0  0.69184041075E+02 -0.62294524309E+02  0.42509312876E+02  0.13667959367E+03  0.90593765497E+02 0.  0.
        -11    1    4    4    0    0 -0.88592862387E+01 -0.49717742725E+02  0.11706019304E+02  0.51839866727E+02  0.00000000000E+00 0.  1.
         11    1    4    4    0    0  0.78043327313E+02 -0.12576781583E+02  0.30803293572E+02  0.84839726945E+02  0.00000000000E+00 0. -1.
        -13    1    3    3    0    0 -0.59891449272E+02  0.54082898579E+01  0.31363106200E+02  0.67822413151E+02  0.00000000000E+00 0.  1.
         13    1    3    3    0    0  0.35015600845E+02  0.81112876782E+01  0.57109335537E+02  0.67478600280E+02  0.00000000000E+00 0. -1.
          2    1    1    2  501    0 -0.44308192647E+02  0.48774946772E+02 -0.36953075009E+03  0.37536007597E+03  0.00000000000E+00 0. -1.
<scales pt_clust_5="13000.00000" pt_clust_6="13000.00000" pt_clust_7="13000.00000" pt_clust_8="13000.00000" pt_clust_9="65.89546"></scales>
<clustering>
<clus scale="   65.895">  2  9  1 -1</clus>
<clus scale="   90.594">  5  6 -1 -1</clus>
<clus scale="   98.374">  7  8 -1 -1</clus>
<clus scale="  103.237">  2  5  1 -1</clus>
<clus scale="   65.895">  2  5  1 -1</clus>
</clustering>
</event>
<event>
 9    1  0.3231311E-005  0.1843949E+03  0.7546771E-02  0.1163749E+00
          1   -1    0    0  502    0 -0.00000000000E+00  0.00000000000E+00  0.13275415603E+04  0.13275415603E+04  0.00000000000E+00 0. -1.
         21   -1    0    0  501  502  0.00000000000E+00 -0.00000000000E+00 -0.50059337269E+02  0.50059337269E+02  0.00000000000E+00 0. -1.
         23    2    1    2    0    0  0.15747676099E+03 -0.54635739595E+02  0.46140383884E+03  0.49913161045E+03  0.91950354854E+02 0.  0.
         23    2    1    2    0    0 -0.16233160161E+03 -0.69539598055E+02  0.44984087072E+03  0.49172259970E+03  0.90813002966E+02 0.  0.
        -11    1    3    3    0    0  0.48441765064E+02 -0.32517655532E-01  0.48305025783E+02  0.68410387924E+02  0.00000000000E+00 0.  1.
         11    1    3    3    0    0  0.10903499593E+03 -0.54603221940E+02  0.41309881306E+03  0.43072122253E+03  0.00000000000E+00 0. -1.
        -13    1    4    4    0    0 -0.31611314660E+02 -0.32653826260E+02  0.42089454453E+02  0.61944085756E+02  0.00000000000E+00 0.  1.
         13    1    4    4    0    0 -0.13072028695E+03 -0.36885771794E+02  0.40775141626E+03  0.42977851394E+03  0.00000000000E+00 0. -1.
          1    1    1    2  501    0  0.48548406169E+01  0.12417533765E+03  0.36623751346E+03  0.38674668741E+03  0.00000000000E+00 0. -1.
<scales pt_clust_5="13000.00000" pt_clust_6="13000.00000" pt_clust_7="13000.00000" pt_clust_8="13000.00000" pt_clust_9="124.27027"></scales>
<clustering>
<clus scale="   90.813">  7  8 -1 -1</clus>
<clus scale="   91.950">  5  6 -1 -1</clus>
<clus scale="  124.270">  2  9  1 -1</clus>
<clus scale="  183.830">  2  7  1 -1</clus>
<clus scale="  124.270">  2  5  1 -1</clus>
</clustering>
</event>
<event>
 9    1  0.3231311E-005  0.9210337E+02  0.7546771E-02  0.1298939E+00
         21   -1    0    0  501  502  0.00000000000E+00  0.00000000000E+00  0.30229012907E+02  0.30229012907E+02  0.00000000000E+00 0. -1.
          3   -1    0    0  502    0 -0.00000000000E+00 -0.00000000000E+00 -0.58639769156E+03  0.58639769156E+03  0.00000000000E+00 0. -1.
         23    2    1    2    0    0 -0.19648928000E+02  0.86700598516E+01 -0.41425965698E+03  0.42441385559E+03  0.89748577176E+02 0.  0.
         23    2    1    2    0    0  0.30717951092E+01 -0.28712938344E+02 -0.13769873526E+03  0.16586432282E+03  0.87841693639E+02 0.  0.
        -11    1    4    4    0    0  0.22285622641E+02 -0.16478602339E+02 -0.14816542968E+01  0.27755875252E+02  0.00000000000E+00 0.  1.
         11    1    4    4    0    0 -0.19213827532E+02 -0.12234336005E+02 -0.13621708096E+03  0.13810844757E+03  0.00000000000E+00 0. -1.
        -13    1    3    3    0    0 -0.23579969382E+02  0.47095782571E+02 -0.20771629889E+03  0.21428973031E+03  0.00000000000E+00 0. -1.
         13    1    3    3    0    0  0.39310413820E+01 -0.38425722719E+02 -0.20654335809E+03  0.21012412528E+03  0.00000000000E+00 0.  1.
          3    1    1    2  501    0  0.16577132891E+02  0.20042878492E+02 -0.42102864086E+01  0.26348526046E+02  0.00000000000E+00 0. -1.
<scales pt_clust_5="13000.00000" pt_clust_6="13000.00000" pt_clust_7="13000.00000" pt_clust_8="13000.00000" pt_clust_9="26.00997"></scales>
<clustering>
<clus scale="   26.010">  1  9  2 -1</clus>
<clus scale="   87.842">  5  6 -1 -1</clus>
<clus scale="   89.749">  7  8 -1 -1</clus>
<clus scale="   90.246">  1  5  2 -1</clus>
<clus scale="   26.010">  1  5  2 -1</clus>
</clustering>
</event>
<event>
 9    1  0.3231311E-005  0.1703415E+03  0.7546771E-02  0.1178683E+00
         -1   -1    0    0    0  501 -0.00000000000E+00  0.00000000000E+00  0.52663111803E+03  0.52663111803E+03  0.00000000000E+00 0.  1.
         21   -1    0    0  501  502  0.00000000000E+00 -0.00000000000E+00 -0.44110790301E+03  0.44110790301E+03  0.00000000000E+00 0.  1.
         23    2    1    2    0    0  0.79047395768E+02  0.14014801394E+03  0.42382059134E+03  0.46228355899E+03  0.90510986505E+02 0.  0.
         23    2    1    2    0    0  0.34323038107E+02 -0.11108208016E+03  0.55795521928E+01  0.14220757734E+03  0.81698005930E+02 0.  0.
        -11    1    3    3    0    0  0.22162915935E+01  0.63512125453E+02  0.82572739422E+02  0.10419673375E+03  0.00000000000E+00 0. -1.
         11    1    3    3    0    0  0.76831104175E+02  0.76635888491E+02  0.34124785191E+03  0.35808682524E+03  0.00000000000E+00 0.  1.
        -13    1    4    4    0    0  0.22277664391E+02 -0.92127563917E+02  0.38543830575E+02  0.10232013115E+03  0.00000000000E+00 0.  1.
         13    1    4    4    0    0  0.12045373716E+02 -0.18954516240E+02 -0.32964278382E+02  0.39887446184E+02  0.00000000000E+00 0. -1.
         -1    1    1    2    0  502 -0.11337043388E+03 -0.29065933786E+02 -0.34387692851E+03  0.36324788471E+03  0.00000000000E+00 0.  1.
<scales pt_clust_5="13000.00000" pt_clust_6="13000.00000" pt_clust_7="13000.00000" pt_clust_8="13000.00000" pt_clust_9="117.03710"></scales>
<clustering>
<clus scale="   81.698">  7  8 -1 -1</clus>
<clus scale="   90.511">  5  6 -1 -1</clus>
<clus scale="  117.037">  2  9  1 -1</clus>
<clus scale="  165.827">  2  7  1 -1</clus>
<clus scale="  117.037">  2  5  1 -1</clus>
</clustering>
</event>
<event>
 9    1  0.3231311E-005  0.1728356E+03  0.7546771E-02  0.1175318E+00
          1   -1    0    0  502    0 -0.00000000000E+00  0.00000000000E+00  0.10080260048E+04  0.10080260048E+04  0.00000000000E+00 0. -1.
         21   -1    0    0  501  502  0.00000000000E+00 -0.00000000000E+00 -0.90157376058E+02  0.90157376058E+02  0.00000000000E+00 0.  1.
         23    2    1    2    0    0 -0.18650695931E+02 -0.14393550069E+03  0.86608649284E+03  0.88296319675E+03  0.91939746153E+02 0.  0.
         23    2    1    2    0    0 -0.40778038721E+01  0.15776267489E+03  0.52396440148E+02  0.18860904324E+03  0.89007270361E+02 0.  0.
        -11    1    3    3    0    0  0.19633284289E+02 -0.12920915148E+03  0.67163390151E+03  0.68423137047E+03  0.00000000000E+00 0.  1.
         11    1    3    3    0    0 -0.38283980220E+02 -0.14726349207E+02  0.19445259133E+03  0.19873182628E+03  0.00000000000E+00 0. -1.
        -13    1    4    4    0    0  0.25102893759E+02  0.14587935395E+03  0.33156173887E+02  0.15169137434E+03  0.00000000000E+00 0.  1.
         13    1    4    4    0    0 -0.29180697631E+02  0.11883320947E+02  0.19240266261E+02  0.36917668896E+02  0.00000000000E+00 0. -1.
          1    1    1    2  501    0  0.22728499803E+02 -0.13827174202E+02 -0.61430422360E+00  0.26611140888E+02  0.00000000000E+00 0. -1.
<scales pt_clust_5="13000.00000" pt_clust_6="13000.00000" pt_clust_7="13000.00000" pt_clust_8="13000.00000" pt_clust_9="26.60405"></scales>
<clustering>
<clus scale="   26.604">  2  9  1 -1</clus>
<clus scale="   89.007">  7  8 -1 -1</clus>
<clus scale="   91.940">  5  6 -1 -1</clus>
<clus scale="  171.294">  2  7  1 -1</clus>
<clus scale="   26.604">  2  5  1 -1</clus>
</clustering>
</event>
<event>
 9    1  0.3231311E-005  0.9406963E+02  0.7546771E-02  0.1295405E+00
          2   -1    0    0  502    0 -0.00000000000E+00  0.00000000000E+00  0.51669337887E+02  0.51669337887E+02  0.00000000000E+00 0.  1.
         21   -1    0    0  501  502  0.00000000000E+00 -0.00000000000E+00 -0.24924588990E+03  0.24924588990E+03  0.00000000000E+00 0. -1.
         23    2    1    2    0    0 -0.61557856108E+01 -0.46829499450E+01 -0.33415464744E+02  0.96704185215E+02  0.90417268469E+02 0.  0.
         23    2    1    2    0    0 -0.93668474975E+01 -0.12776068289E+02 -0.14696779807E+03  0.17520451487E+03  0.94053828236E+02 0.  0.
        -13    1    4    4    0    0  0.74633795818E+01 -0.42468227607E+02 -0.27939679216E+02  0.51379743728E+02  0.00000000000E+00 0.  1.
         13    1    4    4    0    0 -0.16830227079E+02  0.29692159318E+02 -0.11902811886E+03  0.12382477114E+03  0.00000000000E+00 0. -1.
        -13    1    3    3    0    0 -0.31947367367E+02  0.21109901399E+02 -0.44380058995E+02  0.58616139886E+02  0.00000000000E+00 0. -1.
         13    1    3    3    0    0  0.25791581756E+02 -0.25792851344E+02  0.10964594251E+02  0.38088045329E+02  0.00000000000E+00 0.  1.
          2    1    1    2  501    0  0.15522633108E+02  0.17459018234E+02 -0.17193289197E+02  0.29006527709E+02  0.00000000000E+00 0.  1.
<scales pt_clust_5="13000.00000" pt_clust_6="13000.00000" pt_clust_7="13000.00000" pt_clust_8="13000.00000" pt_clust_9="23.36172"></scales>
<clustering>
<clus scale="   23.362">  2  9  1 -1</clus>
<clus scale="   90.417">  7  8 -1 -1</clus>
<clus scale="   90.434">  1  7  2 -1</clus>
<clus scale="   94.054">  5  6 -1 -1</clus>
<clus scale="   23.362">  2  5  1 -1</clus>
</clustering>
</event>
<event>
 9    1  0.3231311E-005  0.9337154E+02  0.7546771E-02  0.1295066E+00
          3   -1    0    0  502    0 -0.00000000000E+00  0.00000000000E+00  0.22813565160E+03  0.22813565160E+03  0.00000000000E+00 0. -1.
         21   -1    0    0  501  502  0.00000000000E+00 -0.00000000000E+00 -0.66143201923E+02  0.66143201923E+02  0.00000000000E+00 0.  1.
         23    2    1    2    0    0 -0.29311879296E+02 -0.13025809439E+02  0.11306088308E+03  0.14839971172E+03  0.90613758215E+02 0.  0.
         23    2    1    2    0    0  0.12260936694E+02 -0.41719196933E+01  0.69042086323E+02  0.11440010855E+03  0.90293076534E+02 0.  0.
        -11    1    4    4    0    0 -0.21013138303E+02 -0.31943154177E+02  0.72381079201E+01  0.38914101383E+02  0.00000000000E+00 0.  1.
         11    1    4    4    0    0  0.33274074997E+02  0.27771234484E+02  0.61803978403E+02  0.75486007167E+02  0.00000000000E+00 0. -1.
        -13    1    3    3    0    0 -0.12532713096E+01 -0.42898011536E+02  0.93726338067E+02  0.10308460860E+03  0.00000000000E+00 0.  1.
         13    1    3    3    0    0 -0.28058607986E+02  0.29872202097E+02  0.19334545009E+02  0.45315103122E+02  0.00000000000E+00 0. -1.
          3    1    1    2  501    0  0.17050942602E+02  0.17197729132E+02 -0.20110519722E+02  0.31479033251E+02  0.00000000000E+00 0. -1.
<scales pt_clust_5="13000.00000" pt_clust_6="13000.00000" pt_clust_7="13000.00000" pt_clust_8="13000.00000" pt_clust_9="24.21769"></scales>
<clustering>
<clus scale="   24.218">  2  9  1 -1</clus>
<clus scale="   90.293">  5  6 -1 -1</clus>
<clus scale="   90.614">  7  8 -1 -1</clus>
<clus scale="   93.060">  2  5  1 -1</clus>
<clus scale="   24.218">  2  5  1 -1</clus>
</clustering>
</event>
<event>
 9    1  0.3231311E-005  0.9135986E+02  0.7546771E-02  0.1300098E+00
         21   -1    0    0  501  502  0.00000000000E+00  0.00000000000E+00  0.19842282542E+03  0.19842282542E+03  0.00000000000E+00 0. -1.
          3   -1    0    0  502    0 -0.00000000000E+00 -0.00000000000E+00 -0.87873942644E+02  0.87873942644E+02  0.00000000000E+00 0. -1.
         23    2    1    2    0    0 -0.86740470610E+01  0.10641939466E+02 -0.34844816898E+02  0.96269361193E+02  0.88685617052E+02 0.  0.
         23    2    1    2    0    0  0.17703109828E+02 -0.29418089930E+02  0.92789576426E+02  0.13344771455E+03  0.89552012329E+02 0.  0.
        -11    1    3    3    0    0 -0.26745474667E+02 -0.14049296968E+02 -0.52771030746E+02  0.60806947354E+02  0.00000000000E+00 0. -1.
         11    1    3    3    0    0  0.18071427606E+02  0.24691236435E+02  0.17926213848E+02  0.35462413840E+02  0.00000000000E+00 0.  1.
        -13    1    4    4    0    0 -0.27888337067E+02 -0.36378822179E+02  0.27313089548E+02  0.53359000254E+02  0.00000000000E+00 0. -1.
         13    1    4    4    0    0  0.45591446894E+02  0.69607322490E+01  0.65476486878E+02  0.80088714294E+02  0.00000000000E+00 0.  1.
          3    1    1    2  501    0 -0.90290627666E+01  0.18776150464E+02  0.52604123244E+02  0.56579692319E+02  0.00000000000E+00 0. -1.
<scales pt_clust_5="13000.00000" pt_clust_6="13000.00000" pt_clust_7="13000.00000" pt_clust_8="13000.00000" pt_clust_9="20.83429"></scales>
<clustering>
<clus scale="   20.834">  1  9  2 -1</clus>
<clus scale="   88.686">  5  6 -1 -1</clus>
<clus scale="   89.552">  7  8 -1 -1</clus>
<clus scale="   90.511">  2  5  1 -1</clus>
<clus scale="   20.834">  1  5  2 -1</clus>
</clustering>
</event>
<event>
 9    1  0.3231311E-005  0.9977108E+02  0.7546771E-02  0.1281578E+00
         21   -1    0    0  501  502  0.00000000000E+00  0.00000000000E+00  0.65381057701E+02  0.65381057701E+02  0.00000000000E+00 0.  1.
          2   -1    0    0  502    0 -0.00000000000E+00 -0.00000000000E+00 -0.24099408288E+03  0.24099408288E+03  0.00000000000E+00 0. -1.
         23    2    1    2    0    0  0.15264232433E+02 -0.18619060640E+02 -0.14697056091E+03  0.17595569448E+03  0.93703758922E+02 0.  0.
         23    2    1    2    0    0 -0.31809590746E+02  0.32101517009E+02 -0.27811866453E+02  0.10906024658E+03  0.95280008448E+02 0.  0.
        -13    1    3    3    0    0  0.35041454720E+02  0.78055202875E+01 -0.13322834554E+02  0.38292657474E+02  0.00000000000E+00 0.  1.
         13    1    3    3    0    0 -0.19777222287E+02 -0.26424580928E+02 -0.13364772635E+03  0.13766303701E+03  0.00000000000E+00 0. -1.
        -13    1    4    4    0    0 -0.13599775986E+02  0.50145505691E+02  0.19299593824E+02  0.55425625569E+02  0.00000000000E+00 0.  1.
         13    1    4    4    0    0 -0.18209814759E+02 -0.18043988681E+02 -0.47111460277E+02  0.53634621007E+02  0.00000000000E+00 0. -1.
          2    1    1    2  501    0  0.16545358313E+02 -0.13482456369E+02 -0.83059781564E+00  0.21359199521E+02  0.00000000000E+00 0. -1.
<scales pt_clust_5="13000.00000" pt_clust_6="13000.00000" pt_clust_7="13000.00000" pt_clust_8="13000.00000" pt_clust_9="21.34304"></scales>
<clustering>
<clus scale="   21.343">  1  9  2 -1</clus>
<clus scale="   93.704">  5  6 -1 -1</clus>
<clus scale="   95.280">  7  8 -1 -1</clus>
<clus scale="   98.267">  2  5  1 -1</clus>
<clus scale="   21.343">  1  5  2 -1</clus>
</clustering>
</event>
<event>
 9    1  0.3231311E-005  0.1501206E+03  0.7546771E-02  0.1222343E+00
          3   -1    0    0  502    0 -0.00000000000E+00  0.00000000000E+00  0.55544930510E+03  0.55544930510E+03  0.00000000000E+00 0. -1.
         21   -1    0    0  501  502  0.00000000000E+00 -0.00000000000E+00 -0.25077700779E+03  0.25077700779E+03  0.00000000000E+00 0. -1.
         23    2    1    2    0    0  0.21590247884E+02 -0.79366258109E+00  0.18442660862E+03  0.20695749209E+03  0.91386327545E+02 0.  0.
         23    2    1    2    0    0 -0.47511414941E+02  0.11740316779E+03  0.32603992942E+03  0.36131724352E+03  0.90594020417E+02 0.  0.
        -11    1    3    3    0    0  0.19774680092E+02 -0.39715909982E+02  0.49294719939E+02  0.66320139417E+02  0.00000000000E+00 0.  1.
         11    1    3    3    0    0  0.18155677921E+01  0.38922247401E+02  0.13513188868E+03  0.14063735268E+03  0.00000000000E+00 0. -1.
        -13    1    4    4    0    0 -0.41841678118E+02  0.83665755971E+02  0.30948137681E+03  0.32331007925E+03  0.00000000000E+00 0. -1.
         13    1    4    4    0    0 -0.56697368228E+01  0.33737411817E+02  0.16558552606E+02  0.38007164274E+02  0.00000000000E+00 0.  1.
          3    1    1    2  501    0  0.25921167057E+02 -0.11660950521E+03 -0.20579424074E+03  0.23795157727E+03  0.00000000000E+00 0. -1.
<scales pt_clust_5="13000.00000" pt_clust_6="13000.00000" pt_clust_7="13000.00000" pt_clust_8="13000.00000" pt_clust_9="119.70344"></scales>
<clustering>
<clus scale="   90.594">  7  8 -1 -1</clus>
<clus scale="   91.386">  5  6 -1 -1</clus>
<clus scale="   93.905">  1  5  2 -1</clus>
<clus scale="  119.703">  2  9  1 -1</clus>
<clus scale="  119.703">  2  5  1 -1</clus>
</clustering>
</event>
<event>
 9    1  0.3231311E-005  0.1444157E+03  0.7546771E-02  0.1207540E+00
         21   -1    0    0  501  502  0.00000000000E+00  0.00000000000E+00  0.34755788487E+03  0.34755788487E+03  0.00000000000E+00 0. -1.
         -1   -1    0    0    0  501 -0.00000000000E+00 -0.00000000000E+00 -0.79274245646E+02  0.79274245646E+02  0.00000000000E+00 0.  1.
         23    2    1    2    0    0  0.12302823620E+03  0.18362606236E+00  0.67009526645E+02  0.16735531856E+03  0.91550780269E+02 0.  0.
         23    2    1    2    0    0 -0.92568543762E+02 -0.97521824184E+01  0.17410826634E+03  0.21755625213E+03  0.91394715790E+02 0.  0.
        -11    1    3    3    0    0  0.13084763900E+03 -0.19387317655E+02  0.58154215545E+02  0.14449527848E+03  0.00000000000E+00 0.  1.
         11    1    3    3    0    0 -0.78194027912E+01  0.19570943718E+02  0.88553110994E+01  0.22860040085E+02  0.00000000000E+00 0. -1.
        -11    1    4    4    0    0 -0.98280414048E+02 -0.29189228455E+02  0.16724159249E+03  0.19616523928E+03  0.00000000000E+00 0. -1.
         11    1    4    4    0    0  0.57118702855E+01  0.19437046037E+02  0.68666738528E+01  0.21391012846E+02  0.00000000000E+00 0.  1.
         -1    1    1    2    0  502 -0.30459692442E+02  0.95685563561E+01  0.27165846231E+02  0.41920559823E+02  0.00000000000E+00 0.  1.
<scales pt_clust_5="13000.00000" pt_clust_6="13000.00000" pt_clust_7="13000.00000" pt_clust_8="13000.00000" pt_clust_9="31.92726"></scales>
<clustering>
<clus scale="   31.927">  1  9  2 -1</clus>
<clus scale="   91.395">  7  8 -1 -1</clus>
<clus scale="   91.551">  5  6 -1 -1</clus>
<clus scale="  144.317">  1  7  2 -1</clus>
<clus scale="   31.927">  1  5  2 -1</clus>
</clustering>
</event>
<event>
 9    1  0.3231311E-005  0.1688292E+03  0.7546771E-02  0.1179261E+00
         -3   -1    0    0    0  501 -0.00000000000E+00  0.00000000000E+00  0.95877230393E+02  0.95877230393E+02  0.00000000000E+00 0.  1.
         21   -1    0    0  501  502  0.00000000000E+00 -0.00000000000E+00 -0.63991525367E+03  0.63991525367E+03  0.00000000000E+00 0. -1.
         23    2    1    2    0    0 -0.11731654358E+03  0.10024150700E+03 -0.81205209338E+02  0.19744715304E+03  0.92625920216E+02 0.  0.
         23    2    1    2    0    0  0.29417289277E+02 -0.11553694564E+03 -0.40518066135E+03  0.43211915700E+03  0.91331455653E+02 0.  0.
        -11    1    4    4    0    0 -0.22258286333E+02 -0.48105419908E+01 -0.30811872340E+02  0.38313758649E+02  0.00000000000E+00 0.  1.
         11    1    4    4    0    0  0.51675575610E+02 -0.11072640365E+03 -0.37436878901E+03  0.39380539835E+03  0.00000000000E+00 0. -1.
        -13    1    3    3    0    0 -0.71076961362E+02  0.24261928486E+01 -0.40553233523E+02  0.81868098777E+02  0.00000000000E+00 0.  1.
         13    1    3    3    0    0 -0.46239582222E+02  0.97815314151E+02 -0.40651975815E+02  0.11557905426E+03  0.00000000000E+00 0. -1.
         -3    1    1    2    0  502  0.87899254306E+02  0.15295438638E+02 -0.57652152582E+02  0.10622617403E+03  0.00000000000E+00 0.  1.
<scales pt_clust_5="13000.00000" pt_clust_6="13000.00000" pt_clust_7="13000.00000" pt_clust_8="13000.00000" pt_clust_9="89.22016"></scales>
<clustering>
<clus scale="   89.220">  2  9  1 -1</clus>
<clus scale="   91.331">  5  6 -1 -1</clus>
<clus scale="   92.626">  7  8 -1 -1</clus>
<clus scale="  168.122">  2  5  1 -1</clus>
<clus scale="   89.220">  2  5  1 -1</clus>
</clustering>
</event>
<event>
 9    1  0.3231311E-005  0.9527569E+02  0.7546771E-02  0.1292630E+00
         21   -1    0    0  501  502  0.00000000000E+00  0.00000000000E+00  0.33009407950E+03  0.33009407950E+03  0.00000000000E+00 0.  1.
          2   -1    0    0  502    0 -0.00000000000E+00 -0.00000000000E+00 -0.34556011140E+02  0.34556011140E+02  0.00000000000E+00 0. -1.
         23    2    1    2    0    0 -0.63212413724E+01 -0.18357738523E+02  0.10332592337E+03  0.13661120184E+03  0.87231928634E+02 0.  0.
         23    2    1    2    0    0  0.26055682576E+01  0.40888920132E+02  0.15402092435E+03  0.18354136408E+03  0.91029085553E+02 0.  0.
        -11    1    4    4    0    0  0.40198495349E+02  0.43543480662E+02  0.71820487471E+02  0.93113565913E+02  0.00000000000E+00 0.  1.
         11    1    4    4    0    0 -0.37592927091E+02 -0.26545605301E+01  0.82200436879E+02  0.90427798171E+02  0.00000000000E+00 0. -1.
        -13    1    3    3    0    0 -0.36708926970E+02  0.18390149793E+02  0.55895283580E+02  0.69354348495E+02  0.00000000000E+00 0. -1.
         13    1    3    3    0    0  0.30387685597E+02 -0.36747888317E+02  0.47430639785E+02  0.67256853347E+02  0.00000000000E+00 0.  1.
          2    1    1    2  501    0  0.37156731148E+01 -0.22531181608E+02  0.38191220642E+02  0.44497524712E+02  0.00000000000E+00 0. -1.
<scales pt_clust_5="13000.00000" pt_clust_6="13000.00000" pt_clust_7="13000.00000" pt_clust_8="13000.00000" pt_clust_9="22.83551"></scales>
<clustering>
<clus scale="   22.836">  1  9  2 -1</clus>
<clus scale="   87.232">  7  8 -1 -1</clus>
<clus scale="   91.029">  5  6 -1 -1</clus>
<clus scale="   91.655">  2  7  1 -1</clus>
<clus scale="   22.836">  1  5  2 -1</clus>
</clustering>
</event>
<event>
 9    1  0.3231311E-005  0.2035315E+03  0.7546771E-02  0.1146911E+00
          4   -1    0    0  502    0 -0.00000000000E+00  0.00000000000E+00  0.45744452782E+03  0.45744452782E+03  0.00000000000E+00 0. -1.
         21   -1    0    0  501  502  0.00000000000E+00 -0.00000000000E+00 -0.21998990078E+03  0.21998990078E+03  0.00000000000E+00 0.  1.
         23    2    1    2    0    0 -0.29052241321E+02 -0.16358297227E+03  0.24404477856E+03  0.30871628978E+03  0.90246728978E+02 0.  0.
         23    2    1    2    0    0  0.97277820872E+02  0.23462718581E+03 -0.99261380970E+01  0.27016288128E+03  0.91523567727E+02 0.  0.
        -13    1    4    4    0    0  0.45076749787E+01  0.13000446305E+03 -0.17398591585E+01  0.13009422222E+03  0.00000000000E+00 0. -1.
         13    1    4    4    0    0  0.92770145893E+02  0.10462272276E+03 -0.81862789385E+01  0.14006865906E+03  0.00000000000E+00 0.  1.
        -13    1    3    3    0    0 -0.52700212047E+02 -0.77551883451E+02  0.16369483539E+03  0.18864677604E+03  0.00000000000E+00 0. -1.
         13    1    3    3    0    0  0.23647970725E+02 -0.86031088823E+02  0.80349943175E+02  0.12006951375E+03  0.00000000000E+00 0.  1.
          4    1    1    2  501    0 -0.68225579551E+02 -0.71044213537E+02  0.33359865743E+01  0.98555257539E+02  0.00000000000E+00 0. -1.
<scales pt_clust_5="13000.00000" pt_clust_6="13000.00000" pt_clust_7="13000.00000" pt_clust_8="13000.00000" pt_clust_9="98.49878"></scales>
<clustering>
<clus scale="   90.247">  7  8 -1 -1</clus>
<clus scale="   91.524">  5  6 -1 -1</clus>
<clus scale="   98.499">  2  9  1 -1</clus>
<clus scale="  202.961">  1  7  2 -1</clus>
<clus scale="   98.499">  2  5  1 -1</clus>
</clustering>
</event>
<event>
 9    1  0.3231311E-005  0.9771829E+02  0.7546771E-02  0.1285611E+00
          2   -1    0    0  502    0 -0.00000000000E+00  0.00000000000E+00  0.26333348128E+03  0.26333348128E+03  0.00000000000E+00 0. -1.
         21   -1    0    0  501  502  0.00000000000E+00 -0.00000000000E+00 -0.96122944459E+02  0.96122944459E+02  0.00000000000E+00 0. -1.
         23    2    1    2    0    0 -0.14086198418E+02  0.29796867097E+02  0.18745755587E+03  0.21074070223E+03  0.90471177998E+02 0.  0.
         23    2    1    2    0    0  0.36068217157E+02 -0.34175234683E+02 -0.46748794040E+02  0.11400659894E+03  0.91341074569E+02 0.  0.
        -11    1    3    3    0    0  0.19480925282E+02  0.41431305645E+02  0.46038795772E+02  0.64927885022E+02  0.00000000000E+00 0.  1.
         11    1    3    3    0    0 -0.33567123700E+02 -0.11634438549E+02  0.14141876010E+03  0.14581281721E+03  0.00000000000E+00 0. -1.
        -11    1    4    4    0    0  0.17294603979E+02  0.23372272509E+02  0.10282356914E+02  0.30839800789E+02  0.00000000000E+00 0.  1.
         11    1    4    4    0    0  0.18773613178E+02 -0.57547507191E+02 -0.57031150955E+02  0.83166798152E+02  0.00000000000E+00 0. -1.
          2    1    1    2  501    0 -0.21982018740E+02  0.43783675861E+01  0.26501774983E+02  0.34709124562E+02  0.00000000000E+00 0. -1.
<scales pt_clust_5="13000.00000" pt_clust_6="13000.00000" pt_clust_7="13000.00000" pt_clust_8="13000.00000" pt_clust_9="22.41383"></scales>
<clustering>
<clus scale="   22.414">  2  9  1 -1</clus>
<clus scale="   90.471">  5  6 -1 -1</clus>
<clus scale="   91.341">  7  8 -1 -1</clus>
<clus scale="   96.906">  1  5  2 -1</clus>
<clus scale="   22.414">  2  5  1 -1</clus>
</clustering>
</event>
<event>
 9    1  0.3231311E-005  0.9366403E+02  0.7546771E-02  0.1298314E+00
         -3   -1    0    0    0  501 -0.00000000000E+00  0.00000000000E+00  0.23017472189E+03  0.23017472189E+03  0.00000000000E+00 0.  1.
         21   -1    0    0  501  502  0.00000000000E+00 -0.00000000000E+00 -0.75496296674E+02  0.75496296674E+02  0.00000000000E+00 0.  1.
         23    2    1    2    0    0  0.24054247954E+02  0.14588465246E+02  0.15177940505E+03  0.17871510800E+03  0.90059268631E+02 0.  0.
         23    2    1    2    0    0 -0.27179212056E+02  0.14535464465E+02  0.23051701343E+02  0.91401737237E+02  0.82902999584E+02 0.  0.
        -13    1    4    4    0    0 -0.36875842055E+02  0.43975735039E+02  0.13351357680E+02  0.58923270033E+02  0.00000000000E+00 0.  1.
         13    1    4    4    0    0  0.96966299986E+01 -0.29440270574E+02  0.97003436628E+01  0.32478467205E+02  0.00000000000E+00 0. -1.
        -13    1    3    3    0    0  0.28072134340E+02 -0.23357458338E+02  0.20239247472E+02  0.41752158323E+02  0.00000000000E+00 0. -1.
         13    1    3    3    0    0 -0.40178863861E+01  0.37945923584E+02  0.13154015758E+03  0.13696294968E+03  0.00000000000E+00 0.  1.
         -3    1    1    2    0  502  0.31249641021E+01 -0.29123929711E+02 -0.20152681177E+02  0.35554173328E+02  0.00000000000E+00 0.  1.
<scales pt_clust_5="13000.00000" pt_clust_6="13000.00000" pt_clust_7="13000.00000" pt_clust_8="13000.00000" pt_clust_9="29.29110"></scales>
<clustering>
<clus scale="   29.291">  2  9  1 -1</clus>
<clus scale="   82.903">  5  6 -1 -1</clus>
<clus scale="   86.805">  2  5  1 -1</clus>
<clus scale="   90.059">  7  8 -1 -1</clus>
<clus scale="   29.291">  2  5  1 -1</clus>
</clustering>
</event>
<event>
 9    1  0.3231311E-005  0.1457166E+03  0.7546771E-02  0.1219932E+00
         21   -1    0    0  501  502  0.00000000000E+00  0.00000000000E+00  0.62836896420E+02  0.62836896420E+02  0.00000000000E+00 0.  1.
         -1   -1    0    0    0  501 -0.00000000000E+00 -0.00000000000E+00 -0.56104863153E+03  0.56104863153E+03  0.00000000000E+00 0.  1.
         23    2    1    2    0    0  0.98236925734E+01 -0.56569171066E+02 -0.14490901559E+03  0.18072969901E+03  0.91476911050E+02 0.  0.
         23    2    1    2    0    0  0.60865172339E+02 -0.61438411029E+02 -0.21386961112E+03  0.24728776934E+03  0.89060556632E+02 0.  0.
        -13    1    4    4    0    0  0.36419083313E+02 -0.44897705939E+01 -0.16165404239E+02  0.40097730155E+02  0.00000000000E+00 0. -1.
         13    1    4    4    0    0  0.24446089025E+02 -0.56948640435E+02 -0.19770420688E+03  0.20719003918E+03  0.00000000000E+00 0.  1.
        -13    1    3    3    0    0  0.35795316347E+02 -0.60193359373E+02 -0.61186312551E+02  0.92996290402E+02  0.00000000000E+00 0.  1.
         13    1    3    3    0    0 -0.25971623774E+02  0.36241883071E+01 -0.83722703038E+02  0.87733408610E+02  0.00000000000E+00 0. -1.
         -1    1    1    2    0  502 -0.70688864912E+02  0.11800758209E+03 -0.13943310840E+03  0.19586805960E+03  0.00000000000E+00 0.  1.
<scales pt_clust_5="13000.00000" pt_clust_6="13000.00000" pt_clust_7="13000.00000" pt_clust_8="13000.00000" pt_clust_9="115.33238"></scales>
<clustering>
<clus scale="   89.061">  5  6 -1 -1</clus>
<clus scale="   91.477">  7  8 -1 -1</clus>
<clus scale="  108.003">  2  7  1 -1</clus>
<clus scale="  115.332">  1  9  2 -1</clus>
<clus scale="  115.332">  1  5  2 -1</clus>
</clustering>
</event>
<event>
 9    1  0.3231311E-005  0.1091002E+03  0.7546771E-02  0.1262935E+00
         21   -1    0    0  501  502  0.00000000000E+00  0.00000000000E+00  0.50243308872E+02  0.50243308872E+02  0.00000000000E+00 0.  1.
          2   -1    0    0  502    0 -0.00000000000E+00 -0.00000000000E+00 -0.74245664057E+03  0.74245664057E+03  0.00000000000E+00 0. -1.
         23    2    1    2    0    0  0.28835312627E+02 -0.24601552142E+02 -0.33093730030E+03  0.34495738751E+03  0.89662650206E+02 0.  0.
         23    2    1    2    0    0 -0.11465157777E+03  0.22064725999E+02 -0.31956563564E+03  0.35229297333E+03  0.91412839159E+02 0.  0.
        -11    1    4    4    0    0 -0.64508268615E+02 -0.19690331822E+02 -0.83297252074E+02  0.10717956004E+03  0.00000000000E+00 0.  1.
         11    1    4    4    0    0 -0.50143309153E+02  0.41755057821E+02 -0.23626838356E+03  0.24511341330E+03  0.00000000000E+00 0. -1.
        -13    1    3    3    0    0 -0.32100451729E+02 -0.15587524177E+01 -0.10370074144E+03  0.10856662694E+03  0.00000000000E+00 0.  1.
         13    1    3    3    0    0  0.60935764356E+02 -0.23042799725E+02 -0.22723655886E+03  0.23639076057E+03  0.00000000000E+00 0. -1.
          2    1    1    2  501    0  0.85816265142E+02  0.25368261436E+01 -0.41710395760E+02  0.95449588602E+02  0.00000000000E+00 0. -1.
<scales pt_clust_5="13000.00000" pt_clust_6="13000.00000" pt_clust_7="13000.00000" pt_clust_8="13000.00000" pt_clust_9="85.85375"></scales>
<clustering>
<clus scale="   85.854">  1  9  2 -1</clus>
<clus scale="   89.663">  7  8 -1 -1</clus>
<clus scale="   91.413">  5  6 -1 -1</clus>
<clus scale="  107.638">  2  7  1 -1</clus>
<clus scale="   85.854">  1  5  2 -1</clus>
</clustering>
</event>
<event>
 9    1  0.3231311E-005  0.2308974E+03  0.7546771E-02  0.1126090E+00
         21   -1    0    0  501  502  0.00000000000E+00  0.00000000000E+00  0.64062375979E+03  0.64062375979E+03  0.00000000000E+00 0. -1.
         -1   -1    0    0    0  501 -0.00000000000E+00 -0.00000000000E+00 -0.13809581261E+03  0.13809581261E+03  0.00000000000E+00 0.  1.
         23    2    1    2    0    0  0.17792257796E+03  0.13669387182E+03  0.87993626282E+02  0.25805506590E+03  0.92238172297E+02 0.  0.
         23    2    1    2    0    0 -0.16215163247E+03 -0.82108200241E+02  0.41686556827E+03  0.46379840959E+03  0.91088716495E+02 0.  0.
        -13    1    3    3    0    0  0.46783684880E+02  0.82190325495E+02  0.63579574162E+02  0.11395755801E+03  0.00000000000E+00 0. -1.
         13    1    3    3    0    0  0.13113889308E+03  0.54503546326E+02  0.24414052120E+02  0.14409750789E+03  0.00000000000E+00 0.  1.
        -13    1    4    4    0    0 -0.73611125903E+02 -0.76862518151E+02  0.16100277703E+03  0.19299828694E+03  0.00000000000E+00 0. -1.
         13    1    4    4    0    0 -0.88540506564E+02 -0.52456820902E+01  0.25586279124E+03  0.27080012265E+03  0.00000000000E+00 0.  1.
         -1    1    1    2    0  502 -0.15770945492E+02 -0.54585671580E+02 -0.23312473715E+01  0.56866096911E+02  0.00000000000E+00 0.  1.
<scales pt_clust_5="13000.00000" pt_clust_6="13000.00000" pt_clust_7="13000.00000" pt_clust_8="13000.00000" pt_clust_9="56.81832"></scales>
<clustering>
<clus scale="   56.818">  1  9  2 -1</clus>
<clus scale="   91.089">  7  8 -1 -1</clus>
<clus scale="   92.238">  5  6 -1 -1</clus>
<clus scale="  230.441">  1  7  2 -1</clus>
<clus scale="   56.818">  1  5  2 -1</clus>
</clustering>
</event>
<event>
 9    1  0.3231311E-005  0.1810653E+03  0.7546771E-02  0.1190781E+00
          1   -1    0    0  502    0 -0.00000000000E+00  0.00000000000E+00  0.13227024614E+04  0.13227024614E+04  0.00000000000E+00 0. -1.
         21   -1    0    0  501  502  0.00000000000E+00 -0.00000000000E+00 -0.55701812872E+02  0.55701812872E+02  0.00000000000E+00 0. -1.
         23    2    1    2    0    0  0.19271670732E+02  0.26722035978E+02  0.27427336171E+03  0.29383930739E+03  0.10015087181E+03 0.  0.
         23    2    1    2    0    0 -0.13369019586E+03 -0.12768872058E+03  0.85425606021E+03  0.87850635653E+03  0.88558027468E+02 0.  0.
        -13    1    4    4    0    0 -0.67225198432E+02 -0.75543885366E+01  0.29066746835E+03  0.29843571041E+03  0.00000000000E+00 0.  1.
         13    1    4    4    0    0 -0.66464997432E+02 -0.12013433205E+03  0.56358859186E+03  0.58007064612E+03  0.00000000000E+00 0. -1.
        -13    1    3    3    0    0 -0.17788298151E+02 -0.25510243469E+02  0.38337253059E+02  0.49365383064E+02  0.00000000000E+00 0.  1.
         13    1    3    3    0    0  0.37059968883E+02  0.52232279447E+02  0.23593610866E+03  0.24447392433E+03  0.00000000000E+00 0. -1.
          1    1    1    2  501    0  0.11441852513E+03  0.10096668461E+03  0.13847122655E+03  0.20605861030E+03  0.00000000000E+00 0. -1.
<scales pt_clust_5="13000.00000" pt_clust_6="13000.00000" pt_clust_7="13000.00000" pt_clust_8="13000.00000" pt_clust_9="157.93077"></scales>
<clustering>
<clus scale="   88.558">  5  6 -1 -1</clus>
<clus scale="  100.151">  7  8 -1 -1</clus>
<clus scale="  105.431">  1  7  2 -1</clus>
<clus scale="  157.931">  2  9  1 -1</clus>
<clus scale="  157.931">  2  5  1 -1</clus>
</clustering>
</event>
<event>
 9    1  0.3231311E-005  0.1363821E+03  0.7546771E-02  0.1218636E+00
         -2   -1    0    0    0  501 -0.00000000000E+00  0.00000000000E+00  0.18854417834E+03  0.18854417834E+03  0.00000000000E+00 0.  1.
         21   -1    0    0  501  502  0.00000000000E+00 -0.00000000000E+00 -0.15668463586E+03  0.15668463586E+03  0.00000000000E+00 0.  1.
         23    2    1    2    0    0 -0.42150151859E+02  0.10301461414E+03  0.19032121774E+02  0.14538791991E+03  0.91579362131E+02 0.  0.
         23    2    1    2    0    0 -0.14382492126E+02 -0.95585449006E+02 -0.20651102152E+02  0.13372021808E+03  0.90062170540E+02 0.  0.
        -11    1    3    3    0    0 -0.60643000150E+02  0.86950866416E+02  0.39839014738E+02  0.11324828358E+03  0.00000000000E+00 0.  1.
         11    1    3    3    0    0  0.18492848290E+02  0.16063747721E+02 -0.20806892964E+02  0.32139636332E+02  0.00000000000E+00 0. -1.
        -13    1    4    4    0    0 -0.48994916918E+02 -0.28695434745E+02 -0.76781505524E+01  0.57296455867E+02  0.00000000000E+00 0.  1.
         13    1    4    4    0    0  0.34612424793E+02 -0.66890014261E+02 -0.12972951600E+02  0.76423762215E+02  0.00000000000E+00 0. -1.
         -2    1    1    2    0  502  0.56532643985E+02 -0.74291651307E+01  0.33478522852E+02  0.66120676213E+02  0.00000000000E+00 0.  1.
<scales pt_clust_5="13000.00000" pt_clust_6="13000.00000" pt_clust_7="13000.00000" pt_clust_8="13000.00000" pt_clust_9="57.01873"></scales>
<clustering>
<clus scale="   57.019">  2  9  1 -1</clus>
<clus scale="   90.062">  7  8 -1 -1</clus>
<clus scale="   91.579">  5  6 -1 -1</clus>
<clus scale="  135.368">  2  7  1 -1</clus>
<clus scale="   57.019">  2  5  1 -1</clus>
</clustering>
</event>
<event>
 9    1  0.3231311E-005  0.9784416E+02  0.7546771E-02  0.1285403E+00
         21   -1    0    0  501  502  0.00000000000E+00  0.00000000000E+00  0.13486996311E+03  0.13486996311E+03  0.00000000000E+00 0. -1.
          1   -1    0    0  502    0 -0.00000000000E+00 -0.00000000000E+00 -0.20741573268E+03  0.20741573268E+03  0.00000000000E+00 0. -1.
         23    2    1    2    0    0  0.56797761608E+02 -0.18824582518E+01 -0.10247476050E+03  0.14848896299E+03  0.91205077807E+02 0.  0.
         23    2    1    2    0    0  0.19330311931E+01  0.16131124425E+02 -0.39623842084E+02  0.10165593244E+03  0.92195064699E+02 0.  0.
        -11    1    4    4    0    0 -0.37700430730E+02  0.18763856353E+02 -0.44932515745E+02  0.61581943406E+02  0.00000000000E+00 0.  1.
         11    1    4    4    0    0  0.39633461923E+02 -0.26327319274E+01  0.53086736610E+01  0.40073989039E+02  0.00000000000E+00 0. -1.
        -13    1    3    3    0    0  0.41644183521E+02  0.40878457126E+02 -0.76488387918E+02  0.96206859238E+02  0.00000000000E+00 0. -1.
         13    1    3    3    0    0  0.15153578087E+02 -0.42760915378E+02 -0.25986372581E+02  0.52282103752E+02  0.00000000000E+00 0.  1.
          1    1    1    2  501    0 -0.58730792802E+02 -0.14248666173E+02  0.69552833015E+02  0.92140800361E+02  0.00000000000E+00 0. -1.
<scales pt_clust_5="13000.00000" pt_clust_6="13000.00000" pt_clust_7="13000.00000" pt_clust_8="13000.00000" pt_clust_9="60.43451"></scales>
<clustering>
<clus scale="   60.435">  1  9  2 -1</clus>
<clus scale="   91.205">  7  8 -1 -1</clus>
<clus scale="   92.195">  5  6 -1 -1</clus>
<clus scale="   96.912">  2  7  1 -1</clus>
<clus scale="   60.435">  1  5  2 -1</clus>
</clustering>
</event>
<event>
 9    1  0.3231311E-005  0.1015007E+03  0.7546771E-02  0.1277514E+00
          3   -1    0    0  502    0 -0.00000000000E+00  0.00000000000E+00  0.50758094215E+03  0.50758094215E+03  0.00000000000E+00 0. -1.
         21   -1    0    0  501  502  0.00000000000E+00 -0.00000000000E+00 -0.77020938813E+02  0.77020938813E+02  0.00000000000E+00 0.  1.
         23    2    1    2    0    0 -0.13731714351E+02 -0.31325938146E+02  0.16709006370E+03  0.19310241724E+03  0.90551531062E+02 0.  0.
         23    2    1    2    0    0  0.45770388328E+02  0.80020791949E+02  0.85699257903E+01  0.13001967009E+03  0.91287542365E+02 0.  0.
        -13    1    3    3    0    0 -0.34230962207E+01  0.31777454877E+02  0.43836958046E+02  0.54251295993E+02  0.00000000000E+00 0.  1.
         13    1    3    3    0    0 -0.10308618130E+02 -0.63103393023E+02  0.12325310566E+03  0.13885112125E+03  0.00000000000E+00 0. -1.
        -13    1    4    4    0    0  0.21975853908E+02 -0.87166235162E+01 -0.22893219494E+02  0.32909226355E+02  0.00000000000E+00 0. -1.
         13    1    4    4    0    0  0.23794534420E+02  0.88737415465E+02  0.31463145284E+02  0.97110443738E+02  0.00000000000E+00 0.  1.
          3    1    1    2  501    0 -0.32038673978E+02 -0.48694853803E+02  0.25490001385E+03  0.26147979363E+03  0.00000000000E+00 0. -1.
<scales pt_clust_5="13000.00000" pt_clust_6="13000.00000" pt_clust_7="13000.00000" pt_clust_8="13000.00000" pt_clust_9="58.28953"></scales>
<clustering>
<clus scale="   58.290">  2  9  1 -1</clus>
<clus scale="   90.552">  5  6 -1 -1</clus>
<clus scale="   91.288">  7  8 -1 -1</clus>
<clus scale="  100.839">  1  5  2 -1</clus>
<clus scale="   58.290">  2  5  1 -1</clus>
</clustering>
</event>
<event>
 9    1  0.3231311E-005  0.1033155E+03  0.7546771E-02  0.1274124E+00
          2   -1    0    0  502    0 -0.00000000000E+00  0.00000000000E+00  0.37072944356E+03  0.37072944356E+03  0.00000000000E+00 0. -1.
         21   -1    0    0  501  502  0.00000000000E+00 -0.00000000000E+00 -0.13632786278E+03  0.13632786278E+03  0.00000000000E+00 0. -1.
         23    2    1    2    0    0 -0.20344535249E+02  0.45358530740E+02  0.29549360704E+03  0.31295975743E+03  0.90310805244E+02 0.  0.
         23    2    1    2    0    0 -0.80203662321E+01 -0.59480025169E+02  0.18164204496E+02  0.10874220723E+03  0.88841035783E+02 0.  0.
        -11    1    3    3    0    0 -0.54613779546E+02  0.36294735758E+02  0.21987665903E+03  0.22944654703E+03  0.00000000000E+00 0. -1.
         11    1    3    3    0    0  0.34269244297E+02  0.90637949818E+01  0.75616948009E+02  0.83513210395E+02  0.00000000000E+00 0.  1.
        -13    1    4    4    0    0 -0.19632818860E+02 -0.10966277884E+02 -0.31267550673E+02  0.38514497947E+02  0.00000000000E+00 0.  1.
         13    1    4    4    0    0  0.11612452628E+02 -0.48513747285E+02  0.49431755169E+02  0.70227709280E+02  0.00000000000E+00 0. -1.
          2    1    1    2  501    0  0.28364901481E+02  0.14121494429E+02 -0.79256230753E+02  0.85355341684E+02  0.00000000000E+00 0. -1.
<scales pt_clust_5="13000.00000" pt_clust_6="13000.00000" pt_clust_7="13000.00000" pt_clust_8="13000.00000" pt_clust_9="31.68571"></scales>
<clustering>
<clus scale="   31.686">  2  9  1 -1</clus>
<clus scale="   88.841">  7  8 -1 -1</clus>
<clus scale="   90.311">  5  6 -1 -1</clus>
<clus scale="  102.033">  2  7  1 -1</clus>
<clus scale="   31.686">  2  5  1 -1</clus>
</clustering>
</event>
<event>
 9    1  0.3231311E-005  0.1091920E+03  0.7546771E-02  0.1263230E+00
         21   -1    0    0  501  502  0.00000000000E+00  0.00000000000E+00  0.89690836918E+02  0.89690836918E+02  0.00000000000E+00 0. -1.
          2   -1    0    0  502    0 -0.00000000000E+00 -0.00000000000E+00 -0.21060240731E+03  0.21060240731E+03  0.00000000000E+00 0. -1.
         23    2    1    2    0    0  0.21498686948E+02 -0.56765293004E+02 -0.13464359103E+03  0.17560082495E+03  0.94985583565E+02 0.  0.
         23    2    1    2    0    0 -0.12478516996E+02  0.33323094101E+02  0.10075666870E+02  0.99309963172E+02  0.92167281264E+02 0.  0.
        -13    1    4    4    0    0 -0.83324566431E+01  0.62513614379E+02  0.22984581368E+02  0.67124308541E+02  0.00000000000E+00 0.  1.
         13    1    4    4    0    0 -0.41460603525E+01 -0.29190520278E+02 -0.12908914497E+02  0.32185654632E+02  0.00000000000E+00 0. -1.
        -13    1    3    3    0    0  0.42220854245E+02 -0.42774781454E+02 -0.28435757675E+02  0.66489659167E+02  0.00000000000E+00 0. -1.
         13    1    3    3    0    0 -0.20722167297E+02 -0.13990511550E+02 -0.10620783336E+03  0.10911116578E+03  0.00000000000E+00 0.  1.
          2    1    1    2  501    0 -0.90201699521E+01  0.23442198904E+02  0.36563537682E+01  0.25382456112E+02  0.00000000000E+00 0. -1.
<scales pt_clust_5="13000.00000" pt_clust_6="13000.00000" pt_clust_7="13000.00000" pt_clust_8="13000.00000" pt_clust_9="25.11773"></scales>
<clustering>
<clus scale="   25.118">  1  9  2 -1</clus>
<clus scale="   92.167">  5  6 -1 -1</clus>
<clus scale="   94.986">  7  8 -1 -1</clus>
<clus scale="  106.749">  1  5  2 -1</clus>
<clus scale="   25.118">  1  5  2 -1</clus>
</clustering>
</event>
<event>
 9    1  0.3231311E-005  0.9809060E+02  0.7546771E-02  0.1285912E+00
         21   -1    0    0  501  502  0.00000000000E+00  0.00000000000E+00  0.14509918622E+03  0.14509918622E+03  0.00000000000E+00 0.  1.
          2   -1    0    0  502    0 -0.00000000000E+00 -0.00000000000E+00 -0.12795250316E+03  0.12795250316E+03  0.00000000000E+00 0. -1.
         23    2    1    2    0    0  0.31836887092E+02  0.31211969971E+02 -0.16252988515E+02  0.10305789383E+03  0.91482213552E+02 0.  0.
         23    2    1    2    0    0  0.32014311563E+02 -0.18003898770E+02  0.23979739817E+02  0.10411387577E+03  0.94422532747E+02 0.  0.
        -11    1    3    3    0    0 -0.82314087938E+01  0.46445634967E+02  0.15567348323E+02  0.49671877678E+02  0.00000000000E+00 0.  1.
         11    1    3    3    0    0  0.40068295885E+02 -0.15233664996E+02 -0.31820336838E+02  0.53386016155E+02  0.00000000000E+00 0. -1.
        -13    1    4    4    0    0  0.18855868371E+02  0.30948355705E+02  0.36986616418E+02  0.51781794937E+02  0.00000000000E+00 0.  1.
         13    1    4    4    0    0  0.13158443192E+02 -0.48952254475E+02 -0.13006876601E+02  0.52332080833E+02  0.00000000000E+00 0. -1.
          2    1    1    2  501    0 -0.63851198655E+02 -0.13208071201E+02  0.94199317577E+01  0.65879919769E+02  0.00000000000E+00 0. -1.
<scales pt_clust_5="13000.00000" pt_clust_6="13000.00000" pt_clust_7="13000.00000" pt_clust_8="13000.00000" pt_clust_9="65.20298"></scales>
<clustering>
<clus scale="   65.203">  1  9  2 -1</clus>
<clus scale="   91.482">  5  6 -1 -1</clus>
<clus scale="   94.423">  7  8 -1 -1</clus>
<clus scale="   95.264">  2  5  1 -1</clus>
<clus scale="   65.203">  1  5  2 -1</clus>
</clustering>
</event>
<event>
 9    1  0.3231311E-005  0.9371354E+02  0.7546771E-02  0.1294182E+00
          2   -1    0    0  502    0 -0.00000000000E+00  0.00000000000E+00  0.14325908403E+03  0.14325908403E+03  0.00000000000E+00 0. -1.
         21   -1    0    0  501  502  0.00000000000E+00 -0.00000000000E+00 -0.22990615192E+03  0.22990615192E+03  0.00000000000E+00 0. -1.
         23    2    1    2    0    0  0.20925078813E+02 -0.21142966956E+02  0.75786375691E+02  0.12222009160E+03  0.91155318421E+02 0.  0.
         23    2    1    2    0    0 -0.17800482074E+02 -0.21148081328E+02 -0.13470348205E+02  0.96063577815E+02  0.91009132486E+02 0.  0.
        -13    1    4    4    0    0 -0.10659951935E+01  0.26702388944E+02  0.21650773511E+02  0.34393457440E+02  0.00000000000E+00 0.  1.
         13    1    4    4    0    0 -0.16734486881E+02 -0.47850470272E+02 -0.35121121715E+02  0.61670120374E+02  0.00000000000E+00 0. -1.
        -13    1    3    3    0    0  0.33770844883E+02  0.21437262377E+02  0.74546689344E+01  0.40689043627E+02  0.00000000000E+00 0.  1.
         13    1    3    3    0    0 -0.12845766070E+02 -0.42580229334E+02  0.68331706757E+02  0.81531047977E+02  0.00000000000E+00 0. -1.
          2    1    1    2  501    0 -0.31245967385E+01  0.42291048285E+02 -0.14896309537E+03  0.15488156654E+03  0.00000000000E+00 0. -1.
<scales pt_clust_5="13000.00000" pt_clust_6="13000.00000" pt_clust_7="13000.00000" pt_clust_8="13000.00000" pt_clust_9="42.40632"></scales>
<clustering>
<clus scale="   42.406">  2  9  1 -1</clus>
<clus scale="   91.009">  5  6 -1 -1</clus>
<clus scale="   91.155">  7  8 -1 -1</clus>
<clus scale="   93.571">  2  5  1 -1</clus>
<clus scale="   42.406">  2  5  1 -1</clus>
</clustering>
</event>
<event>
 9    1  0.3231311E-005  0.1048094E+03  0.7546771E-02  0.1275015E+00
         -2   -1    0    0    0  501 -0.00000000000E+00  0.00000000000E+00  0.97712189910E+02  0.97712189910E+02  0.00000000000E+00 0.  1.
         21   -1    0    0  501  502  0.00000000000E+00 -0.00000000000E+00 -0.17672495023E+03  0.17672495023E+03  0.00000000000E+00 0.  1.
         23    2    1    2    0    0 -0.36188295445E+02  0.38193236091E+01  0.14656550555E+02  0.10404225475E+03  0.96362836924E+02 0.  0.
         23    2    1    2    0    0  0.43093965374E+02 -0.30523809670E+02 -0.38357995439E+02  0.10858744677E+03  0.86781939215E+02 0.  0.
        -11    1    3    3    0    0  0.12024808567E+02  0.35269480621E+02  0.25913769349E+02  0.45387836765E+02  0.00000000000E+00 0. -1.
         11    1    3    3    0    0 -0.48213104012E+02 -0.31450157012E+02 -0.11257218794E+02  0.58654417988E+02  0.00000000000E+00 0.  1.
        -13    1    4    4    0    0  0.29883915023E+01  0.28002843352E+02 -0.49301717782E+00  0.28166163841E+02  0.00000000000E+00 0. -1.
         13    1    4    4    0    0  0.40105573872E+02 -0.58526653022E+02 -0.37864978261E+02  0.80421282931E+02  0.00000000000E+00 0.  1.
         -2    1    1    2    0  502 -0.69056699292E+01  0.26704486061E+02 -0.55311315432E+02  0.61807438612E+02  0.00000000000E+00 0.  1.
<scales pt_clust_5="13000.00000" pt_clust_6="13000.00000" pt_clust_7="13000.00000" pt_clust_8="13000.00000" pt_clust_9="27.58293"></scales>
<clustering>
<clus scale="   27.583">  2  9  1 -1</clus>
<clus scale="   86.782">  7  8 -1 -1</clus>
<clus scale="   96.075">  2  7  1 -1</clus>
<clus scale="   96.363">  5  6 -1 -1</clus>
<clus scale="   27.583">  2  5  1 -1</clus>
</clustering>
</event>
<event>
 9    1  0.3231311E-005  0.9842230E+02  0.7546771E-02  0.1288324E+00
         21   -1    0    0  501  502  0.00000000000E+00  0.00000000000E+00  0.14015023581E+03  0.14015023581E+03  0.00000000000E+00 0. -1.
         -3   -1    0    0    0  501 -0.00000000000E+00 -0.00000000000E+00 -0.28418122290E+03  0.28418122290E+03  0.00000000000E+00 0.  1.
         23    2    1    2    0    0  0.21993672687E+02 -0.31387963359E+02 -0.23423652146E+03  0.25078075322E+03  0.80964883245E+02 0.  0.
         23    2    1    2    0    0 -0.45030531161E+02  0.28901743405E+02  0.29958206563E+02  0.10900135502E+03  0.90115158254E+02 0.  0.
        -11    1    4    4    0    0 -0.66717756365E+02  0.59783008290E+01  0.37204308602E+02  0.76623492963E+02  0.00000000000E+00 0. -1.
         11    1    4    4    0    0  0.21687225205E+02  0.22923442576E+02 -0.72461020391E+01  0.32377862057E+02  0.00000000000E+00 0.  1.
        -13    1    3    3    0    0  0.18348467020E+02  0.15255975059E+02 -0.18956852057E+02  0.30475781482E+02  0.00000000000E+00 0.  1.
         13    1    3    3    0    0  0.36452056673E+01 -0.46643938418E+02 -0.21527966940E+03  0.22030497174E+03  0.00000000000E+00 0. -1.
         -3    1    1    2    0  502  0.23036858473E+02  0.24862199538E+01  0.60247327803E+02  0.64549350465E+02  0.00000000000E+00 0.  1.
<scales pt_clust_5="13000.00000" pt_clust_6="13000.00000" pt_clust_7="13000.00000" pt_clust_8="13000.00000" pt_clust_9="23.17063"></scales>
<clustering>
<clus scale="   23.171">  1  9  2 -1</clus>
<clus scale="   80.965">  7  8 -1 -1</clus>
<clus scale="   90.115">  5  6 -1 -1</clus>
<clus scale="   90.119">  2  7  1 -1</clus>
<clus scale="   23.171">  1  5  2 -1</clus>
</clustering>
</event>
<event>
 9    1  0.3231311E-005  0.9908468E+02  0.7546771E-02  0.1283731E+00
         21   -1    0    0  501  502  0.00000000000E+00  0.00000000000E+00  0.10323793292E+03  0.10323793292E+03  0.00000000000E+00 0. -1.
          4   -1    0    0  502    0 -0.00000000000E+00 -0.00000000000E+00 -0.36354480425E+03  0.36354480425E+03  0.00000000000E+00 0. -1.
         23    2    1    2    0    0 -0.29923424706E+02 -0.13554562932E+02 -0.25731779920E+03  0.27457018092E+03  0.89984426121E+02 0.  0.
         23    2    1    2    0    0  0.25509388332E+02  0.34547074326E+02 -0.68559792951E+02  0.12322205922E+03  0.92946228714E+02 0.  0.
        -11    1    4    4    0    0  0.54574716621E+02  0.38489987939E+02 -0.65814013822E+02  0.93762270030E+02  0.00000000000E+00 0. -1.
         11    1    4    4    0    0 -0.29065328289E+02 -0.39429136129E+01 -0.27457791297E+01  0.29459789193E+02  0.00000000000E+00 0.  1.
        -13    1    3    3    0    0 -0.27898346918E+02 -0.50102599184E+02 -0.12981817414E+03  0.14192021189E+03  0.00000000000E+00 0. -1.
         13    1    3    3    0    0 -0.20250777883E+01  0.36548036253E+02 -0.12749962506E+03  0.13264996903E+03  0.00000000000E+00 0.  1.
          4    1    1    2  501    0  0.44140363741E+01 -0.20992511394E+02  0.65570720819E+02  0.68990497030E+02  0.00000000000E+00 0. -1.
<scales pt_clust_5="13000.00000" pt_clust_6="13000.00000" pt_clust_7="13000.00000" pt_clust_8="13000.00000" pt_clust_9="21.45156"></scales>
<clustering>
<clus scale="   21.452">  1  9  2 -1</clus>
<clus scale="   89.984">  7  8 -1 -1</clus>
<clus scale="   92.946">  5  6 -1 -1</clus>
<clus scale="   96.312">  2  7  1 -1</clus>
<clus scale="   21.452">  1  5  2 -1</clus>
</clustering>
</event>
<event>
 9    1  0.3231311E-005  0.1108916E+03  0.7546771E-02  0.1263302E+00
         21   -1    0    0  501  502  0.00000000000E+00  0.00000000000E+00  0.34083876284E+03  0.34083876284E+03  0.00000000000E+00 0. -1.
          1   -1    0    0  502    0 -0.00000000000E+00 -0.00000000000E+00 -0.93652953410E+02  0.93652953410E+02  0.00000000000E+00 0. -1.
         23    2    1    2    0    0 -0.32029240890E+02  0.32206289514E+02  0.19225903849E+02  0.11263932097E+03  0.10126630186E+03 0.  0.
         23    2    1    2    0    0 -0.35891568746E+01 -0.59670787576E+02  0.24927581275E+03  0.27207954313E+03  0.91188606908E+02 0.  0.
        -11    1    4    4    0    0 -0.30587575971E+02 -0.72709437667E+02  0.18728574723E+03  0.20321961826E+03  0.00000000000E+00 0. -1.
         11    1    4    4    0    0  0.26998419096E+02  0.13038650092E+02  0.61990065525E+02  0.68859924874E+02  0.00000000000E+00 0.  1.
        -13    1    3    3    0    0  0.30487525474E+02  0.18715793588E+02  0.31323728335E+02  0.47549406894E+02  0.00000000000E+00 0. -1.
         13    1    3    3    0    0 -0.62516766363E+02  0.13490495926E+02 -0.12097824486E+02  0.65089914074E+02  0.00000000000E+00 0.  1.
          1    1    1    2  501    0  0.35618397764E+02  0.27464498062E+02 -0.21315907170E+02  0.49772852154E+02  0.00000000000E+00 0. -1.
<scales pt_clust_5="13000.00000" pt_clust_6="13000.00000" pt_clust_7="13000.00000" pt_clust_8="13000.00000" pt_clust_9="44.97745"></scales>
<clustering>
<clus scale="   44.977">  1  9  2 -1</clus>
<clus scale="   91.189">  5  6 -1 -1</clus>
<clus scale="  101.266">  7  8 -1 -1</clus>
<clus scale="  101.772">  1  5  2 -1</clus>
<clus scale="   44.977">  1  5  2 -1</clus>
</clustering>
</event>
<event>
 9    1  0.3231311E-005  0.9260803E+02  0.7546771E-02  0.1296869E+00
         21   -1    0    0  501  502  0.00000000000E+00  0.00000000000E+00  0.49552336167E+02  0.49552336167E+02  0.00000000000E+00 0. -1.
         -4   -1    0    0    0  501 -0.00000000000E+00 -0.00000000000E+00 -0.31422901005E+03  0.31422901005E+03  0.00000000000E+00 0.  1.
         23    2    1    2    0    0 -0.27600151609E+02 -0.56057638189E+01 -0.17085016527E+03  0.19556174774E+03  0.90892382787E+02 0.  0.
         23    2    1    2    0    0 -0.36059143017E+01  0.52848061168E+01 -0.10092087122E+03  0.13621566835E+03  0.91262008861E+02 0.  0.
        -11    1    3    3    0    0  0.58652971613E+01  0.29875794363E+02 -0.18572446479E+02  0.35663715003E+02  0.00000000000E+00 0.  1.
         11    1    3    3    0    0 -0.33465448771E+02 -0.35481558182E+02 -0.15227771879E+03  0.15989803273E+03  0.00000000000E+00 0. -1.
        -13    1    4    4    0    0  0.11918617909E+02 -0.23398422591E+02  0.38007170910E+01  0.26532717219E+02  0.00000000000E+00 0. -1.
         13    1    4    4    0    0 -0.15524532211E+02  0.28683228707E+02 -0.10472158831E+03  0.10968295113E+03  0.00000000000E+00 0.  1.
         -4    1    1    2    0  502  0.31206065911E+02  0.32095770210E+00  0.70943626024E+01  0.32003930137E+02  0.00000000000E+00 0.  1.
<scales pt_clust_5="13000.00000" pt_clust_6="13000.00000" pt_clust_7="13000.00000" pt_clust_8="13000.00000" pt_clust_9="31.20772"></scales>
<clustering>
<clus scale="   31.208">  1  9  2 -1</clus>
<clus scale="   90.892">  5  6 -1 -1</clus>
<clus scale="   91.262">  7  8 -1 -1</clus>
<clus scale="   92.244">  2  5  1 -1</clus>
<clus scale="   31.208">  1  5  2 -1</clus>
</clustering>
</event>
<event>
 9    1  0.3231311E-005  0.9265893E+02  0.7546771E-02  0.1297034E+00
         21   -1    0    0  501  502  0.00000000000E+00  0.00000000000E+00  0.10412067440E+03  0.10412067440E+03  0.00000000000E+00 0.  1.
         -4   -1    0    0    0  501 -0.00000000000E+00 -0.00000000000E+00 -0.36909831288E+03  0.36909831288E+03  0.00000000000E+00 0.  1.
         23    2    1    2    0    0 -0.90756557311E+01  0.31545460914E+02 -0.17622754496E+03  0.20098236129E+03  0.90886073261E+02 0.  0.
         23    2    1    2    0    0  0.21102664019E+02  0.11878411145E+02 -0.16161013969E+03  0.18656943319E+03  0.90021647790E+02 0.  0.
        -11    1    3    3    0    0 -0.43439679277E+02  0.23499486803E+02 -0.51487693791E+02  0.71345737277E+02  0.00000000000E+00 0.  1.
         11    1    3    3    0    0  0.34364023546E+02  0.80459741111E+01 -0.12473985117E+03  0.12963662401E+03  0.00000000000E+00 0. -1.
        -13    1    4    4    0    0  0.22880850765E+02 -0.34154086199E+02 -0.10978551078E+03  0.11723008707E+03  0.00000000000E+00 0. -1.
         13    1    4    4    0    0 -0.17781867463E+01  0.46032497344E+02 -0.51824628912E+02  0.69339346129E+02  0.00000000000E+00 0.  1.
         -4    1    1    2    0  502 -0.12027008288E+02 -0.43423872059E+02  0.72860046183E+02  0.85667192803E+02  0.00000000000E+00 0.  1.
<scales pt_clust_5="13000.00000" pt_clust_6="13000.00000" pt_clust_7="13000.00000" pt_clust_8="13000.00000" pt_clust_9="45.05865"></scales>
<clustering>
<clus scale="   45.059">  1  9  2 -1</clus>
<clus scale="   90.022">  7  8 -1 -1</clus>
<clus scale="   90.886">  5  6 -1 -1</clus>
<clus scale="   91.811">  1  7  2 -1</clus>
<clus scale="   45.059">  1  5  2 -1</clus>
</clustering>
</event>
<event>
 9    1  0.3231311E-005  0.1127444E+03  0.7546771E-02  0.1260811E+00
         21   -1    0    0  501  502  0.00000000000E+00  0.00000000000E+00  0.12084941618E+03  0.12084941618E+03  0.00000000000E+00 0. -1.
          2   -1    0    0  502    0 -0.00000000000E+00 -0.00000000000E+00 -0.31650549688E+03  0.31650549688E+03  0.00000000000E+00 0. -1.
         23    2    1    2    0    0 -0.26776842067E+01 -0.49361414772E+02 -0.26345875863E+03  0.28223362057E+03  0.88326552181E+02 0.  0.
         23    2    1    2    0    0  0.21563381186E+02  0.58125490427E+02  0.53921594201E+02  0.13009804213E+03  0.10086828144E+03 0.  0.
        -11    1    4    4    0    0  0.93985505167E+00 -0.22117387938E+02  0.40516554896E+02  0.46169832113E+02  0.00000000000E+00 0.  1.
         11    1    4    4    0    0  0.20623526134E+02  0.80242878365E+02  0.13405039305E+02  0.83928210021E+02  0.00000000000E+00 0. -1.
        -11    1    3    3    0    0 -0.33320227902E+02 -0.17737726617E+01 -0.41918462291E+02  0.53577433101E+02  0.00000000000E+00 0. -1.
         11    1    3    3    0    0  0.30642543695E+02 -0.47587642111E+02 -0.22154029634E+03  0.22865618747E+03  0.00000000000E+00 0.  1.
          2    1    1    2  501    0 -0.18885696979E+02 -0.87640756549E+01  0.13881083735E+02  0.25023250351E+02  0.00000000000E+00 0. -1.
<scales pt_clust_5="13000.00000" pt_clust_6="13000.00000" pt_clust_7="13000.00000" pt_clust_8="13000.00000" pt_clust_9="20.82015"></scales>
<clustering>
<clus scale="   20.820">  1  9  2 -1</clus>
<clus scale="   88.327">  7  8 -1 -1</clus>
<clus scale="  100.868">  5  6 -1 -1</clus>
<clus scale="  101.678">  2  7  1 -1</clus>
<clus scale="   20.820">  1  5  2 -1</clus>
</clustering>
</event>
<event>
 9    1  0.3231311E-005  0.1382793E+03  0.7546771E-02  0.1216299E+00
         21   -1    0    0  501  502  0.00000000000E+00  0.00000000000E+00  0.16971478727E+03  0.16971478727E+03  0.00000000000E+00 0. -1.
          3   -1    0    0  502    0 -0.00000000000E+00 -0.00000000000E+00 -0.28297968574E+03  0.28297968574E+03  0.00000000000E+00 0. -1.
         23    2    1    2    0    0 -0.12532952121E+03  0.33621127601E+02 -0.13848281828E+03  0.20995582043E+03  0.89811393832E+02 0.  0.
         23    2    1    2    0    0  0.63229964556E+02 -0.45279441245E+02 -0.61328887711E+02  0.13558165978E+03  0.92589944292E+02 0.  0.
        -13    1    3    3    0    0 -0.25871307520E+02 -0.10643958849E+02  0.64323917234E+01  0.28705297003E+02  0.00000000000E+00 0.  1.
         13    1    3    3    0    0 -0.99458213693E+02  0.44265086450E+02 -0.14491521001E+03  0.18125052342E+03  0.00000000000E+00 0. -1.
        -13    1    4    4    0    0  0.68219126749E+02  0.66565891211E+01 -0.30949588436E+02  0.75206625090E+02  0.00000000000E+00 0. -1.
         13    1    4    4    0    0 -0.49891621926E+01 -0.51936030366E+02 -0.30379299276E+02  0.60375034692E+02  0.00000000000E+00 0.  1.
          3    1    1    2  501    0  0.62099556656E+02  0.11658313644E+02  0.86546807526E+02  0.10715699280E+03  0.00000000000E+00 0. -1.
<scales pt_clust_5="13000.00000" pt_clust_6="13000.00000" pt_clust_7="13000.00000" pt_clust_8="13000.00000" pt_clust_9="63.18442"></scales>
<clustering>
<clus scale="   63.184">  1  9  2 -1</clus>
<clus scale="   89.811">  5  6 -1 -1</clus>
<clus scale="   92.590">  7  8 -1 -1</clus>
<clus scale="  136.434">  2  5  1 -1</clus>
<clus scale="   63.184">  1  5  2 -1</clus>
</clustering>
</event>
<event>
 9    1  0.3231311E-005  0.2888058E+03  0.7546771E-02  0.1091082E+00
          1   -1    0    0  502    0 -0.00000000000E+00  0.00000000000E+00  0.41946449667E+03  0.41946449667E+03  0.00000000000E+00 0. -1.
         21   -1    0    0  501  502  0.00000000000E+00 -0.00000000000E+00 -0.45785418132E+03  0.45785418132E+03  0.00000000000E+00 0. -1.
         23    2    1    2    0    0 -0.25466129180E+03  0.93790212304E+02  0.10422604918E+03  0.30563127536E+03  0.94331488291E+02 0.  0.
         23    2    1    2    0    0  0.16769701687E+03 -0.28077640392E+03 -0.13439986650E+03  0.36530396957E+03  0.91793178386E+02 0.  0.
        -11    1    4    4    0    0  0.51295786562E+01 -0.76535526876E+02 -0.47285298513E+02  0.90110481670E+02  0.00000000000E+00 0.  1.
         11    1    4    4    0    0  0.16256743822E+03 -0.20424087704E+03 -0.87114567991E+02  0.27519348790E+03  0.00000000000E+00 0. -1.
        -13    1    3    3    0    0 -0.15811883573E+03  0.10468563988E+03  0.77577154452E+02  0.20488744301E+03  0.00000000000E+00 0.  1.
         13    1    3    3    0    0 -0.96542456066E+02 -0.10895427576E+02  0.26648894728E+02  0.10074383234E+03  0.00000000000E+00 0. -1.
          1    1    1    2  501    0  0.86964274927E+02  0.18698619162E+03 -0.82158673186E+01  0.20638343307E+03  0.00000000000E+00 0. -1.
<scales pt_clust_5="13000.00000" pt_clust_6="13000.00000" pt_clust_7="13000.00000" pt_clust_8="13000.00000" pt_clust_9="206.21994"></scales>
<clustering>
<clus scale="   91.793">  5  6 -1 -1</clus>
<clus scale="   94.331">  7  8 -1 -1</clus>
<clus scale="  206.220">  2  9  1 -1</clus>
<clus scale="  287.987">  2  5  1 -1</clus>
<clus scale="  206.220">  2  5  1 -1</clus>
</clustering>
</event>
<event>
 9    1  0.3231311E-005  0.1120607E+03  0.7546771E-02  0.1257956E+00
         -1   -1    0    0    0  501 -0.00000000000E+00  0.00000000000E+00  0.91579734423E+02  0.91579734423E+02  0.00000000000E+00 0.  1.
         21   -1    0    0  501  502  0.00000000000E+00 -0.00000000000E+00 -0.28619707958E+03  0.28619707958E+03  0.00000000000E+00 0.  1.
         23    2    1    2    0    0  0.46444736729E+02 -0.57325843667E+02 -0.99165311675E+01  0.12116562355E+03  0.95600234399E+02 0.  0.
         23    2    1    2    0    0 -0.16072114262E+02  0.38522622320E+02 -0.42733432504E+02  0.11021858568E+03  0.92626589528E+02 0.  0.
        -13    1    4    4    0    0 -0.54601318695E+02  0.17644873253E+02 -0.19405186299E+02  0.60573978000E+02  0.00000000000E+00 0. -1.
         13    1    4    4    0    0  0.38529204434E+02  0.20877749067E+02 -0.23328246205E+02  0.49644607677E+02  0.00000000000E+00 0.  1.
        -13    1    3    3    0    0  0.24746721780E+02 -0.65847164708E+02 -0.41680919728E+02  0.81765202919E+02  0.00000000000E+00 0. -1.
         13    1    3    3    0    0  0.21698014949E+02  0.85213210410E+01  0.31764388561E+02  0.39400420628E+02  0.00000000000E+00 0.  1.
         -1    1    1    2    0  502 -0.30372622467E+02  0.18803221347E+02 -0.14196738148E+03  0.14639260478E+03  0.00000000000E+00 0.  1.
<scales pt_clust_5="13000.00000" pt_clust_6="13000.00000" pt_clust_7="13000.00000" pt_clust_8="13000.00000" pt_clust_9="35.72194"></scales>
<clustering>
<clus scale="   35.722">  2  9  1 -1</clus>
<clus scale="   92.627">  5  6 -1 -1</clus>
<clus scale="   95.600">  7  8 -1 -1</clus>
<clus scale="  109.535">  2  5  1 -1</clus>
<clus scale="   35.722">  2  5  1 -1</clus>
</clustering>
</event>
<event>
 9    1  0.3231311E-005  0.2324161E+03  0.7546771E-02  0.1126025E+00
         21   -1    0    0  501  502  0.00000000000E+00  0.00000000000E+00  0.60256724130E+03  0.60256724130E+03  0.00000000000E+00 0.  1.
          2   -1    0    0  502    0 -0.00000000000E+00 -0.00000000000E+00 -0.21443599693E+03  0.21443599693E+03  0.00000000000E+00 0. -1.
         23    2    1    2    0    0  0.16189787887E+03  0.15136688529E+03 -0.44546538241E+02  0.24911055193E+03  0.10463658953E+03 0.  0.
         23    2    1    2    0    0 -0.98152957954E+02 -0.16119173723E+03  0.10527849654E+03  0.23420085964E+03  0.90275697257E+02 0.  0.
        -11    1    3    3    0    0  0.85309654216E+02  0.14446494262E+03 -0.23720737003E+02  0.16944181926E+03  0.00000000000E+00 0. -1.
         11    1    3    3    0    0  0.76588224649E+02  0.69019426621E+01 -0.20825801238E+02  0.79668732666E+02  0.00000000000E+00 0.  1.
        -11    1    4    4    0    0 -0.28774076025E+02 -0.20930240608E+02  0.62595858651E+02  0.72001832916E+02  0.00000000000E+00 0.  1.
         11    1    4    4    0    0 -0.69378881929E+02 -0.14026149662E+03  0.42682637889E+02  0.16219902672E+03  0.00000000000E+00 0. -1.
          2    1    1    2  501    0 -0.63744920911E+02  0.98248519449E+01  0.32739928608E+03  0.33369182666E+03  0.00000000000E+00 0. -1.
<scales pt_clust_5="13000.00000" pt_clust_6="13000.00000" pt_clust_7="13000.00000" pt_clust_8="13000.00000" pt_clust_9="64.49762"></scales>
<clustering>
<clus scale="   64.498">  1  9  2 -1</clus>
<clus scale="   90.276">  7  8 -1 -1</clus>
<clus scale="  104.637">  5  6 -1 -1</clus>
<clus scale="  226.314">  1  7  2 -1</clus>
<clus scale="   64.498">  1  5  2 -1</clus>
</clustering>
</event>
<event>
 9    1  0.3231311E-005  0.1082539E+03  0.7546771E-02  0.1266073E+00
         21   -1    0    0  501  502  0.00000000000E+00  0.00000000000E+00  0.21823319684E+03  0.21823319684E+03  0.00000000000E+00 0.  1.
          1   -1    0    0  502    0 -0.00000000000E+00 -0.00000000000E+00 -0.91247203734E+02  0.91247203734E+02  0.00000000000E+00 0. -1.
         23    2    1    2    0    0 -0.38982367351E+02 -0.36237990359E+02 -0.23394164646E+02  0.11356053307E+03  0.97549427583E+02 0.  0.
         23    2    1    2    0    0  0.20102828347E+02  0.23552908381E+02  0.95193098865E+02  0.13622933420E+03  0.92400444932E+02 0.  0.
        -11    1    3    3    0    0 -0.61875018034E+02 -0.52957826717E+02 -0.95164886815E+01  0.81997639138E+02  0.00000000000E+00 0.  1.
         11    1    3    3    0    0  0.22892650683E+02  0.16719836358E+02 -0.13877675965E+02  0.31562893931E+02  0.00000000000E+00 0. -1.
        -13    1    4    4    0    0  0.10407647993E+02  0.55647511117E+02  0.32876562878E+02  0.65466273889E+02  0.00000000000E+00 0. -1.
         13    1    4    4    0    0  0.96951803545E+01 -0.32094602736E+02  0.62316535987E+02  0.70763060309E+02  0.00000000000E+00 0.  1.
          1    1    1    2  501    0  0.18879539004E+02  0.12685081979E+02  0.55187058885E+02  0.59690533304E+02  0.00000000000E+00 0. -1.
<scales pt_clust_5="13000.00000" pt_clust_6="13000.00000" pt_clust_7="13000.00000" pt_clust_8="13000.00000" pt_clust_9="22.74529"></scales>
<clustering>
<clus scale="   22.745">  1  9  2 -1</clus>
<clus scale="   92.400">  7  8 -1 -1</clus>
<clus scale="   97.549">  5  6 -1 -1</clus>
<clus scale="  103.638">  1  7  2 -1</clus>
<clus scale="   22.745">  1  5  2 -1</clus>
</clustering>
</event>
<event>
 9    1  0.3231311E-005  0.1087260E+03  0.7546771E-02  0.1264587E+00
         21   -1    0    0  501  502  0.00000000000E+00  0.00000000000E+00  0.21109161559E+03  0.21109161559E+03  0.00000000000E+00 0.  1.
          1   -1    0    0  502    0 -0.00000000000E+00 -0.00000000000E+00 -0.16840313361E+03  0.16840313361E+03  0.00000000000E+00 0. -1.
         23    2    1    2    0    0  0.56251780441E+02 -0.59068515815E+01 -0.12039352039E+03  0.16074095382E+03  0.90243563678E+02 0.  0.
         23    2    1    2    0    0 -0.34792162221E+02 -0.83046261128E+01  0.16456508398E+03  0.19297239039E+03  0.94218974834E+02 0.  0.
        -11    1    3    3    0    0  0.64007994085E+02  0.23936112056E+02 -0.10736234172E+03  0.12726599383E+03  0.00000000000E+00 0. -1.
         11    1    3    3    0    0 -0.77562136436E+01 -0.29842963638E+02 -0.13031178675E+02  0.33474959991E+02  0.00000000000E+00 0.  1.
        -13    1    4    4    0    0 -0.80984400841E+01  0.38011909022E+02  0.10964976049E+03  0.11633382971E+03  0.00000000000E+00 0. -1.
         13    1    4    4    0    0 -0.26693722137E+02 -0.46316535135E+02  0.54915323489E+02  0.76638560675E+02  0.00000000000E+00 0.  1.
          1    1    1    2  501    0 -0.21459618220E+02  0.14211477694E+02 -0.14830816093E+01  0.25781404994E+02  0.00000000000E+00 0. -1.
<scales pt_clust_5="13000.00000" pt_clust_6="13000.00000" pt_clust_7="13000.00000" pt_clust_8="13000.00000" pt_clust_9="25.73873"></scales>
<clustering>
<clus scale="   25.739">  1  9  2 -1</clus>
<clus scale="   90.244">  5  6 -1 -1</clus>
<clus scale="   94.219">  7  8 -1 -1</clus>
<clus scale="  105.300">  2  5  1 -1</clus>
<clus scale="   25.739">  1  5  2 -1</clus>
</clustering>
</event>
<event>
 9    1  0.3231311E-005  0.1161329E+03  0.7546771E-02  0.1261510E+00
          2   -1    0    0  502    0 -0.00000000000E+00  0.00000000000E+00  0.54555298580E+03  0.54555298580E+03  0.00000000000E+00 0. -1.
         21   -1    0    0  501  502  0.00000000000E+00 -0.00000000000E+00 -0.32115535696E+02  0.32115535696E+02  0.00000000000E+00 0. -1.
         23    2    1    2    0    0  0.41608313771E+02  0.44024727100E+02  0.26209834290E+03  0.27582137070E+03  0.60929950016E+02 0.  0.
         23    2    1    2    0    0 -0.51231858246E+02 -0.77737244253E+02  0.19709656380E+03  0.23726077503E+03  0.93690113995E+02 0.  0.
        -11    1    3    3    0    0 -0.10573240486E+02  0.25509639851E+02  0.12398278249E+03  0.12702072860E+03  0.00000000000E+00 0. -1.
         11    1    3    3    0    0  0.52181554257E+02  0.18515087249E+02  0.13811556042E+03  0.14880064210E+03  0.00000000000E+00 0.  1.
        -13    1    4    4    0    0 -0.29691559234E+02  0.17358474261E+02  0.57019850452E+02  0.66589553715E+02  0.00000000000E+00 0.  1.
         13    1    4    4    0    0 -0.21540299012E+02 -0.95095718514E+02  0.14007671335E+03  0.17067122131E+03  0.00000000000E+00 0. -1.
          2    1    1    2  501    0  0.96235444756E+01  0.33712517154E+02  0.54242543400E+02  0.64586375774E+02  0.00000000000E+00 0. -1.
<scales pt_clust_5="13000.00000" pt_clust_6="13000.00000" pt_clust_7="13000.00000" pt_clust_8="13000.00000" pt_clust_9="35.05918"></scales>
<clustering>
<clus scale="   35.059">  2  9  1 -1</clus>
<clus scale="   60.930">  5  6 -1 -1</clus>
<clus scale="   91.769">  1  5  2 -1</clus>
<clus scale="   93.690">  7  8 -1 -1</clus>
<clus scale="   35.059">  2  5  1 -1</clus>
</clustering>
</event>
<event>
 9    1  0.3231311E-005  0.1152922E+03  0.7546771E-02  0.1251647E+00
          1   -1    0    0  502    0 -0.00000000000E+00  0.00000000000E+00  0.19445644866E+03  0.19445644866E+03  0.00000000000E+00 0. -1.
         21   -1    0    0  501  502  0.00000000000E+00 -0.00000000000E+00 -0.15369943523E+03  0.15369943523E+03  0.00000000000E+00 0. -1.
         23    2    1    2    0    0 -0.11988984785E+02 -0.48268485610E+02  0.52929591925E+02  0.11513989720E+03  0.89342441019E+02 0.  0.
         23    2    1    2    0    0 -0.27486462044E+01  0.10597678849E+03  0.48591308204E+02  0.14792958404E+03  0.91013250944E+02 0.  0.
        -11    1    4    4    0    0 -0.42520792453E+02  0.59799748086E+02  0.60874169345E+01  0.73628013058E+02  0.00000000000E+00 0. -1.
         11    1    4    4    0    0  0.39772146248E+02  0.46177040399E+02  0.42503891269E+02  0.74301570981E+02  0.00000000000E+00 0.  1.
        -13    1    3    3    0    0 -0.44477901577E+02 -0.33677255621E+02  0.58333571708E+01  0.56093398281E+02  0.00000000000E+00 0. -1.
         13    1    3    3    0    0  0.32488916792E+02 -0.14591229989E+02  0.47096234754E+02  0.59046498921E+02  0.00000000000E+00 0.  1.
          1    1    1    2  501    0  0.14737630989E+02 -0.57708302875E+02 -0.60763886708E+02  0.85086402649E+02  0.00000000000E+00 0. -1.
<scales pt_clust_5="13000.00000" pt_clust_6="13000.00000" pt_clust_7="13000.00000" pt_clust_8="13000.00000" pt_clust_9="59.56044"></scales>
<clustering>
<clus scale="   59.560">  2  9  1 -1</clus>
<clus scale="   89.342">  7  8 -1 -1</clus>
<clus scale="   91.013">  5  6 -1 -1</clus>
<clus scale="  113.978">  1  7  2 -1</clus>
<clus scale="   59.560">  2  5  1 -1</clus>
</clustering>
</event>
<event>
 9    1  0.3231311E-005  0.1041128E+03  0.7546771E-02  0.1272302E+00
         21   -1    0    0  501  502  0.00000000000E+00  0.00000000000E+00  0.12091401400E+03  0.12091401400E+03  0.00000000000E+00 0.  1.
          3   -1    0    0  502    0 -0.00000000000E+00 -0.00000000000E+00 -0.19053484444E+03  0.19053484444E+03  0.00000000000E+00 0. -1.
         23    2    1    2    0    0 -0.43838155732E+02 -0.21262630091E+02 -0.70638361472E+02  0.12652103909E+03  0.92972640516E+02 0.  0.
         23    2    1    2    0    0  0.51086802500E+02 -0.34750777840E+02 -0.36990365677E+02  0.11684959258E+03  0.92022074435E+02 0.  0.
        -11    1    3    3    0    0 -0.64156894346E+02 -0.60767185108E+01 -0.76959959590E+02  0.10037862810E+03  0.00000000000E+00 0.  1.
         11    1    3    3    0    0  0.20318738614E+02 -0.15185911580E+02  0.63215981176E+01  0.26142410986E+02  0.00000000000E+00 0. -1.
        -13    1    4    4    0    0  0.71511497639E+02 -0.57049931292E+01 -0.10399460626E+02  0.72488550975E+02  0.00000000000E+00 0.  1.
         13    1    4    4    0    0 -0.20424695139E+02 -0.29045784711E+02 -0.26590905051E+02  0.44361041606E+02  0.00000000000E+00 0. -1.
          3    1    1    2  501    0 -0.72486467681E+01  0.56013407931E+02  0.38007896709E+02  0.68078226771E+02  0.00000000000E+00 0. -1.
<scales pt_clust_5="13000.00000" pt_clust_6="13000.00000" pt_clust_7="13000.00000" pt_clust_8="13000.00000" pt_clust_9="56.48048"></scales>
<clustering>
<clus scale="   56.480">  1  9  2 -1</clus>
<clus scale="   92.022">  7  8 -1 -1</clus>
<clus scale="   92.973">  5  6 -1 -1</clus>
<clus scale="  103.265">  1  7  2 -1</clus>
<clus scale="   56.480">  1  5  2 -1</clus>
</clustering>
</event>
<event>
 9    1  0.3231311E-005  0.1864488E+03  0.7546771E-02  0.1165897E+00
         21   -1    0    0  501  502  0.00000000000E+00  0.00000000000E+00  0.22447551196E+03  0.22447551196E+03  0.00000000000E+00 0.  1.
          3   -1    0    0  502    0 -0.00000000000E+00 -0.00000000000E+00 -0.24866240595E+03  0.24866240595E+03  0.00000000000E+00 0. -1.
         23    2    1    2    0    0  0.83208751950E+02  0.11555449495E+03 -0.11263128504E+03  0.19667737685E+03  0.75628344487E+02 0.  0.
         23    2    1    2    0    0 -0.94248260688E+02 -0.15108722738E+03  0.35426242103E+02  0.21168886558E+03  0.10884425692E+03 0.  0.
        -11    1    3    3    0    0  0.41998479954E+02  0.13966425238E+02 -0.61346798943E+02  0.75646302573E+02  0.00000000000E+00 0.  1.
         11    1    3    3    0    0  0.41210271996E+02  0.10158806971E+03 -0.51284486093E+02  0.12103107427E+03  0.00000000000E+00 0. -1.
        -13    1    4    4    0    0 -0.74673495654E+02 -0.12044069141E+03 -0.22308332183E+02  0.14345644909E+03  0.00000000000E+00 0.  1.
         13    1    4    4    0    0 -0.19574765033E+02 -0.30646535968E+02  0.57734574286E+02  0.68232416496E+02  0.00000000000E+00 0. -1.
          3    1    1    2  501    0  0.11039508738E+02  0.35532732424E+02  0.53018148942E+02  0.64771675476E+02  0.00000000000E+00 0. -1.
<scales pt_clust_5="13000.00000" pt_clust_6="13000.00000" pt_clust_7="13000.00000" pt_clust_8="13000.00000" pt_clust_9="37.20814"></scales>
<clustering>
<clus scale="   37.208">  1  9  2 -1</clus>
<clus scale="   75.628">  5  6 -1 -1</clus>
<clus scale="  108.844">  7  8 -1 -1</clus>
<clus scale="  169.221">  2  5  1 -1</clus>
<clus scale="   37.208">  1  5  2 -1</clus>
</clustering>
</event>
<event>
 9    1  0.3231311E-005  0.1734990E+03  0.7546771E-02  0.1174263E+00
         -1   -1    0    0    0  501 -0.00000000000E+00  0.00000000000E+00  0.29251217560E+03  0.29251217560E+03  0.00000000000E+00 0.  1.
         21   -1    0    0  501  502  0.00000000000E+00 -0.00000000000E+00 -0.15753332830E+03  0.15753332830E+03  0.00000000000E+00 0. -1.
         23    2    1    2    0    0  0.73643656340E+02 -0.14271741736E+03  0.13311182062E+03  0.22772123134E+03  0.91359471748E+02 0.  0.
         23    2    1    2    0    0 -0.75531705125E+02  0.10762616035E+03  0.45417837116E+02  0.16636326705E+03  0.91244330368E+02 0.  0.
        -11    1    4    4    0    0  0.13014824201E+02  0.49664698827E+02  0.36623950761E+00  0.51342984817E+02  0.00000000000E+00 0. -1.
         11    1    4    4    0    0 -0.88546529326E+02  0.57961461518E+02  0.45051597608E+02  0.11502028223E+03  0.00000000000E+00 0.  1.
        -13    1    3    3    0    0  0.46514671621E+01 -0.10475766868E+03  0.88508475247E+02  0.13722082744E+03  0.00000000000E+00 0.  1.
         13    1    3    3    0    0  0.68992189178E+02 -0.37959748685E+02  0.44603345372E+02  0.90500403900E+02  0.00000000000E+00 0. -1.
         -1    1    1    2    0  502  0.18880487857E+01  0.35091257016E+02 -0.43550810435E+02  0.55961005502E+02  0.00000000000E+00 0.  1.
<scales pt_clust_5="13000.00000" pt_clust_6="13000.00000" pt_clust_7="13000.00000" pt_clust_8="13000.00000" pt_clust_9="35.14201"></scales>
<clustering>
<clus scale="   35.142">  2  9  1 -1</clus>
<clus scale="   91.244">  5  6 -1 -1</clus>
<clus scale="   91.359">  7  8 -1 -1</clus>
<clus scale="  173.438">  2  5  1 -1</clus>
<clus scale="   35.142">  2  5  1 -1</clus>
</clustering>
</event>
<event>
 9    1  0.3231311E-005  0.3129804E+03  0.7546771E-02  0.1078928E+00
         -1   -1    0    0    0  501 -0.00000000000E+00  0.00000000000E+00  0.49584534136E+03  0.49584534136E+03  0.00000000000E+00 0.  1.
         21   -1    0    0  501  502  0.00000000000E+00 -0.00000000000E+00 -0.22384893300E+03  0.22384893300E+03  0.00000000000E+00 0. -1.
         23    2    1    2    0    0 -0.27514258030E+03  0.14068459006E+03  0.16090613713E+03  0.36010176300E+03  0.91032419384E+02 0.  0.
         23    2    1    2    0    0  0.27026374680E+03 -0.10516520531E+03  0.11138919987E+03  0.32373837537E+03  0.91086599445E+02 0.  0.
        -11    1    4    4    0    0  0.23006102505E+03 -0.11784661799E+03  0.11168039043E+03  0.28158197781E+03  0.00000000000E+00 0.  1.
         11    1    4    4    0    0  0.40202721754E+02  0.12681412681E+02 -0.29119056120E+00  0.42156397569E+02  0.00000000000E+00 0. -1.
        -13    1    3    3    0    0 -0.22655738887E+03  0.76177943264E+02  0.10067961870E+03  0.25936020341E+03  0.00000000000E+00 0. -1.
         13    1    3    3    0    0 -0.48585191423E+02  0.64506646792E+02  0.60226518429E+02  0.10074155959E+03  0.00000000000E+00 0.  1.
         -1    1    1    2    0  502  0.48788334905E+01 -0.35519384748E+02 -0.29892863663E+00  0.35854135988E+02  0.00000000000E+00 0.  1.
<scales pt_clust_5="13000.00000" pt_clust_6="13000.00000" pt_clust_7="13000.00000" pt_clust_8="13000.00000" pt_clust_9="35.85289"></scales>
<clustering>
<clus scale="   35.853">  2  9  1 -1</clus>
<clus scale="   91.032">  7  8 -1 -1</clus>
<clus scale="   91.087">  5  6 -1 -1</clus>
<clus scale="  312.965">  1  7  2 -1</clus>
<clus scale="   35.853">  2  5  1 -1</clus>
</clustering>
</event>
<event>
 9    1  0.3231311E-005  0.1058988E+03  0.7546771E-02  0.1269445E+00
          4   -1    0    0  502    0 -0.00000000000E+00  0.00000000000E+00  0.14357015470E+03  0.14357015470E+03  0.00000000000E+00 0. -1.
         21   -1    0    0  501  502  0.00000000000E+00 -0.00000000000E+00 -0.24186325905E+03  0.24186325905E+03  0.00000000000E+00 0.  1.
         23    2    1    2    0    0  0.47739727755E+02 -0.17470966048E+02  0.99017774145E+02  0.14411936024E+03  0.91550828172E+02 0.  0.
         23    2    1    2    0    0 -0.62729191349E+02  0.34211064652E+02 -0.14610773222E+03  0.18539735556E+03  0.88990795269E+02 0.  0.
        -11    1    3    3    0    0  0.23824801796E+02 -0.30034371727E+02  0.10882501488E+03  0.11538010457E+03  0.00000000000E+00 0. -1.
         11    1    3    3    0    0  0.23914925959E+02  0.12563405679E+02 -0.98072407372E+01  0.28739255675E+02  0.00000000000E+00 0.  1.
        -13    1    4    4    0    0 -0.20530899288E+00  0.36107859598E+02 -0.10374655988E+03  0.10985066392E+03  0.00000000000E+00 0.  1.
         13    1    4    4    0    0 -0.62523882356E+02 -0.18967949466E+01 -0.42361172338E+02  0.75546691641E+02  0.00000000000E+00 0. -1.
          4    1    1    2  501    0  0.14989463595E+02 -0.16740098604E+02 -0.51203146284E+02  0.55916697949E+02  0.00000000000E+00 0. -1.
<scales pt_clust_5="13000.00000" pt_clust_6="13000.00000" pt_clust_7="13000.00000" pt_clust_8="13000.00000" pt_clust_9="22.47031"></scales>
<clustering>
<clus scale="   22.470">  2  9  1 -1</clus>
<clus scale="   88.991">  7  8 -1 -1</clus>
<clus scale="   91.551">  5  6 -1 -1</clus>
<clus scale="  103.694">  2  7  1 -1</clus>
<clus scale="   22.470">  2  5  1 -1</clus>
</clustering>
</event>
<event>
 9    1  0.3231311E-005  0.1314175E+03  0.7546771E-02  0.1234738E+00
          2   -1    0    0  502    0 -0.00000000000E+00  0.00000000000E+00  0.39977986140E+03  0.39977986140E+03  0.00000000000E+00 0. -1.
         21   -1    0    0  501  502  0.00000000000E+00 -0.00000000000E+00 -0.20772095690E+03  0.20772095690E+03  0.00000000000E+00 0. -1.
         23    2    1    2    0    0 -0.44296444236E+02  0.42961415038E+02  0.30735278729E+03  0.32587540133E+03  0.89001029107E+02 0.  0.
         23    2    1    2    0    0  0.11821754269E+02  0.76780389729E+02 -0.97945720027E+02  0.15635106186E+03  0.93900523702E+02 0.  0.
        -11    1    4    4    0    0  0.15107823977E+02  0.37942493779E+02 -0.10853267499E+03  0.11596215210E+03  0.00000000000E+00 0.  1.
         11    1    4    4    0    0 -0.32860697074E+01  0.38837895949E+02  0.10586954963E+02  0.40388909756E+02  0.00000000000E+00 0. -1.
        -11    1    3    3    0    0 -0.28865603347E+02 -0.14791471113E+02  0.37959460803E+02  0.49929263350E+02  0.00000000000E+00 0.  1.
         11    1    3    3    0    0 -0.15430840889E+02  0.57752886151E+02  0.26939332649E+03  0.27594613798E+03  0.00000000000E+00 0. -1.
          2    1    1    2  501    0  0.32474689967E+02 -0.11974180477E+03 -0.17348162760E+02  0.12527435511E+03  0.00000000000E+00 0. -1.
<scales pt_clust_5="13000.00000" pt_clust_6="13000.00000" pt_clust_7="13000.00000" pt_clust_8="13000.00000" pt_clust_9="91.94162"></scales>
<clustering>
<clus scale="   89.001">  7  8 -1 -1</clus>
<clus scale="   93.901">  5  6 -1 -1</clus>
<clus scale="  108.301">  1  7  2 -1</clus>
<clus scale="   91.942">  2  9  1 -1</clus>
<clus scale="   91.942">  2  5  1 -1</clus>
</clustering>
</event>
<event>
 9    1  0.3231311E-005  0.9706062E+02  0.7546771E-02  0.1291511E+00
          1   -1    0    0  502    0 -0.00000000000E+00  0.00000000000E+00  0.22657720816E+03  0.22657720816E+03  0.00000000000E+00 0. -1.
         21   -1    0    0  501  502  0.00000000000E+00 -0.00000000000E+00 -0.72442594958E+02  0.72442594958E+02  0.00000000000E+00 0.  1.
         23    2    1    2    0    0  0.38139901199E+01  0.42205056380E+02  0.12235938548E+03  0.15373324151E+03  0.82863001550E+02 0.  0.
         23    2    1    2    0    0 -0.21565408405E+02 -0.43818529840E+01  0.40103762199E+02  0.10268289917E+03  0.91930400652E+02 0.  0.
        -11    1    4    4    0    0  0.25390009500E+02 -0.26449674269E+02 -0.71052460639E+00  0.36670733515E+02  0.00000000000E+00 0. -1.
         11    1    4    4    0    0 -0.46955417905E+02  0.22067821285E+02  0.40814286805E+02  0.66012165654E+02  0.00000000000E+00 0.  1.
        -13    1    3    3    0    0  0.26970687515E+02  0.46616631652E+02  0.11806987744E+03  0.12977297211E+03  0.00000000000E+00 0. -1.
         13    1    3    3    0    0 -0.23156697396E+02 -0.44115752719E+01  0.42895080424E+01  0.23960269404E+02  0.00000000000E+00 0.  1.
          1    1    1    2  501    0  0.17751418285E+02 -0.37823203396E+02 -0.83285344794E+01  0.42603662435E+02  0.00000000000E+00 0. -1.
<scales pt_clust_5="13000.00000" pt_clust_6="13000.00000" pt_clust_7="13000.00000" pt_clust_8="13000.00000" pt_clust_9="41.78167"></scales>
<clustering>
<clus scale="   41.782">  2  9  1 -1</clus>
<clus scale="   82.863">  7  8 -1 -1</clus>
<clus scale="   88.520">  1  7  2 -1</clus>
<clus scale="   91.930">  5  6 -1 -1</clus>
<clus scale="   41.782">  2  5  1 -1</clus>
</clustering>
</event>
<event>
 9    1  0.3231311E-005  0.1153541E+03  0.7546771E-02  0.1252248E+00
          1   -1    0    0  502    0 -0.00000000000E+00  0.00000000000E+00  0.39907896367E+02  0.39907896367E+02  0.00000000000E+00 0. -1.
         21   -1    0    0  501  502  0.00000000000E+00 -0.00000000000E+00 -0.84311049216E+03  0.84311049216E+03  0.00000000000E+00 0. -1.
         23    2    1    2    0    0 -0.13173872308E+02 -0.99043852690E+02 -0.13680461309E+03  0.19271701762E+03  0.91875519324E+02 0.  0.
         23    2    1    2    0    0  0.14459720462E+01  0.25974598259E+02 -0.23043039354E+03  0.24809734741E+03  0.88189324403E+02 0.  0.
        -11    1    3    3    0    0  0.22691894333E+02 -0.62796793769E+01  0.44531130932E-01  0.23544817360E+02  0.00000000000E+00 0.  1.
         11    1    3    3    0    0 -0.35865766641E+02 -0.92764173313E+02 -0.13684914422E+03  0.16917220026E+03  0.00000000000E+00 0. -1.
        -13    1    4    4    0    0  0.18419710809E+02 -0.26434057040E+02 -0.12568470555E+03  0.12974856580E+03  0.00000000000E+00 0.  1.
         13    1    4    4    0    0 -0.16973738763E+02  0.52408655299E+02 -0.10474568799E+03  0.11834878161E+03  0.00000000000E+00 0. -1.
          1    1    1    2  501    0  0.11727900261E+02  0.73069254431E+02 -0.43596758917E+03  0.44220402349E+03  0.00000000000E+00 0. -1.
<scales pt_clust_5="13000.00000" pt_clust_6="13000.00000" pt_clust_7="13000.00000" pt_clust_8="13000.00000" pt_clust_9="74.00446"></scales>
<clustering>
<clus scale="   74.004">  2  9  1 -1</clus>
<clus scale="   88.189">  7  8 -1 -1</clus>
<clus scale="   91.876">  5  6 -1 -1</clus>
<clus scale="  112.440">  2  7  1 -1</clus>
<clus scale="   74.004">  2  5  1 -1</clus>
</clustering>
</event>
<event>
 9    1  0.3231311E-005  0.1050665E+03  0.7546771E-02  0.1271705E+00
         21   -1    0    0  501  502  0.00000000000E+00  0.00000000000E+00  0.25732709868E+03  0.25732709868E+03  0.00000000000E+00 0. -1.
          2   -1    0    0  502    0 -0.00000000000E+00 -0.00000000000E+00 -0.91327010194E+02  0.91327010194E+02  0.00000000000E+00 0. -1.
         23    2    1    2    0    0 -0.45310998915E+02 -0.46815681987E+02  0.65583457659E+00  0.11157362014E+03  0.90572887162E+02 0.  0.
         23    2    1    2    0    0  0.19545736485E+02  0.10262646100E+02  0.41586167846E+02  0.10549007478E+03  0.94400152544E+02 0.  0.
        -13    1    3    3    0    0  0.78273473289E+01  0.19536934323E+02  0.14345226385E+02  0.25470466996E+02  0.00000000000E+00 0.  1.
         13    1    3    3    0    0 -0.53138346244E+02 -0.66352616310E+02 -0.13689391809E+02  0.86103153141E+02  0.00000000000E+00 0. -1.
        -13    1    4    4    0    0  0.46657726732E+02  0.32353045691E+02  0.86169805505E+01  0.57427479338E+02  0.00000000000E+00 0.  1.
         13    1    4    4    0    0 -0.27111990248E+02 -0.22090399591E+02  0.32969187295E+02  0.48062595437E+02  0.00000000000E+00 0. -1.
          2    1    1    2  501    0  0.25765262430E+02  0.36553035886E+02  0.12375808606E+03  0.13159041396E+03  0.00000000000E+00 0. -1.
<scales pt_clust_5="13000.00000" pt_clust_6="13000.00000" pt_clust_7="13000.00000" pt_clust_8="13000.00000" pt_clust_9="44.72106"></scales>
<clustering>
<clus scale="   44.721">  1  9  2 -1</clus>
<clus scale="   90.573">  5  6 -1 -1</clus>
<clus scale="   94.400">  7  8 -1 -1</clus>
<clus scale="  101.642">  2  5  1 -1</clus>
<clus scale="   44.721">  1  5  2 -1</clus>
</clustering>
</event>
<event>
 9    1  0.3231311E-005  0.1491960E+03  0.7546771E-02  0.1203389E+00
          2   -1    0    0  502    0 -0.00000000000E+00  0.00000000000E+00  0.85667125457E+02  0.85667125457E+02  0.00000000000E+00 0. -1.
         21   -1    0    0  501  502  0.00000000000E+00 -0.00000000000E+00 -0.31637233054E+03  0.31637233054E+03  0.00000000000E+00 0.  1.
         23    2    1    2    0    0 -0.95881000658E+02 -0.36365660018E+02 -0.55042897814E+02  0.14835904399E+03  0.92005748839E+02 0.  0.
         23    2    1    2    0    0  0.11897866465E+03  0.31755544574E+02 -0.15533525426E+03  0.22256860828E+03  0.10120971754E+03 0.  0.
        -11    1    4    4    0    0  0.13598151538E+03  0.17425177228E+02 -0.13135044074E+03  0.18986191722E+03  0.00000000000E+00 0.  1.
         11    1    4    4    0    0 -0.17002850726E+02  0.14330367346E+02 -0.23984813518E+02  0.32706691068E+02  0.00000000000E+00 0. -1.
        -13    1    3    3    0    0 -0.98336421215E+02  0.12622282251E+01 -0.28997225511E+02  0.10253040546E+03  0.00000000000E+00 0. -1.
         13    1    3    3    0    0  0.24554205569E+01 -0.37627888243E+02 -0.26045672303E+02  0.45828638529E+02  0.00000000000E+00 0.  1.
          2    1    1    2  501    0 -0.23097663996E+02  0.46101154434E+01 -0.20327053007E+02  0.31111803715E+02  0.00000000000E+00 0. -1.
<scales pt_clust_5="13000.00000" pt_clust_6="13000.00000" pt_clust_7="13000.00000" pt_clust_8="13000.00000" pt_clust_9="23.55324"></scales>
<clustering>
<clus scale="   23.553">  2  9  1 -1</clus>
<clus scale="   92.006">  7  8 -1 -1</clus>
<clus scale="  101.210">  5  6 -1 -1</clus>
<clus scale="  143.112">  1  7  2 -1</clus>
<clus scale="   23.553">  2  5  1 -1</clus>
</clustering>
</event>
<event>
 9    1  0.3231311E-005  0.1122233E+03  0.7546771E-02  0.1263517E+00
          2   -1    0    0  502    0 -0.00000000000E+00  0.00000000000E+00  0.26452955381E+03  0.26452955381E+03  0.00000000000E+00 0. -1.
         21   -1    0    0  501  502  0.00000000000E+00 -0.00000000000E+00 -0.17393079911E+03  0.17393079911E+03  0.00000000000E+00 0.  1.
         23    2    1    2    0    0  0.22848312831E+02 -0.40531144143E+02  0.14467733641E+03  0.17734794649E+03  0.91410849520E+02 0.  0.
         23    2    1    2    0    0  0.15718403935E+02 -0.53484748794E+02 -0.93162068066E+02  0.15223679542E+03  0.10672012171E+03 0.  0.
        -11    1    4    4    0    0  0.51681651158E+02 -0.41715274928E+02 -0.19165964031E+02  0.69126633116E+02  0.00000000000E+00 0.  1.
         11    1    4    4    0    0 -0.35963247222E+02 -0.11769473866E+02 -0.73996104035E+02  0.83110162304E+02  0.00000000000E+00 0. -1.
        -13    1    3    3    0    0  0.44035760410E+02 -0.57907136261E+02  0.86387881893E+02  0.11293914628E+03  0.00000000000E+00 0. -1.
         13    1    3    3    0    0 -0.21187447578E+02  0.17375992118E+02  0.58289454514E+02  0.64408800210E+02  0.00000000000E+00 0.  1.
          2    1    1    2  501    0 -0.38566716767E+02  0.94015892937E+02  0.39083486358E+02  0.10887561101E+03  0.00000000000E+00 0. -1.
<scales pt_clust_5="13000.00000" pt_clust_6="13000.00000" pt_clust_7="13000.00000" pt_clust_8="13000.00000" pt_clust_9="101.61885"></scales>
<clustering>
<clus scale="   91.411">  7  8 -1 -1</clus>
<clus scale="  101.619">  2  9  1 -1</clus>
<clus scale="   97.780">  1  7  2 -1</clus>
<clus scale="  106.720">  5  6 -1 -1</clus>
<clus scale="  101.619">  2  5  1 -1</clus>
</clustering>
</event>
<event>
 9    1  0.3231311E-005  0.1125056E+03  0.7546771E-02  0.1256798E+00
         21   -1    0    0  501  502  0.00000000000E+00  0.00000000000E+00  0.72675834757E+03  0.72675834757E+03  0.00000000000E+00 0. -1.
         -3   -1    0    0    0  501 -0.00000000000E+00 -0.00000000000E+00 -0.33155432821E+02  0.33155432821E+02  0.00000000000E+00 0.  1.
         23    2    1    2    0    0  0.19108905154E+02  0.43245327450E+02  0.14940035545E+03  0.18064693025E+03  0.89875127802E+02 0.  0.
         23    2    1    2    0    0 -0.51698032672E+02 -0.80433817581E+02  0.27248772116E+03  0.30308939217E+03  0.92039860200E+02 0.  0.
        -11    1    3    3    0    0  0.22251277377E+02  0.13760915362E+01 -0.30671685392E+01  0.22503788474E+02  0.00000000000E+00 0.  1.
         11    1    3    3    0    0 -0.31423722233E+01  0.41869235914E+02  0.15246752399E+03  0.15814314177E+03  0.00000000000E+00 0. -1.
        -11    1    4    4    0    0 -0.35858522933E+01 -0.83727177774E+02  0.15773685644E+03  0.17861694913E+03  0.00000000000E+00 0.  1.
         11    1    4    4    0    0 -0.48112180378E+02  0.32933601927E+01  0.11475086472E+03  0.12447244304E+03  0.00000000000E+00 0. -1.
         -3    1    1    2    0  502  0.32589127517E+02  0.37188490131E+02  0.27171483813E+03  0.27617745797E+03  0.00000000000E+00 0.  1.
<scales pt_clust_5="13000.00000" pt_clust_6="13000.00000" pt_clust_7="13000.00000" pt_clust_8="13000.00000" pt_clust_9="49.44730"></scales>
<clustering>
<clus scale="   49.447">  1  9  2 -1</clus>
<clus scale="   89.875">  5  6 -1 -1</clus>
<clus scale="   92.040">  7  8 -1 -1</clus>
<clus scale="  110.742">  2  5  1 -1</clus>
<clus scale="   49.447">  1  5  2 -1</clus>
</clustering>
</event>
<event>
 9    1  0.3231311E-005  0.1249788E+03  0.7546771E-02  0.1245099E+00
         -4   -1    0    0    0  501 -0.00000000000E+00  0.00000000000E+00  0.24176818854E+03  0.24176818854E+03  0.00000000000E+00 0.  1.
         21   -1    0    0  501  502  0.00000000000E+00 -0.00000000000E+00 -0.55253654370E+03  0.55253654370E+03  0.00000000000E+00 0.  1.
         23    2    1    2    0    0  0.40620981974E+02 -0.24713012334E+02  0.19469867526E+03  0.23088469342E+03  0.11462709257E+03 0.  0.
         23    2    1    2    0    0 -0.26269391092E+02  0.79165945650E+02 -0.11096113905E+03  0.16491534822E+03  0.89035778432E+02 0.  0.
        -13    1    4    4    0    0  0.29669623866E+02  0.42478622440E+02 -0.29926868302E+02  0.59835920576E+02  0.00000000000E+00 0.  1.
         13    1    4    4    0    0 -0.55939014958E+02  0.36687323209E+02 -0.81034270752E+02  0.10507942765E+03  0.00000000000E+00 0. -1.
        -13    1    3    3    0    0  0.66971969446E+01  0.44777299904E+02  0.89756891881E+02  0.10052939209E+03  0.00000000000E+00 0.  1.
         13    1    3    3    0    0  0.33923785029E+02 -0.69490312238E+02  0.10494178338E+03  0.13035530133E+03  0.00000000000E+00 0. -1.
         -4    1    1    2    0  502 -0.14351590882E+02 -0.54452933315E+02 -0.39450589137E+03  0.39850469060E+03  0.00000000000E+00 0.  1.
<scales pt_clust_5="13000.00000" pt_clust_6="13000.00000" pt_clust_7="13000.00000" pt_clust_8="13000.00000" pt_clust_9="56.31243"></scales>
<clustering>
<clus scale="   56.312">  2  9  1 -1</clus>
<clus scale="   89.036">  5  6 -1 -1</clus>
<clus scale="  102.018">  2  5  1 -1</clus>
<clus scale="  114.627">  7  8 -1 -1</clus>
<clus scale="   56.312">  2  5  1 -1</clus>
</clustering>
</event>
<event>
 9    1  0.3231311E-005  0.1575144E+03  0.7546771E-02  0.1191596E+00
         21   -1    0    0  501  502  0.00000000000E+00  0.00000000000E+00  0.95352981390E+02  0.95352981390E+02  0.00000000000E+00 0.  1.
          2   -1    0    0  502    0 -0.00000000000E+00 -0.00000000000E+00 -0.44834890600E+03  0.44834890600E+03  0.00000000000E+00 0. -1.
         23    2    1    2    0    0  0.77863496294E+02 -0.89460226257E+02 -0.24164584177E+03  0.28380093255E+03  0.89913293418E+02 0.  0.
         23    2    1    2    0    0 -0.11321380930E+03  0.10162897013E+03 -0.12860712109E+03  0.21872416129E+03  0.90303117068E+02 0.  0.
        -11    1    4    4    0    0 -0.55388840801E+02 -0.48936413241E+01 -0.44042692977E+02  0.70933984911E+02  0.00000000000E+00 0.  1.
         11    1    4    4    0    0 -0.57824968503E+02  0.10652261146E+03 -0.84564428109E+02  0.14779017638E+03  0.00000000000E+00 0. -1.
        -13    1    3    3    0    0 -0.28926386238E+01 -0.34845606040E+02 -0.16929328554E+02  0.38848240421E+02  0.00000000000E+00 0.  1.
         13    1    3    3    0    0  0.80756134918E+02 -0.54614620216E+02 -0.22471651322E+03  0.24495269213E+03  0.00000000000E+00 0. -1.
          2    1    1    2  501    0  0.35350313010E+02 -0.12168743875E+02  0.17257038250E+02  0.41176793544E+02  0.00000000000E+00 0. -1.
<scales pt_clust_5="13000.00000" pt_clust_6="13000.00000" pt_clust_7="13000.00000" pt_clust_8="13000.00000" pt_clust_9="37.38613"></scales>
<clustering>
<clus scale="   37.386">  1  9  2 -1</clus>
<clus scale="   89.913">  7  8 -1 -1</clus>
<clus scale="   90.303">  5  6 -1 -1</clus>
<clus scale="  157.291">  2  7  1 -1</clus>
<clus scale="   37.386">  1  5  2 -1</clus>
</clustering>
</event>
<event>
 9    1  0.3231311E-005  0.1244177E+03  0.7546771E-02  0.1236330E+00
         -1   -1    0    0    0  501 -0.00000000000E+00  0.00000000000E+00  0.10849916230E+04  0.10849916230E+04  0.00000000000E+00 0.  1.
         21   -1    0    0  501  502  0.00000000000E+00 -0.00000000000E+00 -0.31857764705E+02  0.31857764705E+02  0.00000000000E+00 0. -1.
         23    2    1    2    0    0  0.22191679493E+02 -0.60979248767E+02  0.42192811135E+03  0.43652439978E+03  0.91210092836E+02 0.  0.
         23    2    1    2    0    0 -0.37740289981E+02  0.98093005412E+02  0.62435736797E+03  0.63950721588E+03  0.90004383398E+02 0.  0.
        -11    1    4    4    0    0 -0.66982144976E+02  0.69657479872E+02  0.40311680742E+03  0.41453821617E+03  0.00000000000E+00 0.  1.
         11    1    4    4    0    0  0.29241854994E+02  0.28435525540E+02  0.22124056055E+03  0.22496899971E+03  0.00000000000E+00 0. -1.
        -11    1    3    3    0    0  0.37134989246E+02  0.71005600826E+01  0.21151265952E+03  0.21486514495E+03  0.00000000000E+00 0.  1.
         11    1    3    3    0    0 -0.14943309753E+02 -0.68079808849E+02  0.21041545183E+03  0.22165925482E+03  0.00000000000E+00 0. -1.
         -1    1    1    2    0  502  0.15548610488E+02 -0.37113756645E+02  0.68483789830E+01  0.40817772050E+02  0.00000000000E+00 0.  1.
<scales pt_clust_5="13000.00000" pt_clust_6="13000.00000" pt_clust_7="13000.00000" pt_clust_8="13000.00000" pt_clust_9="40.23916"></scales>
<clustering>
<clus scale="   40.239">  2  9  1 -1</clus>
<clus scale="   90.004">  5  6 -1 -1</clus>
<clus scale="   91.210">  7  8 -1 -1</clus>
<clus scale="  123.537">  2  5  1 -1</clus>
<clus scale="   40.239">  2  5  1 -1</clus>
</clustering>
</event>
<event>
 9    1  0.3231311E-005  0.1261794E+03  0.7546771E-02  0.1233396E+00
          2   -1    0    0  502    0 -0.00000000000E+00  0.00000000000E+00  0.31247802553E+03  0.31247802553E+03  0.00000000000E+00 0. -1.
         21   -1    0    0  501  502  0.00000000000E+00 -0.00000000000E+00 -0.23946388787E+03  0.23946388787E+03  0.00000000000E+00 0. -1.
         23    2    1    2    0    0  0.36461520013E+02  0.73273756637E+02  0.22029010796E+03  0.25199111233E+03  0.90957699915E+02 0.  0.
         23    2    1    2    0    0 -0.45852391480E+02 -0.10218807882E+03  0.56444304541E+01  0.14403776292E+03  0.90389005385E+02 0.  0.
        -11    1    4    4    0    0  0.23062231275E+02 -0.17495143100E+02 -0.15477227990E+02  0.32825160011E+02  0.00000000000E+00 0.  1.
         11    1    4    4    0    0 -0.68914622756E+02 -0.84692935724E+02  0.21121658444E+02  0.11121260291E+03  0.00000000000E+00 0. -1.
        -13    1    3    3    0    0  0.57860343468E+02  0.74747000990E+02  0.20471191303E+03  0.22548148669E+03  0.00000000000E+00 0.  1.
         13    1    3    3    0    0 -0.21398823455E+02 -0.14732443530E+01  0.15578194928E+02  0.26509625636E+02  0.00000000000E+00 0. -1.
          2    1    1    2  501    0  0.93908714674E+01  0.28914322188E+02 -0.15292040076E+03  0.15591303814E+03  0.00000000000E+00 0. -1.
<scales pt_clust_5="13000.00000" pt_clust_6="13000.00000" pt_clust_7="13000.00000" pt_clust_8="13000.00000" pt_clust_9="30.40109"></scales>
<clustering>
<clus scale="   30.401">  2  9  1 -1</clus>
<clus scale="   90.389">  5  6 -1 -1</clus>
<clus scale="   90.958">  7  8 -1 -1</clus>
<clus scale="  125.770">  2  5  1 -1</clus>
<clus scale="   30.401">  2  5  1 -1</clus>
</clustering>
</event>
<event>
 9    1  0.3231311E-005  0.2189821E+03  0.7546771E-02  0.1135138E+00
          1   -1    0    0  502    0 -0.00000000000E+00  0.00000000000E+00  0.14368381227E+04  0.14368381227E+04  0.00000000000E+00 0. -1.
         21   -1    0    0  501  502  0.00000000000E+00 -0.00000000000E+00 -0.61846308939E+03  0.61846308939E+03  0.00000000000E+00 0. -1.
         23    2    1    2    0    0  0.11026016872E+03 -0.12356156301E+03  0.50824448731E+03  0.54319916872E+03  0.96582158608E+02 0.  0.
         23    2    1    2    0    0 -0.20797295164E+03  0.10659184941E+03  0.88959048768E+03  0.92421635452E+03  0.90498968018E+02 0.  0.
        -13    1    3    3    0    0  0.49810874765E+02 -0.12027374065E+03  0.32025571770E+03  0.34570308164E+03  0.00000000000E+00 0.  1.
         13    1    3    3    0    0  0.60449293950E+02 -0.32878223677E+01  0.18798876960E+03  0.19749608708E+03  0.00000000000E+00 0. -1.
        -13    1    4    4    0    0  0.36138355853E+01  0.22674322790E+02  0.77643753178E+02  0.80967506626E+02  0.00000000000E+00 0. -1.
         13    1    4    4    0    0 -0.21158678722E+03  0.83917526621E+02  0.81194673451E+03  0.84324884789E+03  0.00000000000E+00 0.  1.
          1    1    1    2  501    0  0.97712782920E+02  0.16969713602E+02 -0.57945994169E+03  0.58788568884E+03  0.00000000000E+00 0. -1.
<scales pt_clust_5="13000.00000" pt_clust_6="13000.00000" pt_clust_7="13000.00000" pt_clust_8="13000.00000" pt_clust_9="99.17540"></scales>
<clustering>
<clus scale="   90.499">  7  8 -1 -1</clus>
<clus scale="   96.582">  5  6 -1 -1</clus>
<clus scale="   99.175">  2  9  1 -1</clus>
<clus scale="  216.368">  2  7  1 -1</clus>
<clus scale="   99.175">  2  5  1 -1</clus>
</clustering>
</event>
<event>
 9    1  0.3231311E-005  0.1616927E+03  0.7546771E-02  0.1187023E+00
          1   -1    0    0  502    0 -0.00000000000E+00  0.00000000000E+00  0.76013876703E+03  0.76013876703E+03  0.00000000000E+00 0. -1.
         21   -1    0    0  501  502  0.00000000000E+00 -0.00000000000E+00 -0.87590989338E+02  0.87590989338E+02  0.00000000000E+00 0.  1.
         23    2    1    2    0    0 -0.83778192300E+02  0.97547491927E+02  0.59688158166E+03  0.61731530662E+03  0.90973988463E+02 0.  0.
         23    2    1    2    0    0  0.10184909909E+03 -0.11754075920E+03  0.87536664091E+02  0.20096625081E+03  0.92388837767E+02 0.  0.
        -11    1    4    4    0    0  0.32805376651E+02 -0.75041435047E+02  0.87557948663E+02  0.11989080067E+03  0.00000000000E+00 0. -1.
         11    1    4    4    0    0  0.69043722440E+02 -0.42499324154E+02 -0.21284571365E-01  0.81075450138E+02  0.00000000000E+00 0.  1.
        -13    1    3    3    0    0 -0.67218610414E+02  0.61794376970E+02  0.54266798358E+03  0.55029576322E+03  0.00000000000E+00 0.  1.
         13    1    3    3    0    0 -0.16559581887E+02  0.35753114956E+02  0.54213598081E+02  0.67019543405E+02  0.00000000000E+00 0. -1.
          1    1    1    2  501    0 -0.18070906791E+02  0.19993267275E+02 -0.11870468063E+02  0.29448198936E+02  0.00000000000E+00 0. -1.
<scales pt_clust_5="13000.00000" pt_clust_6="13000.00000" pt_clust_7="13000.00000" pt_clust_8="13000.00000" pt_clust_9="26.94974"></scales>
<clustering>
<clus scale="   26.950">  2  9  1 -1</clus>
<clus scale="   90.974">  7  8 -1 -1</clus>
<clus scale="   92.389">  5  6 -1 -1</clus>
<clus scale="  160.888">  1  7  2 -1</clus>
<clus scale="   26.950">  2  5  1 -1</clus>
</clustering>
</event>
<event>
 9    1  0.3231311E-005  0.1190166E+03  0.7546771E-02  0.1244853E+00
         21   -1    0    0  501  502  0.00000000000E+00  0.00000000000E+00  0.14213000866E+03  0.14213000866E+03  0.00000000000E+00 0.  1.
          1   -1    0    0  502    0 -0.00000000000E+00 -0.00000000000E+00 -0.15835006627E+03  0.15835006627E+03  0.00000000000E+00 0. -1.
         23    2    1    2    0    0 -0.39011414685E+02 -0.82059176553E+02 -0.67228370262E+02  0.14471237357E+03  0.90368237577E+02 0.  0.
         23    2    1    2    0    0  0.12046834045E+02  0.52369967960E+02  0.26458371930E+02  0.10874390627E+03  0.90760409599E+02 0.  0.
        -13    1    3    3    0    0 -0.10253168103E+02 -0.43836064608E+02  0.16776532649E+02  0.48043522604E+02  0.00000000000E+00 0.  1.
         13    1    3    3    0    0 -0.28758246582E+02 -0.38223111945E+02 -0.84004902911E+02  0.96668850962E+02  0.00000000000E+00 0. -1.
        -13    1    4    4    0    0 -0.85637505538E+01  0.71503921813E+02  0.33984870452E+02  0.79631150172E+02  0.00000000000E+00 0.  1.
         13    1    4    4    0    0  0.20610584599E+02 -0.19133953852E+02 -0.75264985213E+01  0.29112756096E+02  0.00000000000E+00 0. -1.
          1    1    1    2  501    0  0.26964580640E+02  0.29689208593E+02  0.24549940720E+02  0.47023795097E+02  0.00000000000E+00 0. -1.
<scales pt_clust_5="13000.00000" pt_clust_6="13000.00000" pt_clust_7="13000.00000" pt_clust_8="13000.00000" pt_clust_9="40.10658"></scales>
<clustering>
<clus scale="   40.107">  1  9  2 -1</clus>
<clus scale="   90.368">  5  6 -1 -1</clus>
<clus scale="   90.760">  7  8 -1 -1</clus>
<clus scale="  118.718">  2  5  1 -1</clus>
<clus scale="   40.107">  1  5  2 -1</clus>
</clustering>
</event>
<event>
 9    1  0.3231311E-005  0.1508644E+03  0.7546771E-02  0.1221807E+00
         21   -1    0    0  501  502  0.00000000000E+00  0.00000000000E+00  0.77513737496E+02  0.77513737496E+02  0.00000000000E+00 0.  1.
          1   -1    0    0  502    0 -0.00000000000E+00 -0.00000000000E+00 -0.51741279559E+03  0.51741279559E+03  0.00000000000E+00 0. -1.
         23    2    1    2    0    0  0.32870973306E+02  0.22761359078E+02 -0.21875339539E+03  0.23792384787E+03  0.84593906623E+02 0.  0.
         23    2    1    2    0    0 -0.12434645883E+03  0.37717476463E+02 -0.79509039426E+02  0.17787595060E+03  0.91834179884E+02 0.  0.
        -11    1    4    4    0    0 -0.27703423046E+02 -0.17884536960E+02  0.10474311986E+02  0.34598374562E+02  0.00000000000E+00 0. -1.
         11    1    4    4    0    0 -0.96643035789E+02  0.55602013423E+02 -0.89983351411E+02  0.14327757603E+03  0.00000000000E+00 0.  1.
        -13    1    3    3    0    0 -0.28796528067E+02  0.70338994082E+01 -0.61154884822E+02  0.67960545224E+02  0.00000000000E+00 0.  1.
         13    1    3    3    0    0  0.61667501373E+02  0.15727459670E+02 -0.15759851057E+03  0.16996330264E+03  0.00000000000E+00 0. -1.
          1    1    1    2  501    0  0.91475485529E+02 -0.60478835541E+02 -0.14163662328E+03  0.17912673462E+03  0.00000000000E+00 0. -1.
<scales pt_clust_5="13000.00000" pt_clust_6="13000.00000" pt_clust_7="13000.00000" pt_clust_8="13000.00000" pt_clust_9="119.69362"></scales>
<clustering>
<clus scale="   84.594">  7  8 -1 -1</clus>
<clus scale="   91.834">  5  6 -1 -1</clus>
<clus scale="   93.567">  2  7  1 -1</clus>
<clus scale="  119.694">  1  9  2 -1</clus>
<clus scale="  119.694">  1  5  2 -1</clus>
</clustering>
</event>
<event>
 9    1  0.3231311E-005  0.9281993E+02  0.7546771E-02  0.1297112E+00
         21   -1    0    0  501  502  0.00000000000E+00  0.00000000000E+00  0.32099256781E+02  0.32099256781E+02  0.00000000000E+00 0.  1.
          2   -1    0    0  502    0 -0.00000000000E+00 -0.00000000000E+00 -0.68615512323E+03  0.68615512323E+03  0.00000000000E+00 0. -1.
         23    2    1    2    0    0 -0.18283029644E+02  0.13263445692E+01 -0.45986414986E+03  0.46923150373E+03  0.91472068986E+02 0.  0.
         23    2    1    2    0    0  0.81699087534E+01  0.17596655938E+02 -0.20525000438E+03  0.22488492087E+03  0.89829135735E+02 0.  0.
        -11    1    4    4    0    0  0.15040944754E+02  0.46009729596E+02 -0.17955430042E+03  0.18596470642E+03  0.00000000000E+00 0.  1.
         11    1    4    4    0    0 -0.68710360011E+01 -0.28413073658E+02 -0.25695703965E+02  0.38920214448E+02  0.00000000000E+00 0. -1.
        -13    1    3    3    0    0 -0.55625446508E+02 -0.22298423676E+01 -0.28577079233E+03  0.29114276265E+03  0.00000000000E+00 0. -1.
         13    1    3    3    0    0  0.37342416864E+02  0.35561869368E+01 -0.17409335753E+03  0.17808874108E+03  0.00000000000E+00 0.  1.
          2    1    1    2  501    0  0.10113120891E+02 -0.18923000507E+02  0.11058287795E+02  0.24137955408E+02  0.00000000000E+00 0. -1.
<scales pt_clust_5="13000.00000" pt_clust_6="13000.00000" pt_clust_7="13000.00000" pt_clust_8="13000.00000" pt_clust_9="21.45589"></scales>
<clustering>
<clus scale="   21.456">  1  9  2 -1</clus>
<clus scale="   89.829">  5  6 -1 -1</clus>
<clus scale="   91.201">  1  5  2 -1</clus>
<clus scale="   91.472">  7  8 -1 -1</clus>
<clus scale="   21.456">  1  5  2 -1</clus>
</clustering>
</event>
<event>
 9    1  0.3231311E-005  0.1393010E+03  0.7546771E-02  0.1214457E+00
         21   -1    0    0  501  502  0.00000000000E+00  0.00000000000E+00  0.29151746789E+03  0.29151746789E+03  0.00000000000E+00 0. -1.
          2   -1    0    0  502    0 -0.00000000000E+00 -0.00000000000E+00 -0.26775669476E+03  0.26775669476E+03  0.00000000000E+00 0. -1.
         23    2    1    2    0    0  0.18341832652E+02  0.13360161258E+03 -0.18610325914E+03  0.24748403649E+03  0.91804746844E+02 0.  0.
         23    2    1    2    0    0 -0.11601415959E+02 -0.37826439356E+02  0.25462726503E+02  0.10389073080E+03  0.92625596557E+02 0.  0.
        -13    1    4    4    0    0 -0.46429194315E+02 -0.16026500800E+02 -0.93960284268E+01  0.50008040982E+02  0.00000000000E+00 0. -1.
         13    1    4    4    0    0  0.34827778356E+02 -0.21799938557E+02  0.34858754929E+02  0.53882689813E+02  0.00000000000E+00 0.  1.
        -13    1    3    3    0    0  0.52319054673E+02  0.10737936219E+03 -0.14711083103E+03  0.18949724936E+03  0.00000000000E+00 0.  1.
         13    1    3    3    0    0 -0.33977222021E+02  0.26222250388E+02 -0.38992428108E+02  0.57986787128E+02  0.00000000000E+00 0. -1.
          2    1    1    2  501    0 -0.67404166925E+01 -0.95775173225E+02  0.18440130577E+03  0.20789939537E+03  0.00000000000E+00 0. -1.
<scales pt_clust_5="13000.00000" pt_clust_6="13000.00000" pt_clust_7="13000.00000" pt_clust_8="13000.00000" pt_clust_9="96.01207"></scales>
<clustering>
<clus scale="   91.805">  7  8 -1 -1</clus>
<clus scale="   92.626">  5  6 -1 -1</clus>
<clus scale="   96.012">  1  9  2 -1</clus>
<clus scale="  138.757">  2  7  1 -1</clus>
<clus scale="   96.012">  1  5  2 -1</clus>
</clustering>
</event>
<event>
 9    1  0.3231311E-005  0.1060638E+03  0.7546771E-02  0.1269680E+00
          1   -1    0    0  502    0 -0.00000000000E+00  0.00000000000E+00  0.49494845025E+02  0.49494845025E+02  0.00000000000E+00 0. -1.
         21   -1    0    0  501  502  0.00000000000E+00 -0.00000000000E+00 -0.32115010302E+03  0.32115010302E+03  0.00000000000E+00 0.  1.
         23    2    1    2    0    0 -0.47110810660E+01 -0.64066663161E+02 -0.85755532072E+02  0.14086631805E+03  0.91447124983E+02 0.  0.
         23    2    1    2    0    0 -0.14534964885E+02  0.41985845124E+02 -0.10511559892E+03  0.14384814654E+03  0.87572391386E+02 0.  0.
        -11    1    4    4    0    0 -0.14657844989E+02  0.16233019140E+02  0.11299933267E+02  0.24618119789E+02  0.00000000000E+00 0. -1.
         11    1    4    4    0    0  0.12288010379E+00  0.25752825984E+02 -0.11641553219E+03  0.11923002676E+03  0.00000000000E+00 0.  1.
        -13    1    3    3    0    0 -0.34435938048E+02 -0.50466832872E+02 -0.14978571555E+02  0.62905426278E+02  0.00000000000E+00 0.  1.
         13    1    3    3    0    0  0.29724856982E+02 -0.13599830289E+02 -0.70776960517E+02  0.77960891776E+02  0.00000000000E+00 0. -1.
          1    1    1    2  501    0  0.19246045951E+02  0.22080818037E+02 -0.80784127006E+02  0.85930483451E+02  0.00000000000E+00 0. -1.
<scales pt_clust_5="13000.00000" pt_clust_6="13000.00000" pt_clust_7="13000.00000" pt_clust_8="13000.00000" pt_clust_9="29.29117"></scales>
<clustering>
<clus scale="   29.291">  2  9  1 -1</clus>
<clus scale="   87.572">  5  6 -1 -1</clus>
<clus scale="   91.447">  7  8 -1 -1</clus>
<clus scale="  102.742">  2  5  1 -1</clus>
<clus scale="   29.291">  2  5  1 -1</clus>
</clustering>
</event>
<event>
 9    1  0.3231311E-005  0.1314078E+03  0.7546771E-02  0.1227151E+00
         21   -1    0    0  501  502  0.00000000000E+00  0.00000000000E+00  0.28206548895E+03  0.28206548895E+03  0.00000000000E+00 0.  1.
          2   -1    0    0  502    0 -0.00000000000E+00 -0.00000000000E+00 -0.32574825237E+03  0.32574825237E+03  0.00000000000E+00 0. -1.
         23    2    1    2    0    0  0.63834552789E+02  0.40642025765E+02 -0.28728258646E+03  0.31370398604E+03  0.10075853309E+03 0.  0.
         23    2    1    2    0    0 -0.84265379827E+02 -0.44882936853E+02  0.20211530819E+03  0.24767303498E+03  0.10665928086E+03 0.  0.
        -11    1    3    3    0    0  0.29867423626E+02 -0.24483229113E+02 -0.39412603100E+02  0.55180112223E+02  0.00000000000E+00 0.  1.
         11    1    3    3    0    0  0.33967129162E+02  0.65125254878E+02 -0.24786998336E+03  0.25852387382E+03  0.00000000000E+00 0. -1.
        -13    1    4    4    0    0 -0.70859294115E+02  0.22447206217E+02  0.11102515324E+03  0.13360951045E+03  0.00000000000E+00 0.  1.
         13    1    4    4    0    0 -0.13406085711E+02 -0.67330143071E+02  0.91090154943E+02  0.11406352453E+03  0.00000000000E+00 0. -1.
          2    1    1    2  501    0  0.20430827038E+02  0.42409110888E+01  0.41484514843E+02  0.46436720299E+02  0.00000000000E+00 0. -1.
<scales pt_clust_5="13000.00000" pt_clust_6="13000.00000" pt_clust_7="13000.00000" pt_clust_8="13000.00000" pt_clust_9="20.86634"></scales>
<clustering>
<clus scale="   20.866">  1  9  2 -1</clus>
<clus scale="  100.759">  5  6 -1 -1</clus>
<clus scale="  106.659">  7  8 -1 -1</clus>
<clus scale="  126.665">  2  5  1 -1</clus>
<clus scale="   20.866">  1  5  2 -1</clus>
</clustering>
</event>
<event>
 9    1  0.3231311E-005  0.1452323E+03  0.7546771E-02  0.1209320E+00
         21   -1    0    0  501  502  0.00000000000E+00  0.00000000000E+00  0.22132109263E+03  0.22132109263E+03  0.00000000000E+00 0.  1.
          2   -1    0    0  502    0 -0.00000000000E+00 -0.00000000000E+00 -0.54386789479E+03  0.54386789479E+03  0.00000000000E+00 0. -1.
         23    2    1    2    0    0  0.99828990177E+02  0.86947552249E+01 -0.48498309003E+03  0.50354560793E+03  0.91149084463E+02 0.  0.
         23    2    1    2    0    0 -0.12320524906E+03 -0.24045636904E+02  0.94638181421E+02  0.18830387932E+03  0.10365442361E+03 0.  0.
        -11    1    3    3    0    0  0.15425827558E+02 -0.35369639593E+02 -0.10666674538E+03  0.11343175098E+03  0.00000000000E+00 0.  1.
         11    1    3    3    0    0  0.84403162619E+02  0.44064394818E+02 -0.37831634465E+03  0.39011385695E+03  0.00000000000E+00 0. -1.
        -11    1    4    4    0    0 -0.68852674926E+02  0.36457635666E+02  0.65905637570E+02  0.10204608325E+03  0.00000000000E+00 0.  1.
         11    1    4    4    0    0 -0.54352574131E+02 -0.60503272570E+02  0.28732543851E+02  0.86257796068E+02  0.00000000000E+00 0. -1.
          2    1    1    2  501    0  0.23376258879E+02  0.15350881679E+02  0.67798106455E+02  0.73339500178E+02  0.00000000000E+00 0. -1.
<scales pt_clust_5="13000.00000" pt_clust_6="13000.00000" pt_clust_7="13000.00000" pt_clust_8="13000.00000" pt_clust_9="27.96603"></scales>
<clustering>
<clus scale="   27.966">  1  9  2 -1</clus>
<clus scale="   91.149">  5  6 -1 -1</clus>
<clus scale="  103.654">  7  8 -1 -1</clus>
<clus scale="  136.588">  2  5  1 -1</clus>
<clus scale="   27.966">  1  5  2 -1</clus>
</clustering>
</event>
<event>
 9    1  0.3231311E-005  0.9889143E+02  0.7546771E-02  0.1283460E+00
         21   -1    0    0  501  502  0.00000000000E+00  0.00000000000E+00  0.12595179130E+03  0.12595179130E+03  0.00000000000E+00 0.  1.
         -1   -1    0    0    0  501 -0.00000000000E+00 -0.00000000000E+00 -0.11005047503E+03  0.11005047503E+03  0.00000000000E+00 0.  1.
         23    2    1    2    0    0  0.39158009465E+01 -0.33838809904E+02 -0.18685317337E+02  0.99668831470E+02  0.91784183440E+02 0.  0.
         23    2    1    2    0    0 -0.30056903846E+02  0.35484454900E+02  0.40930201827E+02  0.10938336499E+03  0.90149182504E+02 0.  0.
        -11    1    4    4    0    0 -0.45161644871E+02  0.49562872030E+02  0.41220908685E+01  0.67179193836E+02  0.00000000000E+00 0.  1.
         11    1    4    4    0    0  0.15104741025E+02 -0.14078417130E+02  0.36808110959E+02  0.42204171153E+02  0.00000000000E+00 0. -1.
        -13    1    3    3    0    0  0.20570419600E+02  0.23011749172E+02  0.11801080356E+02  0.33044640413E+02  0.00000000000E+00 0. -1.
         13    1    3    3    0    0 -0.16654618653E+02 -0.56850559076E+02 -0.30486397693E+02  0.66624191057E+02  0.00000000000E+00 0.  1.
         -1    1    1    2    0  502  0.26141102900E+02 -0.16456449963E+01 -0.63435682249E+01  0.26950069872E+02  0.00000000000E+00 0.  1.
<scales pt_clust_5="13000.00000" pt_clust_6="13000.00000" pt_clust_7="13000.00000" pt_clust_8="13000.00000" pt_clust_9="26.19286"></scales>
<clustering>
<clus scale="   26.193">  1  9  2 -1</clus>
<clus scale="   90.149">  5  6 -1 -1</clus>
<clus scale="   91.784">  7  8 -1 -1</clus>
<clus scale="   97.376">  1  5  2 -1</clus>
<clus scale="   26.193">  1  5  2 -1</clus>
</clustering>
</event>
<event>
 9    1  0.3231311E-005  0.1185221E+03  0.7546771E-02  0.1245738E+00
         21   -1    0    0  501  502  0.00000000000E+00  0.00000000000E+00  0.86549464143E+02  0.86549464143E+02  0.00000000000E+00 0.  1.
         -1   -1    0    0    0  501 -0.00000000000E+00 -0.00000000000E+00 -0.54500188665E+03  0.54500188665E+03  0.00000000000E+00 0.  1.
         23    2    1    2    0    0 -0.75729699772E+02 -0.43645294295E+02 -0.21518161393E+03  0.24868178850E+03  0.88879726671E+02 0.  0.
         23    2    1    2    0    0  0.31416239795E+02  0.29287978613E+02  0.32318019052E+02  0.10337176774E+03  0.88297804030E+02 0.  0.
        -13    1    3    3    0    0 -0.36958504101E+02 -0.68886614444E+02 -0.12796176142E+03  0.14995168909E+03  0.00000000000E+00 0. -1.
         13    1    3    3    0    0 -0.38771195671E+02  0.25241320149E+02 -0.87219852509E+02  0.98730099404E+02  0.00000000000E+00 0.  1.
        -13    1    4    4    0    0  0.28749747997E+02 -0.28414280390E+02  0.12826110213E+02  0.42407881852E+02  0.00000000000E+00 0.  1.
         13    1    4    4    0    0  0.26664917977E+01  0.57702259003E+02  0.19491908839E+02  0.60963885890E+02  0.00000000000E+00 0. -1.
         -1    1    1    2    0  502  0.44313459977E+02  0.14357315682E+02 -0.27558882762E+03  0.27949779455E+03  0.00000000000E+00 0.  1.
<scales pt_clust_5="13000.00000" pt_clust_6="13000.00000" pt_clust_7="13000.00000" pt_clust_8="13000.00000" pt_clust_9="46.58130"></scales>
<clustering>
<clus scale="   46.581">  1  9  2 -1</clus>
<clus scale="   88.298">  7  8 -1 -1</clus>
<clus scale="   88.880">  5  6 -1 -1</clus>
<clus scale="  118.086">  1  7  2 -1</clus>
<clus scale="   46.581">  1  5  2 -1</clus>
</clustering>
</event>
<event>
 9    1  0.3231311E-005  0.1048676E+03  0.7546771E-02  0.1271794E+00
          2   -1    0    0  502    0 -0.00000000000E+00  0.00000000000E+00  0.45163764435E+03  0.45163764435E+03  0.00000000000E+00 0. -1.
         21   -1    0    0  501  502  0.00000000000E+00 -0.00000000000E+00 -0.86291271479E+02  0.86291271479E+02  0.00000000000E+00 0. -1.
         23    2    1    2    0    0 -0.40375596408E+02  0.43496364714E+02  0.23850005383E+03  0.26194690879E+03  0.90618898793E+02 0.  0.
         23    2    1    2    0    0  0.17485888914E+02 -0.29285925466E+02  0.18594451579E+03  0.21103224066E+03  0.93786043238E+02 0.  0.
        -13    1    3    3    0    0 -0.13264124740E+02  0.65477107110E+02  0.10916416502E+03  0.12798438766E+03  0.00000000000E+00 0. -1.
         13    1    3    3    0    0 -0.27111471668E+02 -0.21980742396E+02  0.12933588882E+03  0.13396252113E+03  0.00000000000E+00 0.  1.
        -13    1    4    4    0    0 -0.34014709392E+02  0.25128527842E+01  0.37331506559E+02  0.50566355080E+02  0.00000000000E+00 0. -1.
         13    1    4    4    0    0  0.51500598305E+02 -0.31798778250E+02  0.14861300923E+03  0.16046588558E+03  0.00000000000E+00 0.  1.
          2    1    1    2  501    0  0.22889707494E+02 -0.14210439248E+02 -0.59098196750E+02  0.64949766373E+02  0.00000000000E+00 0. -1.
<scales pt_clust_5="13000.00000" pt_clust_6="13000.00000" pt_clust_7="13000.00000" pt_clust_8="13000.00000" pt_clust_9="26.94207"></scales>
<clustering>
<clus scale="   26.942">  2  9  1 -1</clus>
<clus scale="   90.619">  5  6 -1 -1</clus>
<clus scale="   93.786">  7  8 -1 -1</clus>
<clus scale="  102.045">  1  5  2 -1</clus>
<clus scale="   26.942">  2  5  1 -1</clus>
</clustering>
</event>
<event>
 9    1  0.3231311E-005  0.1320757E+03  0.7546771E-02  0.1226247E+00
         -3   -1    0    0    0  501 -0.00000000000E+00  0.00000000000E+00  0.16629448413E+03  0.16629448413E+03  0.00000000000E+00 0.  1.
         21   -1    0    0  501  502  0.00000000000E+00 -0.00000000000E+00 -0.26353115095E+03  0.26353115095E+03  0.00000000000E+00 0. -1.
         23    2    1    2    0    0  0.93808507675E+02 -0.20639361733E+02  0.10540168676E+03  0.16564729704E+03  0.84282216868E+02 0.  0.
         23    2    1    2    0    0 -0.83617204688E+02  0.40760076953E+02 -0.11594815841E+03  0.17460213709E+03  0.91589901438E+02 0.  0.
        -11    1    4    4    0    0 -0.81436517991E+02  0.10186092381E+02 -0.37218075321E+02  0.90115748186E+02  0.00000000000E+00 0.  1.
         11    1    4    4    0    0 -0.21806866971E+01  0.30573984572E+02 -0.78730083092E+02  0.84486388908E+02  0.00000000000E+00 0. -1.
        -13    1    3    3    0    0  0.50817629561E+02 -0.41910596113E+02  0.96538205856E+02  0.11686981959E+03  0.00000000000E+00 0.  1.
         13    1    3    3    0    0  0.42990878114E+02  0.21271234380E+02  0.88634809069E+01  0.48777477454E+02  0.00000000000E+00 0. -1.
         -3    1    1    2    0  502 -0.10191302987E+02 -0.20120715220E+02 -0.86690195168E+02  0.89576200945E+02  0.00000000000E+00 0.  1.
<scales pt_clust_5="13000.00000" pt_clust_6="13000.00000" pt_clust_7="13000.00000" pt_clust_8="13000.00000" pt_clust_9="22.55451"></scales>
<clustering>
<clus scale="   22.555">  2  9  1 -1</clus>
<clus scale="   84.282">  7  8 -1 -1</clus>
<clus scale="   91.590">  5  6 -1 -1</clus>
<clus scale="  127.117">  1  7  2 -1</clus>
<clus scale="   22.555">  2  5  1 -1</clus>
</clustering>
</event>
<event>
 9    1  0.3231311E-005  0.8769717E+02  0.7546771E-02  0.1312556E+00
          2   -1    0    0  502    0 -0.00000000000E+00  0.00000000000E+00  0.39511503946E+02  0.39511503946E+02  0.00000000000E+00 0. -1.
         21   -1    0    0  501  502  0.00000000000E+00 -0.00000000000E+00 -0.49547994311E+03  0.49547994311E+03  0.00000000000E+00 0. -1.
         23    2    1    2    0    0  0.18924898191E+02  0.19569656034E+02 -0.12782923377E+03  0.15374869293E+03  0.80976690247E+02 0.  0.
         23    2    1    2    0    0  0.43951431183E+02  0.11907706715E+02 -0.27797571736E+03  0.29486780005E+03  0.87195173472E+02 0.  0.
        -11    1    3    3    0    0  0.19093063758E+02  0.49471041215E+02 -0.98484668010E+02  0.11185329157E+03  0.00000000000E+00 0. -1.
         11    1    3    3    0    0 -0.16816556669E+00 -0.29901385182E+02 -0.29344565758E+02  0.41895401359E+02  0.00000000000E+00 0.  1.
        -13    1    4    4    0    0  0.59866823276E+02  0.33693729060E+02 -0.22733959093E+03  0.23749230201E+03  0.00000000000E+00 0. -1.
         13    1    4    4    0    0 -0.15915392093E+02 -0.21786022345E+02 -0.50636126431E+02  0.57375498037E+02  0.00000000000E+00 0.  1.
          2    1    1    2  501    0 -0.62876329374E+02 -0.31477362748E+02 -0.50163488033E+02  0.86374954083E+02  0.00000000000E+00 0. -1.
<scales pt_clust_5="13000.00000" pt_clust_6="13000.00000" pt_clust_7="13000.00000" pt_clust_8="13000.00000" pt_clust_9="70.31545"></scales>
<clustering>
<clus scale="   70.315">  2  9  1 -1</clus>
<clus scale="   80.977">  5  6 -1 -1</clus>
<clus scale="   81.517">  1  5  2 -1</clus>
<clus scale="   87.195">  7  8 -1 -1</clus>
<clus scale="   70.315">  2  5  1 -1</clus>
</clustering>
</event>
<event>
 9    1  0.3231311E-005  0.1325521E+03  0.7546771E-02  0.1225834E+00
         21   -1    0    0  501  502  0.00000000000E+00  0.00000000000E+00  0.59521202066E+02  0.59521202066E+02  0.00000000000E+00 0.  1.
          1   -1    0    0  502    0 -0.00000000000E+00 -0.00000000000E+00 -0.59446663715E+03  0.59446663715E+03  0.00000000000E+00 0. -1.
         23    2    1    2    0    0  0.84706899803E+02  0.31273361459E+02 -0.39455166659E+03  0.41307791907E+03  0.82517074593E+02 0.  0.
         23    2    1    2    0    0 -0.10140815575E+03 -0.68390264672E+02 -0.12576283637E+03  0.19765878573E+03  0.91059662898E+02 0.  0.
        -11    1    4    4    0    0 -0.11330062433E+03 -0.51425423530E+02 -0.81370881343E+02  0.14867019200E+03  0.00000000000E+00 0.  1.
         11    1    4    4    0    0  0.11892468578E+02 -0.16964841142E+02 -0.44391955032E+02  0.48988593727E+02  0.00000000000E+00 0. -1.
        -11    1    3    3    0    0 -0.11846519121E+02  0.21957975959E+02 -0.94379633121E+02  0.97621759211E+02  0.00000000000E+00 0.  1.
         11    1    3    3    0    0  0.96553418924E+02  0.93153855008E+01 -0.30017203347E+03  0.31545615986E+03  0.00000000000E+00 0. -1.
          1    1    1    2  501    0  0.16701255947E+02  0.37116903213E+02 -0.14630932117E+02  0.43251134423E+02  0.00000000000E+00 0. -1.
<scales pt_clust_5="13000.00000" pt_clust_6="13000.00000" pt_clust_7="13000.00000" pt_clust_8="13000.00000" pt_clust_9="40.70131"></scales>
<clustering>
<clus scale="   40.701">  1  9  2 -1</clus>
<clus scale="   82.517">  7  8 -1 -1</clus>
<clus scale="   91.060">  5  6 -1 -1</clus>
<clus scale="  126.836">  2  7  1 -1</clus>
<clus scale="   40.701">  1  5  2 -1</clus>
</clustering>
</event>
<event>
 9    1  0.3231311E-005  0.1105294E+03  0.7546771E-02  0.1262156E+00
         -4   -1    0    0    0  501 -0.00000000000E+00  0.00000000000E+00  0.26357270253E+03  0.26357270253E+03  0.00000000000E+00 0.  1.
         21   -1    0    0  501  502  0.00000000000E+00 -0.00000000000E+00 -0.84167629806E+02  0.84167629806E+02  0.00000000000E+00 0. -1.
         23    2    1    2    0    0  0.61764003720E+02 -0.30159427918E+02  0.18711569872E+03  0.21963328094E+03  0.92206887708E+02 0.  0.
         23    2    1    2    0    0 -0.31572427399E+02  0.25078673034E+02  0.53977972905E+01  0.94802755707E+02  0.85631000584E+02 0.  0.
        -13    1    4    4    0    0  0.13878083127E+02 -0.14670363222E+02  0.24241156833E+02  0.31550823016E+02  0.00000000000E+00 0.  1.
         13    1    4    4    0    0 -0.45450510526E+02  0.39749036255E+02 -0.18843359543E+02  0.63251932691E+02  0.00000000000E+00 0. -1.
        -13    1    3    3    0    0  0.11756185603E+02 -0.56877600328E+02  0.10160335329E+03  0.11703209269E+03  0.00000000000E+00 0. -1.
         13    1    3    3    0    0  0.50007818116E+02  0.26718172410E+02  0.85512345426E+02  0.10260118825E+03  0.00000000000E+00 0.  1.
         -4    1    1    2    0  502 -0.30191576321E+02  0.50807548844E+01 -0.13108423279E+02  0.33304295696E+02  0.00000000000E+00 0.  1.
<scales pt_clust_5="13000.00000" pt_clust_6="13000.00000" pt_clust_7="13000.00000" pt_clust_8="13000.00000" pt_clust_9="30.61610"></scales>
<clustering>
<clus scale="   30.616">  2  9  1 -1</clus>
<clus scale="   85.631">  5  6 -1 -1</clus>
<clus scale="   92.207">  7  8 -1 -1</clus>
<clus scale="  105.106">  2  5  1 -1</clus>
<clus scale="   30.616">  2  5  1 -1</clus>
</clustering>
</event>
<event>
 9    1  0.3231311E-005  0.9790107E+02  0.7546771E-02  0.1288090E+00
         21   -1    0    0  501  502  0.00000000000E+00  0.00000000000E+00  0.42938319600E+02  0.42938319600E+02  0.00000000000E+00 0. -1.
          4   -1    0    0  502    0 -0.00000000000E+00 -0.00000000000E+00 -0.51573060796E+03  0.51573060796E+03  0.00000000000E+00 0. -1.
         23    2    1    2    0    0  0.12205162238E+02 -0.21841620979E+02 -0.36338475993E+03  0.37437088500E+03  0.86481520547E+02 0.  0.
         23    2    1    2    0    0 -0.33451747278E+02  0.50047417265E+02 -0.96281054808E+02  0.14662459528E+03  0.92762961662E+02 0.  0.
        -11    1    4    4    0    0  0.15436310072E+01 -0.26414560073E+02 -0.21506940655E+02  0.34097804575E+02  0.00000000000E+00 0.  1.
         11    1    4    4    0    0 -0.34995378286E+02  0.76461977337E+02 -0.74774114153E+02  0.11252679071E+03  0.00000000000E+00 0. -1.
        -13    1    3    3    0    0  0.44081438079E+02 -0.33424856161E+02 -0.24857220026E+03  0.25465375107E+03  0.00000000000E+00 0.  1.
         13    1    3    3    0    0 -0.31876275842E+02  0.11583235181E+02 -0.11481255966E+03  0.11971713393E+03  0.00000000000E+00 0. -1.
          4    1    1    2  501    0  0.21246585041E+02 -0.28205796285E+02 -0.13126473626E+02  0.37673447278E+02  0.00000000000E+00 0. -1.
<scales pt_clust_5="13000.00000" pt_clust_6="13000.00000" pt_clust_7="13000.00000" pt_clust_8="13000.00000" pt_clust_9="35.31267"></scales>
<clustering>
<clus scale="   35.313">  1  9  2 -1</clus>
<clus scale="   86.482">  7  8 -1 -1</clus>
<clus scale="   91.971">  2  7  1 -1</clus>
<clus scale="   92.763">  5  6 -1 -1</clus>
<clus scale="   35.313">  1  5  2 -1</clus>
</clustering>
</event>
<event>
 9    1  0.3231311E-005  0.1560758E+03  0.7546771E-02  0.1193576E+00
         21   -1    0    0  501  502  0.00000000000E+00  0.00000000000E+00  0.17057853845E+03  0.17057853845E+03  0.00000000000E+00 0. -1.
         -1   -1    0    0    0  501 -0.00000000000E+00 -0.00000000000E+00 -0.26338088859E+03  0.26338088859E+03  0.00000000000E+00 0.  1.
         23    2    1    2    0    0  0.23786457108E+01 -0.13739997181E+03 -0.14369701970E+03  0.21864227058E+03  0.90946131358E+02 0.  0.
         23    2    1    2    0    0  0.35614011525E+02  0.10575799247E+03 -0.24450863133E+01  0.14258623857E+03  0.88722861735E+02 0.  0.
        -11    1    4    4    0    0  0.15754723117E+02  0.21670187603E+02 -0.40188986853E+02  0.48300755641E+02  0.00000000000E+00 0.  1.
         11    1    4    4    0    0  0.19859288407E+02  0.84087804866E+02  0.37743900539E+02  0.94285482929E+02  0.00000000000E+00 0. -1.
        -13    1    3    3    0    0  0.26245007359E+02 -0.13839511609E+03 -0.12455087935E+03  0.18802906721E+03  0.00000000000E+00 0.  1.
         13    1    3    3    0    0 -0.23866361648E+02  0.99514428907E+00 -0.19146140345E+02  0.30613203370E+02  0.00000000000E+00 0. -1.
         -1    1    1    2    0  502 -0.37992657235E+02  0.31641979336E+02  0.53339755867E+02  0.72730917883E+02  0.00000000000E+00 0.  1.
<scales pt_clust_5="13000.00000" pt_clust_6="13000.00000" pt_clust_7="13000.00000" pt_clust_8="13000.00000" pt_clust_9="49.44347"></scales>
<clustering>
<clus scale="   49.443">  1  9  2 -1</clus>
<clus scale="   88.723">  5  6 -1 -1</clus>
<clus scale="   90.946">  7  8 -1 -1</clus>
<clus scale="  154.791">  1  5  2 -1</clus>
<clus scale="   49.443">  1  5  2 -1</clus>
</clustering>
</event>
<event>
 9    1  0.3231311E-005  0.1064630E+03  0.7546771E-02  0.1268859E+00
         21   -1    0    0  501  502  0.00000000000E+00  0.00000000000E+00  0.84274435337E+02  0.84274435337E+02  0.00000000000E+00 0. -1.
          2   -1    0    0  502    0 -0.00000000000E+00 -0.00000000000E+00 -0.47241785080E+03  0.47241785080E+03  0.00000000000E+00 0. -1.
         23    2    1    2    0    0 -0.41675417075E+02 -0.27560591728E+02 -0.23047863115E+03  0.25167991983E+03  0.87897417592E+02 0.  0.
         23    2    1    2    0    0  0.62567892063E+02  0.69929683255E+01 -0.21418532881E+03  0.24134059396E+03  0.91685792204E+02 0.  0.
        -13    1    3    3    0    0 -0.49477106818E+02 -0.53252246811E+02 -0.14701257194E+03  0.16400147011E+03  0.00000000000E+00 0. -1.
         13    1    3    3    0    0  0.78016897429E+01  0.25691655083E+02 -0.83466059213E+02  0.87678449714E+02  0.00000000000E+00 0.  1.
        -13    1    4    4    0    0 -0.19565843459E+02 -0.11957762292E+02 -0.76874439989E+02  0.80221504804E+02  0.00000000000E+00 0.  1.
         13    1    4    4    0    0  0.82133735522E+02  0.18950730617E+02 -0.13731088882E+03  0.16111908916E+03  0.00000000000E+00 0. -1.
          2    1    1    2  501    0 -0.20892474987E+02  0.20567623403E+02  0.56520544502E+02  0.63671772351E+02  0.00000000000E+00 0. -1.
<scales pt_clust_5="13000.00000" pt_clust_6="13000.00000" pt_clust_7="13000.00000" pt_clust_8="13000.00000" pt_clust_9="29.31762"></scales>
<clustering>
<clus scale="   29.318">  1  9  2 -1</clus>
<clus scale="   87.897">  5  6 -1 -1</clus>
<clus scale="   91.686">  7  8 -1 -1</clus>
<clus scale="  103.218">  2  5  1 -1</clus>
<clus scale="   29.318">  1  5  2 -1</clus>
</clustering>
</event>
<event>
 9    1  0.3231311E-005  0.1327133E+03  0.7546771E-02  0.1224191E+00
         -1   -1    0    0    0  501 -0.00000000000E+00  0.00000000000E+00  0.58445195868E+03  0.58445195868E+03  0.00000000000E+00 0.  1.
         21   -1    0    0  501  502  0.00000000000E+00 -0.00000000000E+00 -0.21284201752E+03  0.21284201752E+03  0.00000000000E+00 0.  1.
         23    2    1    2    0    0 -0.69333107504E+02  0.60516578472E+02  0.33708903857E+03  0.35999848218E+03  0.86605722586E+02 0.  0.
         23    2    1    2    0    0  0.30616889599E+02 -0.12219937712E+03  0.20219397626E+03  0.25448966039E+03  0.89512577395E+02 0.  0.
        -13    1    4    4    0    0  0.61920529857E+02 -0.89440867708E+02  0.15130850961E+03  0.18635473140E+03  0.00000000000E+00 0.  1.
         13    1    4    4    0    0 -0.31303640258E+02 -0.32758509411E+02  0.50885466643E+02  0.68134928985E+02  0.00000000000E+00 0. -1.
        -13    1    3    3    0    0 -0.56905210241E+02  0.31890319056E+02  0.31520104960E+03  0.32188025269E+03  0.00000000000E+00 0. -1.
         13    1    3    3    0    0 -0.12427897263E+02  0.28626259417E+02  0.21887988965E+02  0.38118229491E+02  0.00000000000E+00 0.  1.
         -1    1    1    2    0  502  0.38716217905E+02  0.61682798648E+02 -0.16767307366E+03  0.18280583363E+03  0.00000000000E+00 0.  1.
<scales pt_clust_5="13000.00000" pt_clust_6="13000.00000" pt_clust_7="13000.00000" pt_clust_8="13000.00000" pt_clust_9="72.82660"></scales>
<clustering>
<clus scale="   72.827">  2  9  1 -1</clus>
<clus scale="   86.606">  7  8 -1 -1</clus>
<clus scale="   89.513">  5  6 -1 -1</clus>
<clus scale="  130.770">  1  7  2 -1</clus>
<clus scale="   72.827">  2  5  1 -1</clus>
</clustering>
</event>
<event>
 9    1  0.3231311E-005  0.1145755E+03  0.7546771E-02  0.1252559E+00
         21   -1    0    0  501  502  0.00000000000E+00  0.00000000000E+00  0.20355091719E+03  0.20355091719E+03  0.00000000000E+00 0.  1.
         -1   -1    0    0    0  501 -0.00000000000E+00 -0.00000000000E+00 -0.19041914829E+03  0.19041914829E+03  0.00000000000E+00 0.  1.
         23    2    1    2    0    0 -0.67305338407E+02 -0.81137969842E+01 -0.12842130400E+03  0.17177745645E+03  0.91758492492E+02 0.  0.
         23    2    1    2    0    0  0.77158627691E+02 -0.34585771737E+02  0.12216393522E+03  0.17427310216E+03  0.91090381670E+02 0.  0.
        -11    1    3    3    0    0 -0.28614635690E+02 -0.37203576577E+02 -0.16354113508E+02  0.49702721399E+02  0.00000000000E+00 0. -1.
         11    1    3    3    0    0 -0.38690702716E+02  0.29089779593E+02 -0.11206719049E+03  0.12207473505E+03  0.00000000000E+00 0.  1.
        -11    1    4    4    0    0  0.69993842598E+02 -0.62479249760E+02  0.10472235162E+03  0.14060428721E+03  0.00000000000E+00 0.  1.
         11    1    4    4    0    0  0.71647850929E+01  0.27893478023E+02  0.17441583605E+02  0.33668814952E+02  0.00000000000E+00 0. -1.
         -1    1    1    2    0  502 -0.98532892846E+01  0.42699568721E+02  0.19389137681E+02  0.47919506870E+02  0.00000000000E+00 0.  1.
<scales pt_clust_5="13000.00000" pt_clust_6="13000.00000" pt_clust_7="13000.00000" pt_clust_8="13000.00000" pt_clust_9="43.82169"></scales>
<clustering>
<clus scale="   43.822">  1  9  2 -1</clus>
<clus scale="   91.090">  7  8 -1 -1</clus>
<clus scale="   91.758">  5  6 -1 -1</clus>
<clus scale="  114.041">  1  7  2 -1</clus>
<clus scale="   43.822">  1  5  2 -1</clus>
</clustering>
</event>
<event>
 9    1  0.3231311E-005  0.1045807E+03  0.7546771E-02  0.1272524E+00
          2   -1    0    0  502    0 -0.00000000000E+00  0.00000000000E+00  0.35114987609E+03  0.35114987609E+03  0.00000000000E+00 0. -1.
         21   -1    0    0  501  502  0.00000000000E+00 -0.00000000000E+00 -0.45261029750E+02  0.45261029750E+02  0.00000000000E+00 0. -1.
         23    2    1    2    0    0  0.40342235608E+02  0.17809205299E+02  0.16188946229E+03  0.19136346015E+03  0.92016912108E+02 0.  0.
         23    2    1    2    0    0 -0.60320470191E+02  0.60283325874E+01  0.13552363155E+03  0.17281087561E+03  0.88442320770E+02 0.  0.
        -13    1    3    3    0    0 -0.22297361837E+02 -0.49119863111E+01  0.92037030458E+02  0.94826762731E+02  0.00000000000E+00 0.  1.
         13    1    3    3    0    0  0.62639597446E+02  0.22721191610E+02  0.69852431831E+02  0.96536697422E+02  0.00000000000E+00 0. -1.
        -13    1    4    4    0    0 -0.49296646439E+02 -0.32010877957E+02  0.45075479247E+02  0.74071954794E+02  0.00000000000E+00 0.  1.
         13    1    4    4    0    0 -0.11023823753E+02  0.38039210545E+02  0.90448152305E+02  0.98738920819E+02  0.00000000000E+00 0. -1.
          2    1    1    2  501    0  0.19978234583E+02 -0.23837537887E+02  0.84757524945E+01  0.32236570070E+02  0.00000000000E+00 0. -1.
<scales pt_clust_5="13000.00000" pt_clust_6="13000.00000" pt_clust_7="13000.00000" pt_clust_8="13000.00000" pt_clust_9="31.10238"></scales>
<clustering>
<clus scale="   31.102">  2  9  1 -1</clus>
<clus scale="   88.442">  7  8 -1 -1</clus>
<clus scale="   92.017">  5  6 -1 -1</clus>
<clus scale="  101.450">  2  7  1 -1</clus>
<clus scale="   31.102">  2  5  1 -1</clus>
</clustering>
</event>
<event>
 9    1  0.3231311E-005  0.9897400E+02  0.7546771E-02  0.1289490E+00
         21   -1    0    0  501  502  0.00000000000E+00  0.00000000000E+00  0.14946785903E+03  0.14946785903E+03  0.00000000000E+00 0.  1.
         -1   -1    0    0    0  501 -0.00000000000E+00 -0.00000000000E+00 -0.23378892436E+03  0.23378892436E+03  0.00000000000E+00 0.  1.
         23    2    1    2    0    0  0.14804687960E+02  0.20760153000E+02 -0.90161923255E+02  0.13085091787E+03  0.91337985329E+02 0.  0.
         23    2    1    2    0    0  0.13529989521E+02 -0.54709137187E+02 -0.99383977014E+02  0.13826711942E+03  0.77874714235E+02 0.  0.
        -11    1    4    4    0    0  0.32098899368E+02 -0.65661878619E+02 -0.86126883198E+02  0.11295867233E+03  0.00000000000E+00 0.  1.
         11    1    4    4    0    0 -0.18568909847E+02  0.10952741432E+02 -0.13257093815E+02  0.25308447092E+02  0.00000000000E+00 0. -1.
        -11    1    3    3    0    0  0.39414495008E+02 -0.15783523017E+02 -0.17599490944E+02  0.45960462324E+02  0.00000000000E+00 0.  1.
         11    1    3    3    0    0 -0.24609807048E+02  0.36543676017E+02 -0.72562432311E+02  0.84890455545E+02  0.00000000000E+00 0. -1.
         -1    1    1    2    0  502 -0.28334677481E+02  0.33948984187E+02  0.10522483494E+03  0.11413874611E+03  0.00000000000E+00 0.  1.
<scales pt_clust_5="13000.00000" pt_clust_6="13000.00000" pt_clust_7="13000.00000" pt_clust_8="13000.00000" pt_clust_9="44.21976"></scales>
<clustering>
<clus scale="   44.220">  1  9  2 -1</clus>
<clus scale="   77.875">  5  6 -1 -1</clus>
<clus scale="   86.705">  1  5  2 -1</clus>
<clus scale="   91.338">  7  8 -1 -1</clus>
<clus scale="   44.220">  1  5  2 -1</clus>
</clustering>
</event>
<event>
 9    1  0.3231311E-005  0.1564566E+03  0.7546771E-02  0.1192913E+00
          1   -1    0    0  502    0 -0.00000000000E+00  0.00000000000E+00  0.58516903143E+03  0.58516903143E+03  0.00000000000E+00 0. -1.
         21   -1    0    0  501  502  0.00000000000E+00 -0.00000000000E+00 -0.85386030669E+02  0.85386030669E+02  0.00000000000E+00 0. -1.
         23    2    1    2    0    0 -0.12872303511E+03  0.36903530344E+02  0.43948949297E+03  0.46845019513E+03  0.91449880077E+02 0.  0.
         23    2    1    2    0    0  0.10897410328E+03  0.81939501662E+01  0.56453904063E+02  0.15272323461E+03  0.90525394784E+02 0.  0.
        -11    1    3    3    0    0 -0.32242922770E+02 -0.25513307174E+02  0.18032813611E+03  0.18495613422E+03  0.00000000000E+00 0.  1.
         11    1    3    3    0    0 -0.96480112344E+02  0.62416837518E+02  0.25916135686E+03  0.28349406092E+03  0.00000000000E+00 0. -1.
        -13    1    4    4    0    0  0.95184988257E+02 -0.20832086243E+02  0.12443216637E+02  0.98229279988E+02  0.00000000000E+00 0.  1.
         13    1    4    4    0    0  0.13789115026E+02  0.29026036409E+02  0.44010687426E+02  0.54493954624E+02  0.00000000000E+00 0. -1.
          1    1    1    2  501    0  0.19748931831E+02 -0.45097480510E+02  0.38396037208E+01  0.49381632350E+02  0.00000000000E+00 0. -1.
<scales pt_clust_5="13000.00000" pt_clust_6="13000.00000" pt_clust_7="13000.00000" pt_clust_8="13000.00000" pt_clust_9="49.23213"></scales>
<clustering>
<clus scale="   49.232">  2  9  1 -1</clus>
<clus scale="   90.525">  7  8 -1 -1</clus>
<clus scale="   91.450">  5  6 -1 -1</clus>
<clus scale="  155.918">  2  7  1 -1</clus>
<clus scale="   49.232">  2  5  1 -1</clus>
</clustering>
</event>
<event>
 9    1  0.3231311E-005  0.1871723E+03  0.7546771E-02  0.1161502E+00
         21   -1    0    0  501  502  0.00000000000E+00  0.00000000000E+00  0.11984312461E+03  0.11984312461E+03  0.00000000000E+00 0.  1.
         -3   -1    0    0    0  501 -0.00000000000E+00 -0.00000000000E+00 -0.83810422259E+03  0.83810422259E+03  0.00000000000E+00 0.  1.
         23    2    1    2    0    0 -0.12389665416E+03  0.95577430714E+02 -0.62741944349E+03  0.65255977774E+03  0.87713620837E+02 0.  0.
         23    2    1    2    0    0  0.14516914713E+03 -0.15288503981E+03 -0.64718192553E+02  0.23891113543E+03  0.91881279429E+02 0.  0.
        -11    1    4    4    0    0  0.81111568396E+01 -0.60597642988E+02  0.85083228716E+00  0.61144003112E+02  0.00000000000E+00 0. -1.
         11    1    4    4    0    0  0.13705799029E+03 -0.92287396822E+02 -0.65569024840E+02  0.17776713232E+03  0.00000000000E+00 0.  1.
        -13    1    3    3    0    0 -0.65669226760E+02  0.15228960651E+02 -0.38089505869E+03  0.38681444430E+03  0.00000000000E+00 0.  1.
         13    1    3    3    0    0 -0.58227427403E+02  0.80348470063E+02 -0.24652438480E+03  0.26574533344E+03  0.00000000000E+00 0. -1.
         -3    1    1    2    0  502 -0.21272492966E+02  0.57307609095E+02 -0.26123461929E+02  0.66476434023E+02  0.00000000000E+00 0.  1.
<scales pt_clust_5="13000.00000" pt_clust_6="13000.00000" pt_clust_7="13000.00000" pt_clust_8="13000.00000" pt_clust_9="61.12840"></scales>
<clustering>
<clus scale="   61.128">  1  9  2 -1</clus>
<clus scale="   87.714">  7  8 -1 -1</clus>
<clus scale="   91.881">  5  6 -1 -1</clus>
<clus scale="  185.162">  2  7  1 -1</clus>
<clus scale="   61.128">  1  5  2 -1</clus>
</clustering>
</event>
<event>
 9    1  0.3231311E-005  0.1748558E+03  0.7546771E-02  0.1173159E+00
          3   -1    0    0  502    0 -0.00000000000E+00  0.00000000000E+00  0.48354908866E+03  0.48354908866E+03  0.00000000000E+00 0. -1.
         21   -1    0    0  501  502  0.00000000000E+00 -0.00000000000E+00 -0.83969555120E+02  0.83969555120E+02  0.00000000000E+00 0.  1.
         23    2    1    2    0    0 -0.15036922944E+03 -0.41629643738E+02  0.22544404692E+03  0.28818632447E+03  0.88782920217E+02 0.  0.
         23    2    1    2    0    0  0.13276402674E+03  0.52785846000E+02  0.18896025103E+03  0.25375542250E+03  0.90957163786E+02 0.  0.
        -11    1    3    3    0    0 -0.12221481437E+03 -0.71807829151E+01  0.20599885993E+03  0.23963212387E+03  0.00000000000E+00 0.  1.
         11    1    3    3    0    0 -0.28154415064E+02 -0.34448860823E+02  0.19445186990E+02  0.48554200608E+02  0.00000000000E+00 0. -1.
        -13    1    4    4    0    0  0.24819305628E+02  0.30097217427E+02  0.50955984785E+01  0.39342159989E+02  0.00000000000E+00 0.  1.
         13    1    4    4    0    0  0.10794472111E+03  0.22688628573E+02  0.18386465255E+03  0.21441326251E+03  0.00000000000E+00 0. -1.
          3    1    1    2  501    0  0.17605202699E+02 -0.11156202262E+02 -0.14824764405E+02  0.25576896814E+02  0.00000000000E+00 0. -1.
<scales pt_clust_5="13000.00000" pt_clust_6="13000.00000" pt_clust_7="13000.00000" pt_clust_8="13000.00000" pt_clust_9="20.84236"></scales>
<clustering>
<clus scale="   20.842">  2  9  1 -1</clus>
<clus scale="   88.783">  5  6 -1 -1</clus>
<clus scale="   90.957">  7  8 -1 -1</clus>
<clus scale="  173.735">  1  5  2 -1</clus>
<clus scale="   20.842">  2  5  1 -1</clus>
</clustering>
</event>
<event>
 9    1  0.3231311E-005  0.2530236E+03  0.7546771E-02  0.1111564E+00
          1   -1    0    0  502    0 -0.00000000000E+00  0.00000000000E+00  0.91519852734E+03  0.91519852734E+03  0.00000000000E+00 0. -1.
         21   -1    0    0  501  502  0.00000000000E+00 -0.00000000000E+00 -0.79029229288E+02  0.79029229288E+02  0.00000000000E+00 0.  1.
         23    2    1    2    0    0 -0.20899733991E+03 -0.83087490246E+02  0.43658770148E+03  0.49987037867E+03  0.93156616882E+02 0.  0.
         23    2    1    2    0    0  0.22882689700E+03  0.98171146552E+02  0.37677233410E+03  0.46057882741E+03  0.90422020078E+02 0.  0.
        -11    1    3    3    0    0 -0.81070235059E+01 -0.31918130387E+02  0.35798245540E+02  0.48641600110E+02  0.00000000000E+00 0.  1.
         11    1    3    3    0    0 -0.20089031640E+03 -0.51169359859E+02  0.40078945594E+03  0.45122877856E+03  0.00000000000E+00 0. -1.
        -11    1    4    4    0    0  0.51439445301E+02  0.38301341476E+02  0.40937642805E+02  0.76084820366E+02  0.00000000000E+00 0. -1.
         11    1    4    4    0    0  0.17738745170E+03  0.59869805075E+02  0.33583469129E+03  0.38449400705E+03  0.00000000000E+00 0.  1.
          1    1    1    2  501    0 -0.19829557092E+02 -0.15083656306E+02  0.22809262478E+02  0.33778550544E+02  0.00000000000E+00 0. -1.
<scales pt_clust_5="13000.00000" pt_clust_6="13000.00000" pt_clust_7="13000.00000" pt_clust_8="13000.00000" pt_clust_9="24.91441"></scales>
<clustering>
<clus scale="   24.914">  2  9  1 -1</clus>
<clus scale="   90.422">  7  8 -1 -1</clus>
<clus scale="   93.157">  5  6 -1 -1</clus>
<clus scale="  252.030">  2  7  1 -1</clus>
<clus scale="   24.914">  2  5  1 -1</clus>
</clustering>
</event>
<event>
 9    1  0.3231311E-005  0.1068535E+03  0.7546771E-02  0.1267004E+00
         21   -1    0    0  501  502  0.00000000000E+00  0.00000000000E+00  0.33392054289E+02  0.33392054289E+02  0.00000000000E+00 0.  1.
          1   -1    0    0  502    0 -0.00000000000E+00 -0.00000000000E+00 -0.92411662792E+03  0.92411662792E+03  0.00000000000E+00 0. -1.
         23    2    1    2    0    0 -0.59937882713E+02  0.22311440560E+02 -0.53326368490E+03  0.54465803848E+03  0.90508955836E+02 0.  0.
         23    2    1    2    0    0  0.10337825269E+02 -0.12068589696E+02 -0.59156999174E+02  0.11027785543E+03  0.91701326918E+02 0.  0.
        -11    1    3    3    0    0  0.50722263487E+01  0.41468632864E+02 -0.16478898837E+03  0.17000231081E+03  0.00000000000E+00 0.  1.
         11    1    3    3    0    0 -0.65010109062E+02 -0.19157192304E+02 -0.36847469653E+03  0.37465572767E+03  0.00000000000E+00 0. -1.
        -13    1    4    4    0    0  0.20701715259E+02  0.26003752624E+02 -0.62386396719E+02  0.70688179074E+02  0.00000000000E+00 0.  1.
         13    1    4    4    0    0 -0.10363889991E+02 -0.38072342320E+02  0.32293975453E+01  0.39589676356E+02  0.00000000000E+00 0. -1.
          1    1    1    2  501    0  0.49600057444E+02 -0.10242850864E+02 -0.29830388955E+03  0.30257278829E+03  0.00000000000E+00 0. -1.
<scales pt_clust_5="13000.00000" pt_clust_6="13000.00000" pt_clust_7="13000.00000" pt_clust_8="13000.00000" pt_clust_9="50.64666"></scales>
<clustering>
<clus scale="   50.647">  1  9  2 -1</clus>
<clus scale="   90.509">  5  6 -1 -1</clus>
<clus scale="   91.701">  7  8 -1 -1</clus>
<clus scale="  105.832">  2  5  1 -1</clus>
<clus scale="   50.647">  1  5  2 -1</clus>
</clustering>
</event>
<event>
 9    1  0.3231311E-005  0.1031555E+03  0.7546771E-02  0.1275428E+00
          1   -1    0    0  502    0 -0.00000000000E+00  0.00000000000E+00  0.55640689328E+03  0.55640689328E+03  0.00000000000E+00 0. -1.
         21   -1    0    0  501  502  0.00000000000E+00 -0.00000000000E+00 -0.50221324060E+02  0.50221324060E+02  0.00000000000E+00 0. -1.
         23    2    1    2    0    0 -0.31642925788E+02  0.13396542027E+02  0.29356160542E+03  0.30947685380E+03  0.91742927606E+02 0.  0.
         23    2    1    2    0    0  0.66371337831E+02 -0.14919691170E+02  0.23201191775E+03  0.25734840706E+03  0.88152827336E+02 0.  0.
        -11    1    4    4    0    0 -0.14743011577E+02 -0.22294820120E+02  0.87178125688E+02  0.91183556594E+02  0.00000000000E+00 0.  1.
         11    1    4    4    0    0  0.81114349408E+02  0.73751289498E+01  0.14483379206E+03  0.16616485046E+03  0.00000000000E+00 0. -1.
        -13    1    3    3    0    0 -0.56224651845E+02 -0.14597395829E+02  0.21191535904E+03  0.21973259849E+03  0.00000000000E+00 0.  1.
         13    1    3    3    0    0  0.24581726057E+02  0.27993937856E+02  0.81646246380E+02  0.89744255307E+02  0.00000000000E+00 0. -1.
          1    1    1    2  501    0 -0.34728412044E+02  0.15231491430E+01 -0.19387953954E+02  0.39802956485E+02  0.00000000000E+00 0. -1.
<scales pt_clust_5="13000.00000" pt_clust_6="13000.00000" pt_clust_7="13000.00000" pt_clust_8="13000.00000" pt_clust_9="34.76180"></scales>
<clustering>
<clus scale="   34.762">  2  9  1 -1</clus>
<clus scale="   88.153">  5  6 -1 -1</clus>
<clus scale="   91.743">  7  8 -1 -1</clus>
<clus scale="   99.976">  2  5  1 -1</clus>
<clus scale="   34.762">  2  5  1 -1</clus>
</clustering>
</event>
<event>
 9    1  0.3231311E-005  0.1444158E+03  0.7546771E-02  0.1208184E+00
         -1   -1    0    0    0  501 -0.00000000000E+00  0.00000000000E+00  0.47708522468E+02  0.47708522468E+02  0.00000000000E+00 0.  1.
         21   -1    0    0  501  502  0.00000000000E+00 -0.00000000000E+00 -0.62252138740E+03  0.62252138740E+03  0.00000000000E+00 0. -1.
         23    2    1    2    0    0  0.35806250589E+02 -0.90820574579E+02 -0.15274421037E+03  0.20248255112E+03  0.90210450385E+02 0.  0.
         23    2    1    2    0    0 -0.53122579243E+02  0.12364255619E+03 -0.32856696924E+03  0.36715062484E+03  0.93455004769E+02 0.  0.
        -11    1    4    4    0    0  0.19401372837E+02  0.85135159957E+01 -0.16987961040E+02  0.27156657432E+02  0.00000000000E+00 0.  1.
         11    1    4    4    0    0 -0.72523952080E+02  0.11512904020E+03 -0.31157900820E+03  0.33999396740E+03  0.00000000000E+00 0. -1.
        -11    1    3    3    0    0 -0.18903992392E+02 -0.56158044991E+02 -0.37022553443E+02  0.69869567116E+02  0.00000000000E+00 0.  1.
         11    1    3    3    0    0  0.54710242981E+02 -0.34662529588E+02 -0.11572165693E+03  0.13261298401E+03  0.00000000000E+00 0. -1.
         -1    1    1    2    0  502  0.17316328654E+02 -0.32821981615E+02 -0.93501685317E+02  0.10059673391E+03  0.00000000000E+00 0.  1.
<scales pt_clust_5="13000.00000" pt_clust_6="13000.00000" pt_clust_7="13000.00000" pt_clust_8="13000.00000" pt_clust_9="37.10981"></scales>
<clustering>
<clus scale="   37.110">  2  9  1 -1</clus>
<clus scale="   90.210">  7  8 -1 -1</clus>
<clus scale="   93.455">  5  6 -1 -1</clus>
<clus scale="  142.338">  1  7  2 -1</clus>
<clus scale="   37.110">  2  5  1 -1</clus>
</clustering>
</event>
<event>
 9    1  0.3231311E-005  0.1387264E+03  0.7546771E-02  0.1216217E+00
          1   -1    0    0  502    0 -0.00000000000E+00  0.00000000000E+00  0.23296514698E+02  0.23296514698E+02  0.00000000000E+00 0. -1.
         21   -1    0    0  501  502  0.00000000000E+00 -0.00000000000E+00 -0.95300865065E+03  0.95300865065E+03  0.00000000000E+00 0. -1.
         23    2    1    2    0    0  0.96210823500E+02  0.38765577368E+02 -0.36712677788E+03  0.39217282591E+03  0.90874428733E+02 0.  0.
         23    2    1    2    0    0 -0.95120196553E+02 -0.18074506908E+02 -0.49866764037E+03  0.51694019332E+03  0.95829057833E+02 0.  0.
        -11    1    3    3    0    0  0.25719082831E+02 -0.21701624730E+02 -0.18167846103E+03  0.18476876073E+03  0.00000000000E+00 0.  1.
         11    1    3    3    0    0  0.70491740670E+02  0.60467202098E+02 -0.18544831684E+03  0.20740406518E+03  0.00000000000E+00 0. -1.
        -13    1    4    4    0    0 -0.22531771691E+02 -0.34655385272E+02 -0.65736503012E+02  0.77652844714E+02  0.00000000000E+00 0.  1.
         13    1    4    4    0    0 -0.72588424862E+02  0.16580878364E+02 -0.43293113735E+03  0.43928734860E+03  0.00000000000E+00 0. -1.
          1    1    1    2  501    0 -0.10906269467E+01 -0.20691070460E+02 -0.63917717706E+02  0.67192146124E+02  0.00000000000E+00 0. -1.
<scales pt_clust_5="13000.00000" pt_clust_6="13000.00000" pt_clust_7="13000.00000" pt_clust_8="13000.00000" pt_clust_9="20.71980"></scales>
<clustering>
<clus scale="   20.720">  2  9  1 -1</clus>
<clus scale="   90.874">  5  6 -1 -1</clus>
<clus scale="   95.829">  7  8 -1 -1</clus>
<clus scale="  135.351">  1  5  2 -1</clus>
<clus scale="   20.720">  2  5  1 -1</clus>
</clustering>
</event>
<event>
 9    1  0.3231311E-005  0.1024288E+03  0.7546771E-02  0.1278841E+00
         21   -1    0    0  501  502  0.00000000000E+00  0.00000000000E+00  0.92938211731E+03  0.92938211731E+03  0.00000000000E+00 0.  1.
         -1   -1    0    0    0  501 -0.00000000000E+00 -0.00000000000E+00 -0.10406188025E+03  0.10406188025E+03  0.00000000000E+00 0.  1.
         23    2    1    2    0    0 -0.11756658071E+02 -0.19685226496E+02 -0.67036204546E+02  0.12206479676E+03  0.99399369904E+02 0.  0.
         23    2    1    2    0    0  0.71209379828E+02  0.34815758168E+02  0.65520418852E+03  0.66642053028E+03  0.92416891000E+02 0.  0.
        -13    1    3    3    0    0 -0.40163613839E+02 -0.28788992231E+02 -0.76233879885E+02  0.90848920701E+02  0.00000000000E+00 0.  1.
         13    1    3    3    0    0  0.28406955768E+02  0.91037657350E+01  0.91976753390E+01  0.31215876060E+02  0.00000000000E+00 0. -1.
        -13    1    4    4    0    0  0.90049543055E+02  0.42083502047E+02  0.58441066637E+03  0.59280331335E+03  0.00000000000E+00 0.  1.
         13    1    4    4    0    0 -0.18840163228E+02 -0.72677438789E+01  0.70793522146E+02  0.73617216936E+02  0.00000000000E+00 0. -1.
         -1    1    1    2    0  502 -0.59452721757E+02 -0.15130531672E+02  0.23715225309E+03  0.24495867052E+03  0.00000000000E+00 0.  1.
<scales pt_clust_5="13000.00000" pt_clust_6="13000.00000" pt_clust_7="13000.00000" pt_clust_8="13000.00000" pt_clust_9="61.34785"></scales>
<clustering>
<clus scale="   61.348">  1  9  2 -1</clus>
<clus scale="   92.417">  7  8 -1 -1</clus>
<clus scale="   95.668">  1  7  2 -1</clus>
<clus scale="   99.399">  5  6 -1 -1</clus>
<clus scale="   61.348">  1  5  2 -1</clus>
</clustering>
</event>
<event>
 9    1  0.3231311E-005  0.1570994E+03  0.7546771E-02  0.1192517E+00
          1   -1    0    0  502    0 -0.00000000000E+00  0.00000000000E+00  0.39389399134E+03  0.39389399134E+03  0.00000000000E+00 0. -1.
         21   -1    0    0  501  502  0.00000000000E+00 -0.00000000000E+00 -0.77461480245E+02  0.77461480245E+02  0.00000000000E+00 0.  1.
         23    2    1    2    0    0 -0.57999523409E+01 -0.12939281373E+03  0.22035559314E+03  0.27123677501E+03  0.90756052109E+02 0.  0.
         23    2    1    2    0    0 -0.14642100453E+02  0.12617419634E+03  0.89366297017E+02  0.17836393954E+03  0.87709982093E+02 0.  0.
        -11    1    3    3    0    0 -0.38177308552E+02 -0.11292758892E+03  0.14600478364E+03  0.18848751703E+03  0.00000000000E+00 0. -1.
         11    1    3    3    0    0  0.32377356211E+02 -0.16465224811E+02  0.74350809498E+02  0.82749257980E+02  0.00000000000E+00 0.  1.
        -11    1    4    4    0    0 -0.26560231134E+02  0.79656212553E+02  0.86086160956E+01  0.84407738670E+02  0.00000000000E+00 0.  1.
         11    1    4    4    0    0  0.11918130681E+02  0.46517983786E+02  0.80757680922E+02  0.93956200872E+02  0.00000000000E+00 0. -1.
          1    1    1    2  501    0  0.20442052794E+02  0.32186173936E+01  0.67106209371E+01  0.21754757037E+02  0.00000000000E+00 0. -1.
<scales pt_clust_5="13000.00000" pt_clust_6="13000.00000" pt_clust_7="13000.00000" pt_clust_8="13000.00000" pt_clust_9="20.69389"></scales>
<clustering>
<clus scale="   20.694">  2  9  1 -1</clus>
<clus scale="   87.710">  7  8 -1 -1</clus>
<clus scale="   90.756">  5  6 -1 -1</clus>
<clus scale="  155.360">  2  7  1 -1</clus>
<clus scale="   20.694">  2  5  1 -1</clus>
</clustering>
</event>
<event>
 9    1  0.3231311E-005  0.1522193E+03  0.7546771E-02  0.1197847E+00
         21   -1    0    0  501  502  0.00000000000E+00  0.00000000000E+00  0.88370548460E+02  0.88370548460E+02  0.00000000000E+00 0. -1.
         -1   -1    0    0    0  501 -0.00000000000E+00 -0.00000000000E+00 -0.37385150224E+03  0.37385150224E+03  0.00000000000E+00 0.  1.
         23    2    1    2    0    0  0.34112930608E+01  0.11311262695E+03 -0.19692990164E+03  0.24482326736E+03  0.91383492949E+02 0.  0.
         23    2    1    2    0    0  0.31431711836E+00 -0.14134127727E+03 -0.65695752308E+02  0.18088711945E+03  0.91797400043E+02 0.  0.
        -11    1    3    3    0    0  0.34469459794E+02  0.10868163953E+03 -0.15137179892E+03  0.18950795217E+03  0.00000000000E+00 0.  1.
         11    1    3    3    0    0 -0.31058166733E+02  0.44309874233E+01 -0.45558102725E+02  0.55315315188E+02  0.00000000000E+00 0. -1.
        -13    1    4    4    0    0 -0.38677193373E+01 -0.25092508344E+02 -0.59162207901E+02  0.64379811056E+02  0.00000000000E+00 0.  1.
         13    1    4    4    0    0  0.41820364556E+01 -0.11624876893E+03 -0.65335444071E+01  0.11650730839E+03  0.00000000000E+00 0. -1.
         -1    1    1    2    0  502 -0.37256101792E+01  0.28228650320E+02 -0.22855299830E+02  0.36511663895E+02  0.00000000000E+00 0.  1.
<scales pt_clust_5="13000.00000" pt_clust_6="13000.00000" pt_clust_7="13000.00000" pt_clust_8="13000.00000" pt_clust_9="28.47346"></scales>
<clustering>
<clus scale="   28.473">  1  9  2 -1</clus>
<clus scale="   91.383">  5  6 -1 -1</clus>
<clus scale="   91.797">  7  8 -1 -1</clus>
<clus scale="  151.970">  2  5  1 -1</clus>
<clus scale="   28.473">  1  5  2 -1</clus>
</clustering>
</event>
<event>
 9    1  0.3231311E-005  0.9671181E+02  0.7546771E-02  0.1287588E+00
          1   -1    0    0  502    0 -0.00000000000E+00  0.00000000000E+00  0.12933292067E+03  0.12933292067E+03  0.00000000000E+00 0. -1.
         21   -1    0    0  501  502  0.00000000000E+00 -0.00000000000E+00 -0.18293706144E+03  0.18293706144E+03  0.00000000000E+00 0.  1.
         23    2    1    2    0    0  0.26775717830E+02  0.23549411080E+02  0.77837148448E+02  0.12491061178E+03  0.90953424508E+02 0.  0.
         23    2    1    2    0    0  0.10616736681E+02 -0.27084763005E+02 -0.96938773903E+02  0.13635821416E+03  0.91379085122E+02 0.  0.
        -13    1    4    4    0    0  0.18136346881E+02 -0.59716802134E+02 -0.62839156917E+02  0.88565135225E+02  0.00000000000E+00 0. -1.
         13    1    4    4    0    0 -0.75196102004E+01  0.32632039130E+02 -0.34099616985E+02  0.47793078933E+02  0.00000000000E+00 0.  1.
        -13    1    3    3    0    0 -0.18525058343E+02 -0.22842326303E+02  0.40615954085E+02  0.50145841141E+02  0.00000000000E+00 0.  1.
         13    1    3    3    0    0  0.45300776172E+02  0.46391737383E+02  0.37221194363E+02  0.74764770641E+02  0.00000000000E+00 0. -1.
          1    1    1    2  501    0 -0.37392454511E+02  0.35353519250E+01 -0.34502515316E+02  0.51001156170E+02  0.00000000000E+00 0. -1.
<scales pt_clust_5="13000.00000" pt_clust_6="13000.00000" pt_clust_7="13000.00000" pt_clust_8="13000.00000" pt_clust_9="37.55921"></scales>
<clustering>
<clus scale="   37.559">  2  9  1 -1</clus>
<clus scale="   90.953">  7  8 -1 -1</clus>
<clus scale="   91.379">  5  6 -1 -1</clus>
<clus scale="   96.310">  1  7  2 -1</clus>
<clus scale="   37.559">  2  5  1 -1</clus>
</clustering>
</event>
<event>
 9    1  0.3231311E-005  0.1055839E+03  0.7546771E-02  0.1269571E+00
         21   -1    0    0  501  502  0.00000000000E+00  0.00000000000E+00  0.30118840328E+03  0.30118840328E+03  0.00000000000E+00 0.  1.
         -1   -1    0    0    0  501 -0.00000000000E+00 -0.00000000000E+00 -0.56528863406E+02  0.56528863406E+02  0.00000000000E+00 0.  1.
         23    2    1    2    0    0  0.21138818227E+01  0.49246853233E+02  0.41814428481E+02  0.11492881423E+03  0.95028758078E+02 0.  0.
         23    2    1    2    0    0 -0.20108096307E+02 -0.37891381461E+02  0.12449546848E+03  0.16160098397E+03  0.93678514196E+02 0.  0.
        -13    1    4    4    0    0 -0.53684924725E+02 -0.31020932801E+02  0.50184648778E+02  0.79767589832E+02  0.00000000000E+00 0.  1.
         13    1    4    4    0    0  0.33576828418E+02 -0.68704486603E+01  0.74310819701E+02  0.81833394138E+02  0.00000000000E+00 0. -1.
        -13    1    3    3    0    0 -0.30952854018E+01 -0.28508727054E+02  0.66750747341E+01  0.29442909718E+02  0.00000000000E+00 0. -1.
         13    1    3    3    0    0  0.52091672245E+01  0.77755580287E+02  0.35139353747E+02  0.85485904515E+02  0.00000000000E+00 0.  1.
         -1    1    1    2    0  502  0.17994214484E+02 -0.11355471772E+02  0.78349642913E+02  0.81187468483E+02  0.00000000000E+00 0.  1.
<scales pt_clust_5="13000.00000" pt_clust_6="13000.00000" pt_clust_7="13000.00000" pt_clust_8="13000.00000" pt_clust_9="21.27765"></scales>
<clustering>
<clus scale="   21.278">  1  9  2 -1</clus>
<clus scale="   93.679">  5  6 -1 -1</clus>
<clus scale="   95.029">  7  8 -1 -1</clus>
<clus scale="  104.370">  1  5  2 -1</clus>
<clus scale="   21.278">  1  5  2 -1</clus>
</clustering>
</event>
<event>
 9    1  0.3231311E-005  0.2152615E+03  0.7546771E-02  0.1154062E+00
         21   -1    0    0  501  502  0.00000000000E+00  0.00000000000E+00  0.76220649451E+02  0.76220649451E+02  0.00000000000E+00 0. -1.
          2   -1    0    0  502    0 -0.00000000000E+00 -0.00000000000E+00 -0.17954495819E+04  0.17954495819E+04  0.00000000000E+00 0. -1.
         23    2    1    2    0    0  0.94044385078E+02  0.49793493893E+02 -0.31511406067E+03  0.34680749200E+03  0.98258978625E+02 0.  0.
         23    2    1    2    0    0 -0.25039517638E+03  0.53916679583E+02 -0.12579045953E+04  0.12869997221E+04  0.91867083730E+02 0.  0.
        -11    1    3    3    0    0  0.10884255399E+03  0.35713515479E+02 -0.30077556679E+03  0.32185104991E+03  0.00000000000E+00 0.  1.
         11    1    3    3    0    0 -0.14798168915E+02  0.14079978414E+02 -0.14338493871E+02  0.24956442091E+02  0.00000000000E+00 0. -1.
        -13    1    4    4    0    0 -0.19834882998E+03  0.22181957577E+01 -0.94807746494E+03  0.96860624522E+03  0.00000000000E+00 0. -1.
         13    1    4    4    0    0 -0.52046346395E+02  0.51698483825E+02 -0.30982713038E+03  0.31839347689E+03  0.00000000000E+00 0.  1.
          2    1    1    2  501    0  0.15635079130E+03 -0.10371017348E+03 -0.14621027642E+03  0.23786301720E+03  0.00000000000E+00 0. -1.
<scales pt_clust_5="13000.00000" pt_clust_6="13000.00000" pt_clust_7="13000.00000" pt_clust_8="13000.00000" pt_clust_9="194.67401"></scales>
<clustering>
<clus scale="   91.867">  7  8 -1 -1</clus>
<clus scale="   98.259">  5  6 -1 -1</clus>
<clus scale="  144.840">  2  5  1 -1</clus>
<clus scale="  194.674">  1  9  2 -1</clus>
<clus scale="  194.674">  1  5  2 -1</clus>
</clustering>
</event>
<event>
 9    1  0.3231311E-005  0.1209900E+03  0.7546771E-02  0.1241600E+00
          1   -1    0    0  502    0 -0.00000000000E+00  0.00000000000E+00  0.39998381062E+03  0.39998381062E+03  0.00000000000E+00 0. -1.
         21   -1    0    0  501  502  0.00000000000E+00 -0.00000000000E+00 -0.54614207154E+02  0.54614207154E+02  0.00000000000E+00 0.  1.
         23    2    1    2    0    0  0.60348219155E+02 -0.17696925062E+02  0.13393551334E+03  0.17380235171E+03  0.91178106006E+02 0.  0.
         23    2    1    2    0    0 -0.93883391627E+02  0.45294464526E+02  0.13695401735E+03  0.19457784182E+03  0.90765929277E+02 0.  0.
        -13    1    3    3    0    0  0.67551248405E+02  0.15957989328E+02  0.58082458637E+02  0.90506356605E+02  0.00000000000E+00 0.  1.
         13    1    3    3    0    0 -0.72030292498E+01 -0.33654914390E+02  0.75853054707E+02  0.83295995110E+02  0.00000000000E+00 0. -1.
        -13    1    4    4    0    0 -0.93309050664E+01  0.29094066863E+02 -0.25373477672E+01  0.30658908161E+02  0.00000000000E+00 0. -1.
         13    1    4    4    0    0 -0.84552486561E+02  0.16200397663E+02  0.13949136512E+03  0.16391893366E+03  0.00000000000E+00 0.  1.
          1    1    1    2  501    0  0.33535172472E+02 -0.27597539464E+02  0.74480072763E+02  0.86217824235E+02  0.00000000000E+00 0. -1.
<scales pt_clust_5="13000.00000" pt_clust_6="13000.00000" pt_clust_7="13000.00000" pt_clust_8="13000.00000" pt_clust_9="43.43079"></scales>
<clustering>
<clus scale="   43.431">  2  9  1 -1</clus>
<clus scale="   90.766">  7  8 -1 -1</clus>
<clus scale="   91.178">  5  6 -1 -1</clus>
<clus scale="  120.680">  2  7  1 -1</clus>
<clus scale="   43.431">  2  5  1 -1</clus>
</clustering>
</event>
<event>
 9    1  0.3231311E-005  0.1407183E+03  0.7546771E-02  0.1213094E+00
         21   -1    0    0  501  502  0.00000000000E+00  0.00000000000E+00  0.45541587800E+02  0.45541587800E+02  0.00000000000E+00 0. -1.
          1   -1    0    0  502    0 -0.00000000000E+00 -0.00000000000E+00 -0.87360653164E+03  0.87360653164E+03  0.00000000000E+00 0. -1.
         23    2    1    2    0    0 -0.61603082612E+02 -0.57459052739E+02 -0.31873411304E+03  0.34089916719E+03  0.86742866255E+02 0.  0.
         23    2    1    2    0    0  0.14153922158E+03  0.84302701805E+02 -0.32093826059E+03  0.37184612204E+03  0.90154725811E+02 0.  0.
        -11    1    4    4    0    0  0.43075041345E+02 -0.15488316823E+02 -0.10297761648E+03  0.11269310823E+03  0.00000000000E+00 0.  1.
         11    1    4    4    0    0  0.98464180239E+02  0.99791018628E+02 -0.21796064411E+03  0.25915301381E+03  0.00000000000E+00 0. -1.
        -11    1    3    3    0    0  0.86696160785E+01 -0.39924076495E+02 -0.62842847266E+02  0.74955437290E+02  0.00000000000E+00 0. -1.
         11    1    3    3    0    0 -0.70272698691E+02 -0.17534976245E+02 -0.25589126578E+03  0.26594372990E+03  0.00000000000E+00 0.  1.
          1    1    1    2  501    0 -0.79936138972E+02 -0.26843649066E+02 -0.18839257020E+03  0.20640283021E+03  0.00000000000E+00 0. -1.
<scales pt_clust_5="13000.00000" pt_clust_6="13000.00000" pt_clust_7="13000.00000" pt_clust_8="13000.00000" pt_clust_9="84.32304"></scales>
<clustering>
<clus scale="   84.323">  1  9  2 -1</clus>
<clus scale="   86.743">  7  8 -1 -1</clus>
<clus scale="   90.155">  5  6 -1 -1</clus>
<clus scale="  138.557">  2  7  1 -1</clus>
<clus scale="   84.323">  1  5  2 -1</clus>
</clustering>
</event>
<event>
 9    1  0.3231311E-005  0.1362113E+03  0.7546771E-02  0.1219249E+00
         21   -1    0    0  501  502  0.00000000000E+00  0.00000000000E+00  0.55470350494E+03  0.55470350494E+03  0.00000000000E+00 0. -1.
          2   -1    0    0  502    0 -0.00000000000E+00 -0.00000000000E+00 -0.10749827173E+03  0.10749827173E+03  0.00000000000E+00 0. -1.
         23    2    1    2    0    0 -0.10194757478E+03  0.41544370794E+02  0.21459507141E+02  0.14551794647E+03  0.92713103441E+02 0.  0.
         23    2    1    2    0    0  0.96133524134E+02  0.57089237825E+02  0.96086047026E+02  0.17253575754E+03  0.89639409073E+02 0.  0.
        -11    1    4    4    0    0  0.86211344976E+02  0.90362798733E+00  0.59629739493E+02  0.10482804195E+03  0.00000000000E+00 0. -1.
         11    1    4    4    0    0  0.99221791579E+01  0.56185609838E+02  0.36456307533E+02  0.67707715594E+02  0.00000000000E+00 0.  1.
        -11    1    3    3    0    0 -0.59811706422E+02 -0.13415936503E+02  0.40775327689E+02  0.73621022307E+02  0.00000000000E+00 0.  1.
         11    1    3    3    0    0 -0.42135868354E+02  0.54960307297E+02 -0.19315820548E+02  0.71896924159E+02  0.00000000000E+00 0. -1.
          2    1    1    2  501    0  0.58140506428E+01 -0.98633608619E+02  0.32965967904E+03  0.34414807266E+03  0.00000000000E+00 0. -1.
<scales pt_clust_5="13000.00000" pt_clust_6="13000.00000" pt_clust_7="13000.00000" pt_clust_8="13000.00000" pt_clust_9="98.80482"></scales>
<clustering>
<clus scale="   89.639">  5  6 -1 -1</clus>
<clus scale="   92.713">  7  8 -1 -1</clus>
<clus scale="   98.805">  1  9  2 -1</clus>
<clus scale="  134.138">  1  5  2 -1</clus>
<clus scale="   98.805">  1  5  2 -1</clus>
</clustering>
</event>
<event>
 9    1  0.3231311E-005  0.1406963E+03  0.7546771E-02  0.1228304E+00
         21   -1    0    0  501  502  0.00000000000E+00  0.00000000000E+00  0.63767146378E+03  0.63767146378E+03  0.00000000000E+00 0. -1.
          2   -1    0    0  502    0 -0.00000000000E+00 -0.00000000000E+00 -0.68725824774E+02  0.68725824774E+02  0.00000000000E+00 0. -1.
         23    2    1    2    0    0  0.18243779310E+02 -0.44838759381E+02  0.25820803905E+03  0.27717197523E+03  0.88371729599E+02 0.  0.
         23    2    1    2    0    0  0.63504844704E+02  0.11148065422E+03  0.80339712002E+02  0.17583398268E+03  0.89455679380E+02 0.  0.
        -11    1    4    4    0    0 -0.20441305822E+02  0.33373410249E+02  0.35094526148E+02  0.52566693456E+02  0.00000000000E+00 0.  1.
         11    1    4    4    0    0  0.83946150526E+02  0.78107243974E+02  0.45245185854E+02  0.12326728922E+03  0.00000000000E+00 0. -1.
        -11    1    3    3    0    0  0.37257596958E+02  0.13322870182E+02  0.10243808135E+03  0.10981433382E+03  0.00000000000E+00 0. -1.
         11    1    3    3    0    0 -0.19013817649E+02 -0.58161629563E+02  0.15576995770E+03  0.16735764141E+03  0.00000000000E+00 0.  1.
          2    1    1    2  501    0 -0.81748624013E+02 -0.66641894842E+02  0.23039788795E+03  0.25339133065E+03  0.00000000000E+00 0. -1.
<scales pt_clust_5="13000.00000" pt_clust_6="13000.00000" pt_clust_7="13000.00000" pt_clust_8="13000.00000" pt_clust_9="108.59619"></scales>
<clustering>
<clus scale="   88.372">  7  8 -1 -1</clus>
<clus scale="   89.456">  5  6 -1 -1</clus>
<clus scale="  100.762">  2  7  1 -1</clus>
<clus scale="  108.596">  1  9  2 -1</clus>
<clus scale="  108.596">  1  5  2 -1</clus>
</clustering>
</event>
<event>
 9    1  0.3231311E-005  0.1494221E+03  0.7546771E-02  0.1205063E+00
         21   -1    0    0  501  502  0.00000000000E+00  0.00000000000E+00  0.11780888437E+04  0.11780888437E+04  0.00000000000E+00 0.  1.
         -2   -1    0    0    0  501 -0.00000000000E+00 -0.00000000000E+00 -0.50054149448E+02  0.50054149448E+02  0.00000000000E+00 0.  1.
         23    2    1    2    0    0  0.72459180830E+02 -0.79119729273E+02  0.21952401513E+03  0.25969650389E+03  0.87984183040E+02 0.  0.
         23    2    1    2    0    0  0.20377429438E+02  0.17846290456E+03  0.42210021144E+03  0.46338921949E+03  0.65549464564E+02 0.  0.
        -11    1    3    3    0    0  0.27566796799E+02 -0.63383480265E+02  0.54698988180E+02  0.88144047810E+02  0.00000000000E+00 0. -1.
         11    1    3    3    0    0  0.44892384031E+02 -0.15736249008E+02  0.16482502695E+03  0.17155245608E+03  0.00000000000E+00 0.  1.
        -13    1    4    4    0    0  0.41678362348E+02  0.93493689976E+02  0.25358870532E+03  0.27346917088E+03  0.00000000000E+00 0.  1.
         13    1    4    4    0    0 -0.21300932910E+02  0.84969214583E+02  0.16851150612E+03  0.18992004861E+03  0.00000000000E+00 0. -1.
         -2    1    1    2    0  502 -0.92836610268E+02 -0.99343175286E+02  0.48641046767E+03  0.50505726977E+03  0.00000000000E+00 0.  1.
<scales pt_clust_5="13000.00000" pt_clust_6="13000.00000" pt_clust_7="13000.00000" pt_clust_8="13000.00000" pt_clust_9="135.96949"></scales>
<clustering>
<clus scale="   65.549">  7  8 -1 -1</clus>
<clus scale="   87.984">  5  6 -1 -1</clus>
<clus scale="  135.969">  1  9  2 -1</clus>
<clus scale="  137.414">  1  7  2 -1</clus>
<clus scale="  135.969">  1  5  2 -1</clus>
</clustering>
</event>
<event>
 9    1  0.3231311E-005  0.1052879E+03  0.7546771E-02  0.1270871E+00
         21   -1    0    0  501  502  0.00000000000E+00  0.00000000000E+00  0.86316682480E+02  0.86316682480E+02  0.00000000000E+00 0.  1.
         -1   -1    0    0    0  501 -0.00000000000E+00 -0.00000000000E+00 -0.23037746504E+03  0.23037746504E+03  0.00000000000E+00 0.  1.
         23    2    1    2    0    0 -0.31166846081E+02 -0.24483843469E+01 -0.27944659285E+02  0.98786910482E+02  0.89445977100E+02 0.  0.
         23    2    1    2    0    0  0.61550338530E+02  0.46295671798E+02 -0.43849788684E+02  0.12808427591E+03  0.92471857169E+02 0.  0.
        -13    1    3    3    0    0 -0.62141384135E+02  0.39672941704E+01 -0.24703844479E+02  0.66989334802E+02  0.00000000000E+00 0. -1.
         13    1    3    3    0    0  0.30974538054E+02 -0.64156785173E+01 -0.32408148056E+01  0.31797575679E+02  0.00000000000E+00 0.  1.
        -13    1    4    4    0    0  0.63063194865E+02  0.71318265470E+02 -0.32857419729E+02  0.10071182437E+03  0.00000000000E+00 0. -1.
         13    1    4    4    0    0 -0.15128563349E+01 -0.25022593672E+02 -0.10992368955E+02  0.27372451546E+02  0.00000000000E+00 0.  1.
         -1    1    1    2    0  502 -0.30383492449E+02 -0.43847287451E+02 -0.72266334591E+02  0.89822961126E+02  0.00000000000E+00 0.  1.
<scales pt_clust_5="13000.00000" pt_clust_6="13000.00000" pt_clust_7="13000.00000" pt_clust_8="13000.00000" pt_clust_9="53.34552"></scales>
<clustering>
<clus scale="   53.346">  1  9  2 -1</clus>
<clus scale="   89.446">  5  6 -1 -1</clus>
<clus scale="   92.472">  7  8 -1 -1</clus>
<clus scale="  102.641">  2  5  1 -1</clus>
<clus scale="   53.346">  1  5  2 -1</clus>
</clustering>
</event>
<event>
 9    1  0.3231311E-005  0.9454972E+02  0.7546771E-02  0.1294221E+00
         21   -1    0    0  501  502  0.00000000000E+00  0.00000000000E+00  0.51762339025E+02  0.51762339025E+02  0.00000000000E+00 0.  1.
          1   -1    0    0  502    0 -0.00000000000E+00 -0.00000000000E+00 -0.36465681706E+03  0.36465681706E+03  0.00000000000E+00 0. -1.
         23    2    1    2    0    0 -0.60888858573E+01  0.20744028602E+02 -0.22366014422E+03  0.24343276507E+03  0.93638996917E+02 0.  0.
         23    2    1    2    0    0 -0.20526495236E+02  0.21094246903E+01 -0.10011294804E+03  0.13625761367E+03  0.90098547371E+02 0.  0.
        -11    1    3    3    0    0  0.30555749552E+02 -0.17983625515E+02 -0.13844385139E+03  0.14291173711E+03  0.00000000000E+00 0. -1.
         11    1    3    3    0    0 -0.36644635409E+02  0.38727654117E+02 -0.85216292830E+02  0.10052102796E+03  0.00000000000E+00 0.  1.
        -11    1    4    4    0    0 -0.38203819686E+01  0.26133395582E+02  0.52317920757E+01  0.26924363156E+02  0.00000000000E+00 0.  1.
         11    1    4    4    0    0 -0.16706113267E+02 -0.24023970892E+02 -0.10534474011E+03  0.10933325051E+03  0.00000000000E+00 0. -1.
          1    1    1    2  501    0  0.26615381093E+02 -0.22853453292E+02  0.10878614220E+02  0.36728777348E+02  0.00000000000E+00 0. -1.
<scales pt_clust_5="13000.00000" pt_clust_6="13000.00000" pt_clust_7="13000.00000" pt_clust_8="13000.00000" pt_clust_9="35.08075"></scales>
<clustering>
<clus scale="   35.081">  1  9  2 -1</clus>
<clus scale="   90.099">  7  8 -1 -1</clus>
<clus scale="   91.045">  1  7  2 -1</clus>
<clus scale="   93.639">  5  6 -1 -1</clus>
<clus scale="   35.081">  1  5  2 -1</clus>
</clustering>
</event>
<event>
 9    1  0.3231311E-005  0.1812662E+03  0.7546771E-02  0.1167163E+00
          1   -1    0    0  502    0 -0.00000000000E+00  0.00000000000E+00  0.63593597958E+02  0.63593597958E+02  0.00000000000E+00 0. -1.
         21   -1    0    0  501  502  0.00000000000E+00 -0.00000000000E+00 -0.13331380770E+04  0.13331380770E+04  0.00000000000E+00 0.  1.
         23    2    1    2    0    0  0.11427471387E+03 -0.90364197577E+02 -0.11946576514E+03  0.20961460374E+03  0.91879348219E+02 0.  0.
         23    2    1    2    0    0 -0.15602247769E+03  0.13527349075E+03 -0.76358423989E+03  0.79578894951E+03  0.87047285435E+02 0.  0.
        -11    1    3    3    0    0 -0.69022766522E+01 -0.39457072782E+02 -0.19916155710E+02  0.44734274038E+02  0.00000000000E+00 0.  1.
         11    1    3    3    0    0  0.12117699052E+03 -0.50907124795E+02 -0.99549609428E+02  0.16488032970E+03  0.00000000000E+00 0. -1.
        -13    1    4    4    0    0 -0.80277987254E+02  0.15846545483E+02 -0.24731212719E+03  0.26049751726E+03  0.00000000000E+00 0.  1.
         13    1    4    4    0    0 -0.75744490437E+02  0.11942694527E+03 -0.51627211270E+03  0.53529143225E+03  0.00000000000E+00 0. -1.
          1    1    1    2  501    0  0.41747763827E+02 -0.44909293176E+02 -0.38649447398E+03  0.39132812168E+03  0.00000000000E+00 0. -1.
<scales pt_clust_5="13000.00000" pt_clust_6="13000.00000" pt_clust_7="13000.00000" pt_clust_8="13000.00000" pt_clust_9="61.31656"></scales>
<clustering>
<clus scale="   61.317">  2  9  1 -1</clus>
<clus scale="   87.047">  7  8 -1 -1</clus>
<clus scale="   91.879">  5  6 -1 -1</clus>
<clus scale="  178.865">  2  7  1 -1</clus>
<clus scale="   61.317">  2  5  1 -1</clus>
</clustering>
</event>
<event>
 9    1  0.3231311E-005  0.9297006E+02  0.7546771E-02  0.1295871E+00
         21   -1    0    0  501  502  0.00000000000E+00  0.00000000000E+00  0.28906609699E+03  0.28906609699E+03  0.00000000000E+00 0. -1.
         -2   -1    0    0    0  501 -0.00000000000E+00 -0.00000000000E+00 -0.49896375935E+02  0.49896375935E+02  0.00000000000E+00 0.  1.
         23    2    1    2    0    0 -0.29605934244E+00  0.35935913843E+02  0.56491768977E+02  0.11255628378E+03  0.90477176689E+02 0.  0.
         23    2    1    2    0    0  0.33540618118E+01 -0.26789336858E+01  0.88845560508E+02  0.12680751538E+03  0.90378016783E+02 0.  0.
        -13    1    4    4    0    0 -0.28709473357E+02  0.13203617739E+02  0.85163210136E+02  0.90836896372E+02  0.00000000000E+00 0. -1.
         13    1    4    4    0    0  0.32063535169E+02 -0.15882551425E+02  0.36823503724E+01  0.35970619005E+02  0.00000000000E+00 0.  1.
        -13    1    3    3    0    0  0.16768345042E+02  0.62347574441E+02  0.46488986744E+02  0.79558929873E+02  0.00000000000E+00 0.  1.
         13    1    3    3    0    0 -0.17064404384E+02 -0.26411660598E+02  0.10002782233E+02  0.32997353908E+02  0.00000000000E+00 0. -1.
         -2    1    1    2    0  502 -0.30580024694E+01 -0.33256980157E+02  0.93832391567E+02  0.99598673764E+02  0.00000000000E+00 0.  1.
<scales pt_clust_5="13000.00000" pt_clust_6="13000.00000" pt_clust_7="13000.00000" pt_clust_8="13000.00000" pt_clust_9="33.39728"></scales>
<clustering>
<clus scale="   33.397">  1  9  2 -1</clus>
<clus scale="   90.378">  5  6 -1 -1</clus>
<clus scale="   90.477">  7  8 -1 -1</clus>
<clus scale="   92.874">  1  5  2 -1</clus>
<clus scale="   33.397">  1  5  2 -1</clus>
</clustering>
</event>
<event>
 9    1  0.3657574E-005  0.9281664E+02  0.7546771E-02  0.1298912E+00
         21   -1    0    0  501  502  0.00000000000E+00  0.00000000000E+00  0.20272261470E+03  0.20272261470E+03  0.00000000000E+00 0. -1.
          1   -1    0    0  502    0 -0.00000000000E+00 -0.00000000000E+00 -0.24515111700E+03  0.24515111700E+03  0.00000000000E+00 0. -1.
         23    2    1    2    0    0  0.34247879390E+02 -0.17088549060E+02 -0.16718388273E+03  0.19223621552E+03  0.86829581132E+02 0.  0.
         23    2    1    2    0    0 -0.24749188596E+02 -0.75262057390E+01 -0.35708735447E+02  0.93018809495E+02  0.81903718009E+02 0.  0.
        -11    1    4    4    0    0 -0.32888468765E+02  0.21569042682E+02  0.77534745380E+01  0.40087296583E+02  0.00000000000E+00 0.  1.
         11    1    4    4    0    0  0.81392801684E+01 -0.29095248421E+02 -0.43462209985E+02  0.52931512912E+02  0.00000000000E+00 0. -1.
        -13    1    3    3    0    0 -0.25824937566E+02 -0.17347787044E+02 -0.33740793911E+02  0.45894599784E+02  0.00000000000E+00 0.  1.
         13    1    3    3    0    0  0.60072816956E+02  0.25923798396E+00 -0.13344308882E+03  0.14634161573E+03  0.00000000000E+00 0. -1.
          1    1    1    2  501    0 -0.94986907935E+01  0.24614754799E+02  0.16046411588E+03  0.16261870669E+03  0.00000000000E+00 0. -1.
<scales pt_clust_5="13000.00000" pt_clust_6="13000.00000" pt_clust_7="13000.00000" pt_clust_8="13000.00000" pt_clust_9="26.38392"></scales>
<clustering>
<clus scale="   26.384">  1  9  2 -1</clus>
<clus scale="   81.904">  5  6 -1 -1</clus>
<clus scale="   86.830">  7  8 -1 -1</clus>
<clus scale="   88.226">  1  5  2 -1</clus>
<clus scale="   26.384">  1  5  2 -1</clus>
</clustering>
</event>
<event>
 9    1  0.3231311E-005  0.1097263E+03  0.7546771E-02  0.1261399E+00
         21   -1    0    0  501  502  0.00000000000E+00  0.00000000000E+00  0.32877481802E+03  0.32877481802E+03  0.00000000000E+00 0. -1.
          3   -1    0    0  502    0 -0.00000000000E+00 -0.00000000000E+00 -0.54337084605E+02  0.54337084605E+02  0.00000000000E+00 0. -1.
         23    2    1    2    0    0  0.85316631310E+01 -0.70947351615E+02  0.75794135325E+02  0.13810793896E+03  0.90679302356E+02 0.  0.
         23    2    1    2    0    0  0.28759601441E+01  0.48263355175E+02  0.10287566645E+03  0.14592725453E+03  0.91508132246E+02 0.  0.
        -11    1    3    3    0    0  0.29495772388E+02 -0.11954418847E+02  0.67920802362E+02  0.75007627027E+02  0.00000000000E+00 0.  1.
         11    1    3    3    0    0 -0.20964109257E+02 -0.58992932768E+02  0.78733329633E+01  0.63100311928E+02  0.00000000000E+00 0. -1.
        -11    1    4    4    0    0  0.46040071729E+02  0.17036525384E+02  0.60121721921E+02  0.77617993073E+02  0.00000000000E+00 0.  1.
         11    1    4    4    0    0 -0.43164111585E+02  0.31226829791E+02  0.42753944525E+02  0.68309261453E+02  0.00000000000E+00 0. -1.
          3    1    1    2  501    0 -0.11407623275E+02  0.22683996440E+02  0.95767931640E+02  0.99076709139E+02  0.00000000000E+00 0. -1.
<scales pt_clust_5="13000.00000" pt_clust_6="13000.00000" pt_clust_7="13000.00000" pt_clust_8="13000.00000" pt_clust_9="25.39090"></scales>
<clustering>
<clus scale="   25.391">  1  9  2 -1</clus>
<clus scale="   90.679">  5  6 -1 -1</clus>
<clus scale="   91.508">  7  8 -1 -1</clus>
<clus scale="  109.036">  2  5  1 -1</clus>
<clus scale="   25.391">  1  5  2 -1</clus>
</clustering>
</event>
<event>
 9    1  0.3231311E-005  0.1030685E+03  0.7546771E-02  0.1276531E+00
         21   -1    0    0  501  502  0.00000000000E+00  0.00000000000E+00  0.68103737383E+03  0.68103737383E+03  0.00000000000E+00 0.  1.
          3   -1    0    0  502    0 -0.00000000000E+00 -0.00000000000E+00 -0.68502877463E+02  0.68502877463E+02  0.00000000000E+00 0. -1.
         23    2    1    2    0    0 -0.31040896653E+02  0.38016587014E+02 -0.97883881194E+01  0.10286446242E+03  0.89869276923E+02 0.  0.
         23    2    1    2    0    0 -0.21044235047E+01  0.67693662298E+01  0.21110483413E+03  0.23170027297E+03  0.95233988594E+02 0.  0.
        -13    1    4    4    0    0 -0.17785400407E+02 -0.24204700911E+02  0.16996830723E+02  0.34512030778E+02  0.00000000000E+00 0. -1.
         13    1    4    4    0    0  0.15680976902E+02  0.30974067141E+02  0.19410800340E+03  0.19718824219E+03  0.00000000000E+00 0.  1.
        -13    1    3    3    0    0 -0.49395782512E+02  0.57223374857E+02 -0.41636505456E+01  0.75708612098E+02  0.00000000000E+00 0.  1.
         13    1    3    3    0    0  0.18354885859E+02 -0.19206787843E+02 -0.56247375738E+01  0.27155850326E+02  0.00000000000E+00 0. -1.
          3    1    1    2  501    0  0.33145320158E+02 -0.44785953244E+02  0.41121805036E+03  0.41497551590E+03  0.00000000000E+00 0. -1.
<scales pt_clust_5="13000.00000" pt_clust_6="13000.00000" pt_clust_7="13000.00000" pt_clust_8="13000.00000" pt_clust_9="55.71709"></scales>
<clustering>
<clus scale="   55.717">  1  9  2 -1</clus>
<clus scale="   89.869">  7  8 -1 -1</clus>
<clus scale="   95.234">  5  6 -1 -1</clus>
<clus scale="   98.133">  2  7  1 -1</clus>
<clus scale="   55.717">  1  5  2 -1</clus>
</clustering>
</event>
<event>
 9    1  0.3231311E-005  0.1268595E+03  0.7546771E-02  0.1232747E+00
         21   -1    0    0  501  502  0.00000000000E+00  0.00000000000E+00  0.50649598327E+02  0.50649598327E+02  0.00000000000E+00 0.  1.
         -3   -1    0    0    0  501 -0.00000000000E+00 -0.00000000000E+00 -0.44567725462E+03  0.44567725462E+03  0.00000000000E+00 0.  1.
         23    2    1    2    0    0 -0.56959958168E+02 -0.88299969184E+02 -0.19957090621E+03  0.24216304981E+03  0.88165042375E+02 0.  0.
         23    2    1    2    0    0  0.32938905617E+02  0.61614103376E+02 -0.98355195761E+02  0.15063671368E+03  0.90202027339E+02 0.  0.
        -11    1    3    3    0    0 -0.38893836889E+02 -0.72715007413E+02 -0.20199643935E+03  0.21818057741E+03  0.00000000000E+00 0.  1.
         11    1    3    3    0    0 -0.18066121279E+02 -0.15584961771E+02  0.24255331372E+01  0.23982472401E+02  0.00000000000E+00 0. -1.
        -13    1    4    4    0    0 -0.39020327313E+01  0.59824822841E+02 -0.18608931945E+02  0.62773622132E+02  0.00000000000E+00 0.  1.
         13    1    4    4    0    0  0.36840938349E+02  0.17892805343E+01 -0.79746263816E+02  0.87863091545E+02  0.00000000000E+00 0. -1.
         -3    1    1    2    0  502  0.24021052551E+02  0.26685865809E+02 -0.97101554328E+02  0.10352708946E+03  0.00000000000E+00 0.  1.
<scales pt_clust_5="13000.00000" pt_clust_6="13000.00000" pt_clust_7="13000.00000" pt_clust_8="13000.00000" pt_clust_9="35.90470"></scales>
<clustering>
<clus scale="   35.905">  1  9  2 -1</clus>
<clus scale="   88.165">  5  6 -1 -1</clus>
<clus scale="   90.202">  7  8 -1 -1</clus>
<clus scale="  125.419">  2  5  1 -1</clus>
<clus scale="   35.905">  1  5  2 -1</clus>
</clustering>
</event>
<event>
 9    1  0.3231311E-005  0.1739384E+03  0.7546771E-02  0.1185822E+00
         21   -1    0    0  501  502  0.00000000000E+00  0.00000000000E+00  0.42210287972E+03  0.42210287972E+03  0.00000000000E+00 0.  1.
         -4   -1    0    0    0  501 -0.00000000000E+00 -0.00000000000E+00 -0.14595349351E+03  0.14595349351E+03  0.00000000000E+00 0.  1.
         23    2    1    2    0    0  0.63529239246E+02 -0.73892594006E+02  0.13258994738E+03  0.18761714083E+03  0.90133332905E+02 0.  0.
         23    2    1    2    0    0  0.38028041545E+02  0.17177554513E+03  0.36487803302E+02  0.20335369222E+03  0.95228118242E+02 0.  0.
        -11    1    4    4    0    0  0.51685204020E+02  0.37529356701E+02  0.22373058552E+02  0.67678406290E+02  0.00000000000E+00 0. -1.
         11    1    4    4    0    0 -0.13657162476E+02  0.13424618843E+03  0.14114744750E+02  0.13567528593E+03  0.00000000000E+00 0.  1.
        -13    1    3    3    0    0 -0.23210889621E+02 -0.15960554073E+02  0.23494049119E+02  0.36680444754E+02  0.00000000000E+00 0. -1.
         13    1    3    3    0    0  0.86740128866E+02 -0.57932039932E+02  0.10909589826E+03  0.15093669608E+03  0.00000000000E+00 0.  1.
         -4    1    1    2    0  502 -0.10155728079E+03 -0.97882951120E+02  0.10707163553E+03  0.17708554017E+03  0.00000000000E+00 0.  1.
<scales pt_clust_5="13000.00000" pt_clust_6="13000.00000" pt_clust_7="13000.00000" pt_clust_8="13000.00000" pt_clust_9="145.55476"></scales>
<clustering>
<clus scale="   90.133">  7  8 -1 -1</clus>
<clus scale="   95.228">  5  6 -1 -1</clus>
<clus scale="  132.741">  2  7  1 -1</clus>
<clus scale="  145.555">  1  9  2 -1</clus>
<clus scale="  145.555">  1  5  2 -1</clus>
</clustering>
</event>
<event>
 9    1  0.3231311E-005  0.9514531E+02  0.7546771E-02  0.1295084E+00
         21   -1    0    0  501  502  0.00000000000E+00  0.00000000000E+00  0.34061522689E+03  0.34061522689E+03  0.00000000000E+00 0. -1.
         -4   -1    0    0    0  501 -0.00000000000E+00 -0.00000000000E+00 -0.47991665227E+02  0.47991665227E+02  0.00000000000E+00 0.  1.
         23    2    1    2    0    0  0.10379842014E+02  0.77604139394E+01  0.55463028933E+02  0.10813996282E+03  0.91924636720E+02 0.  0.
         23    2    1    2    0    0 -0.56244003634E+02  0.12892287008E+01  0.18001182649E+03  0.20663338693E+03  0.84427773055E+02 0.  0.
        -11    1    3    3    0    0  0.99545462629E+01 -0.39500997536E+02  0.43061695173E+02  0.59276735646E+02  0.00000000000E+00 0. -1.
         11    1    3    3    0    0  0.42529575079E+00  0.47261411475E+02  0.12401333760E+02  0.48863227177E+02  0.00000000000E+00 0.  1.
        -13    1    4    4    0    0  0.16241568873E+02  0.12444664267E+02  0.13034815672E+02  0.24260351354E+02  0.00000000000E+00 0.  1.
         13    1    4    4    0    0 -0.72485572507E+02 -0.11155435566E+02  0.16697701082E+03  0.18237303558E+03  0.00000000000E+00 0. -1.
         -4    1    1    2    0  502  0.45864161620E+02 -0.90496426403E+01  0.57148706247E+02  0.73833542369E+02  0.00000000000E+00 0.  1.
<scales pt_clust_5="13000.00000" pt_clust_6="13000.00000" pt_clust_7="13000.00000" pt_clust_8="13000.00000" pt_clust_9="46.74845"></scales>
<clustering>
<clus scale="   46.748">  1  9  2 -1</clus>
<clus scale="   84.428">  7  8 -1 -1</clus>
<clus scale="   87.923">  1  7  2 -1</clus>
<clus scale="   91.925">  5  6 -1 -1</clus>
<clus scale="   46.748">  1  5  2 -1</clus>
</clustering>
</event>
<event>
 9    1  0.3231311E-005  0.3321731E+03  0.7546771E-02  0.1070206E+00
         21   -1    0    0  501  502  0.00000000000E+00  0.00000000000E+00  0.74177021949E+03  0.74177021949E+03  0.00000000000E+00 0.  1.
         -3   -1    0    0    0  501 -0.00000000000E+00 -0.00000000000E+00 -0.15331906302E+04  0.15331906302E+04  0.00000000000E+00 0.  1.
         23    2    1    2    0    0  0.30217050031E+03  0.13766526840E+03 -0.14334205412E+04  0.14741291267E+04  0.90019425162E+02 0.  0.
         23    2    1    2    0    0 -0.17268567460E+03 -0.11907601413E+03  0.11132567674E+03  0.25427225112E+03  0.90892970220E+02 0.  0.
        -11    1    3    3    0    0  0.13427415704E+03  0.97713780949E+02 -0.83326580486E+03  0.84965253709E+03  0.00000000000E+00 0.  1.
         11    1    3    3    0    0  0.16789634327E+03  0.39951487447E+02 -0.60015473632E+03  0.62447658960E+03  0.00000000000E+00 0. -1.
        -13    1    4    4    0    0 -0.75493178135E+02 -0.44353669062E+01  0.19324315765E+02  0.78053325389E+02  0.00000000000E+00 0.  1.
         13    1    4    4    0    0 -0.97192496468E+02 -0.11464064722E+03  0.92001360977E+02  0.17621892573E+03  0.00000000000E+00 0. -1.
         -3    1    1    2    0  502 -0.12948482571E+03 -0.18589254268E+02  0.53067445372E+03  0.54655947187E+03  0.00000000000E+00 0.  1.
<scales pt_clust_5="13000.00000" pt_clust_6="13000.00000" pt_clust_7="13000.00000" pt_clust_8="13000.00000" pt_clust_9="130.81239"></scales>
<clustering>
<clus scale="   90.019">  5  6 -1 -1</clus>
<clus scale="   90.893">  7  8 -1 -1</clus>
<clus scale="  130.812">  1  9  2 -1</clus>
<clus scale="  331.935">  2  5  1 -1</clus>
<clus scale="  130.812">  1  5  2 -1</clus>
</clustering>
</event>
<event>
 9    1  0.3231311E-005  0.9855468E+02  0.7546771E-02  0.1290309E+00
          3   -1    0    0  502    0 -0.00000000000E+00  0.00000000000E+00  0.30549778997E+03  0.30549778997E+03  0.00000000000E+00 0. -1.
         21   -1    0    0  501  502  0.00000000000E+00 -0.00000000000E+00 -0.59413493250E+02  0.59413493250E+02  0.00000000000E+00 0. -1.
         23    2    1    2    0    0  0.55943389351E+02  0.18012184039E+02  0.15197786122E+03  0.18027503425E+03  0.77121437276E+02 0.  0.
         23    2    1    2    0    0 -0.13708084841E+02 -0.70466697723E+01  0.10521686084E+03  0.13960842422E+03  0.90456382653E+02 0.  0.
        -11    1    4    4    0    0  0.21339447368E+01 -0.47885595007E+02  0.56538343587E+02  0.74122656624E+02  0.00000000000E+00 0. -1.
         11    1    4    4    0    0 -0.15842029578E+02  0.40838925235E+02  0.48678517252E+02  0.65485767594E+02  0.00000000000E+00 0.  1.
        -13    1    3    3    0    0  0.77402822768E+01  0.32297086047E+02  0.10960112694E+03  0.11452257753E+03  0.00000000000E+00 0.  1.
         13    1    3    3    0    0  0.48203107075E+02 -0.14284902008E+02  0.42376734276E+02  0.65752456721E+02  0.00000000000E+00 0. -1.
          3    1    1    2  501    0 -0.42235304511E+02 -0.10965514266E+02 -0.11110425343E+02  0.45027824748E+02  0.00000000000E+00 0. -1.
<scales pt_clust_5="13000.00000" pt_clust_6="13000.00000" pt_clust_7="13000.00000" pt_clust_8="13000.00000" pt_clust_9="43.63558"></scales>
<clustering>
<clus scale="   43.636">  2  9  1 -1</clus>
<clus scale="   77.121">  7  8 -1 -1</clus>
<clus scale="   86.478">  1  7  2 -1</clus>
<clus scale="   90.456">  5  6 -1 -1</clus>
<clus scale="   43.636">  2  5  1 -1</clus>
</clustering>
</event>
<event>
 9    1  0.3231311E-005  0.1162925E+03  0.7546771E-02  0.1249480E+00
          1   -1    0    0  502    0 -0.00000000000E+00  0.00000000000E+00  0.88638083159E+03  0.88638083159E+03  0.00000000000E+00 0. -1.
         21   -1    0    0  501  502  0.00000000000E+00 -0.00000000000E+00 -0.46420775898E+02  0.46420775898E+02  0.00000000000E+00 0.  1.
         23    2    1    2    0    0 -0.59563788019E+02 -0.12798330561E+02  0.38698713661E+03  0.40223421432E+03  0.91223227067E+02 0.  0.
         23    2    1    2    0    0  0.83070709089E+02  0.34809086441E+01  0.47873697655E+03  0.49446785929E+03  0.91632481798E+02 0.  0.
        -11    1    3    3    0    0 -0.29643416826E+02 -0.45750783281E+02  0.12325585414E+03  0.13477340951E+03  0.00000000000E+00 0.  1.
         11    1    3    3    0    0 -0.29920371193E+02  0.32952452720E+02  0.26373128248E+03  0.26746080481E+03  0.00000000000E+00 0. -1.
        -11    1    4    4    0    0  0.59797246445E+02  0.45875878822E+02  0.29198966098E+03  0.30155972719E+03  0.00000000000E+00 0. -1.
         11    1    4    4    0    0  0.23273462644E+02 -0.42394970177E+02  0.18674731556E+03  0.19290813210E+03  0.00000000000E+00 0.  1.
          1    1    1    2  501    0 -0.23506921069E+02  0.93174219171E+01 -0.25764057468E+02  0.36099533883E+02  0.00000000000E+00 0. -1.
<scales pt_clust_5="13000.00000" pt_clust_6="13000.00000" pt_clust_7="13000.00000" pt_clust_8="13000.00000" pt_clust_9="25.28616"></scales>
<clustering>
<clus scale="   25.286">  2  9  1 -1</clus>
<clus scale="   91.223">  5  6 -1 -1</clus>
<clus scale="   91.632">  7  8 -1 -1</clus>
<clus scale="  115.970">  1  5  2 -1</clus>
<clus scale="   25.286">  2  5  1 -1</clus>
</clustering>
</event>
<event>
 9    1  0.3231311E-005  0.1477324E+03  0.7546771E-02  0.1205099E+00
         21   -1    0    0  501  502  0.00000000000E+00  0.00000000000E+00  0.15170752746E+03  0.15170752746E+03  0.00000000000E+00 0. -1.
          1   -1    0    0  502    0 -0.00000000000E+00 -0.00000000000E+00 -0.66125705204E+03  0.66125705204E+03  0.00000000000E+00 0. -1.
         23    2    1    2    0    0 -0.88151585208E+02  0.55102814937E+02 -0.34864082782E+03  0.37710714588E+03  0.99259006964E+02 0.  0.
         23    2    1    2    0    0  0.88227560040E+02 -0.77335066800E+02 -0.27886675912E+03  0.31582250840E+03  0.90622141689E+02 0.  0.
        -11    1    4    4    0    0  0.69544163051E+02 -0.30397693354E+02 -0.78523336328E+02  0.10920771366E+03  0.00000000000E+00 0.  1.
         11    1    4    4    0    0  0.18683396990E+02 -0.46937373446E+02 -0.20034342279E+03  0.20661479474E+03  0.00000000000E+00 0. -1.
        -13    1    3    3    0    0 -0.71974760800E+02  0.82062458215E+02 -0.23354476836E+03  0.25779404972E+03  0.00000000000E+00 0.  1.
         13    1    3    3    0    0 -0.16176824409E+02 -0.26959643277E+02 -0.11509605946E+03  0.11931309617E+03  0.00000000000E+00 0. -1.
          1    1    1    2  501    0 -0.75974832046E-01  0.22232251862E+02  0.11795806236E+03  0.12003492521E+03  0.00000000000E+00 0. -1.
<scales pt_clust_5="13000.00000" pt_clust_6="13000.00000" pt_clust_7="13000.00000" pt_clust_8="13000.00000" pt_clust_9="22.23238"></scales>
<clustering>
<clus scale="   22.232">  1  9  2 -1</clus>
<clus scale="   90.622">  5  6 -1 -1</clus>
<clus scale="   99.259">  7  8 -1 -1</clus>
<clus scale="  142.074">  1  5  2 -1</clus>
<clus scale="   22.232">  1  5  2 -1</clus>
</clustering>
</event>
<event>
 9    1  0.3231311E-005  0.1079841E+03  0.7546771E-02  0.1265583E+00
         21   -1    0    0  501  502  0.00000000000E+00  0.00000000000E+00  0.49284733397E+02  0.49284733397E+02  0.00000000000E+00 0.  1.
          1   -1    0    0  502    0 -0.00000000000E+00 -0.00000000000E+00 -0.31281552366E+03  0.31281552366E+03  0.00000000000E+00 0. -1.
         23    2    1    2    0    0 -0.25796943029E+02  0.56637921602E+02 -0.14501959189E+03  0.18117292152E+03  0.88992185209E+02 0.  0.
         23    2    1    2    0    0 -0.41942916168E+01 -0.52982144230E+02 -0.96553759511E+02  0.14357806533E+03  0.92018110597E+02 0.  0.
        -11    1    3    3    0    0  0.65744222794E+01  0.64203873010E+02 -0.53593815177E+02  0.83890746587E+02  0.00000000000E+00 0.  1.
         11    1    3    3    0    0 -0.32371365308E+02 -0.75659514085E+01 -0.91425776713E+02  0.97282174935E+02  0.00000000000E+00 0. -1.
        -13    1    4    4    0    0  0.32289425747E+02 -0.14810101355E+02 -0.23705758443E+01  0.35602889589E+02  0.00000000000E+00 0.  1.
         13    1    4    4    0    0 -0.36483717364E+02 -0.38172042875E+02 -0.94183183667E+02  0.10797517574E+03  0.00000000000E+00 0. -1.
          1    1    1    2  501    0  0.29991234646E+02 -0.36557773717E+01 -0.21957438866E+02  0.37349270211E+02  0.00000000000E+00 0. -1.
<scales pt_clust_5="13000.00000" pt_clust_6="13000.00000" pt_clust_7="13000.00000" pt_clust_8="13000.00000" pt_clust_9="30.21322"></scales>
<clustering>
<clus scale="   30.213">  1  9  2 -1</clus>
<clus scale="   88.992">  5  6 -1 -1</clus>
<clus scale="   92.018">  7  8 -1 -1</clus>
<clus scale="  105.417">  2  5  1 -1</clus>
<clus scale="   30.213">  1  5  2 -1</clus>
</clustering>
</event>
<event>
 9    1  0.3231311E-005  0.1829692E+03  0.7546771E-02  0.1165420E+00
         21   -1    0    0  501  502  0.00000000000E+00  0.00000000000E+00  0.10688885896E+03  0.10688885896E+03  0.00000000000E+00 0.  1.
          2   -1    0    0  502    0 -0.00000000000E+00 -0.00000000000E+00 -0.40288055638E+03  0.40288055638E+03  0.00000000000E+00 0. -1.
         23    2    1    2    0    0 -0.80760054841E+02 -0.12947712489E+03 -0.17168358636E+03  0.24716886534E+03  0.91272568942E+02 0.  0.
         23    2    1    2    0    0  0.63256617654E+02  0.15534298801E+03 -0.13177438746E+03  0.23048889368E+03  0.87337261898E+02 0.  0.
        -11    1    3    3    0    0 -0.20061078793E+02 -0.19505277158E+01 -0.70775014259E+02  0.73589089436E+02  0.00000000000E+00 0.  1.
         11    1    3    3    0    0 -0.60698976048E+02 -0.12752659717E+03 -0.10090857210E+03  0.17357977590E+03  0.00000000000E+00 0. -1.
        -13    1    4    4    0    0  0.83755830744E+02  0.13331646663E+03 -0.98927914973E+02  0.18594367916E+03  0.00000000000E+00 0.  1.
         13    1    4    4    0    0 -0.20499213090E+02  0.22026521387E+02 -0.32846472492E+02  0.44545214523E+02  0.00000000000E+00 0. -1.
          2    1    1    2  501    0  0.17503437187E+02 -0.25865863126E+02  0.74662764023E+01  0.32111656325E+02  0.00000000000E+00 0. -1.
<scales pt_clust_5="13000.00000" pt_clust_6="13000.00000" pt_clust_7="13000.00000" pt_clust_8="13000.00000" pt_clust_9="31.23161"></scales>
<clustering>
<clus scale="   31.232">  1  9  2 -1</clus>
<clus scale="   87.337">  7  8 -1 -1</clus>
<clus scale="   91.273">  5  6 -1 -1</clus>
<clus scale="  181.038">  1  7  2 -1</clus>
<clus scale="   31.232">  1  5  2 -1</clus>
</clustering>
</event>
<event>
 9    1  0.3231311E-005  0.3855892E+03  0.7546771E-02  0.1048954E+00
         21   -1    0    0  501  502  0.00000000000E+00  0.00000000000E+00  0.14965640645E+03  0.14965640645E+03  0.00000000000E+00 0.  1.
          2   -1    0    0  502    0 -0.00000000000E+00 -0.00000000000E+00 -0.29986369190E+04  0.29986369190E+04  0.00000000000E+00 0. -1.
         23    2    1    2    0    0  0.14509638311E+03  0.33491169912E+03 -0.17118564173E+04  0.17529072347E+04  0.94934574886E+02 0.  0.
         23    2    1    2    0    0 -0.14388367106E+03 -0.35938307645E+03 -0.12334290032E+04  0.12960132862E+04  0.91894644197E+02 0.  0.
        -11    1    3    3    0    0  0.45187495141E+02  0.28295248051E+02 -0.19555496315E+03  0.20269256126E+03  0.00000000000E+00 0. -1.
         11    1    3    3    0    0  0.99908887972E+02  0.30661645107E+03 -0.15163014542E+04  0.15502146735E+04  0.00000000000E+00 0.  1.
        -13    1    4    4    0    0 -0.75852950886E+02 -0.85080479902E+02 -0.40315138691E+03  0.41895512765E+03  0.00000000000E+00 0.  1.
         13    1    4    4    0    0 -0.68030720171E+02 -0.27430259655E+03 -0.83027761625E+03  0.87705815851E+03  0.00000000000E+00 0. -1.
          2    1    1    2  501    0 -0.12127120573E+01  0.24471377331E+02  0.96304907960E+02  0.99372804510E+02  0.00000000000E+00 0. -1.
<scales pt_clust_5="13000.00000" pt_clust_6="13000.00000" pt_clust_7="13000.00000" pt_clust_8="13000.00000" pt_clust_9="24.50141"></scales>
<clustering>
<clus scale="   24.501">  1  9  2 -1</clus>
<clus scale="   91.895">  7  8 -1 -1</clus>
<clus scale="   94.935">  5  6 -1 -1</clus>
<clus scale="  384.852">  1  7  2 -1</clus>
<clus scale="   24.501">  1  5  2 -1</clus>
</clustering>
</event>
<event>
 9    1  0.3231311E-005  0.1204857E+03  0.7546771E-02  0.1255281E+00
         21   -1    0    0  501  502  0.00000000000E+00  0.00000000000E+00  0.29341037231E+03  0.29341037231E+03  0.00000000000E+00 0. -1.
         -3   -1    0    0    0  501 -0.00000000000E+00 -0.00000000000E+00 -0.89163448993E+02  0.89163448993E+02  0.00000000000E+00 0.  1.
         23    2    1    2    0    0  0.86697857730E+01  0.27155322007E+02  0.10211341886E+02  0.12247906045E+03  0.11867717576E+03 0.  0.
         23    2    1    2    0    0  0.11387928874E+02 -0.14348588457E+02  0.34225827003E+02  0.98522851316E+02  0.90552626040E+02 0.  0.
        -11    1    3    3    0    0 -0.35093453879E+02  0.48975620008E+02 -0.21753199968E+02  0.64057502052E+02  0.00000000000E+00 0.  1.
         11    1    3    3    0    0  0.43763239652E+02 -0.21820298001E+02  0.31964541854E+02  0.58421558398E+02  0.00000000000E+00 0. -1.
        -13    1    4    4    0    0  0.85230867499E+01  0.36148727877E+02 -0.54747944566E+00  0.37143953325E+02  0.00000000000E+00 0.  1.
         13    1    4    4    0    0  0.28648421238E+01 -0.50497316333E+02  0.34773306448E+02  0.61378897991E+02  0.00000000000E+00 0. -1.
         -3    1    1    2    0  502 -0.20057714647E+02 -0.12806733550E+02  0.15980975443E+03  0.16157190954E+03  0.00000000000E+00 0.  1.
<scales pt_clust_5="13000.00000" pt_clust_6="13000.00000" pt_clust_7="13000.00000" pt_clust_8="13000.00000" pt_clust_9="23.79757"></scales>
<clustering>
<clus scale="   23.798">  1  9  2 -1</clus>
<clus scale="   90.553">  7  8 -1 -1</clus>
<clus scale="   92.910">  1  7  2 -1</clus>
<clus scale="  118.677">  5  6 -1 -1</clus>
<clus scale="   23.798">  1  5  2 -1</clus>
</clustering>
</event>
<event>
 9    1  0.3231311E-005  0.9602988E+02  0.7546771E-02  0.1290107E+00
         21   -1    0    0  501  502  0.00000000000E+00  0.00000000000E+00  0.76433664445E+02  0.76433664445E+02  0.00000000000E+00 0.  1.
          1   -1    0    0  502    0 -0.00000000000E+00 -0.00000000000E+00 -0.21871831344E+03  0.21871831344E+03  0.00000000000E+00 0. -1.
         23    2    1    2    0    0  0.22126989642E+02  0.14186414338E+02 -0.14177234721E+03  0.17206122663E+03  0.93887215603E+02 0.  0.
         23    2    1    2    0    0 -0.43107920648E+01  0.84449225664E+01  0.94530449986E+01  0.92612850364E+02  0.91639949516E+02 0.  0.
        -11    1    4    4    0    0  0.14779327723E+02  0.45545347276E+02 -0.57028829523E+01  0.48221676250E+02  0.00000000000E+00 0. -1.
         11    1    4    4    0    0 -0.19090119788E+02 -0.37100424709E+02  0.15155927951E+02  0.44391174114E+02  0.00000000000E+00 0.  1.
        -11    1    3    3    0    0 -0.41722794682E+01  0.34019495144E+02 -0.92416732115E+01  0.35498485736E+02  0.00000000000E+00 0. -1.
         11    1    3    3    0    0  0.26299269110E+02 -0.19833080806E+02 -0.13253067400E+03  0.13656274090E+03  0.00000000000E+00 0.  1.
          1    1    1    2  501    0 -0.17816197577E+02 -0.22631336904E+02 -0.99653467807E+01  0.30477900890E+02  0.00000000000E+00 0. -1.
<scales pt_clust_5="13000.00000" pt_clust_6="13000.00000" pt_clust_7="13000.00000" pt_clust_8="13000.00000" pt_clust_9="28.80268"></scales>
<clustering>
<clus scale="   28.803">  1  9  2 -1</clus>
<clus scale="   91.640">  5  6 -1 -1</clus>
<clus scale="   93.834">  1  5  2 -1</clus>
<clus scale="   93.887">  7  8 -1 -1</clus>
<clus scale="   28.803">  1  5  2 -1</clus>
</clustering>
</event>
<event>
 9    1  0.3231311E-005  0.3405401E+03  0.7546771E-02  0.1102275E+00
         21   -1    0    0  501  502  0.00000000000E+00  0.00000000000E+00  0.39706974416E+03  0.39706974416E+03  0.00000000000E+00 0. -1.
          2   -1    0    0  502    0 -0.00000000000E+00 -0.00000000000E+00 -0.10765144516E+04  0.10765144516E+04  0.00000000000E+00 0. -1.
         23    2    1    2    0    0 -0.89078344724E+02 -0.31381590089E+02 -0.52879887062E+03  0.54482017187E+03  0.91000101155E+02 0.  0.
         23    2    1    2    0    0  0.10130969013E+03 -0.31060432087E+03  0.23500639136E+03  0.41317541832E+03  0.93526599781E+02 0.  0.
        -13    1    4    4    0    0  0.69013350780E+02 -0.81816321242E+02  0.94277601280E+02  0.14263596710E+03  0.00000000000E+00 0.  1.
         13    1    4    4    0    0  0.32296339350E+02 -0.22878799962E+03  0.14072879008E+03  0.27053945122E+03  0.00000000000E+00 0. -1.
        -13    1    3    3    0    0 -0.24995838324E+02  0.27775509913E+02 -0.90184848383E+02  0.97619556249E+02  0.00000000000E+00 0.  1.
         13    1    3    3    0    0 -0.64082506399E+02 -0.59157100001E+02 -0.43861402224E+03  0.44720061562E+03  0.00000000000E+00 0. -1.
          2    1    1    2  501    0 -0.12231345406E+02  0.34198591096E+03 -0.38565222821E+03  0.51558860560E+03  0.00000000000E+00 0. -1.
<scales pt_clust_5="13000.00000" pt_clust_6="13000.00000" pt_clust_7="13000.00000" pt_clust_8="13000.00000" pt_clust_9="327.44530"></scales>
<clustering>
<clus scale="   91.000">  7  8 -1 -1</clus>
<clus scale="   93.527">  5  6 -1 -1</clus>
<clus scale="  131.152">  2  7  1 -1</clus>
<clus scale="  327.445">  1  9  2 -1</clus>
<clus scale="  327.445">  1  5  2 -1</clus>
</clustering>
</event>
<event>
 9    1  0.3231311E-005  0.1326527E+03  0.7546771E-02  0.1224521E+00
         21   -1    0    0  501  502  0.00000000000E+00  0.00000000000E+00  0.34854385717E+03  0.34854385717E+03  0.00000000000E+00 0. -1.
         -3   -1    0    0    0  501 -0.00000000000E+00 -0.00000000000E+00 -0.82783188093E+02  0.82783188093E+02  0.00000000000E+00 0.  1.
         23    2    1    2    0    0  0.97506232855E+02  0.16313491181E+02  0.29477894078E+02  0.13683593693E+03  0.89897341213E+02 0.  0.
         23    2    1    2    0    0 -0.72726341380E+02 -0.53255446039E+02  0.15937990124E+03  0.20564965943E+03  0.93619262125E+02 0.  0.
        -11    1    4    4    0    0 -0.26497810210E+02 -0.73845537055E+02  0.10843872108E+03  0.13384413890E+03  0.00000000000E+00 0. -1.
         11    1    4    4    0    0 -0.46228531171E+02  0.20590091015E+02  0.50941180159E+02  0.71805520527E+02  0.00000000000E+00 0.  1.
        -13    1    3    3    0    0  0.60732817709E+01  0.22560460362E+02 -0.21684490035E+02  0.31875950672E+02  0.00000000000E+00 0. -1.
         13    1    3    3    0    0  0.91432951084E+02 -0.62469691809E+01  0.51162384112E+02  0.10495998626E+03  0.00000000000E+00 0.  1.
         -3    1    1    2    0  502 -0.24779891475E+02  0.36941954859E+02  0.76902873759E+02  0.88841448900E+02  0.00000000000E+00 0.  1.
<scales pt_clust_5="13000.00000" pt_clust_6="13000.00000" pt_clust_7="13000.00000" pt_clust_8="13000.00000" pt_clust_9="44.48315"></scales>
<clustering>
<clus scale="   44.483">  1  9  2 -1</clus>
<clus scale="   89.897">  7  8 -1 -1</clus>
<clus scale="   93.619">  5  6 -1 -1</clus>
<clus scale="  130.053">  2  7  1 -1</clus>
<clus scale="   44.483">  1  5  2 -1</clus>
</clustering>
</event>
<event>
 9    1  0.3231311E-005  0.1257605E+03  0.7546771E-02  0.1234428E+00
         21   -1    0    0  501  502  0.00000000000E+00  0.00000000000E+00  0.83064536459E+02  0.83064536459E+02  0.00000000000E+00 0.  1.
          2   -1    0    0  502    0 -0.00000000000E+00 -0.00000000000E+00 -0.55291009656E+03  0.55291009656E+03  0.00000000000E+00 0. -1.
         23    2    1    2    0    0  0.73612708340E+01 -0.81125213230E+02 -0.40485452637E+03  0.42295798730E+03  0.91382618510E+02 0.  0.
         23    2    1    2    0    0 -0.22077589739E+02  0.10439690063E+03 -0.97819840342E+02  0.17016956857E+03  0.89458527108E+02 0.  0.
        -13    1    3    3    0    0 -0.24066535240E+02 -0.81526867160E+02 -0.22796656864E+03  0.24329937239E+03  0.00000000000E+00 0.  1.
         13    1    3    3    0    0  0.31427806074E+02  0.40165393051E+00 -0.17688795774E+03  0.17965861491E+03  0.00000000000E+00 0. -1.
        -13    1    4    4    0    0 -0.16169458726E+02 -0.12219988566E+02 -0.26437781621E+02  0.33312697476E+02  0.00000000000E+00 0.  1.
         13    1    4    4    0    0 -0.59081310132E+01  0.11661688920E+03 -0.71382058721E+02  0.13685687109E+03  0.00000000000E+00 0. -1.
          2    1    1    2  501    0  0.14716318905E+02 -0.23271687404E+02  0.32828806612E+02  0.42847077150E+02  0.00000000000E+00 0. -1.
<scales pt_clust_5="13000.00000" pt_clust_6="13000.00000" pt_clust_7="13000.00000" pt_clust_8="13000.00000" pt_clust_9="27.53437"></scales>
<clustering>
<clus scale="   27.534">  1  9  2 -1</clus>
<clus scale="   89.459">  7  8 -1 -1</clus>
<clus scale="   91.383">  5  6 -1 -1</clus>
<clus scale="  124.369">  1  7  2 -1</clus>
<clus scale="   27.534">  1  5  2 -1</clus>
</clustering>
</event>
<event>
 9    1  0.3231311E-005  0.1446931E+03  0.7546771E-02  0.1221875E+00
          1   -1    0    0  502    0 -0.00000000000E+00  0.00000000000E+00  0.27177313839E+03  0.27177313839E+03  0.00000000000E+00 0. -1.
         21   -1    0    0  501  502  0.00000000000E+00 -0.00000000000E+00 -0.15525806646E+03  0.15525806646E+03  0.00000000000E+00 0. -1.
         23    2    1    2    0    0  0.35215801577E+02  0.39566393840E+02  0.81437206778E-01  0.10590695946E+03  0.91709460947E+02 0.  0.
         23    2    1    2    0    0 -0.98614276851E+02  0.57354794486E+02  0.14134127466E+03  0.20266128096E+03  0.89888212964E+02 0.  0.
        -11    1    4    4    0    0 -0.10720850099E+03  0.24807422814E+02  0.94947290160E+02  0.14534118074E+03  0.00000000000E+00 0. -1.
         11    1    4    4    0    0  0.85942241408E+01  0.32547371672E+02  0.46393984500E+02  0.57320100219E+02  0.00000000000E+00 0.  1.
        -13    1    3    3    0    0  0.29003552812E+02 -0.26278780117E+02 -0.55524263878E+01  0.39529859587E+02  0.00000000000E+00 0.  1.
         13    1    3    3    0    0  0.62122487649E+01  0.65845173957E+02  0.56338635946E+01  0.66377099870E+02  0.00000000000E+00 0. -1.
          1    1    1    2  501    0  0.63398475274E+02 -0.96921188325E+02 -0.24907639937E+02  0.11846296443E+03  0.00000000000E+00 0. -1.
<scales pt_clust_5="13000.00000" pt_clust_6="13000.00000" pt_clust_7="13000.00000" pt_clust_8="13000.00000" pt_clust_9="113.38522"></scales>
<clustering>
<clus scale="   89.888">  5  6 -1 -1</clus>
<clus scale="   91.709">  7  8 -1 -1</clus>
<clus scale="  105.907">  1  7  2 -1</clus>
<clus scale="  113.385">  2  9  1 -1</clus>
<clus scale="  113.385">  2  5  1 -1</clus>
</clustering>
</event>
<event>
 9    1  0.3231311E-005  0.1045553E+03  0.7546771E-02  0.1271532E+00
          4   -1    0    0  502    0 -0.00000000000E+00  0.00000000000E+00  0.50561686118E+02  0.50561686118E+02  0.00000000000E+00 0. -1.
         21   -1    0    0  501  502  0.00000000000E+00 -0.00000000000E+00 -0.30199734755E+03  0.30199734755E+03  0.00000000000E+00 0.  1.
         23    2    1    2    0    0 -0.34405824103E+02 -0.28585503305E+02 -0.53239012275E+02  0.11495085592E+03  0.91533682960E+02 0.  0.
         23    2    1    2    0    0  0.54430392738E+02  0.33097415141E+02 -0.16843028069E+03  0.20145050375E+03  0.90307471819E+02 0.  0.
        -13    1    3    3    0    0  0.23857561962E+02 -0.75195753003E+01 -0.46278444211E+02  0.52606289301E+02  0.00000000000E+00 0.  1.
         13    1    3    3    0    0 -0.58263386066E+02 -0.21065928004E+02 -0.69605680640E+01  0.62344566614E+02  0.00000000000E+00 0. -1.
        -13    1    4    4    0    0  0.18698844038E+02  0.27951641100E+02 -0.16115251667E+03  0.16462404028E+03  0.00000000000E+00 0.  1.
         13    1    4    4    0    0  0.35731548700E+02  0.51457740414E+01 -0.72777640215E+01  0.36826463475E+02  0.00000000000E+00 0. -1.
          4    1    1    2  501    0 -0.20024568635E+02 -0.45119118368E+01 -0.29766368470E+02  0.36157674003E+02  0.00000000000E+00 0. -1.
<scales pt_clust_5="13000.00000" pt_clust_6="13000.00000" pt_clust_7="13000.00000" pt_clust_8="13000.00000" pt_clust_9="20.52659"></scales>
<clustering>
<clus scale="   20.527">  2  9  1 -1</clus>
<clus scale="   90.307">  7  8 -1 -1</clus>
<clus scale="   91.534">  5  6 -1 -1</clus>
<clus scale="  103.484">  2  7  1 -1</clus>
<clus scale="   20.527">  2  5  1 -1</clus>
</clustering>
</event>
<event>
 9    1  0.3231311E-005  0.1076556E+03  0.7546771E-02  0.1276524E+00
         21   -1    0    0  501  502  0.00000000000E+00  0.00000000000E+00  0.13041492340E+03  0.13041492340E+03  0.00000000000E+00 0. -1.
         -1   -1    0    0    0  501 -0.00000000000E+00 -0.00000000000E+00 -0.23738822580E+03  0.23738822580E+03  0.00000000000E+00 0.  1.
         23    2    1    2    0    0 -0.15578454876E+02  0.46152086528E+02 -0.19441188589E+03  0.22236332641E+03  0.96315960312E+02 0.  0.
         23    2    1    2    0    0  0.37921742916E+02 -0.33281803943E+02  0.52492839269E+02  0.10201089541E+03  0.71449195572E+02 0.  0.
        -11    1    4    4    0    0  0.63634868649E+01 -0.43176594561E+02  0.53349571999E+02  0.68926693780E+02  0.00000000000E+00 0. -1.
         11    1    4    4    0    0  0.31558256051E+02  0.98947906177E+01 -0.85673273047E+00  0.33084201628E+02  0.00000000000E+00 0.  1.
        -13    1    3    3    0    0  0.38563176521E+02  0.25638503825E+02 -0.58331749428E+02  0.74478483156E+02  0.00000000000E+00 0.  1.
         13    1    3    3    0    0 -0.54141631398E+02  0.20513582703E+02 -0.13608013646E+03  0.14788484326E+03  0.00000000000E+00 0. -1.
         -1    1    1    2    0  502 -0.22343288040E+02 -0.12870282584E+02  0.34945744218E+02  0.43428927377E+02  0.00000000000E+00 0.  1.
<scales pt_clust_5="13000.00000" pt_clust_6="13000.00000" pt_clust_7="13000.00000" pt_clust_8="13000.00000" pt_clust_9="25.78501"></scales>
<clustering>
<clus scale="   25.785">  1  9  2 -1</clus>
<clus scale="   71.449">  5  6 -1 -1</clus>
<clus scale="   86.128">  1  5  2 -1</clus>
<clus scale="   96.316">  7  8 -1 -1</clus>
<clus scale="   25.785">  1  5  2 -1</clus>
</clustering>
</event>
<event>
 9    1  0.3231311E-005  0.1038468E+03  0.7546771E-02  0.1274079E+00
         21   -1    0    0  501  502  0.00000000000E+00  0.00000000000E+00  0.18631576938E+03  0.18631576938E+03  0.00000000000E+00 0. -1.
          2   -1    0    0  502    0 -0.00000000000E+00 -0.00000000000E+00 -0.51721637201E+03  0.51721637201E+03  0.00000000000E+00 0. -1.
         23    2    1    2    0    0 -0.92385028063E+01 -0.40924843626E+02 -0.39366363919E+03  0.40672066333E+03  0.93222553086E+02 0.  0.
         23    2    1    2    0    0 -0.55917074568E+01  0.62775473575E+02 -0.90024287429E+02  0.14175874013E+03  0.89549655510E+02 0.  0.
        -11    1    3    3    0    0  0.11004304024E+01 -0.69286224104E+02 -0.22684912984E+03  0.23719679489E+03  0.00000000000E+00 0. -1.
         11    1    3    3    0    0 -0.10338933209E+02  0.28361380478E+02 -0.16681450935E+03  0.16952386844E+03  0.00000000000E+00 0.  1.
        -13    1    4    4    0    0 -0.20409711931E+02  0.18225638621E+02 -0.90768563586E+02  0.94803282537E+02  0.00000000000E+00 0. -1.
         13    1    4    4    0    0  0.14818004475E+02  0.44549834954E+02  0.74427615736E+00  0.46955457595E+02  0.00000000000E+00 0.  1.
          2    1    1    2  501    0  0.14830210263E+02 -0.21850629949E+02  0.15278732398E+03  0.15505273792E+03  0.00000000000E+00 0. -1.
<scales pt_clust_5="13000.00000" pt_clust_6="13000.00000" pt_clust_7="13000.00000" pt_clust_8="13000.00000" pt_clust_9="26.40805"></scales>
<clustering>
<clus scale="   26.408">  1  9  2 -1</clus>
<clus scale="   89.550">  7  8 -1 -1</clus>
<clus scale="   93.223">  5  6 -1 -1</clus>
<clus scale="  100.563">  1  7  2 -1</clus>
<clus scale="   26.408">  1  5  2 -1</clus>
</clustering>
</event>
<event>
 9    1  0.3231311E-005  0.1117092E+03  0.7546771E-02  0.1257483E+00
         21   -1    0    0  501  502  0.00000000000E+00  0.00000000000E+00  0.21798609694E+03  0.21798609694E+03  0.00000000000E+00 0.  1.
          1   -1    0    0  502    0 -0.00000000000E+00 -0.00000000000E+00 -0.80144188726E+02  0.80144188726E+02  0.00000000000E+00 0. -1.
         23    2    1    2    0    0 -0.57070916344E+02 -0.61146246281E+01  0.51801269633E+02  0.11908335620E+03  0.90570392849E+02 0.  0.
         23    2    1    2    0    0  0.70898869272E+02  0.34024101551E+02  0.86649325472E+02  0.14789373246E+03  0.90444244405E+02 0.  0.
        -11    1    4    4    0    0  0.15337663579E+02  0.44601099807E+02  0.77320998959E+02  0.90570629390E+02  0.00000000000E+00 0.  1.
         11    1    4    4    0    0  0.55561205693E+02 -0.10576998256E+02  0.93283265132E+01  0.57323103071E+02  0.00000000000E+00 0. -1.
        -13    1    3    3    0    0 -0.61461684149E+02  0.24820371472E+02  0.56983896020E+02  0.87411405800E+02  0.00000000000E+00 0.  1.
         13    1    3    3    0    0  0.43907678044E+01 -0.30934996100E+02 -0.51826263871E+01  0.31671950396E+02  0.00000000000E+00 0. -1.
          1    1    1    2  501    0 -0.13827952927E+02 -0.27909476922E+02 -0.60868689028E+00  0.31153197010E+02  0.00000000000E+00 0. -1.
<scales pt_clust_5="13000.00000" pt_clust_6="13000.00000" pt_clust_7="13000.00000" pt_clust_8="13000.00000" pt_clust_9="31.14727"></scales>
<clustering>
<clus scale="   31.147">  1  9  2 -1</clus>
<clus scale="   90.444">  5  6 -1 -1</clus>
<clus scale="   90.570">  7  8 -1 -1</clus>
<clus scale="  111.607">  1  5  2 -1</clus>
<clus scale="   31.147">  1  5  2 -1</clus>
</clustering>
</event>
<event>
 9    1  0.3231311E-005  0.1097514E+03  0.7546771E-02  0.1261279E+00
          2   -1    0    0  502    0 -0.00000000000E+00  0.00000000000E+00  0.13304216737E+03  0.13304216737E+03  0.00000000000E+00 0. -1.
         21   -1    0    0  501  502  0.00000000000E+00 -0.00000000000E+00 -0.22287269703E+03  0.22287269703E+03  0.00000000000E+00 0. -1.
         23    2    1    2    0    0 -0.48257431707E+02  0.15398937210E+02  0.47136412334E+02  0.11514947016E+03  0.92041578264E+02 0.  0.
         23    2    1    2    0    0  0.89126833848E+02  0.24944106463E+02 -0.58288089728E+02  0.14335784320E+03  0.92672373678E+02 0.  0.
        -11    1    4    4    0    0  0.59802472701E+02  0.59513861024E+02 -0.28235322629E+02  0.88968920636E+02  0.00000000000E+00 0.  1.
         11    1    4    4    0    0  0.29324361147E+02 -0.34569754561E+02 -0.30052767099E+02  0.54388922562E+02  0.00000000000E+00 0. -1.
        -11    1    3    3    0    0 -0.35165679544E+02 -0.20221636172E+02 -0.14236532811E+02  0.42990911292E+02  0.00000000000E+00 0. -1.
         11    1    3    3    0    0 -0.13091752162E+02  0.35620573381E+02  0.61372945145E+02  0.72158558872E+02  0.00000000000E+00 0.  1.
          2    1    1    2  501    0 -0.40869402141E+02 -0.40343043673E+02 -0.78678852272E+02  0.97407551037E+02  0.00000000000E+00 0. -1.
<scales pt_clust_5="13000.00000" pt_clust_6="13000.00000" pt_clust_7="13000.00000" pt_clust_8="13000.00000" pt_clust_9="57.42708"></scales>
<clustering>
<clus scale="   57.427">  2  9  1 -1</clus>
<clus scale="   92.042">  7  8 -1 -1</clus>
<clus scale="   92.672">  5  6 -1 -1</clus>
<clus scale="  109.219">  1  7  2 -1</clus>
<clus scale="   57.427">  2  5  1 -1</clus>
</clustering>
</event>
<event>
 9    1  0.3231311E-005  0.1144988E+03  0.7546771E-02  0.1253411E+00
         -1   -1    0    0    0  501 -0.00000000000E+00  0.00000000000E+00  0.97042288779E+02  0.97042288779E+02  0.00000000000E+00 0.  1.
         21   -1    0    0  501  502  0.00000000000E+00 -0.00000000000E+00 -0.34981488792E+03  0.34981488792E+03  0.00000000000E+00 0. -1.
         23    2    1    2    0    0  0.59000451848E+02 -0.18389823920E+02  0.21182628736E+02  0.11274336027E+03  0.91886465727E+02 0.  0.
         23    2    1    2    0    0 -0.77414594450E+02  0.68203077379E+02 -0.17565366534E+03  0.22238361431E+03  0.89194072489E+02 0.  0.
        -11    1    3    3    0    0 -0.17734330735E+02 -0.12561918836E+02 -0.16279305657E+02  0.27153712161E+02  0.00000000000E+00 0. -1.
         11    1    3    3    0    0  0.76734782583E+02 -0.58279050836E+01  0.37461934392E+02  0.85589648113E+02  0.00000000000E+00 0.  1.
        -11    1    4    4    0    0  0.19818288706E+02  0.90526501100E+01 -0.20122552030E+02  0.29658593045E+02  0.00000000000E+00 0.  1.
         11    1    4    4    0    0 -0.97232883156E+02  0.59150427269E+02 -0.15553111331E+03  0.19272502126E+03  0.00000000000E+00 0. -1.
         -1    1    1    2    0  502  0.18414142602E+02 -0.49813253460E+02 -0.98301562536E+02  0.11173020212E+03  0.00000000000E+00 0.  1.
<scales pt_clust_5="13000.00000" pt_clust_6="13000.00000" pt_clust_7="13000.00000" pt_clust_8="13000.00000" pt_clust_9="53.10782"></scales>
<clustering>
<clus scale="   53.108">  2  9  1 -1</clus>
<clus scale="   89.194">  7  8 -1 -1</clus>
<clus scale="   91.886">  5  6 -1 -1</clus>
<clus scale="  112.350">  2  7  1 -1</clus>
<clus scale="   53.108">  2  5  1 -1</clus>
</clustering>
</event>
<event>
 9    1  0.3231311E-005  0.1112663E+03  0.7546771E-02  0.1259009E+00
         21   -1    0    0  501  502  0.00000000000E+00  0.00000000000E+00  0.22842636651E+03  0.22842636651E+03  0.00000000000E+00 0. -1.
         -2   -1    0    0    0  501 -0.00000000000E+00 -0.00000000000E+00 -0.88226685796E+02  0.88226685796E+02  0.00000000000E+00 0.  1.
         23    2    1    2    0    0 -0.62568858021E+02 -0.33831088703E+02 -0.15044401184E+02  0.11348410962E+03  0.87137274299E+02 0.  0.
         23    2    1    2    0    0  0.41008742886E+02  0.37675793611E+02  0.10625607830E+03  0.14950848409E+03  0.89225838307E+02 0.  0.
        -11    1    3    3    0    0 -0.46477815864E+02 -0.60820248769E+02  0.41587376312E+01  0.76658888111E+02  0.00000000000E+00 0.  1.
         11    1    3    3    0    0 -0.16091042156E+02  0.26989160066E+02 -0.19203138815E+02  0.36825221508E+02  0.00000000000E+00 0. -1.
        -13    1    4    4    0    0  0.11112946697E+02  0.17497779239E+02 -0.13301229013E+02  0.24629099778E+02  0.00000000000E+00 0.  1.
         13    1    4    4    0    0  0.29895796189E+02  0.20178014372E+02  0.11955730732E+03  0.12487938431E+03  0.00000000000E+00 0. -1.
         -2    1    1    2    0  502  0.21560115135E+02 -0.38447049087E+01  0.48988003599E+02  0.53660458599E+02  0.00000000000E+00 0.  1.
<scales pt_clust_5="13000.00000" pt_clust_6="13000.00000" pt_clust_7="13000.00000" pt_clust_8="13000.00000" pt_clust_9="21.90024"></scales>
<clustering>
<clus scale="   21.900">  1  9  2 -1</clus>
<clus scale="   87.137">  5  6 -1 -1</clus>
<clus scale="   89.226">  7  8 -1 -1</clus>
<clus scale="  109.599">  2  5  1 -1</clus>
<clus scale="   21.900">  1  5  2 -1</clus>
</clustering>
</event>
<event>
 9    1  0.3231311E-005  0.9745841E+02  0.7546771E-02  0.1287338E+00
         21   -1    0    0  501  502  0.00000000000E+00  0.00000000000E+00  0.30993335633E+02  0.30993335633E+02  0.00000000000E+00 0.  1.
          2   -1    0    0  502    0 -0.00000000000E+00 -0.00000000000E+00 -0.52190122876E+03  0.52190122876E+03  0.00000000000E+00 0. -1.
         23    2    1    2    0    0 -0.25479591601E+02  0.58334559668E+01 -0.24969606884E+03  0.26641953974E+03  0.89151587581E+02 0.  0.
         23    2    1    2    0    0  0.24809796143E+02 -0.35516676729E+02 -0.23500390818E+03  0.25614219684E+03  0.92222707782E+02 0.  0.
        -11    1    4    4    0    0  0.33034714729E+01 -0.61115404179E+02 -0.10158670250E+03  0.11859959392E+03  0.00000000000E+00 0.  1.
         11    1    4    4    0    0  0.21506324670E+02  0.25598727450E+02 -0.13341720567E+03  0.13754260292E+03  0.00000000000E+00 0. -1.
        -13    1    3    3    0    0  0.22773750697E+02 -0.19259489740E+02 -0.40674633573E+02  0.50438055892E+02  0.00000000000E+00 0.  1.
         13    1    3    3    0    0 -0.48253342298E+02  0.25092945707E+02 -0.20902143526E+03  0.21598148385E+03  0.00000000000E+00 0. -1.
          2    1    1    2  501    0  0.66979545829E+00  0.29683220763E+02 -0.62079161143E+01  0.30332827815E+02  0.00000000000E+00 0. -1.
<scales pt_clust_5="13000.00000" pt_clust_6="13000.00000" pt_clust_7="13000.00000" pt_clust_8="13000.00000" pt_clust_9="29.69078"></scales>
<clustering>
<clus scale="   29.691">  1  9  2 -1</clus>
<clus scale="   89.152">  7  8 -1 -1</clus>
<clus scale="   92.223">  5  6 -1 -1</clus>
<clus scale="   94.557">  2  7  1 -1</clus>
<clus scale="   29.691">  1  5  2 -1</clus>
</clustering>
</event>
<event>
 9    1  0.3231311E-005  0.1006162E+03  0.7546771E-02  0.1282819E+00
          1   -1    0    0  502    0 -0.00000000000E+00  0.00000000000E+00  0.13135138636E+03  0.13135138636E+03  0.00000000000E+00 0. -1.
         21   -1    0    0  501  502  0.00000000000E+00 -0.00000000000E+00 -0.15832252464E+03  0.15832252464E+03  0.00000000000E+00 0. -1.
         23    2    1    2    0    0  0.97643301100E+01 -0.28210291420E+02  0.71769644139E+02  0.11685104250E+03  0.87247473478E+02 0.  0.
         23    2    1    2    0    0 -0.25317726607E+02  0.41887256041E+02 -0.45970032494E+02  0.11613319086E+03  0.94753071895E+02 0.  0.
        -11    1    3    3    0    0 -0.29552003092E+02  0.10471392544E+02  0.46742948221E+02  0.56283871197E+02  0.00000000000E+00 0.  1.
         11    1    3    3    0    0  0.39316333202E+02 -0.38681683964E+02  0.25026695919E+02  0.60567171300E+02  0.00000000000E+00 0. -1.
        -11    1    4    4    0    0  0.32432821067E+02 -0.12311496481E+01 -0.25311679678E+02  0.41159260682E+02  0.00000000000E+00 0.  1.
         11    1    4    4    0    0 -0.57750547673E+02  0.43118405689E+02 -0.20658352816E+02  0.74973930181E+02  0.00000000000E+00 0. -1.
          1    1    1    2  501    0  0.15553396497E+02 -0.13676964621E+02 -0.52770749925E+02  0.56689677645E+02  0.00000000000E+00 0. -1.
<scales pt_clust_5="13000.00000" pt_clust_6="13000.00000" pt_clust_7="13000.00000" pt_clust_8="13000.00000" pt_clust_9="20.71153"></scales>
<clustering>
<clus scale="   20.712">  2  9  1 -1</clus>
<clus scale="   87.247">  5  6 -1 -1</clus>
<clus scale="   93.582">  1  5  2 -1</clus>
<clus scale="   94.753">  7  8 -1 -1</clus>
<clus scale="   20.712">  2  5  1 -1</clus>
</clustering>
</event>
<event>
 9    1  0.3231311E-005  0.1398815E+03  0.7546771E-02  0.1213491E+00
          2   -1    0    0  502    0 -0.00000000000E+00  0.00000000000E+00  0.10661895446E+04  0.10661895446E+04  0.00000000000E+00 0. -1.
         21   -1    0    0  501  502  0.00000000000E+00 -0.00000000000E+00 -0.27085502626E+02  0.27085502626E+02  0.00000000000E+00 0.  1.
         23    2    1    2    0    0 -0.96877419470E+02 -0.95646721543E+01  0.52429356760E+03  0.54078720724E+03  0.89946323595E+02 0.  0.
         23    2    1    2    0    0  0.11774857913E+03  0.27030679596E+02  0.49850003020E+03  0.52075934630E+03  0.89959052470E+02 0.  0.
        -11    1    4    4    0    0  0.11563913552E+02 -0.20278908760E+02  0.29779997376E+02  0.37839218819E+02  0.00000000000E+00 0. -1.
         11    1    4    4    0    0  0.10618466558E+03  0.47309588356E+02  0.46872003283E+03  0.48292012748E+03  0.00000000000E+00 0.  1.
        -13    1    3    3    0    0 -0.92875392167E+02 -0.29230694883E+02  0.49944018212E+03  0.50884257636E+03  0.00000000000E+00 0. -1.
         13    1    3    3    0    0 -0.40020273022E+01  0.19666022728E+02  0.24853385478E+02  0.31944630882E+02  0.00000000000E+00 0.  1.
          2    1    1    2  501    0 -0.20871159662E+02 -0.17466007442E+02  0.16310444139E+02  0.31728493655E+02  0.00000000000E+00 0. -1.
<scales pt_clust_5="13000.00000" pt_clust_6="13000.00000" pt_clust_7="13000.00000" pt_clust_8="13000.00000" pt_clust_9="27.21519"></scales>
<clustering>
<clus scale="   27.215">  2  9  1 -1</clus>
<clus scale="   89.946">  7  8 -1 -1</clus>
<clus scale="   89.959">  5  6 -1 -1</clus>
<clus scale="  139.873">  1  7  2 -1</clus>
<clus scale="   27.215">  2  5  1 -1</clus>
</clustering>
</event>
<event>
 9    1  0.3231311E-005  0.1072435E+03  0.7546771E-02  0.1267768E+00
         -3   -1    0    0    0  501 -0.00000000000E+00  0.00000000000E+00  0.20712472974E+03  0.20712472974E+03  0.00000000000E+00 0.  1.
         21   -1    0    0  501  502  0.00000000000E+00 -0.00000000000E+00 -0.10243013989E+03  0.10243013989E+03  0.00000000000E+00 0. -1.
         23    2    1    2    0    0  0.39648442866E+02  0.71474595869E+01  0.11770479591E+03  0.15442167022E+03  0.91479768543E+02 0.  0.
         23    2    1    2    0    0 -0.68794281467E+02 -0.21778044842E+02 -0.38101743309E+00  0.12016134876E+03  0.96081570359E+02 0.  0.
        -11    1    3    3    0    0  0.69295842630E+02  0.91988234518E+01  0.76639913173E+02  0.10373142460E+03  0.00000000000E+00 0.  1.
         11    1    3    3    0    0 -0.29647399764E+02 -0.20513638649E+01  0.41064882737E+02  0.50690245617E+02  0.00000000000E+00 0. -1.
        -11    1    4    4    0    0 -0.59098960004E+02 -0.46301046746E+02 -0.29691446224E+02  0.80734478274E+02  0.00000000000E+00 0. -1.
         11    1    4    4    0    0 -0.96953214630E+01  0.24523001904E+02  0.29310428791E+02  0.39426870489E+02  0.00000000000E+00 0.  1.
         -3    1    1    2    0  502  0.29145838601E+02  0.14630585255E+02 -0.12629188619E+02  0.34971850649E+02  0.00000000000E+00 0.  1.
<scales pt_clust_5="13000.00000" pt_clust_6="13000.00000" pt_clust_7="13000.00000" pt_clust_8="13000.00000" pt_clust_9="32.61187"></scales>
<clustering>
<clus scale="   32.612">  2  9  1 -1</clus>
<clus scale="   91.480">  5  6 -1 -1</clus>
<clus scale="   96.082">  7  8 -1 -1</clus>
<clus scale="  103.141">  1  5  2 -1</clus>
<clus scale="   32.612">  2  5  1 -1</clus>
</clustering>
</event>
<event>
 9    1  0.3231311E-005  0.9856016E+02  0.7546771E-02  0.1285478E+00
          2   -1    0    0  502    0 -0.00000000000E+00  0.00000000000E+00  0.42667288489E+03  0.42667288489E+03  0.00000000000E+00 0. -1.
         21   -1    0    0  501  502  0.00000000000E+00 -0.00000000000E+00 -0.73579372724E+02  0.73579372724E+02  0.00000000000E+00 0. -1.
         23    2    1    2    0    0 -0.29170553814E+01  0.22539502619E+02  0.32097671116E+03  0.33568154060E+03  0.95600780344E+02 0.  0.
         23    2    1    2    0    0 -0.23013279690E+02 -0.36129318100E+02 -0.21595647236E+02  0.10339807233E+03  0.91596128264E+02 0.  0.
        -11    1    3    3    0    0 -0.29562472307E+02  0.43227348213E+02  0.26657038189E+03  0.27166580923E+03  0.00000000000E+00 0. -1.
         11    1    3    3    0    0  0.26645416926E+02 -0.20687845595E+02  0.54406329267E+02  0.64015731370E+02  0.00000000000E+00 0.  1.
        -13    1    4    4    0    0  0.19973064445E+02  0.18842880121E+02  0.64225292183E+01  0.28199757378E+02  0.00000000000E+00 0.  1.
         13    1    4    4    0    0 -0.42986344135E+02 -0.54972198222E+02 -0.28018176454E+02  0.75198314950E+02  0.00000000000E+00 0. -1.
          2    1    1    2  501    0  0.25930335072E+02  0.13589815482E+02  0.53712448242E+02  0.61172644686E+02  0.00000000000E+00 0. -1.
<scales pt_clust_5="13000.00000" pt_clust_6="13000.00000" pt_clust_7="13000.00000" pt_clust_8="13000.00000" pt_clust_9="29.27569"></scales>
<clustering>
<clus scale="   29.276">  2  9  1 -1</clus>
<clus scale="   91.596">  7  8 -1 -1</clus>
<clus scale="   94.681">  2  7  1 -1</clus>
<clus scale="   95.601">  5  6 -1 -1</clus>
<clus scale="   29.276">  2  5  1 -1</clus>
</clustering>
</event>
<event>
 9    1  0.3231311E-005  0.1027950E+03  0.7546771E-02  0.1275250E+00
         21   -1    0    0  501  502  0.00000000000E+00  0.00000000000E+00  0.11554096134E+03  0.11554096134E+03  0.00000000000E+00 0.  1.
         -2   -1    0    0    0  501 -0.00000000000E+00 -0.00000000000E+00 -0.19128013029E+03  0.19128013029E+03  0.00000000000E+00 0.  1.
         23    2    1    2    0    0 -0.38976965260E+02 -0.37676235103E+02 -0.82727551957E+02  0.13477530978E+03  0.91552355305E+02 0.  0.
         23    2    1    2    0    0  0.31473899319E+02  0.10268887829E+02 -0.48210819289E+02  0.10996188202E+03  0.93119686456E+02 0.  0.
        -13    1    3    3    0    0 -0.53076315974E+02 -0.59927741250E+02 -0.62677570537E+02  0.10167058246E+03  0.00000000000E+00 0. -1.
         13    1    3    3    0    0  0.14099350714E+02  0.22251506147E+02 -0.20049981420E+02  0.33104727326E+02  0.00000000000E+00 0.  1.
        -13    1    4    4    0    0  0.30190873145E+02 -0.14260228685E+02 -0.69726354522E+02  0.77308521253E+02  0.00000000000E+00 0.  1.
         13    1    4    4    0    0  0.12830261736E+01  0.24529116514E+02  0.21515535233E+02  0.32653360768E+02  0.00000000000E+00 0. -1.
         -2    1    1    2    0  502  0.75030659409E+01  0.27407347273E+02  0.55199202303E+02  0.62083899829E+02  0.00000000000E+00 0.  1.
<scales pt_clust_5="13000.00000" pt_clust_6="13000.00000" pt_clust_7="13000.00000" pt_clust_8="13000.00000" pt_clust_9="28.41582"></scales>
<clustering>
<clus scale="   28.416">  1  9  2 -1</clus>
<clus scale="   91.552">  5  6 -1 -1</clus>
<clus scale="   93.120">  7  8 -1 -1</clus>
<clus scale="  101.377">  2  5  1 -1</clus>
<clus scale="   28.416">  1  5  2 -1</clus>
</clustering>
</event>
<event>
 9    1  0.3231311E-005  0.1337767E+03  0.7546771E-02  0.1222207E+00
          1   -1    0    0  502    0 -0.00000000000E+00  0.00000000000E+00  0.45294968464E+03  0.45294968464E+03  0.00000000000E+00 0. -1.
         21   -1    0    0  501  502  0.00000000000E+00 -0.00000000000E+00 -0.77733238321E+02  0.77733238321E+02  0.00000000000E+00 0.  1.
         23    2    1    2    0    0  0.51082598417E+02 -0.65948213608E+02  0.15895682246E+03  0.20220170198E+03  0.93057284164E+02 0.  0.
         23    2    1    2    0    0 -0.12311594154E+03  0.50589181959E+02  0.98100876925E+02  0.18924691540E+03  0.92053313600E+02 0.  0.
        -11    1    4    4    0    0 -0.10056688140E+03  0.52514972651E+02  0.11458483214E+03  0.16124888757E+03  0.00000000000E+00 0. -1.
         11    1    4    4    0    0 -0.22549060140E+02 -0.19257906923E+01 -0.16483955215E+02  0.27998027833E+02  0.00000000000E+00 0.  1.
        -11    1    3    3    0    0 -0.65060340645E+01 -0.28329503783E+02  0.73272568341E-01  0.29067071279E+02  0.00000000000E+00 0.  1.
         11    1    3    3    0    0  0.57588632482E+02 -0.37618709825E+02  0.15888354990E+03  0.17313463070E+03  0.00000000000E+00 0. -1.
          1    1    1    2  501    0  0.72033343119E+02  0.15359031649E+02  0.11815874693E+03  0.13923430558E+03  0.00000000000E+00 0. -1.
<scales pt_clust_5="13000.00000" pt_clust_6="13000.00000" pt_clust_7="13000.00000" pt_clust_8="13000.00000" pt_clust_9="73.65262"></scales>
<clustering>
<clus scale="   73.653">  2  9  1 -1</clus>
<clus scale="   92.053">  5  6 -1 -1</clus>
<clus scale="   93.057">  7  8 -1 -1</clus>
<clus scale="  133.080">  2  5  1 -1</clus>
<clus scale="   73.653">  2  5  1 -1</clus>
</clustering>
</event>
<event>
 9    1  0.3231311E-005  0.9500233E+02  0.7546771E-02  0.1293622E+00
         21   -1    0    0  501  502  0.00000000000E+00  0.00000000000E+00  0.34741745567E+02  0.34741745567E+02  0.00000000000E+00 0.  1.
         -1   -1    0    0    0  501 -0.00000000000E+00 -0.00000000000E+00 -0.49913419670E+03  0.49913419670E+03  0.00000000000E+00 0.  1.
         23    2    1    2    0    0 -0.20361444647E+02  0.38686458943E+01 -0.27693569527E+03  0.29130888632E+03  0.87965522138E+02 0.  0.
         23    2    1    2    0    0  0.29308393530E+02  0.20406297876E+02 -0.67438736062E+02  0.11979227895E+03  0.92340717187E+02 0.  0.
        -13    1    4    4    0    0  0.52810949460E+02 -0.88634169428E+01 -0.61899379216E+02  0.81847966927E+02  0.00000000000E+00 0. -1.
         13    1    4    4    0    0 -0.23502555930E+02  0.29269714818E+02 -0.55393568458E+01  0.37944312025E+02  0.00000000000E+00 0.  1.
        -13    1    3    3    0    0  0.21242101600E+02  0.27877406021E+02 -0.63453192501E+02  0.72489201164E+02  0.00000000000E+00 0. -1.
         13    1    3    3    0    0 -0.41603546247E+02 -0.24008760127E+02 -0.21348250277E+03  0.21881968516E+03  0.00000000000E+00 0.  1.
         -1    1    1    2    0  502 -0.89469488828E+01 -0.24274943770E+02 -0.12001801981E+03  0.12277477700E+03  0.00000000000E+00 0.  1.
<scales pt_clust_5="13000.00000" pt_clust_6="13000.00000" pt_clust_7="13000.00000" pt_clust_8="13000.00000" pt_clust_9="25.87125"></scales>
<clustering>
<clus scale="   25.871">  1  9  2 -1</clus>
<clus scale="   87.966">  7  8 -1 -1</clus>
<clus scale="   90.756">  2  7  1 -1</clus>
<clus scale="   92.341">  5  6 -1 -1</clus>
<clus scale="   25.871">  1  5  2 -1</clus>
</clustering>
</event>
<event>
 9    1  0.3231311E-005  0.1224047E+03  0.7546771E-02  0.1243213E+00
         21   -1    0    0  501  502  0.00000000000E+00  0.00000000000E+00  0.24958451840E+03  0.24958451840E+03  0.00000000000E+00 0.  1.
          3   -1    0    0  502    0 -0.00000000000E+00 -0.00000000000E+00 -0.25007966485E+03  0.25007966485E+03  0.00000000000E+00 0. -1.
         23    2    1    2    0    0  0.43438977269E+02  0.31110692179E+02 -0.17818381076E+03  0.21439043359E+03  0.10657845788E+03 0.  0.
         23    2    1    2    0    0 -0.10135515524E+03 -0.27941038205E+02  0.60105913806E+02  0.15416298125E+03  0.95393578429E+02 0.  0.
        -13    1    4    4    0    0 -0.39067932434E+02 -0.55924590323E+02  0.88692655231E+01  0.68793364639E+02  0.00000000000E+00 0. -1.
         13    1    4    4    0    0 -0.62287222803E+02  0.27983552118E+02  0.51236648282E+02  0.85369616614E+02  0.00000000000E+00 0.  1.
        -13    1    3    3    0    0  0.23850995256E+02 -0.35681344046E+02 -0.10479455454E+03  0.11324277879E+03  0.00000000000E+00 0. -1.
         13    1    3    3    0    0  0.19587982013E+02  0.66792036224E+02 -0.73389256222E+02  0.10114765480E+03  0.00000000000E+00 0.  1.
          3    1    1    2  501    0  0.57916177968E+02 -0.31696539739E+01  0.11758275050E+03  0.13111076841E+03  0.00000000000E+00 0. -1.
<scales pt_clust_5="13000.00000" pt_clust_6="13000.00000" pt_clust_7="13000.00000" pt_clust_8="13000.00000" pt_clust_9="58.00285"></scales>
<clustering>
<clus scale="   58.003">  1  9  2 -1</clus>
<clus scale="   95.394">  5  6 -1 -1</clus>
<clus scale="  106.578">  7  8 -1 -1</clus>
<clus scale="  112.800">  1  5  2 -1</clus>
<clus scale="   58.003">  1  5  2 -1</clus>
</clustering>
</event>
<event>
 9    1  0.3231311E-005  0.1027315E+03  0.7546771E-02  0.1277215E+00
          2   -1    0    0  502    0 -0.00000000000E+00  0.00000000000E+00  0.80254838111E+03  0.80254838111E+03  0.00000000000E+00 0. -1.
         21   -1    0    0  501  502  0.00000000000E+00 -0.00000000000E+00 -0.27112384911E+02  0.27112384911E+02  0.00000000000E+00 0. -1.
         23    2    1    2    0    0  0.39868025159E+02  0.56570443598E+01  0.50817444388E+03  0.51876764514E+03  0.96214046024E+02 0.  0.
         23    2    1    2    0    0 -0.20018587279E+02  0.72976029243E+01  0.82521509866E+02  0.12463870790E+03  0.90945088214E+02 0.  0.
        -13    1    4    4    0    0 -0.29088872923E+02 -0.32502476243E+02  0.69011822385E+02  0.81640707486E+02  0.00000000000E+00 0.  1.
         13    1    4    4    0    0  0.90702856443E+01  0.39800079168E+02  0.13509687481E+02  0.42998000410E+02  0.00000000000E+00 0. -1.
        -13    1    3    3    0    0 -0.46703857935E+01 -0.39783477051E+02  0.22442410556E+03  0.22797086811E+03  0.00000000000E+00 0.  1.
         13    1    3    3    0    0  0.44538410952E+02  0.45440521411E+02  0.28375033832E+03  0.29079677703E+03  0.00000000000E+00 0. -1.
          2    1    1    2  501    0 -0.19849437880E+02 -0.12954647284E+02  0.18474004245E+03  0.18625441298E+03  0.00000000000E+00 0. -1.
<scales pt_clust_5="13000.00000" pt_clust_6="13000.00000" pt_clust_7="13000.00000" pt_clust_8="13000.00000" pt_clust_9="23.70282"></scales>
<clustering>
<clus scale="   23.703">  2  9  1 -1</clus>
<clus scale="   90.945">  5  6 -1 -1</clus>
<clus scale="   96.214">  7  8 -1 -1</clus>
<clus scale="   97.814">  2  5  1 -1</clus>
<clus scale="   23.703">  2  5  1 -1</clus>
</clustering>
</event>
<event>
 9    1  0.3231311E-005  0.1814925E+03  0.7546771E-02  0.1192290E+00
          1   -1    0    0  502    0 -0.00000000000E+00  0.00000000000E+00  0.30940235151E+03  0.30940235151E+03  0.00000000000E+00 0. -1.
         21   -1    0    0  501  502  0.00000000000E+00 -0.00000000000E+00 -0.25437223129E+03  0.25437223129E+03  0.00000000000E+00 0. -1.
         23    2    1    2    0    0 -0.33786131609E+02  0.28619321629E+02  0.17013140056E+03  0.19798801478E+03  0.91071358172E+02 0.  0.
         23    2    1    2    0    0 -0.21813239398E+02 -0.16627559980E+03 -0.10445569932E+03  0.21694480852E+03  0.89613973902E+02 0.  0.
        -11    1    4    4    0    0 -0.36664349549E+02 -0.13662377875E+03 -0.44263279148E+02  0.14822135247E+03  0.00000000000E+00 0. -1.
         11    1    4    4    0    0  0.14851110151E+02 -0.29651821058E+02 -0.60192420175E+02  0.68723456049E+02  0.00000000000E+00 0.  1.
        -13    1    3    3    0    0 -0.27134107823E+02  0.59823401921E+02  0.13731365743E+03  0.15221740945E+03  0.00000000000E+00 0. -1.
         13    1    3    3    0    0 -0.66520237851E+01 -0.31204080292E+02  0.32817743131E+02  0.45770605322E+02  0.00000000000E+00 0.  1.
          1    1    1    2  501    0  0.55599371006E+02  0.13765627818E+03 -0.10645581019E+02  0.14884175951E+03  0.00000000000E+00 0. -1.
<scales pt_clust_5="13000.00000" pt_clust_6="13000.00000" pt_clust_7="13000.00000" pt_clust_8="13000.00000" pt_clust_9="157.82552"></scales>
<clustering>
<clus scale="   89.614">  5  6 -1 -1</clus>
<clus scale="   91.071">  7  8 -1 -1</clus>
<clus scale="  101.265">  1  7  2 -1</clus>
<clus scale="  157.826">  2  9  1 -1</clus>
<clus scale="  157.826">  2  5  1 -1</clus>
</clustering>
</event>
<event>
 9    1  0.3231311E-005  0.1731118E+03  0.7546771E-02  0.1174822E+00
         21   -1    0    0  501  502  0.00000000000E+00  0.00000000000E+00  0.75141678572E+02  0.75141678572E+02  0.00000000000E+00 0. -1.
          1   -1    0    0  502    0 -0.00000000000E+00 -0.00000000000E+00 -0.74040960288E+03  0.74040960288E+03  0.00000000000E+00 0. -1.
         23    2    1    2    0    0  0.33705536446E+02 -0.14601301433E+03 -0.48379922657E+03  0.51457956915E+03  0.90964706431E+02 0.  0.
         23    2    1    2    0    0  0.74288795367E+01  0.14296443494E+03 -0.19370773531E+03  0.25794697459E+03  0.92303505199E+02 0.  0.
        -11    1    4    4    0    0 -0.20935885463E+02  0.13923138857E+03 -0.17041782991E+03  0.22105639012E+03  0.00000000000E+00 0.  1.
         11    1    4    4    0    0  0.28364765000E+02  0.37330463695E+01 -0.23289905400E+02  0.36890584466E+02  0.00000000000E+00 0. -1.
        -13    1    3    3    0    0  0.25345487189E+02 -0.88405019351E+02 -0.15156707870E+03  0.17728626713E+03  0.00000000000E+00 0.  1.
         13    1    3    3    0    0  0.83600492572E+01 -0.57607994975E+02 -0.33223214787E+03  0.33729330202E+03  0.00000000000E+00 0. -1.
          1    1    1    2  501    0 -0.41134415983E+02  0.30485793905E+01  0.12239037575E+02  0.43024737714E+02  0.00000000000E+00 0. -1.
<scales pt_clust_5="13000.00000" pt_clust_6="13000.00000" pt_clust_7="13000.00000" pt_clust_8="13000.00000" pt_clust_9="41.24723"></scales>
<clustering>
<clus scale="   41.247">  1  9  2 -1</clus>
<clus scale="   90.965">  7  8 -1 -1</clus>
<clus scale="   92.304">  5  6 -1 -1</clus>
<clus scale="  172.402">  2  7  1 -1</clus>
<clus scale="   41.247">  1  5  2 -1</clus>
</clustering>
</event>
<event>
 9    1  0.3231311E-005  0.2178213E+03  0.7546771E-02  0.1136724E+00
         -1   -1    0    0    0  501 -0.00000000000E+00  0.00000000000E+00  0.46076545608E+03  0.46076545608E+03  0.00000000000E+00 0.  1.
         21   -1    0    0  501  502  0.00000000000E+00 -0.00000000000E+00 -0.22345505730E+03  0.22345505730E+03  0.00000000000E+00 0. -1.
         23    2    1    2    0    0 -0.93231440179E+02  0.17311951335E+03  0.34123654293E+03  0.40490179256E+03  0.94024550197E+02 0.  0.
         23    2    1    2    0    0  0.43961809506E+02 -0.15904849010E+03 -0.46419731957E+02  0.20229614202E+03  0.10742380864E+03 0.  0.
        -11    1    3    3    0    0 -0.27084477888E+02  0.11144974711E+03  0.25648283493E+03  0.28095917798E+03  0.00000000000E+00 0. -1.
         11    1    3    3    0    0 -0.66146962292E+02  0.61669766247E+02  0.84753707999E+02  0.12394261458E+03  0.00000000000E+00 0.  1.
        -13    1    4    4    0    0  0.97264045809E+01 -0.15789816946E+03 -0.54097670029E+02  0.16719148533E+03  0.00000000000E+00 0. -1.
         13    1    4    4    0    0  0.34235404925E+02 -0.11503206377E+01  0.76779380727E+01  0.35104656685E+02  0.00000000000E+00 0.  1.
         -1    1    1    2    0  502  0.49269630674E+02 -0.14071023254E+02 -0.57506412199E+02  0.77022578807E+02  0.00000000000E+00 0.  1.
<scales pt_clust_5="13000.00000" pt_clust_6="13000.00000" pt_clust_7="13000.00000" pt_clust_8="13000.00000" pt_clust_9="51.23954"></scales>
<clustering>
<clus scale="   51.240">  2  9  1 -1</clus>
<clus scale="   94.025">  5  6 -1 -1</clus>
<clus scale="  107.424">  7  8 -1 -1</clus>
<clus scale="  211.535">  1  5  2 -1</clus>
<clus scale="   51.240">  2  5  1 -1</clus>
</clustering>
</event>
<event>
 9    1  0.3231311E-005  0.1512352E+03  0.7546771E-02  0.1207756E+00
         21   -1    0    0  501  502  0.00000000000E+00  0.00000000000E+00  0.19413837754E+03  0.19413837754E+03  0.00000000000E+00 0. -1.
         -3   -1    0    0    0  501 -0.00000000000E+00 -0.00000000000E+00 -0.13655838929E+03  0.13655838929E+03  0.00000000000E+00 0.  1.
         23    2    1    2    0    0 -0.38348337952E+02 -0.64500334536E+02 -0.48693517902E+01  0.14452096710E+03  0.12341681882E+03 0.  0.
         23    2    1    2    0    0  0.36947950796E+02  0.99992010852E+02  0.56314366120E+02  0.15013057706E+03  0.89466915871E+02 0.  0.
        -11    1    3    3    0    0  0.39572234186E+02  0.34203284606E+01 -0.10225301274E+02  0.41014840624E+02  0.00000000000E+00 0. -1.
         11    1    3    3    0    0 -0.77920572138E+02 -0.67920662996E+02  0.53559494840E+01  0.10350612648E+03  0.00000000000E+00 0.  1.
        -13    1    4    4    0    0 -0.20190070442E+02  0.35441910192E+02  0.48793789873E+02  0.63597184471E+02  0.00000000000E+00 0. -1.
         13    1    4    4    0    0  0.57138021239E+02  0.64550100660E+02  0.75205762471E+01  0.86533392591E+02  0.00000000000E+00 0.  1.
         -3    1    1    2    0  502  0.14003871559E+01 -0.35491676316E+02  0.61349739230E+01  0.36045222665E+02  0.00000000000E+00 0.  1.
<scales pt_clust_5="13000.00000" pt_clust_6="13000.00000" pt_clust_7="13000.00000" pt_clust_8="13000.00000" pt_clust_9="35.51931"></scales>
<clustering>
<clus scale="   35.519">  1  9  2 -1</clus>
<clus scale="   89.467">  7  8 -1 -1</clus>
<clus scale="  123.417">  5  6 -1 -1</clus>
<clus scale="  125.079">  1  7  2 -1</clus>
<clus scale="   35.519">  1  5  2 -1</clus>
</clustering>
</event>
<event>
 9    1  0.3231311E-005  0.1028295E+03  0.7546771E-02  0.1276456E+00
          1   -1    0    0  502    0 -0.00000000000E+00  0.00000000000E+00  0.62501084926E+02  0.62501084926E+02  0.00000000000E+00 0. -1.
         21   -1    0    0  501  502  0.00000000000E+00 -0.00000000000E+00 -0.42715548907E+03  0.42715548907E+03  0.00000000000E+00 0.  1.
         23    2    1    2    0    0 -0.68523559007E+01 -0.36406669574E+02 -0.10287569422E+02  0.10154297979E+03  0.93982670152E+02 0.  0.
         23    2    1    2    0    0  0.45629062896E+02  0.55281913184E+02 -0.26822652345E+03  0.29178052069E+03  0.89734625801E+02 0.  0.
        -13    1    4    4    0    0  0.72509002861E+02  0.44624909692E+02 -0.21424222399E+03  0.23053995012E+03  0.00000000000E+00 0.  1.
         13    1    4    4    0    0 -0.26879939965E+02  0.10657003493E+02 -0.53984299462E+02  0.61240570575E+02  0.00000000000E+00 0. -1.
        -13    1    3    3    0    0 -0.20306169132E+02  0.22173510344E+02 -0.25632471067E+02  0.39509854958E+02  0.00000000000E+00 0.  1.
         13    1    3    3    0    0  0.13453813231E+02 -0.58580179919E+02  0.15344901645E+02  0.62033124831E+02  0.00000000000E+00 0. -1.
          1    1    1    2  501    0 -0.38776706995E+02 -0.18875243610E+02 -0.86140311270E+02  0.96333073513E+02  0.00000000000E+00 0. -1.
<scales pt_clust_5="13000.00000" pt_clust_6="13000.00000" pt_clust_7="13000.00000" pt_clust_8="13000.00000" pt_clust_9="43.12665"></scales>
<clustering>
<clus scale="   43.127">  2  9  1 -1</clus>
<clus scale="   89.735">  5  6 -1 -1</clus>
<clus scale="   93.983">  7  8 -1 -1</clus>
<clus scale="   98.962">  2  5  1 -1</clus>
<clus scale="   43.127">  2  5  1 -1</clus>
</clustering>
</event>
<event>
 9    1  0.3231311E-005  0.1268294E+03  0.7546771E-02  0.1232715E+00
          3   -1    0    0  502    0 -0.00000000000E+00  0.00000000000E+00  0.66038117536E+02  0.66038117536E+02  0.00000000000E+00 0. -1.
         21   -1    0    0  501  502  0.00000000000E+00 -0.00000000000E+00 -0.76679895257E+03  0.76679895257E+03  0.00000000000E+00 0. -1.
         23    2    1    2    0    0  0.10072242128E+03  0.67536539229E+02 -0.86740935201E+02  0.17613514156E+03  0.93773172989E+02 0.  0.
         23    2    1    2    0    0 -0.41072715573E+02 -0.82931548047E+01 -0.13598227330E+03  0.17132801251E+03  0.95427275127E+02 0.  0.
        -13    1    3    3    0    0  0.10578797947E+03  0.22746571950E+02 -0.62331357441E+02  0.12487474227E+03  0.00000000000E+00 0. -1.
         13    1    3    3    0    0 -0.50655581947E+01  0.44789967278E+02 -0.24409577761E+02  0.51260399287E+02  0.00000000000E+00 0.  1.
        -13    1    4    4    0    0 -0.23300925875E+02  0.42403982199E+02 -0.47430405035E+02  0.67754514055E+02  0.00000000000E+00 0. -1.
         13    1    4    4    0    0 -0.17771789698E+02 -0.50697137004E+02 -0.88551868263E+02  0.10357349846E+03  0.00000000000E+00 0.  1.
          3    1    1    2  501    0 -0.59649705705E+02 -0.59243384424E+02 -0.47803762653E+03  0.48537391604E+03  0.00000000000E+00 0. -1.
<scales pt_clust_5="13000.00000" pt_clust_6="13000.00000" pt_clust_7="13000.00000" pt_clust_8="13000.00000" pt_clust_9="84.07060"></scales>
<clustering>
<clus scale="   84.071">  2  9  1 -1</clus>
<clus scale="   93.773">  5  6 -1 -1</clus>
<clus scale="   95.427">  7  8 -1 -1</clus>
<clus scale="  125.590">  1  5  2 -1</clus>
<clus scale="   84.071">  2  5  1 -1</clus>
</clustering>
</event>
<event>
 9    1  0.3231311E-005  0.1854764E+03  0.7546771E-02  0.1162687E+00
         21   -1    0    0  501  502  0.00000000000E+00  0.00000000000E+00  0.49429899083E+02  0.49429899083E+02  0.00000000000E+00 0. -1.
         -3   -1    0    0    0  501 -0.00000000000E+00 -0.00000000000E+00 -0.10013682439E+04  0.10013682439E+04  0.00000000000E+00 0.  1.
         23    2    1    2    0    0 -0.10434845095E+03 -0.13456264698E+03 -0.58941391492E+03  0.62029499295E+03  0.91440745897E+02 0.  0.
         23    2    1    2    0    0  0.84909974423E+02  0.12374612996E+03 -0.36795001215E+03  0.40760580626E+03  0.90732978701E+02 0.  0.
        -13    1    4    4    0    0  0.73530634060E+02  0.27837702400E+02 -0.17399901231E+03  0.19093807400E+03  0.00000000000E+00 0.  1.
         13    1    4    4    0    0  0.11379340363E+02  0.95908427556E+02 -0.19395099984E+03  0.21666773226E+03  0.00000000000E+00 0. -1.
        -13    1    3    3    0    0 -0.62414299679E+02 -0.64899107816E+02 -0.44984622579E+03  0.45876907683E+03  0.00000000000E+00 0.  1.
         13    1    3    3    0    0 -0.41934151269E+02 -0.69663539160E+02 -0.13956768913E+03  0.16152591612E+03  0.00000000000E+00 0. -1.
         -3    1    1    2    0  502  0.19438476525E+02  0.10816517020E+02  0.54255822262E+01  0.22897343788E+02  0.00000000000E+00 0.  1.
<scales pt_clust_5="13000.00000" pt_clust_6="13000.00000" pt_clust_7="13000.00000" pt_clust_8="13000.00000" pt_clust_9="22.24526"></scales>
<clustering>
<clus scale="   22.245">  1  9  2 -1</clus>
<clus scale="   90.733">  5  6 -1 -1</clus>
<clus scale="   91.441">  7  8 -1 -1</clus>
<clus scale="  185.128">  1  5  2 -1</clus>
<clus scale="   22.245">  1  5  2 -1</clus>
</clustering>
</event>
<event>
 9    1  0.3231311E-005  0.1008954E+03  0.7546771E-02  0.1279017E+00
         21   -1    0    0  501  502  0.00000000000E+00  0.00000000000E+00  0.34584471136E+03  0.34584471136E+03  0.00000000000E+00 0.  1.
         -4   -1    0    0    0  501 -0.00000000000E+00 -0.00000000000E+00 -0.71415691109E+02  0.71415691109E+02  0.00000000000E+00 0.  1.
         23    2    1    2    0    0 -0.42570633947E+02 -0.25922655381E+02  0.49717582874E+01  0.10380525644E+03  0.90920679426E+02 0.  0.
         23    2    1    2    0    0  0.30523203858E+02 -0.20373332013E+02  0.11558426918E+03  0.15231745047E+03  0.92163679428E+02 0.  0.
        -11    1    4    4    0    0  0.41077094858E+01 -0.41101296017E+02  0.11391580699E+02  0.42848079564E+02  0.00000000000E+00 0.  1.
         11    1    4    4    0    0  0.26415494372E+02  0.20727964004E+02  0.10419268848E+03  0.10946937091E+03  0.00000000000E+00 0. -1.
        -11    1    3    3    0    0  0.21315007522E+02  0.15298677457E+02  0.88147017013E+01  0.27678114887E+02  0.00000000000E+00 0. -1.
         11    1    3    3    0    0 -0.63885641469E+02 -0.41221332838E+02 -0.38429434139E+01  0.76127141553E+02  0.00000000000E+00 0.  1.
         -4    1    1    2    0  502  0.12047430089E+02  0.46295987394E+02  0.15387299279E+03  0.16113769556E+03  0.00000000000E+00 0.  1.
<scales pt_clust_5="13000.00000" pt_clust_6="13000.00000" pt_clust_7="13000.00000" pt_clust_8="13000.00000" pt_clust_9="47.83784"></scales>
<clustering>
<clus scale="   47.838">  1  9  2 -1</clus>
<clus scale="   90.921">  7  8 -1 -1</clus>
<clus scale="   92.164">  5  6 -1 -1</clus>
<clus scale="   99.761">  2  7  1 -1</clus>
<clus scale="   47.838">  1  5  2 -1</clus>
</clustering>
</event>
<event>
 9    1  0.3231311E-005  0.1033847E+03  0.7546771E-02  0.1273403E+00
         21   -1    0    0  501  502  0.00000000000E+00  0.00000000000E+00  0.34350221015E+03  0.34350221015E+03  0.00000000000E+00 0. -1.
          1   -1    0    0  502    0 -0.00000000000E+00 -0.00000000000E+00 -0.14694034925E+03  0.14694034925E+03  0.00000000000E+00 0. -1.
         23    2    1    2    0    0  0.49343405376E+02 -0.16916200466E+02 -0.10306833453E+03  0.14732880515E+03  0.91442691085E+02 0.  0.
         23    2    1    2    0    0 -0.11285276022E+02  0.36134966080E+02  0.10710829902E+03  0.14592738869E+03  0.91594332925E+02 0.  0.
        -13    1    3    3    0    0  0.23767953010E+02 -0.53937023380E+02 -0.46675801434E+02  0.75184762558E+02  0.00000000000E+00 0. -1.
         13    1    3    3    0    0  0.25575452366E+02  0.37020822915E+02 -0.56392533094E+02  0.72144042594E+02  0.00000000000E+00 0.  1.
        -13    1    4    4    0    0 -0.11631207831E+02  0.67053003183E+02  0.70065320418E+02  0.97675684573E+02  0.00000000000E+00 0. -1.
         13    1    4    4    0    0  0.34593180862E+00 -0.30918037102E+02  0.37042978601E+02  0.48251704122E+02  0.00000000000E+00 0.  1.
          1    1    1    2  501    0 -0.38058129354E+02 -0.19218765615E+02  0.19252189641E+03  0.19718636555E+03  0.00000000000E+00 0. -1.
<scales pt_clust_5="13000.00000" pt_clust_6="13000.00000" pt_clust_7="13000.00000" pt_clust_8="13000.00000" pt_clust_9="42.63546"></scales>
<clustering>
<clus scale="   42.635">  1  9  2 -1</clus>
<clus scale="   91.443">  5  6 -1 -1</clus>
<clus scale="   91.594">  7  8 -1 -1</clus>
<clus scale="  103.250">  2  5  1 -1</clus>
<clus scale="   42.635">  1  5  2 -1</clus>
</clustering>
</event>
<event>
 9    1  0.3231311E-005  0.1774348E+03  0.7546771E-02  0.1170513E+00
         21   -1    0    0  501  502  0.00000000000E+00  0.00000000000E+00  0.85147749941E+03  0.85147749941E+03  0.00000000000E+00 0. -1.
         -4   -1    0    0    0  501 -0.00000000000E+00 -0.00000000000E+00 -0.57929255950E+02  0.57929255950E+02  0.00000000000E+00 0.  1.
         23    2    1    2    0    0 -0.14033119232E+03  0.44420295238E+02  0.16026146418E+03  0.23650524224E+03  0.92655202430E+02 0.  0.
         23    2    1    2    0    0  0.14783174489E+03 -0.74348125437E+02  0.59173362677E+03  0.62114634147E+03  0.91061649004E+02 0.  0.
        -11    1    4    4    0    0  0.43585416865E+02  0.19079695951E+02  0.18398210946E+03  0.19003457570E+03  0.00000000000E+00 0.  1.
         11    1    4    4    0    0  0.10424632803E+03 -0.93427821388E+02  0.40775151731E+03  0.43111176577E+03  0.00000000000E+00 0. -1.
        -13    1    3    3    0    0 -0.14145299405E+03  0.13023780411E+02  0.12433270325E+03  0.18877814884E+03  0.00000000000E+00 0.  1.
         13    1    3    3    0    0  0.11218017276E+01  0.31396514826E+02  0.35928760932E+02  0.47727093400E+02  0.00000000000E+00 0. -1.
         -4    1    1    2    0  502 -0.75005525734E+01  0.29927830199E+02  0.41553152504E+02  0.51755171649E+02  0.00000000000E+00 0.  1.
<scales pt_clust_5="13000.00000" pt_clust_6="13000.00000" pt_clust_7="13000.00000" pt_clust_8="13000.00000" pt_clust_9="30.85343"></scales>
<clustering>
<clus scale="   30.853">  1  9  2 -1</clus>
<clus scale="   91.062">  5  6 -1 -1</clus>
<clus scale="   92.655">  7  8 -1 -1</clus>
<clus scale="  176.608">  1  5  2 -1</clus>
<clus scale="   30.853">  1  5  2 -1</clus>
</clustering>
</event>
<event>
 9    1  0.3231311E-005  0.1232371E+03  0.7546771E-02  0.1238025E+00
         21   -1    0    0  501  502  0.00000000000E+00  0.00000000000E+00  0.22195971643E+03  0.22195971643E+03  0.00000000000E+00 0.  1.
          2   -1    0    0  502    0 -0.00000000000E+00 -0.00000000000E+00 -0.82929876856E+02  0.82929876856E+02  0.00000000000E+00 0. -1.
         23    2    1    2    0    0  0.63705462289E+02 -0.37139354679E+02  0.54926641403E+02  0.12959425065E+03  0.91323689557E+02 0.  0.
         23    2    1    2    0    0 -0.74058752710E+02  0.56407973405E+02  0.61393786659E+02  0.14376460111E+03  0.90733153667E+02 0.  0.
        -11    1    4    4    0    0 -0.44385560426E+02 -0.19202521135E+02  0.28483386810E+02  0.56125913056E+02  0.00000000000E+00 0. -1.
         11    1    4    4    0    0 -0.29673192284E+02  0.75610494540E+02  0.32910399849E+02  0.87638688050E+02  0.00000000000E+00 0.  1.
        -13    1    3    3    0    0 -0.16889977312E+02 -0.26343176391E+02  0.32776818812E+02  0.45316157465E+02  0.00000000000E+00 0.  1.
         13    1    3    3    0    0  0.80595439601E+02 -0.10796178288E+02  0.22149822591E+02  0.84278093185E+02  0.00000000000E+00 0. -1.
          2    1    1    2  501    0  0.10353290420E+02 -0.19268618726E+02  0.22709411510E+02  0.31530741527E+02  0.00000000000E+00 0. -1.
<scales pt_clust_5="13000.00000" pt_clust_6="13000.00000" pt_clust_7="13000.00000" pt_clust_8="13000.00000" pt_clust_9="21.87396"></scales>
<clustering>
<clus scale="   21.874">  1  9  2 -1</clus>
<clus scale="   90.733">  5  6 -1 -1</clus>
<clus scale="   91.324">  7  8 -1 -1</clus>
<clus scale="  122.800">  1  5  2 -1</clus>
<clus scale="   21.874">  1  5  2 -1</clus>
</clustering>
</event>
<event>
 9    1  0.3231311E-005  0.4007972E+03  0.7546771E-02  0.1043510E+00
         21   -1    0    0  501  502  0.00000000000E+00  0.00000000000E+00  0.15062993716E+03  0.15062993716E+03  0.00000000000E+00 0. -1.
          1   -1    0    0  502    0 -0.00000000000E+00 -0.00000000000E+00 -0.17483418312E+04  0.17483418312E+04  0.00000000000E+00 0. -1.
         23    2    1    2    0    0 -0.31354322390E+03  0.32661658130E+03 -0.10528165582E+04  0.11496757086E+04  0.91344322861E+02 0.  0.
         23    2    1    2    0    0  0.18456438192E+03 -0.26781012485E+03 -0.49434762553E+03  0.59880083722E+03  0.91632929377E+02 0.  0.
        -11    1    3    3    0    0 -0.11486860793E+03  0.11052293589E+03 -0.26885034265E+03  0.31255499226E+03  0.00000000000E+00 0.  1.
         11    1    3    3    0    0 -0.19867461597E+03  0.21609364540E+03 -0.78396621551E+03  0.83712071631E+03  0.00000000000E+00 0. -1.
        -11    1    4    4    0    0  0.14544829841E+03 -0.15794688205E+03 -0.37377945793E+03  0.43106091011E+03  0.00000000000E+00 0.  1.
         11    1    4    4    0    0  0.39116083512E+02 -0.10986324280E+03 -0.12056816760E+03  0.16773992711E+03  0.00000000000E+00 0. -1.
          1    1    1    2  501    0  0.12897884199E+03 -0.58806456444E+02 -0.50547710386E+02  0.15049522260E+03  0.00000000000E+00 0. -1.
<scales pt_clust_5="13000.00000" pt_clust_6="13000.00000" pt_clust_7="13000.00000" pt_clust_8="13000.00000" pt_clust_9="141.75239"></scales>
<clustering>
<clus scale="   91.344">  5  6 -1 -1</clus>
<clus scale="   91.633">  7  8 -1 -1</clus>
<clus scale="  141.752">  1  9  2 -1</clus>
<clus scale="  400.731">  2  5  1 -1</clus>
<clus scale="  141.752">  1  5  2 -1</clus>
</clustering>
</event>
<event>
 9    1  0.3231311E-005  0.1565131E+03  0.7546771E-02  0.1192992E+00
         -1   -1    0    0    0  501 -0.00000000000E+00  0.00000000000E+00  0.51296263063E+03  0.51296263063E+03  0.00000000000E+00 0.  1.
         21   -1    0    0  501  502  0.00000000000E+00 -0.00000000000E+00 -0.14617137095E+03  0.14617137095E+03  0.00000000000E+00 0. -1.
         23    2    1    2    0    0  0.74384826002E+02  0.97145407070E+02  0.40792127249E+03  0.43538713878E+03  0.90508914529E+02 0.  0.
         23    2    1    2    0    0 -0.90025484375E+02 -0.12978668182E+03 -0.27099040996E+02  0.18492739369E+03  0.92274656849E+02 0.  0.
        -13    1    4    4    0    0 -0.16312801291E+02 -0.63652320228E+02  0.28196708368E+02  0.71503704234E+02  0.00000000000E+00 0.  1.
         13    1    4    4    0    0 -0.73712683084E+02 -0.66134361597E+02 -0.55295749364E+02  0.11342368945E+03  0.00000000000E+00 0. -1.
        -13    1    3    3    0    0  0.77996970019E+02  0.32216881715E+02  0.27046882622E+03  0.28332815031E+03  0.00000000000E+00 0.  1.
         13    1    3    3    0    0 -0.36121440165E+01  0.64928525355E+02  0.13745244627E+03  0.15205898847E+03  0.00000000000E+00 0. -1.
         -1    1    1    2    0  502  0.15640658373E+02  0.32641274754E+02 -0.14030971816E+02  0.38819469111E+02  0.00000000000E+00 0.  1.
<scales pt_clust_5="13000.00000" pt_clust_6="13000.00000" pt_clust_7="13000.00000" pt_clust_8="13000.00000" pt_clust_9="36.19507"></scales>
<clustering>
<clus scale="   36.195">  2  9  1 -1</clus>
<clus scale="   90.509">  7  8 -1 -1</clus>
<clus scale="   92.275">  5  6 -1 -1</clus>
<clus scale="  155.479">  1  7  2 -1</clus>
<clus scale="   36.195">  2  5  1 -1</clus>
</clustering>
</event>
<event>
 9    1  0.3231311E-005  0.1395469E+03  0.7546771E-02  0.1214059E+00
          1   -1    0    0  502    0 -0.00000000000E+00  0.00000000000E+00  0.87243631770E+03  0.87243631770E+03  0.00000000000E+00 0. -1.
         21   -1    0    0  501  502  0.00000000000E+00 -0.00000000000E+00 -0.42705972185E+02  0.42705972185E+02  0.00000000000E+00 0.  1.
         23    2    1    2    0    0  0.30177040680E+02 -0.10545812899E+03  0.69463877505E+03  0.70917455517E+03  0.91506563411E+02 0.  0.
         23    2    1    2    0    0 -0.38345472367E+02  0.78725306944E+02  0.11671196398E+03  0.17251363205E+03  0.92039238929E+02 0.  0.
        -11    1    4    4    0    0 -0.28240903876E+02  0.48458492421E+02  0.49722709761E+01  0.56307171995E+02  0.00000000000E+00 0.  1.
         11    1    4    4    0    0 -0.10104568490E+02  0.30266814523E+02  0.11173969301E+03  0.11620646006E+03  0.00000000000E+00 0. -1.
        -13    1    3    3    0    0 -0.32085206887E+02 -0.24800005723E+02  0.22259525509E+03  0.22625902938E+03  0.00000000000E+00 0. -1.
         13    1    3    3    0    0  0.62262247567E+02 -0.80658123264E+02  0.47204351995E+03  0.48291552579E+03  0.00000000000E+00 0.  1.
          1    1    1    2  501    0  0.81684316867E+01  0.26732822043E+02  0.18379606489E+02  0.33454102668E+02  0.00000000000E+00 0. -1.
<scales pt_clust_5="13000.00000" pt_clust_6="13000.00000" pt_clust_7="13000.00000" pt_clust_8="13000.00000" pt_clust_9="27.95294"></scales>
<clustering>
<clus scale="   27.953">  2  9  1 -1</clus>
<clus scale="   91.507">  7  8 -1 -1</clus>
<clus scale="   92.039">  5  6 -1 -1</clus>
<clus scale="  139.196">  1  7  2 -1</clus>
<clus scale="   27.953">  2  5  1 -1</clus>
</clustering>
</event>
<event>
 9    1  0.3231311E-005  0.1099462E+03  0.7546771E-02  0.1261259E+00
          1   -1    0    0  502    0 -0.00000000000E+00  0.00000000000E+00  0.17339788754E+03  0.17339788754E+03  0.00000000000E+00 0. -1.
         21   -1    0    0  501  502  0.00000000000E+00 -0.00000000000E+00 -0.10785093809E+03  0.10785093809E+03  0.00000000000E+00 0.  1.
         23    2    1    2    0    0 -0.69723109612E+02  0.56048784960E+01  0.73936499567E+02  0.13823594771E+03  0.93540603992E+02 0.  0.
         23    2    1    2    0    0  0.40923163544E+02 -0.10648348517E+02  0.18865499050E+02  0.10304149829E+03  0.92051891213E+02 0.  0.
        -11    1    3    3    0    0 -0.25521370228E+02  0.32219865812E+02 -0.75473961006E+01  0.41790229470E+02  0.00000000000E+00 0.  1.
         11    1    3    3    0    0 -0.44201739384E+02 -0.26614987316E+02  0.81483895668E+02  0.96445718244E+02  0.00000000000E+00 0. -1.
        -11    1    4    4    0    0  0.19370186195E+02 -0.49458358824E+02 -0.36951575224E+01  0.53244601228E+02  0.00000000000E+00 0. -1.
         11    1    4    4    0    0  0.21552977348E+02  0.38810010306E+02  0.22560656572E+02  0.49796897067E+02  0.00000000000E+00 0.  1.
          1    1    1    2  501    0  0.28799946068E+02  0.50434700215E+01 -0.27255049174E+02  0.39971379622E+02  0.00000000000E+00 0. -1.
<scales pt_clust_5="13000.00000" pt_clust_6="13000.00000" pt_clust_7="13000.00000" pt_clust_8="13000.00000" pt_clust_9="29.23822"></scales>
<clustering>
<clus scale="   29.238">  2  9  1 -1</clus>
<clus scale="   92.052">  7  8 -1 -1</clus>
<clus scale="   93.541">  5  6 -1 -1</clus>
<clus scale="  108.682">  2  7  1 -1</clus>
<clus scale="   29.238">  2  5  1 -1</clus>
</clustering>
</event>
<event>
 9    1  0.3231311E-005  0.1127662E+03  0.7546771E-02  0.1255568E+00
         21   -1    0    0  501  502  0.00000000000E+00  0.00000000000E+00  0.16013706167E+03  0.16013706167E+03  0.00000000000E+00 0. -1.
          1   -1    0    0  502    0 -0.00000000000E+00 -0.00000000000E+00 -0.33127143197E+03  0.33127143197E+03  0.00000000000E+00 0. -1.
         23    2    1    2    0    0  0.62200080778E+02  0.13149587276E+02 -0.25088336356E+03  0.27462173482E+03  0.91830678033E+02 0.  0.
         23    2    1    2    0    0 -0.78423733058E+02  0.18286209145E+02 -0.78493858672E+01  0.12231511113E+03  0.91731707719E+02 0.  0.
        -11    1    4    4    0    0  0.68256924461E+01 -0.24412041669E+02 -0.91849153313E+01  0.26961092809E+02  0.00000000000E+00 0. -1.
         11    1    4    4    0    0 -0.85249425505E+02  0.42698250814E+02  0.13355294641E+01  0.95354018323E+02  0.00000000000E+00 0.  1.
        -11    1    3    3    0    0  0.54115915403E+02  0.42010506399E+02 -0.22440355065E+03  0.23462814941E+03  0.00000000000E+00 0.  1.
         11    1    3    3    0    0  0.80841653754E+01 -0.28860919123E+02 -0.26479812907E+02  0.39993585410E+02  0.00000000000E+00 0. -1.
          1    1    1    2  501    0  0.16223652280E+02 -0.31435796422E+02  0.87598379131E+02  0.94471647685E+02  0.00000000000E+00 0. -1.
<scales pt_clust_5="13000.00000" pt_clust_6="13000.00000" pt_clust_7="13000.00000" pt_clust_8="13000.00000" pt_clust_9="35.37536"></scales>
<clustering>
<clus scale="   35.375">  1  9  2 -1</clus>
<clus scale="   91.732">  5  6 -1 -1</clus>
<clus scale="   91.831">  7  8 -1 -1</clus>
<clus scale="  112.686">  1  5  2 -1</clus>
<clus scale="   35.375">  1  5  2 -1</clus>
</clustering>
</event>
<event>
 9    1  0.3231311E-005  0.9297030E+02  0.7546771E-02  0.1296224E+00
         21   -1    0    0  501  502  0.00000000000E+00  0.00000000000E+00  0.10311028748E+03  0.10311028748E+03  0.00000000000E+00 0.  1.
          3   -1    0    0  502    0 -0.00000000000E+00 -0.00000000000E+00 -0.23214251049E+03  0.23214251049E+03  0.00000000000E+00 0. -1.
         23    2    1    2    0    0  0.50589350217E+01  0.13127652919E+02 -0.15720381925E+03  0.18173322784E+03  0.90088829597E+02 0.  0.
         23    2    1    2    0    0 -0.17739340572E+02 -0.52151475210E+02  0.35194704948E+02  0.11189054844E+03  0.90809509434E+02 0.  0.
        -11    1    3    3    0    0  0.36927003061E+02 -0.14706328664E+02 -0.37014225693E+02  0.54313281631E+02  0.00000000000E+00 0.  1.
         11    1    3    3    0    0 -0.31868068040E+02  0.27833981583E+02 -0.12018959356E+03  0.12741994621E+03  0.00000000000E+00 0. -1.
        -13    1    4    4    0    0 -0.22989928927E+02 -0.77001411796E+02  0.22250427970E+02  0.83383666239E+02  0.00000000000E+00 0.  1.
         13    1    4    4    0    0  0.52505883559E+01  0.24849936586E+02  0.12944276978E+02  0.28506882202E+02  0.00000000000E+00 0. -1.
          3    1    1    2  501    0  0.12680405550E+02  0.39023822291E+02 -0.70231087130E+01  0.41629021693E+02  0.00000000000E+00 0. -1.
<scales pt_clust_5="13000.00000" pt_clust_6="13000.00000" pt_clust_7="13000.00000" pt_clust_8="13000.00000" pt_clust_9="41.03232"></scales>
<clustering>
<clus scale="   41.032">  1  9  2 -1</clus>
<clus scale="   90.089">  5  6 -1 -1</clus>
<clus scale="   90.810">  7  8 -1 -1</clus>
<clus scale="   92.266">  2  5  1 -1</clus>
<clus scale="   41.032">  1  5  2 -1</clus>
</clustering>
</event>
<event>
 9    1  0.3231311E-005  0.1023487E+03  0.7546771E-02  0.1275905E+00
         21   -1    0    0  501  502  0.00000000000E+00  0.00000000000E+00  0.19219747279E+03  0.19219747279E+03  0.00000000000E+00 0. -1.
         -1   -1    0    0    0  501 -0.00000000000E+00 -0.00000000000E+00 -0.11565032017E+03  0.11565032017E+03  0.00000000000E+00 0.  1.
         23    2    1    2    0    0 -0.44235748669E+02 -0.16612313262E+02 -0.61053838551E+02  0.11901509009E+03  0.90577315346E+02 0.  0.
         23    2    1    2    0    0  0.27877524730E+02  0.30109014669E+02  0.13383319031E+03  0.16729323298E+03  0.91607826217E+02 0.  0.
        -11    1    4    4    0    0  0.83541820070E+01  0.58718927818E+02  0.11086640629E+03  0.12573410391E+03  0.00000000000E+00 0. -1.
         11    1    4    4    0    0  0.19523342723E+02 -0.28609913149E+02  0.22966784017E+02  0.41559129076E+02  0.00000000000E+00 0.  1.
        -11    1    3    3    0    0 -0.57143235239E+02 -0.37522552375E+02 -0.64758153702E+02  0.94164269982E+02  0.00000000000E+00 0.  1.
         11    1    3    3    0    0  0.12907486570E+02  0.20910239114E+02  0.37043151511E+01  0.24850820109E+02  0.00000000000E+00 0. -1.
         -1    1    1    2    0  502  0.16358223940E+02 -0.13496701407E+02  0.37678008641E+01  0.21539469879E+02  0.00000000000E+00 0.  1.
<scales pt_clust_5="13000.00000" pt_clust_6="13000.00000" pt_clust_7="13000.00000" pt_clust_8="13000.00000" pt_clust_9="21.20738"></scales>
<clustering>
<clus scale="   21.207">  1  9  2 -1</clus>
<clus scale="   90.577">  7  8 -1 -1</clus>
<clus scale="   91.608">  5  6 -1 -1</clus>
<clus scale="  101.427">  2  7  1 -1</clus>
<clus scale="   21.207">  1  5  2 -1</clus>
</clustering>
</event>
<event>
 9    1  0.3231311E-005  0.9528096E+02  0.7546771E-02  0.1290949E+00
         21   -1    0    0  501  502  0.00000000000E+00  0.00000000000E+00  0.53220000220E+02  0.53220000220E+02  0.00000000000E+00 0. -1.
         -2   -1    0    0    0  501 -0.00000000000E+00 -0.00000000000E+00 -0.29151230301E+03  0.29151230301E+03  0.00000000000E+00 0.  1.
         23    2    1    2    0    0  0.24700285535E+02 -0.18840934596E+02 -0.18075218149E+03  0.20513995308E+03  0.91901927700E+02 0.  0.
         23    2    1    2    0    0 -0.67945720832E+01 -0.97881193148E+01 -0.41483864168E+02  0.10220196776E+03  0.92641015422E+02 0.  0.
        -11    1    4    4    0    0  0.11459794797E+02 -0.23261872785E+02  0.22489041604E+02  0.34324897880E+02  0.00000000000E+00 0. -1.
         11    1    4    4    0    0 -0.18254366880E+02  0.13473753470E+02 -0.63972905772E+02  0.67877069881E+02  0.00000000000E+00 0.  1.
        -13    1    3    3    0    0  0.27895770482E+02  0.26249371527E+02 -0.13691198518E+03  0.14216924845E+03  0.00000000000E+00 0.  1.
         13    1    3    3    0    0 -0.31954849473E+01 -0.45090306124E+02 -0.43840196308E+02  0.62970704639E+02  0.00000000000E+00 0. -1.
         -2    1    1    2    0  502 -0.17905713452E+02  0.28629053911E+02 -0.16056257133E+02  0.37390382389E+02  0.00000000000E+00 0.  1.
<scales pt_clust_5="13000.00000" pt_clust_6="13000.00000" pt_clust_7="13000.00000" pt_clust_8="13000.00000" pt_clust_9="33.76740"></scales>
<clustering>
<clus scale="   33.767">  1  9  2 -1</clus>
<clus scale="   91.902">  7  8 -1 -1</clus>
<clus scale="   92.641">  5  6 -1 -1</clus>
<clus scale="   94.563">  2  7  1 -1</clus>
<clus scale="   33.767">  1  5  2 -1</clus>
</clustering>
</event>
<event>
 9    1  0.3231311E-005  0.1227342E+03  0.7546771E-02  0.1242678E+00
         -1   -1    0    0    0  501 -0.00000000000E+00  0.00000000000E+00  0.46852239075E+03  0.46852239075E+03  0.00000000000E+00 0.  1.
         21   -1    0    0  501  502  0.00000000000E+00 -0.00000000000E+00 -0.60580095997E+02  0.60580095997E+02  0.00000000000E+00 0. -1.
         23    2    1    2    0    0  0.29395399959E+02 -0.73530154567E+02  0.31175208449E+03  0.33330571462E+03  0.87364546833E+02 0.  0.
         23    2    1    2    0    0 -0.13848803689E+02  0.54608364361E+02  0.11704376275E+03  0.16363155098E+03  0.99509694279E+02 0.  0.
        -11    1    4    4    0    0 -0.46602215628E+02  0.16285132870E+02  0.98019061950E+02  0.10974838750E+03  0.00000000000E+00 0.  1.
         11    1    4    4    0    0  0.32753411939E+02  0.38323231491E+02  0.19024700797E+02  0.53883163474E+02  0.00000000000E+00 0. -1.
        -13    1    3    3    0    0  0.24648091927E+02  0.13914006599E+02  0.52224826783E+02  0.59401688089E+02  0.00000000000E+00 0.  1.
         13    1    3    3    0    0  0.47473080315E+01 -0.87444161166E+02  0.25952725771E+03  0.27390402653E+03  0.00000000000E+00 0. -1.
         -1    1    1    2    0  502 -0.15546596270E+02  0.18921790206E+02 -0.20853552488E+02  0.32165221148E+02  0.00000000000E+00 0.  1.
<scales pt_clust_5="13000.00000" pt_clust_6="13000.00000" pt_clust_7="13000.00000" pt_clust_8="13000.00000" pt_clust_9="24.48940"></scales>
<clustering>
<clus scale="   24.489">  2  9  1 -1</clus>
<clus scale="   87.365">  7  8 -1 -1</clus>
<clus scale="   99.510">  5  6 -1 -1</clus>
<clus scale="  113.111">  1  7  2 -1</clus>
<clus scale="   24.489">  2  5  1 -1</clus>
</clustering>
</event>
<event>
 9    1  0.3231311E-005  0.1100939E+03  0.7546771E-02  0.1261057E+00
          3   -1    0    0  502    0 -0.00000000000E+00  0.00000000000E+00  0.27633150245E+03  0.27633150245E+03  0.00000000000E+00 0. -1.
         21   -1    0    0  501  502  0.00000000000E+00 -0.00000000000E+00 -0.13129776959E+03  0.13129776959E+03  0.00000000000E+00 0. -1.
         23    2    1    2    0    0  0.74019857156E+02 -0.11400465911E+02  0.16144742673E+03  0.20098912850E+03  0.93394048516E+02 0.  0.
         23    2    1    2    0    0 -0.35820134776E+02 -0.16934658362E+02  0.60068545257E+02  0.11657555028E+03  0.91715669788E+02 0.  0.
        -11    1    3    3    0    0  0.57739523367E+02  0.35083993490E+02  0.11449025724E+03  0.13293892643E+03  0.00000000000E+00 0. -1.
         11    1    3    3    0    0  0.16280333789E+02 -0.46484459401E+02  0.46957169491E+02  0.68050202062E+02  0.00000000000E+00 0.  1.
        -11    1    4    4    0    0 -0.57719271156E+02  0.39875421431E+01  0.63721594615E+02  0.86068904811E+02  0.00000000000E+00 0.  1.
         11    1    4    4    0    0  0.21899136380E+02 -0.20922200505E+02 -0.36530493579E+01  0.30506645469E+02  0.00000000000E+00 0. -1.
          3    1    1    2  501    0 -0.38199722380E+02  0.28335124273E+02 -0.76482239134E+02  0.90064593267E+02  0.00000000000E+00 0. -1.
<scales pt_clust_5="13000.00000" pt_clust_6="13000.00000" pt_clust_7="13000.00000" pt_clust_8="13000.00000" pt_clust_9="47.56152"></scales>
<clustering>
<clus scale="   47.562">  2  9  1 -1</clus>
<clus scale="   91.716">  7  8 -1 -1</clus>
<clus scale="   93.394">  5  6 -1 -1</clus>
<clus scale="  108.674">  2  7  1 -1</clus>
<clus scale="   47.562">  2  5  1 -1</clus>
</clustering>
</event>
<event>
 9    1  0.3231311E-005  0.9647551E+02  0.7546771E-02  0.1288768E+00
         21   -1    0    0  501  502  0.00000000000E+00  0.00000000000E+00  0.11307649587E+03  0.11307649587E+03  0.00000000000E+00 0.  1.
          2   -1    0    0  502    0 -0.00000000000E+00 -0.00000000000E+00 -0.20949614538E+03  0.20949614538E+03  0.00000000000E+00 0. -1.
         23    2    1    2    0    0 -0.15654371541E+02  0.41050751238E+02 -0.14301591616E+03  0.17494894200E+03  0.90682724409E+02 0.  0.
         23    2    1    2    0    0  0.31223374659E+01  0.49710704336E+01  0.15085189572E+02  0.90457206206E+02  0.88997093647E+02 0.  0.
        -11    1    3    3    0    0 -0.51119107163E+02  0.37705173612E+02 -0.75964659021E+02  0.99022586587E+02  0.00000000000E+00 0. -1.
         11    1    3    3    0    0  0.35464735622E+02  0.33455776263E+01 -0.67051257137E+02  0.75926355411E+02  0.00000000000E+00 0.  1.
        -11    1    4    4    0    0  0.14543263146E+01  0.33911583261E+02  0.39838947269E+02  0.52337866443E+02  0.00000000000E+00 0.  1.
         11    1    4    4    0    0  0.16680111513E+01 -0.28940512827E+02 -0.24753757696E+02  0.38119339763E+02  0.00000000000E+00 0. -1.
          2    1    1    2  501    0  0.12532034075E+02 -0.46021821671E+02  0.31511077082E+02  0.57166493043E+02  0.00000000000E+00 0. -1.
<scales pt_clust_5="13000.00000" pt_clust_6="13000.00000" pt_clust_7="13000.00000" pt_clust_8="13000.00000" pt_clust_9="47.69759"></scales>
<clustering>
<clus scale="   47.698">  1  9  2 -1</clus>
<clus scale="   88.997">  7  8 -1 -1</clus>
<clus scale="   90.683">  5  6 -1 -1</clus>
<clus scale="   94.893">  1  7  2 -1</clus>
<clus scale="   47.698">  1  5  2 -1</clus>
</clustering>
</event>
<event>
 9    1  0.3231311E-005  0.1134012E+03  0.7546771E-02  0.1256741E+00
         21   -1    0    0  501  502  0.00000000000E+00  0.00000000000E+00  0.61944370845E+02  0.61944370845E+02  0.00000000000E+00 0. -1.
          4   -1    0    0  502    0 -0.00000000000E+00 -0.00000000000E+00 -0.38121841128E+03  0.38121841128E+03  0.00000000000E+00 0. -1.
         23    2    1    2    0    0  0.32654671798E+02  0.58475114557E+02 -0.21426853242E+03  0.24105297890E+03  0.87805854241E+02 0.  0.
         23    2    1    2    0    0 -0.66357285078E+02 -0.51993736806E+02 -0.11731447455E+03  0.16564907014E+03  0.81057328788E+02 0.  0.
        -11    1    3    3    0    0 -0.26625365598E+02  0.16326674541E+02 -0.31574742917E+02  0.44412101787E+02  0.00000000000E+00 0. -1.
         11    1    3    3    0    0  0.59280037396E+02  0.42148440016E+02 -0.18269378950E+03  0.19664087711E+03  0.00000000000E+00 0.  1.
        -11    1    4    4    0    0 -0.47088777383E+02  0.30014948087E+01 -0.89283450563E+02  0.10098463483E+03  0.00000000000E+00 0. -1.
         11    1    4    4    0    0 -0.19268507695E+02 -0.54995231615E+02 -0.28031023988E+02  0.64664435318E+02  0.00000000000E+00 0.  1.
          4    1    1    2  501    0  0.33702613280E+02 -0.64813777513E+01  0.12308966538E+02  0.36460733079E+02  0.00000000000E+00 0. -1.
<scales pt_clust_5="13000.00000" pt_clust_6="13000.00000" pt_clust_7="13000.00000" pt_clust_8="13000.00000" pt_clust_9="34.32017"></scales>
<clustering>
<clus scale="   34.320">  1  9  2 -1</clus>
<clus scale="   81.057">  7  8 -1 -1</clus>
<clus scale="   87.806">  5  6 -1 -1</clus>
<clus scale="  108.260">  1  7  2 -1</clus>
<clus scale="   34.320">  1  5  2 -1</clus>
</clustering>
</event>
<event>
 9    1  0.3231311E-005  0.1224251E+03  0.7546771E-02  0.1241764E+00
         -2   -1    0    0    0  501 -0.00000000000E+00  0.00000000000E+00  0.51822356534E+03  0.51822356534E+03  0.00000000000E+00 0.  1.
         21   -1    0    0  501  502  0.00000000000E+00 -0.00000000000E+00 -0.48264506984E+02  0.48264506984E+02  0.00000000000E+00 0.  1.
         23    2    1    2    0    0  0.70044958439E+02  0.49837890549E+02  0.26184361706E+03  0.29249384609E+03  0.97981930328E+02 0.  0.
         23    2    1    2    0    0 -0.20016110997E+02 -0.65617708376E+02  0.18460206372E+03  0.21650712201E+03  0.89950450789E+02 0.  0.
        -11    1    3    3    0    0  0.77092128816E+02  0.87735438120E+01  0.10718155098E+03  0.13231801187E+03  0.00000000000E+00 0.  1.
         11    1    3    3    0    0 -0.70471703764E+01  0.41064346737E+02  0.15466206608E+03  0.16017583422E+03  0.00000000000E+00 0. -1.
        -13    1    4    4    0    0 -0.51989904379E+02 -0.17313322240E+02  0.98857344145E+02  0.11302865024E+03  0.00000000000E+00 0. -1.
         13    1    4    4    0    0  0.31973793381E+02 -0.48304386136E+02  0.85744719575E+02  0.10347847176E+03  0.00000000000E+00 0.  1.
         -2    1    1    2    0  502 -0.50028847442E+02  0.15779817827E+02  0.23513377574E+02  0.57487104223E+02  0.00000000000E+00 0.  1.
<scales pt_clust_5="13000.00000" pt_clust_6="13000.00000" pt_clust_7="13000.00000" pt_clust_8="13000.00000" pt_clust_9="52.45844"></scales>
<clustering>
<clus scale="   52.458">  2  9  1 -1</clus>
<clus scale="   89.950">  7  8 -1 -1</clus>
<clus scale="   97.982">  5  6 -1 -1</clus>
<clus scale="  116.097">  2  7  1 -1</clus>
<clus scale="   52.458">  2  5  1 -1</clus>
</clustering>
</event>
<event>
 9    1  0.3231311E-005  0.1040973E+03  0.7546771E-02  0.1273233E+00
         21   -1    0    0  501  502  0.00000000000E+00  0.00000000000E+00  0.22237925804E+03  0.22237925804E+03  0.00000000000E+00 0.  1.
          1   -1    0    0  502    0 -0.00000000000E+00 -0.00000000000E+00 -0.14546546745E+03  0.14546546745E+03  0.00000000000E+00 0. -1.
         23    2    1    2    0    0  0.23993586169E+02  0.26601024713E+02 -0.63389694719E+02  0.11845429769E+03  0.93433722770E+02 0.  0.
         23    2    1    2    0    0 -0.37918135376E+02 -0.57542140111E+02  0.93770300803E+01  0.11413887562E+03  0.90503432834E+02 0.  0.
        -11    1    4    4    0    0 -0.58784421546E+02 -0.40270745500E+02 -0.20169660124E+02  0.74055089961E+02  0.00000000000E+00 0.  1.
         11    1    4    4    0    0  0.20866286171E+02 -0.17271394611E+02  0.29546690204E+02  0.40083785654E+02  0.00000000000E+00 0. -1.
        -13    1    3    3    0    0  0.52942639406E+02  0.40212409054E+02 -0.32563253600E+02  0.74029226622E+02  0.00000000000E+00 0. -1.
         13    1    3    3    0    0 -0.28949053237E+02 -0.13611384341E+02 -0.30826441119E+02  0.44425071064E+02  0.00000000000E+00 0.  1.
          1    1    1    2  501    0  0.13924549206E+02  0.30941115398E+02  0.13092645523E+03  0.13525155220E+03  0.00000000000E+00 0. -1.
<scales pt_clust_5="13000.00000" pt_clust_6="13000.00000" pt_clust_7="13000.00000" pt_clust_8="13000.00000" pt_clust_9="33.93001"></scales>
<clustering>
<clus scale="   33.930">  1  9  2 -1</clus>
<clus scale="   90.503">  5  6 -1 -1</clus>
<clus scale="   93.434">  7  8 -1 -1</clus>
<clus scale="  101.475">  1  5  2 -1</clus>
<clus scale="   33.930">  1  5  2 -1</clus>
</clustering>
</event>
<event>
 9    1  0.3231311E-005  0.1306198E+03  0.7546771E-02  0.1227080E+00
         21   -1    0    0  501  502  0.00000000000E+00  0.00000000000E+00  0.16968563075E+03  0.16968563075E+03  0.00000000000E+00 0. -1.
          2   -1    0    0  502    0 -0.00000000000E+00 -0.00000000000E+00 -0.50660547383E+03  0.50660547383E+03  0.00000000000E+00 0. -1.
         23    2    1    2    0    0  0.89405288257E+02  0.49393159491E+02 -0.33779311602E+03  0.36494254228E+03  0.92983225187E+02 0.  0.
         23    2    1    2    0    0 -0.33129492272E+02 -0.77794035401E+02 -0.12148344703E+03  0.17370866297E+03  0.90923025054E+02 0.  0.
        -11    1    4    4    0    0 -0.64685817833E+02 -0.57800799404E+02 -0.82448334669E+02  0.11967838289E+03  0.00000000000E+00 0.  1.
         11    1    4    4    0    0  0.31556325561E+02 -0.19993235997E+02 -0.39035112364E+02  0.54030280082E+02  0.00000000000E+00 0. -1.
        -13    1    3    3    0    0  0.56783167079E+02  0.62792198695E+02 -0.13678632227E+03  0.16086542898E+03  0.00000000000E+00 0.  1.
         13    1    3    3    0    0  0.32622121178E+02 -0.13399039204E+02 -0.20100679375E+03  0.20407711330E+03  0.00000000000E+00 0. -1.
          2    1    1    2  501    0 -0.56275795985E+02  0.28400875910E+02  0.12235671997E+03  0.13763989933E+03  0.00000000000E+00 0. -1.
<scales pt_clust_5="13000.00000" pt_clust_6="13000.00000" pt_clust_7="13000.00000" pt_clust_8="13000.00000" pt_clust_9="63.03630"></scales>
<clustering>
<clus scale="   63.036">  1  9  2 -1</clus>
<clus scale="   90.923">  5  6 -1 -1</clus>
<clus scale="   92.983">  7  8 -1 -1</clus>
<clus scale="  129.161">  1  5  2 -1</clus>
<clus scale="   63.036">  1  5  2 -1</clus>
</clustering>
</event>
<event>
 9    1  0.3231311E-005  0.1474211E+03  0.7546771E-02  0.1212409E+00
         -3   -1    0    0    0  501 -0.00000000000E+00  0.00000000000E+00  0.94158218657E+03  0.94158218657E+03  0.00000000000E+00 0.  1.
         21   -1    0    0  501  502  0.00000000000E+00 -0.00000000000E+00 -0.42509192433E+02  0.42509192433E+02  0.00000000000E+00 0.  1.
         23    2    1    2    0    0  0.23182834514E+01  0.86293287987E+02  0.34020756614E+03  0.36151253632E+03  0.86592262183E+02 0.  0.
         23    2    1    2    0    0 -0.99282441797E+02  0.80809826179E+01  0.31515337744E+03  0.34382426507E+03  0.94716252066E+02 0.  0.
        -13    1    3    3    0    0 -0.25182477450E+02  0.90191784755E+02  0.24313373852E+03  0.26054314425E+03  0.00000000000E+00 0.  1.
         13    1    3    3    0    0  0.27500760901E+02 -0.38984967685E+01  0.97073827618E+02  0.10096939207E+03  0.00000000000E+00 0. -1.
        -13    1    4    4    0    0 -0.86541082621E+02  0.45014283713E+02  0.20707574390E+03  0.22890174405E+03  0.00000000000E+00 0.  1.
         13    1    4    4    0    0 -0.12741359176E+02 -0.36933301095E+02  0.10807763355E+03  0.11492252102E+03  0.00000000000E+00 0. -1.
         -3    1    1    2    0  502  0.96964158346E+02 -0.94374270605E+02  0.24371205056E+03  0.27875457762E+03  0.00000000000E+00 0.  1.
<scales pt_clust_5="13000.00000" pt_clust_6="13000.00000" pt_clust_7="13000.00000" pt_clust_8="13000.00000" pt_clust_9="112.96829"></scales>
<clustering>
<clus scale="   86.592">  5  6 -1 -1</clus>
<clus scale="   94.716">  7  8 -1 -1</clus>
<clus scale="  122.271">  1  5  2 -1</clus>
<clus scale="  112.968">  2  9  1 -1</clus>
<clus scale="  112.968">  2  5  1 -1</clus>
</clustering>
</event>
<event>
 9    1  0.3231311E-005  0.1060681E+03  0.7546771E-02  0.1268627E+00
         21   -1    0    0  501  502  0.00000000000E+00  0.00000000000E+00  0.17332732076E+03  0.17332732076E+03  0.00000000000E+00 0.  1.
          2   -1    0    0  502    0 -0.00000000000E+00 -0.00000000000E+00 -0.10103037928E+03  0.10103037928E+03  0.00000000000E+00 0. -1.
         23    2    1    2    0    0  0.35787038587E+02  0.37164672802E+02  0.22007446423E+02  0.10833091363E+03  0.92678660518E+02 0.  0.
         23    2    1    2    0    0 -0.62291245827E+02  0.18077343400E+01  0.41661677185E+02  0.11811268867E+03  0.91276747695E+02 0.  0.
        -13    1    3    3    0    0  0.46736446090E+01  0.61536235554E+02  0.29011881056E+02  0.68192671765E+02  0.00000000000E+00 0.  1.
         13    1    3    3    0    0  0.31113393978E+02 -0.24371562752E+02 -0.70044346328E+01  0.40138241869E+02  0.00000000000E+00 0. -1.
        -13    1    4    4    0    0 -0.42054907952E+02  0.25863659715E+02  0.63057879742E+02  0.80086455623E+02  0.00000000000E+00 0.  1.
         13    1    4    4    0    0 -0.20236337875E+02 -0.24055925375E+02 -0.21396202557E+02  0.38026233052E+02  0.00000000000E+00 0. -1.
          2    1    1    2  501    0  0.26504207240E+02 -0.38972407142E+02  0.86278178689E+01  0.47914097728E+02  0.00000000000E+00 0. -1.
<scales pt_clust_5="13000.00000" pt_clust_6="13000.00000" pt_clust_7="13000.00000" pt_clust_8="13000.00000" pt_clust_9="47.13092"></scales>
<clustering>
<clus scale="   47.131">  1  9  2 -1</clus>
<clus scale="   91.277">  7  8 -1 -1</clus>
<clus scale="   92.679">  5  6 -1 -1</clus>
<clus scale="  104.845">  1  7  2 -1</clus>
<clus scale="   47.131">  1  5  2 -1</clus>
</clustering>
</event>
<event>
 9    1  0.3231311E-005  0.1019436E+03  0.7546771E-02  0.1276769E+00
         21   -1    0    0  501  502  0.00000000000E+00  0.00000000000E+00  0.41788003069E+02  0.41788003069E+02  0.00000000000E+00 0. -1.
          1   -1    0    0  502    0 -0.00000000000E+00 -0.00000000000E+00 -0.50655994531E+03  0.50655994531E+03  0.00000000000E+00 0. -1.
         23    2    1    2    0    0 -0.40725404071E+02 -0.10509497246E+02 -0.32621455365E+03  0.34172856807E+03  0.92700977083E+02 0.  0.
         23    2    1    2    0    0  0.34763612370E+02  0.30906263509E+02 -0.15051061385E+03  0.18223802209E+03  0.91616297367E+02 0.  0.
        -11    1    3    3    0    0 -0.68053783126E+02  0.31340718548E+00 -0.26811081697E+03  0.27661313381E+03  0.00000000000E+00 0. -1.
         11    1    3    3    0    0  0.27328379055E+02 -0.10822904432E+02 -0.58103736688E+02  0.65115434263E+02  0.00000000000E+00 0.  1.
        -13    1    4    4    0    0  0.35677386189E+02 -0.15479402038E+02 -0.20011667921E+02  0.43737336747E+02  0.00000000000E+00 0.  1.
         13    1    4    4    0    0 -0.91377381909E+00  0.46385665546E+02 -0.13049894593E+03  0.13850068534E+03  0.00000000000E+00 0. -1.
          1    1    1    2  501    0  0.59617917012E+01 -0.20396766262E+02  0.11953225266E+02  0.24381358217E+02  0.00000000000E+00 0. -1.
<scales pt_clust_5="13000.00000" pt_clust_6="13000.00000" pt_clust_7="13000.00000" pt_clust_8="13000.00000" pt_clust_9="21.25020"></scales>
<clustering>
<clus scale="   21.250">  1  9  2 -1</clus>
<clus scale="   91.616">  7  8 -1 -1</clus>
<clus scale="   92.701">  5  6 -1 -1</clus>
<clus scale="  100.958">  1  7  2 -1</clus>
<clus scale="   21.250">  1  5  2 -1</clus>
</clustering>
</event>
<event>
 9    1  0.3231311E-005  0.1525602E+03  0.7546771E-02  0.1197713E+00
         21   -1    0    0  501  502  0.00000000000E+00  0.00000000000E+00  0.41582959971E+03  0.41582959971E+03  0.00000000000E+00 0. -1.
         -4   -1    0    0    0  501 -0.00000000000E+00 -0.00000000000E+00 -0.83458727444E+02  0.83458727444E+02  0.00000000000E+00 0.  1.
         23    2    1    2    0    0 -0.11652068096E+03  0.41755400028E+02  0.58456218815E+02  0.16394335726E+03  0.90220354394E+02 0.  0.
         23    2    1    2    0    0  0.12086659737E+03 -0.51335023236E+01  0.18773095999E+03  0.24160234672E+03  0.92161235872E+02 0.  0.
        -11    1    4    4    0    0  0.75489626334E+02  0.22504627117E+02  0.48324643822E+02  0.92414355628E+02  0.00000000000E+00 0. -1.
         11    1    4    4    0    0  0.45376971037E+02 -0.27638129441E+02  0.13940631617E+03  0.14918799109E+03  0.00000000000E+00 0.  1.
        -13    1    3    3    0    0 -0.19398083157E+02  0.26748421764E+02 -0.19620740865E+02  0.38428338100E+02  0.00000000000E+00 0.  1.
         13    1    3    3    0    0 -0.97122597804E+02  0.15006978264E+02  0.78076959680E+02  0.12551501916E+03  0.00000000000E+00 0. -1.
         -4    1    1    2    0  502 -0.43459164085E+01 -0.36621897704E+02  0.86183693465E+02  0.93742623177E+02  0.00000000000E+00 0.  1.
<scales pt_clust_5="13000.00000" pt_clust_6="13000.00000" pt_clust_7="13000.00000" pt_clust_8="13000.00000" pt_clust_9="36.87886"></scales>
<clustering>
<clus scale="   36.879">  1  9  2 -1</clus>
<clus scale="   90.220">  7  8 -1 -1</clus>
<clus scale="   92.161">  5  6 -1 -1</clus>
<clus scale="  151.396">  2  7  1 -1</clus>
<clus scale="   36.879">  1  5  2 -1</clus>
</clustering>
</event>
<event>
 9    1  0.3231311E-005  0.9692794E+02  0.7546771E-02  0.1286892E+00
         21   -1    0    0  501  502  0.00000000000E+00  0.00000000000E+00  0.18943524603E+03  0.18943524603E+03  0.00000000000E+00 0.  1.
         -1   -1    0    0    0  501 -0.00000000000E+00 -0.00000000000E+00 -0.78609414070E+02  0.78609414070E+02  0.00000000000E+00 0.  1.
         23    2    1    2    0    0  0.39526332799E+02 -0.31956002775E+01  0.50453794330E+01  0.98800086260E+02  0.90351858562E+02 0.  0.
         23    2    1    2    0    0 -0.23874906862E+02 -0.25551131017E+02  0.92411074353E+02  0.13388807562E+03  0.90351196206E+02 0.  0.
        -11    1    4    4    0    0  0.50500110189E+01 -0.53208573975E+02  0.34936737420E+02  0.63853195514E+02  0.00000000000E+00 0.  1.
         11    1    4    4    0    0 -0.28924917881E+02  0.27657442959E+02  0.57474336933E+02  0.70034880105E+02  0.00000000000E+00 0. -1.
        -13    1    3    3    0    0  0.40785359136E+02 -0.39604859410E+02  0.18770790029E+02  0.59869299036E+02  0.00000000000E+00 0.  1.
         13    1    3    3    0    0 -0.12590263371E+01  0.36409259132E+02 -0.13725410596E+02  0.38930787224E+02  0.00000000000E+00 0. -1.
         -1    1    1    2    0  502 -0.15651425937E+02  0.28746731294E+02  0.13369378180E+02  0.35356498227E+02  0.00000000000E+00 0.  1.
<scales pt_clust_5="13000.00000" pt_clust_6="13000.00000" pt_clust_7="13000.00000" pt_clust_8="13000.00000" pt_clust_9="32.73137"></scales>
<clustering>
<clus scale="   32.731">  1  9  2 -1</clus>
<clus scale="   90.351">  5  6 -1 -1</clus>
<clus scale="   90.352">  7  8 -1 -1</clus>
<clus scale="   96.927">  1  5  2 -1</clus>
<clus scale="   32.731">  1  5  2 -1</clus>
</clustering>
</event>
<event>
 9    1  0.3231311E-005  0.1043094E+03  0.7546771E-02  0.1273656E+00
         -1   -1    0    0    0  501 -0.00000000000E+00  0.00000000000E+00  0.49457267033E+02  0.49457267033E+02  0.00000000000E+00 0.  1.
         21   -1    0    0  501  502  0.00000000000E+00 -0.00000000000E+00 -0.60104981472E+03  0.60104981472E+03  0.00000000000E+00 0. -1.
         23    2    1    2    0    0 -0.33556927935E+02  0.26836281440E+02 -0.33106065907E+02  0.10490240901E+03  0.89790035094E+02 0.  0.
         23    2    1    2    0    0  0.67765447753E+02  0.94478727513E+01 -0.40854550894E+03  0.42488276014E+03  0.94522530540E+02 0.  0.
        -11    1    4    4    0    0  0.56710390782E+02 -0.36935140442E+02 -0.27035761042E+03  0.27869967803E+03  0.00000000000E+00 0. -1.
         11    1    4    4    0    0  0.11055056971E+02  0.46383013193E+02 -0.13818789852E+03  0.14618308211E+03  0.00000000000E+00 0.  1.
        -13    1    3    3    0    0 -0.11033130185E+02  0.18824988755E+02 -0.62973042152E+02  0.66646186697E+02  0.00000000000E+00 0. -1.
         13    1    3    3    0    0 -0.22523797751E+02  0.80112926851E+01  0.29866976246E+02  0.38256222313E+02  0.00000000000E+00 0.  1.
         -1    1    1    2    0  502 -0.34208519818E+02 -0.36284154191E+02 -0.10994097284E+03  0.12072191260E+03  0.00000000000E+00 0.  1.
<scales pt_clust_5="13000.00000" pt_clust_6="13000.00000" pt_clust_7="13000.00000" pt_clust_8="13000.00000" pt_clust_9="49.86745"></scales>
<clustering>
<clus scale="   49.867">  2  9  1 -1</clus>
<clus scale="   89.790">  7  8 -1 -1</clus>
<clus scale="   94.523">  5  6 -1 -1</clus>
<clus scale="  100.041">  1  7  2 -1</clus>
<clus scale="   49.867">  2  5  1 -1</clus>
</clustering>
</event>
<event>
 9    1  0.3231311E-005  0.3193561E+03  0.7546771E-02  0.1076032E+00
         21   -1    0    0  501  502  0.00000000000E+00  0.00000000000E+00  0.79382855813E+02  0.79382855813E+02  0.00000000000E+00 0.  1.
          1   -1    0    0  502    0 -0.00000000000E+00 -0.00000000000E+00 -0.24820453587E+04  0.24820453587E+04  0.00000000000E+00 0. -1.
         23    2    1    2    0    0  0.25904848103E+03 -0.13456891528E+03 -0.13070376013E+04  0.13423142856E+04  0.90804413746E+02 0.  0.
         23    2    1    2    0    0 -0.36292234172E+03  0.14754560018E+02 -0.73450923060E+03  0.82471592375E+03  0.93392836443E+02 0.  0.
        -11    1    4    4    0    0 -0.22380146536E+03 -0.33675730534E+02 -0.47921156939E+03  0.52996686591E+03  0.00000000000E+00 0.  1.
         11    1    4    4    0    0 -0.13912087636E+03  0.48430290552E+02 -0.25529766121E+03  0.29474905784E+03  0.00000000000E+00 0. -1.
        -11    1    3    3    0    0  0.47288179768E+02  0.10065037939E+02 -0.24825879013E+03  0.25292272301E+03  0.00000000000E+00 0.  1.
         11    1    3    3    0    0  0.21176030126E+03 -0.14463395322E+03 -0.10587788112E+04  0.10893915626E+04  0.00000000000E+00 0. -1.
          1    1    1    2  501    0  0.10387386069E+03  0.11981435526E+03 -0.36111567099E+03  0.39439800519E+03  0.00000000000E+00 0. -1.
<scales pt_clust_5="13000.00000" pt_clust_6="13000.00000" pt_clust_7="13000.00000" pt_clust_8="13000.00000" pt_clust_9="158.57257"></scales>
<clustering>
<clus scale="   90.804">  7  8 -1 -1</clus>
<clus scale="   93.393">  5  6 -1 -1</clus>
<clus scale="  158.573">  1  9  2 -1</clus>
<clus scale="  318.609">  2  7  1 -1</clus>
<clus scale="  158.573">  1  5  2 -1</clus>
</clustering>
</event>
<event>
 9    1  0.3231311E-005  0.1061370E+03  0.7546771E-02  0.1270450E+00
         21   -1    0    0  501  502  0.00000000000E+00  0.00000000000E+00  0.71648905945E+02  0.71648905945E+02  0.00000000000E+00 0. -1.
          1   -1    0    0  502    0 -0.00000000000E+00 -0.00000000000E+00 -0.48608890150E+03  0.48608890150E+03  0.00000000000E+00 0. -1.
         23    2    1    2    0    0 -0.40439077989E+02 -0.26547511334E+02 -0.34242136502E+03  0.35637950737E+03  0.86103848140E+02 0.  0.
         23    2    1    2    0    0  0.33713674680E+02  0.80498655008E+02 -0.74174151669E+02  0.14694687458E+03  0.92059403938E+02 0.  0.
        -11    1    3    3    0    0 -0.63715804336E+02 -0.75450375777E+00 -0.20805283990E+03  0.21759195111E+03  0.00000000000E+00 0. -1.
         11    1    3    3    0    0  0.23276726347E+02 -0.25793007576E+02 -0.13436852511E+03  0.13878755625E+03  0.00000000000E+00 0.  1.
        -11    1    4    4    0    0 -0.20422175488E+02  0.29450805692E+01 -0.42432569656E+02  0.47183277957E+02  0.00000000000E+00 0.  1.
         11    1    4    4    0    0  0.54135850167E+02  0.77553574439E+02 -0.31741582014E+02  0.99763596619E+02  0.00000000000E+00 0. -1.
          1    1    1    2  501    0  0.67254033097E+01 -0.53951143674E+02  0.21555211340E+01  0.54411425499E+02  0.00000000000E+00 0. -1.
<scales pt_clust_5="13000.00000" pt_clust_6="13000.00000" pt_clust_7="13000.00000" pt_clust_8="13000.00000" pt_clust_9="54.36871"></scales>
<clustering>
<clus scale="   54.369">  1  9  2 -1</clus>
<clus scale="   86.104">  5  6 -1 -1</clus>
<clus scale="   92.059">  7  8 -1 -1</clus>
<clus scale="  101.015">  2  5  1 -1</clus>
<clus scale="   54.369">  1  5  2 -1</clus>
</clustering>
</event>
<event>
 9    1  0.3231311E-005  0.1131115E+03  0.7546771E-02  0.1258397E+00
          1   -1    0    0  502    0 -0.00000000000E+00  0.00000000000E+00  0.80619460246E+02  0.80619460246E+02  0.00000000000E+00 0. -1.
         21   -1    0    0  501  502  0.00000000000E+00 -0.00000000000E+00 -0.26621228715E+03  0.26621228715E+03  0.00000000000E+00 0.  1.
         23    2    1    2    0    0 -0.59384107725E+02  0.89296602579E+01  0.13459253726E+01  0.10608132851E+03  0.87436981087E+02 0.  0.
         23    2    1    2    0    0  0.51931060052E+02 -0.30365597542E+02 -0.10151903698E+03  0.15236730348E+03  0.96388670435E+02 0.  0.
        -13    1    3    3    0    0 -0.62596032991E+02 -0.11573544690E+02  0.30265735015E+02  0.70485636827E+02  0.00000000000E+00 0. -1.
         13    1    3    3    0    0  0.32119252655E+01  0.20503204947E+02 -0.28919809642E+02  0.35595691688E+02  0.00000000000E+00 0.  1.
        -13    1    4    4    0    0 -0.22357072525E+02 -0.89777224718E+00  0.97661162237E+00  0.22396393843E+02  0.00000000000E+00 0. -1.
         13    1    4    4    0    0  0.74288132577E+02 -0.29467825295E+02 -0.10249564861E+03  0.12997090964E+03  0.00000000000E+00 0.  1.
          1    1    1    2  501    0  0.74530476732E+01  0.21435937284E+02 -0.85419715298E+02  0.88383115403E+02  0.00000000000E+00 0. -1.
<scales pt_clust_5="13000.00000" pt_clust_6="13000.00000" pt_clust_7="13000.00000" pt_clust_8="13000.00000" pt_clust_9="22.69465"></scales>
<clustering>
<clus scale="   22.695">  2  9  1 -1</clus>
<clus scale="   87.437">  5  6 -1 -1</clus>
<clus scale="   96.389">  7  8 -1 -1</clus>
<clus scale="  105.587">  1  5  2 -1</clus>
<clus scale="   22.695">  2  5  1 -1</clus>
</clustering>
</event>
<event>
 9    1  0.3231311E-005  0.1040086E+03  0.7546771E-02  0.1273158E+00
         21   -1    0    0  501  502  0.00000000000E+00  0.00000000000E+00  0.13174885973E+03  0.13174885973E+03  0.00000000000E+00 0. -1.
          2   -1    0    0  502    0 -0.00000000000E+00 -0.00000000000E+00 -0.37471188874E+03  0.37471188874E+03  0.00000000000E+00 0. -1.
         23    2    1    2    0    0  0.60006429432E+02 -0.19256649646E+02 -0.29915841941E+03  0.31913077219E+03  0.91526497390E+02 0.  0.
         23    2    1    2    0    0  0.19047586444E+02  0.84108594138E+01  0.32366413987E+01  0.91560473369E+02  0.89102701029E+02 0.  0.
        -11    1    4    4    0    0 -0.27853085569E+02  0.87174413474E+01 -0.23591478473E+02  0.37527936472E+02  0.00000000000E+00 0.  1.
         11    1    4    4    0    0  0.46900672012E+02 -0.30658193359E+00  0.26828119871E+02  0.54032536897E+02  0.00000000000E+00 0. -1.
        -13    1    3    3    0    0  0.69832316562E+01 -0.45105527265E+02 -0.18602232694E+03  0.19154002254E+03  0.00000000000E+00 0. -1.
         13    1    3    3    0    0  0.53023197776E+02  0.25848877619E+02 -0.11313609248E+03  0.12759074965E+03  0.00000000000E+00 0.  1.
          2    1    1    2  501    0 -0.79054015876E+02  0.10845790232E+02  0.52958749000E+02  0.95769502909E+02  0.00000000000E+00 0. -1.
<scales pt_clust_5="13000.00000" pt_clust_6="13000.00000" pt_clust_7="13000.00000" pt_clust_8="13000.00000" pt_clust_9="79.79454"></scales>
<clustering>
<clus scale="   79.795">  1  9  2 -1</clus>
<clus scale="   89.103">  5  6 -1 -1</clus>
<clus scale="   91.526">  7  8 -1 -1</clus>
<clus scale="  101.882">  1  5  2 -1</clus>
<clus scale="   79.795">  1  5  2 -1</clus>
</clustering>
</event>
<event>
 9    1  0.3231311E-005  0.1718795E+03  0.7546771E-02  0.1176926E+00
         -1   -1    0    0    0  501 -0.00000000000E+00  0.00000000000E+00  0.16584340840E+04  0.16584340840E+04  0.00000000000E+00 0.  1.
         21   -1    0    0  501  502  0.00000000000E+00 -0.00000000000E+00 -0.28356082586E+02  0.28356082586E+02  0.00000000000E+00 0.  1.
         23    2    1    2    0    0  0.13792044001E+03  0.71264775181E+02  0.83808584530E+03  0.85715168199E+03  0.90666454106E+02 0.  0.
         23    2    1    2    0    0 -0.13399469392E+03  0.91066496499E+01  0.50838232320E+03  0.53483428731E+03  0.97763077219E+02 0.  0.
        -11    1    4    4    0    0  0.30524705688E+00 -0.25043238296E+02  0.49350173692E+02  0.55341635353E+02  0.00000000000E+00 0. -1.
         11    1    4    4    0    0 -0.13429994098E+03  0.34149887946E+02  0.45903214951E+03  0.47949265195E+03  0.00000000000E+00 0.  1.
        -13    1    3    3    0    0  0.86560736628E+02  0.90020377148E+02  0.56306940843E+03  0.57675262300E+03  0.00000000000E+00 0.  1.
         13    1    3    3    0    0  0.51359703380E+02 -0.18755601967E+02  0.27501643687E+03  0.28039905899E+03  0.00000000000E+00 0. -1.
         -1    1    1    2    0  502 -0.39257460829E+01 -0.80371424831E+02  0.28360983291E+03  0.29480419728E+03  0.00000000000E+00 0.  1.
<scales pt_clust_5="13000.00000" pt_clust_6="13000.00000" pt_clust_7="13000.00000" pt_clust_8="13000.00000" pt_clust_9="80.46724"></scales>
<clustering>
<clus scale="   80.467">  2  9  1 -1</clus>
<clus scale="   90.666">  7  8 -1 -1</clus>
<clus scale="   97.763">  5  6 -1 -1</clus>
<clus scale="  167.944">  1  7  2 -1</clus>
<clus scale="   80.467">  2  5  1 -1</clus>
</clustering>
</event>
<event>
 9    1  0.3231311E-005  0.9564812E+02  0.7546771E-02  0.1290639E+00
         -1   -1    0    0    0  501 -0.00000000000E+00  0.00000000000E+00  0.17257655308E+03  0.17257655308E+03  0.00000000000E+00 0.  1.
         21   -1    0    0  501  502  0.00000000000E+00 -0.00000000000E+00 -0.89840098489E+02  0.89840098489E+02  0.00000000000E+00 0. -1.
         23    2    1    2    0    0  0.40785851616E+02  0.47742697947E+01  0.71199205785E+02  0.12108717716E+03  0.88918492024E+02 0.  0.
         23    2    1    2    0    0 -0.18289046986E+02  0.39569344962E+00  0.43271418136E+02  0.10208801367E+03  0.90636091565E+02 0.  0.
        -11    1    3    3    0    0 -0.15668781725E+02  0.20701392788E+02 -0.34040995103E+01  0.26184848244E+02  0.00000000000E+00 0.  1.
         11    1    3    3    0    0  0.56454633341E+02 -0.15927122993E+02  0.74603305295E+02  0.94902328915E+02  0.00000000000E+00 0. -1.
        -13    1    4    4    0    0 -0.49161308194E+02 -0.85531224409E+01  0.48425531537E+02  0.69534324125E+02  0.00000000000E+00 0.  1.
         13    1    4    4    0    0  0.30872261208E+02  0.89488158905E+01 -0.51541134013E+01  0.32553689543E+02  0.00000000000E+00 0. -1.
         -1    1    1    2    0  502 -0.22496804629E+02 -0.51699632443E+01 -0.31734169327E+02  0.39241460744E+02  0.00000000000E+00 0.  1.
<scales pt_clust_5="13000.00000" pt_clust_6="13000.00000" pt_clust_7="13000.00000" pt_clust_8="13000.00000" pt_clust_9="23.08321"></scales>
<clustering>
<clus scale="   23.083">  2  9  1 -1</clus>
<clus scale="   88.918">  5  6 -1 -1</clus>
<clus scale="   90.636">  7  8 -1 -1</clus>
<clus scale="   94.022">  1  5  2 -1</clus>
<clus scale="   23.083">  2  5  1 -1</clus>
</clustering>
</event>
<event>
 9    1  0.3231311E-005  0.1494307E+03  0.7546771E-02  0.1214189E+00
         -3   -1    0    0    0  501 -0.00000000000E+00  0.00000000000E+00  0.23369093314E+03  0.23369093314E+03  0.00000000000E+00 0.  1.
         21   -1    0    0  501  502  0.00000000000E+00 -0.00000000000E+00 -0.30167965475E+03  0.30167965475E+03  0.00000000000E+00 0.  1.
         23    2    1    2    0    0  0.77438854978E+01  0.38610893356E+02  0.73153367852E+02  0.13465327616E+03  0.10596848921E+03 0.  0.
         23    2    1    2    0    0 -0.10464662328E+03  0.31978823207E+02  0.69145743005E+02  0.15865529249E+03  0.91743158660E+02 0.  0.
        -11    1    4    4    0    0 -0.70941979859E+02  0.21909762158E+02  0.90842989701E+02  0.11732540629E+03  0.00000000000E+00 0.  1.
         11    1    4    4    0    0 -0.33704643423E+02  0.10069061049E+02 -0.21697246696E+02  0.41329886195E+02  0.00000000000E+00 0. -1.
        -11    1    3    3    0    0 -0.20642646945E+02 -0.15828231633E+02  0.68277021186E+02  0.73064378540E+02  0.00000000000E+00 0.  1.
         11    1    3    3    0    0  0.28386532443E+02  0.54439124989E+02  0.48763466660E+01  0.61588897624E+02  0.00000000000E+00 0. -1.
         -3    1    1    2    0  502  0.96902737784E+02 -0.70589716563E+02 -0.21028783246E+03  0.24206201923E+03  0.00000000000E+00 0.  1.
<scales pt_clust_5="13000.00000" pt_clust_6="13000.00000" pt_clust_7="13000.00000" pt_clust_8="13000.00000" pt_clust_9="117.95228"></scales>
<clustering>
<clus scale="   91.743">  5  6 -1 -1</clus>
<clus scale="  105.968">  7  8 -1 -1</clus>
<clus scale="  113.049">  1  7  2 -1</clus>
<clus scale="  117.952">  2  9  1 -1</clus>
<clus scale="  117.952">  2  5  1 -1</clus>
</clustering>
</event>
<event>
 9    1  0.3231311E-005  0.1000555E+03  0.7546771E-02  0.1281751E+00
         -3   -1    0    0    0  501 -0.00000000000E+00  0.00000000000E+00  0.77224167609E+02  0.77224167609E+02  0.00000000000E+00 0.  1.
         21   -1    0    0  501  502  0.00000000000E+00 -0.00000000000E+00 -0.29981875013E+03  0.29981875013E+03  0.00000000000E+00 0. -1.
         23    2    1    2    0    0  0.27051801658E+01 -0.32494950342E+02  0.63200593162E+00  0.98376023396E+02  0.92812729463E+02 0.  0.
         23    2    1    2    0    0 -0.21575897057E+02  0.43715237227E+02 -0.69670400734E+02  0.12354919200E+03  0.89632007707E+02 0.  0.
        -11    1    3    3    0    0  0.38777536810E+02 -0.19138766731E+02 -0.27030570102E+02  0.50996484909E+02  0.00000000000E+00 0. -1.
         11    1    3    3    0    0 -0.36072356644E+02 -0.13356183611E+02  0.27662576033E+02  0.47379538488E+02  0.00000000000E+00 0.  1.
        -13    1    4    4    0    0  0.23488189484E+02  0.27948352600E+02 -0.66301037964E+02  0.75687734101E+02  0.00000000000E+00 0. -1.
         13    1    4    4    0    0 -0.45064086542E+02  0.15766884626E+02 -0.33693627701E+01  0.47861457898E+02  0.00000000000E+00 0.  1.
         -3    1    1    2    0  502  0.18870716892E+02 -0.11220286885E+02 -0.15355618772E+03  0.15511770234E+03  0.00000000000E+00 0.  1.
<scales pt_clust_5="13000.00000" pt_clust_6="13000.00000" pt_clust_7="13000.00000" pt_clust_8="13000.00000" pt_clust_9="21.95447"></scales>
<clustering>
<clus scale="   21.954">  2  9  1 -1</clus>
<clus scale="   89.632">  7  8 -1 -1</clus>
<clus scale="   92.813">  5  6 -1 -1</clus>
<clus scale="   97.112">  2  7  1 -1</clus>
<clus scale="   21.954">  2  5  1 -1</clus>
</clustering>
</event>
<event>
 9    1  0.3231311E-005  0.1084364E+03  0.7546771E-02  0.1263764E+00
          3   -1    0    0  502    0 -0.00000000000E+00  0.00000000000E+00  0.41627470419E+03  0.41627470419E+03  0.00000000000E+00 0. -1.
         21   -1    0    0  501  502  0.00000000000E+00 -0.00000000000E+00 -0.60985510218E+02  0.60985510218E+02  0.00000000000E+00 0. -1.
         23    2    1    2    0    0  0.61010659710E+02 -0.38516932307E+02  0.28231364919E+03  0.30504647709E+03  0.90257974673E+02 0.  0.
         23    2    1    2    0    0 -0.37484226025E+02 -0.58540081433E+01  0.71900082355E+02  0.12197998315E+03  0.90940408152E+02 0.  0.
        -11    1    4    4    0    0 -0.63492979476E+02  0.39290442018E+01  0.69300208321E+02  0.94070796236E+02  0.00000000000E+00 0. -1.
         11    1    4    4    0    0  0.26008753451E+02 -0.97830523450E+01  0.25998740338E+01  0.27909186915E+02  0.00000000000E+00 0.  1.
        -13    1    3    3    0    0 -0.64841834178E+01  0.19458758354E+02  0.10119610740E+03  0.10325376537E+03  0.00000000000E+00 0.  1.
         13    1    3    3    0    0  0.67494843128E+02 -0.57975690660E+02  0.18111754180E+03  0.20179271172E+03  0.00000000000E+00 0. -1.
          3    1    1    2  501    0 -0.23526433685E+02  0.44370940450E+02  0.10754624249E+01  0.50233754168E+02  0.00000000000E+00 0. -1.
<scales pt_clust_5="13000.00000" pt_clust_6="13000.00000" pt_clust_7="13000.00000" pt_clust_8="13000.00000" pt_clust_9="50.22224"></scales>
<clustering>
<clus scale="   50.222">  2  9  1 -1</clus>
<clus scale="   90.258">  7  8 -1 -1</clus>
<clus scale="   90.940">  5  6 -1 -1</clus>
<clus scale="  107.865">  1  7  2 -1</clus>
<clus scale="   50.222">  2  5  1 -1</clus>
</clustering>
</event>
<event>
 9    1  0.3231311E-005  0.1174197E+03  0.7546771E-02  0.1247504E+00
         21   -1    0    0  501  502  0.00000000000E+00  0.00000000000E+00  0.12636156573E+03  0.12636156573E+03  0.00000000000E+00 0.  1.
          1   -1    0    0  502    0 -0.00000000000E+00 -0.00000000000E+00 -0.17839013011E+03  0.17839013011E+03  0.00000000000E+00 0. -1.
         23    2    1    2    0    0  0.67104996349E+02 -0.78020624588E+01 -0.75903238398E+02  0.13669810219E+03  0.91439142764E+02 0.  0.
         23    2    1    2    0    0 -0.84555882456E+02 -0.37264782880E+01 -0.13195810501E+02  0.12548997656E+03  0.91706166111E+02 0.  0.
        -13    1    3    3    0    0  0.35113988962E+02 -0.23147654793E+02  0.10453164889E+02  0.43336760371E+02  0.00000000000E+00 0.  1.
         13    1    3    3    0    0  0.31991007387E+02  0.15345592334E+02 -0.86356403287E+02  0.93361341820E+02  0.00000000000E+00 0. -1.
        -13    1    4    4    0    0 -0.23110612851E+02 -0.36215830551E+02  0.21235574405E+02  0.47923234752E+02  0.00000000000E+00 0.  1.
         13    1    4    4    0    0 -0.61445269606E+02  0.32489352263E+02 -0.34431384906E+02  0.77566741803E+02  0.00000000000E+00 0. -1.
          1    1    1    2  501    0  0.17450886107E+02  0.11528540747E+02  0.37070484516E+02  0.42563617092E+02  0.00000000000E+00 0. -1.
<scales pt_clust_5="13000.00000" pt_clust_6="13000.00000" pt_clust_7="13000.00000" pt_clust_8="13000.00000" pt_clust_9="20.91508"></scales>
<clustering>
<clus scale="   20.915">  1  9  2 -1</clus>
<clus scale="   91.439">  5  6 -1 -1</clus>
<clus scale="   91.706">  7  8 -1 -1</clus>
<clus scale="  117.211">  2  5  1 -1</clus>
<clus scale="   20.915">  1  5  2 -1</clus>
</clustering>
</event>
<event>
 9    1  0.3231311E-005  0.1027937E+03  0.7546771E-02  0.1278674E+00
          1   -1    0    0  502    0 -0.00000000000E+00  0.00000000000E+00  0.40055394619E+03  0.40055394619E+03  0.00000000000E+00 0. -1.
         21   -1    0    0  501  502  0.00000000000E+00 -0.00000000000E+00 -0.62379119714E+02  0.62379119714E+02  0.00000000000E+00 0.  1.
         23    2    1    2    0    0  0.45968073559E+02 -0.33244162210E+01  0.28683360300E+03  0.30463494985E+03  0.91677812670E+02 0.  0.
         23    2    1    2    0    0 -0.47472972947E+02 -0.21209731035E+02  0.75734181895E+02  0.12366856907E+03  0.82793193060E+02 0.  0.
        -11    1    3    3    0    0  0.29007439439E+02  0.39343067778E+02  0.20552691207E+03  0.21125960359E+03  0.00000000000E+00 0. -1.
         11    1    3    3    0    0  0.16960634120E+02 -0.42667483999E+02  0.81306690930E+02  0.93375346267E+02  0.00000000000E+00 0.  1.
        -13    1    4    4    0    0 -0.43386490884E+02  0.11286432272E+02  0.42413810594E+01  0.45030661310E+02  0.00000000000E+00 0.  1.
         13    1    4    4    0    0 -0.40864820623E+01 -0.32496163307E+02  0.71492800836E+02  0.78637907759E+02  0.00000000000E+00 0. -1.
          1    1    1    2  501    0  0.15048993875E+01  0.24534147256E+02 -0.24392958416E+02  0.34629546979E+02  0.00000000000E+00 0. -1.
<scales pt_clust_5="13000.00000" pt_clust_6="13000.00000" pt_clust_7="13000.00000" pt_clust_8="13000.00000" pt_clust_9="24.58026"></scales>
<clustering>
<clus scale="   24.580">  2  9  1 -1</clus>
<clus scale="   82.793">  7  8 -1 -1</clus>
<clus scale="   91.678">  5  6 -1 -1</clus>
<clus scale="   94.955">  2  7  1 -1</clus>
<clus scale="   24.580">  2  5  1 -1</clus>
</clustering>
</event>
<event>
 9    1  0.3231311E-005  0.1195216E+03  0.7546771E-02  0.1244662E+00
         -2   -1    0    0    0  501 -0.00000000000E+00  0.00000000000E+00  0.56335862949E+03  0.56335862949E+03  0.00000000000E+00 0.  1.
         21   -1    0    0  501  502  0.00000000000E+00 -0.00000000000E+00 -0.11379981672E+03  0.11379981672E+03  0.00000000000E+00 0.  1.
         23    2    1    2    0    0  0.34374367598E+02  0.79221050442E+02  0.49102060426E+03  0.50635071789E+03  0.88499964558E+02 0.  0.
         23    2    1    2    0    0 -0.29323311753E+02 -0.38795462057E+02  0.16305456918E+02  0.10011970706E+03  0.85983389837E+02 0.  0.
        -11    1    3    3    0    0  0.20059099689E+02 -0.76609891788E+01  0.29395350704E+02  0.36402539452E+02  0.00000000000E+00 0. -1.
         11    1    3    3    0    0  0.14315267909E+02  0.86882039621E+02  0.46162525355E+03  0.46994817844E+03  0.00000000000E+00 0.  1.
        -13    1    4    4    0    0  0.12533862201E+02  0.20981600471E+02  0.11433667792E+02  0.26982476149E+02  0.00000000000E+00 0.  1.
         13    1    4    4    0    0 -0.41857173953E+02 -0.59777062528E+02  0.48717891267E+01  0.73137230910E+02  0.00000000000E+00 0. -1.
         -2    1    1    2    0  502 -0.50510558453E+01 -0.40425588385E+02 -0.57767248402E+02  0.70688021258E+02  0.00000000000E+00 0.  1.
<scales pt_clust_5="13000.00000" pt_clust_6="13000.00000" pt_clust_7="13000.00000" pt_clust_8="13000.00000" pt_clust_9="40.73992"></scales>
<clustering>
<clus scale="   40.740">  2  9  1 -1</clus>
<clus scale="   85.983">  7  8 -1 -1</clus>
<clus scale="   88.500">  5  6 -1 -1</clus>
<clus scale="  117.670">  2  7  1 -1</clus>
<clus scale="   40.740">  2  5  1 -1</clus>
</clustering>
</event>
<event>
 9    1  0.3231311E-005  0.1918124E+03  0.7546771E-02  0.1157001E+00
          3   -1    0    0  502    0 -0.00000000000E+00  0.00000000000E+00  0.84972512407E+03  0.84972512407E+03  0.00000000000E+00 0. -1.
         21   -1    0    0  501  502  0.00000000000E+00 -0.00000000000E+00 -0.15974733487E+03  0.15974733487E+03  0.00000000000E+00 0. -1.
         23    2    1    2    0    0  0.10809553871E+03  0.16985118896E+03  0.43712169623E+03  0.48976430535E+03  0.90882482374E+02 0.  0.
         23    2    1    2    0    0 -0.16819042267E+03 -0.18730296628E+02  0.29433552208E+03  0.35187054690E+03  0.92415582721E+02 0.  0.
        -11    1    4    4    0    0 -0.13261584353E+03 -0.47092149190E+02  0.17770183941E+03  0.22667725117E+03  0.00000000000E+00 0. -1.
         11    1    4    4    0    0 -0.35574579138E+02  0.28361852562E+02  0.11663368268E+03  0.12519329573E+03  0.00000000000E+00 0.  1.
        -13    1    3    3    0    0  0.28268478956E+02  0.52841011744E+02  0.51728373868E+02  0.79165043344E+02  0.00000000000E+00 0.  1.
         13    1    3    3    0    0  0.79827059757E+02  0.11701017721E+03  0.38539332236E+03  0.41059926201E+03  0.00000000000E+00 0. -1.
          3    1    1    2  501    0  0.60094883955E+02 -0.15112089233E+03 -0.41479429110E+02  0.16783760668E+03  0.00000000000E+00 0. -1.
<scales pt_clust_5="13000.00000" pt_clust_6="13000.00000" pt_clust_7="13000.00000" pt_clust_8="13000.00000" pt_clust_9="162.63124"></scales>
<clustering>
<clus scale="   90.882">  7  8 -1 -1</clus>
<clus scale="   92.416">  5  6 -1 -1</clus>
<clus scale="  162.631">  2  9  1 -1</clus>
<clus scale="  191.079">  1  7  2 -1</clus>
<clus scale="  162.631">  2  5  1 -1</clus>
</clustering>
</event>
<event>
 9    1  0.3231311E-005  0.3497622E+03  0.7546771E-02  0.1062975E+00
         21   -1    0    0  501  502  0.00000000000E+00  0.00000000000E+00  0.67175381968E+02  0.67175381968E+02  0.00000000000E+00 0.  1.
          2   -1    0    0  502    0 -0.00000000000E+00 -0.00000000000E+00 -0.26906301262E+04  0.26906301262E+04  0.00000000000E+00 0. -1.
         23    2    1    2    0    0 -0.39616351982E+02  0.34680880856E+03 -0.19958352863E+04  0.20281613596E+04  0.90742521602E+02 0.  0.
         23    2    1    2    0    0  0.13662062413E+02 -0.29965513653E+03 -0.56120356848E+03  0.64415634655E+03  0.10004049545E+03 0.  0.
        -11    1    3    3    0    0 -0.68241809235E+02  0.20728934252E+03 -0.12137976775E+04  0.12332601583E+04  0.00000000000E+00 0.  1.
         11    1    3    3    0    0  0.28625457253E+02  0.13951946605E+03 -0.78203760879E+03  0.79490120127E+03  0.00000000000E+00 0. -1.
        -11    1    4    4    0    0 -0.38250244133E+02 -0.20199862706E+03 -0.36114175927E+03  0.41555973915E+03  0.00000000000E+00 0.  1.
         11    1    4    4    0    0  0.51912306546E+02 -0.97656509470E+02 -0.20006180921E+03  0.22859660741E+03  0.00000000000E+00 0. -1.
          2    1    1    2  501    0  0.25954289569E+02 -0.47153672034E+02 -0.66415889451E+02  0.85487802082E+02  0.00000000000E+00 0. -1.
<scales pt_clust_5="13000.00000" pt_clust_6="13000.00000" pt_clust_7="13000.00000" pt_clust_8="13000.00000" pt_clust_9="53.82466"></scales>
<clustering>
<clus scale="   53.825">  1  9  2 -1</clus>
<clus scale="   90.743">  5  6 -1 -1</clus>
<clus scale="  100.040">  7  8 -1 -1</clus>
<clus scale="  347.217">  2  5  1 -1</clus>
<clus scale="   53.825">  1  5  2 -1</clus>
</clustering>
</event>
<event>
 9    1  0.3231311E-005  0.1216239E+03  0.7546771E-02  0.1242882E+00
         21   -1    0    0  501  502  0.00000000000E+00  0.00000000000E+00  0.31938819069E+03  0.31938819069E+03  0.00000000000E+00 0.  1.
         -3   -1    0    0    0  501 -0.00000000000E+00 -0.00000000000E+00 -0.10703974233E+03  0.10703974233E+03  0.00000000000E+00 0.  1.
         23    2    1    2    0    0  0.70702372415E+02 -0.31133155416E+02 -0.40268720130E+02  0.12689313273E+03  0.92261576407E+02 0.  0.
         23    2    1    2    0    0 -0.71547464391E+02  0.60630158211E+02  0.23010851954E+03  0.26242110159E+03  0.84379192035E+02 0.  0.
        -11    1    3    3    0    0  0.21699510547E+02 -0.59269590337E+02 -0.28110544678E+02  0.69093818963E+02  0.00000000000E+00 0.  1.
         11    1    3    3    0    0  0.49002861868E+02  0.28136434921E+02 -0.12158175452E+02  0.57799313764E+02  0.00000000000E+00 0. -1.
        -13    1    4    4    0    0 -0.89247125634E+02  0.44602435961E+02  0.16211626322E+03  0.19035784598E+03  0.00000000000E+00 0.  1.
         13    1    4    4    0    0  0.17699661243E+02  0.16027722250E+02  0.67992256323E+02  0.72063255607E+02  0.00000000000E+00 0. -1.
         -3    1    1    2    0  502  0.84509197605E+00 -0.29497002795E+02  0.22508648950E+02  0.37113698709E+02  0.00000000000E+00 0.  1.
<scales pt_clust_5="13000.00000" pt_clust_6="13000.00000" pt_clust_7="13000.00000" pt_clust_8="13000.00000" pt_clust_9="29.50911"></scales>
<clustering>
<clus scale="   29.509">  1  9  2 -1</clus>
<clus scale="   84.379">  7  8 -1 -1</clus>
<clus scale="   92.262">  5  6 -1 -1</clus>
<clus scale="  115.758">  1  7  2 -1</clus>
<clus scale="   29.509">  1  5  2 -1</clus>
</clustering>
</event>
<event>
 9    1  0.3703098E-005  0.1772019E+03  0.7546771E-02  0.1196778E+00
          3   -1    0    0  502    0 -0.00000000000E+00  0.00000000000E+00  0.43648341840E+03  0.43648341840E+03  0.00000000000E+00 0. -1.
         21   -1    0    0  501  502  0.00000000000E+00 -0.00000000000E+00 -0.30774853045E+03  0.30774853045E+03  0.00000000000E+00 0. -1.
         23    2    1    2    0    0  0.25024338535E+02  0.13814226803E+02  0.57822601148E+02  0.11430805447E+03  0.94370693185E+02 0.  0.
         23    2    1    2    0    0  0.12244128054E+03  0.30738812317E+02  0.30926077763E+03  0.34612628131E+03  0.90688655659E+02 0.  0.
        -11    1    4    4    0    0  0.13043622678E+03  0.87731374157E+01  0.24416093086E+03  0.27695692329E+03  0.00000000000E+00 0. -1.
         11    1    4    4    0    0 -0.79949462388E+01  0.21965674902E+02  0.65099846772E+02  0.69169358021E+02  0.00000000000E+00 0.  1.
        -13    1    3    3    0    0 -0.35212985184E+02 -0.34559041610E+01  0.15120771388E+02  0.38477725069E+02  0.00000000000E+00 0.  1.
         13    1    3    3    0    0  0.60237323719E+02  0.17270130964E+02  0.42701829760E+02  0.75830329402E+02  0.00000000000E+00 0. -1.
          3    1    1    2  501    0 -0.14746561908E+03 -0.44553039121E+02 -0.23834849083E+03  0.28379761307E+03  0.00000000000E+00 0. -1.
<scales pt_clust_5="13000.00000" pt_clust_6="13000.00000" pt_clust_7="13000.00000" pt_clust_8="13000.00000" pt_clust_9="152.23689"></scales>
<clustering>
<clus scale="   90.689">  5  6 -1 -1</clus>
<clus scale="   94.371">  7  8 -1 -1</clus>
<clus scale="   98.605">  1  7  2 -1</clus>
<clus scale="  152.237">  2  9  1 -1</clus>
<clus scale="  152.237">  2  5  1 -1</clus>
</clustering>
</event>
<event>
 9    1  0.3231311E-005  0.1199310E+03  0.7546771E-02  0.1243952E+00
          2   -1    0    0  502    0 -0.00000000000E+00  0.00000000000E+00  0.15044788375E+03  0.15044788375E+03  0.00000000000E+00 0. -1.
         21   -1    0    0  501  502  0.00000000000E+00 -0.00000000000E+00 -0.17268182744E+03  0.17268182744E+03  0.00000000000E+00 0. -1.
         23    2    1    2    0    0 -0.55495926605E+02  0.29352970559E+02  0.29271832619E+02  0.11373973477E+03  0.90213592819E+02 0.  0.
         23    2    1    2    0    0  0.91504671642E+02 -0.29548428994E+02  0.14465268802E+02  0.13423116646E+03  0.92534034054E+02 0.  0.
        -13    1    4    4    0    0 -0.19004180270E+02 -0.90212775357E+01  0.15824015250E+01  0.21096120750E+02  0.00000000000E+00 0.  1.
         13    1    4    4    0    0  0.11050885191E+03 -0.20527151458E+02  0.12882867277E+02  0.11313504571E+03  0.00000000000E+00 0. -1.
        -13    1    3    3    0    0  0.25086307763E+02  0.83100467545E+01  0.99922622070E+01  0.28252876283E+02  0.00000000000E+00 0. -1.
         13    1    3    3    0    0 -0.80582234368E+02  0.21042923805E+02  0.19279570412E+02  0.85486858483E+02  0.00000000000E+00 0.  1.
          2    1    1    2  501    0 -0.36008745037E+02  0.19545843480E+00 -0.65971045106E+02  0.75158809966E+02  0.00000000000E+00 0. -1.
<scales pt_clust_5="13000.00000" pt_clust_6="13000.00000" pt_clust_7="13000.00000" pt_clust_8="13000.00000" pt_clust_9="36.00928"></scales>
<clustering>
<clus scale="   36.009">  2  9  1 -1</clus>
<clus scale="   90.214">  7  8 -1 -1</clus>
<clus scale="   92.534">  5  6 -1 -1</clus>
<clus scale="  118.150">  1  7  2 -1</clus>
<clus scale="   36.009">  2  5  1 -1</clus>
</clustering>
</event>
<event>
 9    1  0.3231311E-005  0.8906613E+02  0.7546771E-02  0.1305236E+00
         21   -1    0    0  501  502  0.00000000000E+00  0.00000000000E+00  0.58800171914E+02  0.58800171914E+02  0.00000000000E+00 0. -1.
          3   -1    0    0  502    0 -0.00000000000E+00 -0.00000000000E+00 -0.34041226323E+03  0.34041226323E+03  0.00000000000E+00 0. -1.
         23    2    1    2    0    0 -0.10328574327E+02 -0.21081052188E+02 -0.15953246217E+03  0.18411075644E+03  0.88854228611E+02 0.  0.
         23    2    1    2    0    0 -0.19914761015E+02 -0.33365938567E+02 -0.11778142859E+03  0.15267084767E+03  0.89028305865E+02 0.  0.
        -13    1    3    3    0    0 -0.10125744493E+02 -0.55061173528E+02 -0.11671862949E+03  0.12945077057E+03  0.00000000000E+00 0. -1.
         13    1    3    3    0    0 -0.20282983485E+00  0.33980121341E+02 -0.42813832679E+02  0.54659985866E+02  0.00000000000E+00 0.  1.
        -13    1    4    4    0    0  0.34588369785E+02 -0.20988602332E+02 -0.40021613848E+02  0.56908754399E+02  0.00000000000E+00 0. -1.
         13    1    4    4    0    0 -0.54503130799E+02 -0.12377336235E+02 -0.77759814744E+02  0.95762093274E+02  0.00000000000E+00 0.  1.
          3    1    1    2  501    0  0.30243335342E+02  0.54446990755E+02 -0.42982005512E+01  0.62430831028E+02  0.00000000000E+00 0. -1.
<scales pt_clust_5="13000.00000" pt_clust_6="13000.00000" pt_clust_7="13000.00000" pt_clust_8="13000.00000" pt_clust_9="62.28270"></scales>
<clustering>
<clus scale="   62.283">  1  9  2 -1</clus>
<clus scale="   88.854">  5  6 -1 -1</clus>
<clus scale="   88.892">  2  5  1 -1</clus>
<clus scale="   89.028">  7  8 -1 -1</clus>
<clus scale="   62.283">  1  5  2 -1</clus>
</clustering>
</event>
<event>
 9    1  0.3231311E-005  0.1445710E+03  0.7546771E-02  0.1208180E+00
          1   -1    0    0  502    0 -0.00000000000E+00  0.00000000000E+00  0.40019941585E+03  0.40019941585E+03  0.00000000000E+00 0. -1.
         21   -1    0    0  501  502  0.00000000000E+00 -0.00000000000E+00 -0.10896021614E+03  0.10896021614E+03  0.00000000000E+00 0.  1.
         23    2    1    2    0    0 -0.23860894723E+02 -0.99929236255E+02  0.18715775277E+03  0.23326629899E+03  0.93967799105E+02 0.  0.
         23    2    1    2    0    0 -0.10539153526E+02  0.12263983737E+03  0.15026178645E+03  0.21399213366E+03  0.89791009198E+02 0.  0.
        -13    1    4    4    0    0 -0.48585203931E+02  0.56549344037E+02  0.89511326207E+02  0.11649303787E+03  0.00000000000E+00 0.  1.
         13    1    4    4    0    0  0.38046050404E+02  0.66090493331E+02  0.60750460245E+02  0.97499095791E+02  0.00000000000E+00 0. -1.
        -13    1    3    3    0    0 -0.13501286524E+02 -0.79858265625E+02  0.19353324295E+03  0.20979691001E+03  0.00000000000E+00 0. -1.
         13    1    3    3    0    0 -0.10359608199E+02 -0.20070970631E+02 -0.63754901756E+01  0.23469388980E+02  0.00000000000E+00 0.  1.
          1    1    1    2  501    0  0.34400048250E+02 -0.22710601112E+02 -0.46180339508E+02  0.61901199338E+02  0.00000000000E+00 0. -1.
<scales pt_clust_5="13000.00000" pt_clust_6="13000.00000" pt_clust_7="13000.00000" pt_clust_8="13000.00000" pt_clust_9="41.22056"></scales>
<clustering>
<clus scale="   41.221">  2  9  1 -1</clus>
<clus scale="   89.791">  5  6 -1 -1</clus>
<clus scale="   93.968">  7  8 -1 -1</clus>
<clus scale="  141.892">  2  5  1 -1</clus>
<clus scale="   41.221">  2  5  1 -1</clus>
</clustering>
</event>
<event>
 9    1  0.3231311E-005  0.1110865E+03  0.7546771E-02  0.1260060E+00
         21   -1    0    0  501  502  0.00000000000E+00  0.00000000000E+00  0.21594417803E+03  0.21594417803E+03  0.00000000000E+00 0.  1.
         -3   -1    0    0    0  501 -0.00000000000E+00 -0.00000000000E+00 -0.13591507049E+03  0.13591507049E+03  0.00000000000E+00 0.  1.
         23    2    1    2    0    0 -0.21158094833E+02  0.49267822496E+02 -0.33078940984E+02  0.11198311536E+03  0.92579795198E+02 0.  0.
         23    2    1    2    0    0  0.44461200512E+02 -0.57877737359E+02 -0.90419749446E+01  0.11522544683E+03  0.88704652937E+02 0.  0.
        -11    1    3    3    0    0  0.28304081718E+02  0.23935287276E+02 -0.41647737200E+02  0.55754399224E+02  0.00000000000E+00 0.  1.
         11    1    3    3    0    0 -0.49462176551E+02  0.25332535220E+02  0.85687962164E+01  0.56228716138E+02  0.00000000000E+00 0. -1.
        -13    1    4    4    0    0 -0.11582973024E+02 -0.57461323533E+02 -0.11634777892E+01  0.58628684506E+02  0.00000000000E+00 0. -1.
         13    1    4    4    0    0  0.56044173536E+02 -0.41641382607E+00 -0.78784971554E+01  0.56596762321E+02  0.00000000000E+00 0.  1.
         -3    1    1    2    0  502 -0.23303105679E+02  0.86099148629E+01  0.12215002347E+03  0.12465068632E+03  0.00000000000E+00 0.  1.
<scales pt_clust_5="13000.00000" pt_clust_6="13000.00000" pt_clust_7="13000.00000" pt_clust_8="13000.00000" pt_clust_9="24.84281"></scales>
<clustering>
<clus scale="   24.843">  1  9  2 -1</clus>
<clus scale="   88.705">  7  8 -1 -1</clus>
<clus scale="   92.580">  5  6 -1 -1</clus>
<clus scale="  107.878">  1  7  2 -1</clus>
<clus scale="   24.843">  1  5  2 -1</clus>
</clustering>
</event>
<event>
 9    1  0.3231311E-005  0.1254229E+03  0.7546771E-02  0.1235971E+00
          2   -1    0    0  502    0 -0.00000000000E+00  0.00000000000E+00  0.51104546571E+03  0.51104546571E+03  0.00000000000E+00 0. -1.
         21   -1    0    0  501  502  0.00000000000E+00 -0.00000000000E+00 -0.10432216491E+03  0.10432216491E+03  0.00000000000E+00 0.  1.
         23    2    1    2    0    0  0.10399724989E+01 -0.68002940430E+02  0.23273747656E+03  0.25884919192E+03  0.90612856214E+02 0.  0.
         23    2    1    2    0    0  0.81137584160E+02  0.14250809035E+03  0.64314210809E+02  0.20053116044E+03  0.95836137325E+02 0.  0.
        -11    1    3    3    0    0 -0.37883290868E+02 -0.28212672930E+02  0.54489676235E+02  0.72112574888E+02  0.00000000000E+00 0.  1.
         11    1    3    3    0    0  0.38923263367E+02 -0.39790267500E+02  0.17824780033E+03  0.18673661703E+03  0.00000000000E+00 0. -1.
        -13    1    4    4    0    0  0.32400750697E+02  0.13635445453E+03  0.54861052994E+02  0.15050608311E+03  0.00000000000E+00 0.  1.
         13    1    4    4    0    0  0.48736833462E+02  0.61536358196E+01  0.94531578146E+01  0.50025077335E+02  0.00000000000E+00 0. -1.
          2    1    1    2  501    0 -0.82177556659E+02 -0.74505149922E+02  0.10967161343E+03  0.15598727825E+03  0.00000000000E+00 0. -1.
<scales pt_clust_5="13000.00000" pt_clust_6="13000.00000" pt_clust_7="13000.00000" pt_clust_8="13000.00000" pt_clust_9="110.92421"></scales>
<clustering>
<clus scale="   90.613">  5  6 -1 -1</clus>
<clus scale="   95.836">  7  8 -1 -1</clus>
<clus scale="  110.924">  2  9  1 -1</clus>
<clus scale="  121.479">  1  5  2 -1</clus>
<clus scale="  110.924">  2  5  1 -1</clus>
</clustering>
</event>
<event>
 9    1  0.3231311E-005  0.1045568E+03  0.7546771E-02  0.1272451E+00
          3   -1    0    0  502    0 -0.00000000000E+00  0.00000000000E+00  0.11216923548E+03  0.11216923548E+03  0.00000000000E+00 0. -1.
         21   -1    0    0  501  502  0.00000000000E+00 -0.00000000000E+00 -0.20275557402E+03  0.20275557402E+03  0.00000000000E+00 0. -1.
         23    2    1    2    0    0  0.41212593756E+02 -0.31258523329E+02 -0.91959144669E+01  0.10668628166E+03  0.92853781216E+02 0.  0.
         23    2    1    2    0    0 -0.41643274022E+02 -0.45872284207E+02 -0.54036402616E+02  0.12639972624E+03  0.96013172312E+02 0.  0.
        -11    1    4    4    0    0 -0.66460651324E+02 -0.52550650252E+01 -0.31514436935E+02  0.73741396910E+02  0.00000000000E+00 0. -1.
         11    1    4    4    0    0  0.24817377302E+02 -0.40617219182E+02 -0.22521965681E+02  0.52658329335E+02  0.00000000000E+00 0.  1.
        -11    1    3    3    0    0  0.53009026267E+02  0.34977673580E+01 -0.33371320677E+02  0.62736243799E+02  0.00000000000E+00 0. -1.
         11    1    3    3    0    0 -0.11796432512E+02 -0.34756290687E+02  0.24175406210E+02  0.43950037858E+02  0.00000000000E+00 0.  1.
          3    1    1    2  501    0  0.43068026691E+00  0.77130807536E+02 -0.27354021456E+02  0.81838801595E+02  0.00000000000E+00 0. -1.
<scales pt_clust_5="13000.00000" pt_clust_6="13000.00000" pt_clust_7="13000.00000" pt_clust_8="13000.00000" pt_clust_9="77.13201"></scales>
<clustering>
<clus scale="   77.132">  2  9  1 -1</clus>
<clus scale="   92.854">  7  8 -1 -1</clus>
<clus scale="   96.013">  5  6 -1 -1</clus>
<clus scale="  101.663">  1  7  2 -1</clus>
<clus scale="   77.132">  2  5  1 -1</clus>
</clustering>
</event>
<event>
 9    1  0.3231311E-005  0.9829847E+02  0.7546771E-02  0.1284262E+00
         21   -1    0    0  501  502  0.00000000000E+00  0.00000000000E+00  0.72118947824E+03  0.72118947824E+03  0.00000000000E+00 0.  1.
          1   -1    0    0  502    0 -0.00000000000E+00 -0.00000000000E+00 -0.11931863480E+03  0.11931863480E+03  0.00000000000E+00 0. -1.
         23    2    1    2    0    0 -0.39024450642E+01 -0.28915821089E+02 -0.86232566993E+02  0.12968281913E+03  0.92359212751E+02 0.  0.
         23    2    1    2    0    0  0.19137912152E+02  0.73527983651E+02  0.36390949787E+03  0.38322178745E+03  0.93038656886E+02 0.  0.
        -11    1    4    4    0    0 -0.80077465910E+01  0.84400166058E+02  0.31525940033E+03  0.32645980079E+03  0.00000000000E+00 0.  1.
         11    1    4    4    0    0  0.27145658743E+02 -0.10872182408E+02  0.48650097545E+02  0.56761986664E+02  0.00000000000E+00 0. -1.
        -13    1    3    3    0    0 -0.17995334110E+02 -0.43948638513E+02 -0.95829832042E+02  0.10695172549E+03  0.00000000000E+00 0. -1.
         13    1    3    3    0    0  0.14092889046E+02  0.15032817424E+02  0.95972650496E+01  0.22731093634E+02  0.00000000000E+00 0.  1.
          1    1    1    2  501    0 -0.15235467088E+02 -0.44612162562E+02  0.32419391256E+03  0.32760350646E+03  0.00000000000E+00 0. -1.
<scales pt_clust_5="13000.00000" pt_clust_6="13000.00000" pt_clust_7="13000.00000" pt_clust_8="13000.00000" pt_clust_9="47.14196"></scales>
<clustering>
<clus scale="   47.142">  1  9  2 -1</clus>
<clus scale="   92.359">  7  8 -1 -1</clus>
<clus scale="   93.039">  5  6 -1 -1</clus>
<clus scale="   97.656">  2  7  1 -1</clus>
<clus scale="   47.142">  1  5  2 -1</clus>
</clustering>
</event>
<event>
 9    1  0.3231311E-005  0.1902874E+03  0.7546771E-02  0.1160088E+00
         21   -1    0    0  501  502  0.00000000000E+00  0.00000000000E+00  0.20562862247E+03  0.20562862247E+03  0.00000000000E+00 0.  1.
          2   -1    0    0  502    0 -0.00000000000E+00 -0.00000000000E+00 -0.31767641815E+03  0.31767641815E+03  0.00000000000E+00 0. -1.
         23    2    1    2    0    0  0.27169262329E+02  0.14308156013E+03 -0.13976403507E+03  0.22177784471E+03  0.91874508110E+02 0.  0.
         23    2    1    2    0    0 -0.42997458101E+02 -0.17571218059E+03 -0.49679768181E+02  0.21605538089E+03  0.10718347090E+03 0.  0.
        -13    1    4    4    0    0  0.10167867730E+02 -0.12965802980E+03 -0.19934125019E+00  0.13005625691E+03  0.00000000000E+00 0.  1.
         13    1    4    4    0    0 -0.53165325831E+02 -0.46054150791E+02 -0.49480426931E+02  0.85999123978E+02  0.00000000000E+00 0. -1.
        -13    1    3    3    0    0  0.21906188537E+02  0.84789811753E+01  0.50202070488E+01  0.24020339231E+02  0.00000000000E+00 0.  1.
         13    1    3    3    0    0  0.52630737920E+01  0.13460257896E+03 -0.14478424212E+03  0.19775750548E+03  0.00000000000E+00 0. -1.
          2    1    1    2  501    0  0.15828195772E+02  0.32630620457E+02  0.77396007582E+02  0.85471815018E+02  0.00000000000E+00 0. -1.
<scales pt_clust_5="13000.00000" pt_clust_6="13000.00000" pt_clust_7="13000.00000" pt_clust_8="13000.00000" pt_clust_9="36.26692"></scales>
<clustering>
<clus scale="   36.267">  1  9  2 -1</clus>
<clus scale="   91.875">  7  8 -1 -1</clus>
<clus scale="  107.183">  5  6 -1 -1</clus>
<clus scale="  182.104">  2  7  1 -1</clus>
<clus scale="   36.267">  1  5  2 -1</clus>
</clustering>
</event>
<event>
 9    1  0.3231311E-005  0.9201303E+02  0.7546771E-02  0.1298157E+00
         -4   -1    0    0    0  501 -0.00000000000E+00  0.00000000000E+00  0.29569188838E+03  0.29569188838E+03  0.00000000000E+00 0.  1.
         21   -1    0    0  501  502  0.00000000000E+00 -0.00000000000E+00 -0.48108655261E+02  0.48108655261E+02  0.00000000000E+00 0. -1.
         23    2    1    2    0    0 -0.10196403573E+01  0.25251344310E+01  0.19092160400E+03  0.21191962656E+03  0.91931785980E+02 0.  0.
         23    2    1    2    0    0 -0.10307287331E+02  0.18862608495E+02  0.50484350648E+02  0.10690305474E+03  0.91747235819E+02 0.  0.
        -11    1    3    3    0    0 -0.15406065882E+02 -0.31382259506E+02  0.16015807582E+03  0.16392926013E+03  0.00000000000E+00 0.  1.
         11    1    3    3    0    0  0.14386425525E+02  0.33907393937E+02  0.30763528187E+02  0.47990366424E+02  0.00000000000E+00 0. -1.
        -13    1    4    4    0    0 -0.86978074885E+01 -0.29699234434E+02 -0.69047797799E+01  0.31707607366E+02  0.00000000000E+00 0.  1.
         13    1    4    4    0    0 -0.16094798424E+01  0.48561842929E+02  0.57389130428E+02  0.75195447371E+02  0.00000000000E+00 0. -1.
         -4    1    1    2    0  502  0.11326927688E+02 -0.21387742926E+02  0.61772784695E+01  0.24977862351E+02  0.00000000000E+00 0.  1.
<scales pt_clust_5="13000.00000" pt_clust_6="13000.00000" pt_clust_7="13000.00000" pt_clust_8="13000.00000" pt_clust_9="24.20196"></scales>
<clustering>
<clus scale="   24.202">  2  9  1 -1</clus>
<clus scale="   91.747">  7  8 -1 -1</clus>
<clus scale="   91.829">  2  7  1 -1</clus>
<clus scale="   91.932">  5  6 -1 -1</clus>
<clus scale="   24.202">  2  5  1 -1</clus>
</clustering>
</event>
<event>
 9    1  0.3231311E-005  0.1009208E+03  0.7546771E-02  0.1295326E+00
         21   -1    0    0  501  502  0.00000000000E+00  0.00000000000E+00  0.65196195460E+02  0.65196195460E+02  0.00000000000E+00 0. -1.
         -2   -1    0    0    0  501 -0.00000000000E+00 -0.00000000000E+00 -0.25322072863E+03  0.25322072863E+03  0.00000000000E+00 0.  1.
         23    2    1    2    0    0 -0.44223385448E+02  0.97819838432E+01 -0.18701311659E+03  0.21315876563E+03  0.91713458995E+02 0.  0.
         23    2    1    2    0    0  0.25239188561E+02 -0.24101446286E+02  0.21304290035E+02  0.72647769044E+02  0.60049389846E+02 0.  0.
        -11    1    4    4    0    0 -0.14025647120E+02 -0.21885272947E+02  0.20841946392E+02  0.33317723189E+02  0.00000000000E+00 0.  1.
         11    1    4    4    0    0  0.39264835680E+02 -0.22161733387E+01  0.46234364317E+00  0.39330045855E+02  0.00000000000E+00 0. -1.
        -11    1    3    3    0    0  0.20855735465E+02 -0.16425056829E+02 -0.87230440967E+02  0.91180557275E+02  0.00000000000E+00 0. -1.
         11    1    3    3    0    0 -0.65079120913E+02  0.26207040672E+02 -0.99782675619E+02  0.12197820835E+03  0.00000000000E+00 0.  1.
         -2    1    1    2    0  502  0.18984196887E+02  0.14319462443E+02 -0.22315706621E+02  0.32610389419E+02  0.00000000000E+00 0.  1.
<scales pt_clust_5="13000.00000" pt_clust_6="13000.00000" pt_clust_7="13000.00000" pt_clust_8="13000.00000" pt_clust_9="23.77914"></scales>
<clustering>
<clus scale="   23.779">  1  9  2 -1</clus>
<clus scale="   60.049">  5  6 -1 -1</clus>
<clus scale="   73.346">  1  5  2 -1</clus>
<clus scale="   91.713">  7  8 -1 -1</clus>
<clus scale="   23.779">  1  5  2 -1</clus>
</clustering>
</event>
<event>
 9    1  0.3231311E-005  0.9793823E+02  0.7546771E-02  0.1286976E+00
         -1   -1    0    0    0  501 -0.00000000000E+00  0.00000000000E+00  0.30481268371E+03  0.30481268371E+03  0.00000000000E+00 0.  1.
         21   -1    0    0  501  502  0.00000000000E+00 -0.00000000000E+00 -0.22128272004E+03  0.22128272004E+03  0.00000000000E+00 0. -1.
         23    2    1    2    0    0  0.29948885632E+02  0.19923743194E+02  0.24018585010E+03  0.25902342135E+03  0.90055532468E+02 0.  0.
         23    2    1    2    0    0  0.13307417348E+02  0.30149019742E+02 -0.32350104579E+01  0.99990102725E+02  0.94347785360E+02 0.  0.
        -11    1    4    4    0    0  0.16483999004E+02  0.61163699188E+02  0.13259259554E+02  0.64718840267E+02  0.00000000000E+00 0. -1.
         11    1    4    4    0    0 -0.31765816562E+01 -0.31014679446E+02 -0.16494270012E+02  0.35271262458E+02  0.00000000000E+00 0.  1.
        -13    1    3    3    0    0  0.57098749865E+02 -0.25428450771E+01  0.18425843408E+03  0.19291942315E+03  0.00000000000E+00 0.  1.
         13    1    3    3    0    0 -0.27149864232E+02  0.22466588271E+02  0.55927416012E+02  0.66103998201E+02  0.00000000000E+00 0. -1.
         -1    1    1    2    0  502 -0.43256302980E+02 -0.50072762936E+02 -0.15342087597E+03  0.16708187968E+03  0.00000000000E+00 0.  1.
<scales pt_clust_5="13000.00000" pt_clust_6="13000.00000" pt_clust_7="13000.00000" pt_clust_8="13000.00000" pt_clust_9="66.16940"></scales>
<clustering>
<clus scale="   66.169">  2  9  1 -1</clus>
<clus scale="   90.056">  7  8 -1 -1</clus>
<clus scale="   93.810">  1  7  2 -1</clus>
<clus scale="   94.348">  5  6 -1 -1</clus>
<clus scale="   66.169">  2  5  1 -1</clus>
</clustering>
</event>
<event>
 9    1  0.3231311E-005  0.1806780E+03  0.7546771E-02  0.1167623E+00
         21   -1    0    0  501  502  0.00000000000E+00  0.00000000000E+00  0.18400879813E+03  0.18400879813E+03  0.00000000000E+00 0. -1.
          2   -1    0    0  502    0 -0.00000000000E+00 -0.00000000000E+00 -0.41435071655E+03  0.41435071655E+03  0.00000000000E+00 0. -1.
         23    2    1    2    0    0  0.32360257478E+02 -0.13322852311E+03 -0.18049012441E+03  0.24258978682E+03  0.86464409002E+02 0.  0.
         23    2    1    2    0    0 -0.37127505187E+02  0.22969666730E+03 -0.60362950900E+01  0.24971018119E+03  0.90441843874E+02 0.  0.
        -11    1    4    4    0    0 -0.59191378823E+02  0.15796482302E+03  0.20886553312E+02  0.16997868322E+03  0.00000000000E+00 0. -1.
         11    1    4    4    0    0  0.22063873636E+02  0.71731844277E+02 -0.26922848402E+02  0.79731497975E+02  0.00000000000E+00 0.  1.
        -13    1    3    3    0    0 -0.10244649186E+02 -0.28488098247E+02 -0.80240211272E+00  0.30284788720E+02  0.00000000000E+00 0.  1.
         13    1    3    3    0    0  0.42604906664E+02 -0.10474042486E+03 -0.17968772230E+03  0.21230499810E+03  0.00000000000E+00 0. -1.
          2    1    1    2  501    0  0.47672477085E+01 -0.96468144187E+02 -0.43815498918E+02  0.10605954667E+03  0.00000000000E+00 0. -1.
<scales pt_clust_5="13000.00000" pt_clust_6="13000.00000" pt_clust_7="13000.00000" pt_clust_8="13000.00000" pt_clust_9="96.58591"></scales>
<clustering>
<clus scale="   86.464">  7  8 -1 -1</clus>
<clus scale="   90.442">  5  6 -1 -1</clus>
<clus scale="   96.586">  1  9  2 -1</clus>
<clus scale="  178.720">  2  7  1 -1</clus>
<clus scale="   96.586">  1  5  2 -1</clus>
</clustering>
</event>
<event>
 9    1  0.3231311E-005  0.1597886E+03  0.7546771E-02  0.1189479E+00
          2   -1    0    0  502    0 -0.00000000000E+00  0.00000000000E+00  0.11491124958E+03  0.11491124958E+03  0.00000000000E+00 0. -1.
         21   -1    0    0  501  502  0.00000000000E+00 -0.00000000000E+00 -0.49272258055E+03  0.49272258055E+03  0.00000000000E+00 0.  1.
         23    2    1    2    0    0  0.12340677497E+03 -0.11242493233E+02  0.14312298588E+01  0.15447437536E+03  0.92220705162E+02 0.  0.
         23    2    1    2    0    0 -0.15074550848E+03 -0.17414186615E+02 -0.18628470755E+03  0.25617888520E+03  0.88871630630E+02 0.  0.
        -13    1    3    3    0    0 -0.55640835328E+01 -0.21519812065E+02 -0.10428421099E+02  0.24552256586E+02  0.00000000000E+00 0.  1.
         13    1    3    3    0    0  0.12897085850E+03  0.10277318832E+02  0.11859650958E+02  0.12992211877E+03  0.00000000000E+00 0. -1.
        -13    1    4    4    0    0 -0.12995341869E+03  0.67982792909E+01 -0.18235137877E+03  0.22402261709E+03  0.00000000000E+00 0.  1.
         13    1    4    4    0    0 -0.20792089788E+02 -0.24212465906E+02 -0.39333287836E+01  0.32156268103E+02  0.00000000000E+00 0. -1.
          2    1    1    2  501    0  0.27338733515E+02  0.28656679848E+02 -0.19295785327E+03  0.19698056958E+03  0.00000000000E+00 0. -1.
<scales pt_clust_5="13000.00000" pt_clust_6="13000.00000" pt_clust_7="13000.00000" pt_clust_8="13000.00000" pt_clust_9="39.60570"></scales>
<clustering>
<clus scale="   39.606">  2  9  1 -1</clus>
<clus scale="   88.872">  7  8 -1 -1</clus>
<clus scale="   92.221">  5  6 -1 -1</clus>
<clus scale="  157.879">  2  7  1 -1</clus>
<clus scale="   39.606">  2  5  1 -1</clus>
</clustering>
</event>
<event>
 9    1  0.3231311E-005  0.1387729E+03  0.7546771E-02  0.1215673E+00
         21   -1    0    0  501  502  0.00000000000E+00  0.00000000000E+00  0.10799064092E+03  0.10799064092E+03  0.00000000000E+00 0.  1.
          1   -1    0    0  502    0 -0.00000000000E+00 -0.00000000000E+00 -0.39928726649E+03  0.39928726649E+03  0.00000000000E+00 0. -1.
         23    2    1    2    0    0 -0.22969223410E+02 -0.99266656085E+02 -0.32240874252E+03  0.35150358128E+03  0.96051632811E+02 0.  0.
         23    2    1    2    0    0  0.37491373602E+02  0.84446320755E+02  0.21675741917E+02  0.13298002071E+03  0.93150759181E+02 0.  0.
        -13    1    4    4    0    0 -0.10524215462E+02  0.80731225977E+02  0.23652140256E+02  0.84780385099E+02  0.00000000000E+00 0. -1.
         13    1    4    4    0    0  0.48015589063E+02  0.37150947775E+01 -0.19763983398E+01  0.48199635608E+02  0.00000000000E+00 0.  1.
        -13    1    3    3    0    0  0.21518436303E+02 -0.27270959354E+02 -0.26393134819E+02  0.43627352550E+02  0.00000000000E+00 0.  1.
         13    1    3    3    0    0 -0.44487659713E+02 -0.71995696732E+02 -0.29601560770E+03  0.30787622873E+03  0.00000000000E+00 0. -1.
          1    1    1    2  501    0 -0.14522150192E+02  0.14820335331E+02  0.94363750331E+01  0.22794305413E+02  0.00000000000E+00 0. -1.
<scales pt_clust_5="13000.00000" pt_clust_6="13000.00000" pt_clust_7="13000.00000" pt_clust_8="13000.00000" pt_clust_9="20.74934"></scales>
<clustering>
<clus scale="   20.749">  1  9  2 -1</clus>
<clus scale="   93.151">  5  6 -1 -1</clus>
<clus scale="   96.052">  7  8 -1 -1</clus>
<clus scale="  136.781">  1  5  2 -1</clus>
<clus scale="   20.749">  1  5  2 -1</clus>
</clustering>
</event>
<event>
 9    1  0.3231311E-005  0.1013093E+03  0.7546771E-02  0.1279161E+00
         21   -1    0    0  501  502  0.00000000000E+00  0.00000000000E+00  0.35448850769E+02  0.35448850769E+02  0.00000000000E+00 0. -1.
         -4   -1    0    0    0  501 -0.00000000000E+00 -0.00000000000E+00 -0.47951770393E+03  0.47951770393E+03  0.00000000000E+00 0.  1.
         23    2    1    2    0    0 -0.20501208629E+02 -0.15538268606E+02 -0.20169669742E+03  0.22336189283E+03  0.92451284848E+02 0.  0.
         23    2    1    2    0    0  0.35076667516E+02  0.47913242941E+02 -0.23051192491E+03  0.25417141408E+03  0.89114021091E+02 0.  0.
        -11    1    4    4    0    0  0.53784108643E+02  0.55721325947E+02 -0.12744780056E+03  0.14913262009E+03  0.00000000000E+00 0. -1.
         11    1    4    4    0    0 -0.18707441127E+02 -0.78080830061E+01 -0.10306412435E+03  0.10503879399E+03  0.00000000000E+00 0.  1.
        -13    1    3    3    0    0 -0.21208604102E+02  0.31026476911E+02 -0.39124617162E+02  0.54251108980E+02  0.00000000000E+00 0. -1.
         13    1    3    3    0    0  0.70739547347E+00 -0.46564745517E+02 -0.16257208026E+03  0.16911078385E+03  0.00000000000E+00 0.  1.
         -4    1    1    2    0  502 -0.14575458888E+02 -0.32374974335E+02 -0.11860230826E+02  0.37433247792E+02  0.00000000000E+00 0.  1.
<scales pt_clust_5="13000.00000" pt_clust_6="13000.00000" pt_clust_7="13000.00000" pt_clust_8="13000.00000" pt_clust_9="35.50469"></scales>
<clustering>
<clus scale="   35.505">  1  9  2 -1</clus>
<clus scale="   89.114">  5  6 -1 -1</clus>
<clus scale="   92.451">  7  8 -1 -1</clus>
<clus scale="   98.273">  1  5  2 -1</clus>
<clus scale="   35.505">  1  5  2 -1</clus>
</clustering>
</event>
<event>
 9    1  0.3231311E-005  0.9925923E+02  0.7546771E-02  0.1282629E+00
         21   -1    0    0  501  502  0.00000000000E+00  0.00000000000E+00  0.35162221816E+02  0.35162221816E+02  0.00000000000E+00 0. -1.
         -1   -1    0    0    0  501 -0.00000000000E+00 -0.00000000000E+00 -0.38420272840E+03  0.38420272840E+03  0.00000000000E+00 0.  1.
         23    2    1    2    0    0 -0.37271428217E+02  0.16648381244E+02 -0.17636121467E+03  0.20254626654E+03  0.90859144220E+02 0.  0.
         23    2    1    2    0    0  0.43099492507E+02  0.12299006561E+02 -0.11747753472E+03  0.15421555603E+03  0.89289611610E+02 0.  0.
        -11    1    4    4    0    0  0.58556016012E+02  0.35656290611E+02 -0.99854094299E+02  0.12112397871E+03  0.00000000000E+00 0.  1.
         11    1    4    4    0    0 -0.15456523506E+02 -0.23357284050E+02 -0.17623440424E+02  0.33091577319E+02  0.00000000000E+00 0. -1.
        -13    1    3    3    0    0 -0.22636401482E+02  0.52681635134E+02 -0.12965170901E+03  0.14176504154E+03  0.00000000000E+00 0. -1.
         13    1    3    3    0    0 -0.14635026735E+02 -0.36033253890E+02 -0.46709505657E+02  0.60781224997E+02  0.00000000000E+00 0.  1.
         -1    1    1    2    0  502 -0.58280642893E+01 -0.28947387805E+02 -0.55201757193E+02  0.62603127648E+02  0.00000000000E+00 0.  1.
<scales pt_clust_5="13000.00000" pt_clust_6="13000.00000" pt_clust_7="13000.00000" pt_clust_8="13000.00000" pt_clust_9="29.52827"></scales>
<clustering>
<clus scale="   29.528">  1  9  2 -1</clus>
<clus scale="   89.290">  5  6 -1 -1</clus>
<clus scale="   90.859">  7  8 -1 -1</clus>
<clus scale="   97.825">  1  5  2 -1</clus>
<clus scale="   29.528">  1  5  2 -1</clus>
</clustering>
</event>
<event>
 9    1  0.3231311E-005  0.9296302E+02  0.7546771E-02  0.1310166E+00
         21   -1    0    0  501  502  0.00000000000E+00  0.00000000000E+00  0.40173081357E+03  0.40173081357E+03  0.00000000000E+00 0. -1.
         -3   -1    0    0    0  501 -0.00000000000E+00 -0.00000000000E+00 -0.40206515844E+02  0.40206515844E+02  0.00000000000E+00 0.  1.
         23    2    1    2    0    0 -0.51373096914E+01 -0.10141762321E+02  0.23233489312E+02  0.75791735963E+02  0.71241455072E+02 0.  0.
         23    2    1    2    0    0 -0.80575269254E+01 -0.11736489963E+02  0.15597332227E+03  0.18204663259E+03  0.92793481669E+02 0.  0.
        -13    1    3    3    0    0  0.22289176296E+02  0.10369578393E+02 -0.11388068371E+02  0.27092870598E+02  0.00000000000E+00 0.  1.
         13    1    3    3    0    0 -0.27426485988E+02 -0.20511340713E+02  0.34621557683E+02  0.48698865365E+02  0.00000000000E+00 0. -1.
        -13    1    4    4    0    0 -0.10733312780E+02  0.38281316362E+02  0.96002582466E+02  0.10390937891E+03  0.00000000000E+00 0. -1.
         13    1    4    4    0    0  0.26757858546E+01 -0.50017806325E+02  0.59970739802E+02  0.78137253675E+02  0.00000000000E+00 0.  1.
         -3    1    1    2    0  502  0.13194836617E+02  0.21878252284E+02  0.18231748615E+03  0.18409896086E+03  0.00000000000E+00 0.  1.
<scales pt_clust_5="13000.00000" pt_clust_6="13000.00000" pt_clust_7="13000.00000" pt_clust_8="13000.00000" pt_clust_9="25.54920"></scales>
<clustering>
<clus scale="   25.549">  1  9  2 -1</clus>
<clus scale="   71.241">  5  6 -1 -1</clus>
<clus scale="   71.462">  2  5  1 -1</clus>
<clus scale="   92.793">  7  8 -1 -1</clus>
<clus scale="   25.549">  1  5  2 -1</clus>
</clustering>
</event>
<event>
 9    1  0.3231311E-005  0.9240389E+02  0.7546771E-02  0.1297351E+00
         21   -1    0    0  501  502  0.00000000000E+00  0.00000000000E+00  0.22474916498E+03  0.22474916498E+03  0.00000000000E+00 0. -1.
          4   -1    0    0  502    0 -0.00000000000E+00 -0.00000000000E+00 -0.17244420459E+03  0.17244420459E+03  0.00000000000E+00 0. -1.
         23    2    1    2    0    0  0.10208667092E+02 -0.11979292930E+02 -0.79483268852E+02  0.12160987123E+03  0.90684344896E+02 0.  0.
         23    2    1    2    0    0  0.72796300577E+02  0.36879917692E+01 -0.34430583948E+01  0.11669337439E+03  0.91063638815E+02 0.  0.
        -11    1    4    4    0    0  0.39018550314E+02  0.42086316103E+02  0.19539478155E+02  0.60625873011E+02  0.00000000000E+00 0.  1.
         11    1    4    4    0    0  0.33777750263E+02 -0.38398324334E+02 -0.22982536550E+02  0.56067501378E+02  0.00000000000E+00 0. -1.
        -11    1    3    3    0    0 -0.24716707664E+02  0.15560042832E+02  0.14693515342E+01  0.29243624342E+02  0.00000000000E+00 0.  1.
         11    1    3    3    0    0  0.34925374756E+02 -0.27539335762E+02 -0.80952620386E+02  0.92366246884E+02  0.00000000000E+00 0. -1.
          4    1    1    2  501    0 -0.83004967669E+02  0.82913011603E+01  0.13523128764E+03  0.15889012395E+03  0.00000000000E+00 0. -1.
<scales pt_clust_5="13000.00000" pt_clust_6="13000.00000" pt_clust_7="13000.00000" pt_clust_8="13000.00000" pt_clust_9="83.41805"></scales>
<clustering>
<clus scale="   83.418">  1  9  2 -1</clus>
<clus scale="   90.684">  7  8 -1 -1</clus>
<clus scale="   91.064">  5  6 -1 -1</clus>
<clus scale="   92.030">  2  7  1 -1</clus>
<clus scale="   83.418">  1  5  2 -1</clus>
</clustering>
</event>
<event>
 9    1  0.3231311E-005  0.1760032E+03  0.7546771E-02  0.1171770E+00
         21   -1    0    0  501  502  0.00000000000E+00  0.00000000000E+00  0.13267720529E+03  0.13267720529E+03  0.00000000000E+00 0. -1.
          2   -1    0    0  502    0 -0.00000000000E+00 -0.00000000000E+00 -0.64051262858E+03  0.64051262858E+03  0.00000000000E+00 0. -1.
         23    2    1    2    0    0  0.31197849824E+02  0.16189930479E+03 -0.44249087338E+03  0.48107323490E+03  0.91916231381E+02 0.  0.
         23    2    1    2    0    0  0.28363270013E+01 -0.12508083840E+03 -0.13547626699E+03  0.20590533288E+03  0.91596540894E+02 0.  0.
        -13    1    3    3    0    0  0.59291723281E+02  0.10874503398E+03 -0.34471967701E+03  0.36629584570E+03  0.00000000000E+00 0.  1.
         13    1    3    3    0    0 -0.28093873456E+02  0.53154270811E+02 -0.97771196372E+02  0.11477738920E+03  0.00000000000E+00 0. -1.
        -13    1    4    4    0    0  0.27000015649E+02 -0.15994274086E+02 -0.69233002985E+02  0.76013330087E+02  0.00000000000E+00 0. -1.
         13    1    4    4    0    0 -0.24163688648E+02 -0.10908656431E+03 -0.66243264006E+02  0.12989200279E+03  0.00000000000E+00 0.  1.
          2    1    1    2  501    0 -0.34034176826E+02 -0.36818466394E+02  0.70131717081E+02  0.86211266088E+02  0.00000000000E+00 0. -1.
<scales pt_clust_5="13000.00000" pt_clust_6="13000.00000" pt_clust_7="13000.00000" pt_clust_8="13000.00000" pt_clust_9="50.13905"></scales>
<clustering>
<clus scale="   50.139">  1  9  2 -1</clus>
<clus scale="   91.597">  7  8 -1 -1</clus>
<clus scale="   91.916">  5  6 -1 -1</clus>
<clus scale="  175.836">  1  7  2 -1</clus>
<clus scale="   50.139">  1  5  2 -1</clus>
</clustering>
</event>
<event>
 9    1  0.3231311E-005  0.1684688E+03  0.7546771E-02  0.1180630E+00
         -3   -1    0    0    0  501 -0.00000000000E+00  0.00000000000E+00  0.17772168297E+03  0.17772168297E+03  0.00000000000E+00 0.  1.
         21   -1    0    0  501  502  0.00000000000E+00 -0.00000000000E+00 -0.18627939740E+03  0.18627939740E+03  0.00000000000E+00 0. -1.
         23    2    1    2    0    0 -0.31919355095E+02 -0.12859328178E+03 -0.79054702251E+01  0.15674494599E+03  0.83375081929E+02 0.  0.
         23    2    1    2    0    0  0.28824601694E+02  0.14930273953E+03 -0.20053492739E+02  0.17871024880E+03  0.91722651289E+02 0.  0.
        -11    1    4    4    0    0  0.54636749202E+02  0.12853960915E+03  0.60307356638E+00  0.13967093177E+03  0.00000000000E+00 0.  1.
         11    1    4    4    0    0 -0.25812147508E+02  0.20763130378E+02 -0.20656566305E+02  0.39039317023E+02  0.00000000000E+00 0. -1.
        -11    1    3    3    0    0 -0.24662216390E+01 -0.86049721579E+02 -0.40971758571E+02  0.95337934913E+02  0.00000000000E+00 0. -1.
         11    1    3    3    0    0 -0.29453133456E+02 -0.42543560196E+02  0.33066288346E+02  0.61407011078E+02  0.00000000000E+00 0.  1.
         -3    1    1    2    0  502  0.30947534014E+01 -0.20709457757E+02  0.19401248533E+02  0.28545885585E+02  0.00000000000E+00 0.  1.
<scales pt_clust_5="13000.00000" pt_clust_6="13000.00000" pt_clust_7="13000.00000" pt_clust_8="13000.00000" pt_clust_9="20.93943"></scales>
<clustering>
<clus scale="   20.939">  2  9  1 -1</clus>
<clus scale="   83.375">  7  8 -1 -1</clus>
<clus scale="   91.723">  5  6 -1 -1</clus>
<clus scale="  164.073">  1  7  2 -1</clus>
<clus scale="   20.939">  2  5  1 -1</clus>
</clustering>
</event>
<event>
 9    1  0.3231311E-005  0.9345909E+02  0.7546771E-02  0.1295666E+00
          1   -1    0    0  502    0 -0.00000000000E+00  0.00000000000E+00  0.77049881507E+02  0.77049881507E+02  0.00000000000E+00 0. -1.
         21   -1    0    0  501  502  0.00000000000E+00 -0.00000000000E+00 -0.25046700219E+03  0.25046700219E+03  0.00000000000E+00 0. -1.
         23    2    1    2    0    0  0.13697980731E+02 -0.67518051093E+01 -0.20276561188E+02  0.94171319318E+02  0.90685593675E+02 0.  0.
         23    2    1    2    0    0  0.99465901412E+01 -0.40337030952E+02 -0.40707376558E+02  0.10917775519E+03  0.92394161073E+02 0.  0.
        -11    1    4    4    0    0 -0.29632079380E+02 -0.23079750844E+02 -0.52376073447E+02  0.64451439838E+02  0.00000000000E+00 0.  1.
         11    1    4    4    0    0  0.39578669521E+02 -0.17257280108E+02  0.11668696889E+02  0.44726315351E+02  0.00000000000E+00 0. -1.
        -13    1    3    3    0    0  0.23408193619E+02 -0.39387989316E+02 -0.34413544046E+02  0.57303134684E+02  0.00000000000E+00 0. -1.
         13    1    3    3    0    0 -0.97102128880E+01  0.32636184206E+02  0.14136982858E+02  0.36868184634E+02  0.00000000000E+00 0.  1.
          1    1    1    2  501    0 -0.23644570872E+02  0.47088836062E+02 -0.11243318294E+03  0.12416780919E+03  0.00000000000E+00 0. -1.
<scales pt_clust_5="13000.00000" pt_clust_6="13000.00000" pt_clust_7="13000.00000" pt_clust_8="13000.00000" pt_clust_9="52.69179"></scales>
<clustering>
<clus scale="   52.692">  2  9  1 -1</clus>
<clus scale="   90.686">  7  8 -1 -1</clus>
<clus scale="   91.770">  1  7  2 -1</clus>
<clus scale="   92.394">  5  6 -1 -1</clus>
<clus scale="   52.692">  2  5  1 -1</clus>
</clustering>
</event>
<event>
 9    1  0.3231311E-005  0.2868042E+03  0.7546771E-02  0.1092042E+00
          2   -1    0    0  502    0 -0.00000000000E+00  0.00000000000E+00  0.75388852415E+03  0.75388852415E+03  0.00000000000E+00 0. -1.
         21   -1    0    0  501  502  0.00000000000E+00 -0.00000000000E+00 -0.33408787224E+03  0.33408787224E+03  0.00000000000E+00 0. -1.
         23    2    1    2    0    0 -0.25480226607E+03 -0.75370598801E+02  0.58661994343E+03  0.65033827485E+03  0.90620040500E+02 0.  0.
         23    2    1    2    0    0  0.29483385186E+03  0.13000810661E+03 -0.12093965627E+03  0.35582903860E+03  0.90326055319E+02 0.  0.
        -13    1    3    3    0    0 -0.22286596431E+03 -0.86013683195E+02  0.55467534353E+03  0.60393073151E+03  0.00000000000E+00 0. -1.
         13    1    3    3    0    0 -0.31936301757E+02  0.10643084395E+02  0.31944599902E+02  0.46407543333E+02  0.00000000000E+00 0.  1.
        -13    1    4    4    0    0  0.12577981471E+03  0.32843734169E+02 -0.90698530231E+02  0.15851023957E+03  0.00000000000E+00 0. -1.
         13    1    4    4    0    0  0.16905403715E+03  0.97164372443E+02 -0.30241126039E+02  0.19731879903E+03  0.00000000000E+00 0.  1.
          2    1    1    2  501    0 -0.40031585787E+02 -0.54637507811E+02 -0.45879635247E+02  0.81809082936E+02  0.00000000000E+00 0. -1.
<scales pt_clust_5="13000.00000" pt_clust_6="13000.00000" pt_clust_7="13000.00000" pt_clust_8="13000.00000" pt_clust_9="67.73319"></scales>
<clustering>
<clus scale="   67.733">  2  9  1 -1</clus>
<clus scale="   90.326">  7  8 -1 -1</clus>
<clus scale="   90.620">  5  6 -1 -1</clus>
<clus scale="  286.711">  2  7  1 -1</clus>
<clus scale="   67.733">  2  5  1 -1</clus>
</clustering>
</event>
<event>
 9    1  0.3231311E-005  0.9630181E+02  0.7546771E-02  0.1289265E+00
         21   -1    0    0  501  502  0.00000000000E+00  0.00000000000E+00  0.17171856636E+03  0.17171856636E+03  0.00000000000E+00 0.  1.
          2   -1    0    0  502    0 -0.00000000000E+00 -0.00000000000E+00 -0.28429415074E+03  0.28429415074E+03  0.00000000000E+00 0. -1.
         23    2    1    2    0    0 -0.22065251799E+01 -0.28653894408E+02 -0.23741350723E+03  0.25624020157E+03  0.92021481552E+02 0.  0.
         23    2    1    2    0    0 -0.30885387740E+02  0.25996754906E+02  0.36344345819E+02  0.10525665302E+03  0.90157157729E+02 0.  0.
        -11    1    3    3    0    0 -0.98518876860E+01  0.32256588651E+02 -0.65101087155E+02  0.73319156781E+02  0.00000000000E+00 0.  1.
         11    1    3    3    0    0  0.76453625061E+01 -0.60910483059E+02 -0.17231242008E+03  0.18292104479E+03  0.00000000000E+00 0. -1.
        -13    1    4    4    0    0  0.10588586445E+02  0.37481727655E+02  0.46882330525E+02  0.60950397754E+02  0.00000000000E+00 0.  1.
         13    1    4    4    0    0 -0.41473974185E+02 -0.11484972748E+02 -0.10537984706E+02  0.44306255263E+02  0.00000000000E+00 0. -1.
          2    1    1    2  501    0  0.33091912920E+02  0.26571395013E+01  0.88493577029E+02  0.94515862512E+02  0.00000000000E+00 0. -1.
<scales pt_clust_5="13000.00000" pt_clust_6="13000.00000" pt_clust_7="13000.00000" pt_clust_8="13000.00000" pt_clust_9="33.19842"></scales>
<clustering>
<clus scale="   33.198">  1  9  2 -1</clus>
<clus scale="   90.157">  7  8 -1 -1</clus>
<clus scale="   92.021">  5  6 -1 -1</clus>
<clus scale="   94.522">  1  7  2 -1</clus>
<clus scale="   33.198">  1  5  2 -1</clus>
</clustering>
</event>
<event>
 9    1  0.3231311E-005  0.2047369E+03  0.7546771E-02  0.1145826E+00
         21   -1    0    0  501  502  0.00000000000E+00  0.00000000000E+00  0.57955704179E+03  0.57955704179E+03  0.00000000000E+00 0.  1.
         -1   -1    0    0    0  501 -0.00000000000E+00 -0.00000000000E+00 -0.14899392801E+03  0.14899392801E+03  0.00000000000E+00 0.  1.
         23    2    1    2    0    0 -0.26628624886E+02 -0.18383581269E+03 -0.21321604182E+01  0.20721028117E+03  0.91797956523E+02 0.  0.
         23    2    1    2    0    0 -0.48232563981E+02  0.18005381821E+03  0.25765989257E+03  0.33093090447E+03  0.91547177005E+02 0.  0.
        -11    1    3    3    0    0 -0.54566442804E+02 -0.10538637827E+03 -0.24074365008E+02  0.12109236332E+03  0.00000000000E+00 0. -1.
         11    1    3    3    0    0  0.27937817917E+02 -0.78449434427E+02  0.21942204590E+02  0.86117917846E+02  0.00000000000E+00 0.  1.
        -11    1    4    4    0    0  0.16383002347E+02  0.12329338198E+02  0.61725391763E+02  0.65041827578E+02  0.00000000000E+00 0. -1.
         11    1    4    4    0    0 -0.64615566328E+02  0.16772448001E+03  0.19593450080E+03  0.26588907689E+03  0.00000000000E+00 0.  1.
         -1    1    1    2    0  502  0.74861188867E+02  0.37819944883E+01  0.17503538163E+03  0.19040978416E+03  0.00000000000E+00 0.  1.
<scales pt_clust_5="13000.00000" pt_clust_6="13000.00000" pt_clust_7="13000.00000" pt_clust_8="13000.00000" pt_clust_9="74.95666"></scales>
<clustering>
<clus scale="   74.957">  1  9  2 -1</clus>
<clus scale="   91.547">  7  8 -1 -1</clus>
<clus scale="   91.798">  5  6 -1 -1</clus>
<clus scale="  204.625">  1  7  2 -1</clus>
<clus scale="   74.957">  1  5  2 -1</clus>
</clustering>
</event>
<event>
 9    1  0.3231311E-005  0.9701470E+02  0.7546771E-02  0.1287259E+00
         -3   -1    0    0    0  501 -0.00000000000E+00  0.00000000000E+00  0.44084999104E+02  0.44084999104E+02  0.00000000000E+00 0.  1.
         21   -1    0    0  501  502  0.00000000000E+00 -0.00000000000E+00 -0.32846264424E+03  0.32846264424E+03  0.00000000000E+00 0. -1.
         23    2    1    2    0    0 -0.77698325802E+01 -0.33578332821E+02 -0.79552687078E+02  0.12622080782E+03  0.91734331476E+02 0.  0.
         23    2    1    2    0    0 -0.22988255740E+02  0.20113787786E+02 -0.11772827715E+03  0.15298238848E+03  0.92793532007E+02 0.  0.
        -11    1    3    3    0    0 -0.22680863879E+02 -0.61839787043E+02 -0.57039142427E+02  0.87132339672E+02  0.00000000000E+00 0.  1.
         11    1    3    3    0    0  0.14911031299E+02  0.28261454223E+02 -0.22513544651E+02  0.39088468145E+02  0.00000000000E+00 0. -1.
        -13    1    4    4    0    0 -0.49640213803E+02  0.11090929379E+02 -0.26177401530E+02  0.57205033797E+02  0.00000000000E+00 0. -1.
         13    1    4    4    0    0  0.26651958063E+02  0.90228584077E+01 -0.91550875624E+02  0.95777354683E+02  0.00000000000E+00 0.  1.
         -3    1    1    2    0  502  0.30758088320E+02  0.13464545035E+02 -0.87096680903E+02  0.93344447046E+02  0.00000000000E+00 0.  1.
<scales pt_clust_5="13000.00000" pt_clust_6="13000.00000" pt_clust_7="13000.00000" pt_clust_8="13000.00000" pt_clust_9="33.57609"></scales>
<clustering>
<clus scale="   33.576">  2  9  1 -1</clus>
<clus scale="   91.734">  5  6 -1 -1</clus>
<clus scale="   92.794">  7  8 -1 -1</clus>
<clus scale="   96.002">  1  5  2 -1</clus>
<clus scale="   33.576">  2  5  1 -1</clus>
</clustering>
</event>
<event>
 9    1  0.3231311E-005  0.1733447E+03  0.7546771E-02  0.1175517E+00
         21   -1    0    0  501  502  0.00000000000E+00  0.00000000000E+00  0.24327685832E+03  0.24327685832E+03  0.00000000000E+00 0.  1.
          2   -1    0    0  502    0 -0.00000000000E+00 -0.00000000000E+00 -0.40702680498E+03  0.40702680498E+03  0.00000000000E+00 0. -1.
         23    2    1    2    0    0  0.56466740548E+02 -0.11749567925E+03 -0.17854355318E+03  0.24035325591E+03  0.94330057855E+02 0.  0.
         23    2    1    2    0    0  0.66939821357E+02  0.21808586129E+03  0.20165706518E+02  0.25065061549E+03  0.10186605298E+03 0.  0.
        -11    1    3    3    0    0  0.19457365677E+02 -0.13155506944E+02  0.68093475988E+01  0.24454522215E+02  0.00000000000E+00 0.  1.
         11    1    3    3    0    0  0.37009374871E+02 -0.10434017231E+03 -0.18535290078E+03  0.21589873370E+03  0.00000000000E+00 0. -1.
        -11    1    4    4    0    0  0.78726611304E+02  0.91019471605E+02 -0.55606797636E+01  0.12047134389E+03  0.00000000000E+00 0. -1.
         11    1    4    4    0    0 -0.11786789948E+02  0.12706638968E+03  0.25726386282E+02  0.13017927160E+03  0.00000000000E+00 0.  1.
          2    1    1    2  501    0 -0.12340656190E+03 -0.10059018203E+03 -0.53721000033E+01  0.15929979190E+03  0.00000000000E+00 0. -1.
<scales pt_clust_5="13000.00000" pt_clust_6="13000.00000" pt_clust_7="13000.00000" pt_clust_8="13000.00000" pt_clust_9="159.20918"></scales>
<clustering>
<clus scale="   94.330">  5  6 -1 -1</clus>
<clus scale="  101.866">  7  8 -1 -1</clus>
<clus scale="  159.209">  1  9  2 -1</clus>
<clus scale="  169.026">  2  5  1 -1</clus>
<clus scale="  159.209">  1  5  2 -1</clus>
</clustering>
</event>
<event>
 9    1  0.3231311E-005  0.2357267E+03  0.7546771E-02  0.1123229E+00
         21   -1    0    0  501  502  0.00000000000E+00  0.00000000000E+00  0.13516463458E+03  0.13516463458E+03  0.00000000000E+00 0. -1.
          1   -1    0    0  502    0 -0.00000000000E+00 -0.00000000000E+00 -0.76617673012E+03  0.76617673012E+03  0.00000000000E+00 0. -1.
         23    2    1    2    0    0 -0.67203137132E+02 -0.17147897834E+03 -0.25599692198E+03  0.33085733089E+03  0.10005422373E+03 0.  0.
         23    2    1    2    0    0 -0.31716028394E+01  0.28175787655E+03 -0.23031036488E+03  0.37541091656E+03  0.92157105226E+02 0.  0.
        -11    1    3    3    0    0 -0.90636302154E+02 -0.10910197351E+03 -0.18967623322E+03  0.23684436523E+03  0.00000000000E+00 0. -1.
         11    1    3    3    0    0  0.23433165022E+02 -0.62377004832E+02 -0.66320688764E+02  0.94012965664E+02  0.00000000000E+00 0.  1.
        -13    1    4    4    0    0  0.67262969981E+01  0.29087744741E+02 -0.69769122322E+02  0.75888539286E+02  0.00000000000E+00 0.  1.
         13    1    4    4    0    0 -0.98978998375E+01  0.25267013180E+03 -0.16054124255E+03  0.29952237727E+03  0.00000000000E+00 0. -1.
          1    1    1    2  501    0  0.70374739971E+02 -0.11027889820E+03 -0.14470480869E+03  0.19507311725E+03  0.00000000000E+00 0. -1.
<scales pt_clust_5="13000.00000" pt_clust_6="13000.00000" pt_clust_7="13000.00000" pt_clust_8="13000.00000" pt_clust_9="130.82070"></scales>
<clustering>
<clus scale="   92.157">  7  8 -1 -1</clus>
<clus scale="  100.054">  5  6 -1 -1</clus>
<clus scale="  130.821">  1  9  2 -1</clus>
<clus scale="  232.485">  1  7  2 -1</clus>
<clus scale="  130.821">  1  5  2 -1</clus>
</clustering>
</event>
<event>
 9    1  0.3231311E-005  0.1044783E+03  0.7546771E-02  0.1272287E+00
         -3   -1    0    0    0  501 -0.00000000000E+00  0.00000000000E+00  0.93307644934E+03  0.93307644934E+03  0.00000000000E+00 0.  1.
         21   -1    0    0  501  502  0.00000000000E+00 -0.00000000000E+00 -0.22077916360E+02  0.22077916360E+02  0.00000000000E+00 0.  1.
         23    2    1    2    0    0 -0.30810907337E+02  0.44927950908E+01  0.40777883829E+03  0.41915576891E+03  0.91861201996E+02 0.  0.
         23    2    1    2    0    0  0.78040016107E+02 -0.40345760725E+02  0.34479734785E+03  0.36684285838E+03  0.89277360721E+02 0.  0.
        -11    1    3    3    0    0 -0.40858203308E+02 -0.36336985960E+02  0.24580696928E+03  0.25181508190E+03  0.00000000000E+00 0.  1.
         11    1    3    3    0    0  0.10047295971E+02  0.40829781051E+02  0.16197186901E+03  0.16734068701E+03  0.00000000000E+00 0. -1.
        -13    1    4    4    0    0  0.17738600751E+02 -0.55154995072E+02  0.11453066916E+03  0.12835110290E+03  0.00000000000E+00 0. -1.
         13    1    4    4    0    0  0.60301415356E+02  0.14809234346E+02  0.23026667869E+03  0.23849175547E+03  0.00000000000E+00 0.  1.
         -3    1    1    2    0  502 -0.47229108771E+02  0.35852965635E+02  0.15842234684E+03  0.16915573841E+03  0.00000000000E+00 0.  1.
<scales pt_clust_5="13000.00000" pt_clust_6="13000.00000" pt_clust_7="13000.00000" pt_clust_8="13000.00000" pt_clust_9="59.29607"></scales>
<clustering>
<clus scale="   59.296">  2  9  1 -1</clus>
<clus scale="   89.277">  7  8 -1 -1</clus>
<clus scale="   91.861">  5  6 -1 -1</clus>
<clus scale="  102.214">  2  7  1 -1</clus>
<clus scale="   59.296">  2  5  1 -1</clus>
</clustering>
</event>
<event>
 9    1  0.3231311E-005  0.1729389E+03  0.7546771E-02  0.1198374E+00
         21   -1    0    0  501  502  0.00000000000E+00  0.00000000000E+00  0.50258074968E+03  0.50258074968E+03  0.00000000000E+00 0. -1.
          2   -1    0    0  502    0 -0.00000000000E+00 -0.00000000000E+00 -0.19303172851E+03  0.19303172851E+03  0.00000000000E+00 0. -1.
         23    2    1    2    0    0  0.11340030396E+01 -0.44666123607E+02  0.29267020404E+03  0.31008295234E+03  0.92191325175E+02 0.  0.
         23    2    1    2    0    0  0.13929270387E+03 -0.72517164459E+01 -0.10092587204E+03  0.19502213251E+03  0.91610893336E+02 0.  0.
        -11    1    3    3    0    0 -0.40924848352E+02 -0.25604303074E+01  0.90937752401E+02  0.99755069183E+02  0.00000000000E+00 0.  1.
         11    1    3    3    0    0  0.42058851392E+02 -0.42105693300E+02  0.20173245164E+03  0.21032788316E+03  0.00000000000E+00 0. -1.
        -13    1    4    4    0    0  0.13987921725E+03 -0.30521942143E+02 -0.81771133741E+02  0.16487662868E+03  0.00000000000E+00 0. -1.
         13    1    4    4    0    0 -0.58651337879E+00  0.23270225697E+02 -0.19154738301E+02  0.30145503833E+02  0.00000000000E+00 0.  1.
          2    1    1    2  501    0 -0.14042670691E+03  0.51917840053E+02  0.11780468916E+03  0.19050739334E+03  0.00000000000E+00 0. -1.
<scales pt_clust_5="13000.00000" pt_clust_6="13000.00000" pt_clust_7="13000.00000" pt_clust_8="13000.00000" pt_clust_9="146.68093"></scales>
<clustering>
<clus scale="   91.611">  7  8 -1 -1</clus>
<clus scale="   92.191">  5  6 -1 -1</clus>
<clus scale="  102.448">  2  5  1 -1</clus>
<clus scale="  146.681">  1  9  2 -1</clus>
<clus scale="  146.681">  1  5  2 -1</clus>
</clustering>
</event>
<event>
 9    1  0.3231311E-005  0.2725746E+03  0.7546771E-02  0.1138238E+00
          2   -1    0    0  502    0 -0.00000000000E+00  0.00000000000E+00  0.62125590725E+03  0.62125590725E+03  0.00000000000E+00 0. -1.
         21   -1    0    0  501  502  0.00000000000E+00 -0.00000000000E+00 -0.17320369003E+03  0.17320369003E+03  0.00000000000E+00 0.  1.
         23    2    1    2    0    0 -0.23024793194E+02  0.39641909631E+02  0.82277763405E+01  0.10438574621E+03  0.93418764755E+02 0.  0.
         23    2    1    2    0    0 -0.10246360656E+03 -0.24980755805E+03  0.20734250896E+03  0.35248714084E+03  0.91398368166E+02 0.  0.
        -11    1    4    4    0    0 -0.21902051039E+01 -0.12431031732E+03  0.86126530890E+02  0.15124692167E+03  0.00000000000E+00 0. -1.
         11    1    4    4    0    0 -0.10027340146E+03 -0.12549724073E+03  0.12121597807E+03  0.20124021917E+03  0.00000000000E+00 0.  1.
        -13    1    3    3    0    0  0.32635671513E+02  0.20854833014E+02 -0.14558399228E+02  0.41375815439E+02  0.00000000000E+00 0.  1.
         13    1    3    3    0    0 -0.55660464707E+02  0.18787076617E+02  0.22786175569E+02  0.63009930775E+02  0.00000000000E+00 0. -1.
          2    1    1    2  501    0  0.12548839976E+03  0.21016564842E+03  0.23248193192E+03  0.33758671023E+03  0.00000000000E+00 0. -1.
<scales pt_clust_5="13000.00000" pt_clust_6="13000.00000" pt_clust_7="13000.00000" pt_clust_8="13000.00000" pt_clust_9="256.79430"></scales>
<clustering>
<clus scale="   91.398">  5  6 -1 -1</clus>
<clus scale="   93.419">  7  8 -1 -1</clus>
<clus scale="  104.061">  1  7  2 -1</clus>
<clus scale="  256.794">  2  9  1 -1</clus>
<clus scale="  256.794">  2  5  1 -1</clus>
</clustering>
</event>
<event>
 9    1  0.3231311E-005  0.1483032E+03  0.7546771E-02  0.1212516E+00
         -4   -1    0    0    0  501 -0.00000000000E+00  0.00000000000E+00  0.21784689333E+03  0.21784689333E+03  0.00000000000E+00 0.  1.
         21   -1    0    0  501  502  0.00000000000E+00 -0.00000000000E+00 -0.12983266521E+04  0.12983266521E+04  0.00000000000E+00 0.  1.
         23    2    1    2    0    0  0.65689302003E+01 -0.76148836098E+02  0.18519868046E+03  0.22058435583E+03  0.92288193772E+02 0.  0.
         23    2    1    2    0    0  0.10505910384E+03 -0.38153217655E+01 -0.62247412106E+03  0.63789102217E+03  0.91536619946E+02 0.  0.
        -11    1    3    3    0    0  0.38508522596E+02 -0.26134224383E+02  0.13520141523E+03  0.14298715564E+03  0.00000000000E+00 0.  1.
         11    1    3    3    0    0 -0.31939592396E+02 -0.50014611715E+02  0.49997265229E+02  0.77597200193E+02  0.00000000000E+00 0. -1.
        -11    1    4    4    0    0  0.52767359481E+02 -0.44895031940E+02 -0.24513837437E+03  0.25474061457E+03  0.00000000000E+00 0.  1.
         11    1    4    4    0    0  0.52291744361E+02  0.41079710175E+02 -0.37733574669E+03  0.38315040760E+03  0.00000000000E+00 0. -1.
         -4    1    1    2    0  502 -0.11162803404E+03  0.79964157863E+02 -0.64320431816E+03  0.65769816742E+03  0.00000000000E+00 0.  1.
<scales pt_clust_5="13000.00000" pt_clust_6="13000.00000" pt_clust_7="13000.00000" pt_clust_8="13000.00000" pt_clust_9="116.68285"></scales>
<clustering>
<clus scale="   91.537">  7  8 -1 -1</clus>
<clus scale="   92.288">  5  6 -1 -1</clus>
<clus scale="  119.829">  1  5  2 -1</clus>
<clus scale="  116.683">  2  9  1 -1</clus>
<clus scale="  116.683">  2  5  1 -1</clus>
</clustering>
</event>
<event>
 9    1  0.3231311E-005  0.9678439E+02  0.7546771E-02  0.1287589E+00
          2   -1    0    0  502    0 -0.00000000000E+00  0.00000000000E+00  0.22436250338E+03  0.22436250338E+03  0.00000000000E+00 0. -1.
         21   -1    0    0  501  502  0.00000000000E+00 -0.00000000000E+00 -0.14729279698E+03  0.14729279698E+03  0.00000000000E+00 0.  1.
         23    2    1    2    0    0 -0.45045567486E+01  0.27242514369E+02  0.18556550219E+03  0.20958891395E+03  0.93437206867E+02 0.  0.
         23    2    1    2    0    0 -0.75506854692E+01 -0.83559262036E+01 -0.67131776181E+02  0.11502370158E+03  0.92719696924E+02 0.  0.
        -11    1    4    4    0    0  0.41298188054E+02  0.21633176255E+01 -0.42550821490E+02  0.59336267908E+02  0.00000000000E+00 0.  1.
         11    1    4    4    0    0 -0.48848873523E+02 -0.10519243829E+02 -0.24580954691E+02  0.55687433670E+02  0.00000000000E+00 0. -1.
        -11    1    3    3    0    0  0.38082333730E+02  0.79181197394E+01  0.36429394389E+02  0.53292227746E+02  0.00000000000E+00 0.  1.
         11    1    3    3    0    0 -0.42586890479E+02  0.19324394630E+02  0.14913610780E+03  0.15629668620E+03  0.00000000000E+00 0. -1.
          2    1    1    2  501    0  0.12055242218E+02 -0.18886588166E+02 -0.41364019616E+02  0.47042684833E+02  0.00000000000E+00 0. -1.
<scales pt_clust_5="13000.00000" pt_clust_6="13000.00000" pt_clust_7="13000.00000" pt_clust_8="13000.00000" pt_clust_9="22.40607"></scales>
<clustering>
<clus scale="   22.406">  2  9  1 -1</clus>
<clus scale="   92.720">  5  6 -1 -1</clus>
<clus scale="   93.437">  7  8 -1 -1</clus>
<clus scale="   96.092">  2  5  1 -1</clus>
<clus scale="   22.406">  2  5  1 -1</clus>
</clustering>
</event>
<event>
 9    1  0.3231311E-005  0.9516117E+02  0.7546771E-02  0.1294949E+00
         21   -1    0    0  501  502  0.00000000000E+00  0.00000000000E+00  0.36296193537E+02  0.36296193537E+02  0.00000000000E+00 0. -1.
         -2   -1    0    0    0  501 -0.00000000000E+00 -0.00000000000E+00 -0.55878273483E+03  0.55878273483E+03  0.00000000000E+00 0.  1.
         23    2    1    2    0    0  0.35469102155E+02 -0.17889821250E+02 -0.29914804324E+03  0.31292155969E+03  0.82778305339E+02 0.  0.
         23    2    1    2    0    0 -0.10431508774E+02 -0.37802615370E+02 -0.81646320788E+02  0.12786802466E+03  0.90256611543E+02 0.  0.
        -11    1    3    3    0    0 -0.26917283355E+02 -0.35861969215E+01 -0.10708209282E+03  0.11047160519E+03  0.00000000000E+00 0.  1.
         11    1    3    3    0    0  0.62386385510E+02 -0.14303624328E+02 -0.19206595042E+03  0.20244995450E+03  0.00000000000E+00 0. -1.
        -13    1    4    4    0    0 -0.23090614806E+02 -0.60084187102E+02 -0.79297364327E+02  0.10213401990E+03  0.00000000000E+00 0.  1.
         13    1    4    4    0    0  0.12659106031E+02  0.22281571732E+02 -0.23489564610E+01  0.25734004756E+02  0.00000000000E+00 0. -1.
         -2    1    1    2    0  502 -0.25037593381E+02  0.55692436620E+02 -0.14169217727E+03  0.15428934402E+03  0.00000000000E+00 0.  1.
<scales pt_clust_5="13000.00000" pt_clust_6="13000.00000" pt_clust_7="13000.00000" pt_clust_8="13000.00000" pt_clust_9="61.06171"></scales>
<clustering>
<clus scale="   61.062">  1  9  2 -1</clus>
<clus scale="   82.778">  5  6 -1 -1</clus>
<clus scale="   88.100">  2  5  1 -1</clus>
<clus scale="   90.257">  7  8 -1 -1</clus>
<clus scale="   61.062">  1  5  2 -1</clus>
</clustering>
</event>
<event>
 9    1  0.3231311E-005  0.1099576E+03  0.7546771E-02  0.1260928E+00
         21   -1    0    0  501  502  0.00000000000E+00  0.00000000000E+00  0.59620582379E+03  0.59620582379E+03  0.00000000000E+00 0. -1.
          1   -1    0    0  502    0 -0.00000000000E+00 -0.00000000000E+00 -0.13042824647E+03  0.13042824647E+03  0.00000000000E+00 0. -1.
         23    2    1    2    0    0  0.50125349278E+02 -0.34333776716E+02 -0.92241083352E+02  0.14365385730E+03  0.91851262347E+02 0.  0.
         23    2    1    2    0    0 -0.57124618530E+02 -0.62091697797E+01  0.25668272020E+03  0.27884854856E+03  0.92567371949E+02 0.  0.
        -13    1    4    4    0    0 -0.26919174222E+02 -0.48284626305E+02  0.10663359261E+03  0.12011149051E+03  0.00000000000E+00 0.  1.
         13    1    4    4    0    0 -0.30205444308E+02  0.42075456526E+02  0.15004912759E+03  0.15873705805E+03  0.00000000000E+00 0. -1.
        -13    1    3    3    0    0  0.14907682306E+02 -0.25435316190E+02  0.13073582326E+02  0.32250780708E+02  0.00000000000E+00 0.  1.
         13    1    3    3    0    0  0.35217666973E+02 -0.88984605263E+01 -0.10531466568E+03  0.11140307659E+03  0.00000000000E+00 0. -1.
          1    1    1    2  501    0  0.69992692519E+01  0.40542946496E+02  0.30133594047E+03  0.30413166441E+03  0.00000000000E+00 0. -1.
<scales pt_clust_5="13000.00000" pt_clust_6="13000.00000" pt_clust_7="13000.00000" pt_clust_8="13000.00000" pt_clust_9="41.14268"></scales>
<clustering>
<clus scale="   41.143">  1  9  2 -1</clus>
<clus scale="   91.851">  7  8 -1 -1</clus>
<clus scale="   92.567">  5  6 -1 -1</clus>
<clus scale="  109.355">  2  7  1 -1</clus>
<clus scale="   41.143">  1  5  2 -1</clus>
</clustering>
</event>
<event>
 9    1  0.3231311E-005  0.1490870E+03  0.7546771E-02  0.1201681E+00
         -4   -1    0    0    0  501 -0.00000000000E+00  0.00000000000E+00  0.42156831575E+03  0.42156831575E+03  0.00000000000E+00 0.  1.
         21   -1    0    0  501  502  0.00000000000E+00 -0.00000000000E+00 -0.29087846233E+03  0.29087846233E+03  0.00000000000E+00 0.  1.
         23    2    1    2    0    0 -0.72957895411E+02 -0.10549173334E+03  0.25196240649E+03  0.29684273510E+03  0.90438900870E+02 0.  0.
         23    2    1    2    0    0  0.15444823510E+02  0.10883222633E+03  0.10819367274E+03  0.17901650924E+03  0.90873778935E+02 0.  0.
        -11    1    3    3    0    0 -0.94371525329E+02 -0.90794393681E+02  0.21164281920E+03  0.24888207978E+03  0.00000000000E+00 0.  1.
         11    1    3    3    0    0  0.21413629918E+02 -0.14697339663E+02  0.40319587297E+02  0.47960655325E+02  0.00000000000E+00 0. -1.
        -11    1    4    4    0    0 -0.28759582069E+02  0.85202047330E+02  0.85174119835E+02  0.12385932795E+03  0.00000000000E+00 0.  1.
         11    1    4    4    0    0  0.44204405579E+02  0.23630179002E+02  0.23019552910E+02  0.55157181296E+02  0.00000000000E+00 0. -1.
         -4    1    1    2    0  502  0.57513071901E+02 -0.33404929883E+01 -0.22946622582E+03  0.23658753374E+03  0.00000000000E+00 0.  1.
<scales pt_clust_5="13000.00000" pt_clust_6="13000.00000" pt_clust_7="13000.00000" pt_clust_8="13000.00000" pt_clust_9="57.61000"></scales>
<clustering>
<clus scale="   57.610">  2  9  1 -1</clus>
<clus scale="   90.439">  5  6 -1 -1</clus>
<clus scale="   90.874">  7  8 -1 -1</clus>
<clus scale="  148.822">  1  5  2 -1</clus>
<clus scale="   57.610">  2  5  1 -1</clus>
</clustering>
</event>
<event>
 9    1  0.3231311E-005  0.1072079E+03  0.7546771E-02  0.1269709E+00
          4   -1    0    0  502    0 -0.00000000000E+00  0.00000000000E+00  0.79990935267E+02  0.79990935267E+02  0.00000000000E+00 0. -1.
         21   -1    0    0  501  502  0.00000000000E+00 -0.00000000000E+00 -0.22033359306E+03  0.22033359306E+03  0.00000000000E+00 0. -1.
         23    2    1    2    0    0  0.31668343916E+02  0.41374540366E+02  0.29898344266E+01  0.97210076687E+02  0.82012945946E+02 0.  0.
         23    2    1    2    0    0 -0.51737874756E+02 -0.43013622640E+02 -0.85926870176E+02  0.14227960882E+03  0.91285708905E+02 0.  0.
        -13    1    4    4    0    0  0.24018774311E+02 -0.26662972498E+02 -0.26122985974E+02  0.44387228096E+02  0.00000000000E+00 0.  1.
         13    1    4    4    0    0 -0.75756649067E+02 -0.16350650142E+02 -0.59803884202E+02  0.97892380723E+02  0.00000000000E+00 0. -1.
        -13    1    3    3    0    0 -0.20486851288E+02 -0.91404016332E+01  0.93925205722E+01  0.24320309629E+02  0.00000000000E+00 0.  1.
         13    1    3    3    0    0  0.52155195204E+02  0.50514941999E+02 -0.64026861455E+01  0.72889767058E+02  0.00000000000E+00 0. -1.
          4    1    1    2  501    0  0.20069530841E+02  0.16390822746E+01 -0.57405622042E+02  0.60834842820E+02  0.00000000000E+00 0. -1.
<scales pt_clust_5="13000.00000" pt_clust_6="13000.00000" pt_clust_7="13000.00000" pt_clust_8="13000.00000" pt_clust_9="20.13635"></scales>
<clustering>
<clus scale="   20.136">  2  9  1 -1</clus>
<clus scale="   82.013">  7  8 -1 -1</clus>
<clus scale="   91.286">  5  6 -1 -1</clus>
<clus scale="   99.431">  1  7  2 -1</clus>
<clus scale="   20.136">  2  5  1 -1</clus>
</clustering>
</event>
<event>
 9    1  0.3231311E-005  0.9818382E+02  0.7546771E-02  0.1285135E+00
         21   -1    0    0  501  502  0.00000000000E+00  0.00000000000E+00  0.27097059694E+03  0.27097059694E+03  0.00000000000E+00 0. -1.
         -1   -1    0    0    0  501 -0.00000000000E+00 -0.00000000000E+00 -0.79605128591E+02  0.79605128591E+02  0.00000000000E+00 0.  1.
         23    2    1    2    0    0  0.32169417875E+01  0.36071845754E+02 -0.23376256650E+02  0.10123163265E+03  0.91596218823E+02 0.  0.
         23    2    1    2    0    0  0.42969490282E+01 -0.41143120905E+01  0.15226013376E+03  0.17876299232E+03  0.93475492806E+02 0.  0.
        -13    1    3    3    0    0 -0.30600149956E+02  0.45470421823E+02 -0.34076637919E+02  0.64537939927E+02  0.00000000000E+00 0.  1.
         13    1    3    3    0    0  0.33817091744E+02 -0.93985760693E+01  0.10700381268E+02  0.36693692720E+02  0.00000000000E+00 0. -1.
        -13    1    4    4    0    0 -0.27739727229E+02  0.14455859116E+02  0.11683586823E+02  0.33391174442E+02  0.00000000000E+00 0.  1.
         13    1    4    4    0    0  0.32036676257E+02 -0.18570171207E+02  0.14057654693E+03  0.14537181788E+03  0.00000000000E+00 0. -1.
         -1    1    1    2    0  502 -0.75138908156E+01 -0.31957533663E+02  0.62481591238E+02  0.70581100563E+02  0.00000000000E+00 0.  1.
<scales pt_clust_5="13000.00000" pt_clust_6="13000.00000" pt_clust_7="13000.00000" pt_clust_8="13000.00000" pt_clust_9="32.82899"></scales>
<clustering>
<clus scale="   32.829">  1  9  2 -1</clus>
<clus scale="   91.596">  5  6 -1 -1</clus>
<clus scale="   93.475">  7  8 -1 -1</clus>
<clus scale="   96.396">  2  5  1 -1</clus>
<clus scale="   32.829">  1  5  2 -1</clus>
</clustering>
</event>
<event>
 9    1  0.3231311E-005  0.1239678E+03  0.7546771E-02  0.1236977E+00
         -2   -1    0    0    0  501 -0.00000000000E+00  0.00000000000E+00  0.15078300534E+03  0.15078300534E+03  0.00000000000E+00 0.  1.
         21   -1    0    0  501  502  0.00000000000E+00 -0.00000000000E+00 -0.21131102676E+03  0.21131102676E+03  0.00000000000E+00 0.  1.
         23    2    1    2    0    0 -0.65890875693E+02  0.20795119714E+02  0.24114954873E+02  0.11634118173E+03  0.90441666366E+02 0.  0.
         23    2    1    2    0    0  0.97579912355E+02 -0.33315407230E+02  0.16722781231E+02  0.13881375817E+03  0.91421290684E+02 0.  0.
        -11    1    4    4    0    0  0.78308082164E+02 -0.64240097303E+02  0.10231485729E+02  0.10180191125E+03  0.00000000000E+00 0.  1.
         11    1    4    4    0    0  0.19271830190E+02  0.30924690073E+02  0.64912955016E+01  0.37011846918E+02  0.00000000000E+00 0. -1.
        -13    1    3    3    0    0 -0.25923476814E+02  0.43196164593E+02  0.43531023532E+02  0.66579916607E+02  0.00000000000E+00 0.  1.
         13    1    3    3    0    0 -0.39967398878E+02 -0.22401044879E+02 -0.19416068659E+02  0.49761265126E+02  0.00000000000E+00 0. -1.
         -2    1    1    2    0  502 -0.31689036662E+02  0.12520287516E+02 -0.10136575752E+03  0.10693909220E+03  0.00000000000E+00 0.  1.
<scales pt_clust_5="13000.00000" pt_clust_6="13000.00000" pt_clust_7="13000.00000" pt_clust_8="13000.00000" pt_clust_9="34.07276"></scales>
<clustering>
<clus scale="   34.073">  2  9  1 -1</clus>
<clus scale="   90.442">  7  8 -1 -1</clus>
<clus scale="   91.421">  5  6 -1 -1</clus>
<clus scale="  123.247">  1  7  2 -1</clus>
<clus scale="   34.073">  2  5  1 -1</clus>
</clustering>
</event>
<event>
 9    1  0.3231311E-005  0.1496844E+03  0.7546771E-02  0.1217312E+00
         -3   -1    0    0    0  501 -0.00000000000E+00  0.00000000000E+00  0.48438640538E+03  0.48438640538E+03  0.00000000000E+00 0.  1.
         21   -1    0    0  501  502  0.00000000000E+00 -0.00000000000E+00 -0.16772678411E+03  0.16772678411E+03  0.00000000000E+00 0.  1.
         23    2    1    2    0    0 -0.62674649226E+01  0.51141487719E+02  0.34496037064E+03  0.36066998054E+03  0.91817452967E+02 0.  0.
         23    2    1    2    0    0 -0.25820615895E+02  0.76798736123E+02  0.55949354672E+02  0.13492986818E+03  0.92255021346E+02 0.  0.
        -11    1    4    4    0    0  0.24755593987E+02  0.60910618995E+02  0.47813327234E+02  0.81296108155E+02  0.00000000000E+00 0.  1.
         11    1    4    4    0    0 -0.50576209882E+02  0.15888117127E+02  0.81360274384E+01  0.53633760025E+02  0.00000000000E+00 0. -1.
        -13    1    3    3    0    0  0.88787579463E+01  0.74980069029E+02  0.27622229478E+03  0.28635572148E+03  0.00000000000E+00 0.  1.
         13    1    3    3    0    0 -0.15146222869E+02 -0.23838581310E+02  0.68738075862E+02  0.74314259057E+02  0.00000000000E+00 0. -1.
         -3    1    1    2    0  502  0.32088080818E+02 -0.12794022384E+03 -0.84250104042E+02  0.15651334077E+03  0.00000000000E+00 0.  1.
<scales pt_clust_5="13000.00000" pt_clust_6="13000.00000" pt_clust_7="13000.00000" pt_clust_8="13000.00000" pt_clust_9="117.87465"></scales>
<clustering>
<clus scale="   91.817">  7  8 -1 -1</clus>
<clus scale="   92.255">  5  6 -1 -1</clus>
<clus scale="  105.286">  1  7  2 -1</clus>
<clus scale="  117.875">  2  9  1 -1</clus>
<clus scale="  117.875">  2  5  1 -1</clus>
</clustering>
</event>
<event>
 9    1  0.3231311E-005  0.1607240E+03  0.7546771E-02  0.1189709E+00
         21   -1    0    0  501  502  0.00000000000E+00  0.00000000000E+00  0.63534184991E+03  0.63534184991E+03  0.00000000000E+00 0.  1.
         -3   -1    0    0    0  501 -0.00000000000E+00 -0.00000000000E+00 -0.13633786622E+03  0.13633786622E+03  0.00000000000E+00 0.  1.
         23    2    1    2    0    0 -0.33996779366E+02  0.14431475390E+03 -0.18071106975E+02  0.18067618205E+03  0.10166016257E+03 0.  0.
         23    2    1    2    0    0  0.23376140450E+02 -0.87083532738E+02  0.82443102994E+02  0.15249107660E+03  0.91250630659E+02 0.  0.
        -11    1    3    3    0    0 -0.42329573557E+02  0.52837046820E+02 -0.49197208615E+02  0.83689375967E+02  0.00000000000E+00 0.  1.
         11    1    3    3    0    0  0.83327941917E+01  0.91477707080E+02  0.31126101640E+02  0.96986806087E+02  0.00000000000E+00 0. -1.
        -11    1    4    4    0    0 -0.17542983803E+02 -0.98848488567E+01 -0.12311589125E+02  0.23601731810E+02  0.00000000000E+00 0.  1.
         11    1    4    4    0    0  0.40919124253E+02 -0.77198683882E+02  0.94754692120E+02  0.12888934479E+03  0.00000000000E+00 0. -1.
         -3    1    1    2    0  502  0.10620638916E+02 -0.57231221161E+02  0.43463198767E+03  0.43851245747E+03  0.00000000000E+00 0.  1.
<scales pt_clust_5="13000.00000" pt_clust_6="13000.00000" pt_clust_7="13000.00000" pt_clust_8="13000.00000" pt_clust_9="58.20834"></scales>
<clustering>
<clus scale="   58.208">  1  9  2 -1</clus>
<clus scale="   91.251">  7  8 -1 -1</clus>
<clus scale="  101.660">  5  6 -1 -1</clus>
<clus scale="  154.351">  1  7  2 -1</clus>
<clus scale="   58.208">  1  5  2 -1</clus>
</clustering>
</event>
<event>
 9    1  0.3231311E-005  0.1186623E+03  0.7546771E-02  0.1245399E+00
          1   -1    0    0  502    0 -0.00000000000E+00  0.00000000000E+00  0.37850971047E+02  0.37850971047E+02  0.00000000000E+00 0. -1.
         21   -1    0    0  501  502  0.00000000000E+00 -0.00000000000E+00 -0.10087835564E+04  0.10087835564E+04  0.00000000000E+00 0.  1.
         23    2    1    2    0    0  0.65051829115E+02 -0.29810799983E+02 -0.19288438910E+03  0.22467090965E+03  0.90289566502E+02 0.  0.
         23    2    1    2    0    0 -0.91050512459E+02 -0.52143526633E+02 -0.23908320648E+03  0.27618371400E+03  0.90041774021E+02 0.  0.
        -11    1    3    3    0    0  0.77225626800E+02 -0.49603395975E+02 -0.14860114136E+03  0.17466136820E+03  0.00000000000E+00 0.  1.
         11    1    3    3    0    0 -0.12173797686E+02  0.19792595993E+02 -0.44283247744E+02  0.50009541460E+02  0.00000000000E+00 0. -1.
        -11    1    4    4    0    0 -0.71928628244E+02 -0.18311060167E+01 -0.76944867580E+02  0.10534511454E+03  0.00000000000E+00 0. -1.
         11    1    4    4    0    0 -0.19121884215E+02 -0.50312420616E+02 -0.16213833890E+03  0.17083859946E+03  0.00000000000E+00 0.  1.
          1    1    1    2  501    0  0.25998683344E+02  0.81954326616E+02 -0.53896498975E+03  0.54577990378E+03  0.00000000000E+00 0. -1.
<scales pt_clust_5="13000.00000" pt_clust_6="13000.00000" pt_clust_7="13000.00000" pt_clust_8="13000.00000" pt_clust_9="85.97932"></scales>
<clustering>
<clus scale="   85.979">  2  9  1 -1</clus>
<clus scale="   90.042">  7  8 -1 -1</clus>
<clus scale="   90.290">  5  6 -1 -1</clus>
<clus scale="  118.474">  2  7  1 -1</clus>
<clus scale="   85.979">  2  5  1 -1</clus>
</clustering>
</event>
<event>
 9    1  0.3231311E-005  0.2554284E+03  0.7546771E-02  0.1110020E+00
         -3   -1    0    0    0  501 -0.00000000000E+00  0.00000000000E+00  0.11592022600E+04  0.11592022600E+04  0.00000000000E+00 0.  1.
         21   -1    0    0  501  502  0.00000000000E+00 -0.00000000000E+00 -0.70015587937E+02  0.70015587937E+02  0.00000000000E+00 0.  1.
         23    2    1    2    0    0  0.21721037238E+03 -0.89334872225E+02  0.46149240484E+03  0.52601001703E+03  0.92467470098E+02 0.  0.
         23    2    1    2    0    0 -0.20192940258E+03  0.13720746290E+03  0.46540865380E+03  0.53331988755E+03  0.90683603359E+02 0.  0.
        -11    1    4    4    0    0 -0.17303048398E+03  0.13782494570E+03  0.34762925190E+03  0.41204533830E+03  0.00000000000E+00 0.  1.
         11    1    4    4    0    0 -0.28898918605E+02 -0.61748280167E+00  0.11777940190E+03  0.12127454924E+03  0.00000000000E+00 0. -1.
        -13    1    3    3    0    0  0.21724970992E+03 -0.68144298884E+02  0.44209630153E+03  0.49728283879E+03  0.00000000000E+00 0.  1.
         13    1    3    3    0    0 -0.39337536482E-01 -0.21190573340E+02  0.19396103305E+02  0.28727178235E+02  0.00000000000E+00 0. -1.
         -3    1    1    2    0  502 -0.15280969797E+02 -0.47872590672E+02  0.16228561347E+03  0.16988794340E+03  0.00000000000E+00 0.  1.
<scales pt_clust_5="13000.00000" pt_clust_6="13000.00000" pt_clust_7="13000.00000" pt_clust_8="13000.00000" pt_clust_9="50.25232"></scales>
<clustering>
<clus scale="   50.252">  2  9  1 -1</clus>
<clus scale="   90.684">  5  6 -1 -1</clus>
<clus scale="   92.467">  7  8 -1 -1</clus>
<clus scale="  254.788">  2  5  1 -1</clus>
<clus scale="   50.252">  2  5  1 -1</clus>
</clustering>
</event>
<event>
 9    1  0.3231311E-005  0.1083128E+03  0.7546771E-02  0.1263896E+00
         -2   -1    0    0    0  501 -0.00000000000E+00  0.00000000000E+00  0.24760641673E+03  0.24760641673E+03  0.00000000000E+00 0.  1.
         21   -1    0    0  501  502  0.00000000000E+00 -0.00000000000E+00 -0.81579883051E+02  0.81579883051E+02  0.00000000000E+00 0. -1.
         23    2    1    2    0    0 -0.12615212875E+01 -0.62357091464E+02  0.13243374335E+03  0.17224769044E+03  0.90777597407E+02 0.  0.
         23    2    1    2    0    0  0.21200615857E+02  0.50477375001E+02  0.59719996106E+02  0.12199113394E+03  0.91202671696E+02 0.  0.
        -11    1    3    3    0    0  0.36673536383E+02 -0.21814601159E+01  0.29453244694E+02  0.47087160268E+02  0.00000000000E+00 0. -1.
         11    1    3    3    0    0 -0.37935057670E+02 -0.60175631348E+02  0.10298049866E+03  0.12516053017E+03  0.00000000000E+00 0.  1.
        -13    1    4    4    0    0 -0.21364924783E+02  0.42145278371E+02  0.62705224607E+02  0.78515155817E+02  0.00000000000E+00 0.  1.
         13    1    4    4    0    0  0.42565540640E+02  0.83320966296E+01 -0.29852285010E+01  0.43475978120E+02  0.00000000000E+00 0. -1.
         -2    1    1    2    0  502 -0.19939094570E+02  0.11879716463E+02 -0.26127205779E+02  0.34947475407E+02  0.00000000000E+00 0.  1.
<scales pt_clust_5="13000.00000" pt_clust_6="13000.00000" pt_clust_7="13000.00000" pt_clust_8="13000.00000" pt_clust_9="23.20981"></scales>
<clustering>
<clus scale="   23.210">  2  9  1 -1</clus>
<clus scale="   90.778">  5  6 -1 -1</clus>
<clus scale="   91.203">  7  8 -1 -1</clus>
<clus scale="  107.955">  1  5  2 -1</clus>
<clus scale="   23.210">  2  5  1 -1</clus>
</clustering>
</event>
<event>
 9    1  0.3231311E-005  0.1015313E+03  0.7546771E-02  0.1278640E+00
         21   -1    0    0  501  502  0.00000000000E+00  0.00000000000E+00  0.14407542264E+03  0.14407542264E+03  0.00000000000E+00 0. -1.
         -1   -1    0    0    0  501 -0.00000000000E+00 -0.00000000000E+00 -0.12679895389E+03  0.12679895389E+03  0.00000000000E+00 0.  1.
         23    2    1    2    0    0 -0.37371013084E+02 -0.14948977663E+02 -0.56470507163E+02  0.11654695908E+03  0.93670758184E+02 0.  0.
         23    2    1    2    0    0  0.39382377726E+02 -0.66122468994E+01  0.84554881478E+02  0.13012529326E+03  0.90489615320E+02 0.  0.
        -11    1    4    4    0    0  0.10348425016E+02 -0.47526239911E+02  0.38691545976E+02  0.62151983962E+02  0.00000000000E+00 0. -1.
         11    1    4    4    0    0  0.29033952709E+02  0.40913993011E+02  0.45863335501E+02  0.67973309301E+02  0.00000000000E+00 0.  1.
        -13    1    3    3    0    0  0.28424996606E+02 -0.39625673851E+01 -0.37447744364E+02  0.47180673271E+02  0.00000000000E+00 0. -1.
         13    1    3    3    0    0 -0.65796009690E+02 -0.10986410278E+02 -0.19022762799E+02  0.69366285806E+02  0.00000000000E+00 0.  1.
         -1    1    1    2    0  502 -0.20113646415E+01  0.21561224563E+02 -0.10807905570E+02  0.24202124187E+02  0.00000000000E+00 0.  1.
<scales pt_clust_5="13000.00000" pt_clust_6="13000.00000" pt_clust_7="13000.00000" pt_clust_8="13000.00000" pt_clust_9="21.65485"></scales>
<clustering>
<clus scale="   21.655">  1  9  2 -1</clus>
<clus scale="   90.490">  5  6 -1 -1</clus>
<clus scale="   93.671">  7  8 -1 -1</clus>
<clus scale="   98.604">  1  5  2 -1</clus>
<clus scale="   21.655">  1  5  2 -1</clus>
</clustering>
</event>
<event>
 9    1  0.3231311E-005  0.1115190E+03  0.7546771E-02  0.1257930E+00
          2   -1    0    0  502    0 -0.00000000000E+00  0.00000000000E+00  0.80236991478E+02  0.80236991478E+02  0.00000000000E+00 0. -1.
         21   -1    0    0  501  502  0.00000000000E+00 -0.00000000000E+00 -0.48155666380E+03  0.48155666380E+03  0.00000000000E+00 0. -1.
         23    2    1    2    0    0  0.64883267113E+02  0.18318323398E+01 -0.68895940960E+01  0.11220570560E+03  0.91265874794E+02 0.  0.
         23    2    1    2    0    0 -0.56480283132E+02 -0.44538003221E+02 -0.10338061931E+03  0.15530200929E+03  0.90870817804E+02 0.  0.
        -11    1    3    3    0    0 -0.74668827236E+01 -0.23661657936E+02  0.18992824654E+02  0.31246692341E+02  0.00000000000E+00 0.  1.
         11    1    3    3    0    0  0.72350149836E+02  0.25493490276E+02 -0.25882418750E+02  0.80959013261E+02  0.00000000000E+00 0. -1.
        -11    1    4    4    0    0 -0.40798241366E+02 -0.91182711521E+00 -0.10094185659E+03  0.10887876900E+03  0.00000000000E+00 0.  1.
         11    1    4    4    0    0 -0.15682041766E+02 -0.43626176106E+02 -0.24387627174E+01  0.46423240292E+02  0.00000000000E+00 0. -1.
          2    1    1    2  501    0 -0.84029839807E+01  0.42706170881E+02 -0.29104945891E+03  0.29428594038E+03  0.00000000000E+00 0. -1.
<scales pt_clust_5="13000.00000" pt_clust_6="13000.00000" pt_clust_7="13000.00000" pt_clust_8="13000.00000" pt_clust_9="43.52502"></scales>
<clustering>
<clus scale="   43.525">  2  9  1 -1</clus>
<clus scale="   90.871">  7  8 -1 -1</clus>
<clus scale="   91.266">  5  6 -1 -1</clus>
<clus scale="  111.196">  2  7  1 -1</clus>
<clus scale="   43.525">  2  5  1 -1</clus>
</clustering>
</event>
<event>
 9    1  0.3231311E-005  0.1486127E+03  0.7546771E-02  0.1202210E+00
         21   -1    0    0  501  502  0.00000000000E+00  0.00000000000E+00  0.23525811436E+03  0.23525811436E+03  0.00000000000E+00 0. -1.
          2   -1    0    0  502    0 -0.00000000000E+00 -0.00000000000E+00 -0.55846636748E+03  0.55846636748E+03  0.00000000000E+00 0. -1.
         23    2    1    2    0    0  0.68001704159E+02 -0.96527861022E+02 -0.44855751041E+03  0.47269850741E+03  0.91094341429E+02 0.  0.
         23    2    1    2    0    0 -0.90806805056E+02  0.74972719416E+02 -0.38897202497E+02  0.15380876147E+03  0.90979988136E+02 0.  0.
        -11    1    4    4    0    0  0.77626923952E+00  0.51787892568E+02 -0.27528484475E+02  0.58654973089E+02  0.00000000000E+00 0.  1.
         11    1    4    4    0    0 -0.91583074295E+02  0.23184826847E+02 -0.11368718022E+02  0.95153788379E+02  0.00000000000E+00 0. -1.
        -11    1    3    3    0    0  0.38827420794E+02  0.50354843731E+01 -0.17760819899E+03  0.18187247471E+03  0.00000000000E+00 0.  1.
         11    1    3    3    0    0  0.29174283365E+02 -0.10156334539E+03 -0.27094931143E+03  0.29082603271E+03  0.00000000000E+00 0. -1.
          2    1    1    2  501    0  0.22805100897E+02  0.21555141606E+02  0.16424645979E+03  0.16721721296E+03  0.00000000000E+00 0. -1.
<scales pt_clust_5="13000.00000" pt_clust_6="13000.00000" pt_clust_7="13000.00000" pt_clust_8="13000.00000" pt_clust_9="31.37988"></scales>
<clustering>
<clus scale="   31.380">  1  9  2 -1</clus>
<clus scale="   90.980">  5  6 -1 -1</clus>
<clus scale="   91.094">  7  8 -1 -1</clus>
<clus scale="  148.543">  1  5  2 -1</clus>
<clus scale="   31.380">  1  5  2 -1</clus>
</clustering>
</event>
<event>
 9    1  0.3231311E-005  0.1196764E+03  0.7546771E-02  0.1246890E+00
         21   -1    0    0  501  502  0.00000000000E+00  0.00000000000E+00  0.15095250236E+03  0.15095250236E+03  0.00000000000E+00 0. -1.
          1   -1    0    0  502    0 -0.00000000000E+00 -0.00000000000E+00 -0.13747093730E+03  0.13747093730E+03  0.00000000000E+00 0. -1.
         23    2    1    2    0    0  0.23260395134E+02 -0.59944464903E+02 -0.83579002160E+01  0.10266600040E+03  0.79599423922E+02 0.  0.
         23    2    1    2    0    0 -0.50651034402E+02  0.83819974885E+02 -0.15207935248E+02  0.13386527238E+03  0.89985078649E+02 0.  0.
        -11    1    4    4    0    0  0.77018418785E+01  0.25641289481E+02 -0.39716121741E+02  0.47897436473E+02  0.00000000000E+00 0.  1.
         11    1    4    4    0    0 -0.58352876280E+02  0.58178685404E+02  0.24508186493E+02  0.85967835908E+02  0.00000000000E+00 0. -1.
        -11    1    3    3    0    0  0.17780462528E+02 -0.92147791100E+01  0.31904592015E+02  0.37669085380E+02  0.00000000000E+00 0. -1.
         11    1    3    3    0    0  0.54799326057E+01 -0.50729685793E+02 -0.40262492231E+02  0.64996915024E+02  0.00000000000E+00 0.  1.
          1    1    1    2  501    0  0.27390639268E+02 -0.23875509982E+02  0.37047400526E+02  0.51892166867E+02  0.00000000000E+00 0. -1.
<scales pt_clust_5="13000.00000" pt_clust_6="13000.00000" pt_clust_7="13000.00000" pt_clust_8="13000.00000" pt_clust_9="36.33576"></scales>
<clustering>
<clus scale="   36.336">  1  9  2 -1</clus>
<clus scale="   79.599">  7  8 -1 -1</clus>
<clus scale="   89.985">  5  6 -1 -1</clus>
<clus scale="  112.077">  2  7  1 -1</clus>
<clus scale="   36.336">  1  5  2 -1</clus>
</clustering>
</event>
<event>
 9    1  0.3231311E-005  0.1680490E+03  0.7546771E-02  0.1180027E+00
         21   -1    0    0  501  502  0.00000000000E+00  0.00000000000E+00  0.86631181544E+03  0.86631181544E+03  0.00000000000E+00 0.  1.
         -1   -1    0    0    0  501 -0.00000000000E+00 -0.00000000000E+00 -0.79534983049E+02  0.79534983049E+02  0.00000000000E+00 0.  1.
         23    2    1    2    0    0  0.12152257590E+03  0.24918018854E+02  0.81578449454E+02  0.17310907199E+03  0.89011590660E+02 0.  0.
         23    2    1    2    0    0 -0.20093012344E+03 -0.48227848324E+02  0.43153209170E+03  0.48683189285E+03  0.89925001365E+02 0.  0.
        -11    1    4    4    0    0 -0.19101460545E+03 -0.21746257722E+02  0.33500679002E+03  0.38624995609E+03  0.00000000000E+00 0.  1.
         11    1    4    4    0    0 -0.99155179855E+01 -0.26481590601E+02  0.96525301685E+02  0.10058193676E+03  0.00000000000E+00 0. -1.
        -11    1    3    3    0    0  0.96968235061E+02  0.32566812260E+02  0.98754645685E+02  0.14218268501E+03  0.00000000000E+00 0.  1.
         11    1    3    3    0    0  0.24554340843E+02 -0.76487934061E+01 -0.17176196231E+02  0.30926386982E+02  0.00000000000E+00 0. -1.
         -1    1    1    2    0  502  0.79407547533E+02  0.23309829470E+02  0.27366629123E+03  0.28590583364E+03  0.00000000000E+00 0.  1.
<scales pt_clust_5="13000.00000" pt_clust_6="13000.00000" pt_clust_7="13000.00000" pt_clust_8="13000.00000" pt_clust_9="82.75812"></scales>
<clustering>
<clus scale="   82.758">  1  9  2 -1</clus>
<clus scale="   89.012">  7  8 -1 -1</clus>
<clus scale="   89.925">  5  6 -1 -1</clus>
<clus scale="  167.562">  2  7  1 -1</clus>
<clus scale="   82.758">  1  5  2 -1</clus>
</clustering>
</event>
<event>
 9    1  0.3231311E-005  0.1409561E+03  0.7546771E-02  0.1228095E+00
          3   -1    0    0  502    0 -0.00000000000E+00  0.00000000000E+00  0.20774225741E+03  0.20774225741E+03  0.00000000000E+00 0. -1.
         21   -1    0    0  501  502  0.00000000000E+00 -0.00000000000E+00 -0.43319018871E+03  0.43319018871E+03  0.00000000000E+00 0. -1.
         23    2    1    2    0    0 -0.42756082024E+01 -0.44455702923E+02 -0.10423617577E+03  0.14489117456E+03  0.90186926859E+02 0.  0.
         23    2    1    2    0    0  0.85509927355E+02 -0.21226835146E+02  0.15396911731E+03  0.20169840485E+03  0.95985578224E+02 0.  0.
        -11    1    4    4    0    0  0.83292769862E+02  0.94453078167E+00  0.15841232240E+03  0.17897776828E+03  0.00000000000E+00 0. -1.
         11    1    4    4    0    0  0.22171574930E+01 -0.22171365928E+02 -0.44432050958E+01  0.22720636566E+02  0.00000000000E+00 0.  1.
        -11    1    3    3    0    0 -0.45050392987E+02 -0.38820433890E+02 -0.60702617880E+02  0.84978655045E+02  0.00000000000E+00 0. -1.
         11    1    3    3    0    0  0.40774784785E+02 -0.56352690339E+01 -0.43533557893E+02  0.59912519511E+02  0.00000000000E+00 0.  1.
          3    1    1    2  501    0 -0.81234319153E+02  0.65682538070E+02 -0.27518087283E+03  0.29434286672E+03  0.00000000000E+00 0. -1.
<scales pt_clust_5="13000.00000" pt_clust_6="13000.00000" pt_clust_7="13000.00000" pt_clust_8="13000.00000" pt_clust_9="103.22493"></scales>
<clustering>
<clus scale="   90.187">  7  8 -1 -1</clus>
<clus scale="   95.986">  5  6 -1 -1</clus>
<clus scale="  100.639">  1  7  2 -1</clus>
<clus scale="  103.225">  2  9  1 -1</clus>
<clus scale="  103.225">  2  5  1 -1</clus>
</clustering>
</event>
<event>
 9    1  0.3231311E-005  0.9383919E+02  0.7546771E-02  0.1295180E+00
         21   -1    0    0  501  502  0.00000000000E+00  0.00000000000E+00  0.45338576054E+02  0.45338576054E+02  0.00000000000E+00 0. -1.
         -2   -1    0    0    0  501 -0.00000000000E+00 -0.00000000000E+00 -0.29805694255E+03  0.29805694255E+03  0.00000000000E+00 0.  1.
         23    2    1    2    0    0  0.19766610863E+02 -0.11405345735E+02 -0.17416651267E+03  0.19736868271E+03  0.89997899757E+02 0.  0.
         23    2    1    2    0    0 -0.86018461272E+01 -0.88009490132E+01 -0.80088755581E+02  0.12289010350E+03  0.92392209121E+02 0.  0.
        -13    1    4    4    0    0 -0.14581970873E+02 -0.46858545204E+02 -0.23446519034E+02  0.54388384679E+02  0.00000000000E+00 0.  1.
         13    1    4    4    0    0  0.59801247459E+01  0.38057596191E+02 -0.56642236547E+02  0.68501718817E+02  0.00000000000E+00 0. -1.
        -13    1    3    3    0    0 -0.64447881711E+01  0.24944304709E+02 -0.13625496362E+03  0.13866927829E+03  0.00000000000E+00 0.  1.
         13    1    3    3    0    0  0.26211399035E+02 -0.36349650445E+02 -0.37911549055E+02  0.58699404414E+02  0.00000000000E+00 0. -1.
         -2    1    1    2    0  502 -0.11164764736E+02  0.20206294749E+02  0.15369017602E+01  0.23136732399E+02  0.00000000000E+00 0.  1.
<scales pt_clust_5="13000.00000" pt_clust_6="13000.00000" pt_clust_7="13000.00000" pt_clust_8="13000.00000" pt_clust_9="23.08563"></scales>
<clustering>
<clus scale="   23.086">  1  9  2 -1</clus>
<clus scale="   89.998">  7  8 -1 -1</clus>
<clus scale="   91.483">  2  7  1 -1</clus>
<clus scale="   92.392">  5  6 -1 -1</clus>
<clus scale="   23.086">  1  5  2 -1</clus>
</clustering>
</event>
<event>
 9    1  0.3231311E-005  0.1921037E+03  0.7546771E-02  0.1185759E+00
         21   -1    0    0  501  502  0.00000000000E+00  0.00000000000E+00  0.20886591255E+03  0.20886591255E+03  0.00000000000E+00 0.  1.
          2   -1    0    0  502    0 -0.00000000000E+00 -0.00000000000E+00 -0.36988162956E+03  0.36988162956E+03  0.00000000000E+00 0.  1.
         23    2    1    2    0    0 -0.27616403437E+02 -0.25347518610E+02 -0.63120871332E+02  0.11713477276E+03  0.91275123407E+02 0.  0.
         23    2    1    2    0    0  0.29599729752E+02 -0.14551642615E+03 -0.19655482514E+03  0.26430029445E+03  0.95758404763E+02 0.  0.
        -11    1    3    3    0    0 -0.50911097223E+02 -0.45119054397E+02 -0.41200749255E+02  0.79530941333E+02  0.00000000000E+00 0.  1.
         11    1    3    3    0    0  0.23294693786E+02  0.19771535788E+02 -0.21920122077E+02  0.37603831425E+02  0.00000000000E+00 0. -1.
        -11    1    4    4    0    0 -0.19778936162E+02 -0.11582051465E+03 -0.11471142318E+03  0.16420812567E+03  0.00000000000E+00 0.  1.
         11    1    4    4    0    0  0.49378665914E+02 -0.29695911502E+02 -0.81843401954E+02  0.10009216878E+03  0.00000000000E+00 0. -1.
          2    1    1    2  501    0 -0.19833263152E+01  0.17086394476E+03  0.98659979466E+02  0.19731247490E+03  0.00000000000E+00 0.  1.
<scales pt_clust_5="13000.00000" pt_clust_6="13000.00000" pt_clust_7="13000.00000" pt_clust_8="13000.00000" pt_clust_9="166.53571"></scales>
<clustering>
<clus scale="   91.275">  5  6 -1 -1</clus>
<clus scale="   95.758">  7  8 -1 -1</clus>
<clus scale="   98.673">  2  5  1 -1</clus>
<clus scale="  166.536">  1  9  2 -1</clus>
<clus scale="  166.536">  1  5  2 -1</clus>
</clustering>
</event>
<event>
 9    1  0.3231311E-005  0.9452326E+02  0.7546771E-02  0.1294932E+00
         21   -1    0    0  501  502  0.00000000000E+00  0.00000000000E+00  0.12689406301E+03  0.12689406301E+03  0.00000000000E+00 0. -1.
          2   -1    0    0  502    0 -0.00000000000E+00 -0.00000000000E+00 -0.25205632331E+03  0.25205632331E+03  0.00000000000E+00 0. -1.
         23    2    1    2    0    0 -0.62107284571E+01 -0.23903778129E+02 -0.11513056034E+03  0.14847810563E+03  0.90447433191E+02 0.  0.
         23    2    1    2    0    0  0.60756614428E+02 -0.23053136554E+02 -0.76947363135E+02  0.13219760700E+03  0.85630002340E+02 0.  0.
        -11    1    3    3    0    0 -0.28549095467E+02  0.21077094183E+02 -0.19572762431E+02  0.40526383756E+02  0.00000000000E+00 0.  1.
         11    1    3    3    0    0  0.22338367010E+02 -0.44980872312E+02 -0.95557797908E+02  0.10795172187E+03  0.00000000000E+00 0. -1.
        -13    1    4    4    0    0  0.72133119194E+01  0.21012155239E+02  0.70193534748E+01  0.23298366033E+02  0.00000000000E+00 0.  1.
         13    1    4    4    0    0  0.53543302509E+02 -0.44065291793E+02 -0.83966716609E+02  0.10889924096E+03  0.00000000000E+00 0. -1.
          2    1    1    2  501    0 -0.54545885971E+02  0.46956914683E+02  0.66915663174E+02  0.98274673700E+02  0.00000000000E+00 0. -1.
<scales pt_clust_5="13000.00000" pt_clust_6="13000.00000" pt_clust_7="13000.00000" pt_clust_8="13000.00000" pt_clust_9="71.97364"></scales>
<clustering>
<clus scale="   71.974">  1  9  2 -1</clus>
<clus scale="   85.630">  7  8 -1 -1</clus>
<clus scale="   89.924">  1  7  2 -1</clus>
<clus scale="   90.447">  5  6 -1 -1</clus>
<clus scale="   71.974">  1  5  2 -1</clus>
</clustering>
</event>
<event>
 9    1  0.3231311E-005  0.9513962E+02  0.7546771E-02  0.1292046E+00
          3   -1    0    0  502    0 -0.00000000000E+00  0.00000000000E+00  0.10513896833E+03  0.10513896833E+03  0.00000000000E+00 0. -1.
         21   -1    0    0  501  502  0.00000000000E+00 -0.00000000000E+00 -0.22331161669E+03  0.22331161669E+03  0.00000000000E+00 0.  1.
         23    2    1    2    0    0 -0.21079414047E+02  0.69426515456E-01  0.30506070080E+02  0.10078606938E+03  0.93716940589E+02 0.  0.
         23    2    1    2    0    0 -0.20361052187E+02  0.49766211816E+02 -0.78101639045E+02  0.13184162053E+03  0.91602939902E+02 0.  0.
        -11    1    3    3    0    0 -0.57869621594E+02  0.58387014817E+01  0.24287209713E+02  0.63030564761E+02  0.00000000000E+00 0.  1.
         11    1    3    3    0    0  0.36790207547E+02 -0.57692749663E+01  0.62188603669E+01  0.37755504622E+02  0.00000000000E+00 0. -1.
        -11    1    4    4    0    0  0.32200742101E+02  0.31002128437E+01 -0.41424570302E+02  0.52559434322E+02  0.00000000000E+00 0. -1.
         11    1    4    4    0    0 -0.52561794288E+02  0.46665998973E+02 -0.36677068743E+02  0.79282186212E+02  0.00000000000E+00 0.  1.
          3    1    1    2  501    0  0.41440466234E+02 -0.49835638332E+02 -0.70577079396E+02  0.95822895102E+02  0.00000000000E+00 0. -1.
<scales pt_clust_5="13000.00000" pt_clust_6="13000.00000" pt_clust_7="13000.00000" pt_clust_8="13000.00000" pt_clust_9="64.81437"></scales>
<clustering>
<clus scale="   64.814">  2  9  1 -1</clus>
<clus scale="   91.603">  7  8 -1 -1</clus>
<clus scale="   93.058">  2  7  1 -1</clus>
<clus scale="   93.717">  5  6 -1 -1</clus>
<clus scale="   64.814">  2  5  1 -1</clus>
</clustering>
</event>
<event>
 9    1  0.3231311E-005  0.9642418E+02  0.7546771E-02  0.1288365E+00
         -2   -1    0    0    0  501 -0.00000000000E+00  0.00000000000E+00  0.11098766697E+03  0.11098766697E+03  0.00000000000E+00 0.  1.
         21   -1    0    0  501  502  0.00000000000E+00 -0.00000000000E+00 -0.11714177266E+03  0.11714177266E+03  0.00000000000E+00 0.  1.
         23    2    1    2    0    0  0.12613111544E+02 -0.22522481864E+02  0.58833559457E+01  0.94531295549E+02  0.90747998264E+02 0.  0.
         23    2    1    2    0    0  0.12239860483E+02  0.39523533146E+02  0.19711286202E+01  0.10038750476E+03  0.91443107484E+02 0.  0.
        -11    1    3    3    0    0  0.92981151125E+01 -0.57935426201E+02  0.58068765828E+01  0.58963449436E+02  0.00000000000E+00 0. -1.
         11    1    3    3    0    0  0.33149964319E+01  0.35412944338E+02  0.76479362873E-01  0.35567846113E+02  0.00000000000E+00 0.  1.
        -13    1    4    4    0    0  0.16291745623E+02  0.59889270599E+02 -0.24515148348E+02  0.66731838030E+02  0.00000000000E+00 0.  1.
         13    1    4    4    0    0 -0.40518851401E+01 -0.20365737453E+02  0.26486276968E+02  0.33655666727E+02  0.00000000000E+00 0. -1.
         -2    1    1    2    0  502 -0.24852972028E+02 -0.17001051283E+02 -0.14008590256E+02  0.33210639324E+02  0.00000000000E+00 0.  1.
<scales pt_clust_5="13000.00000" pt_clust_6="13000.00000" pt_clust_7="13000.00000" pt_clust_8="13000.00000" pt_clust_9="30.11156"></scales>
<clustering>
<clus scale="   30.112">  2  9  1 -1</clus>
<clus scale="   90.748">  5  6 -1 -1</clus>
<clus scale="   91.443">  7  8 -1 -1</clus>
<clus scale="   95.765">  1  5  2 -1</clus>
<clus scale="   30.112">  2  5  1 -1</clus>
</clustering>
</event>
<event>
 9    1  0.3231311E-005  0.9458324E+02  0.7546771E-02  0.1293250E+00
          1   -1    0    0  502    0 -0.00000000000E+00  0.00000000000E+00  0.20087382126E+03  0.20087382126E+03  0.00000000000E+00 0. -1.
         21   -1    0    0  501  502  0.00000000000E+00 -0.00000000000E+00 -0.65499956260E+02  0.65499956260E+02  0.00000000000E+00 0.  1.
         23    2    1    2    0    0  0.12458814365E+02  0.96476647271E+01  0.72935663263E+02  0.11917409097E+03  0.92922298149E+02 0.  0.
         23    2    1    2    0    0  0.11031545624E+02 -0.25968737899E+02  0.69351628599E+02  0.11777231981E+03  0.90909848627E+02 0.  0.
        -11    1    4    4    0    0  0.23792901007E+02 -0.14615013572E+01  0.83425085234E+02  0.86763949719E+02  0.00000000000E+00 0.  1.
         11    1    4    4    0    0 -0.12761355383E+02 -0.24507236542E+02 -0.14073456635E+02  0.31008370092E+02  0.00000000000E+00 0. -1.
        -13    1    3    3    0    0  0.42463046132E+02 -0.15049612774E+02  0.11527670085E+02  0.46502562393E+02  0.00000000000E+00 0.  1.
         13    1    3    3    0    0 -0.30004231767E+02  0.24697277501E+02  0.61407993179E+02  0.72671528580E+02  0.00000000000E+00 0. -1.
          1    1    1    2  501    0 -0.23490359989E+02  0.16321073172E+02 -0.69134268644E+01  0.29427366734E+02  0.00000000000E+00 0. -1.
<scales pt_clust_5="13000.00000" pt_clust_6="13000.00000" pt_clust_7="13000.00000" pt_clust_8="13000.00000" pt_clust_9="28.60375"></scales>
<clustering>
<clus scale="   28.604">  2  9  1 -1</clus>
<clus scale="   90.910">  5  6 -1 -1</clus>
<clus scale="   92.607">  2  5  1 -1</clus>
<clus scale="   92.922">  7  8 -1 -1</clus>
<clus scale="   28.604">  2  5  1 -1</clus>
</clustering>
</event>
<event>
 9    1  0.3231311E-005  0.1060143E+03  0.7546771E-02  0.1268160E+00
          1   -1    0    0  502    0 -0.00000000000E+00  0.00000000000E+00  0.31145675460E+03  0.31145675460E+03  0.00000000000E+00 0. -1.
         21   -1    0    0  501  502  0.00000000000E+00 -0.00000000000E+00 -0.80653953795E+02  0.80653953795E+02  0.00000000000E+00 0. -1.
         23    2    1    2    0    0  0.52319284280E+02 -0.76142408515E+01  0.22970903819E+03  0.25267314516E+03  0.91006548604E+02 0.  0.
         23    2    1    2    0    0 -0.57346678810E+02  0.32481878214E+02 -0.77214521199E+01  0.11257900604E+03  0.90943376861E+02 0.  0.
        -11    1    3    3    0    0 -0.19526687074E+02  0.16740858906E+02  0.32977909309E+02  0.41822127724E+02  0.00000000000E+00 0.  1.
         11    1    3    3    0    0  0.71845971353E+02 -0.24355099758E+02  0.19673112888E+03  0.21085101743E+03  0.00000000000E+00 0. -1.
        -13    1    4    4    0    0  0.21741574008E+02 -0.29146783860E+01  0.10047849931E+02  0.24127798877E+02  0.00000000000E+00 0.  1.
         13    1    4    4    0    0 -0.79088252818E+02  0.35396556600E+02 -0.17769302051E+02  0.88451207161E+02  0.00000000000E+00 0. -1.
          1    1    1    2  501    0  0.50273945302E+01 -0.24867637362E+02  0.88152147346E+01  0.26858557194E+02  0.00000000000E+00 0. -1.
<scales pt_clust_5="13000.00000" pt_clust_6="13000.00000" pt_clust_7="13000.00000" pt_clust_8="13000.00000" pt_clust_9="25.37073"></scales>
<clustering>
<clus scale="   25.371">  2  9  1 -1</clus>
<clus scale="   90.943">  7  8 -1 -1</clus>
<clus scale="   91.007">  5  6 -1 -1</clus>
<clus scale="  105.960">  2  7  1 -1</clus>
<clus scale="   25.371">  2  5  1 -1</clus>
</clustering>
</event>
<event>
 9    1  0.3231311E-005  0.1036036E+03  0.7546771E-02  0.1274205E+00
         21   -1    0    0  501  502  0.00000000000E+00  0.00000000000E+00  0.17810728450E+03  0.17810728450E+03  0.00000000000E+00 0.  1.
         -3   -1    0    0    0  501 -0.00000000000E+00 -0.00000000000E+00 -0.29980878075E+03  0.29980878075E+03  0.00000000000E+00 0.  1.
         23    2    1    2    0    0  0.24865948543E+02  0.41039312596E+02 -0.22099248710E+03  0.24354598612E+03  0.90412540204E+02 0.  0.
         23    2    1    2    0    0 -0.77062076045E+02 -0.22656079612E+02 -0.22138474389E+01  0.11876034262E+03  0.87448592612E+02 0.  0.
        -13    1    4    4    0    0 -0.80408344047E+02 -0.43211354565E+02 -0.17474991095E+02  0.92941370064E+02  0.00000000000E+00 0.  1.
         13    1    4    4    0    0  0.33462680010E+01  0.20555274953E+02  0.15261143656E+02  0.25818972551E+02  0.00000000000E+00 0. -1.
        -13    1    3    3    0    0  0.11310037252E+02 -0.16575643617E+02 -0.65858688315E+01  0.21119719985E+02  0.00000000000E+00 0. -1.
         13    1    3    3    0    0  0.13555911291E+02  0.57614956213E+02 -0.21440661827E+03  0.22242626614E+03  0.00000000000E+00 0.  1.
         -3    1    1    2    0  502  0.52196127502E+02 -0.18383232984E+02  0.10150483829E+03  0.11560973652E+03  0.00000000000E+00 0.  1.
<scales pt_clust_5="13000.00000" pt_clust_6="13000.00000" pt_clust_7="13000.00000" pt_clust_8="13000.00000" pt_clust_9="55.33877"></scales>
<clustering>
<clus scale="   55.339">  1  9  2 -1</clus>
<clus scale="   87.449">  5  6 -1 -1</clus>
<clus scale="   90.413">  7  8 -1 -1</clus>
<clus scale="  101.027">  1  5  2 -1</clus>
<clus scale="   55.339">  1  5  2 -1</clus>
</clustering>
</event>
<event>
 9    1  0.3231311E-005  0.2451798E+03  0.7546771E-02  0.1119774E+00
         21   -1    0    0  501  502  0.00000000000E+00  0.00000000000E+00  0.83607712677E+03  0.83607712677E+03  0.00000000000E+00 0. -1.
          1   -1    0    0  502    0 -0.00000000000E+00 -0.00000000000E+00 -0.17791334395E+03  0.17791334395E+03  0.00000000000E+00 0. -1.
         23    2    1    2    0    0  0.79401792378E+02 -0.21539345399E+03  0.17038999082E+03  0.29958053197E+03  0.89536369755E+02 0.  0.
         23    2    1    2    0    0  0.16460318714E+03  0.19142127758E+03  0.31954923412E+03  0.41706738016E+03  0.89984286629E+02 0.  0.
        -11    1    3    3    0    0  0.36040584367E+02 -0.17942918843E+03  0.15826929465E+03  0.24195645685E+03  0.00000000000E+00 0.  1.
         11    1    3    3    0    0  0.43361208012E+02 -0.35964265567E+02  0.12120696162E+02  0.57624075121E+02  0.00000000000E+00 0. -1.
        -13    1    4    4    0    0  0.68158347181E+02  0.12434600053E+03  0.22640537191E+03  0.26714580395E+03  0.00000000000E+00 0.  1.
         13    1    4    4    0    0  0.96444839957E+02  0.67075277050E+02  0.93143862206E+02  0.14992157621E+03  0.00000000000E+00 0. -1.
          1    1    1    2  501    0 -0.24400497952E+03  0.23972176410E+02  0.16822455789E+03  0.29734255859E+03  0.00000000000E+00 0. -1.
<scales pt_clust_5="13000.00000" pt_clust_6="13000.00000" pt_clust_7="13000.00000" pt_clust_8="13000.00000" pt_clust_9="245.17984"></scales>
<clustering>
<clus scale="   89.536">  5  6 -1 -1</clus>
<clus scale="   89.984">  7  8 -1 -1</clus>
<clus scale="  245.180">  1  9  2 -1</clus>
<clus scale="  225.212">  2  5  1 -1</clus>
<clus scale="  245.180">  1  5  2 -1</clus>
</clustering>
</event>
<event>
 9    1  0.3231311E-005  0.1296029E+03  0.7546771E-02  0.1228883E+00
         21   -1    0    0  501  502  0.00000000000E+00  0.00000000000E+00  0.31852350441E+03  0.31852350441E+03  0.00000000000E+00 0. -1.
          2   -1    0    0  502    0 -0.00000000000E+00 -0.00000000000E+00 -0.15964335296E+03  0.15964335296E+03  0.00000000000E+00 0. -1.
         23    2    1    2    0    0 -0.10860703562E+03 -0.77329148595E+01 -0.74099695247E+02  0.15816569646E+03  0.87580457541E+02 0.  0.
         23    2    1    2    0    0  0.58274849328E+02 -0.37577612067E+02  0.49647488761E+02  0.12456030976E+03  0.90787458576E+02 0.  0.
        -11    1    4    4    0    0 -0.74347788376E+01  0.19703647535E+02 -0.50400975676E+01  0.21654381682E+02  0.00000000000E+00 0.  1.
         11    1    4    4    0    0  0.65709628166E+02 -0.57281259602E+02  0.54687586328E+02  0.10290592808E+03  0.00000000000E+00 0. -1.
        -11    1    3    3    0    0 -0.55984843891E+02  0.23772154712E+02 -0.75331740909E+02  0.96820913409E+02  0.00000000000E+00 0. -1.
         11    1    3    3    0    0 -0.52622191732E+02 -0.31505069572E+02  0.12320456619E+01  0.61344783054E+02  0.00000000000E+00 0.  1.
          2    1    1    2  501    0  0.50332186295E+02  0.45310526926E+02  0.18333235794E+03  0.19544085114E+03  0.00000000000E+00 0. -1.
<scales pt_clust_5="13000.00000" pt_clust_6="13000.00000" pt_clust_7="13000.00000" pt_clust_8="13000.00000" pt_clust_9="67.72276"></scales>
<clustering>
<clus scale="   67.723">  1  9  2 -1</clus>
<clus scale="   87.580">  7  8 -1 -1</clus>
<clus scale="   90.787">  5  6 -1 -1</clus>
<clus scale="  127.377">  2  7  1 -1</clus>
<clus scale="   67.723">  1  5  2 -1</clus>
</clustering>
</event>
<event>
 9    1  0.3231311E-005  0.1036734E+03  0.7546771E-02  0.1274557E+00
         21   -1    0    0  501  502  0.00000000000E+00  0.00000000000E+00  0.35559507969E+02  0.35559507969E+02  0.00000000000E+00 0.  1.
         -2   -1    0    0    0  501 -0.00000000000E+00 -0.00000000000E+00 -0.42992704524E+03  0.42992704524E+03  0.00000000000E+00 0.  1.
         23    2    1    2    0    0 -0.18390710676E+02 -0.43926488476E+02 -0.29046397508E+03  0.30916269347E+03  0.94575343435E+02 0.  0.
         23    2    1    2    0    0  0.19423883046E+01  0.31603441048E+02 -0.82163891497E+02  0.12640700682E+03  0.90693307075E+02 0.  0.
        -13    1    3    3    0    0 -0.20607093531E+02 -0.66250024129E+02 -0.27008800013E+03  0.27885703472E+03  0.00000000000E+00 0.  1.
         13    1    3    3    0    0  0.22163828548E+01  0.22323535653E+02 -0.20375974956E+02  0.30305658752E+02  0.00000000000E+00 0. -1.
        -13    1    4    4    0    0  0.21643262142E+02  0.24233006157E+02 -0.95920218272E+02  0.10127367702E+03  0.00000000000E+00 0. -1.
         13    1    4    4    0    0 -0.19700873837E+02  0.73704348907E+01  0.13756326775E+02  0.25133329799E+02  0.00000000000E+00 0.  1.
         -2    1    1    2    0  502  0.16448322371E+02  0.12323047428E+02 -0.21739670694E+02  0.29916852920E+02  0.00000000000E+00 0.  1.
<scales pt_clust_5="13000.00000" pt_clust_6="13000.00000" pt_clust_7="13000.00000" pt_clust_8="13000.00000" pt_clust_9="20.55249"></scales>
<clustering>
<clus scale="   20.552">  1  9  2 -1</clus>
<clus scale="   90.693">  7  8 -1 -1</clus>
<clus scale="   94.575">  5  6 -1 -1</clus>
<clus scale="  100.145">  1  7  2 -1</clus>
<clus scale="   20.552">  1  5  2 -1</clus>
</clustering>
</event>
<event>
 9    1  0.3231311E-005  0.1158098E+03  0.7546771E-02  0.1251185E+00
         21   -1    0    0  501  502  0.00000000000E+00  0.00000000000E+00  0.16354294293E+03  0.16354294293E+03  0.00000000000E+00 0.  1.
          2   -1    0    0  502    0 -0.00000000000E+00 -0.00000000000E+00 -0.26824346742E+03  0.26824346742E+03  0.00000000000E+00 0. -1.
         23    2    1    2    0    0 -0.60995863331E+02 -0.15249416911E+02 -0.11978785200E+03  0.16430644845E+03  0.93243978111E+02 0.  0.
         23    2    1    2    0    0  0.37289193182E+02  0.10474503110E+03 -0.52785772772E+02  0.15268349458E+03  0.90354337145E+02 0.  0.
        -11    1    3    3    0    0 -0.48744707734E+02 -0.50450787597E+02 -0.53372878742E+02  0.88147561999E+02  0.00000000000E+00 0. -1.
         11    1    3    3    0    0 -0.12251155596E+02  0.35201370686E+02 -0.66414973259E+02  0.76158886446E+02  0.00000000000E+00 0.  1.
        -13    1    4    4    0    0  0.60048042667E+02  0.86090288992E+02 -0.16965540440E+02  0.10632560768E+03  0.00000000000E+00 0.  1.
         13    1    4    4    0    0 -0.22758849485E+02  0.18654742111E+02 -0.35820232332E+02  0.46357886895E+02  0.00000000000E+00 0. -1.
          2    1    1    2  501    0  0.23706670149E+02 -0.89495614192E+02  0.67873100275E+02  0.11479646732E+03  0.00000000000E+00 0. -1.
<scales pt_clust_5="13000.00000" pt_clust_6="13000.00000" pt_clust_7="13000.00000" pt_clust_8="13000.00000" pt_clust_9="92.58224"></scales>
<clustering>
<clus scale="   90.354">  7  8 -1 -1</clus>
<clus scale="   92.582">  1  9  2 -1</clus>
<clus scale="   93.244">  5  6 -1 -1</clus>
<clus scale="  113.496">  1  7  2 -1</clus>
<clus scale="   92.582">  1  5  2 -1</clus>
</clustering>
</event>
<event>
 9    1  0.3231311E-005  0.1103326E+03  0.7546771E-02  0.1260212E+00
         21   -1    0    0  501  502  0.00000000000E+00  0.00000000000E+00  0.47011540600E+02  0.47011540600E+02  0.00000000000E+00 0.  1.
          1   -1    0    0  502    0 -0.00000000000E+00 -0.00000000000E+00 -0.59072162681E+03  0.59072162681E+03  0.00000000000E+00 0. -1.
         23    2    1    2    0    0 -0.51412345762E+02  0.40915502771E+02 -0.43312817634E+03  0.44745181559E+03  0.91081295911E+02 0.  0.
         23    2    1    2    0    0  0.25255195450E+02 -0.29416202701E+02 -0.28850768414E+02  0.10369954139E+03  0.91750150780E+02 0.  0.
        -11    1    3    3    0    0  0.22786430235E+02  0.27931098732E+02 -0.16844187759E+03  0.17225572213E+03  0.00000000000E+00 0.  1.
         11    1    3    3    0    0 -0.74198775997E+02  0.12984404039E+02 -0.26468629875E+03  0.27519609346E+03  0.00000000000E+00 0. -1.
        -13    1    4    4    0    0 -0.28162804677E+02  0.11953621980E+02 -0.97400601618E+00  0.30610150824E+02  0.00000000000E+00 0. -1.
         13    1    4    4    0    0  0.53418000127E+02 -0.41369824681E+02 -0.27876762398E+02  0.73089390568E+02  0.00000000000E+00 0.  1.
          1    1    1    2  501    0  0.26157150312E+02 -0.11499300071E+02 -0.81731141456E+02  0.86581810435E+02  0.00000000000E+00 0. -1.
<scales pt_clust_5="13000.00000" pt_clust_6="13000.00000" pt_clust_7="13000.00000" pt_clust_8="13000.00000" pt_clust_9="28.57326"></scales>
<clustering>
<clus scale="   28.573">  1  9  2 -1</clus>
<clus scale="   91.081">  5  6 -1 -1</clus>
<clus scale="   91.750">  7  8 -1 -1</clus>
<clus scale="  109.777">  2  5  1 -1</clus>
<clus scale="   28.573">  1  5  2 -1</clus>
</clustering>
</event>
<event>
 9    1  0.3231311E-005  0.2063386E+03  0.7546771E-02  0.1154047E+00
          1   -1    0    0  502    0 -0.00000000000E+00  0.00000000000E+00  0.11339964975E+04  0.11339964975E+04  0.00000000000E+00 0. -1.
         21   -1    0    0  501  502  0.00000000000E+00 -0.00000000000E+00 -0.26858751205E+03  0.26858751205E+03  0.00000000000E+00 0. -1.
         23    2    1    2    0    0 -0.13949908426E+03 -0.22896297766E+02  0.62337890069E+03  0.64472143245E+03  0.84144142207E+02 0.  0.
         23    2    1    2    0    0  0.15349579121E+03 -0.16221451030E+03  0.43038098726E+03  0.49340467584E+03  0.91355758871E+02 0.  0.
        -11    1    4    4    0    0 -0.67141050919E+01 -0.33767207421E+02  0.83219022585E+02  0.90059476038E+02  0.00000000000E+00 0.  1.
         11    1    4    4    0    0  0.16020989630E+03 -0.12844730287E+03  0.34716196468E+03  0.40334519980E+03  0.00000000000E+00 0. -1.
        -13    1    3    3    0    0 -0.12836124750E+02  0.25575815186E+02  0.12346323068E+03  0.12673617380E+03  0.00000000000E+00 0.  1.
         13    1    3    3    0    0 -0.12666295951E+03 -0.48472112953E+02  0.49991567002E+03  0.51798525864E+03  0.00000000000E+00 0. -1.
          1    1    1    2  501    0 -0.13996706949E+02  0.18511080806E+03 -0.18835090250E+03  0.26445790126E+03  0.00000000000E+00 0. -1.
<scales pt_clust_5="13000.00000" pt_clust_6="13000.00000" pt_clust_7="13000.00000" pt_clust_8="13000.00000" pt_clust_9="185.01277"></scales>
<clustering>
<clus scale="   84.144">  7  8 -1 -1</clus>
<clus scale="   91.356">  5  6 -1 -1</clus>
<clus scale="  164.513">  1  7  2 -1</clus>
<clus scale="  185.013">  2  9  1 -1</clus>
<clus scale="  185.013">  2  5  1 -1</clus>
</clustering>
</event>
<event>
 9    1  0.3231311E-005  0.1143112E+03  0.7546771E-02  0.1253070E+00
         -3   -1    0    0    0  501 -0.00000000000E+00  0.00000000000E+00  0.17207771632E+03  0.17207771632E+03  0.00000000000E+00 0.  1.
         21   -1    0    0  501  502  0.00000000000E+00 -0.00000000000E+00 -0.14424319277E+03  0.14424319277E+03  0.00000000000E+00 0.  1.
         23    2    1    2    0    0 -0.37840275750E+02  0.46544923943E+02  0.44234461612E+02  0.11670026750E+03  0.89799490131E+02 0.  0.
         23    2    1    2    0    0  0.61432843982E+02 -0.53367039095E+02  0.47841756606E+02  0.13084458570E+03  0.90605942132E+02 0.  0.
        -11    1    3    3    0    0 -0.63125692233E+02  0.12835233652E+02  0.17340593632E+02  0.66710512143E+02  0.00000000000E+00 0. -1.
         11    1    3    3    0    0  0.25285416484E+02  0.33709690290E+02  0.26893867980E+02  0.49989755362E+02  0.00000000000E+00 0.  1.
        -11    1    4    4    0    0 -0.65207105684E+01 -0.21092755171E+02 -0.19816478931E+02  0.29666762956E+02  0.00000000000E+00 0. -1.
         11    1    4    4    0    0  0.67953554550E+02 -0.32274283923E+02  0.67658235537E+02  0.10117782274E+03  0.00000000000E+00 0.  1.
         -3    1    1    2    0  502 -0.23592568232E+02  0.68221151521E+01 -0.64241694662E+02  0.68776055892E+02  0.00000000000E+00 0.  1.
<scales pt_clust_5="13000.00000" pt_clust_6="13000.00000" pt_clust_7="13000.00000" pt_clust_8="13000.00000" pt_clust_9="24.55912"></scales>
<clustering>
<clus scale="   24.559">  2  9  1 -1</clus>
<clus scale="   89.799">  5  6 -1 -1</clus>
<clus scale="   90.606">  7  8 -1 -1</clus>
<clus scale="  113.673">  1  5  2 -1</clus>
<clus scale="   24.559">  2  5  1 -1</clus>
</clustering>
</event>
<event>
 9    1  0.3231311E-005  0.1018525E+03  0.7546771E-02  0.1276863E+00
          1   -1    0    0  502    0 -0.00000000000E+00  0.00000000000E+00  0.20971609428E+03  0.20971609428E+03  0.00000000000E+00 0. -1.
         21   -1    0    0  501  502  0.00000000000E+00 -0.00000000000E+00 -0.12484393887E+03  0.12484393887E+03  0.00000000000E+00 0. -1.
         23    2    1    2    0    0  0.25113676267E+02 -0.10730233302E+02  0.70549498358E+02  0.11791453748E+03  0.90447619031E+02 0.  0.
         23    2    1    2    0    0 -0.75466615249E+02  0.56971065619E+00  0.73520258229E+02  0.13826813496E+03  0.89539456044E+02 0.  0.
        -13    1    4    4    0    0 -0.60471863287E+00  0.23254234782E+02 -0.86500999139E+01  0.24818326866E+02  0.00000000000E+00 0.  1.
         13    1    4    4    0    0 -0.74861896616E+02 -0.22684524126E+02  0.82170358143E+02  0.11344980810E+03  0.00000000000E+00 0. -1.
        -13    1    3    3    0    0  0.16360625483E+02  0.29334162159E+02 -0.29821519772E+01  0.33720266401E+02  0.00000000000E+00 0.  1.
         13    1    3    3    0    0  0.87530507841E+01 -0.40064395460E+02  0.73531650336E+02  0.84194271080E+02  0.00000000000E+00 0. -1.
          1    1    1    2  501    0  0.50352938982E+02  0.10160522645E+02 -0.59197601178E+02  0.78377360696E+02  0.00000000000E+00 0. -1.
<scales pt_clust_5="13000.00000" pt_clust_6="13000.00000" pt_clust_7="13000.00000" pt_clust_8="13000.00000" pt_clust_9="51.36784"></scales>
<clustering>
<clus scale="   51.368">  2  9  1 -1</clus>
<clus scale="   89.539">  5  6 -1 -1</clus>
<clus scale="   90.448">  7  8 -1 -1</clus>
<clus scale="  101.047">  2  5  1 -1</clus>
<clus scale="   51.368">  2  5  1 -1</clus>
</clustering>
</event>
<event>
 9    1  0.3231311E-005  0.1371074E+03  0.7546771E-02  0.1218070E+00
         21   -1    0    0  501  502  0.00000000000E+00  0.00000000000E+00  0.34562940484E+03  0.34562940484E+03  0.00000000000E+00 0. -1.
          1   -1    0    0  502    0 -0.00000000000E+00 -0.00000000000E+00 -0.13078814099E+03  0.13078814099E+03  0.00000000000E+00 0. -1.
         23    2    1    2    0    0  0.21079296684E+01  0.95410502516E+02 -0.21454383830E+02  0.13340107416E+03  0.90708040675E+02 0.  0.
         23    2    1    2    0    0 -0.23417768168E+02 -0.10602403925E+03  0.45423537469E+02  0.15066544143E+03  0.94060027222E+02 0.  0.
        -11    1    4    4    0    0 -0.63556948184E+00 -0.11317810391E+03  0.53857403082E+02  0.12534076360E+03  0.00000000000E+00 0.  1.
         11    1    4    4    0    0 -0.22782198687E+02  0.71540646588E+01 -0.84338656134E+01  0.25324677833E+02  0.00000000000E+00 0. -1.
        -13    1    3    3    0    0  0.34206012541E+02  0.23224366011E+02  0.18003055316E+02  0.45094705579E+02  0.00000000000E+00 0. -1.
         13    1    3    3    0    0 -0.32098082873E+02  0.72186136506E+02 -0.39457439146E+02  0.88306368579E+02  0.00000000000E+00 0.  1.
          1    1    1    2  501    0  0.21309838500E+02  0.10613536735E+02  0.19087211021E+03  0.19235103024E+03  0.00000000000E+00 0. -1.
<scales pt_clust_5="13000.00000" pt_clust_6="13000.00000" pt_clust_7="13000.00000" pt_clust_8="13000.00000" pt_clust_9="23.80665"></scales>
<clustering>
<clus scale="   23.807">  1  9  2 -1</clus>
<clus scale="   90.708">  7  8 -1 -1</clus>
<clus scale="   94.060">  5  6 -1 -1</clus>
<clus scale="  134.830">  2  7  1 -1</clus>
<clus scale="   23.807">  1  5  2 -1</clus>
</clustering>
</event>
<event>
 9    1  0.3231311E-005  0.1090119E+03  0.7546771E-02  0.1263044E+00
         21   -1    0    0  501  502  0.00000000000E+00  0.00000000000E+00  0.12900170307E+03  0.12900170307E+03  0.00000000000E+00 0. -1.
         -1   -1    0    0    0  501 -0.00000000000E+00 -0.00000000000E+00 -0.21745615087E+03  0.21745615087E+03  0.00000000000E+00 0.  1.
         23    2    1    2    0    0 -0.58952327143E+02 -0.27164260739E+02 -0.11779151580E+03  0.16233263799E+03  0.90905281611E+02 0.  0.
         23    2    1    2    0    0  0.44798852299E+02  0.12939292230E+02 -0.40685192664E+02  0.11128437872E+03  0.92490894659E+02 0.  0.
        -13    1    3    3    0    0 -0.53488488972E+02 -0.55083134275E+02 -0.10744925118E+03  0.13206252955E+03  0.00000000000E+00 0.  1.
         13    1    3    3    0    0 -0.54638381711E+01  0.27918873537E+02 -0.10342264628E+02  0.30270108436E+02  0.00000000000E+00 0. -1.
        -13    1    4    4    0    0  0.61402169420E+02 -0.99133762555E+01 -0.54299367942E+00  0.62199648555E+02  0.00000000000E+00 0. -1.
         13    1    4    4    0    0 -0.16603317121E+02  0.22852668486E+02 -0.40142198985E+02  0.49084730168E+02  0.00000000000E+00 0.  1.
         -1    1    1    2    0  502  0.14153474844E+02  0.14224968508E+02  0.70022260670E+02  0.72840837232E+02  0.00000000000E+00 0.  1.
<scales pt_clust_5="13000.00000" pt_clust_6="13000.00000" pt_clust_7="13000.00000" pt_clust_8="13000.00000" pt_clust_9="20.06665"></scales>
<clustering>
<clus scale="   20.067">  1  9  2 -1</clus>
<clus scale="   90.905">  5  6 -1 -1</clus>
<clus scale="   92.491">  7  8 -1 -1</clus>
<clus scale="  107.670">  2  5  1 -1</clus>
<clus scale="   20.067">  1  5  2 -1</clus>
</clustering>
</event>
<event>
 9    1  0.3231311E-005  0.9467200E+02  0.7546771E-02  0.1293664E+00
          1   -1    0    0  502    0 -0.00000000000E+00  0.00000000000E+00  0.13283245130E+03  0.13283245130E+03  0.00000000000E+00 0. -1.
         21   -1    0    0  501  502  0.00000000000E+00 -0.00000000000E+00 -0.21717067525E+03  0.21717067525E+03  0.00000000000E+00 0. -1.
         23    2    1    2    0    0  0.11561060834E+02  0.18743357137E+02  0.73357255514E+02  0.11860527635E+03  0.90559113713E+02 0.  0.
         23    2    1    2    0    0  0.16610259910E+02 -0.66931753504E+02 -0.86752693292E+02  0.14112812236E+03  0.87380528522E+02 0.  0.
        -13    1    4    4    0    0  0.44053364100E+02 -0.70024543470E+02 -0.56592077126E+02  0.10023372072E+03  0.00000000000E+00 0. -1.
         13    1    4    4    0    0 -0.27443104190E+02  0.30927899653E+01 -0.30160616166E+02  0.40894401632E+02  0.00000000000E+00 0.  1.
        -13    1    3    3    0    0  0.47642431779E+02  0.27610076958E+02  0.52065341588E+02  0.75782039100E+02  0.00000000000E+00 0. -1.
         13    1    3    3    0    0 -0.36081370945E+02 -0.88667198211E+01  0.21291913926E+02  0.42823237247E+02  0.00000000000E+00 0.  1.
          1    1    1    2  501    0 -0.28171320744E+02  0.48188396367E+02 -0.70942786166E+02  0.90269727849E+02  0.00000000000E+00 0. -1.
<scales pt_clust_5="13000.00000" pt_clust_6="13000.00000" pt_clust_7="13000.00000" pt_clust_8="13000.00000" pt_clust_9="55.81886"></scales>
<clustering>
<clus scale="   55.819">  2  9  1 -1</clus>
<clus scale="   87.381">  5  6 -1 -1</clus>
<clus scale="   90.559">  7  8 -1 -1</clus>
<clus scale="   91.636">  2  5  1 -1</clus>
<clus scale="   55.819">  2  5  1 -1</clus>
</clustering>
</event>
<event>
 9    1  0.3544114E-005  0.2263579E+03  0.7546771E-02  0.1129963E+00
         21   -1    0    0  501  502  0.00000000000E+00  0.00000000000E+00  0.27744020752E+03  0.27744020752E+03  0.00000000000E+00 0. -1.
          1   -1    0    0  502    0 -0.00000000000E+00 -0.00000000000E+00 -0.10110356568E+04  0.10110356568E+04  0.00000000000E+00 0. -1.
         23    2    1    2    0    0  0.21480968437E+03  0.16597632254E+02 -0.89383135920E+03  0.92412482792E+03  0.93024281711E+02 0.  0.
         23    2    1    2    0    0 -0.15755592413E+03 -0.53408231132E+01 -0.15965507387E+02  0.17873948426E+03  0.82707388938E+02 0.  0.
        -11    1    4    4    0    0 -0.13007113297E+03  0.27949689978E+02 -0.98475556936E+00  0.13304380686E+03  0.00000000000E+00 0.  1.
         11    1    4    4    0    0 -0.27484791165E+02 -0.33290513091E+02 -0.14980751818E+02  0.45695677392E+02  0.00000000000E+00 0. -1.
        -13    1    3    3    0    0  0.63958533809E+02  0.21477738617E+02 -0.14096822347E+03  0.15628188421E+03  0.00000000000E+00 0.  1.
         13    1    3    3    0    0  0.15085115056E+03 -0.48801063630E+01 -0.75286313573E+03  0.76784294371E+03  0.00000000000E+00 0. -1.
          1    1    1    2  501    0 -0.57253760240E+02 -0.11256809141E+02  0.17620141732E+03  0.18561155212E+03  0.00000000000E+00 0. -1.
<scales pt_clust_5="13000.00000" pt_clust_6="13000.00000" pt_clust_7="13000.00000" pt_clust_8="13000.00000" pt_clust_9="58.34988"></scales>
<clustering>
<clus scale="   58.350">  1  9  2 -1</clus>
<clus scale="   82.707">  5  6 -1 -1</clus>
<clus scale="   93.024">  7  8 -1 -1</clus>
<clus scale="  222.317">  1  5  2 -1</clus>
<clus scale="   58.350">  1  5  2 -1</clus>
</clustering>
</event>
<event>
 9    1  0.3231311E-005  0.2303026E+03  0.7546771E-02  0.1160367E+00
         21   -1    0    0  501  502  0.00000000000E+00  0.00000000000E+00  0.17108596097E+03  0.17108596097E+03  0.00000000000E+00 0. -1.
          2   -1    0    0  502    0 -0.00000000000E+00 -0.00000000000E+00 -0.11055400029E+04  0.11055400029E+04  0.00000000000E+00 0. -1.
         23    2    1    2    0    0 -0.42126385199E+02 -0.12637308835E+02 -0.14235274243E+03  0.17515523718E+03  0.92090824353E+02 0.  0.
         23    2    1    2    0    0  0.93880987954E+02 -0.19227829656E+03 -0.85083019858E+03  0.88211250862E+03  0.91792525898E+02 0.  0.
        -11    1    4    4    0    0 -0.16343232533E+02 -0.19901577686E+02 -0.14315994888E+03  0.14545770865E+03  0.00000000000E+00 0.  1.
         11    1    4    4    0    0  0.11022422049E+03 -0.17237671888E+03 -0.70767024971E+03  0.73665479996E+03  0.00000000000E+00 0. -1.
        -11    1    3    3    0    0 -0.80368573039E+01 -0.48820178200E+02 -0.50412455722E+02  0.70635802301E+02  0.00000000000E+00 0. -1.
         11    1    3    3    0    0 -0.34089527895E+02  0.36182869365E+02 -0.91940286710E+02  0.10451943488E+03  0.00000000000E+00 0.  1.
          2    1    1    2  501    0 -0.51754602755E+02  0.20491560540E+03  0.58728899093E+02  0.21935821806E+03  0.00000000000E+00 0. -1.
<scales pt_clust_5="13000.00000" pt_clust_6="13000.00000" pt_clust_7="13000.00000" pt_clust_8="13000.00000" pt_clust_9="211.21888"></scales>
<clustering>
<clus scale="   91.793">  5  6 -1 -1</clus>
<clus scale="   92.091">  7  8 -1 -1</clus>
<clus scale="  102.054">  2  7  1 -1</clus>
<clus scale="  211.219">  1  9  2 -1</clus>
<clus scale="  211.219">  1  5  2 -1</clus>
</clustering>
</event>
<event>
 9    1  0.3231311E-005  0.1098338E+03  0.7546771E-02  0.1261490E+00
         21   -1    0    0  501  502  0.00000000000E+00  0.00000000000E+00  0.22700613165E+03  0.22700613165E+03  0.00000000000E+00 0. -1.
         -1   -1    0    0    0  501 -0.00000000000E+00 -0.00000000000E+00 -0.74301932817E+02  0.74301932817E+02  0.00000000000E+00 0.  1.
         23    2    1    2    0    0 -0.62626082858E+02 -0.14801788081E+02  0.42557957829E+02  0.12094817311E+03  0.93145915749E+02 0.  0.
         23    2    1    2    0    0  0.50240446844E+02 -0.88107140586E+01  0.11227055008E+03  0.15361167785E+03  0.91597707253E+02 0.  0.
        -11    1    3    3    0    0  0.52866821311E+01  0.30894314465E+02  0.10910477014E+02  0.33188042770E+02  0.00000000000E+00 0. -1.
         11    1    3    3    0    0 -0.67912764989E+02 -0.45696102545E+02  0.31647480814E+02  0.87760130345E+02  0.00000000000E+00 0.  1.
        -11    1    4    4    0    0  0.72093126745E+01 -0.36035530903E+02  0.91525436579E+02  0.98627781165E+02  0.00000000000E+00 0. -1.
         11    1    4    4    0    0  0.43031134169E+02  0.27224816844E+02  0.20745113505E+02  0.54983896683E+02  0.00000000000E+00 0.  1.
         -1    1    1    2    0  502  0.12385636014E+02  0.23612502139E+02 -0.21243090771E+01  0.26748213507E+02  0.00000000000E+00 0.  1.
<scales pt_clust_5="13000.00000" pt_clust_6="13000.00000" pt_clust_7="13000.00000" pt_clust_8="13000.00000" pt_clust_9="26.66374"></scales>
<clustering>
<clus scale="   26.664">  1  9  2 -1</clus>
<clus scale="   91.598">  7  8 -1 -1</clus>
<clus scale="   93.146">  5  6 -1 -1</clus>
<clus scale="  108.524">  1  7  2 -1</clus>
<clus scale="   26.664">  1  5  2 -1</clus>
</clustering>
</event>
<event>
 9    1  0.3231311E-005  0.3335402E+03  0.7546771E-02  0.1069697E+00
         21   -1    0    0  501  502  0.00000000000E+00  0.00000000000E+00  0.29860159461E+03  0.29860159461E+03  0.00000000000E+00 0.  1.
          1   -1    0    0  502    0 -0.00000000000E+00 -0.00000000000E+00 -0.86998110797E+03  0.86998110797E+03  0.00000000000E+00 0. -1.
         23    2    1    2    0    0  0.26305052053E+03  0.17476674685E+03 -0.68901190508E+03  0.76396114616E+03  0.95709118434E+02 0.  0.
         23    2    1    2    0    0 -0.27786814468E+03 -0.20015346008E+03  0.93797967791E+02  0.36677810310E+03  0.91956537265E+02 0.  0.
        -11    1    3    3    0    0  0.88826125500E+02  0.16282038493E+02 -0.14047029255E+03  0.16699427666E+03  0.00000000000E+00 0.  1.
         11    1    3    3    0    0  0.17422439503E+03  0.15848470835E+03 -0.54854161253E+03  0.59696686950E+03  0.00000000000E+00 0. -1.
        -13    1    4    4    0    0 -0.95024425264E+02 -0.21380702230E+02  0.11150055177E+02  0.98036215528E+02  0.00000000000E+00 0. -1.
         13    1    4    4    0    0 -0.18284371941E+03 -0.17877275785E+03  0.82647912614E+02  0.26874188757E+03  0.00000000000E+00 0.  1.
          1    1    1    2  501    0  0.14817624147E+02  0.25386713232E+02  0.23834423934E+02  0.37843453309E+02  0.00000000000E+00 0. -1.
<scales pt_clust_5="13000.00000" pt_clust_6="13000.00000" pt_clust_7="13000.00000" pt_clust_8="13000.00000" pt_clust_9="29.39468"></scales>
<clustering>
<clus scale="   29.395">  1  9  2 -1</clus>
<clus scale="   91.957">  7  8 -1 -1</clus>
<clus scale="   95.709">  5  6 -1 -1</clus>
<clus scale="  332.483">  1  7  2 -1</clus>
<clus scale="   29.395">  1  5  2 -1</clus>
</clustering>
</event>
<event>
 9    1  0.3231311E-005  0.1965201E+03  0.7546771E-02  0.1152929E+00
          4   -1    0    0  502    0 -0.00000000000E+00  0.00000000000E+00  0.54383515982E+03  0.54383515982E+03  0.00000000000E+00 0. -1.
         21   -1    0    0  501  502  0.00000000000E+00 -0.00000000000E+00 -0.10630782905E+03  0.10630782905E+03  0.00000000000E+00 0. -1.
         23    2    1    2    0    0  0.61225546917E+02 -0.15461499087E+03  0.32793429066E+03  0.37938593158E+03  0.93479533028E+02 0.  0.
         23    2    1    2    0    0 -0.76850148195E+02  0.17176773365E+03  0.12427608263E+03  0.24329915338E+03  0.91322690057E+02 0.  0.
        -11    1    3    3    0    0  0.41773516606E+02 -0.12244285791E+02  0.48500102525E+02  0.65170615841E+02  0.00000000000E+00 0.  1.
         11    1    3    3    0    0  0.19452030310E+02 -0.14237070508E+03  0.27943418813E+03  0.31421531574E+03  0.00000000000E+00 0. -1.
        -13    1    4    4    0    0  0.19201566947E+02  0.44942153714E+02  0.18525784676E+02  0.52265687133E+02  0.00000000000E+00 0.  1.
         13    1    4    4    0    0 -0.96051715142E+02  0.12682557994E+03  0.10575029796E+03  0.19103346625E+03  0.00000000000E+00 0. -1.
          4    1    1    2  501    0  0.15624601279E+02 -0.17152742785E+02 -0.14683042518E+02  0.27457903922E+02  0.00000000000E+00 0. -1.
<scales pt_clust_5="13000.00000" pt_clust_6="13000.00000" pt_clust_7="13000.00000" pt_clust_8="13000.00000" pt_clust_9="23.20226"></scales>
<clustering>
<clus scale="   23.202">  2  9  1 -1</clus>
<clus scale="   91.323">  7  8 -1 -1</clus>
<clus scale="   93.480">  5  6 -1 -1</clus>
<clus scale="  195.503">  2  7  1 -1</clus>
<clus scale="   23.202">  2  5  1 -1</clus>
</clustering>
</event>
<event>
 9    1  0.3231311E-005  0.1262830E+03  0.7546771E-02  0.1233338E+00
          2   -1    0    0  502    0 -0.00000000000E+00  0.00000000000E+00  0.24007998852E+03  0.24007998852E+03  0.00000000000E+00 0. -1.
         21   -1    0    0  501  502  0.00000000000E+00 -0.00000000000E+00 -0.11155098657E+03  0.11155098657E+03  0.00000000000E+00 0.  1.
         23    2    1    2    0    0 -0.42665485352E+02  0.75145698492E+02  0.14801544103E+03  0.19346647974E+03  0.89741229972E+02 0.  0.
         23    2    1    2    0    0  0.65720180044E+02 -0.68028813892E+02 -0.75707446699E+01  0.13125440864E+03  0.90682644574E+02 0.  0.
        -11    1    4    4    0    0  0.25511187258E+02 -0.46597555415E+02 -0.47051816623E+02  0.70964965254E+02  0.00000000000E+00 0.  1.
         11    1    4    4    0    0  0.40208992786E+02 -0.21431258476E+02  0.39481071953E+02  0.60289443382E+02  0.00000000000E+00 0. -1.
        -11    1    3    3    0    0  0.18503678803E+02  0.47891313948E+02  0.35121242386E+02  0.62205029923E+02  0.00000000000E+00 0.  1.
         11    1    3    3    0    0 -0.61169164155E+02  0.27254384544E+02  0.11289419864E+03  0.13126144982E+03  0.00000000000E+00 0. -1.
          2    1    1    2  501    0 -0.23054694692E+02 -0.71168846000E+01 -0.11915694417E+02  0.26910086718E+02  0.00000000000E+00 0. -1.
<scales pt_clust_5="13000.00000" pt_clust_6="13000.00000" pt_clust_7="13000.00000" pt_clust_8="13000.00000" pt_clust_9="24.12818"></scales>
<clustering>
<clus scale="   24.128">  2  9  1 -1</clus>
<clus scale="   89.741">  7  8 -1 -1</clus>
<clus scale="   90.683">  5  6 -1 -1</clus>
<clus scale="  125.609">  1  7  2 -1</clus>
<clus scale="   24.128">  2  5  1 -1</clus>
</clustering>
</event>
<event>
 9    1  0.3231311E-005  0.1043567E+03  0.7546771E-02  0.1273862E+00
         21   -1    0    0  501  502  0.00000000000E+00  0.00000000000E+00  0.15147296465E+03  0.15147296465E+03  0.00000000000E+00 0. -1.
          2   -1    0    0  502    0 -0.00000000000E+00 -0.00000000000E+00 -0.13552283712E+03  0.13552283712E+03  0.00000000000E+00 0. -1.
         23    2    1    2    0    0  0.45031464623E+02 -0.11432762472E+02 -0.65425758526E+02  0.12094058372E+03  0.90485104017E+02 0.  0.
         23    2    1    2    0    0 -0.21599669074E+02  0.27260290441E+02  0.28054699296E+02  0.10570036205E+03  0.95790559275E+02 0.  0.
        -11    1    4    4    0    0  0.31193389309E+02 -0.32039412033E+01 -0.11090048305E+02  0.33260816996E+02  0.00000000000E+00 0. -1.
         11    1    4    4    0    0 -0.52793058383E+02  0.30464231644E+02  0.39144747601E+02  0.72439545056E+02  0.00000000000E+00 0.  1.
        -11    1    3    3    0    0  0.13477927843E+02 -0.21348938092E+02  0.18126081944E+02  0.31080324053E+02  0.00000000000E+00 0.  1.
         11    1    3    3    0    0  0.31553536781E+02  0.99161756210E+01 -0.83551840469E+02  0.89860259671E+02  0.00000000000E+00 0. -1.
          2    1    1    2  501    0 -0.23431795549E+02 -0.15827527969E+02  0.53321186758E+02  0.60354855990E+02  0.00000000000E+00 0. -1.
<scales pt_clust_5="13000.00000" pt_clust_6="13000.00000" pt_clust_7="13000.00000" pt_clust_8="13000.00000" pt_clust_9="28.27649"></scales>
<clustering>
<clus scale="   28.276">  1  9  2 -1</clus>
<clus scale="   90.485">  7  8 -1 -1</clus>
<clus scale="   95.791">  5  6 -1 -1</clus>
<clus scale="   99.509">  2  7  1 -1</clus>
<clus scale="   28.276">  1  5  2 -1</clus>
</clustering>
</event>
<event>
 9    1  0.3231311E-005  0.1357188E+03  0.7546771E-02  0.1220155E+00
         21   -1    0    0  501  502  0.00000000000E+00  0.00000000000E+00  0.32401801806E+03  0.32401801806E+03  0.00000000000E+00 0.  1.
         -3   -1    0    0    0  501 -0.00000000000E+00 -0.00000000000E+00 -0.11015371884E+03  0.11015371884E+03  0.00000000000E+00 0.  1.
         23    2    1    2    0    0 -0.43311753331E+01  0.97857142134E+02  0.49481727947E+01  0.13368444246E+03  0.90841985856E+02 0.  0.
         23    2    1    2    0    0  0.48458069452E+02 -0.10010978164E+03  0.75645287789E+02  0.16008297257E+03  0.86799744631E+02 0.  0.
        -11    1    3    3    0    0  0.28550667817E+02  0.79401510535E+02 -0.22165312002E+02  0.87241283600E+02  0.00000000000E+00 0.  1.
         11    1    3    3    0    0 -0.32881843150E+02  0.18455631598E+02  0.27113484796E+02  0.46443158855E+02  0.00000000000E+00 0. -1.
        -11    1    4    4    0    0  0.70839365444E+02 -0.53716793726E+02  0.55314848663E+02  0.10470645686E+03  0.00000000000E+00 0.  1.
         11    1    4    4    0    0 -0.22381295991E+02 -0.46392987917E+02  0.20330439126E+02  0.55376515719E+02  0.00000000000E+00 0. -1.
         -3    1    1    2    0  502 -0.44126894119E+02  0.22526395096E+01  0.13327083864E+03  0.14040432187E+03  0.00000000000E+00 0.  1.
<scales pt_clust_5="13000.00000" pt_clust_6="13000.00000" pt_clust_7="13000.00000" pt_clust_8="13000.00000" pt_clust_9="44.18435"></scales>
<clustering>
<clus scale="   44.184">  1  9  2 -1</clus>
<clus scale="   86.800">  7  8 -1 -1</clus>
<clus scale="   90.842">  5  6 -1 -1</clus>
<clus scale="  133.047">  1  7  2 -1</clus>
<clus scale="   44.184">  1  5  2 -1</clus>
</clustering>
</event>
<event>
 9    1  0.3231311E-005  0.1511392E+03  0.7546771E-02  0.1199126E+00
         -1   -1    0    0    0  501 -0.00000000000E+00  0.00000000000E+00  0.28714393011E+03  0.28714393011E+03  0.00000000000E+00 0.  1.
         21   -1    0    0  501  502  0.00000000000E+00 -0.00000000000E+00 -0.13813762898E+03  0.13813762898E+03  0.00000000000E+00 0.  1.
         23    2    1    2    0    0  0.98152816308E+02 -0.10328265777E+03  0.62975548848E+02  0.18034180027E+03  0.90862326764E+02 0.  0.
         23    2    1    2    0    0 -0.18220902266E+02  0.10765174348E+03  0.25255793172E+02  0.14443207033E+03  0.91114591018E+02 0.  0.
        -11    1    3    3    0    0  0.64695440787E+02 -0.51054005996E+02  0.81198300766E+02  0.11569431980E+03  0.00000000000E+00 0. -1.
         11    1    3    3    0    0  0.33457375521E+02 -0.52228651776E+02 -0.18222751918E+02  0.64647480465E+02  0.00000000000E+00 0.  1.
        -11    1    4    4    0    0 -0.42141460705E+02  0.98132157192E+02  0.40836678436E+02  0.11433922027E+03  0.00000000000E+00 0.  1.
         11    1    4    4    0    0  0.23920558438E+02  0.95195862875E+01 -0.15580885264E+02  0.30092850059E+02  0.00000000000E+00 0. -1.
         -1    1    1    2    0  502 -0.79931914041E+02 -0.43690857081E+01  0.60774959113E+02  0.10050768850E+03  0.00000000000E+00 0.  1.
<scales pt_clust_5="13000.00000" pt_clust_6="13000.00000" pt_clust_7="13000.00000" pt_clust_8="13000.00000" pt_clust_9="80.05127"></scales>
<clustering>
<clus scale="   80.051">  2  9  1 -1</clus>
<clus scale="   90.862">  5  6 -1 -1</clus>
<clus scale="   91.115">  7  8 -1 -1</clus>
<clus scale="  150.987">  1  5  2 -1</clus>
<clus scale="   80.051">  2  5  1 -1</clus>
</clustering>
</event>
<event>
 9    1  0.3231311E-005  0.2222026E+03  0.7546771E-02  0.1132598E+00
         -1   -1    0    0    0  501 -0.00000000000E+00  0.00000000000E+00  0.91548345911E+03  0.91548345911E+03  0.00000000000E+00 0.  1.
         21   -1    0    0  501  502  0.00000000000E+00 -0.00000000000E+00 -0.11629584665E+03  0.11629584665E+03  0.00000000000E+00 0.  1.
         23    2    1    2    0    0  0.19769489081E+03 -0.63067247073E+02  0.57308133156E+03  0.61683962748E+03  0.94911358331E+02 0.  0.
         23    2    1    2    0    0 -0.19100104147E+03  0.22400873839E+02  0.27720461348E+03  0.34929212599E+03  0.90440005261E+02 0.  0.
        -11    1    3    3    0    0  0.12444286097E+03 -0.61976026018E+02  0.25503673460E+03  0.29046650313E+03  0.00000000000E+00 0.  1.
         11    1    3    3    0    0  0.73252029836E+02 -0.10912210548E+01  0.31804459696E+03  0.32637312434E+03  0.00000000000E+00 0. -1.
        -11    1    4    4    0    0 -0.30910758520E+02 -0.24618577650E+01  0.34626281712E+01  0.31201370640E+02  0.00000000000E+00 0.  1.
         11    1    4    4    0    0 -0.16009028295E+03  0.24862731604E+02  0.27374198531E+03  0.31809075535E+03  0.00000000000E+00 0. -1.
         -1    1    1    2    0  502 -0.66938493327E+01  0.40666373234E+02 -0.51098332568E+02  0.65647552293E+02  0.00000000000E+00 0.  1.
<scales pt_clust_5="13000.00000" pt_clust_6="13000.00000" pt_clust_7="13000.00000" pt_clust_8="13000.00000" pt_clust_9="41.21361"></scales>
<clustering>
<clus scale="   41.214">  2  9  1 -1</clus>
<clus scale="   90.440">  7  8 -1 -1</clus>
<clus scale="   94.911">  5  6 -1 -1</clus>
<clus scale="  220.330">  2  7  1 -1</clus>
<clus scale="   41.214">  2  5  1 -1</clus>
</clustering>
</event>
<event>
 9    1  0.3231311E-005  0.1418175E+03  0.7546771E-02  0.1227655E+00
         21   -1    0    0  501  502  0.00000000000E+00  0.00000000000E+00  0.42041403048E+02  0.42041403048E+02  0.00000000000E+00 0. -1.
          1   -1    0    0  502    0 -0.00000000000E+00 -0.00000000000E+00 -0.79037320064E+03  0.79037320064E+03  0.00000000000E+00 0. -1.
         23    2    1    2    0    0 -0.51521809852E+02  0.30661437353E+02 -0.25698073615E+03  0.27565132441E+03  0.79686468510E+02 0.  0.
         23    2    1    2    0    0  0.64960323257E+02  0.82132081909E+02 -0.33863544465E+03  0.36643453410E+03  0.92923521954E+02 0.  0.
        -11    1    3    3    0    0 -0.61554369966E+02  0.93807760027E+01 -0.23617323133E+03  0.24424318746E+03  0.00000000000E+00 0.  1.
         11    1    3    3    0    0  0.10032560114E+02  0.21280661351E+02 -0.20807504818E+02  0.31408136951E+02  0.00000000000E+00 0. -1.
        -11    1    4    4    0    0  0.43965173476E+02 -0.88683239516E+01 -0.84191061874E+02  0.95392444920E+02  0.00000000000E+00 0.  1.
         11    1    4    4    0    0  0.20995149781E+02  0.91000405860E+02 -0.25444438277E+03  0.27104208918E+03  0.00000000000E+00 0. -1.
          1    1    1    2  501    0 -0.13438513406E+02 -0.11279351926E+03 -0.15271561679E+03  0.19032874518E+03  0.00000000000E+00 0. -1.
<scales pt_clust_5="13000.00000" pt_clust_6="13000.00000" pt_clust_7="13000.00000" pt_clust_8="13000.00000" pt_clust_9="107.13268"></scales>
<clustering>
<clus scale="   79.686">  5  6 -1 -1</clus>
<clus scale="   92.924">  7  8 -1 -1</clus>
<clus scale="   99.722">  2  5  1 -1</clus>
<clus scale="  107.133">  1  9  2 -1</clus>
<clus scale="  107.133">  1  5  2 -1</clus>
</clustering>
</event>
<event>
 9    1  0.3231311E-005  0.9821313E+02  0.7546771E-02  0.1284144E+00
         21   -1    0    0  501  502  0.00000000000E+00  0.00000000000E+00  0.71195304998E+02  0.71195304998E+02  0.00000000000E+00 0. -1.
          1   -1    0    0  502    0 -0.00000000000E+00 -0.00000000000E+00 -0.40232663300E+03  0.40232663300E+03  0.00000000000E+00 0. -1.
         23    2    1    2    0    0  0.33554448484E+02  0.27547589139E+02 -0.18491734192E+03  0.21120748505E+03  0.92354792604E+02 0.  0.
         23    2    1    2    0    0 -0.32898170964E+02  0.70580053943E+02 -0.85866873843E+02  0.14711358927E+03  0.90583963575E+02 0.  0.
        -13    1    3    3    0    0  0.11976505486E+02 -0.33844956559E+02 -0.51661734273E+02  0.62911466016E+02  0.00000000000E+00 0.  1.
         13    1    3    3    0    0  0.21577942998E+02  0.61392545699E+02 -0.13325560765E+03  0.14829601903E+03  0.00000000000E+00 0. -1.
        -13    1    4    4    0    0 -0.59596246052E+02  0.50184553818E+02 -0.82297695816E+02  0.11332745794E+03  0.00000000000E+00 0. -1.
         13    1    4    4    0    0  0.26698075088E+02  0.20395500125E+02 -0.35691780261E+01  0.33786131334E+02  0.00000000000E+00 0.  1.
          1    1    1    2  501    0 -0.65627751979E+00 -0.98127643082E+02 -0.60347112239E+02  0.11520086368E+03  0.00000000000E+00 0. -1.
<scales pt_clust_5="13000.00000" pt_clust_6="13000.00000" pt_clust_7="13000.00000" pt_clust_8="13000.00000" pt_clust_9="98.12984"></scales>
<clustering>
<clus scale="   90.584">  7  8 -1 -1</clus>
<clus scale="   92.355">  5  6 -1 -1</clus>
<clus scale="   98.130">  1  9  2 -1</clus>
<clus scale="   98.130">  1  7  2 -1</clus>
<clus scale="   98.130">  1  5  2 -1</clus>
</clustering>
</event>
<event>
 9    1  0.3231311E-005  0.2151035E+03  0.7546771E-02  0.1159345E+00
          1   -1    0    0  502    0 -0.00000000000E+00  0.00000000000E+00  0.69336908044E+03  0.69336908044E+03  0.00000000000E+00 0. -1.
         21   -1    0    0  501  502  0.00000000000E+00 -0.00000000000E+00 -0.19673284804E+03  0.19673284804E+03  0.00000000000E+00 0. -1.
         23    2    1    2    0    0  0.89224883015E+02  0.24014687705E+02  0.16768686907E+03  0.21112047329E+03  0.88967315395E+02 0.  0.
         23    2    1    2    0    0 -0.63368119674E+02  0.17369771322E+03  0.41386587659E+03  0.46225679134E+03  0.90608847034E+02 0.  0.
        -13    1    4    4    0    0 -0.40684046433E+02  0.48371147046E+02  0.64087927310E+02  0.90012343196E+02  0.00000000000E+00 0.  1.
         13    1    4    4    0    0 -0.22684073241E+02  0.12532656618E+03  0.34977794928E+03  0.37224444814E+03  0.00000000000E+00 0. -1.
        -13    1    3    3    0    0  0.64843420032E+02 -0.26004504435E+02  0.71289168347E+02  0.99815073491E+02  0.00000000000E+00 0.  1.
         13    1    3    3    0    0  0.24381462983E+02  0.50019192140E+02  0.96397700726E+02  0.11130539980E+03  0.00000000000E+00 0. -1.
          1    1    1    2  501    0 -0.25856763341E+02 -0.19771240093E+03 -0.84916513268E+02  0.21672466384E+03  0.00000000000E+00 0. -1.
<scales pt_clust_5="13000.00000" pt_clust_6="13000.00000" pt_clust_7="13000.00000" pt_clust_8="13000.00000" pt_clust_9="195.08863"></scales>
<clustering>
<clus scale="   88.967">  7  8 -1 -1</clus>
<clus scale="   90.609">  5  6 -1 -1</clus>
<clus scale="  128.269">  1  7  2 -1</clus>
<clus scale="  195.089">  2  9  1 -1</clus>
<clus scale="  195.089">  2  5  1 -1</clus>
</clustering>
</event>
<event>
 9    1  0.3231311E-005  0.1669196E+03  0.7546771E-02  0.1187310E+00
         -3   -1    0    0    0  501 -0.00000000000E+00  0.00000000000E+00  0.35594920983E+03  0.35594920983E+03  0.00000000000E+00 0.  1.
         21   -1    0    0  501  502  0.00000000000E+00 -0.00000000000E+00 -0.23404813183E+03  0.23404813183E+03  0.00000000000E+00 0.  1.
         23    2    1    2    0    0 -0.72094177975E+02  0.87310040863E+02  0.25910172452E+03  0.30850489303E+03  0.12337322093E+03 0.  0.
         23    2    1    2    0    0  0.98003217556E+01 -0.12737092533E+03 -0.46075120101E+02  0.16406476641E+03  0.92059393657E+02 0.  0.
        -11    1    4    4    0    0 -0.28319097369E+02 -0.63300158847E+01 -0.17829665061E+02  0.34057852737E+02  0.00000000000E+00 0. -1.
         11    1    4    4    0    0  0.38119419124E+02 -0.12104090944E+03 -0.28245455040E+02  0.13000691367E+03  0.00000000000E+00 0.  1.
        -11    1    3    3    0    0 -0.17260510481E+02  0.80419500132E+02  0.23356661025E+03  0.24762589252E+03  0.00000000000E+00 0.  1.
         11    1    3    3    0    0 -0.54833667494E+02  0.68905407306E+01  0.25535114269E+02  0.60879000511E+02  0.00000000000E+00 0. -1.
         -3    1    1    2    0  502  0.62293856219E+02  0.40060884463E+02 -0.91125526417E+02  0.11742768222E+03  0.00000000000E+00 0.  1.
<scales pt_clust_5="13000.00000" pt_clust_6="13000.00000" pt_clust_7="13000.00000" pt_clust_8="13000.00000" pt_clust_9="74.06348"></scales>
<clustering>
<clus scale="   74.063">  2  9  1 -1</clus>
<clus scale="   92.059">  5  6 -1 -1</clus>
<clus scale="  123.373">  7  8 -1 -1</clus>
<clus scale="  145.314">  2  5  1 -1</clus>
<clus scale="   74.063">  2  5  1 -1</clus>
</clustering>
</event>
<event>
 9    1  0.3231311E-005  0.2119453E+03  0.7546771E-02  0.1171551E+00
         -3   -1    0    0    0  501 -0.00000000000E+00  0.00000000000E+00  0.30655773335E+03  0.30655773335E+03  0.00000000000E+00 0.  1.
         21   -1    0    0  501  502  0.00000000000E+00 -0.00000000000E+00 -0.24041084453E+03  0.24041084453E+03  0.00000000000E+00 0. -1.
         23    2    1    2    0    0 -0.24159036895E+02  0.31529073476E+02  0.93465510653E+02  0.13775626093E+03  0.93076550251E+02 0.  0.
         23    2    1    2    0    0  0.15434089537E+03 -0.14136060078E+03 -0.59195291323E+02  0.23593103485E+03  0.91408091837E+02 0.  0.
        -11    1    3    3    0    0 -0.51310456856E+02  0.31990296500E+02  0.92592208520E+02  0.11058688499E+03  0.00000000000E+00 0. -1.
         11    1    3    3    0    0  0.27151419961E+02 -0.46122302358E+00  0.87330213230E+00  0.27169375944E+02  0.00000000000E+00 0.  1.
        -13    1    4    4    0    0  0.24175710695E+02 -0.35825286850E+02  0.23357512325E+02  0.49127279057E+02  0.00000000000E+00 0.  1.
         13    1    4    4    0    0  0.13016518468E+03 -0.10553531393E+03 -0.82552803648E+02  0.18680375580E+03  0.00000000000E+00 0. -1.
         -3    1    1    2    0  502 -0.13018185848E+03  0.10983152731E+03  0.31876669487E+02  0.17328128210E+03  0.00000000000E+00 0.  1.
<scales pt_clust_5="13000.00000" pt_clust_6="13000.00000" pt_clust_7="13000.00000" pt_clust_8="13000.00000" pt_clust_9="191.22081"></scales>
<clustering>
<clus scale="   91.408">  7  8 -1 -1</clus>
<clus scale="   93.077">  5  6 -1 -1</clus>
<clus scale="  101.198">  1  5  2 -1</clus>
<clus scale="  191.221">  2  9  1 -1</clus>
<clus scale="  191.221">  2  5  1 -1</clus>
</clustering>
</event>
<event>
 9    1  0.3231311E-005  0.1139891E+03  0.7546771E-02  0.1253504E+00
         21   -1    0    0  501  502  0.00000000000E+00  0.00000000000E+00  0.66149448290E+03  0.66149448290E+03  0.00000000000E+00 0. -1.
          2   -1    0    0  502    0 -0.00000000000E+00 -0.00000000000E+00 -0.98455111501E+02  0.98455111501E+02  0.00000000000E+00 0. -1.
         23    2    1    2    0    0 -0.73542086507E+02 -0.10409708073E+02 -0.41853706547E+02  0.12513737133E+03  0.91601465285E+02 0.  0.
         23    2    1    2    0    0 -0.38936467032E+01  0.49747906781E+02  0.36337069377E+03  0.37814736627E+03  0.92017144134E+02 0.  0.
        -13    1    3    3    0    0  0.19240698711E+02  0.10541593305E+02 -0.13994505123E+02  0.26022602674E+02  0.00000000000E+00 0.  1.
         13    1    3    3    0    0 -0.92782785218E+02 -0.20951301378E+02 -0.27859201424E+02  0.99114768659E+02  0.00000000000E+00 0. -1.
        -13    1    4    4    0    0  0.41007100449E+02  0.35263462927E+02  0.14549520843E+03  0.15522225930E+03  0.00000000000E+00 0.  1.
         13    1    4    4    0    0 -0.44900747152E+02  0.14484443854E+02  0.21787548534E+03  0.22292510697E+03  0.00000000000E+00 0. -1.
          2    1    1    2  501    0  0.77435733210E+02 -0.39338198707E+02  0.24152238417E+03  0.25666485679E+03  0.00000000000E+00 0. -1.
<scales pt_clust_5="13000.00000" pt_clust_6="13000.00000" pt_clust_7="13000.00000" pt_clust_8="13000.00000" pt_clust_9="86.85497"></scales>
<clustering>
<clus scale="   86.855">  1  9  2 -1</clus>
<clus scale="   91.601">  5  6 -1 -1</clus>
<clus scale="   92.017">  7  8 -1 -1</clus>
<clus scale="  113.654">  2  5  1 -1</clus>
<clus scale="   86.855">  1  5  2 -1</clus>
</clustering>
</event>
<event>
 9    1  0.3231311E-005  0.1003390E+03  0.7546771E-02  0.1292517E+00
         21   -1    0    0  501  502  0.00000000000E+00  0.00000000000E+00  0.18560407012E+03  0.18560407012E+03  0.00000000000E+00 0.  1.
          1   -1    0    0  502    0 -0.00000000000E+00 -0.00000000000E+00 -0.15473473976E+03  0.15473473976E+03  0.00000000000E+00 0. -1.
         23    2    1    2    0    0 -0.23295662104E+02  0.30992627098E+02 -0.11565198755E+03  0.15341574322E+03  0.93047177472E+02 0.  0.
         23    2    1    2    0    0  0.30748601696E+01 -0.36879050679E+02  0.62330610481E+02  0.10013824063E+03  0.69087213647E+02 0.  0.
        -11    1    4    4    0    0 -0.22562352750E+02 -0.31987229781E+02  0.62838871262E+02  0.74033548964E+02  0.00000000000E+00 0.  1.
         11    1    4    4    0    0  0.25637212919E+02 -0.48918208985E+01 -0.50826078134E+00  0.26104691666E+02  0.00000000000E+00 0. -1.
        -11    1    3    3    0    0 -0.27884943487E+02  0.57642185388E+02 -0.10758075611E+03  0.12519509054E+03  0.00000000000E+00 0. -1.
         11    1    3    3    0    0  0.45892813824E+01 -0.26649558290E+02 -0.80712314369E+01  0.28220652678E+02  0.00000000000E+00 0.  1.
          1    1    1    2  501    0  0.20220801935E+02  0.58864235806E+01  0.84190707425E+02  0.86784826037E+02  0.00000000000E+00 0. -1.
<scales pt_clust_5="13000.00000" pt_clust_6="13000.00000" pt_clust_7="13000.00000" pt_clust_8="13000.00000" pt_clust_9="21.06017"></scales>
<clustering>
<clus scale="   21.060">  1  9  2 -1</clus>
<clus scale="   69.087">  5  6 -1 -1</clus>
<clus scale="   78.633">  1  5  2 -1</clus>
<clus scale="   93.047">  7  8 -1 -1</clus>
<clus scale="   21.060">  1  5  2 -1</clus>
</clustering>
</event>
<event>
 9    1  0.3231311E-005  0.1834923E+03  0.7546771E-02  0.1164594E+00
         -1   -1    0    0    0  501 -0.00000000000E+00  0.00000000000E+00  0.34185849509E+03  0.34185849509E+03  0.00000000000E+00 0.  1.
         21   -1    0    0  501  502  0.00000000000E+00 -0.00000000000E+00 -0.27434257709E+03  0.27434257709E+03  0.00000000000E+00 0.  1.
         23    2    1    2    0    0  0.13142269338E+03  0.79671587149E+02  0.17482629660E+03  0.24966615977E+03  0.90274421732E+02 0.  0.
         23    2    1    2    0    0 -0.83656354640E+02 -0.19104022075E+03 -0.53203070388E+02  0.23382396159E+03  0.91369178051E+02 0.  0.
        -11    1    3    3    0    0  0.10895155135E+03  0.16699043480E+02  0.12229100552E+03  0.16463410529E+03  0.00000000000E+00 0.  1.
         11    1    3    3    0    0  0.22471142031E+02  0.62972543669E+02  0.52535291082E+02  0.85032054482E+02  0.00000000000E+00 0. -1.
        -11    1    4    4    0    0  0.85159692160E+01 -0.89850420227E+02 -0.13136945894E+02  0.91204161605E+02  0.00000000000E+00 0. -1.
         11    1    4    4    0    0 -0.92172323856E+02 -0.10118980052E+03 -0.40066124493E+02  0.14261979998E+03  0.00000000000E+00 0.  1.
         -1    1    1    2    0  502 -0.47766338743E+02  0.11136863360E+03 -0.54107308202E+02  0.13271095082E+03  0.00000000000E+00 0.  1.
<scales pt_clust_5="13000.00000" pt_clust_6="13000.00000" pt_clust_7="13000.00000" pt_clust_8="13000.00000" pt_clust_9="121.18001"></scales>
<clustering>
<clus scale="   90.274">  5  6 -1 -1</clus>
<clus scale="   91.369">  7  8 -1 -1</clus>
<clus scale="  121.180">  2  9  1 -1</clus>
<clus scale="  182.950">  1  5  2 -1</clus>
<clus scale="  121.180">  2  5  1 -1</clus>
</clustering>
</event>
<event>
 9    1  0.3231311E-005  0.1045077E+03  0.7546771E-02  0.1271494E+00
          2   -1    0    0  502    0 -0.00000000000E+00  0.00000000000E+00  0.68305060542E+02  0.68305060542E+02  0.00000000000E+00 0. -1.
         21   -1    0    0  501  502  0.00000000000E+00 -0.00000000000E+00 -0.51725299726E+03  0.51725299726E+03  0.00000000000E+00 0. -1.
         23    2    1    2    0    0  0.78781734234E+01  0.53587183853E+02 -0.15231133821E+02  0.10722489082E+03  0.91277258310E+02 0.  0.
         23    2    1    2    0    0 -0.42245568240E+02 -0.33790304255E+02 -0.11032480546E+03  0.15251816077E+03  0.90353494488E+02 0.  0.
        -11    1    4    4    0    0  0.10144180027E+02 -0.49340221791E+02 -0.58571174521E+02  0.77252471543E+02  0.00000000000E+00 0.  1.
         11    1    4    4    0    0 -0.52389748267E+02  0.15549917535E+02 -0.51753630944E+02  0.75265689227E+02  0.00000000000E+00 0. -1.
        -11    1    3    3    0    0  0.47226884829E+02  0.43423338623E+02 -0.17567715014E+02  0.66517588642E+02  0.00000000000E+00 0.  1.
         11    1    3    3    0    0 -0.39348711406E+02  0.10163845230E+02  0.23365811935E+01  0.40707302181E+02  0.00000000000E+00 0. -1.
          2    1    1    2  501    0  0.34367394817E+02 -0.19796879598E+02 -0.32339199743E+03  0.32581500621E+03  0.00000000000E+00 0. -1.
<scales pt_clust_5="13000.00000" pt_clust_6="13000.00000" pt_clust_7="13000.00000" pt_clust_8="13000.00000" pt_clust_9="39.66150"></scales>
<clustering>
<clus scale="   39.661">  2  9  1 -1</clus>
<clus scale="   90.353">  5  6 -1 -1</clus>
<clus scale="   91.277">  7  8 -1 -1</clus>
<clus scale="  103.702">  2  5  1 -1</clus>
<clus scale="   39.661">  2  5  1 -1</clus>
</clustering>
</event>
<event>
 9    1  0.3231311E-005  0.9792887E+02  0.7546771E-02  0.1286782E+00
         21   -1    0    0  501  502  0.00000000000E+00  0.00000000000E+00  0.24929054794E+03  0.24929054794E+03  0.00000000000E+00 0. -1.
          3   -1    0    0  502    0 -0.00000000000E+00 -0.00000000000E+00 -0.90985930067E+02  0.90985930067E+02  0.00000000000E+00 0. -1.
         23    2    1    2    0    0 -0.22029987558E+02  0.38995606063E+02 -0.23382200314E+02  0.10152268036E+03  0.88057649817E+02 0.  0.
         23    2    1    2    0    0 -0.84968980097E+01  0.88276952337E+01  0.14140043471E+03  0.16916966452E+03  0.92055238736E+02 0.  0.
        -11    1    4    4    0    0 -0.28837474477E+02  0.33246796603E+02  0.12675187273E+03  0.13417520881E+03  0.00000000000E+00 0. -1.
         11    1    4    4    0    0  0.20340576467E+02 -0.24419101369E+02  0.14648561988E+02  0.34994455718E+02  0.00000000000E+00 0.  1.
        -13    1    3    3    0    0 -0.28611859795E+02 -0.21794219749E+02  0.25468615259E+00  0.35967921825E+02  0.00000000000E+00 0.  1.
         13    1    3    3    0    0  0.65818722373E+01  0.60789825811E+02 -0.23636886466E+02  0.65554758532E+02  0.00000000000E+00 0. -1.
          3    1    1    2  501    0  0.30526885568E+02 -0.47823301296E+02  0.40286383470E+02  0.69584133122E+02  0.00000000000E+00 0. -1.
<scales pt_clust_5="13000.00000" pt_clust_6="13000.00000" pt_clust_7="13000.00000" pt_clust_8="13000.00000" pt_clust_9="56.73587"></scales>
<clustering>
<clus scale="   56.736">  1  9  2 -1</clus>
<clus scale="   88.058">  7  8 -1 -1</clus>
<clus scale="   92.055">  5  6 -1 -1</clus>
<clus scale="   94.181">  2  7  1 -1</clus>
<clus scale="   56.736">  1  5  2 -1</clus>
</clustering>
</event>
<event>
 9    1  0.3231311E-005  0.2180815E+03  0.7546771E-02  0.1135395E+00
          2   -1    0    0  502    0 -0.00000000000E+00  0.00000000000E+00  0.11427773118E+03  0.11427773118E+03  0.00000000000E+00 0. -1.
         21   -1    0    0  501  502  0.00000000000E+00 -0.00000000000E+00 -0.96134631583E+03  0.96134631583E+03  0.00000000000E+00 0. -1.
         23    2    1    2    0    0 -0.23963179818E+02 -0.17515357023E+03 -0.12337361893E+03  0.23439263856E+03  0.92010064733E+02 0.  0.
         23    2    1    2    0    0 -0.30041812891E+02  0.23261670115E+03 -0.23036587048E+03  0.34163942806E+03  0.92930212262E+02 0.  0.
        -11    1    4    4    0    0 -0.10096448286E+02  0.13874240732E+03 -0.19462903333E+03  0.23923180071E+03  0.00000000000E+00 0. -1.
         11    1    4    4    0    0 -0.19945364605E+02  0.93874293824E+02 -0.35736837154E+02  0.10240762735E+03  0.00000000000E+00 0.  1.
        -13    1    3    3    0    0  0.34176027353E+02 -0.64780995815E+02 -0.32920008065E+02  0.80301339935E+02  0.00000000000E+00 0.  1.
         13    1    3    3    0    0 -0.58139207172E+02 -0.11037257441E+03 -0.90453610862E+02  0.15409129862E+03  0.00000000000E+00 0. -1.
          2    1    1    2  501    0  0.54004992709E+02 -0.57463130919E+02 -0.49332909525E+03  0.49959198039E+03  0.00000000000E+00 0. -1.
<scales pt_clust_5="13000.00000" pt_clust_6="13000.00000" pt_clust_7="13000.00000" pt_clust_8="13000.00000" pt_clust_9="78.85779"></scales>
<clustering>
<clus scale="   78.858">  2  9  1 -1</clus>
<clus scale="   92.010">  7  8 -1 -1</clus>
<clus scale="   92.930">  5  6 -1 -1</clus>
<clus scale="  217.691">  1  7  2 -1</clus>
<clus scale="   78.858">  2  5  1 -1</clus>
</clustering>
</event>
<event>
 9    1  0.3231311E-005  0.3353311E+03  0.7546771E-02  0.1100908E+00
         21   -1    0    0  501  502  0.00000000000E+00  0.00000000000E+00  0.21705935930E+03  0.21705935930E+03  0.00000000000E+00 0. -1.
          2   -1    0    0  502    0 -0.00000000000E+00 -0.00000000000E+00 -0.12398069153E+04  0.12398069153E+04  0.00000000000E+00 0. -1.
         23    2    1    2    0    0 -0.22514460356E+02  0.10610362566E+03 -0.68666526299E+03  0.70125537700E+03  0.92114277196E+02 0.  0.
         23    2    1    2    0    0 -0.26337258182E+03  0.13013216334E+03 -0.13649963981E+03  0.33445536298E+03  0.83239061539E+02 0.  0.
        -13    1    4    4    0    0 -0.10839828767E+03  0.48800612956E+02 -0.11603700000E+02  0.11944176174E+03  0.00000000000E+00 0.  1.
         13    1    4    4    0    0 -0.15497429416E+03  0.81331550381E+02 -0.12489593981E+03  0.21501360124E+03  0.00000000000E+00 0. -1.
        -13    1    3    3    0    0  0.43318592736E+01  0.11352481549E+03 -0.57939527389E+03  0.59042826164E+03  0.00000000000E+00 0.  1.
         13    1    3    3    0    0 -0.26846319630E+02 -0.74211898347E+01 -0.10726998911E+03  0.11082711536E+03  0.00000000000E+00 0. -1.
          2    1    1    2  501    0  0.28588704218E+03 -0.23623578899E+03 -0.19958265320E+03  0.42115553463E+03  0.00000000000E+00 0. -1.
<scales pt_clust_5="13000.00000" pt_clust_6="13000.00000" pt_clust_7="13000.00000" pt_clust_8="13000.00000" pt_clust_9="324.83580"></scales>
<clustering>
<clus scale="   83.239">  5  6 -1 -1</clus>
<clus scale="   92.114">  7  8 -1 -1</clus>
<clus scale="  142.302">  2  7  1 -1</clus>
<clus scale="  324.836">  1  9  2 -1</clus>
<clus scale="  324.836">  1  5  2 -1</clus>
</clustering>
</event>
<event>
 9    1  0.3231311E-005  0.1648913E+03  0.7546771E-02  0.1183336E+00
          2   -1    0    0  502    0 -0.00000000000E+00  0.00000000000E+00  0.22489209520E+03  0.22489209520E+03  0.00000000000E+00 0. -1.
         21   -1    0    0  501  502  0.00000000000E+00 -0.00000000000E+00 -0.41789831168E+03  0.41789831168E+03  0.00000000000E+00 0. -1.
         23    2    1    2    0    0  0.43529789238E+02  0.90267004669E+02  0.29418448726E+02  0.13818882274E+03  0.90486081364E+02 0.  0.
         23    2    1    2    0    0 -0.57604037974E+02 -0.19754198217E+03  0.32876137799E+02  0.22732103075E+03  0.90845752119E+02 0.  0.
        -13    1    3    3    0    0  0.59914462734E+02  0.20591344847E+02  0.11285595824E+02  0.64351464632E+02  0.00000000000E+00 0.  1.
         13    1    3    3    0    0 -0.16384673496E+02  0.69675659823E+02  0.18132852903E+02  0.73837358103E+02  0.00000000000E+00 0. -1.
        -13    1    4    4    0    0  0.11592547374E+02 -0.58893370273E+02  0.40116442839E+02  0.72195188224E+02  0.00000000000E+00 0.  1.
         13    1    4    4    0    0 -0.69196585348E+02 -0.13864861189E+03 -0.72403050399E+01  0.15512584253E+03  0.00000000000E+00 0. -1.
          2    1    1    2  501    0  0.14074248737E+02  0.10727497750E+03 -0.25530080300E+03  0.27728055339E+03  0.00000000000E+00 0. -1.
<scales pt_clust_5="13000.00000" pt_clust_6="13000.00000" pt_clust_7="13000.00000" pt_clust_8="13000.00000" pt_clust_9="108.19429"></scales>
<clustering>
<clus scale="   90.486">  5  6 -1 -1</clus>
<clus scale="   90.846">  7  8 -1 -1</clus>
<clus scale="  108.194">  2  9  1 -1</clus>
<clus scale="  164.693">  1  5  2 -1</clus>
<clus scale="  108.194">  2  5  1 -1</clus>
</clustering>
</event>
<event>
 9    1  0.3231311E-005  0.1472357E+03  0.7546771E-02  0.1226572E+00
         21   -1    0    0  501  502  0.00000000000E+00  0.00000000000E+00  0.52239806651E+03  0.52239806651E+03  0.00000000000E+00 0. -1.
          1   -1    0    0  502    0 -0.00000000000E+00 -0.00000000000E+00 -0.85128318070E+02  0.85128318070E+02  0.00000000000E+00 0. -1.
         23    2    1    2    0    0 -0.56482148219E+01 -0.41817591413E+01 -0.24641087748E+01  0.91171668376E+02  0.90867000844E+02 0.  0.
         23    2    1    2    0    0  0.29049608453E+02  0.11444963229E+03  0.18836350983E+03  0.24086663912E+03  0.92700204533E+02 0.  0.
        -11    1    4    4    0    0 -0.23931621084E+02  0.87430383411E+02  0.11363168478E+03  0.14535802082E+03  0.00000000000E+00 0. -1.
         11    1    4    4    0    0  0.52981229536E+02  0.27019248881E+02  0.74731825047E+02  0.95508618293E+02  0.00000000000E+00 0.  1.
        -13    1    3    3    0    0 -0.42343673090E+02  0.15540536291E+02  0.12665345773E+02  0.46849822865E+02  0.00000000000E+00 0.  1.
         13    1    3    3    0    0  0.36695458268E+02 -0.19722295433E+02 -0.15129454548E+02  0.44321845511E+02  0.00000000000E+00 0. -1.
          1    1    1    2  501    0 -0.23401393631E+02 -0.11026787315E+03  0.25137034738E+03  0.27548807709E+03  0.00000000000E+00 0. -1.
<scales pt_clust_5="13000.00000" pt_clust_6="13000.00000" pt_clust_7="13000.00000" pt_clust_8="13000.00000" pt_clust_9="114.38977"></scales>
<clustering>
<clus scale="   90.867">  7  8 -1 -1</clus>
<clus scale="   91.138">  2  7  1 -1</clus>
<clus scale="   92.700">  5  6 -1 -1</clus>
<clus scale="  114.390">  1  9  2 -1</clus>
<clus scale="  114.390">  1  5  2 -1</clus>
</clustering>
</event>
<event>
 9    1  0.3231311E-005  0.1745812E+03  0.7546771E-02  0.1173346E+00
          1   -1    0    0  502    0 -0.00000000000E+00  0.00000000000E+00  0.68146801559E+03  0.68146801559E+03  0.00000000000E+00 0. -1.
         21   -1    0    0  501  502  0.00000000000E+00 -0.00000000000E+00 -0.37272993897E+03  0.37272993897E+03  0.00000000000E+00 0. -1.
         23    2    1    2    0    0  0.42496551255E+02 -0.13782771439E+03  0.54956534694E+03  0.57553067770E+03  0.91711802393E+02 0.  0.
         23    2    1    2    0    0 -0.74626255127E+02  0.16173836961E+03  0.32596308957E+02  0.20232601862E+03  0.90249212152E+02 0.  0.
        -11    1    4    4    0    0 -0.47247771100E+02  0.16197581546E+03  0.14162908616E+02  0.16931953416E+03  0.00000000000E+00 0.  1.
         11    1    4    4    0    0 -0.27378484027E+02 -0.23744584966E+00  0.18433400340E+02  0.33006484458E+02  0.00000000000E+00 0. -1.
        -11    1    3    3    0    0  0.34223093795E+02 -0.26760979149E+01  0.14071785709E+03  0.14484438876E+03  0.00000000000E+00 0.  1.
         11    1    3    3    0    0  0.82734574605E+01 -0.13515161648E+03  0.40884748984E+03  0.43068628895E+03  0.00000000000E+00 0. -1.
          1    1    1    2  501    0  0.32129703872E+02 -0.23910655220E+02 -0.27342357927E+03  0.27634125824E+03  0.00000000000E+00 0. -1.
<scales pt_clust_5="13000.00000" pt_clust_6="13000.00000" pt_clust_7="13000.00000" pt_clust_8="13000.00000" pt_clust_9="40.05043"></scales>
<clustering>
<clus scale="   40.050">  2  9  1 -1</clus>
<clus scale="   90.249">  5  6 -1 -1</clus>
<clus scale="   91.712">  7  8 -1 -1</clus>
<clus scale="  173.817">  2  5  1 -1</clus>
<clus scale="   40.050">  2  5  1 -1</clus>
</clustering>
</event>
<event>
 9    1  0.3231311E-005  0.1935249E+03  0.7546771E-02  0.1155967E+00
          1   -1    0    0  502    0 -0.00000000000E+00  0.00000000000E+00  0.74430574377E+02  0.74430574377E+02  0.00000000000E+00 0. -1.
         21   -1    0    0  501  502  0.00000000000E+00 -0.00000000000E+00 -0.11404838750E+04  0.11404838750E+04  0.00000000000E+00 0. -1.
         23    2    1    2    0    0  0.11690477646E+03 -0.14194052520E+03 -0.26248446352E+03  0.33517541338E+03  0.98135746233E+02 0.  0.
         23    2    1    2    0    0 -0.17903319553E+03  0.95108861306E+01 -0.35931211923E+03  0.41201948206E+03  0.92257858826E+02 0.  0.
        -11    1    3    3    0    0  0.35345571834E+02 -0.15538277374E+02 -0.78120191140E+01  0.39392577405E+02  0.00000000000E+00 0.  1.
         11    1    3    3    0    0  0.81559204629E+02 -0.12640224783E+03 -0.25467244441E+03  0.29578283597E+03  0.00000000000E+00 0. -1.
        -13    1    4    4    0    0 -0.13461564492E+03 -0.34578220589E+02 -0.25238833367E+03  0.28812652806E+03  0.00000000000E+00 0. -1.
         13    1    4    4    0    0 -0.44417550601E+02  0.44089106719E+02 -0.10692378556E+03  0.12389295400E+03  0.00000000000E+00 0.  1.
          1    1    1    2  501    0  0.62128419063E+02  0.13242963907E+03 -0.44425671784E+03  0.46771955391E+03  0.00000000000E+00 0. -1.
<scales pt_clust_5="13000.00000" pt_clust_6="13000.00000" pt_clust_7="13000.00000" pt_clust_8="13000.00000" pt_clust_9="146.27901"></scales>
<clustering>
<clus scale="   92.258">  7  8 -1 -1</clus>
<clus scale="   98.136">  5  6 -1 -1</clus>
<clus scale="  146.279">  2  9  1 -1</clus>
<clus scale="  190.612">  2  7  1 -1</clus>
<clus scale="  146.279">  2  5  1 -1</clus>
</clustering>
</event>
<event>
 9    1  0.3231311E-005  0.1380959E+03  0.7546771E-02  0.1216391E+00
         21   -1    0    0  501  502  0.00000000000E+00  0.00000000000E+00  0.15884775991E+03  0.15884775991E+03  0.00000000000E+00 0. -1.
         -2   -1    0    0    0  501 -0.00000000000E+00 -0.00000000000E+00 -0.27633757424E+03  0.27633757424E+03  0.00000000000E+00 0.  1.
         23    2    1    2    0    0 -0.56655564723E+02  0.90640838627E+02 -0.17729756424E+03  0.22631975196E+03  0.91436257580E+02 0.  0.
         23    2    1    2    0    0  0.95531126330E+02 -0.44100700694E+02  0.29804637995E+02  0.14120850235E+03  0.89333402427E+02 0.  0.
        -11    1    4    4    0    0  0.38192556308E+02 -0.66109745904E+02  0.12198963029E+02  0.77317427271E+02  0.00000000000E+00 0.  1.
         11    1    4    4    0    0  0.57338570022E+02  0.22009045210E+02  0.17605674966E+02  0.63891075075E+02  0.00000000000E+00 0. -1.
        -13    1    3    3    0    0 -0.77233118287E+02  0.88781877073E+02 -0.13392985524E+03  0.17828175000E+03  0.00000000000E+00 0.  1.
         13    1    3    3    0    0  0.20577553564E+02  0.18589615540E+01 -0.43367708996E+02  0.48038001960E+02  0.00000000000E+00 0. -1.
         -2    1    1    2    0  502 -0.38875561607E+02 -0.46540137933E+02  0.30003111906E+02  0.67657079845E+02  0.00000000000E+00 0.  1.
<scales pt_clust_5="13000.00000" pt_clust_6="13000.00000" pt_clust_7="13000.00000" pt_clust_8="13000.00000" pt_clust_9="60.64069"></scales>
<clustering>
<clus scale="   60.641">  1  9  2 -1</clus>
<clus scale="   89.333">  5  6 -1 -1</clus>
<clus scale="   91.436">  7  8 -1 -1</clus>
<clus scale="  136.713">  1  5  2 -1</clus>
<clus scale="   60.641">  1  5  2 -1</clus>
</clustering>
</event>
<event>
 9    1  0.3231311E-005  0.1407688E+03  0.7546771E-02  0.1212610E+00
         21   -1    0    0  501  502  0.00000000000E+00  0.00000000000E+00  0.38936494257E+03  0.38936494257E+03  0.00000000000E+00 0. -1.
          1   -1    0    0  502    0 -0.00000000000E+00 -0.00000000000E+00 -0.14689667244E+03  0.14689667244E+03  0.00000000000E+00 0. -1.
         23    2    1    2    0    0  0.39188548779E+02 -0.10122363081E+03 -0.86951494255E+02  0.16688160730E+03  0.92233089042E+02 0.  0.
         23    2    1    2    0    0 -0.61047508833E+02  0.73640283480E+02  0.25785317992E+03  0.28962769617E+03  0.90808866884E+02 0.  0.
        -11    1    4    4    0    0 -0.41854681132E+02  0.93730785661E+02  0.18362374487E+03  0.21036861504E+03  0.00000000000E+00 0.  1.
         11    1    4    4    0    0 -0.19192827701E+02 -0.20090502180E+02  0.74229435052E+02  0.79259081127E+02  0.00000000000E+00 0. -1.
        -13    1    3    3    0    0  0.24329163431E+02 -0.73562792768E+02 -0.10513162876E+03  0.13059882097E+03  0.00000000000E+00 0. -1.
         13    1    3    3    0    0  0.14859385348E+02 -0.27660838038E+02  0.18180134501E+02  0.36282786336E+02  0.00000000000E+00 0.  1.
          1    1    1    2  501    0  0.21858960054E+02  0.27583347326E+02  0.71566584461E+02  0.79752311538E+02  0.00000000000E+00 0. -1.
<scales pt_clust_5="13000.00000" pt_clust_6="13000.00000" pt_clust_7="13000.00000" pt_clust_8="13000.00000" pt_clust_9="35.19453"></scales>
<clustering>
<clus scale="   35.195">  1  9  2 -1</clus>
<clus scale="   90.809">  5  6 -1 -1</clus>
<clus scale="   92.233">  7  8 -1 -1</clus>
<clus scale="  139.840">  1  5  2 -1</clus>
<clus scale="   35.195">  1  5  2 -1</clus>
</clustering>
</event>
<event>
 9    1  0.3231311E-005  0.1366173E+03  0.7546771E-02  0.1238008E+00
          4   -1    0    0  502    0 -0.00000000000E+00  0.00000000000E+00  0.40169610855E+02  0.40169610855E+02  0.00000000000E+00 0. -1.
         21   -1    0    0  501  502  0.00000000000E+00 -0.00000000000E+00 -0.85704349051E+03  0.85704349051E+03  0.00000000000E+00 0. -1.
         23    2    1    2    0    0  0.58536490496E+01  0.39332030628E+01 -0.78515123208E+02  0.11956138533E+03  0.89891962913E+02 0.  0.
         23    2    1    2    0    0 -0.25848607477E+02  0.98788622272E+02 -0.34526643169E+03  0.37086780835E+03  0.88919514302E+02 0.  0.
        -11    1    4    4    0    0 -0.59120703303E+02  0.67023374299E+02 -0.22420189299E+03  0.24135840380E+03  0.00000000000E+00 0.  1.
         11    1    4    4    0    0  0.33272095825E+02  0.31765247973E+02 -0.12106453869E+03  0.12950940456E+03  0.00000000000E+00 0. -1.
        -13    1    3    3    0    0 -0.24985262337E+02 -0.32934546912E+02 -0.44095447959E+02  0.60442999968E+02  0.00000000000E+00 0.  1.
         13    1    3    3    0    0  0.30838911386E+02  0.36867749975E+02 -0.34419675249E+02  0.59118385363E+02  0.00000000000E+00 0. -1.
          4    1    1    2  501    0  0.19994958428E+02 -0.10272182533E+03 -0.39309232476E+03  0.40678390768E+03  0.00000000000E+00 0. -1.
<scales pt_clust_5="13000.00000" pt_clust_6="13000.00000" pt_clust_7="13000.00000" pt_clust_8="13000.00000" pt_clust_9="103.71891"></scales>
<clustering>
<clus scale="   88.920">  5  6 -1 -1</clus>
<clus scale="   89.892">  7  8 -1 -1</clus>
<clus scale="   90.168">  1  7  2 -1</clus>
<clus scale="  103.719">  2  9  1 -1</clus>
<clus scale="  103.719">  2  5  1 -1</clus>
</clustering>
</event>
<event>
 9    1  0.3231311E-005  0.9281666E+02  0.7546771E-02  0.1296422E+00
         21   -1    0    0  501  502  0.00000000000E+00  0.00000000000E+00  0.81298969204E+02  0.81298969204E+02  0.00000000000E+00 0. -1.
          1   -1    0    0  502    0 -0.00000000000E+00 -0.00000000000E+00 -0.14740332941E+03  0.14740332941E+03  0.00000000000E+00 0. -1.
         23    2    1    2    0    0  0.58690437623E+00  0.32602914772E+02 -0.42540544076E+02  0.10493052671E+03  0.90207666171E+02 0.  0.
         23    2    1    2    0    0  0.13237510819E+02 -0.63972666666E+01 -0.11125174987E+02  0.91638140903E+02  0.89764261464E+02 0.  0.
        -11    1    3    3    0    0 -0.30097677702E+02  0.51652572536E+02 -0.27597638527E+02  0.65844423491E+02  0.00000000000E+00 0. -1.
         11    1    3    3    0    0  0.30684582078E+02 -0.19049657764E+02 -0.14942905549E+02  0.39086103214E+02  0.00000000000E+00 0.  1.
        -11    1    4    4    0    0  0.36014616227E+02  0.12692722354E+02 -0.36302390930E+02  0.52687962287E+02  0.00000000000E+00 0.  1.
         11    1    4    4    0    0 -0.22777105408E+02 -0.19089989020E+02  0.25177215943E+02  0.38950178616E+02  0.00000000000E+00 0. -1.
          1    1    1    2  501    0 -0.13824415195E+02 -0.26205648106E+02 -0.12438641141E+02  0.32133631005E+02  0.00000000000E+00 0. -1.
<scales pt_clust_5="13000.00000" pt_clust_6="13000.00000" pt_clust_7="13000.00000" pt_clust_8="13000.00000" pt_clust_9="29.62856"></scales>
<clustering>
<clus scale="   29.629">  1  9  2 -1</clus>
<clus scale="   89.764">  7  8 -1 -1</clus>
<clus scale="   90.208">  5  6 -1 -1</clus>
<clus scale="   92.386">  1  7  2 -1</clus>
<clus scale="   29.629">  1  5  2 -1</clus>
</clustering>
</event>
<event>
 9    1  0.3231311E-005  0.1895913E+03  0.7546771E-02  0.1189876E+00
         21   -1    0    0  501  502  0.00000000000E+00  0.00000000000E+00  0.62161410123E+03  0.62161410123E+03  0.00000000000E+00 0.  1.
         -1   -1    0    0    0  501 -0.00000000000E+00 -0.00000000000E+00 -0.11983805983E+03  0.11983805983E+03  0.00000000000E+00 0.  1.
         23    2    1    2    0    0  0.12700163734E+01 -0.22524702593E+02  0.48910459217E+01  0.93817149436E+02  0.90932722545E+02 0.  0.
         23    2    1    2    0    0 -0.26248432341E+01  0.17977536512E+03  0.11609262234E+03  0.23564904358E+03  0.98625063106E+02 0.  0.
        -11    1    4    4    0    0 -0.21233934065E+02 -0.17022331110E+01  0.21044150568E+02  0.29943844552E+02  0.00000000000E+00 0. -1.
         11    1    4    4    0    0  0.18609090831E+02  0.18147759823E+03  0.95048471777E+02  0.20570519903E+03  0.00000000000E+00 0.  1.
        -13    1    3    3    0    0  0.23211856844E+02 -0.10404147438E+02  0.41960120006E+02  0.49068200018E+02  0.00000000000E+00 0. -1.
         13    1    3    3    0    0 -0.21941840471E+02 -0.12120555156E+02 -0.37069074084E+02  0.44748949418E+02  0.00000000000E+00 0.  1.
         -1    1    1    2    0  502  0.13548268607E+01 -0.15725066253E+03  0.38079237313E+03  0.41198596804E+03  0.00000000000E+00 0.  1.
<scales pt_clust_5="13000.00000" pt_clust_6="13000.00000" pt_clust_7="13000.00000" pt_clust_8="13000.00000" pt_clust_9="161.91961"></scales>
<clustering>
<clus scale="   90.933">  7  8 -1 -1</clus>
<clus scale="   93.690">  2  7  1 -1</clus>
<clus scale="   98.625">  5  6 -1 -1</clus>
<clus scale="  161.920">  1  9  2 -1</clus>
<clus scale="  161.920">  1  5  2 -1</clus>
</clustering>
</event>
<event>
 9    1  0.3231311E-005  0.1008257E+03  0.7546771E-02  0.1283522E+00
         21   -1    0    0  501  502  0.00000000000E+00  0.00000000000E+00  0.50981576265E+02  0.50981576265E+02  0.00000000000E+00 0. -1.
          2   -1    0    0  502    0 -0.00000000000E+00 -0.00000000000E+00 -0.52472949277E+03  0.52472949277E+03  0.00000000000E+00 0. -1.
         23    2    1    2    0    0  0.23027875821E+01 -0.90137924353E+01 -0.28450898601E+03  0.30176849508E+03  0.10016142079E+03 0.  0.
         23    2    1    2    0    0  0.42294121525E+02 -0.58810881260E+02 -0.10126852127E+03  0.15424351982E+03  0.91039757990E+02 0.  0.
        -11    1    4    4    0    0  0.83595485197E+01  0.24139820765E+02 -0.32147569654E+02  0.41061895142E+02  0.00000000000E+00 0.  1.
         11    1    4    4    0    0  0.33934573005E+02 -0.82950702025E+02 -0.69120951617E+02  0.11318162467E+03  0.00000000000E+00 0. -1.
        -13    1    3    3    0    0  0.37030717200E+02  0.16253182044E+02 -0.54952556157E+02  0.68229197351E+02  0.00000000000E+00 0. -1.
         13    1    3    3    0    0 -0.34727929618E+02 -0.25266974479E+02 -0.22955642985E+03  0.23353929773E+03  0.00000000000E+00 0.  1.
          2    1    1    2  501    0 -0.44596909107E+02  0.67824673695E+02 -0.87970409220E+02  0.11969905414E+03  0.00000000000E+00 0. -1.
<scales pt_clust_5="13000.00000" pt_clust_6="13000.00000" pt_clust_7="13000.00000" pt_clust_8="13000.00000" pt_clust_9="81.17309"></scales>
<clustering>
<clus scale="   81.173">  1  9  2 -1</clus>
<clus scale="   91.040">  5  6 -1 -1</clus>
<clus scale="   91.770">  1  5  2 -1</clus>
<clus scale="  100.161">  7  8 -1 -1</clus>
<clus scale="   81.173">  1  5  2 -1</clus>
</clustering>
</event>
<event>
 9    1  0.3231311E-005  0.1125922E+03  0.7546771E-02  0.1259408E+00
         21   -1    0    0  501  502  0.00000000000E+00  0.00000000000E+00  0.42206975598E+03  0.42206975598E+03  0.00000000000E+00 0. -1.
         -3   -1    0    0    0  501 -0.00000000000E+00 -0.00000000000E+00 -0.57216633506E+02  0.57216633506E+02  0.00000000000E+00 0.  1.
         23    2    1    2    0    0 -0.42232365052E+02 -0.18623964243E+02  0.31155154212E+02  0.11637028890E+03  0.10218109317E+03 0.  0.
         23    2    1    2    0    0  0.35596412153E+02  0.41069539029E+02  0.20249514194E+03  0.22964186702E+03  0.93687208229E+02 0.  0.
        -11    1    4    4    0    0  0.59463802957E+02  0.47023602399E+02  0.10769235897E+03  0.13169968574E+03  0.00000000000E+00 0. -1.
         11    1    4    4    0    0 -0.23867390805E+02 -0.59540633695E+01  0.94802782971E+02  0.97942181278E+02  0.00000000000E+00 0.  1.
        -13    1    3    3    0    0 -0.51738940565E+02  0.91142955908E+01  0.56832440701E+02  0.77394539025E+02  0.00000000000E+00 0. -1.
         13    1    3    3    0    0  0.95065755127E+01 -0.27738259834E+02 -0.25677286489E+02  0.38975749871E+02  0.00000000000E+00 0.  1.
         -3    1    1    2    0  502  0.66359528995E+01 -0.22445574786E+02  0.13120282632E+03  0.13327423357E+03  0.00000000000E+00 0.  1.
<scales pt_clust_5="13000.00000" pt_clust_6="13000.00000" pt_clust_7="13000.00000" pt_clust_8="13000.00000" pt_clust_9="23.40598"></scales>
<clustering>
<clus scale="   23.406">  1  9  2 -1</clus>
<clus scale="   93.687">  5  6 -1 -1</clus>
<clus scale="  102.181">  7  8 -1 -1</clus>
<clus scale="  104.944">  1  5  2 -1</clus>
<clus scale="   23.406">  1  5  2 -1</clus>
</clustering>
</event>
<event>
 9    1  0.3231311E-005  0.1116747E+03  0.7546771E-02  0.1258146E+00
          1   -1    0    0  502    0 -0.00000000000E+00  0.00000000000E+00  0.12119033873E+03  0.12119033873E+03  0.00000000000E+00 0. -1.
         21   -1    0    0  501  502  0.00000000000E+00 -0.00000000000E+00 -0.21157414543E+03  0.21157414543E+03  0.00000000000E+00 0.  1.
         23    2    1    2    0    0  0.77725489906E+01 -0.61304278020E+02  0.61841610215E+02  0.12710337018E+03  0.92261882359E+02 0.  0.
         23    2    1    2    0    0  0.11846679490E+02  0.68988175342E+02 -0.11136415279E+03  0.15968721584E+03  0.90544575891E+02 0.  0.
        -11    1    4    4    0    0  0.30302570125E+02 -0.65244821283E+01 -0.11335898743E+02  0.33004806067E+02  0.00000000000E+00 0. -1.
         11    1    4    4    0    0 -0.18455890635E+02  0.75512657470E+02 -0.10002825405E+03  0.12668240977E+03  0.00000000000E+00 0.  1.
        -13    1    3    3    0    0  0.22291583436E+02 -0.40919470132E+02 -0.12844786790E+02  0.48335352234E+02  0.00000000000E+00 0.  1.
         13    1    3    3    0    0 -0.14519034445E+02 -0.20384807888E+02  0.74686397005E+02  0.78768017948E+02  0.00000000000E+00 0. -1.
          1    1    1    2  501    0 -0.19619228480E+02 -0.76838973215E+01 -0.40861264126E+02  0.45973898140E+02  0.00000000000E+00 0. -1.
<scales pt_clust_5="13000.00000" pt_clust_6="13000.00000" pt_clust_7="13000.00000" pt_clust_8="13000.00000" pt_clust_9="21.07027"></scales>
<clustering>
<clus scale="   21.070">  2  9  1 -1</clus>
<clus scale="   90.545">  5  6 -1 -1</clus>
<clus scale="   92.262">  7  8 -1 -1</clus>
<clus scale="  110.260">  2  5  1 -1</clus>
<clus scale="   21.070">  2  5  1 -1</clus>
</clustering>
</event>
<event>
 9    1  0.3231311E-005  0.1626080E+03  0.7546771E-02  0.1187269E+00
          2   -1    0    0  502    0 -0.00000000000E+00  0.00000000000E+00  0.88244547300E+03  0.88244547300E+03  0.00000000000E+00 0. -1.
         21   -1    0    0  501  502  0.00000000000E+00 -0.00000000000E+00 -0.81546255480E+02  0.81546255480E+02  0.00000000000E+00 0. -1.
         23    2    1    2    0    0  0.91882878891E+02  0.88318000462E+02  0.57901720336E+03  0.60015637281E+03  0.93189148444E+02 0.  0.
         23    2    1    2    0    0 -0.64903259262E+02 -0.14312278353E+03  0.24118901924E+03  0.29977113346E+03  0.83630288907E+02 0.  0.
        -11    1    4    4    0    0 -0.12314259633E+02 -0.38659482538E+02  0.13787163978E+03  0.14371772902E+03  0.00000000000E+00 0. -1.
         11    1    4    4    0    0 -0.52588999629E+02 -0.10446330099E+03  0.10331737947E+03  0.15605340444E+03  0.00000000000E+00 0.  1.
        -11    1    3    3    0    0  0.13892821273E+02 -0.20015818238E+02  0.85174029370E+02  0.88590398700E+02  0.00000000000E+00 0.  1.
         11    1    3    3    0    0  0.77990057618E+02  0.10833381870E+03  0.49384317399E+03  0.51156597411E+03  0.00000000000E+00 0. -1.
          2    1    1    2  501    0 -0.26979619629E+02  0.54804783070E+02 -0.19307005088E+02  0.64064222216E+02  0.00000000000E+00 0. -1.
<scales pt_clust_5="13000.00000" pt_clust_6="13000.00000" pt_clust_7="13000.00000" pt_clust_8="13000.00000" pt_clust_9="61.08571"></scales>
<clustering>
<clus scale="   61.086">  2  9  1 -1</clus>
<clus scale="   83.630">  5  6 -1 -1</clus>
<clus scale="   93.189">  7  8 -1 -1</clus>
<clus scale="  157.325">  2  5  1 -1</clus>
<clus scale="   61.086">  2  5  1 -1</clus>
</clustering>
</event>
<event>
 9    1  0.3231311E-005  0.1014088E+03  0.7546771E-02  0.1280028E+00
          1   -1    0    0  502    0 -0.00000000000E+00  0.00000000000E+00  0.27146652529E+03  0.27146652529E+03  0.00000000000E+00 0. -1.
         21   -1    0    0  501  502  0.00000000000E+00 -0.00000000000E+00 -0.40564126400E+03  0.40564126400E+03  0.00000000000E+00 0.  1.
         23    2    1    2    0    0  0.34516352490E+02  0.23423235116E+02  0.24348528459E+03  0.26226499437E+03  0.88078470269E+02 0.  0.
         23    2    1    2    0    0 -0.77230690110E+01  0.47857999556E+01 -0.11140585378E+03  0.14576118558E+03  0.93554846416E+02 0.  0.
        -11    1    3    3    0    0  0.63773354233E+02  0.11070766133E+02  0.14513229072E+03  0.15891187616E+03  0.00000000000E+00 0. -1.
         11    1    3    3    0    0 -0.29257001743E+02  0.12352468983E+02  0.98352993871E+02  0.10335311821E+03  0.00000000000E+00 0.  1.
        -11    1    4    4    0    0  0.21233996211E+01  0.47504081340E+02 -0.74868547892E+02  0.88692987510E+02  0.00000000000E+00 0.  1.
         11    1    4    4    0    0 -0.98464686321E+01 -0.42718281385E+02 -0.36537305890E+02  0.57068198068E+02  0.00000000000E+00 0. -1.
          1    1    1    2  501    0 -0.26793283479E+02 -0.28209035072E+02 -0.26625416952E+03  0.26908160934E+03  0.00000000000E+00 0. -1.
<scales pt_clust_5="13000.00000" pt_clust_6="13000.00000" pt_clust_7="13000.00000" pt_clust_8="13000.00000" pt_clust_9="38.90539"></scales>
<clustering>
<clus scale="   38.905">  2  9  1 -1</clus>
<clus scale="   88.078">  5  6 -1 -1</clus>
<clus scale="   93.555">  7  8 -1 -1</clus>
<clus scale="   96.380">  1  5  2 -1</clus>
<clus scale="   38.905">  2  5  1 -1</clus>
</clustering>
</event>
<event>
 9    1  0.3231311E-005  0.1261988E+03  0.7546771E-02  0.1233492E+00
          1   -1    0    0  502    0 -0.00000000000E+00  0.00000000000E+00  0.22477845385E+03  0.22477845385E+03  0.00000000000E+00 0. -1.
         21   -1    0    0  501  502  0.00000000000E+00 -0.00000000000E+00 -0.85955045570E+02  0.85955045570E+02  0.00000000000E+00 0.  1.
         23    2    1    2    0    0  0.50908858716E+02  0.56849742011E+02  0.63369394430E+02  0.13573506446E+03  0.92653777647E+02 0.  0.
         23    2    1    2    0    0 -0.48936514865E+02 -0.81232103403E+02  0.66514797000E+02  0.14895425547E+03  0.93646755909E+02 0.  0.
        -11    1    3    3    0    0  0.38356008404E+02 -0.16890462064E+02  0.38495601164E+02  0.56906786928E+02  0.00000000000E+00 0.  1.
         11    1    3    3    0    0  0.12552850312E+02  0.73740204075E+02  0.24873793267E+02  0.78828277537E+02  0.00000000000E+00 0. -1.
        -13    1    4    4    0    0 -0.15482722899E+02 -0.20796626884E+02  0.75003070753E+02  0.79357891986E+02  0.00000000000E+00 0. -1.
         13    1    4    4    0    0 -0.33453791965E+02 -0.60435476518E+02 -0.84882737530E+01  0.69596363484E+02  0.00000000000E+00 0.  1.
          1    1    1    2  501    0 -0.19723438516E+01  0.24382361392E+02  0.89392168531E+01  0.26044179489E+02  0.00000000000E+00 0. -1.
<scales pt_clust_5="13000.00000" pt_clust_6="13000.00000" pt_clust_7="13000.00000" pt_clust_8="13000.00000" pt_clust_9="24.46200"></scales>
<clustering>
<clus scale="   24.462">  2  9  1 -1</clus>
<clus scale="   92.654">  5  6 -1 -1</clus>
<clus scale="   93.647">  7  8 -1 -1</clus>
<clus scale="  125.464">  1  5  2 -1</clus>
<clus scale="   24.462">  2  5  1 -1</clus>
</clustering>
</event>
<event>
 9    1  0.3269432E-005  0.1155482E+03  0.7546771E-02  0.1252849E+00
          2   -1    0    0  502    0 -0.00000000000E+00  0.00000000000E+00  0.37813895183E+03  0.37813895183E+03  0.00000000000E+00 0. -1.
         21   -1    0    0  501  502  0.00000000000E+00 -0.00000000000E+00 -0.14179555272E+03  0.14179555272E+03  0.00000000000E+00 0.  1.
         23    2    1    2    0    0  0.84085211289E+01 -0.65627352553E+02  0.28478083979E+03  0.30797530859E+03  0.96803984195E+02 0.  0.
         23    2    1    2    0    0  0.19999090470E+02  0.54963791559E+02  0.42534826338E+02  0.11605999213E+03  0.90772949271E+02 0.  0.
        -11    1    3    3    0    0  0.34272483717E+01 -0.85364298033E+02  0.26893568674E+03  0.28217939863E+03  0.00000000000E+00 0. -1.
         11    1    3    3    0    0  0.49812727572E+01  0.19736945480E+02  0.15845153052E+02  0.25795909955E+02  0.00000000000E+00 0.  1.
        -11    1    4    4    0    0 -0.35893045190E+02  0.29960284341E+02  0.18651254961E+02  0.50336851734E+02  0.00000000000E+00 0.  1.
         11    1    4    4    0    0  0.55892135660E+02  0.25003507218E+02  0.23883571377E+02  0.65723140396E+02  0.00000000000E+00 0. -1.
          2    1    1    2  501    0 -0.28407611599E+02  0.10663560994E+02 -0.90972267016E+02  0.95899203833E+02  0.00000000000E+00 0. -1.
<scales pt_clust_5="13000.00000" pt_clust_6="13000.00000" pt_clust_7="13000.00000" pt_clust_8="13000.00000" pt_clust_9="30.34310"></scales>
<clustering>
<clus scale="   30.343">  2  9  1 -1</clus>
<clus scale="   90.773">  7  8 -1 -1</clus>
<clus scale="   96.804">  5  6 -1 -1</clus>
<clus scale="  110.545">  2  7  1 -1</clus>
<clus scale="   30.343">  2  5  1 -1</clus>
</clustering>
</event>
<event>
 9    1  0.3231311E-005  0.1308316E+03  0.7546771E-02  0.1232108E+00
         -1   -1    0    0    0  501 -0.00000000000E+00  0.00000000000E+00  0.77253949222E+03  0.77253949222E+03  0.00000000000E+00 0.  1.
         21   -1    0    0  501  502  0.00000000000E+00 -0.00000000000E+00 -0.33783614802E+02  0.33783614802E+02  0.00000000000E+00 0.  1.
         23    2    1    2    0    0 -0.67878751212E+02  0.55110931741E+02  0.52808486117E+03  0.54179081326E+03  0.83779025266E+02 0.  0.
         23    2    1    2    0    0  0.47177435429E+02 -0.40664156509E+02  0.20607478858E+03  0.23887339475E+03  0.10351036757E+03 0.  0.
        -13    1    3    3    0    0 -0.84820646992E+02  0.38431023467E+02  0.46797455209E+03  0.47714952281E+03  0.00000000000E+00 0.  1.
         13    1    3    3    0    0  0.16941895780E+02  0.16679908273E+02  0.60110309079E+02  0.64641290444E+02  0.00000000000E+00 0. -1.
        -13    1    4    4    0    0  0.82225392229E+01 -0.70808398029E+02  0.12954472877E+03  0.14786235536E+03  0.00000000000E+00 0. -1.
         13    1    4    4    0    0  0.38954896206E+02  0.30144241520E+02  0.76530059810E+02  0.91011039384E+02  0.00000000000E+00 0.  1.
         -1    1    1    2    0  502  0.20701315783E+02 -0.14446775232E+02  0.45962276725E+01  0.25658899013E+02  0.00000000000E+00 0.  1.
<scales pt_clust_5="13000.00000" pt_clust_6="13000.00000" pt_clust_7="13000.00000" pt_clust_8="13000.00000" pt_clust_9="25.24389"></scales>
<clustering>
<clus scale="   25.244">  2  9  1 -1</clus>
<clus scale="   83.779">  5  6 -1 -1</clus>
<clus scale="  103.510">  7  8 -1 -1</clus>
<clus scale="  115.851">  1  5  2 -1</clus>
<clus scale="   25.244">  2  5  1 -1</clus>
</clustering>
</event>
<event>
 9    1  0.3231311E-005  0.1104024E+03  0.7546771E-02  0.1261421E+00
          1   -1    0    0  502    0 -0.00000000000E+00  0.00000000000E+00  0.10960764027E+03  0.10960764027E+03  0.00000000000E+00 0. -1.
         21   -1    0    0  501  502  0.00000000000E+00 -0.00000000000E+00 -0.32356216501E+03  0.32356216501E+03  0.00000000000E+00 0. -1.
         23    2    1    2    0    0  0.71852159182E+02  0.21327992215E+02  0.13626455418E+02  0.11982136389E+03  0.92487095994E+02 0.  0.
         23    2    1    2    0    0 -0.44304401441E+02  0.35347444109E+02 -0.34947803936E+02  0.11067006409E+03  0.88397920194E+02 0.  0.
        -13    1    3    3    0    0  0.30064168397E+01 -0.31862112906E+02  0.50581404732E+01  0.32400888354E+02  0.00000000000E+00 0.  1.
         13    1    3    3    0    0  0.68845742343E+02  0.53190105121E+02  0.85683149450E+01  0.87420475533E+02  0.00000000000E+00 0. -1.
        -13    1    4    4    0    0 -0.16777802548E+02 -0.18884424651E+02 -0.42443582633E+02  0.49392042471E+02  0.00000000000E+00 0.  1.
         13    1    4    4    0    0 -0.27526598893E+02  0.54231868760E+02  0.74957786971E+01  0.61278021623E+02  0.00000000000E+00 0. -1.
          1    1    1    2  501    0 -0.27547757741E+02 -0.56675436324E+02 -0.19263317623E+03  0.20267837730E+03  0.00000000000E+00 0. -1.
<scales pt_clust_5="13000.00000" pt_clust_6="13000.00000" pt_clust_7="13000.00000" pt_clust_8="13000.00000" pt_clust_9="63.01574"></scales>
<clustering>
<clus scale="   63.016">  2  9  1 -1</clus>
<clus scale="   88.398">  7  8 -1 -1</clus>
<clus scale="   92.487">  5  6 -1 -1</clus>
<clus scale="  107.000">  2  7  1 -1</clus>
<clus scale="   63.016">  2  5  1 -1</clus>
</clustering>
</event>
<event>
 9    1  0.3231311E-005  0.9097805E+02  0.7546771E-02  0.1300807E+00
          3   -1    0    0  502    0 -0.00000000000E+00  0.00000000000E+00  0.33128237144E+03  0.33128237144E+03  0.00000000000E+00 0. -1.
         21   -1    0    0  501  502  0.00000000000E+00 -0.00000000000E+00 -0.19756484136E+03  0.19756484136E+03  0.00000000000E+00 0. -1.
         23    2    1    2    0    0  0.14872292679E+02  0.53795311251E+01  0.26956690506E+03  0.28473137086E+03  0.90307877838E+02 0.  0.
         23    2    1    2    0    0  0.11153698854E+02  0.26742318984E+02  0.77640014114E+01  0.94670308828E+02  0.89792154629E+02 0.  0.
        -11    1    3    3    0    0  0.51975806061E+02  0.10995770610E+02  0.17842855980E+03  0.18616966009E+03  0.00000000000E+00 0. -1.
         11    1    3    3    0    0 -0.37103513381E+02 -0.56162394854E+01  0.91138345265E+02  0.98561710764E+02  0.00000000000E+00 0.  1.
        -13    1    4    4    0    0 -0.16871535192E+02  0.21894877365E+02 -0.34201665124E+02  0.43974859315E+02  0.00000000000E+00 0.  1.
         13    1    4    4    0    0  0.28025234046E+02  0.48474416190E+01  0.41965666535E+02  0.50695449513E+02  0.00000000000E+00 0. -1.
          3    1    1    2  501    0 -0.26025991533E+02 -0.32121850109E+02 -0.14361337639E+03  0.14944553312E+03  0.00000000000E+00 0. -1.
<scales pt_clust_5="13000.00000" pt_clust_6="13000.00000" pt_clust_7="13000.00000" pt_clust_8="13000.00000" pt_clust_9="41.34205"></scales>
<clustering>
<clus scale="   41.342">  2  9  1 -1</clus>
<clus scale="   89.792">  7  8 -1 -1</clus>
<clus scale="   90.308">  5  6 -1 -1</clus>
<clus scale="   90.466">  2  7  1 -1</clus>
<clus scale="   41.342">  2  5  1 -1</clus>
</clustering>
</event>
<event>
 9    1  0.3231311E-005  0.1165507E+03  0.7546771E-02  0.1249227E+00
          1   -1    0    0  502    0 -0.00000000000E+00  0.00000000000E+00  0.53766682923E+03  0.53766682923E+03  0.00000000000E+00 0. -1.
         21   -1    0    0  501  502  0.00000000000E+00 -0.00000000000E+00 -0.49378852075E+02  0.49378852075E+02  0.00000000000E+00 0. -1.
         23    2    1    2    0    0 -0.61293710253E+01  0.79297628655E+02  0.34039100210E+03  0.36135204631E+03  0.91561913270E+02 0.  0.
         23    2    1    2    0    0  0.48640301805E+02 -0.40513128369E+02  0.86966853496E+02  0.14188494564E+03  0.92525194744E+02 0.  0.
        -13    1    4    4    0    0 -0.14629425059E+02 -0.44428939279E+02  0.50150070841E+02  0.68578278838E+02  0.00000000000E+00 0.  1.
         13    1    4    4    0    0  0.63269726864E+02  0.39158109105E+01  0.36816782655E+02  0.73306666802E+02  0.00000000000E+00 0. -1.
        -13    1    3    3    0    0 -0.19987883918E+02  0.20248555176E+02  0.18825362773E+02  0.34116180527E+02  0.00000000000E+00 0.  1.
         13    1    3    3    0    0  0.13858512892E+02  0.59049073479E+02  0.32156563933E+03  0.32723586578E+03  0.00000000000E+00 0. -1.
          1    1    1    2  501    0 -0.42510930780E+02 -0.38784500286E+02  0.60930121556E+02  0.83808689353E+02  0.00000000000E+00 0. -1.
<scales pt_clust_5="13000.00000" pt_clust_6="13000.00000" pt_clust_7="13000.00000" pt_clust_8="13000.00000" pt_clust_9="57.54491"></scales>
<clustering>
<clus scale="   57.545">  2  9  1 -1</clus>
<clus scale="   91.562">  7  8 -1 -1</clus>
<clus scale="   92.525">  5  6 -1 -1</clus>
<clus scale="  115.787">  1  7  2 -1</clus>
<clus scale="   57.545">  2  5  1 -1</clus>
</clustering>
</event>
<event>
 9    1  0.3231311E-005  0.9299422E+02  0.7546771E-02  0.1299225E+00
         21   -1    0    0  501  502  0.00000000000E+00  0.00000000000E+00  0.25619245458E+03  0.25619245458E+03  0.00000000000E+00 0. -1.
         -1   -1    0    0    0  501 -0.00000000000E+00 -0.00000000000E+00 -0.48278096396E+02  0.48278096396E+02  0.00000000000E+00 0.  1.
         23    2    1    2    0    0  0.24888706151E+02  0.33510745837E+01  0.90105641089E+02  0.12670388805E+03  0.85464444632E+02 0.  0.
         23    2    1    2    0    0 -0.23480449173E+01  0.24900931237E+02  0.99043809117E+02  0.13704346299E+03  0.91354610896E+02 0.  0.
        -11    1    4    4    0    0 -0.24730652233E+02  0.31616449268E+02  0.53683031147E+01  0.40497206108E+02  0.00000000000E+00 0.  1.
         11    1    4    4    0    0  0.22382607316E+02 -0.67155180316E+01  0.93675506002E+02  0.96546256879E+02  0.00000000000E+00 0. -1.
        -13    1    3    3    0    0 -0.14071368192E+02  0.14219750824E+02 -0.72515473892E+01  0.21278854664E+02  0.00000000000E+00 0.  1.
         13    1    3    3    0    0  0.38960074342E+02 -0.10868676240E+02  0.97357188478E+02  0.10542503339E+03  0.00000000000E+00 0. -1.
         -1    1    1    2    0  502 -0.22540661234E+02 -0.28252005821E+02  0.18764907976E+02  0.40723199936E+02  0.00000000000E+00 0.  1.
<scales pt_clust_5="13000.00000" pt_clust_6="13000.00000" pt_clust_7="13000.00000" pt_clust_8="13000.00000" pt_clust_9="36.14220"></scales>
<clustering>
<clus scale="   36.142">  1  9  2 -1</clus>
<clus scale="   85.464">  7  8 -1 -1</clus>
<clus scale="   87.215">  2  7  1 -1</clus>
<clus scale="   91.355">  5  6 -1 -1</clus>
<clus scale="   36.142">  1  5  2 -1</clus>
</clustering>
</event>
